FOO
135168
    1MOL0     O    1   1.433   7.311   7.002 -0.3142  0.2729  0.2885
    1MOL0     C    2   1.475   7.426   7.029 -0.9305  0.1737  0.2360
    1MOL0     O    3   1.415   7.515   7.115 -0.6049 -0.3664 -0.8942
    1MOL0     C    4   1.286   7.489   7.134  0.5605  0.2016  0.4663
    1MOL0     C    5   1.200   7.594   7.094 -0.1579  0.3309  0.2132
    1MOL0     C    6   1.060   7.587   7.117 -1.2290 -0.1835 -0.4348
    1MOL0     C    7   0.996   7.483   7.186  0.1002 -0.5636  0.1402
    1MOL0     O    8   0.862   7.465   7.199 -0.7404 -0.6808  0.6380
    1MOL0     C    9   0.782   7.575   7.161 -0.0592  0.2390 -0.7489
    1MOL0     C   10   0.643   7.533   7.209 -1.1122 -0.1461  0.6249
    1MOL0     C   11   0.530   7.557   7.108  0.1213  0.1215 -0.4652
    1MOL0     C   12   0.402   7.493   7.169  0.0256  0.0807 -0.4992
    1MOL0     C   13   0.283   7.520   7.087  0.1205 -0.1712  0.1949
    1MOL0     C   14   0.234   7.661   7.110 -0.4304 -0.9674 -0.1954
    1MOL0     C   15   0.110   7.686   7.020  0.2184  0.6653  0.3102
    1MOL0     C   16   0.028   7.814   7.064  0.2880 -0.0615 -0.6385
    1MOL0     N   17  -0.108   7.818   6.999  0.9357  0.3017  0.9532
    1MOL0     C   18  -0.207   7.732   7.023  0.5950 -0.3536  0.8096
    1MOL0     C   19  -0.295   7.746   6.922  0.2964  0.7907 -0.1218
    1MOL0     C   20  -0.421   7.664   6.913  1.1004  0.4148 -0.1797
    1MOL0     C   21  -0.399   7.520   6.864 -0.1026 -0.0376  0.0589
    1MOL0     C   22  -0.527   7.446   6.915  0.3033  0.1002 -0.6369
    1MOL0     C   23  -0.524   7.294   6.885 -0.0893 -0.4157 -0.0254
    1MOL0     O   24  -0.495   7.277   6.747  0.3262  0.8130 -0.1142
    1MOL0     C   25  -0.392   7.185   6.718  0.8384 -0.3444 -0.2365
    1MOL0     C   26  -0.374   7.066   6.792 -1.1208 -0.9028 -0.2147
    1MOL0     C   27  -0.261   6.979   6.769  0.5795 -0.2423  0.1944
    1MOL0     C   28  -0.167   7.010   6.670  0.5528 -0.1022 -0.4888
    1MOL0     C   29  -0.042   6.934   6.679 -0.2080 -0.0236  0.3355
    1MOL0     O   30   0.060   6.982   6.604  0.5066 -0.5471  0.4545
    1MOL0     C   31   0.183   6.924   6.614  0.3247  0.4685  0.1588
    1MOL0     C   32   0.275   6.986   6.691  0.4724 -0.0218 -0.2626
    1MOL0     C   33   0.404   6.940   6.717  0.2425  0.1580  0.1297
    1MOL0     C   34   0.442   6.810   6.681 -0.3759 -0.3374  0.0758
    1MOL0     O   35   0.574   6.783   6.693 -0.2307  0.4287  0.1960
    1MOL0     C   36   0.624   6.654   6.662  0.4250  0.7336  0.5386
    1MOL0     C   37   0.769   6.637   6.700  0.0112 -0.3237  0.3672
    1MOL0     C   38   0.820   6.491   6.698  0.0442  0.2067 -0.0638
    1MOL0     C   39   0.971   6.455   6.716  0.0071 -0.1557  0.2010
    1MOL0     C   40   0.994   6.307   6.725 -0.7881 -0.1782 -0.3505
    1MOL0     C   41   1.141   6.271   6.712  0.6318 -0.1141 -0.2724
    1MOL0     C   42   1.161   6.124   6.667  0.4844 -0.6469 -0.7208
    1MOL0     C   43   1.302   6.082   6.689 -0.0962  0.5974  0.1694
    1MOL0    Cl   44   1.412   6.179   6.575 -0.1589 -0.1566  0.2370
    1MOL0     C   45   0.346   6.742   6.596  0.3660 -0.0114 -0.3942
    1MOL0     C   46   0.219   6.793   6.570 -0.6592 -0.1463 -1.0922
    1MOL0     O   47  -0.033   6.831   6.749 -0.7978 -0.0347  0.7838
    1MOL0     C   48  -0.203   7.118   6.584 -0.2255  0.3361  0.3293
    1MOL0     C   49  -0.305   7.208   6.610  0.3631  0.5133  0.6766
    1MOL0     N   50  -0.256   7.845   6.838  0.1763 -0.5358  0.3013
    1MOL0     N   51  -0.147   7.891   6.884 -0.8981 -0.0434 -0.6353
    1MOL0     C   52   1.078   7.380   7.230  0.2986  0.1360  0.3016
    1MOL0     C   53   1.222   7.385   7.205 -0.4570  0.2098  0.5175
    1MOL0     C   54   1.610   7.451   6.989  0.7508 -0.2873  0.7007
    1MOL0     C   55   1.664   7.381   6.879 -0.6575 -0.6631 -0.5090
    1MOL0     C   56   1.784   7.428   6.821 -0.3968  0.7123  0.5310
    1MOL0     C   57   1.857   7.527   6.882 -0.5977 -0.4646 -0.4492
    1MOL0     O   58   1.977   7.557   6.819  0.1988  0.7370 -0.3330
    1MOL0     C   59   2.091   7.575   6.903 -0.4862  0.5366  0.6404
    1MOL0     C   60   2.218   7.544   6.817  0.4360 -0.7514  0.0970
    1MOL0     C   61   2.253   7.400   6.810  0.1750 -0.0884  0.4510
    1MOL0     C   62   2.385   7.356   6.762 -0.1118 -0.8869  0.7122
    1MOL0     C   63   2.497   7.367   6.865 -0.7531  0.7825  0.2633
    1MOL0     C   64   2.587   7.368   6.951  0.5968 -0.3102 -0.3021
    1MOL0     C   65   1.798   7.609   6.972  0.1978 -0.2813 -0.4764
    1MOL0     C   66   1.685   7.562   7.030  0.6293  0.0277 -0.1884
    1MOL0     H   67   1.239   7.679   7.038  0.3839 -2.0595 -3.3533
    1MOL0     H   68   1.002   7.672   7.082 -1.2478  0.8723  2.0180
    1MOL0     H   69   0.781   7.588   7.053 -0.3478 -0.3980 -0.8272
    1MOL0     H   70   0.820   7.663   7.214 -0.3973 -0.9264  1.5937
    1MOL0     H   71   0.626   7.584   7.304  1.5516 -1.7185  2.0711
    1MOL0     H   72   0.641   7.424   7.219 -0.7618 -0.3586 -1.2222
    1MOL0     H   73   0.546   7.503   7.014 -1.6340 -0.7874 -0.2836
    1MOL0     H   74   0.513   7.663   7.084  2.2058  0.3007 -1.4350
    1MOL0     H   75   0.412   7.385   7.178  0.5089  0.2839  2.6505
    1MOL0     H   76   0.379   7.512   7.274 -1.8067 -0.6426 -0.7397
    1MOL0     H   77   0.202   7.455   7.123  0.3634 -0.4299  0.2744
    1MOL0     H   78   0.304   7.490   6.983  2.0631 -3.2996  1.3400
    1MOL0     H   79   0.314   7.734   7.090  0.4432 -2.3490 -2.1173
    1MOL0     H   80   0.200   7.679   7.213  0.3640 -0.9495  0.0724
    1MOL0     H   81   0.140   7.695   6.915 -0.1925 -2.5027 -0.1847
    1MOL0     H   82   0.038   7.603   7.020 -0.4889  1.2573  1.3460
    1MOL0     H   83   0.078   7.911   7.068  0.0023  0.0678  0.1894
    1MOL0     H   84   0.005   7.789   7.168  1.3297 -1.9881 -0.8142
    1MOL0     H   85  -0.221   7.682   7.118  2.0726  0.8834  1.7302
    1MOL0     H   86  -0.500   7.710   6.853  0.6738  0.4488  0.4066
    1MOL0     H   87  -0.466   7.654   7.012  0.6246 -1.4657 -0.5575
    1MOL0     H   88  -0.308   7.479   6.910  0.7166 -3.0370 -3.7953
    1MOL0     H   89  -0.385   7.541   6.758  1.9022  4.9944  0.9914
    1MOL0     H   90  -0.544   7.452   7.023 -0.1828 -2.2954 -0.5161
    1MOL0     H   91  -0.611   7.492   6.862 -2.1230 -1.7742  1.3080
    1MOL0     H   92  -0.627   7.263   6.904 -0.9024  1.6688 -0.7519
    1MOL0     H   93  -0.457   7.234   6.947 -0.8896 -2.2521 -0.8742
    1MOL0     H   94  -0.426   7.044   6.885  0.0206  3.8825  1.8981
    1MOL0     H   95  -0.241   6.908   6.848 -0.4898 -1.0340 -0.2126
    1MOL0     H   96   0.243   7.079   6.737 -2.9575 -2.1958  2.2733
    1MOL0     H   97   0.473   7.004   6.772  0.9616  1.8465 -2.5865
    1MOL0     H   98   0.619   6.640   6.553  1.7120  0.6611  0.4802
    1MOL0     H   99   0.565   6.580   6.716  2.7712  0.1849  2.4883
    1MOL0     H  100   0.777   6.672   6.803 -2.7056 -0.9497  0.8732
    1MOL0     H  101   0.840   6.693   6.640  1.2327 -0.8827  1.2520
    1MOL0     H  102   0.783   6.443   6.607 -1.5244  1.6669 -0.2535
    1MOL0     H  103   0.761   6.437   6.772  1.5968  1.8130  2.5154
    1MOL0     H  104   1.019   6.489   6.624  3.7230 -1.2365  1.5535
    1MOL0     H  105   1.021   6.500   6.802  0.2601  0.2748 -0.1654
    1MOL0     H  106   0.936   6.247   6.655  0.8702 -0.5542 -1.4482
    1MOL0     H  107   0.963   6.277   6.826 -2.0161 -4.1003 -1.7233
    1MOL0     H  108   1.204   6.280   6.802  1.1806 -1.4520 -0.4882
    1MOL0     H  109   1.183   6.336   6.635 -0.8104  1.2967  0.0910
    1MOL0     H  110   1.096   6.062   6.729  2.3512 -2.4534 -0.4537
    1MOL0     H  111   1.123   6.107   6.566 -0.5036 -1.6505 -0.2061
    1MOL0     H  112   1.319   5.974   6.685  1.5103  0.8252 -0.4001
    1MOL0     H  113   1.334   6.118   6.787 -2.4031  2.3985  0.3336
    1MOL0     H  114   0.366   6.636   6.581  0.8358  0.2168 -1.4725
    1MOL0     H  115   0.148   6.723   6.526 -0.2987 -2.1606  1.2755
    1MOL0     H  116  -0.140   7.144   6.500 -0.2322 -3.9273 -1.2421
    1MOL0     H  117  -0.315   7.305   6.563 -1.0671  0.8215  1.5435
    1MOL0     H  118   1.013   7.308   7.279 -0.2027 -0.9713 -1.8870
    1MOL0     H  119   1.284   7.308   7.249  0.3296  0.6163  0.1390
    1MOL0     H  120   1.619   7.294   6.833  0.1982 -1.7333  0.6389
    1MOL0     H  121   1.838   7.376   6.742  0.7020  3.5787 -0.7279
    1MOL0     H  122   2.096   7.527   7.001  3.7285 -0.5795  0.0617
    1MOL0     H  123   2.103   7.682   6.923  2.8113  0.7546 -1.6632
    1MOL0     H  124   2.202   7.586   6.717 -1.8949  0.8666  1.0521
    1MOL0     H  125   2.295   7.595   6.877 -1.8142 -0.0439  2.5737
    1MOL0     H  126   2.178   7.364   6.739 -0.2618 -0.5784  1.1516
    1MOL0     H  127   2.234   7.347   6.904  1.2760 -1.0701  0.1530
    1MOL0     H  128   2.366   7.250   6.747  1.9423 -1.0047 -1.6532
    1MOL0     H  129   2.408   7.416   6.673 -1.2805 -0.4617  0.6845
    1MOL0     H  130   2.673   7.362   7.015  1.5738 -0.1750 -1.5416
    1MOL0     H  131   1.848   7.701   7.000 -1.1566  0.5447 -0.6391
    1MOL0     H  132   1.641   7.619   7.112 -0.0144 -5.5849  3.9343
    2MOL0     O  133   9.690   7.315   7.823 -0.8495 -0.1887 -0.2550
    2MOL0     C  134   9.612   7.401   7.782  0.1105 -0.0780  0.8965
    2MOL0     O  135   9.640   7.532   7.772 -0.3556  0.2376 -0.3057
    2MOL0     C  136   9.750   7.585   7.836  0.3622  0.4088  0.3223
    2MOL0     C  137   9.727   7.672   7.935  0.7983  0.1985 -0.1538
    2MOL0     C  138   9.834   7.713   8.014 -0.9724  0.0862 -0.9814
    2MOL0     C  139   9.968   7.663   7.985 -1.0920 -0.1407  0.6964
    2MOL0     O  140  10.086   7.711   8.045  0.0658 -0.5313 -0.0002
    2MOL0     C  141  10.079   7.819   8.138 -0.3494  0.4425  0.0719
    2MOL0     C  142  10.222   7.847   8.182 -0.0111 -0.2174 -0.5662
    2MOL0     C  143  10.228   7.941   8.300  0.0893 -0.1967  1.0361
    2MOL0     C  144  10.357   7.931   8.376 -0.3686  0.1782  0.0108
    2MOL0     C  145  10.342   8.020   8.495 -1.3065 -0.3198 -0.7134
    2MOL0     C  146  10.224   7.975   8.594  0.8407 -0.2879  0.6373
    2MOL0     C  147  10.245   8.020   8.745  0.0342  0.7820  0.6287
    2MOL0     C  148  10.128   7.978   8.834 -1.0063 -0.1771 -0.0411
    2MOL0     N  149  10.146   8.035   8.970 -0.2371  0.0933  0.8606
    2MOL0     C  150  10.037   8.063   9.057 -0.3583 -0.1422 -0.2171
    2MOL0     C  151  10.100   8.088   9.175 -0.4059  0.0160 -0.0594
    2MOL0     C  152  10.031   8.113   9.311 -0.1757  1.2775 -0.2459
    2MOL0     C  153   9.991   8.258   9.325 -0.6398  0.2257  0.4501
    2MOL0     C  154   9.926   8.283   9.475 -0.3197 -0.2547  1.5266
    2MOL0     C  155   9.776   8.236   9.493  0.3665  0.5741  1.0155
    2MOL0     O  156   9.746   8.254   9.630  0.3162  0.4328  0.0970
    2MOL0     C  157   9.618   8.306   9.647  0.1055 -0.3241  0.6376
    2MOL0     C  158   9.505   8.256   9.588 -0.4706  0.6514  0.6009
    2MOL0     C  159   9.379   8.311   9.607 -0.9008  0.1801 -0.1110
    2MOL0     C  160   9.367   8.427   9.684  0.2013  0.1513 -0.4585
    2MOL0     C  161   9.238   8.485   9.697  0.1859  1.0813  0.5044
    2MOL0     O  162   9.146   8.437   9.609  0.2953 -0.5428  0.2869
    2MOL0     C  163   9.021   8.492   9.606  0.2789  0.6304 -0.1308
    2MOL0     C  164   8.913   8.404   9.639  0.1784  0.7547  0.9598
    2MOL0     C  165   8.773   8.441   9.633 -0.4182  0.1608  0.6342
    2MOL0     C  166   8.747   8.585   9.608  0.1093  0.9613  0.6260
    2MOL0     O  167   8.617   8.632   9.601 -0.3816  0.7578 -0.4985
    2MOL0     C  168   8.511   8.564   9.661 -0.0705  0.6352  0.6226
    2MOL0     C  169   8.392   8.665   9.662 -0.8632  0.4665 -0.0162
    2MOL0     C  170   8.365   8.763   9.548  0.3537 -0.0787 -0.1692
    2MOL0     C  171   8.241   8.849   9.567  0.4949  0.0387  0.0732
    2MOL0     C  172   8.201   8.935   9.451  0.4302 -0.0452  0.3655
    2MOL0     C  173   8.178   8.860   9.317  0.2969  0.3569 -0.9178
    2MOL0     C  174   8.063   8.757   9.328 -1.0535 -0.5061  0.0012
    2MOL0     C  175   7.933   8.826   9.341  0.0837  0.7009  0.2964
    2MOL0    Cl  176   7.892   8.923   9.191  0.2405  0.2716  0.2958
    2MOL0     C  177   8.859   8.666   9.585  0.1054  0.5508  0.1506
    2MOL0     C  178   8.992   8.626   9.584 -0.1118  0.0599 -0.5692
    2MOL0     O  179   9.215   8.576   9.778 -0.6340 -0.2777 -0.7833
    2MOL0     C  180   9.483   8.489   9.742  0.0730 -0.5400 -0.2140
    2MOL0     C  181   9.606   8.424   9.728  0.3921 -0.0405  0.6257
    2MOL0     N  182  10.238   8.056   9.161 -0.2330 -0.7318  0.0786
    2MOL0     N  183  10.264   8.039   9.038 -0.2960 -0.1375  0.1201
    2MOL0     C  184   9.983   7.576   7.885 -0.8451  0.1459  0.1596
    2MOL0     C  185   9.874   7.530   7.811  0.1031  0.0586 -0.2344
    2MOL0     C  186   9.480   7.357   7.727  0.0830  0.0974  0.1675
    2MOL0     C  187   9.372   7.445   7.709 -0.0660  1.2672  0.0640
    2MOL0     C  188   9.248   7.410   7.643  0.3822  0.1104 -0.1541
    2MOL0     C  189   9.242   7.285   7.593  0.9087 -0.3170 -0.8009
    2MOL0     O  190   9.143   7.253   7.501  0.3315 -0.4928  0.1727
    2MOL0     C  191   9.003   7.299   7.518  0.3266  0.1666 -0.0973
    2MOL0     C  192   8.912   7.230   7.414 -0.2580 -0.4781 -0.1147
    2MOL0     C  193   8.978   7.230   7.269  0.0943  0.1046 -0.3512
    2MOL0     C  194   8.872   7.194   7.163  0.0859 -0.3559  0.6723
    2MOL0     C  195   8.762   7.296   7.155  0.0618 -0.2074 -1.0664
    2MOL0     C  196   8.662   7.364   7.154  0.2969 -0.1666 -0.0079
    2MOL0     C  197   9.345   7.192   7.607 -0.0256 -1.0003  0.0579
    2MOL0     C  198   9.460   7.230   7.671  0.2616 -0.1315 -0.4648
    2MOL0     H  199   9.627   7.707   7.955  0.7594  1.0673 -1.7492
    2MOL0     H  200   9.828   7.799   8.080 -2.5730 -0.2914 -0.5753
    2MOL0     H  201  10.016   7.793   8.223 -0.1858 -0.0588  0.0384
    2MOL0     H  202  10.041   7.914   8.097 -1.0284  0.8931  1.6532
    2MOL0     H  203  10.277   7.884   8.096  0.0392  2.1179  0.4048
    2MOL0     H  204  10.266   7.751   8.211 -2.1285 -1.3511 -0.8941
    2MOL0     H  205  10.142   7.924   8.365  0.8996 -0.9483  1.9283
    2MOL0     H  206  10.224   8.041   8.254  0.8395 -1.3745 -1.8151
    2MOL0     H  207  10.372   7.826   8.404  1.6657  0.4740  0.1424
    2MOL0     H  208  10.443   7.951   8.313 -1.1248  3.0393 -0.2392
    2MOL0     H  209  10.321   8.120   8.457  1.8848  1.5732  1.9737
    2MOL0     H  210  10.435   8.018   8.552 -2.1869 -0.8458  0.7578
    2MOL0     H  211  10.203   7.869   8.580  4.7394 -1.3631  1.5998
    2MOL0     H  212  10.129   8.019   8.562  1.9525  1.5639 -0.3148
    2MOL0     H  213  10.344   7.986   8.778  0.1067  0.6477  0.2707
    2MOL0     H  214  10.249   8.129   8.749 -1.9471  0.8747  1.1753
    2MOL0     H  215  10.115   7.870   8.839  0.1798 -0.3102  3.4686
    2MOL0     H  216  10.045   8.029   8.785  0.3714 -0.4092 -2.7600
    2MOL0     H  217   9.929   8.064   9.041 -0.8120 -1.6930  2.2652
    2MOL0     H  218  10.094   8.077   9.393 -2.7009  1.5378  1.9575
    2MOL0     H  219   9.946   8.045   9.322 -0.8979  2.2583  0.3285
    2MOL0     H  220   9.918   8.284   9.248 -1.3245 -1.7338  0.3622
    2MOL0     H  221  10.069   8.330   9.299  0.8128 -1.8813 -1.4198
    2MOL0     H  222   9.996   8.228   9.538  3.4063  1.8175 -0.4377
    2MOL0     H  223   9.943   8.389   9.495 -0.3073  0.2227 -0.7839
    2MOL0     H  224   9.779   8.128   9.473 -2.4021 -0.4937  5.1086
    2MOL0     H  225   9.707   8.273   9.416  0.4693 -1.4088 -0.1172
    2MOL0     H  226   9.519   8.161   9.538  0.8543  0.8482  0.5613
    2MOL0     H  227   9.289   8.260   9.575 -0.4751 -2.3529  2.3494
    2MOL0     H  228   8.946   8.301   9.647 -0.8015  0.1166 -1.9053
    2MOL0     H  229   8.703   8.358   9.628 -0.1087 -0.0680 -4.1859
    2MOL0     H  230   8.526   8.544   9.767 -0.8682  0.6856  0.7501
    2MOL0     H  231   8.480   8.477   9.600  1.1004 -2.3253  3.9077
    2MOL0     H  232   8.412   8.732   9.746 -2.3703  0.6119  0.2547
    2MOL0     H  233   8.304   8.602   9.678  0.5671 -2.6684 -3.1608
    2MOL0     H  234   8.366   8.709   9.453  0.2136  1.7567 -1.2559
    2MOL0     H  235   8.453   8.828   9.545 -0.4017  0.9522 -2.7225
    2MOL0     H  236   8.160   8.781   9.593  0.0320 -0.7937 -3.1042
    2MOL0     H  237   8.265   8.921   9.646  2.7573 -1.5062  0.8885
    2MOL0     H  238   8.267   9.021   9.436 -0.2099  1.4181  4.4623
    2MOL0     H  239   8.112   8.986   9.489  1.1678  1.5791 -0.0164
    2MOL0     H  240   8.269   8.803   9.297 -0.1794  0.2630 -3.0870
    2MOL0     H  241   8.156   8.933   9.238  0.3346 -0.0934 -1.3483
    2MOL0     H  242   8.052   8.706   9.232 -1.7686  1.2449 -0.9101
    2MOL0     H  243   8.080   8.683   9.406 -1.8523  0.4394  1.1029
    2MOL0     H  244   7.935   8.904   9.417  1.2003  0.6521  0.3302
    2MOL0     H  245   7.853   8.760   9.373  0.0171  2.0732  3.2400
    2MOL0     H  246   8.842   8.772   9.577  0.5760  0.6727  0.6818
    2MOL0     H  247   9.067   8.703   9.568 -0.0626  0.1008 -0.1551
    2MOL0     H  248   9.486   8.574   9.810  2.2018 -1.0774  0.4344
    2MOL0     H  249   9.690   8.475   9.772 -0.4115  3.9543 -1.9893
    2MOL0     H  250  10.080   7.538   7.855  0.3688 -0.6948  4.4364
    2MOL0     H  251   9.895   7.455   7.736 -0.3360 -3.7362  3.0684
    2MOL0     H  252   9.374   7.548   7.744  0.6803  2.8038 -3.9578
    2MOL0     H  253   9.165   7.480   7.640 -0.7968 -1.2564 -0.7677
    2MOL0     H  254   8.992   7.405   7.493 -2.9689 -0.7325 -3.5488
    2MOL0     H  255   8.978   7.285   7.623 -0.2479  2.4572  0.1114
    2MOL0     H  256   8.886   7.129   7.448  1.7850 -1.5440 -1.5405
    2MOL0     H  257   8.822   7.292   7.405 -1.0104 -1.3352  1.1790
    2MOL0     H  258   9.059   7.155   7.268  0.6782  0.7267 -1.0501
    2MOL0     H  259   9.016   7.330   7.245  2.2524 -0.6232 -0.2093
    2MOL0     H  260   8.934   7.181   7.073  0.4247 -2.4883  1.1598
    2MOL0     H  261   8.833   7.092   7.175  1.8207 -1.2417 -0.6148
    2MOL0     H  262   8.567   7.414   7.153  0.6533  0.5684 -2.1244
    2MOL0     H  263   9.332   7.089   7.573 -0.6661 -1.3898  1.3955
    2MOL0     H  264   9.552   7.173   7.674  0.6904  0.5690  2.3195
    3MOL0     O  265   3.550   2.723   6.482 -0.6255  0.1853  0.3823
    3MOL0     C  266   3.551   2.631   6.567 -0.3479 -0.2600  0.2572
    3MOL0     O  267   3.439   2.579   6.621 -0.2445 -0.0161 -0.3511
    3MOL0     C  268   3.317   2.629   6.573  0.0622  0.6528  0.7781
    3MOL0     C  269   3.268   2.583   6.440  0.1363  0.3457 -0.2274
    3MOL0     C  270   3.138   2.619   6.401 -0.4435 -0.0540  0.5076
    3MOL0     C  271   3.064   2.709   6.479  0.0589 -0.1008 -0.3456
    3MOL0     O  272   2.938   2.755   6.449  0.3983  0.7295  0.3514
    3MOL0     C  273   2.858   2.690   6.343  0.8191  0.3703  0.4397
    3MOL0     C  274   2.720   2.741   6.361 -0.7192  0.1605 -0.3287
    3MOL0     C  275   2.668   2.831   6.237  0.1292  0.3906 -0.1714
    3MOL0     C  276   2.644   2.975   6.281  0.0690  0.1751 -0.3673
    3MOL0     C  277   2.573   3.060   6.166 -0.0624 -0.1244 -0.0303
    3MOL0     C  278   2.546   3.204   6.212  0.0825 -0.6682  0.5536
    3MOL0     C  279   2.478   3.220   6.348 -0.1715 -0.5101 -0.4699
    3MOL0     C  280   2.348   3.153   6.368 -0.2243 -0.6454 -0.4618
    3MOL0     N  281   2.262   3.200   6.259  0.4749  0.1260 -0.9048
    3MOL0     C  282   2.229   3.113   6.161  0.2931  0.4248 -0.1965
    3MOL0     C  283   2.157   3.181   6.069 -0.5251 -0.1352 -0.9785
    3MOL0     C  284   2.101   3.135   5.945 -0.4955  0.8917  0.4435
    3MOL0     C  285   1.951   3.149   5.934 -0.6264 -0.3507  1.2575
    3MOL0     C  286   1.895   3.296   5.917  0.1731  0.5943  0.7192
    3MOL0     C  287   1.751   3.295   5.852  0.5288  0.5936  0.0156
    3MOL0     O  288   1.680   3.171   5.850  0.4657 -0.0233 -0.7060
    3MOL0     C  289   1.550   3.197   5.880 -0.3802 -0.6891 -0.5435
    3MOL0     C  290   1.468   3.230   5.777 -0.0500  0.4413  1.1936
    3MOL0     C  291   1.327   3.247   5.796 -0.1897  0.3405 -0.3165
    3MOL0     C  292   1.274   3.237   5.933  1.3915 -0.2271 -0.7004
    3MOL0     C  293   1.131   3.236   5.963 -0.8014 -0.2665 -0.3062
    3MOL0     O  294   1.088   3.252   6.088 -0.1288 -1.1942 -0.6676
    3MOL0     C  295   0.955   3.298   6.109 -0.3426 -0.4419  0.1635
    3MOL0     C  296   0.935   3.410   6.193 -0.4049  0.5396  0.2356
    3MOL0     C  297   0.808   3.459   6.223 -0.2146 -0.5849  0.2309
    3MOL0     C  298   0.693   3.402   6.169  0.0988  0.2275  0.3049
    3MOL0     O  299   0.581   3.474   6.193  0.7606  0.1139 -0.0682
    3MOL0     C  300   0.461   3.419   6.121 -0.7174  0.6889 -0.1711
    3MOL0     C  301   0.341   3.516   6.135  0.2211  0.2148 -0.0550
    3MOL0     C  302   0.263   3.481   6.264  0.8535 -0.0402  0.6663
    3MOL0     C  303   0.123   3.542   6.261 -1.4457 -1.0809 -0.5601
    3MOL0     C  304   0.042   3.512   6.388  0.6031  1.0170 -0.1340
    3MOL0     C  305  -0.095   3.564   6.364  0.1793  0.1577  0.6075
    3MOL0     C  306  -0.195   3.525   6.476 -1.2203 -0.5284 -0.5190
    3MOL0     C  307  -0.207   3.632   6.586 -0.5075  1.0794  0.0077
    3MOL0    Cl  308  -0.060   3.646   6.680  0.3950  0.1319  0.0170
    3MOL0     C  309   0.706   3.294   6.077 -0.6753  0.7186  0.2235
    3MOL0     C  310   0.842   3.250   6.042  0.4925  0.1559 -0.5880
    3MOL0     O  311   1.060   3.220   5.863 -0.5432  0.0458 -0.4295
    3MOL0     C  312   1.365   3.199   6.036 -0.9639  0.2250  0.5493
    3MOL0     C  313   1.499   3.178   6.006  0.1622 -0.0075  0.1766
    3MOL0     N  314   2.146   3.316   6.112  0.8617  0.3394  0.0563
    3MOL0     N  315   2.210   3.317   6.222 -0.8991  0.3407 -0.4388
    3MOL0     C  316   3.126   2.774   6.590  0.6437  0.4761 -0.2830
    3MOL0     C  317   3.250   2.736   6.638 -0.0022 -0.0708  0.1186
    3MOL0     C  318   3.680   2.575   6.608 -0.2982 -0.8076 -0.4326
    3MOL0     C  319   3.797   2.616   6.540  0.1022  0.0466 -0.2944
    3MOL0     C  320   3.924   2.567   6.572  0.6541  0.1858 -0.6373
    3MOL0     C  321   3.942   2.475   6.676  0.1759  0.4534  0.8395
    3MOL0     O  322   4.065   2.427   6.722  0.5818  0.0093 -0.1762
    3MOL0     C  323   4.182   2.443   6.646 -0.0245 -0.4063  0.4514
    3MOL0     C  324   4.173   2.352   6.523 -0.0842  0.4063 -0.0165
    3MOL0     C  325   4.286   2.380   6.424 -0.7795  0.6072  0.4341
    3MOL0     C  326   4.288   2.266   6.322  0.4114  0.1973  0.1390
    3MOL0     C  327   4.389   2.273   6.224  0.2317 -1.2616  0.4422
    3MOL0     C  328   4.487   2.299   6.147  0.4319  0.0096 -0.5506
    3MOL0     C  329   3.827   2.435   6.737  0.5416 -0.7471 -0.5445
    3MOL0     C  330   3.697   2.501   6.718  0.3773  0.7935 -0.0221
    3MOL0     H  331   3.325   2.509   6.385 -0.6052 -0.6056  0.2488
    3MOL0     H  332   3.092   2.564   6.319 -2.2558  2.5579 -0.3553
    3MOL0     H  333   2.863   2.581   6.357  0.4517  0.1641 -0.8834
    3MOL0     H  334   2.902   2.724   6.249 -1.7738 -1.1691 -1.4620
    3MOL0     H  335   2.712   2.792   6.457 -2.4456  3.6391 -2.1217
    3MOL0     H  336   2.653   2.654   6.356 -0.2974 -0.1644 -0.4225
    3MOL0     H  337   2.579   2.779   6.203  0.2559 -1.6461  2.2802
    3MOL0     H  338   2.743   2.830   6.158  3.1649  0.7395  2.4648
    3MOL0     H  339   2.571   2.978   6.363  1.0215  2.8342  0.4747
    3MOL0     H  340   2.737   3.019   6.317  0.0234 -0.2622  0.2880
    3MOL0     H  341   2.484   3.012   6.125 -0.0719  1.1605 -1.6169
    3MOL0     H  342   2.648   3.059   6.086 -0.5534  0.0387 -0.4957
    3MOL0     H  343   2.481   3.254   6.140  0.0260 -0.0527  1.0208
    3MOL0     H  344   2.641   3.259   6.210  0.0014 -0.4617 -2.6775
    3MOL0     H  345   2.543   3.181   6.427 -1.6667 -3.4489 -0.5351
    3MOL0     H  346   2.449   3.325   6.352 -3.7845 -1.3919  0.1991
    3MOL0     H  347   2.317   3.190   6.466  2.5567  1.9147 -0.4160
    3MOL0     H  348   2.348   3.044   6.362 -1.3000 -0.5868 -3.1217
    3MOL0     H  349   2.254   3.008   6.147 -0.4327  0.1199  0.7327
    3MOL0     H  350   2.123   3.029   5.935 -3.8866 -0.0304  1.4035
    3MOL0     H  351   2.150   3.177   5.857  0.4184  0.9018  0.9522
    3MOL0     H  352   1.904   3.102   6.020 -0.3935 -1.0415  1.0161
    3MOL0     H  353   1.927   3.089   5.846  1.9320  1.7842 -1.1156
    3MOL0     H  354   1.888   3.339   6.017  1.2745  1.5690  0.4001
    3MOL0     H  355   1.965   3.350   5.853  0.7759  0.1836  1.0242
    3MOL0     H  356   1.769   3.325   5.748 -0.5549  2.0583  0.2201
    3MOL0     H  357   1.693   3.378   5.893 -0.6039 -0.6403  1.0255
    3MOL0     H  358   1.511   3.233   5.677 -1.5825  0.6630  0.5058
    3MOL0     H  359   1.266   3.274   5.711 -0.1340  3.2703  0.4553
    3MOL0     H  360   1.023   3.449   6.242 -1.3755  2.8027  0.3127
    3MOL0     H  361   0.803   3.539   6.297 -0.3474  1.3194 -1.7509
    3MOL0     H  362   0.431   3.321   6.160  1.3961  0.9675  2.4922
    3MOL0     H  363   0.488   3.428   6.016 -2.6041 -0.3031 -0.7901
    3MOL0     H  364   0.285   3.505   6.041  1.2433 -1.6448 -0.4934
    3MOL0     H  365   0.358   3.624   6.136  0.8505  0.1445 -0.9943
    3MOL0     H  366   0.323   3.531   6.342  2.5101 -0.4506 -0.2908
    3MOL0     H  367   0.257   3.374   6.283 -2.1477 -0.0974 -0.1969
    3MOL0     H  368   0.134   3.649   6.246 -0.8903 -0.9003  0.9122
    3MOL0     H  369   0.071   3.502   6.174 -0.7725 -0.4143 -1.2780
    3MOL0     H  370   0.090   3.548   6.479 -0.9143 -1.3722  1.7484
    3MOL0     H  371   0.043   3.403   6.394 -1.7596  0.6987 -2.8853
    3MOL0     H  372  -0.138   3.527   6.270 -0.5950  3.7252 -0.5818
    3MOL0     H  373  -0.086   3.673   6.369  1.9551 -0.0078  1.8707
    3MOL0     H  374  -0.288   3.485   6.433 -0.5416 -0.5872 -1.9772
    3MOL0     H  375  -0.142   3.436   6.512 -0.1218 -0.1771 -1.2063
    3MOL0     H  376  -0.288   3.603   6.653 -0.6236 -2.3230 -1.3864
    3MOL0     H  377  -0.226   3.731   6.544 -2.1043  0.2831 -1.2549
    3MOL0     H  378   0.620   3.240   6.040 -1.7561  0.4284  2.8882
    3MOL0     H  379   0.832   3.160   5.982  0.8985  0.0937 -0.5647
    3MOL0     H  380   1.328   3.172   6.134  1.9220 -2.0025  1.1253
    3MOL0     H  381   1.560   3.134   6.085  1.5249 -0.3047 -1.0024
    3MOL0     H  382   3.073   2.848   6.650 -0.3696 -0.4803  0.0268
    3MOL0     H  383   3.307   2.785   6.717  1.8060  1.1613 -1.8361
    3MOL0     H  384   3.790   2.689   6.460  1.2055 -1.5583 -1.9393
    3MOL0     H  385   4.016   2.591   6.519  0.1492 -1.5367 -2.4156
    3MOL0     H  386   4.267   2.418   6.710 -2.0231  0.1796  3.5645
    3MOL0     H  387   4.195   2.550   6.626  0.6953 -0.5631  0.0492
    3MOL0     H  388   4.183   2.247   6.553  3.6218  0.7364  0.4014
    3MOL0     H  389   4.078   2.363   6.470  0.0568 -2.4018 -1.0178
    3MOL0     H  390   4.385   2.391   6.468  0.8938  2.3506 -3.2618
    3MOL0     H  391   4.269   2.475   6.372  0.8227  0.1085 -1.0879
    3MOL0     H  392   4.296   2.166   6.364 -1.3049 -0.2735 -0.5647
    3MOL0     H  393   4.199   2.263   6.259 -0.3383 -1.3914  1.1963
    3MOL0     H  394   4.565   2.315   6.076  0.7782 -1.6303 -0.5630
    3MOL0     H  395   3.834   2.356   6.812  0.2815 -2.0509 -1.8309
    3MOL0     H  396   3.619   2.472   6.787  1.3952 -0.0424  0.8248
    4MOL0     O  397   0.439   5.764   4.884  0.4570 -0.5566  0.2531
    4MOL0     C  398   0.385   5.654   4.859 -0.2708  0.5618 -0.9264
    4MOL0     O  399   0.251   5.626   4.865  0.1961  0.5717 -0.4451
    4MOL0     C  400   0.167   5.728   4.890  0.3416  0.4438 -0.0210
    4MOL0     C  401   0.083   5.774   4.785 -0.4025  0.2099  0.1228
    4MOL0     C  402  -0.015   5.875   4.807 -0.2796  0.2316 -0.0415
    4MOL0     C  403  -0.023   5.938   4.929 -0.3256  0.6311  0.8133
    4MOL0     O  404  -0.112   6.044   4.949  0.4563 -0.1993 -0.0745
    4MOL0     C  405  -0.240   6.042   4.891  0.4771  0.2932  0.7673
    4MOL0     C  406  -0.337   6.105   4.996 -1.3621  0.4756 -0.0594
    4MOL0     C  407  -0.476   6.123   4.946 -0.5612  0.2896  0.5133
    4MOL0     C  408  -0.553   6.206   5.054 -0.2155 -0.0768 -0.1543
    4MOL0     C  409  -0.700   6.178   5.040  0.1370  0.6667 -0.4064
    4MOL0     C  410  -0.774   6.220   5.165  0.7012  0.2315  0.4120
    4MOL0     C  411  -0.927   6.192   5.169 -0.3522  1.0915 -0.0559
    4MOL0     C  412  -0.948   6.050   5.220 -0.4518 -0.0561 -0.4245
    4MOL0     N  413  -1.054   6.044   5.324  0.1703  1.2206  0.9798
    4MOL0     C  414  -1.068   6.123   5.438 -0.3530 -0.2310 -0.1024
    4MOL0     C  415  -1.162   6.053   5.510 -0.1402  0.4207  0.0511
    4MOL0     C  416  -1.229   6.082   5.645  0.3933 -1.1337 -0.1541
    4MOL0     C  417  -1.132   6.079   5.760 -0.8854  0.1967 -0.4862
    4MOL0     C  418  -1.140   5.942   5.820  0.0763  0.0539  0.6104
    4MOL0     C  419  -1.054   5.845   5.734 -0.5933  0.9139  0.2431
    4MOL0     O  420  -1.092   5.714   5.768  0.3284  0.0663 -0.7159
    4MOL0     C  421  -0.989   5.631   5.815  0.1470 -0.1777  0.5425
    4MOL0     C  422  -0.892   5.594   5.723 -0.3482  0.1935 -0.2451
    4MOL0     C  423  -0.775   5.526   5.764 -0.4457  0.3922 -0.3241
    4MOL0     C  424  -0.765   5.482   5.896 -0.2869  0.1289 -0.3602
    4MOL0     C  425  -0.647   5.390   5.928 -0.2542 -0.1507 -0.0042
    4MOL0     O  426  -0.588   5.421   6.047  0.3479  0.6415  0.8699
    4MOL0     C  427  -0.466   5.376   6.082 -0.2698 -0.0597 -0.8447
    4MOL0     C  428  -0.358   5.418   6.022 -0.1073 -0.4070  0.4045
    4MOL0     C  429  -0.234   5.368   6.060 -1.1299  0.1401 -0.0564
    4MOL0     C  430  -0.222   5.266   6.151  0.6342  0.1492  0.7331
    4MOL0     O  431  -0.103   5.205   6.180  0.2225 -0.3613 -0.8820
    4MOL0     C  432   0.010   5.285   6.148  0.2251  0.0774 -0.5866
    4MOL0     C  433   0.130   5.241   6.222 -0.8868 -0.4775 -0.0036
    4MOL0     C  434   0.170   5.104   6.179  0.2295 -0.3505  0.0919
    4MOL0     C  435   0.315   5.080   6.213  0.1693  0.2803 -0.3252
    4MOL0     C  436   0.347   4.929   6.174  0.2703 -0.7499  0.4372
    4MOL0     C  437   0.489   4.895   6.209 -0.0785 -0.5659  0.4839
    4MOL0     C  438   0.524   4.746   6.180  0.5081 -0.2135  0.4299
    4MOL0     C  439   0.674   4.747   6.159  0.3394  0.0727 -0.5908
    4MOL0    Cl  440   0.772   4.794   6.306  0.1787 -0.0552  0.0324
    4MOL0     C  441  -0.339   5.219   6.203 -0.5626  0.5707  2.1414
    4MOL0     C  442  -0.463   5.272   6.177  0.9591  0.0578  0.8131
    4MOL0     O  443  -0.604   5.315   5.839  0.7214  0.7998  0.5053
    4MOL0     C  444  -0.860   5.519   5.991  0.4662  0.2867  0.7157
    4MOL0     C  445  -0.969   5.604   5.952 -0.1932  0.8052 -0.1080
    4MOL0     N  446  -1.208   5.946   5.429  0.8938  0.2123  0.0693
    4MOL0     N  447  -1.149   5.948   5.320  0.6300 -0.0663  0.1101
    4MOL0     C  448   0.055   5.883   5.030 -0.3039 -0.6159 -0.6474
    4MOL0     C  449   0.149   5.778   5.016  0.0095 -0.0718 -0.7434
    4MOL0     C  450   0.479   5.552   4.814 -0.3965 -0.8456  0.2250
    4MOL0     C  451   0.617   5.580   4.801  0.0322 -0.1746  0.2994
    4MOL0     C  452   0.699   5.480   4.771 -0.4877  0.5867  0.1073
    4MOL0     C  453   0.659   5.358   4.738  0.2357  0.3054 -1.1354
    4MOL0     O  454   0.757   5.265   4.715  0.5463 -0.5672 -0.2259
    4MOL0     C  455   0.729   5.128   4.716 -0.3241  0.0587 -0.2720
    4MOL0     C  456   0.730   5.076   4.853 -0.1501 -0.0072 -0.0989
    4MOL0     C  457   0.868   5.076   4.921  0.3536 -0.0025  0.7615
    4MOL0     C  458   0.861   5.017   5.065  0.1223  0.7184 -1.3568
    4MOL0     C  459   0.854   4.867   5.050  0.8179  0.0070 -0.4771
    4MOL0     C  460   0.836   4.751   5.036  0.7203  0.5898 -0.1931
    4MOL0     C  461   0.529   5.324   4.740  0.2460  0.6877 -0.0525
    4MOL0     C  462   0.431   5.421   4.775 -0.0085 -0.6257  0.2736
    4MOL0     H  463   0.083   5.729   4.686 -4.3533 -1.4648  0.7018
    4MOL0     H  464  -0.050   5.916   4.713 -2.0350  1.2539  0.9880
    4MOL0     H  465  -0.278   5.943   4.866  0.4669  0.7711 -1.2762
    4MOL0     H  466  -0.249   6.099   4.798 -2.2484 -0.9072  0.2140
    4MOL0     H  467  -0.300   6.203   5.027 -0.6442 -0.0590  0.8667
    4MOL0     H  468  -0.344   6.046   5.088  0.5070  0.4868  0.1447
    4MOL0     H  469  -0.523   6.024   4.943  0.2499 -0.0757 -1.4460
    4MOL0     H  470  -0.474   6.160   4.843  0.0723  0.3056  0.5288
    4MOL0     H  471  -0.523   6.182   5.156  1.8646 -2.1260 -1.1598
    4MOL0     H  472  -0.526   6.309   5.028 -1.5398  0.3477  0.0690
    4MOL0     H  473  -0.709   6.069   5.041  0.4018  0.6388 -0.7527
    4MOL0     H  474  -0.743   6.204   4.943  1.2634  2.1427 -0.5419
    4MOL0     H  475  -0.774   6.329   5.173 -1.6179  0.2208  1.6792
    4MOL0     H  476  -0.729   6.184   5.258 -1.3257 -1.8454  0.6971
    4MOL0     H  477  -0.970   6.270   5.233 -4.5437 -0.6946 -0.3749
    4MOL0     H  478  -0.974   6.208   5.071 -1.9422 -1.0236  0.3109
    4MOL0     H  479  -0.863   6.004   5.271 -1.7073 -3.9050 -1.4232
    4MOL0     H  480  -0.954   5.982   5.134  1.4455 -0.7999 -0.0117
    4MOL0     H  481  -1.002   6.207   5.454 -0.9301 -0.1218  2.1786
    4MOL0     H  482  -1.311   6.010   5.656 -0.4064 -0.3181 -0.6426
    4MOL0     H  483  -1.271   6.183   5.649  1.1918 -0.8145  0.4424
    4MOL0     H  484  -1.175   6.150   5.832 -2.2601 -1.3011  0.2273
    4MOL0     H  485  -1.032   6.107   5.725 -1.1790 -1.8645 -3.2436
    4MOL0     H  486  -1.106   5.943   5.924  1.8205  3.4120  0.1559
    4MOL0     H  487  -1.247   5.920   5.815  0.1249  0.1068 -1.0281
    4MOL0     H  488  -0.947   5.859   5.749 -0.2959 -1.5512  0.8068
    4MOL0     H  489  -1.073   5.854   5.627  2.6600  0.8109 -0.4359
    4MOL0     H  490  -0.913   5.613   5.618  0.7160 -3.6621 -1.3219
    4MOL0     H  491  -0.704   5.471   5.703 -0.9897 -1.6159  0.7511
    4MOL0     H  492  -0.364   5.484   5.936 -0.8055  0.4963  1.1260
    4MOL0     H  493  -0.154   5.418   6.006  0.2885 -1.2414  0.6884
    4MOL0     H  494  -0.012   5.390   6.172 -4.8218 -0.4458 -1.7028
    4MOL0     H  495   0.033   5.288   6.041  0.8084  1.9554 -0.4493
    4MOL0     H  496   0.115   5.257   6.329  0.1697  1.2404 -0.0793
    4MOL0     H  497   0.213   5.306   6.194  0.6833 -3.0594 -1.7129
    4MOL0     H  498   0.140   5.107   6.074  1.4918  2.0379 -0.2679
    4MOL0     H  499   0.112   5.040   6.247 -0.2564  4.0452  4.3786
    4MOL0     H  500   0.381   5.141   6.150  0.4620 -0.3625 -0.6523
    4MOL0     H  501   0.326   5.100   6.320  1.1788 -2.8311  0.2407
    4MOL0     H  502   0.327   4.928   6.067 -2.8222  2.0785  0.8085
    4MOL0     H  503   0.276   4.858   6.218 -0.0990 -0.1906  0.7659
    4MOL0     H  504   0.501   4.911   6.316 -0.0225 -0.4037  0.4545
    4MOL0     H  505   0.556   4.968   6.162  0.7259 -1.6099 -0.0370
    4MOL0     H  506   0.511   4.679   6.266  0.7609 -1.1686 -0.2640
    4MOL0     H  507   0.469   4.710   6.093  0.0562 -1.3749  1.1756
    4MOL0     H  508   0.700   4.814   6.076 -2.7101 -0.2913 -2.0003
    4MOL0     H  509   0.709   4.648   6.128 -0.1149 -0.6549  1.1435
    4MOL0     H  510  -0.335   5.127   6.260 -0.5662 -0.4772  0.4907
    4MOL0     H  511  -0.553   5.242   6.230 -0.5351  1.6671 -0.6463
    4MOL0     H  512  -0.872   5.485   6.094 -1.1934  1.0256  0.8033
    4MOL0     H  513  -1.042   5.615   6.032 -0.0064  0.9331  0.0459
    4MOL0     H  514   0.048   5.942   5.121  3.7153  3.1768 -2.4049
    4MOL0     H  515   0.194   5.730   5.103 -1.0361  0.5283  0.1642
    4MOL0     H  516   0.651   5.682   4.815 -1.4699  0.2805  0.8803
    4MOL0     H  517   0.807   5.492   4.768 -0.0870 -1.2876  2.9031
    4MOL0     H  518   0.816   5.085   4.666  0.3783  0.0802  0.8857
    4MOL0     H  519   0.644   5.103   4.652 -0.0333  0.4666 -0.8261
    4MOL0     H  520   0.662   5.141   4.909  1.0355  2.5269 -1.4368
    4MOL0     H  521   0.691   4.974   4.849 -0.1142 -0.1139  1.5842
    4MOL0     H  522   0.902   5.180   4.930  1.1890 -0.2928  1.0817
    4MOL0     H  523   0.936   5.026   4.852 -1.8501  0.0601 -1.5836
    4MOL0     H  524   0.955   5.037   5.118 -1.1559  0.8819  0.9582
    4MOL0     H  525   0.779   5.056   5.125  2.7639  2.3322  1.4911
    4MOL0     H  526   0.812   4.647   5.027 -1.5158  1.1112 -0.7563
    4MOL0     H  527   0.486   5.229   4.711 -0.2817  1.0189 -0.3865
    4MOL0     H  528   0.325   5.400   4.765 -0.3995  0.9150  0.7589
    5MOL0     O  529   9.933   1.960   0.111 -0.2584  0.0041  0.2894
    5MOL0     C  530   9.951   1.853   0.062  0.6983  0.6638  0.5169
    5MOL0     O  531  10.058   1.809  -0.009 -0.7626  0.3273  0.6994
    5MOL0     C  532  10.169   1.876  -0.051 -0.6272  0.9439  0.4973
    5MOL0     C  533  10.203   2.010  -0.033 -0.4966 -0.5749 -0.2610
    5MOL0     C  534  10.329   2.065  -0.069 -0.4252  0.3479  0.1524
    5MOL0     C  535  10.416   1.988  -0.143  0.7779  1.0410 -0.3915
    5MOL0     O  536  10.536   2.038  -0.183 -0.2962  0.8114  0.2202
    5MOL0     C  537  10.639   1.941  -0.202 -0.7546 -0.1727  0.2236
    5MOL0     C  538  10.774   2.001  -0.185 -0.1317  0.4434  0.6341
    5MOL0     C  539  10.882   1.885  -0.195  0.4355 -0.8122  0.3921
    5MOL0     C  540  11.016   1.941  -0.166  0.1481 -0.9500  0.1794
    5MOL0     C  541  11.124   1.848  -0.217  0.3236  0.1480 -0.8413
    5MOL0     C  542  11.271   1.898  -0.208 -0.3601 -0.5966  0.1881
    5MOL0     C  543  11.333   1.915  -0.070  0.3250 -0.4903  0.1221
    5MOL0     C  544  11.473   1.986  -0.095  0.4320  0.7403 -0.8234
    5MOL0     N  545  11.547   2.011   0.026 -0.3853  0.1741 -0.0493
    5MOL0     C  546  11.495   2.018   0.149  0.0239  0.0357  0.0116
    5MOL0     C  547  11.582   2.077   0.232  0.2867  0.3663  0.8736
    5MOL0     C  548  11.571   2.111   0.379 -0.4490 -1.0359 -0.7711
    5MOL0     C  549  11.435   2.108   0.432 -0.2137 -0.0602  0.0683
    5MOL0     C  550  11.400   1.968   0.470  0.2721 -0.2970  0.5398
    5MOL0     C  551  11.287   1.982   0.570  0.9178  0.1702  0.1372
    5MOL0     O  552  11.210   1.863   0.572 -1.1469  0.2755  0.1360
    5MOL0     C  553  11.113   1.851   0.669 -0.0369  0.6198  0.7612
    5MOL0     C  554  11.040   1.739   0.656  0.2854 -0.3461 -0.5021
    5MOL0     C  555  10.946   1.707   0.755  0.5219  0.3297 -0.8390
    5MOL0     C  556  10.925   1.788   0.868 -0.0917 -0.0439  1.0178
    5MOL0     C  557  10.825   1.744   0.979 -0.6124 -0.4484 -1.5959
    5MOL0     O  558  10.772   1.616   0.970  0.5937  0.9155  0.4531
    5MOL0     C  559  10.687   1.576   1.074 -0.3693 -0.5485 -0.9326
    5MOL0     C  560  10.563   1.517   1.038  0.3297 -0.0549  0.2484
    5MOL0     C  561  10.470   1.485   1.144  0.0883 -0.7112  0.3414
    5MOL0     C  562  10.512   1.497   1.283 -0.4136  0.2346 -0.6145
    5MOL0     O  563  10.412   1.458   1.374 -0.1760 -0.4337 -0.0623
    5MOL0     C  564  10.432   1.491   1.512 -0.0402 -0.1649 -0.4152
    5MOL0     C  565  10.316   1.429   1.599  0.2192  0.4559  0.0346
    5MOL0     C  566  10.302   1.481   1.725 -0.5936  0.8460  0.2237
    5MOL0     C  567  10.202   1.393   1.812 -0.3200 -0.1469  0.1447
    5MOL0     C  568  10.200   1.410   1.962 -0.5228 -0.2725  0.0623
    5MOL0     C  569  10.185   1.550   2.015  0.0758 -0.1361 -0.2549
    5MOL0     C  570  10.083   1.648   1.958  0.2795 -0.3784  1.1789
    5MOL0     C  571   9.942   1.574   1.965  0.1868  0.3499  0.4783
    5MOL0    Cl  572   9.837   1.671   1.857 -0.2793 -0.3316  0.1258
    5MOL0     C  573  10.636   1.561   1.311 -0.1361  0.0768 -0.6639
    5MOL0     C  574  10.721   1.592   1.206  0.2616 -0.5907 -0.5052
    5MOL0     O  575  10.801   1.831   1.066  0.1947 -0.9245 -0.4273
    5MOL0     C  576  10.989   1.915   0.867  0.4611  0.0233  0.1615
    5MOL0     C  577  11.078   1.944   0.770  0.3392 -0.8229 -0.1548
    5MOL0     N  578  11.692   2.099   0.154 -0.1669 -0.3306  0.0896
    5MOL0     N  579  11.668   2.071   0.033 -0.1704 -0.0007 -0.1468
    5MOL0     C  580  10.365   1.860  -0.182 -0.5301  0.4194  0.4499
    5MOL0     C  581  10.246   1.802  -0.134  0.2100 -0.7040 -0.1982
    5MOL0     C  582   9.841   1.758   0.099  0.0228 -0.4970  0.4683
    5MOL0     C  583   9.712   1.803   0.114  0.0938  0.1062  0.6832
    5MOL0     C  584   9.597   1.721   0.140  0.7478 -0.0476 -0.9113
    5MOL0     C  585   9.623   1.585   0.148 -0.0106  0.9029 -0.3940
    5MOL0     O  586   9.504   1.519   0.184  0.2612 -0.4791 -0.3502
    5MOL0     C  587   9.520   1.376   0.209 -0.0891 -0.6292 -0.0439
    5MOL0     C  588   9.392   1.324   0.270  0.3243 -0.5533  0.7668
    5MOL0     C  589   9.280   1.328   0.172  0.1128 -0.0544  0.5835
    5MOL0     C  590   9.154   1.260   0.227 -0.1423 -0.6917 -0.6594
    5MOL0     C  591   9.061   1.255   0.122  0.1623  0.0484 -0.7913
    5MOL0     C  592   8.984   1.240   0.029  0.9825  0.9587 -0.2982
    5MOL0     C  593   9.748   1.529   0.139 -0.6113 -0.2471  0.0339
    5MOL0     C  594   9.861   1.618   0.111 -0.3049 -0.5816  0.3900
    5MOL0     H  595  10.127   2.073   0.011 -0.7117 -0.3882 -0.8901
    5MOL0     H  596  10.352   2.169  -0.049 -3.1016  0.5930  2.5219
    5MOL0     H  597  10.629   1.924  -0.310 -0.7171  1.8318 -0.1428
    5MOL0     H  598  10.621   1.847  -0.149 -1.7570 -0.4237 -0.5433
    5MOL0     H  599  10.803   2.062  -0.099  3.0018  0.2285 -0.1351
    5MOL0     H  600  10.787   2.063  -0.274 -0.9973 -0.7945 -0.4021
    5MOL0     H  601  10.873   1.864  -0.302  1.8345  1.2776 -0.2096
    5MOL0     H  602  10.844   1.810  -0.125 -1.2826  0.2989  0.7409
    5MOL0     H  603  11.026   2.035  -0.221  0.1656 -0.1691  1.4849
    5MOL0     H  604  11.035   1.954  -0.059  1.1519 -0.1411 -0.0829
    5MOL0     H  605  11.114   1.838  -0.326  3.4972  0.5914 -1.2755
    5MOL0     H  606  11.121   1.756  -0.159  2.8832  1.0524  0.9158
    5MOL0     H  607  11.266   2.001  -0.246  0.2666  0.0022  1.6537
    5MOL0     H  608  11.323   1.818  -0.261 -1.0968 -0.4955 -0.7226
    5MOL0     H  609  11.260   1.966  -0.006 -0.9122 -1.8069 -0.1689
    5MOL0     H  610  11.342   1.813  -0.031 -2.8129 -0.2653  1.7827
    5MOL0     H  611  11.465   2.081  -0.148 -2.1744  2.5744  2.4782
    5MOL0     H  612  11.545   1.928  -0.154  1.2023 -0.6734  1.3758
    5MOL0     H  613  11.397   1.991   0.187  0.8726 -0.4515  2.0131
    5MOL0     H  614  11.619   2.207   0.402  0.7349 -2.2376  2.2804
    5MOL0     H  615  11.637   2.041   0.431  0.9359  1.1763  0.6468
    5MOL0     H  616  11.358   2.138   0.359 -0.4792  0.7392  0.6581
    5MOL0     H  617  11.435   2.171   0.521  0.7123  0.5187 -0.3273
    5MOL0     H  618  11.378   1.902   0.385  1.9135  1.1849 -1.1199
    5MOL0     H  619  11.486   1.922   0.519  0.4939  2.6749  3.2915
    5MOL0     H  620  11.210   2.055   0.540  0.1439 -0.2200  1.1064
    5MOL0     H  621  11.321   1.991   0.674 -1.8467 -2.0139  1.3808
    5MOL0     H  622  11.053   1.679   0.567 -2.0902 -0.1849 -1.0292
    5MOL0     H  623  10.886   1.617   0.745  0.2229  0.2722  1.1760
    5MOL0     H  624  10.542   1.515   0.932 -0.2211 -0.5346  0.3657
    5MOL0     H  625  10.375   1.450   1.103  0.9065 -1.7784 -0.6934
    5MOL0     H  626  10.424   1.598   1.531 -2.5695 -0.6278  1.6733
    5MOL0     H  627  10.528   1.458   1.553 -0.3882 -0.7100 -0.0244
    5MOL0     H  628  10.334   1.322   1.615 -1.2992  0.6034  3.7959
    5MOL0     H  629  10.221   1.445   1.548 -0.0437  0.6543  0.5805
    5MOL0     H  630  10.270   1.585   1.716 -0.1815  0.8568 -1.4349
    5MOL0     H  631  10.407   1.468   1.754 -1.0568 -4.2321  0.5214
    5MOL0     H  632  10.098   1.400   1.777 -0.0773 -2.1997 -1.2104
    5MOL0     H  633  10.224   1.286   1.806 -0.9045 -0.5380  3.0870
    5MOL0     H  634  10.288   1.358   2.001 -0.2417  0.0256 -0.1648
    5MOL0     H  635  10.109   1.359   1.995 -0.4483  0.3684  1.3164
    5MOL0     H  636  10.283   1.599   2.022  0.5736 -1.3735  2.4967
    5MOL0     H  637  10.154   1.552   2.119  0.9249  1.7941  0.0168
    5MOL0     H  638  10.076   1.739   2.018  2.0169 -1.6122  3.3709
    5MOL0     H  639  10.106   1.658   1.851  2.4487  0.3389  1.6701
    5MOL0     H  640   9.910   1.578   2.070 -1.2402  3.7931  0.0392
    5MOL0     H  641   9.949   1.469   1.935 -1.3053 -0.4310  2.5684
    5MOL0     H  642  10.663   1.578   1.414  1.2876 -2.1849 -0.6052
    5MOL0     H  643  10.819   1.630   1.232  0.4915 -0.8786 -0.9405
    5MOL0     H  644  10.967   1.991   0.941  0.1889  1.6427 -1.5128
    5MOL0     H  645  11.133   2.034   0.795 -2.8137  0.6672  2.1165
    5MOL0     H  646  10.414   1.800  -0.257  0.6829  1.7594  0.1250
    5MOL0     H  647  10.223   1.699  -0.155  1.0637 -0.8488 -0.4718
    5MOL0     H  648   9.688   1.909   0.104 -0.8725 -0.2394 -1.0203
    5MOL0     H  649   9.497   1.763   0.151  1.3796  1.3386 -0.3380
    5MOL0     H  650   9.595   1.365   0.288 -0.3009  0.1758  0.2781
    5MOL0     H  651   9.539   1.318   0.119 -0.0896 -3.7597  1.8157
    5MOL0     H  652   9.423   1.220   0.286  1.2276 -0.2990  0.7380
    5MOL0     H  653   9.378   1.385   0.360  0.5462 -0.2253  0.5816
    5MOL0     H  654   9.315   1.278   0.081  1.1715 -0.3660  1.1441
    5MOL0     H  655   9.257   1.432   0.147  2.8658 -0.0195 -2.4712
    5MOL0     H  656   9.181   1.157   0.251 -0.7833 -1.3457 -2.6181
    5MOL0     H  657   9.116   1.310   0.317 -0.9291  2.8817 -2.7788
    5MOL0     H  658   8.919   1.231  -0.056  0.3247  2.7838 -0.0393
    5MOL0     H  659   9.761   1.422   0.143 -0.4670 -0.2530 -0.5009
    5MOL0     H  660   9.960   1.584   0.083 -0.3506 -0.2964 -0.1335
    6MOL0     O  661   4.894   4.815   4.189 -0.7081 -0.0284 -0.2288
    6MOL0     C  662   4.882   4.788   4.309  0.0310  0.4946 -0.4112
    6MOL0     O  663   4.778   4.721   4.364  0.2472  0.1576  0.4359
    6MOL0     C  664   4.691   4.646   4.290  0.7267 -0.1834 -0.3174
    6MOL0     C  665   4.726   4.537   4.215 -1.0529 -0.1488  0.8467
    6MOL0     C  666   4.630   4.468   4.142 -0.0286 -0.1900  0.1020
    6MOL0     C  667   4.498   4.504   4.150  0.4749 -0.2920  0.1550
    6MOL0     O  668   4.395   4.435   4.087  0.3960 -0.0439 -0.2195
    6MOL0     C  669   4.402   4.290   4.107 -0.3358 -0.6419 -0.5328
    6MOL0     C  670   4.261   4.238   4.068  0.2095  0.6503 -0.1507
    6MOL0     C  671   4.235   4.221   3.917  0.4509  0.1055 -0.2472
    6MOL0     C  672   4.329   4.128   3.847 -0.1693 -0.3308 -0.6192
    6MOL0     C  673   4.304   4.106   3.695  0.1224  1.0749  0.9971
    6MOL0     C  674   4.318   4.231   3.621 -0.1048  0.7638  0.5864
    6MOL0     C  675   4.474   4.249   3.582  1.3797  0.9824  0.4174
    6MOL0     C  676   4.502   4.378   3.502 -0.8997 -0.3986 -0.1333
    6MOL0     N  677   4.642   4.391   3.463  0.2122 -0.1379 -0.0481
    6MOL0     C  678   4.752   4.370   3.542 -0.3116 -0.2938 -0.4305
    6MOL0     C  679   4.862   4.385   3.464  0.5979 -0.1422 -0.2658
    6MOL0     C  680   5.008   4.380   3.517 -0.2955  0.3206 -0.3837
    6MOL0     C  681   5.053   4.238   3.546 -0.3444 -0.9971 -0.5667
    6MOL0     C  682   5.049   4.134   3.429 -0.1829 -0.3210 -0.3782
    6MOL0     C  683   5.068   4.002   3.490 -0.5415 -0.3017  1.1809
    6MOL0     O  684   4.971   3.959   3.587  0.2096 -0.3551  0.5124
    6MOL0     C  685   4.938   3.824   3.589  0.0137  1.1285  0.2671
    6MOL0     C  686   5.019   3.728   3.530 -0.3414 -0.1765 -0.2444
    6MOL0     C  687   4.974   3.596   3.516  0.1618  0.0049  0.7951
    6MOL0     C  688   4.850   3.546   3.576  0.4198  1.2718 -0.9654
    6MOL0     C  689   4.814   3.400   3.575  0.3492 -0.1998  1.2270
    6MOL0     O  690   4.695   3.373   3.628  0.1193  0.3859 -0.3598
    6MOL0     C  691   4.669   3.244   3.667  0.5881  0.2262 -1.0842
    6MOL0     C  692   4.698   3.135   3.588 -0.1812 -0.8071  0.1946
    6MOL0     C  693   4.654   3.008   3.639  0.7282  0.0552  0.6880
    6MOL0     C  694   4.586   2.996   3.760  0.3337  0.1714  0.0082
    6MOL0     O  695   4.551   2.876   3.816  0.6886 -0.6428 -0.3081
    6MOL0     C  696   4.570   2.755   3.748 -0.3422 -0.1992 -0.1104
    6MOL0     C  697   4.546   2.647   3.844  0.0501  0.5095 -0.5409
    6MOL0     C  698   4.668   2.623   3.939  0.2543  0.2732 -0.3224
    6MOL0     C  699   4.645   2.494   4.033  0.8030  1.0003  0.0198
    6MOL0     C  700   4.780   2.450   4.091 -0.1832 -0.6802 -1.0204
    6MOL0     C  701   4.744   2.312   4.156  0.0066 -0.2251 -0.3596
    6MOL0     C  702   4.815   2.195   4.092  0.1382  0.1520 -0.1499
    6MOL0     C  703   4.961   2.186   4.137  1.1747  0.2474 -0.0794
    6MOL0    Cl  704   5.052   2.140   3.993  0.3704  0.3537 -0.4033
    6MOL0     C  705   4.564   3.108   3.830 -0.0011 -0.2929 -0.9878
    6MOL0     C  706   4.605   3.232   3.794 -0.4164 -0.0094 -0.1509
    6MOL0     O  707   4.902   3.323   3.535  0.1461  0.3001 -0.6669
    6MOL0     C  708   4.768   3.648   3.627  0.1734  0.6379  0.5078
    6MOL0     C  709   4.813   3.778   3.641 -0.3897  0.0842 -0.1194
    6MOL0     N  710   4.822   4.403   3.335 -0.1382  0.0600  0.3999
    6MOL0     N  711   4.689   4.410   3.337  0.1942  0.3915 -0.1317
    6MOL0     C  712   4.457   4.617   4.219 -0.5560 -1.1090  0.2516
    6MOL0     C  713   4.551   4.690   4.290 -0.6940 -0.1032 -0.1545
    6MOL0     C  714   4.971   4.856   4.405  0.6069 -1.2512  0.3096
    6MOL0     C  715   5.100   4.885   4.368 -0.9714  0.5547  0.5868
    6MOL0     C  716   5.203   4.923   4.458  0.3190 -0.0195  0.7080
    6MOL0     C  717   5.165   4.953   4.584 -0.5234 -0.0570 -0.2944
    6MOL0     O  718   5.244   4.989   4.692  0.5958  1.4943 -0.2776
    6MOL0     C  719   5.385   5.027   4.675 -0.1686  0.7188 -0.1660
    6MOL0     C  720   5.402   5.165   4.600 -0.0551  0.4939  0.9216
    6MOL0     C  721   5.544   5.209   4.561  0.2991  0.5331 -0.4477
    6MOL0     C  722   5.602   5.289   4.675  0.3741  0.1827  0.2701
    6MOL0     C  723   5.748   5.302   4.662 -0.1861 -0.0522 -0.6804
    6MOL0     C  724   5.862   5.315   4.668 -0.8287 -1.1185  0.3225
    6MOL0     C  725   5.029   4.944   4.620  0.1072  0.4382 -0.5026
    6MOL0     C  726   4.939   4.876   4.541  0.0253  0.9080 -0.1418
    6MOL0     H  727   4.827   4.499   4.211  0.0836  2.7090 -1.3380
    6MOL0     H  728   4.657   4.390   4.071 -2.6013 -0.0947 -1.0856
    6MOL0     H  729   4.411   4.263   4.213  0.0156 -0.8410 -0.6119
    6MOL0     H  730   4.482   4.245   4.047 -0.6342 -0.2230 -1.2482
    6MOL0     H  731   4.188   4.314   4.098  0.4626  1.0551 -0.5454
    6MOL0     H  732   4.250   4.149   4.130  0.8647  1.7426  1.5804
    6MOL0     H  733   4.236   4.324   3.883 -3.6564 -0.0053 -1.1641
    6MOL0     H  734   4.132   4.185   3.911  0.4691  0.2046 -1.3492
    6MOL0     H  735   4.423   4.180   3.862 -1.5540  1.5186  2.6765
    6MOL0     H  736   4.330   4.036   3.906 -0.7903  0.6696  1.0172
    6MOL0     H  737   4.203   4.070   3.677 -0.6250  2.2419  2.5360
    6MOL0     H  738   4.369   4.023   3.665 -1.4159  0.4926 -0.9008
    6MOL0     H  739   4.273   4.310   3.683 -5.1483 -3.5437  3.2239
    6MOL0     H  740   4.256   4.217   3.532 -1.7051 -1.7484  1.9793
    6MOL0     H  741   4.529   4.241   3.677 -1.9107 -0.6055  2.3805
    6MOL0     H  742   4.487   4.157   3.525 -2.4984 -0.2022  1.1612
    6MOL0     H  743   4.473   4.451   3.579 -1.1843 -3.7182  3.2408
    6MOL0     H  744   4.437   4.386   3.415 -1.0487 -0.8075 -0.0661
    6MOL0     H  745   4.760   4.358   3.649  1.4450  1.0147 -0.3622
    6MOL0     H  746   5.002   4.441   3.607  0.4941 -0.8840  0.5144
    6MOL0     H  747   5.081   4.429   3.451 -0.6837  0.2661 -0.8628
    6MOL0     H  748   4.996   4.207   3.634 -2.4286  0.8165 -1.1845
    6MOL0     H  749   5.160   4.227   3.566 -0.0211 -1.2522 -2.2577
    6MOL0     H  750   4.951   4.132   3.380 -1.0186  3.4931  0.7964
    6MOL0     H  751   5.132   4.148   3.359 -0.1234 -0.2021 -0.2837
    6MOL0     H  752   5.162   4.007   3.547 -0.5334 -0.4575  1.1813
    6MOL0     H  753   5.076   3.932   3.406  0.6647  3.3366 -2.0316
    6MOL0     H  754   5.124   3.745   3.507 -0.2974  0.4927  0.3872
    6MOL0     H  755   5.035   3.522   3.465 -0.6888  0.2990 -0.7414
    6MOL0     H  756   4.746   3.140   3.491  2.8254  0.0898  1.6169
    6MOL0     H  757   4.654   2.920   3.575 -3.2607 -0.8996  1.6994
    6MOL0     H  758   4.673   2.760   3.711 -0.0886 -1.8985  0.2838
    6MOL0     H  759   4.494   2.730   3.673  0.0128 -1.4323 -0.0831
    6MOL0     H  760   4.521   2.557   3.787 -0.1636  0.3951 -0.2696
    6MOL0     H  761   4.458   2.669   3.906  0.5359  0.6241  0.1204
    6MOL0     H  762   4.699   2.714   3.992 -0.5574  0.9695 -1.0042
    6MOL0     H  763   4.749   2.613   3.865 -0.0066  2.0551 -0.8998
    6MOL0     H  764   4.582   2.515   4.120 -1.4152 -2.2070 -0.6489
    6MOL0     H  765   4.595   2.416   3.976 -0.9321  0.3440  2.2864
    6MOL0     H  766   4.809   2.523   4.167 -0.6460 -0.6783 -0.8448
    6MOL0     H  767   4.848   2.441   4.006  1.1572 -0.5033 -0.0057
    6MOL0     H  768   4.638   2.296   4.175 -0.3550  0.6616 -1.5031
    6MOL0     H  769   4.780   2.314   4.259 -0.8391  0.9075 -0.0681
    6MOL0     H  770   4.773   2.095   4.106 -0.2418  0.5470  1.9686
    6MOL0     H  771   4.805   2.207   3.984 -0.8092 -2.2935 -0.4161
    6MOL0     H  772   4.956   2.097   4.200  1.2518  1.0011  1.0009
    6MOL0     H  773   5.002   2.275   4.185  2.1847 -0.2845  0.0711
    6MOL0     H  774   4.521   3.094   3.928  0.3953  0.3126 -0.7228
    6MOL0     H  775   4.598   3.316   3.862  3.7518  1.5318 -1.2933
    6MOL0     H  776   4.667   3.629   3.660  0.6017  0.0938  1.5420
    6MOL0     H  777   4.747   3.848   3.692 -1.0987 -0.7420  0.1070
    6MOL0     H  778   4.352   4.647   4.219 -0.4372  0.1937 -4.9466
    6MOL0     H  779   4.518   4.781   4.340 -0.5068  0.0640 -0.3324
    6MOL0     H  780   5.131   4.854   4.268 -0.5033  0.3296  0.7980
    6MOL0     H  781   5.307   4.931   4.430  0.0518  0.3344 -0.2361
    6MOL0     H  782   5.432   4.961   4.601 -0.0671  1.4148 -0.7282
    6MOL0     H  783   5.438   5.015   4.770 -2.1224 -2.9670  0.6612
    6MOL0     H  784   5.353   5.149   4.504  0.9324 -2.1263  0.7569
    6MOL0     H  785   5.355   5.246   4.656  0.4366  2.0687 -0.8471
    6MOL0     H  786   5.529   5.268   4.470 -1.7877 -1.6269 -1.6141
    6MOL0     H  787   5.616   5.132   4.536  2.5411  1.5597  2.3444
    6MOL0     H  788   5.564   5.391   4.686 -0.4174 -0.0383 -0.2849
    6MOL0     H  789   5.580   5.230   4.765 -1.9292  0.7221  0.1393
    6MOL0     H  790   5.968   5.315   4.655 -1.0084 -3.5905 -2.0655
    6MOL0     H  791   4.999   4.980   4.718 -0.0131 -0.9613 -0.0133
    6MOL0     H  792   4.841   4.852   4.582  0.7288 -1.5724  0.2249
    7MOL0     O  793   5.294   0.161   8.098  0.8563 -0.2501  0.3933
    7MOL0     C  794   5.306   0.169   7.978 -0.4285 -0.9580  0.1378
    7MOL0     O  795   5.421   0.164   7.910 -0.7765 -0.3770  0.6690
    7MOL0     C  796   5.537   0.178   7.973 -0.5835 -0.0256 -0.4321
    7MOL0     C  797   5.613   0.074   8.021 -0.1930  0.2909 -0.7675
    7MOL0     C  798   5.744   0.096   8.058 -0.7602 -0.1980  0.4708
    7MOL0     C  799   5.805   0.215   8.047 -0.3437 -0.0839  0.2455
    7MOL0     O  800   5.944   0.216   8.078  0.0122  0.0391  0.5299
    7MOL0     C  801   6.012   0.342   8.111 -0.6101  0.1332  0.8109
    7MOL0     C  802   6.153   0.335   8.182  0.3186 -0.5748  0.0859
    7MOL0     C  803   6.260   0.276   8.101 -0.5166  0.5029  0.3965
    7MOL0     C  804   6.376   0.242   8.196  0.0856  0.4459 -0.1894
    7MOL0     C  805   6.481   0.164   8.120 -0.1567 -0.4502 -0.6243
    7MOL0     C  806   6.612   0.119   8.199 -0.0589 -0.2904  0.2817
    7MOL0     C  807   6.665   0.227   8.296  0.8101 -0.0148 -0.7734
    7MOL0     C  808   6.774   0.156   8.361  0.0231 -0.0173  0.4348
    7MOL0     N  809   6.892   0.127   8.275  0.4327 -0.0781 -0.4187
    7MOL0     C  810   6.958   0.217   8.197 -0.2271  0.1381  0.6291
    7MOL0     C  811   7.044   0.140   8.119  0.2326 -0.2092 -0.2643
    7MOL0     C  812   7.127   0.191   8.000 -0.2638  0.2985 -0.0260
    7MOL0     C  813   7.030   0.263   7.903  0.8645 -0.0047 -0.0497
    7MOL0     C  814   7.107   0.349   7.799  0.0462 -0.1708 -0.3909
    7MOL0     C  815   7.019   0.473   7.761 -0.1116  0.9235  0.6588
    7MOL0     O  816   6.997   0.561   7.877  0.0595  0.2812 -0.1754
    7MOL0     C  817   6.893   0.657   7.878 -0.0629  0.3467 -0.0095
    7MOL0     C  818   6.848   0.709   7.999  0.6053  0.1473  0.2428
    7MOL0     C  819   6.743   0.803   8.009 -0.3175  0.4496 -0.6844
    7MOL0     C  820   6.684   0.853   7.894 -0.2169  0.5294  0.5270
    7MOL0     C  821   6.589   0.963   7.893  0.7199 -0.2940  0.2295
    7MOL0     O  822   6.554   1.013   8.009  0.1218  0.0593 -0.3157
    7MOL0     C  823   6.446   1.105   8.004 -1.0378  0.5438  0.4162
    7MOL0     C  824   6.477   1.246   8.005 -0.5843 -0.1289 -0.5763
    7MOL0     C  825   6.380   1.345   8.012 -0.7099  0.9025  1.5207
    7MOL0     C  826   6.256   1.313   8.000 -0.3574  0.3518  0.0913
    7MOL0     O  827   6.168   1.418   8.018 -0.2052  0.0571  0.4771
    7MOL0     C  828   6.045   1.412   7.940 -0.2064  0.1298 -0.4331
    7MOL0     C  829   6.055   1.499   7.818  0.7905  0.4559  0.8375
    7MOL0     C  830   6.057   1.645   7.844 -0.4745 -0.9591 -0.4003
    7MOL0     C  831   5.918   1.708   7.882 -1.0199  0.9865 -0.3128
    7MOL0     C  832   5.930   1.854   7.906 -0.5052 -0.2216 -0.3179
    7MOL0     C  833   5.962   1.929   7.766  0.6659  0.8191 -0.0432
    7MOL0     C  834   5.927   2.078   7.775  0.0237  0.1038 -0.6384
    7MOL0     C  835   6.032   2.164   7.707  0.2501  0.4193 -0.7615
    7MOL0    Cl  836   6.015   2.334   7.760 -0.3612  0.5150 -0.3079
    7MOL0     C  837   6.213   1.177   7.996 -0.6184 -0.4694  0.2332
    7MOL0     C  838   6.312   1.075   7.976  0.4802  0.7872  0.2715
    7MOL0     O  839   6.546   1.002   7.782 -0.1193  0.3923 -0.9068
    7MOL0     C  840   6.726   0.796   7.771 -0.0694 -0.1480  0.4703
    7MOL0     C  841   6.828   0.702   7.765 -0.3770  0.0201  0.6441
    7MOL0     N  842   7.027   0.006   8.148 -0.2676 -0.6449 -0.4796
    7MOL0     N  843   6.922   0.001   8.234  0.5597 -0.2120 -0.7436
    7MOL0     C  844   5.724   0.326   8.010 -0.5556  0.1053  0.4595
    7MOL0     C  845   5.591   0.306   7.969  0.0347  0.4700 -0.4739
    7MOL0     C  846   5.183   0.160   7.889 -0.1405  0.6765  0.7542
    7MOL0     C  847   5.191   0.158   7.752  0.0218 -0.1893  0.2427
    7MOL0     C  848   5.078   0.123   7.679 -0.1617 -0.1431  0.3985
    7MOL0     C  849   4.947   0.123   7.723 -0.8094  0.5722 -0.5445
    7MOL0     O  850   4.846   0.096   7.641  0.3168 -0.3625 -0.1785
    7MOL0     C  851   4.726   0.172   7.665 -0.9518 -0.1296 -0.6051
    7MOL0     C  852   4.626   0.126   7.561 -0.2796  0.2277 -0.1354
    7MOL0     C  853   4.532   0.242   7.518 -0.5076 -0.6711  0.7010
    7MOL0     C  854   4.440   0.203   7.403 -0.1731  0.7319  0.2478
    7MOL0     C  855   4.368   0.319   7.359  0.0209 -0.1592  0.4808
    7MOL0     C  856   4.326   0.418   7.296 -1.0597  0.7311  0.8074
    7MOL0     C  857   4.939   0.128   7.862 -0.3021 -0.0760  0.0872
    7MOL0     C  858   5.056   0.141   7.947 -0.0320 -0.3250  0.2590
    7MOL0     H  859   5.565  -0.024   8.018  0.9085 -0.2389 -1.5402
    7MOL0     H  860   5.806   0.015   8.098 -0.5397  0.0918  0.7248
    7MOL0     H  861   5.940   0.387   8.179 -1.8034  0.5979 -0.6952
    7MOL0     H  862   6.023   0.401   8.020 -1.3614 -2.0950 -0.8215
    7MOL0     H  863   6.145   0.280   8.276 -3.4531 -2.0414 -0.9129
    7MOL0     H  864   6.181   0.438   8.204  1.1274  0.1586 -3.6252
    7MOL0     H  865   6.294   0.344   8.023 -2.1302 -0.8133 -1.5567
    7MOL0     H  866   6.230   0.184   8.050  1.4308  1.0026 -1.7870
    7MOL0     H  867   6.413   0.331   8.248  1.9147 -0.1919 -0.3219
    7MOL0     H  868   6.340   0.181   8.279 -0.3940  1.2519  0.2029
    7MOL0     H  869   6.505   0.220   8.029 -4.6571 -0.1925 -1.8831
    7MOL0     H  870   6.426   0.080   8.077  2.9262 -2.4021 -1.0953
    7MOL0     H  871   6.684   0.072   8.132  1.2658  1.9424  0.0230
    7MOL0     H  872   6.577   0.041   8.267 -1.7170 -1.5316 -1.8606
    7MOL0     H  873   6.699   0.312   8.235 -0.7005  1.2131  0.0009
    7MOL0     H  874   6.587   0.258   8.367  0.8504 -3.2369  0.8235
    7MOL0     H  875   6.737   0.067   8.412  1.0175  0.5169  2.1406
    7MOL0     H  876   6.821   0.221   8.436 -0.8379 -1.1507  2.0104
    7MOL0     H  877   6.947   0.325   8.206  1.8184  0.5110 -0.6318
    7MOL0     H  878   7.183   0.111   7.950 -0.6072  0.5572 -0.8397
    7MOL0     H  879   7.189   0.273   8.038 -1.9889  2.2381 -1.2225
    7MOL0     H  880   6.956   0.325   7.955 -2.1284 -1.9517 -1.6794
    7MOL0     H  881   6.975   0.185   7.850 -3.9137  2.9501  0.0142
    7MOL0     H  882   7.197   0.389   7.847  0.8483  0.3037 -2.1807
    7MOL0     H  883   7.144   0.297   7.710 -0.2096  0.0809 -0.6474
    7MOL0     H  884   6.926   0.439   7.714  2.7146 -1.9466 -3.5835
    7MOL0     H  885   7.071   0.539   7.691  1.7472  1.2685  2.2903
    7MOL0     H  886   6.894   0.671   8.089  0.8734  0.4991  0.2567
    7MOL0     H  887   6.717   0.841   8.107  1.1127  2.1545 -0.9200
    7MOL0     H  888   6.580   1.276   8.025 -1.5636  3.2796  0.1224
    7MOL0     H  889   6.403   1.451   8.012  2.1395  0.5020 -2.3452
    7MOL0     H  890   5.968   1.449   8.007  1.8673  3.5047  0.3417
    7MOL0     H  891   6.012   1.309   7.925  2.5322 -0.8492 -0.3739
    7MOL0     H  892   5.977   1.479   7.744 -0.5098 -2.1776  2.7556
    7MOL0     H  893   6.149   1.474   7.768 -0.4695 -2.8957 -0.1160
    7MOL0     H  894   6.083   1.698   7.752 -0.1598 -0.4759 -0.0418
    7MOL0     H  895   6.136   1.666   7.917  0.1800 -0.6121 -1.1963
    7MOL0     H  896   5.847   1.697   7.800 -2.1358 -0.4356  0.8026
    7MOL0     H  897   5.875   1.654   7.966 -0.7965 -0.5079 -1.1357
    7MOL0     H  898   6.020   1.880   7.962  0.6518  0.9187 -2.5958
    7MOL0     H  899   5.840   1.901   7.948  0.0319  0.3211  0.2440
    7MOL0     H  900   5.900   1.888   7.686  0.1423 -2.7031  1.9936
    7MOL0     H  901   6.064   1.911   7.732  0.0827 -0.6558 -1.0668
    7MOL0     H  902   5.824   2.093   7.740 -0.5317 -0.4544  0.7075
    7MOL0     H  903   5.930   2.098   7.882 -1.8886 -0.4475 -0.4389
    7MOL0     H  904   6.009   2.153   7.600 -1.2573  0.2366 -0.4404
    7MOL0     H  905   6.136   2.137   7.727  0.2678 -0.7450 -2.2181
    7MOL0     H  906   6.112   1.138   8.006 -0.9297 -0.1906 -1.5496
    7MOL0     H  907   6.290   0.969   7.972  1.2297  0.6337 -3.3386
    7MOL0     H  908   6.681   0.828   7.677 -0.0208 -0.4623  0.3389
    7MOL0     H  909   6.856   0.668   7.666 -1.7063 -0.5852  0.4504
    7MOL0     H  910   5.754   0.429   7.995  1.3504 -0.3680  0.7351
    7MOL0     H  911   5.545   0.397   7.931  1.2124  1.8343  1.2028
    7MOL0     H  912   5.281   0.180   7.697 -1.2650 -0.6054 -2.1490
    7MOL0     H  913   5.093   0.113   7.572  0.8811 -0.8827  0.6044
    7MOL0     H  914   4.746   0.277   7.642 -0.6120 -0.4548 -1.8800
    7MOL0     H  915   4.691   0.150   7.766 -1.2882 -2.4389 -1.1571
    7MOL0     H  916   4.687   0.096   7.476  1.6374  4.0354 -0.3209
    7MOL0     H  917   4.579   0.038   7.606  0.4832  0.6456  1.5811
    7MOL0     H  918   4.597   0.326   7.492  1.1343 -1.8765  0.7116
    7MOL0     H  919   4.468   0.263   7.604 -0.0231 -2.0663  1.4353
    7MOL0     H  920   4.502   0.162   7.322  0.4013 -1.0254  1.5151
    7MOL0     H  921   4.371   0.128   7.443 -1.6914  1.4832 -0.8339
    7MOL0     H  922   4.285   0.509   7.257 -2.1304  0.9618  2.3800
    7MOL0     H  923   4.847   0.095   7.909 -0.7322  0.0515 -0.6439
    7MOL0     H  924   5.043   0.130   8.054  0.9806  3.9753  0.9905
    8MOL0     O  925   7.004   0.318   2.412 -0.8035  0.1500 -0.0300
    8MOL0     C  926   7.073   0.225   2.454 -0.6611 -0.7979 -0.7448
    8MOL0     O  927   7.026   0.119   2.534 -0.5106 -0.4848  0.6770
    8MOL0     C  928   6.891   0.136   2.554  0.6074  0.6547 -0.8558
    8MOL0     C  929   6.841   0.216   2.657 -0.2554  0.2449  0.6753
    8MOL0     C  930   6.714   0.218   2.689  0.8092 -0.3046 -0.0216
    8MOL0     C  931   6.613   0.169   2.609 -0.6216 -0.1945 -0.0034
    8MOL0     O  932   6.480   0.170   2.638  0.3987  0.2968  0.8336
    8MOL0     C  933   6.430   0.254   2.738 -1.1766 -0.7612  0.1764
    8MOL0     C  934   6.281   0.211   2.760 -0.9236  0.0805 -0.5889
    8MOL0     C  935   6.253   0.057   2.778  1.4979 -0.3378  0.0022
    8MOL0     C  936   6.099   0.022   2.792  0.0726  0.0250 -0.7942
    8MOL0     C  937   6.065  -0.116   2.858  0.5640  0.1403 -0.9066
    8MOL0     C  938   5.916  -0.152   2.888  0.2511  0.0625 -0.1447
    8MOL0     C  939   5.894  -0.273   2.981 -0.8060 -0.0181  0.3912
    8MOL0     C  940   5.744  -0.308   2.994 -0.0843  0.3333 -0.7653
    8MOL0     N  941   5.734  -0.449   3.036 -1.2147  0.0803  0.7913
    8MOL0     C  942   5.710  -0.551   2.951 -0.4820 -0.6676  0.8096
    8MOL0     C  943   5.718  -0.664   3.027  0.3121 -0.7540  0.5325
    8MOL0     C  944   5.705  -0.813   2.993  1.0337 -1.2760  0.2336
    8MOL0     C  945   5.828  -0.891   3.033  0.2288  0.3638 -0.5322
    8MOL0     C  946   5.821  -1.047   3.001  0.0223 -0.4928 -0.4263
    8MOL0     C  947   5.950  -1.113   3.004 -0.2064 -0.1988 -0.8725
    8MOL0     O  948   6.002  -1.092   3.141 -0.5812  0.6183 -0.3063
    8MOL0     C  949   6.105  -1.167   3.187  0.7788  0.2413  0.1855
    8MOL0     C  950   6.195  -1.251   3.116  0.1813 -0.2453  0.4208
    8MOL0     C  951   6.289  -1.327   3.184  0.3840  0.3538 -0.6708
    8MOL0     C  952   6.299  -1.317   3.318 -0.7489 -0.1038 -0.9066
    8MOL0     C  953   6.399  -1.393   3.392 -0.4623  0.0642 -1.4265
    8MOL0     O  954   6.437  -1.513   3.351  0.0856  0.1456 -0.1215
    8MOL0     C  955   6.559  -1.567   3.377 -0.1452  0.2385 -0.2108
    8MOL0     C  956   6.673  -1.513   3.321 -0.0470 -0.6270 -0.3155
    8MOL0     C  957   6.800  -1.569   3.348  0.6664  0.2092  0.0492
    8MOL0     C  958   6.815  -1.678   3.438  1.2782 -0.0099 -0.0742
    8MOL0     O  959   6.931  -1.731   3.480 -0.1989 -0.3710  0.7872
    8MOL0     C  960   7.033  -1.629   3.511 -0.4535 -0.2113  0.0561
    8MOL0     C  961   7.159  -1.719   3.540  0.6137 -0.5140  0.3179
    8MOL0     C  962   7.208  -1.804   3.428 -0.4345  0.2503  0.1894
    8MOL0     C  963   7.321  -1.898   3.463 -0.1206 -0.8662  0.4721
    8MOL0     C  964   7.458  -1.822   3.469 -0.5268 -1.5194 -0.3200
    8MOL0     C  965   7.565  -1.908   3.525  0.2919 -0.8149  0.0862
    8MOL0     C  966   7.689  -1.828   3.554 -0.7927  0.0255  0.3426
    8MOL0     C  967   7.790  -1.914   3.618  0.2491  0.2020 -0.0190
    8MOL0    Cl  968   7.866  -2.021   3.491  0.0394 -0.3399  0.0441
    8MOL0     C  969   6.700  -1.731   3.496  0.6851 -0.5101 -0.6970
    8MOL0     C  970   6.572  -1.683   3.460 -0.3235 -0.7473  0.1141
    8MOL0     O  971   6.447  -1.338   3.497 -0.3409  0.2038  0.5202
    8MOL0     C  972   6.228  -1.215   3.387  0.8653  0.7327 -0.5912
    8MOL0     C  973   6.123  -1.144   3.327 -0.2466  0.3729  0.1912
    8MOL0     N  974   5.749  -0.626   3.162  0.2899  0.4464 -0.1262
    8MOL0     N  975   5.759  -0.502   3.166  0.0811 -0.7585 -0.1829
    8MOL0     C  976   6.656   0.098   2.492 -0.2003  0.0807 -0.2726
    8MOL0     C  977   6.794   0.075   2.469  0.4267  0.0971  0.7063
    8MOL0     C  978   7.212   0.234   2.419  0.3961 -0.6077 -0.3012
    8MOL0     C  979   7.288   0.121   2.421  0.1067 -0.9044 -0.8409
    8MOL0     C  980   7.429   0.123   2.415 -0.4625 -0.4249  0.0019
    8MOL0     C  981   7.505   0.246   2.388 -0.3952  1.2321 -0.6005
    8MOL0     O  982   7.647   0.263   2.392  0.2861  0.0469  0.2818
    8MOL0     C  983   7.732   0.155   2.371  0.3333  0.0945  0.6384
    8MOL0     C  984   7.873   0.206   2.408  1.2374  0.1747  0.4446
    8MOL0     C  985   7.921   0.299   2.286 -0.8976 -0.7112 -0.2896
    8MOL0     C  986   8.064   0.365   2.314  0.4728 -0.1808  0.2046
    8MOL0     C  987   8.041   0.471   2.408  0.6661  0.3734  0.2613
    8MOL0     C  988   8.038   0.544   2.505  0.6217  0.5214  0.6827
    8MOL0     C  989   7.423   0.355   2.368  0.6637  0.0188  0.0009
    8MOL0     C  990   7.278   0.354   2.388 -1.5807  0.5775  0.3289
    8MOL0     H  991   6.908   0.287   2.704  0.9136  1.8883 -3.1235
    8MOL0     H  992   6.690   0.268   2.782  4.5932  2.7322 -0.4116
    8MOL0     H  993   6.437   0.358   2.705  1.2501 -1.1491 -0.7220
    8MOL0     H  994   6.490   0.237   2.828 -0.6653 -2.3785 -0.4360
    8MOL0     H  995   6.223   0.251   2.676 -0.2931  1.1654 -0.5274
    8MOL0     H  996   6.252   0.259   2.854 -2.8584 -0.9521 -0.6060
    8MOL0     H  997   6.311   0.010   2.857  1.6517 -0.9028 -0.4402
    8MOL0     H  998   6.280  -0.000   2.689  0.6991  1.0024 -1.1559
    8MOL0     H  999   6.052   0.097   2.857  0.9194  1.9990 -2.3463
    8MOL0     H 1000   6.049   0.031   2.695 -1.5767  1.6631  0.1442
    8MOL0     H 1001   6.113  -0.131   2.954 -1.9253 -4.4726 -0.0895
    8MOL0     H 1002   6.098  -0.196   2.790 -0.1415  0.2196 -1.3575
    8MOL0     H 1003   5.861  -0.153   2.793  0.1588  0.6041 -0.0996
    8MOL0     H 1004   5.875  -0.064   2.938 -0.8194 -0.2438 -0.4511
    8MOL0     H 1005   5.947  -0.357   2.935  0.4485 -0.0986  1.9163
    8MOL0     H 1006   5.935  -0.255   3.080  2.8463 -1.0173 -0.7641
    8MOL0     H 1007   5.696  -0.309   2.896 -0.2839  0.7489 -0.6705
    8MOL0     H 1008   5.687  -0.246   3.064  1.9116  1.5427 -0.1217
    8MOL0     H 1009   5.691  -0.551   2.844 -3.8489 -0.4507  1.3057
    8MOL0     H 1010   5.677  -0.824   2.888 -1.2653 -0.3853  0.6987
    8MOL0     H 1011   5.620  -0.846   3.053 -0.6797  0.1914 -1.2781
    8MOL0     H 1012   5.855  -0.880   3.138 -3.2400  0.1175  0.4991
    8MOL0     H 1013   5.902  -0.851   2.962 -1.0573  0.7546 -1.7109
    8MOL0     H 1014   5.742  -1.078   3.070  0.3176  4.2914  2.4976
    8MOL0     H 1015   5.783  -1.066   2.899 -2.1234 -1.6497  0.5062
    8MOL0     H 1016   6.017  -1.064   2.932 -0.9328 -0.0391 -1.4557
    8MOL0     H 1017   5.933  -1.219   2.986  0.2602 -0.9781  2.5604
    8MOL0     H 1018   6.175  -1.263   3.010  0.1009 -2.4896  0.6349
    8MOL0     H 1019   6.342  -1.399   3.123  0.4151  1.4898 -2.0425
    8MOL0     H 1020   6.665  -1.429   3.252 -1.6438  0.7307  1.4058
    8MOL0     H 1021   6.890  -1.518   3.313  2.4409 -2.0112  1.1150
    8MOL0     H 1022   7.012  -1.572   3.602  0.7393 -0.4072  0.4728
    8MOL0     H 1023   7.052  -1.559   3.430  2.9320 -1.7699 -0.6663
    8MOL0     H 1024   7.149  -1.788   3.624  2.3031  0.8452  1.7063
    8MOL0     H 1025   7.240  -1.651   3.568 -0.0901 -0.2976  1.9625
    8MOL0     H 1026   7.233  -1.737   3.345 -0.7245  1.2483  0.8965
    8MOL0     H 1027   7.127  -1.869   3.392 -1.9710  2.5177 -0.6669
    8MOL0     H 1028   7.305  -1.945   3.561 -1.0450 -2.5826 -0.4549
    8MOL0     H 1029   7.346  -1.969   3.384  2.4490  2.3817 -1.9539
    8MOL0     H 1030   7.438  -1.725   3.516 -1.0361 -1.3451 -0.8837
    8MOL0     H 1031   7.491  -1.787   3.371 -2.0481 -0.4437 -0.4981
    8MOL0     H 1032   7.587  -1.992   3.458 -1.3762 -0.9081 -0.3894
    8MOL0     H 1033   7.523  -1.940   3.620  4.1323  0.8614  2.6096
    8MOL0     H 1034   7.732  -1.781   3.465 -0.2503  1.7768  1.4694
    8MOL0     H 1035   7.666  -1.746   3.623  0.5490 -0.8511  1.9005
    8MOL0     H 1036   7.743  -1.978   3.692 -0.2070  1.4028  0.7526
    8MOL0     H 1037   7.875  -1.855   3.654  0.6093 -0.3177 -0.0088
    8MOL0     H 1038   6.687  -1.821   3.556  0.1630  0.0518  0.0458
    8MOL0     H 1039   6.482  -1.735   3.488  1.6849 -6.4060 -2.4982
    8MOL0     H 1040   6.243  -1.193   3.492 -1.3882  1.3009 -0.3485
    8MOL0     H 1041   6.063  -1.087   3.398 -1.5002 -1.1848  0.4386
    8MOL0     H 1042   6.581   0.050   2.431 -0.7684 -1.7191  1.7461
    8MOL0     H 1043   6.830   0.005   2.394 -0.1864 -0.4367  0.9068
    8MOL0     H 1044   7.244   0.023   2.436  0.5970 -0.6351  3.6780
    8MOL0     H 1045   7.486   0.031   2.424  0.5937  0.2491  0.4429
    8MOL0     H 1046   7.712   0.113   2.272  0.6560 -3.0513  1.7945
    8MOL0     H 1047   7.701   0.075   2.439  0.8971 -2.0001 -1.4523
    8MOL0     H 1048   7.864   0.266   2.498 -1.9745  1.3202 -0.4907
    8MOL0     H 1049   7.934   0.115   2.417  1.0436  0.0087  0.1264
    8MOL0     H 1050   7.844   0.371   2.259  0.3464  1.7522  2.2164
    8MOL0     H 1051   7.935   0.236   2.197  2.9994 -0.6587  0.1001
    8MOL0     H 1052   8.137   0.293   2.352  3.1792  1.7399 -0.9969
    8MOL0     H 1053   8.102   0.413   2.223 -1.3173  1.3747  0.2230
    8MOL0     H 1054   8.024   0.618   2.581 -1.3432  0.5092  0.4036
    8MOL0     H 1055   7.469   0.451   2.350 -0.6635  1.1226  2.1542
    8MOL0     H 1056   7.220   0.446   2.383 -0.0571  1.6148  0.9772
    9MOL0     O 1057   0.151   6.213   9.542 -0.3616  0.1778  0.1703
    9MOL0     C 1058   0.147   6.093   9.566 -0.1387 -0.2406  0.4380
    9MOL0     O 1059   0.039   6.014   9.556  0.2157 -0.4141  0.2465
    9MOL0     C 1060  -0.090   6.063   9.552 -1.0506  1.0174  0.1249
    9MOL0     C 1061  -0.143   6.155   9.638 -0.0611  0.1586  0.2580
    9MOL0     C 1062  -0.274   6.211   9.620 -0.3845 -0.3269  0.1884
    9MOL0     C 1063  -0.350   6.157   9.511  0.6799  0.3167 -0.0383
    9MOL0     O 1064  -0.478   6.213   9.485  0.9943  0.6639 -0.0621
    9MOL0     C 1065  -0.505   6.274   9.356  0.6817 -0.1612  0.0535
    9MOL0     C 1066  -0.655   6.323   9.376 -0.3084  0.1178  0.0564
    9MOL0     C 1067  -0.702   6.404   9.257 -0.1262 -0.4100 -0.1659
    9MOL0     C 1068  -0.857   6.410   9.242 -0.9414 -0.1711  0.9292
    9MOL0     C 1069  -0.930   6.494   9.346  0.6382 -0.2111  0.4225
    9MOL0     C 1070  -0.874   6.639   9.362 -0.9588 -0.0712 -0.7576
    9MOL0     C 1071  -0.978   6.741   9.416  0.4845 -0.1145  0.4305
    9MOL0     C 1072  -1.101   6.761   9.324 -0.0983  0.2765  0.6429
    9MOL0     N 1073  -1.214   6.823   9.399  0.2278 -0.1488  0.1632
    9MOL0     C 1074  -1.287   6.758   9.499 -0.3644  0.2764 -0.3024
    9MOL0     C 1075  -1.393   6.840   9.522 -0.8929  0.1181  0.3385
    9MOL0     C 1076  -1.499   6.792   9.620 -0.1183 -0.6335  0.0561
    9MOL0     C 1077  -1.640   6.835   9.584  0.8413  0.1164  0.2538
    9MOL0     C 1078  -1.688   6.786   9.443  0.2078  0.2218  0.5902
    9MOL0     C 1079  -1.836   6.829   9.415  0.0900 -0.2261  0.2419
    9MOL0     O 1080  -1.842   6.967   9.379  0.0896 -0.1334  0.4047
    9MOL0     C 1081  -1.965   7.034   9.406  0.3711 -0.2571  0.0620
    9MOL0     C 1082  -1.969   7.166   9.388 -1.0009  0.0599  0.5501
    9MOL0     C 1083  -2.088   7.238   9.382 -0.3726 -0.6946  0.1884
    9MOL0     C 1084  -2.209   7.176   9.416  0.2150 -0.1977  0.4761
    9MOL0     C 1085  -2.329   7.256   9.397  0.7486  0.4730 -0.3629
    9MOL0     O 1086  -2.441   7.237   9.474 -1.1999  0.3511  0.4803
    9MOL0     C 1087  -2.537   7.327   9.472 -0.0626 -0.1366 -0.1538
    9MOL0     C 1088  -2.517   7.464   9.488  0.2833 -0.1445  0.1117
    9MOL0     C 1089  -2.623   7.556   9.473  0.1650  0.0019  0.1880
    9MOL0     C 1090  -2.752   7.521   9.457 -0.8298 -0.1966 -0.7135
    9MOL0     O 1091  -2.856   7.617   9.439 -0.9355  0.5146 -0.3836
    9MOL0     C 1092  -2.834   7.758   9.432  0.0112  0.1688  0.3278
    9MOL0     C 1093  -2.962   7.827   9.385  0.4784 -0.5862 -0.3070
    9MOL0     C 1094  -3.083   7.816   9.474  0.0421  0.6428  0.3631
    9MOL0     C 1095  -3.200   7.900   9.419 -0.6733  1.1990 -0.7142
    9MOL0     C 1096  -3.322   7.865   9.508 -0.1508  0.0630  0.0810
    9MOL0     C 1097  -3.322   7.892   9.659 -0.6675 -0.2147 -0.0007
    9MOL0     C 1098  -3.294   8.035   9.699 -0.6862 -0.0697 -0.2529
    9MOL0     C 1099  -3.319   8.042   9.849 -0.6402 -0.4574 -0.2634
    9MOL0    Cl 1100  -3.287   8.202   9.918  0.6600 -0.4169  0.0420
    9MOL0     C 1101  -2.783   7.379   9.469 -0.2736 -0.1549  0.3220
    9MOL0     C 1102  -2.676   7.284   9.473  0.0043 -0.4907 -0.3331
    9MOL0     O 1103  -2.318   7.336   9.310 -0.0083 -0.3998 -0.7038
    9MOL0     C 1104  -2.199   7.044   9.481 -0.7656  0.1192  0.1900
    9MOL0     C 1105  -2.081   6.980   9.460  0.3313  0.2580  0.1994
    9MOL0     N 1106  -1.392   6.944   9.428 -0.7027  0.4705 -0.3287
    9MOL0     N 1107  -1.283   6.937   9.366 -0.4353 -0.5346  0.5728
    9MOL0     C 1108  -0.292   6.069   9.427 -0.2802  0.9610  0.2510
    9MOL0     C 1109  -0.166   6.022   9.447 -0.1448  0.0347  0.6311
    9MOL0     C 1110   0.267   6.024   9.618  0.9516  0.1602  0.0007
    9MOL0     C 1111   0.252   5.892   9.676  0.2138 -0.3563  0.9188
    9MOL0     C 1112   0.373   5.838   9.731 -0.0417 -0.0917 -0.3599
    9MOL0     C 1113   0.489   5.904   9.761  0.4403 -0.1047  0.6344
    9MOL0     O 1114   0.571   5.832   9.836 -0.7479  0.5894 -0.0998
    9MOL0     C 1115   0.671   5.908   9.913 -0.2263 -0.8529 -0.4763
    9MOL0     C 1116   0.619   5.959  10.045  0.0562  0.1106  0.5516
    9MOL0     C 1117   0.506   5.878  10.092 -0.0702 -0.4055  0.6267
    9MOL0     C 1118   0.447   5.928  10.223 -0.8496 -0.2054  0.1465
    9MOL0     C 1119   0.407   6.078  10.230  0.6434 -0.3737 -0.1113
    9MOL0     C 1120   0.345   6.178  10.259  0.4887  0.0200  0.1391
    9MOL0     C 1121   0.491   6.038   9.713 -0.5109 -0.4029  0.2805
    9MOL0     C 1122   0.392   6.092   9.629  0.2008  0.8225 -0.3848
    9MOL0     H 1123  -0.076   6.184   9.718  1.3486  1.6254 -1.4085
    9MOL0     H 1124  -0.306   6.284   9.694 -1.6079 -1.6717  1.0618
    9MOL0     H 1125  -0.511   6.208   9.269 -3.0311  0.1956 -0.1182
    9MOL0     H 1126  -0.432   6.353   9.338  0.6533  0.0523  0.8325
    9MOL0     H 1127  -0.656   6.376   9.472 -0.0818 -2.0071  1.2949
    9MOL0     H 1128  -0.720   6.238   9.398  0.8746 -0.3195  2.1719
    9MOL0     H 1129  -0.670   6.355   9.165  4.0753  0.8662  0.4203
    9MOL0     H 1130  -0.657   6.504   9.258  0.8910 -0.8458  1.1389
    9MOL0     H 1131  -0.876   6.455   9.144 -1.2580 -0.5057  0.8361
    9MOL0     H 1132  -0.903   6.311   9.241 -1.7286  0.1979  0.2731
    9MOL0     H 1133  -0.939   6.447   9.444 -0.8649  1.2899  1.0671
    9MOL0     H 1134  -1.034   6.489   9.310  1.3694  0.6849 -2.0184
    9MOL0     H 1135  -0.833   6.673   9.266  0.9149  0.7568  0.2914
    9MOL0     H 1136  -0.790   6.628   9.430 -1.7047 -1.7119 -0.0327
    9MOL0     H 1137  -1.006   6.697   9.512  2.8620  1.5483  1.9856
    9MOL0     H 1138  -0.936   6.835   9.454 -3.7835  1.4002  2.0637
    9MOL0     H 1139  -1.138   6.663   9.291  2.5820 -0.3895 -0.6368
    9MOL0     H 1140  -1.077   6.804   9.226  1.4524 -2.7115 -0.4208
    9MOL0     H 1141  -1.258   6.665   9.545  0.3248  0.2253 -0.8086
    9MOL0     H 1142  -1.487   6.824   9.724 -0.2671 -3.2548  0.9492
    9MOL0     H 1143  -1.479   6.685   9.622  1.0424 -0.4257  0.9716
    9MOL0     H 1144  -1.657   6.943   9.579 -1.6163 -0.2895 -1.5747
    9MOL0     H 1145  -1.711   6.800   9.660 -1.1719  0.6095 -1.3333
    9MOL0     H 1146  -1.629   6.833   9.364 -4.8921  0.6781 -3.5046
    9MOL0     H 1147  -1.676   6.677   9.433 -2.7159 -0.2074  0.8162
    9MOL0     H 1148  -1.890   6.803   9.506 -1.4597 -1.2780 -0.9248
    9MOL0     H 1149  -1.895   6.783   9.335 -1.6752  0.7929  0.9241
    9MOL0     H 1150  -1.880   7.226   9.371  0.0153 -1.7362 -0.7818
    9MOL0     H 1151  -2.084   7.346   9.368 -0.0485 -0.5365  1.3478
    9MOL0     H 1152  -2.417   7.506   9.483 -0.0461  0.8189  0.9786
    9MOL0     H 1153  -2.610   7.663   9.463 -1.5973  0.0401 -2.6716
    9MOL0     H 1154  -2.763   7.785   9.354 -1.8971  3.8956 -0.3651
    9MOL0     H 1155  -2.800   7.798   9.528  0.7647  1.3115 -0.3915
    9MOL0     H 1156  -2.998   7.778   9.293 -1.1078 -1.3540  0.6798
    9MOL0     H 1157  -2.938   7.933   9.374  0.0358 -0.7438 -4.1422
    9MOL0     H 1158  -3.042   7.844   9.572  2.4075  0.8497 -0.6311
    9MOL0     H 1159  -3.117   7.712   9.473  2.6183 -0.2561 -0.7609
    9MOL0     H 1160  -3.163   8.003   9.419  1.2760  0.6365 -4.1812
    9MOL0     H 1161  -3.229   7.881   9.315 -2.9914  2.9304 -0.4821
    9MOL0     H 1162  -3.344   7.758   9.506  1.1642 -0.3483  2.8277
    9MOL0     H 1163  -3.409   7.914   9.465  0.7936 -0.5228 -2.7212
    9MOL0     H 1164  -3.250   7.834   9.716  0.0944 -0.9331 -1.6281
    9MOL0     H 1165  -3.424   7.877   9.696 -0.4924  0.1194  0.6398
    9MOL0     H 1166  -3.189   8.064   9.685 -0.6248 -0.9743 -1.8910
    9MOL0     H 1167  -3.363   8.093   9.638  1.2505  0.7752 -1.7755
    9MOL0     H 1168  -3.254   7.972   9.902  0.6249  1.5226  0.9486
    9MOL0     H 1169  -3.422   8.008   9.859 -0.5884 -0.0515  2.1773
    9MOL0     H 1170  -2.887   7.349   9.459 -0.1562 -0.3925 -0.2056
    9MOL0     H 1171  -2.695   7.178   9.456 -0.5186 -0.1623 -2.0622
    9MOL0     H 1172  -2.277   6.981   9.522 -1.3481 -0.0557 -1.1549
    9MOL0     H 1173  -2.087   6.876   9.491 -2.4383  0.5924  1.0663
    9MOL0     H 1174  -0.349   6.041   9.339 -1.0888  1.7560  0.5098
    9MOL0     H 1175  -0.135   5.948   9.375 -1.5956 -2.0155  1.9887
    9MOL0     H 1176   0.163   5.831   9.667  0.4443 -0.4239 -1.6288
    9MOL0     H 1177   0.378   5.734   9.764  2.9493 -0.6759 -2.2753
    9MOL0     H 1178   0.708   5.989   9.850 -0.3586 -1.1636 -0.9585
    9MOL0     H 1179   0.756   5.843   9.938 -0.0922 -0.8590 -0.9447
    9MOL0     H 1180   0.703   5.970  10.115  0.1988  0.3238  0.3492
    9MOL0     H 1181   0.583   6.055  10.009  1.2899 -0.2160 -1.7899
    9MOL0     H 1182   0.529   5.772  10.100 -0.0863 -0.4847 -0.2857
    9MOL0     H 1183   0.426   5.891  10.019 -2.6971 -0.8695  3.2070
    9MOL0     H 1184   0.355   5.870  10.236 -2.2821  0.9225 -3.4249
    9MOL0     H 1185   0.519   5.912  10.303  0.0048 -0.1702 -0.5934
    9MOL0     H 1186   0.289   6.267  10.279  2.3267  1.1347  0.5784
    9MOL0     H 1187   0.573   6.101   9.747 -0.1133  0.3091 -1.8428
    9MOL0     H 1188   0.409   6.195   9.597 -2.5645  2.2162  2.1451
   10MOL0     O 1189   2.723   0.958   6.177  0.7150  0.1347 -0.6086
   10MOL0     C 1190   2.808   1.042   6.180 -0.0418 -0.1765 -0.7978
   10MOL0     O 1191   2.787   1.172   6.192  0.0043  0.2096 -0.3567
   10MOL0     C 1192   2.662   1.231   6.182 -0.1222  0.1028  0.0909
   10MOL0     C 1193   2.651   1.341   6.255  0.1334 -0.2693  0.3210
   10MOL0     C 1194   2.539   1.417   6.252  1.3604 -0.4192 -1.2289
   10MOL0     C 1195   2.436   1.397   6.168  0.5237  0.5696 -0.3576
   10MOL0     O 1196   2.318   1.473   6.162  0.2578  0.6369 -0.1525
   10MOL0     C 1197   2.269   1.524   6.032 -0.3035 -0.2550  0.6225
   10MOL0     C 1198   2.125   1.571   6.059  0.0361  1.0507 -0.8948
   10MOL0     C 1199   2.053   1.620   5.927  0.0804 -0.0918  0.1492
   10MOL0     C 1200   1.897   1.623   5.925 -1.0515  0.3970 -0.2733
   10MOL0     C 1201   1.843   1.486   5.903 -0.2929  1.0133  0.7670
   10MOL0     C 1202   1.697   1.471   5.968 -1.5040 -0.0853  0.3238
   10MOL0     C 1203   1.664   1.329   6.004 -0.2475 -0.3849 -0.6773
   10MOL0     C 1204   1.610   1.247   5.888 -0.1415 -0.6376 -0.1414
   10MOL0     N 1205   1.459   1.248   5.883  0.2584  1.3245 -0.2977
   10MOL0     C 1206   1.378   1.359   5.879  0.3826  0.2535  1.7551
   10MOL0     C 1207   1.251   1.309   5.922  0.1427  0.6010 -0.3810
   10MOL0     C 1208   1.122   1.390   5.927 -1.8025 -0.3229 -1.0356
   10MOL0     C 1209   1.060   1.407   5.791  0.9245  0.3022 -0.5599
   10MOL0     C 1210   1.041   1.271   5.713  0.3116 -0.3698 -0.4011
   10MOL0     C 1211   1.044   1.296   5.559 -0.8261 -0.2673 -0.4369
   10MOL0     O 1212   0.930   1.381   5.523 -0.2166  0.4144  0.0350
   10MOL0     C 1213   0.812   1.311   5.508  0.3053  0.7525  0.2370
   10MOL0     C 1214   0.791   1.171   5.488 -0.4786 -0.1952 -0.2240
   10MOL0     C 1215   0.668   1.115   5.487  0.5370  0.1477 -0.7894
   10MOL0     C 1216   0.557   1.189   5.518 -0.1559  1.3307  0.3328
   10MOL0     C 1217   0.435   1.119   5.544  0.4148 -0.8056  0.2659
   10MOL0     O 1218   0.321   1.194   5.545  0.6085  0.1395 -0.0864
   10MOL0     C 1219   0.199   1.142   5.549  0.0477 -0.0573  0.3405
   10MOL0     C 1220   0.105   1.215   5.624  0.4035 -0.6033  1.1632
   10MOL0     C 1221  -0.032   1.170   5.625 -0.6136  0.3361 -0.5555
   10MOL0     C 1222  -0.081   1.066   5.552  0.0291  0.9821  0.5397
   10MOL0     O 1223  -0.201   1.010   5.550 -0.0049 -0.1170 -0.3258
   10MOL0     C 1224  -0.310   1.074   5.612  0.5202 -0.0945  0.5855
   10MOL0     C 1225  -0.431   0.983   5.624 -0.2294 -0.5929 -0.2593
   10MOL0     C 1226  -0.554   1.063   5.670 -0.1793  0.2617  0.6842
   10MOL0     C 1227  -0.680   0.976   5.670  0.3389  0.7208 -0.1858
   10MOL0     C 1228  -0.804   1.050   5.731  0.5432  1.5026 -0.0738
   10MOL0     C 1229  -0.932   0.963   5.738 -0.1423  0.9241 -0.2182
   10MOL0     C 1230  -1.036   1.022   5.839  0.7289 -0.2203 -0.4261
   10MOL0     C 1231  -1.173   0.943   5.838  1.1077  0.0782  0.0782
   10MOL0    Cl 1232  -1.249   0.949   5.683 -0.1146 -0.1345 -0.1189
   10MOL0     C 1233   0.022   0.986   5.489  0.3869  0.5750  0.5351
   10MOL0     C 1234   0.156   1.025   5.487  0.3878  0.3785 -0.3515
   10MOL0     O 1235   0.431   1.000   5.553  0.1756 -0.9466  0.2429
   10MOL0     C 1236   0.570   1.327   5.531 -0.6895  0.0315  0.5262
   10MOL0     C 1237   0.692   1.386   5.531 -0.0439 -0.2832  0.3402
   10MOL0     N 1238   1.267   1.171   5.948  0.2203  1.2603  0.5572
   10MOL0     N 1239   1.388   1.131   5.929  0.1946  0.1552  0.4714
   10MOL0     C 1240   2.445   1.278   6.089  0.3894  0.2676 -0.1645
   10MOL0     C 1241   2.553   1.190   6.098  0.2005  0.4915  0.0029
   10MOL0     C 1242   2.947   0.995   6.184 -0.1718 -0.0266  0.4257
   10MOL0     C 1243   3.058   1.075   6.211 -0.2827  0.2768  0.0308
   10MOL0     C 1244   3.182   1.017   6.217  0.2787 -0.1698 -0.4282
   10MOL0     C 1245   3.213   0.882   6.203 -0.2818  0.3391  0.1685
   10MOL0     O 1246   3.343   0.835   6.217 -0.0630  0.5395  0.4661
   10MOL0     C 1247   3.375   0.705   6.175  0.4238 -0.0155  0.3192
   10MOL0     C 1248   3.523   0.683   6.145  0.1932  0.4541  0.7543
   10MOL0     C 1249   3.557   0.541   6.104 -0.9166 -0.0494 -0.0121
   10MOL0     C 1250   3.702   0.544   6.051  0.5223 -0.2349 -0.5585
   10MOL0     C 1251   3.752   0.412   6.013  0.1158 -0.8448 -0.2352
   10MOL0     C 1252   3.781   0.301   5.995 -0.2074  0.7111 -0.5097
   10MOL0     C 1253   3.100   0.796   6.179 -0.9039 -0.8034 -0.9588
   10MOL0     C 1254   2.972   0.851   6.161  0.0886 -0.9250  0.0733
   10MOL0     H 1255   2.739   1.381   6.304 -0.7379 -0.0555  1.7901
   10MOL0     H 1256   2.527   1.514   6.299 -0.7817 -0.8798 -0.7511
   10MOL0     H 1257   2.261   1.450   5.952  0.7906 -0.4465  0.6746
   10MOL0     H 1258   2.335   1.602   5.994 -1.9548 -0.0521 -2.1080
   10MOL0     H 1259   2.129   1.653   6.132 -0.9484  0.9933 -0.7734
   10MOL0     H 1260   2.067   1.495   6.111 -0.1022  1.5718 -0.2806
   10MOL0     H 1261   2.080   1.556   5.843 -1.6279  0.9631 -1.2936
   10MOL0     H 1262   2.091   1.721   5.906  2.2054 -0.1006  3.2999
   10MOL0     H 1263   1.892   1.657   6.029 -1.9967 -1.0870  0.2026
   10MOL0     H 1264   1.857   1.694   5.851  1.8520  2.2956 -0.1609
   10MOL0     H 1265   1.910   1.410   5.946  1.0184  0.4907 -2.0121
   10MOL0     H 1266   1.837   1.459   5.798  4.3407 -1.2965  0.8338
   10MOL0     H 1267   1.615   1.509   5.907 -3.4253 -1.8312  1.7047
   10MOL0     H 1268   1.703   1.520   6.066  4.1042  1.1052 -0.2779
   10MOL0     H 1269   1.759   1.277   6.019 -0.8174 -1.5745 -1.0238
   10MOL0     H 1270   1.590   1.315   6.084 -0.6732 -1.8005 -1.2717
   10MOL0     H 1271   1.643   1.145   5.909 -2.2049 -1.1885  0.7019
   10MOL0     H 1272   1.655   1.288   5.797  1.6610 -0.6119  0.7257
   10MOL0     H 1273   1.392   1.461   5.846 -1.7074  0.1405  0.3275
   10MOL0     H 1274   1.136   1.488   5.972 -0.4282 -1.4898  1.3128
   10MOL0     H 1275   1.059   1.331   5.995  2.0465 -4.1425 -0.3109
   10MOL0     H 1276   1.118   1.477   5.730 -0.7922  0.3630 -2.2154
   10MOL0     H 1277   0.962   1.446   5.819  1.0131 -0.2371  0.5788
   10MOL0     H 1278   1.117   1.195   5.736 -1.0121 -1.9525 -1.0804
   10MOL0     H 1279   0.946   1.232   5.749  0.6060 -0.0769  0.7422
   10MOL0     H 1280   1.043   1.193   5.521  1.1006 -1.8605  3.2522
   10MOL0     H 1281   1.138   1.344   5.530 -0.4718 -0.2060  0.7609
   10MOL0     H 1282   0.869   1.107   5.448  1.3496  2.4936 -1.2405
   10MOL0     H 1283   0.668   1.007   5.480  0.4717 -0.1060  2.0575
   10MOL0     H 1284   0.143   1.305   5.671  1.9061 -1.7694  2.2676
   10MOL0     H 1285  -0.093   1.239   5.682  0.4053  0.2511  0.6785
   10MOL0     H 1286  -0.336   1.159   5.548 -2.7564 -0.2499  1.5383
   10MOL0     H 1287  -0.285   1.121   5.708 -2.4948  1.6253  0.6627
   10MOL0     H 1288  -0.408   0.905   5.697 -1.2446  0.4646  1.2474
   10MOL0     H 1289  -0.455   0.944   5.524 -0.9176  1.4893 -0.9584
   10MOL0     H 1290  -0.580   1.134   5.592 -3.0531 -2.9807 -1.6204
   10MOL0     H 1291  -0.545   1.111   5.768  2.5680  0.2382  0.5143
   10MOL0     H 1292  -0.681   0.924   5.573 -2.2803  0.6428 -0.1757
   10MOL0     H 1293  -0.661   0.894   5.740  2.9545  0.9322 -0.5248
   10MOL0     H 1294  -0.833   1.141   5.678  0.2816  1.2095 -0.4412
   10MOL0     H 1295  -0.776   1.086   5.830 -0.6439  2.7934 -0.1825
   10MOL0     H 1296  -0.904   0.862   5.769 -0.9343  0.6516 -0.3810
   10MOL0     H 1297  -0.973   0.958   5.637  2.4983  3.5321 -1.5804
   10MOL0     H 1298  -0.993   1.030   5.939 -0.6269  1.7955  0.0554
   10MOL0     H 1299  -1.067   1.121   5.805 -1.6363  0.9822  4.4475
   10MOL0     H 1300  -1.245   0.986   5.908 -1.2268  0.3892 -2.3374
   10MOL0     H 1301  -1.160   0.837   5.862  1.8557  0.2281  0.3546
   10MOL0     H 1302  -0.005   0.898   5.431 -0.4379  1.4951 -0.5202
   10MOL0     H 1303   0.228   0.968   5.429 -2.3831 -0.3356 -3.4518
   10MOL0     H 1304   0.485   1.389   5.556  1.2714  2.6649  1.0863
   10MOL0     H 1305   0.703   1.494   5.540  2.2709 -0.0215 -3.5649
   10MOL0     H 1306   2.360   1.238   6.034  0.2336 -0.6423  0.7034
   10MOL0     H 1307   2.557   1.095   6.046  0.8641  2.2216 -3.3446
   10MOL0     H 1308   3.038   1.182   6.215 -0.7412  0.3128 -2.2253
   10MOL0     H 1309   3.264   1.078   6.253  0.6079 -0.6415 -0.3755
   10MOL0     H 1310   3.324   0.684   6.080  2.5467 -1.4170 -0.5999
   10MOL0     H 1311   3.346   0.634   6.253 -1.7761  0.6579  0.1963
   10MOL0     H 1312   3.568   0.749   6.071  0.3957 -1.9343 -1.3872
   10MOL0     H 1313   3.564   0.705   6.244 -1.0725  2.1479  0.9573
   10MOL0     H 1314   3.489   0.508   6.025 -1.6233  0.3538  0.4205
   10MOL0     H 1315   3.546   0.461   6.177  1.2715  1.3488  2.0064
   10MOL0     H 1316   3.698   0.610   5.964  0.4167 -2.3528 -2.2648
   10MOL0     H 1317   3.765   0.592   6.126 -0.3752  1.8084 -1.0379
   10MOL0     H 1318   3.799   0.196   5.991 -3.0943  0.0343 -6.2358
   10MOL0     H 1319   3.116   0.689   6.174 -1.3552 -1.0412  1.6356
   10MOL0     H 1320   2.892   0.780   6.143  1.5277 -2.7239  0.5172
   11MOL0     O 1321  11.018   0.580   3.115 -1.1729  0.2994 -0.0834
   11MOL0     C 1322  10.934   0.516   3.052  0.0896  0.0137  0.9222
   11MOL0     O 1323  10.956   0.392   2.998 -0.3598 -0.6620  0.2631
   11MOL0     C 1324  11.079   0.335   3.020  0.4611 -0.7059  0.7797
   11MOL0     C 1325  11.104   0.277   3.135  0.2069  0.4924 -0.3428
   11MOL0     C 1326  11.240   0.237   3.177  0.3264  1.1053  0.2280
   11MOL0     C 1327  11.339   0.247   3.083 -0.1188 -0.6957  0.7650
   11MOL0     O 1328  11.468   0.216   3.118  0.3570  0.7966 -0.0234
   11MOL0     C 1329  11.579   0.219   3.021  0.0280 -0.0222  0.0615
   11MOL0     C 1330  11.588   0.112   2.921 -0.1912  0.0804  0.1621
   11MOL0     C 1331  11.654  -0.020   2.971  0.1481 -1.0655 -0.3948
   11MOL0     C 1332  11.810  -0.001   2.994 -0.1388  1.0532 -0.3910
   11MOL0     C 1333  11.883  -0.130   3.056  0.4570 -0.3391 -0.5081
   11MOL0     C 1334  12.036  -0.145   3.017 -0.1163 -0.1810 -0.9385
   11MOL0     C 1335  12.106  -0.250   3.100  1.1347 -0.0131 -0.2563
   11MOL0     C 1336  12.250  -0.282   3.071 -0.5096 -0.1358 -0.9068
   11MOL0     N 1337  12.354  -0.173   3.069  0.2972  0.9390  0.8444
   11MOL0     C 1338  12.490  -0.198   3.046  0.4382 -0.5676  0.5243
   11MOL0     C 1339  12.555  -0.094   3.095 -0.0074  0.2726 -0.1313
   11MOL0     C 1340  12.702  -0.073   3.088  0.5551  0.4298  0.2979
   11MOL0     C 1341  12.743   0.041   2.985 -0.1215 -0.4293 -0.4684
   11MOL0     C 1342  12.730  -0.013   2.844  0.2756  1.1467 -0.5774
   11MOL0     C 1343  12.779   0.089   2.739 -0.6302 -0.8069  0.4667
   11MOL0     O 1344  12.919   0.129   2.762  0.0776  0.1301  0.1708
   11MOL0     C 1345  13.022   0.042   2.725 -0.1396  1.0198  0.5193
   11MOL0     C 1346  13.149   0.076   2.775 -0.2743 -1.1040  0.1263
   11MOL0     C 1347  13.254  -0.016   2.755  0.5014  0.1830 -0.2994
   11MOL0     C 1348  13.247  -0.135   2.681  0.0591 -0.1039  0.6629
   11MOL0     C 1349  13.358  -0.225   2.656  0.4549 -0.0550  0.3272
   11MOL0     O 1350  13.475  -0.205   2.718 -0.2182 -0.5072 -0.2966
   11MOL0     C 1351  13.587  -0.278   2.723  0.2497  0.7465 -0.3557
   11MOL0     C 1352  13.685  -0.223   2.809  0.1115 -0.9616 -0.3859
   11MOL0     C 1353  13.806  -0.287   2.839  0.8547 -0.2703  0.3471
   11MOL0     C 1354  13.828  -0.399   2.769 -0.2113  0.3198 -0.8950
   11MOL0     O 1355  13.958  -0.451   2.790 -0.4157 -0.4661  0.2741
   11MOL0     C 1356  14.000  -0.580   2.725 -0.0033 -0.3638  0.0834
   11MOL0     C 1357  14.150  -0.591   2.721  0.2485 -0.4497  0.1314
   11MOL0     C 1358  14.187  -0.724   2.666  0.6492  0.4814 -0.1859
   11MOL0     C 1359  14.341  -0.761   2.677 -1.5471  1.1826 -0.3196
   11MOL0     C 1360  14.379  -0.900   2.604 -0.7865  0.1080  0.0333
   11MOL0     C 1361  14.523  -0.944   2.650 -0.1567 -0.1150 -0.0601
   11MOL0     C 1362  14.571  -1.081   2.573 -0.1370  0.5857 -0.7038
   11MOL0     C 1363  14.717  -1.116   2.567  0.2381  0.0460 -0.0641
   11MOL0    Cl 1364  14.788  -1.127   2.730 -0.2353  0.4610  0.0274
   11MOL0     C 1365  13.744  -0.461   2.678 -0.2317 -0.5756  0.4650
   11MOL0     C 1366  13.620  -0.397   2.663  0.6303  0.1321 -0.2382
   11MOL0     O 1367  13.340  -0.314   2.574  0.6961  0.1974 -0.7664
   11MOL0     C 1368  13.121  -0.158   2.626 -0.5586  0.1150 -1.2534
   11MOL0     C 1369  13.011  -0.083   2.655 -0.5115  0.2194 -0.2939
   11MOL0     N 1370  12.465  -0.007   3.148  0.0459  0.1962 -0.1439
   11MOL0     N 1371  12.348  -0.051   3.132 -0.2422  0.5444 -0.3630
   11MOL0     C 1372  11.305   0.298   2.955  0.5718 -0.7219  0.0370
   11MOL0     C 1373  11.175   0.341   2.916 -0.1068  0.1965 -0.2743
   11MOL0     C 1374  10.802   0.581   3.052 -0.9039 -0.0789  0.8339
   11MOL0     C 1375  10.765   0.699   3.131  0.3702  0.4468  0.0197
   11MOL0     C 1376  10.636   0.750   3.123 -0.3194 -0.1789 -1.2236
   11MOL0     C 1377  10.534   0.691   3.049 -1.1650 -0.4246  0.4992
   11MOL0     O 1378  10.415   0.744   3.030  0.1649 -0.2524 -1.0339
   11MOL0     C 1379  10.370   0.820   3.154  0.9173 -0.6746 -0.6627
   11MOL0     C 1380  10.219   0.850   3.139 -0.0912 -0.2788 -0.0352
   11MOL0     C 1381  10.130   0.719   3.140  0.7754  0.2381 -0.3247
   11MOL0     C 1382   9.988   0.759   3.151 -1.1097  0.7124 -0.1504
   11MOL0     C 1383   9.906   0.641   3.193 -0.2169  0.2286  0.2844
   11MOL0     C 1384   9.838   0.547   3.224 -0.5290 -0.2913 -0.2881
   11MOL0     C 1385  10.568   0.577   2.975 -0.1311 -0.4127  0.2290
   11MOL0     C 1386  10.700   0.537   2.965 -0.6084 -0.2577  0.1267
   11MOL0     H 1387  11.018   0.262   3.199 -0.5237  2.5624 -0.7378
   11MOL0     H 1388  11.263   0.184   3.269 -3.5329 -0.3284  0.5575
   11MOL0     H 1389  11.671   0.218   3.079  1.4461  0.0873 -2.0815
   11MOL0     H 1390  11.576   0.315   2.968 -4.3038  0.1493  0.2422
   11MOL0     H 1391  11.654   0.150   2.842  0.9137 -0.0316  1.0085
   11MOL0     H 1392  11.486   0.095   2.885 -0.2650 -2.4919  1.3690
   11MOL0     H 1393  11.626  -0.095   2.897  1.8533  0.9678 -3.3484
   11MOL0     H 1394  11.613  -0.035   3.072 -1.0026  0.7172 -0.5476
   11MOL0     H 1395  11.858   0.012   2.897 -0.6825  3.4330 -0.4099
   11MOL0     H 1396  11.838   0.085   3.055  1.0651  0.9539 -0.7752
   11MOL0     H 1397  11.828  -0.215   3.015  0.9012  1.2596 -5.0326
   11MOL0     H 1398  11.862  -0.120   3.163  2.3644 -0.5985 -0.0665
   11MOL0     H 1399  12.076  -0.044   3.026  0.5788 -0.5188 -0.1181
   11MOL0     H 1400  12.043  -0.178   2.913  1.4500 -1.8400 -0.3507
   11MOL0     H 1401  12.106  -0.214   3.203 -1.8094  1.5498 -0.6884
   11MOL0     H 1402  12.042  -0.337   3.085  1.8291 -0.1925 -2.5596
   11MOL0     H 1403  12.246  -0.328   2.972  1.2408 -0.8721 -0.6683
   11MOL0     H 1404  12.293  -0.348   3.147  2.2836 -0.3858 -2.5717
   11MOL0     H 1405  12.530  -0.284   2.993 -2.7900 -1.5343 -0.5813
   11MOL0     H 1406  12.747  -0.170   3.063 -0.0113 -0.2823  1.8508
   11MOL0     H 1407  12.734  -0.040   3.188  0.8178  0.0135  0.3548
   11MOL0     H 1408  12.843   0.080   3.005  0.7368 -3.2203  1.0963
   11MOL0     H 1409  12.669   0.121   3.000  0.2132 -0.0321 -0.8923
   11MOL0     H 1410  12.776  -0.112   2.845 -1.2767  0.4016 -0.8205
   11MOL0     H 1411  12.624  -0.029   2.824  0.3688 -0.2835 -0.0300
   11MOL0     H 1412  12.724   0.184   2.734  1.7504  0.5962 -0.9773
   11MOL0     H 1413  12.771   0.033   2.646  0.2509 -1.0793  0.5493
   11MOL0     H 1414  13.158   0.160   2.843  0.5570  0.5625 -1.9471
   11MOL0     H 1415  13.348   0.011   2.802  0.8242 -1.4440  0.0518
   11MOL0     H 1416  13.665  -0.130   2.863  0.0850 -0.0385 -1.9324
   11MOL0     H 1417  13.887  -0.248   2.898  3.7641 -1.5837 -2.4430
   11MOL0     H 1418  13.968  -0.566   2.621 -0.2097  2.4986  0.4560
   11MOL0     H 1419  13.962  -0.668   2.778  0.1425 -0.5517 -0.1239
   11MOL0     H 1420  14.196  -0.575   2.819 -1.8942 -0.9275  1.2925
   11MOL0     H 1421  14.195  -0.516   2.656  0.9000 -1.5558 -0.7395
   11MOL0     H 1422  14.155  -0.726   2.561  4.5355 -0.7758 -1.5026
   11MOL0     H 1423  14.119  -0.805   2.694  0.1911  0.4887 -1.2405
   11MOL0     H 1424  14.387  -0.673   2.631  0.3996  1.5320  2.1077
   11MOL0     H 1425  14.389  -0.768   2.775  1.8140  1.1478 -1.8564
   11MOL0     H 1426  14.381  -0.865   2.501  0.6229 -0.5493 -0.1744
   11MOL0     H 1427  14.315  -0.983   2.634  1.2801 -2.3894 -2.0065
   11MOL0     H 1428  14.500  -0.954   2.756 -1.4301  2.6752  0.0127
   11MOL0     H 1429  14.595  -0.863   2.637  1.5481 -1.9854 -4.1933
   11MOL0     H 1430  14.506  -1.157   2.618 -1.4573  3.1344  2.0254
   11MOL0     H 1431  14.539  -1.065   2.470 -2.9872 -0.0393 -0.0090
   11MOL0     H 1432  14.775  -1.033   2.525  3.2699  0.0547  3.5737
   11MOL0     H 1433  14.726  -1.209   2.511  2.4262  0.6838 -0.8886
   11MOL0     H 1434  13.765  -0.553   2.625  0.6156  1.5799 -3.2595
   11MOL0     H 1435  13.548  -0.442   2.595  0.5647 -0.6160  0.3143
   11MOL0     H 1436  13.090  -0.243   2.565  1.8071  0.7687 -3.5343
   11MOL0     H 1437  12.915  -0.112   2.613 -0.1394 -0.6003 -0.6080
   11MOL0     H 1438  11.380   0.307   2.878 -0.9610 -4.3688 -2.1210
   11MOL0     H 1439  11.172   0.387   2.817  1.1187 -0.2465 -0.5367
   11MOL0     H 1440  10.837   0.740   3.201  2.8500 -2.0056 -0.9549
   11MOL0     H 1441  10.623   0.843   3.179  0.3081  0.1825 -1.6685
   11MOL0     H 1442  10.428   0.912   3.162  2.9080 -2.0088  1.0751
   11MOL0     H 1443  10.375   0.763   3.247  1.6245 -0.3530 -0.5049
   11MOL0     H 1444  10.190   0.913   3.223  0.0706  0.0333 -0.2124
   11MOL0     H 1445  10.204   0.908   3.047 -1.6356 -2.3096 -1.1377
   11MOL0     H 1446  10.160   0.669   3.233 -4.0374 -0.3149  1.2286
   11MOL0     H 1447  10.135   0.650   3.056 -1.1010 -0.4939  0.0964
   11MOL0     H 1448   9.986   0.841   3.223  3.0447  1.8818 -1.0922
   11MOL0     H 1449   9.958   0.783   3.049 -0.2933 -1.9163 -1.1115
   11MOL0     H 1450   9.775   0.463   3.244  1.4868 -1.2738  2.3891
   11MOL0     H 1451  10.489   0.549   2.907  1.1919  1.7192 -2.3965
   11MOL0     H 1452  10.723   0.456   2.896  0.1886 -0.9347  1.1463
   12MOL0     O 1453   5.278   6.125   8.529 -0.7471  0.0973  0.1146
   12MOL0     C 1454   5.340   6.186   8.440  0.3141  0.2074  0.8833
   12MOL0     O 1455   5.474   6.198   8.429  0.7090  0.6897 -0.1955
   12MOL0     C 1456   5.554   6.104   8.490 -0.0942 -0.9875  0.0134
   12MOL0     C 1457   5.605   5.993   8.423  0.6007 -0.3611 -0.5615
   12MOL0     C 1458   5.703   5.917   8.493 -0.1091  0.4156 -0.2100
   12MOL0     C 1459   5.738   5.943   8.633 -0.4416 -0.2648 -0.2443
   12MOL0     O 1460   5.835   5.864   8.688 -0.4664 -0.2960  0.2460
   12MOL0     C 1461   5.849   5.871   8.835 -0.1110  0.6852  0.0712
   12MOL0     C 1462   5.952   5.767   8.868 -0.3054 -0.3964  0.2668
   12MOL0     C 1463   5.958   5.724   9.014 -0.3284 -1.0191 -0.3030
   12MOL0     C 1464   6.106   5.692   9.052 -0.5443 -0.5770  0.3185
   12MOL0     C 1465   6.103   5.638   9.197  0.1883  0.2007  0.0306
   12MOL0     C 1466   6.038   5.496   9.198 -0.4867  0.4866  0.1465
   12MOL0     C 1467   6.124   5.397   9.276  1.1657 -0.4585 -0.4360
   12MOL0     C 1468   6.061   5.263   9.303  0.4765 -0.9435 -0.3116
   12MOL0     N 1469   6.133   5.194   9.405  0.1482 -0.0517 -0.4209
   12MOL0     C 1470   6.221   5.092   9.386  0.1398  0.0748  0.1834
   12MOL0     C 1471   6.272   5.071   9.518  0.4440 -0.4119 -0.1822
   12MOL0     C 1472   6.384   4.983   9.563  0.1539 -0.7667 -0.5139
   12MOL0     C 1473   6.350   4.838   9.530  1.4747 -1.1474 -0.0467
   12MOL0     C 1474   6.474   4.743   9.531 -0.1155 -0.1908 -1.0765
   12MOL0     C 1475   6.518   4.720   9.680 -0.1184 -0.8735  0.9272
   12MOL0     O 1476   6.588   4.594   9.695  0.8282  0.4754  0.2693
   12MOL0     C 1477   6.723   4.614   9.677  0.5913 -0.5226  1.2892
   12MOL0     C 1478   6.778   4.601   9.552 -0.4842 -0.2936 -0.3700
   12MOL0     C 1479   6.913   4.624   9.545  0.4068 -0.6368  0.3562
   12MOL0     C 1480   7.000   4.661   9.653  0.0561  0.2483 -0.0930
   12MOL0     C 1481   7.149   4.693   9.629 -0.2249  0.0557  0.6993
   12MOL0     O 1482   7.187   4.684   9.500  0.3270  0.8863  0.1689
   12MOL0     C 1483   7.318   4.701   9.476  0.5253  0.9533  0.0355
   12MOL0     C 1484   7.418   4.622   9.527  0.2190 -0.9528  0.3840
   12MOL0     C 1485   7.550   4.671   9.532 -0.5438 -0.0859 -0.1613
   12MOL0     C 1486   7.590   4.778   9.453  0.2900 -0.4268  0.5763
   12MOL0     O 1487   7.706   4.847   9.431  0.6375 -0.1241 -0.5623
   12MOL0     C 1488   7.827   4.779   9.464  0.3318  0.6313  0.0612
   12MOL0     C 1489   7.921   4.851   9.565  0.7885  0.4394  0.3143
   12MOL0     C 1490   7.954   4.989   9.509 -0.4472  0.0664 -0.2207
   12MOL0     C 1491   8.065   5.044   9.602 -0.4154 -0.1803  0.3882
   12MOL0     C 1492   8.109   5.178   9.531  0.2623 -0.4150 -0.0690
   12MOL0     C 1493   8.258   5.198   9.568  0.0417  0.0160 -0.4954
   12MOL0     C 1494   8.302   5.351   9.536 -0.2330  0.0137 -0.8315
   12MOL0     C 1495   8.444   5.348   9.487  0.6940  1.2964  0.0640
   12MOL0    Cl 1496   8.451   5.317   9.316 -0.0773  0.1795  0.3077
   12MOL0     C 1497   7.490   4.845   9.383  0.1126  0.2221  0.3331
   12MOL0     C 1498   7.356   4.818   9.411  0.3311  0.3138  0.4852
   12MOL0     O 1499   7.208   4.753   9.723  0.2332 -1.3569  0.2751
   12MOL0     C 1500   6.933   4.673   9.780 -0.8559  0.9957  0.0940
   12MOL0     C 1501   6.796   4.644   9.786 -0.1132 -0.1056  0.6853
   12MOL0     N 1502   6.187   5.148   9.602  0.1855 -0.6377  0.8619
   12MOL0     N 1503   6.103   5.221   9.534  0.0929 -0.2393 -0.6904
   12MOL0     C 1504   5.681   6.051   8.697  0.6525 -0.1742  0.2588
   12MOL0     C 1505   5.585   6.128   8.625 -0.1754 -0.4506  0.1087
   12MOL0     C 1506   5.253   6.288   8.372  0.8011 -0.0572 -1.1331
   12MOL0     C 1507   5.322   6.378   8.285 -0.0873 -0.1631 -0.0137
   12MOL0     C 1508   5.249   6.474   8.214  0.3351 -0.0551  0.0615
   12MOL0     C 1509   5.103   6.466   8.211 -1.0543  0.4775  0.4138
   12MOL0     O 1510   5.022   6.545   8.137 -0.1570 -0.1352  0.4120
   12MOL0     C 1511   5.087   6.635   8.046 -0.2366  0.5524  0.5491
   12MOL0     C 1512   4.980   6.690   7.947  0.1025  0.5037  0.6258
   12MOL0     C 1513   4.869   6.763   8.029 -0.2351  0.1093  0.4992
   12MOL0     C 1514   4.760   6.810   7.933 -0.2884  0.3455  0.0514
   12MOL0     C 1515   4.665   6.706   7.879 -0.3743 -0.3938  0.2685
   12MOL0     C 1516   4.577   6.627   7.846  0.9606  1.1500  0.5187
   12MOL0     C 1517   5.031   6.375   8.290 -0.2386  0.8011 -0.3238
   12MOL0     C 1518   5.108   6.289   8.374 -0.4546  1.5682 -0.6113
   12MOL0     H 1519   5.561   5.955   8.332 -1.7449 -2.5830  1.3485
   12MOL0     H 1520   5.738   5.823   8.452 -0.9856  0.4006 -0.9477
   12MOL0     H 1521   5.751   5.851   8.879  0.2604  2.6434  1.9293
   12MOL0     H 1522   5.884   5.970   8.866  1.6443  0.9474 -2.3810
   12MOL0     H 1523   6.046   5.814   8.835  0.8344 -2.6655  0.0885
   12MOL0     H 1524   5.931   5.676   8.810 -2.1735  0.9034 -1.2146
   12MOL0     H 1525   5.892   5.637   9.027 -1.3061 -0.3405 -0.6227
   12MOL0     H 1526   5.927   5.805   9.081  2.3234 -1.0885  1.1494
   12MOL0     H 1527   6.151   5.614   8.990 -1.3319 -1.0691  0.3546
   12MOL0     H 1528   6.150   5.792   9.054 -0.8166 -0.4655  0.7908
   12MOL0     H 1529   6.038   5.694   9.266  0.3289 -0.2385  0.5304
   12MOL0     H 1530   6.204   5.621   9.236 -0.1602 -0.5328  0.6407
   12MOL0     H 1531   6.029   5.456   9.097 -3.4346  2.5812 -0.5288
   12MOL0     H 1532   5.931   5.504   9.217 -0.9947 -2.3588 -1.0364
   12MOL0     H 1533   6.220   5.380   9.226  1.9007 -1.6646  1.2782
   12MOL0     H 1534   6.142   5.448   9.371  0.5693  1.3962 -1.2746
   12MOL0     H 1535   6.039   5.205   9.213 -2.5337 -2.3547  1.1822
   12MOL0     H 1536   5.959   5.284   9.336 -0.8556 -4.8224 -1.3938
   12MOL0     H 1537   6.263   5.038   9.302 -1.5870 -1.1776  0.0611
   12MOL0     H 1538   6.395   4.997   9.671  1.8722  2.0498 -0.9342
   12MOL0     H 1539   6.479   5.008   9.514  0.8680 -2.1800  0.0987
   12MOL0     H 1540   6.309   4.840   9.429 -1.2881 -1.0002  0.9770
   12MOL0     H 1541   6.274   4.805   9.602 -0.6006 -1.5808 -2.2948
   12MOL0     H 1542   6.454   4.647   9.482 -0.2364 -1.3467  1.0777
   12MOL0     H 1543   6.560   4.788   9.482  1.5227 -0.8150  1.0617
   12MOL0     H 1544   6.431   4.720   9.746 -2.3377 -0.8680 -1.8181
   12MOL0     H 1545   6.590   4.795   9.715 -0.5997 -0.6225  1.3974
   12MOL0     H 1546   6.710   4.586   9.469  1.6970  1.1599 -2.5696
   12MOL0     H 1547   6.967   4.616   9.452  0.9111  0.8908  0.4770
   12MOL0     H 1548   7.399   4.538   9.593  2.7197 -2.1936 -0.4043
   12MOL0     H 1549   7.615   4.625   9.605 -2.8789 -1.8179  0.9571
   12MOL0     H 1550   7.879   4.758   9.370 -2.9623 -3.1458 -1.2256
   12MOL0     H 1551   7.807   4.679   9.504 -2.7163  1.5579  1.1550
   12MOL0     H 1552   8.018   4.799   9.574  0.4452  0.0810  2.7566
   12MOL0     H 1553   7.877   4.864   9.664 -1.0490  0.1465 -0.4211
   12MOL0     H 1554   7.878   5.068   9.510 -0.6686 -0.1349 -0.7114
   12MOL0     H 1555   8.000   4.973   9.411  0.8967  1.8260  0.0849
   12MOL0     H 1556   8.028   5.069   9.702 -0.7187  0.8298  0.0406
   12MOL0     H 1557   8.148   4.976   9.620  1.2641  0.8298 -2.7380
   12MOL0     H 1558   8.040   5.258   9.561  3.1555  2.0022  0.6518
   12MOL0     H 1559   8.090   5.185   9.424 -1.6633  2.7136  0.3316
   12MOL0     H 1560   8.320   5.124   9.517  0.5008 -1.1232  1.6141
   12MOL0     H 1561   8.278   5.166   9.671 -0.1398  1.7775  0.1205
   12MOL0     H 1562   8.236   5.409   9.471 -0.1012 -0.3013 -1.2553
   12MOL0     H 1563   8.305   5.397   9.635  4.1938  0.6727 -1.0674
   12MOL0     H 1564   8.492   5.275   9.553  0.3895  1.4134  0.4146
   12MOL0     H 1565   8.487   5.446   9.512 -2.9064  2.8818  0.7128
   12MOL0     H 1566   7.516   4.924   9.313  0.0258  0.1895  0.2640
   12MOL0     H 1567   7.282   4.859   9.343  5.3416  3.3944 -3.7649
   12MOL0     H 1568   6.999   4.690   9.864  0.9869 -3.4793 -0.1771
   12MOL0     H 1569   6.745   4.653   9.881 -1.6925  2.6860 -0.2841
   12MOL0     H 1570   5.691   6.075   8.802 -0.2162 -0.2914  0.3708
   12MOL0     H 1571   5.522   6.203   8.673  0.7352  0.7848 -0.5813
   12MOL0     H 1572   5.428   6.399   8.297 -0.1067  0.2636 -0.5194
   12MOL0     H 1573   5.306   6.556   8.173 -1.6242  1.0122 -0.6286
   12MOL0     H 1574   5.162   6.578   7.990  2.0260  2.7770  1.1041
   12MOL0     H 1575   5.143   6.718   8.091  3.6589 -0.9440 -1.0062
   12MOL0     H 1576   5.020   6.756   7.870 -3.4037 -1.1725 -2.9666
   12MOL0     H 1577   4.939   6.603   7.895  1.9610  0.8753 -1.6596
   12MOL0     H 1578   4.922   6.840   8.085  1.4826  0.3445 -1.3552
   12MOL0     H 1579   4.831   6.690   8.101 -0.1169 -0.3742  0.0779
   12MOL0     H 1580   4.716   6.886   7.998  1.4775  0.8062  0.7781
   12MOL0     H 1581   4.813   6.864   7.854  0.0404 -0.2356 -0.1321
   12MOL0     H 1582   4.484   6.575   7.836  1.9612 -0.2626 -2.9810
   12MOL0     H 1583   4.923   6.373   8.282 -0.2403 -0.0214 -0.1977
   12MOL0     H 1584   5.055   6.215   8.435 -1.2560  0.9609 -2.0005
   13MOL0     O 1585   1.214   9.874   9.392 -0.4624  0.4370 -0.4215
   13MOL0     C 1586   1.229   9.762   9.341  0.5107  1.1177  0.0049
   13MOL0     O 1587   1.266   9.740   9.216  0.1570 -0.5240  0.6745
   13MOL0     C 1588   1.271   9.851   9.136  1.7396  0.0839  0.3518
   13MOL0     C 1589   1.385   9.925   9.127 -0.2325  0.7250  0.6484
   13MOL0     C 1590   1.385  10.043   9.050 -0.5639  0.1598 -1.1230
   13MOL0     C 1591   1.279  10.064   8.961 -0.0633 -0.0178 -0.1536
   13MOL0     O 1592   1.290  10.185   8.892  0.8733  0.6551 -0.1377
   13MOL0     C 1593   1.200  10.208   8.779 -0.7160  0.4496 -0.9625
   13MOL0     C 1594   1.223  10.120   8.647 -0.3845 -0.0836 -0.8997
   13MOL0     C 1595   1.353  10.186   8.585 -0.7759 -0.1270  0.1256
   13MOL0     C 1596   1.402  10.120   8.450 -0.4331 -1.1794  0.0131
   13MOL0     C 1597   1.463  10.216   8.346 -0.2875  0.0090  0.4595
   13MOL0     C 1598   1.601  10.257   8.392 -0.3804  0.0215 -0.8496
   13MOL0     C 1599   1.676  10.333   8.285 -0.1565 -0.8601  0.2010
   13MOL0     C 1600   1.658  10.489   8.284 -0.3429 -0.6685  0.3969
   13MOL0     N 1601   1.773  10.540   8.213 -0.4623  0.4000 -0.3292
   13MOL0     C 1602   1.888  10.589   8.286 -0.1108  0.1867 -0.1241
   13MOL0     C 1603   1.980  10.631   8.201  0.0206 -0.8839  0.1532
   13MOL0     C 1604   2.117  10.675   8.228  0.1269 -0.7772 -0.3643
   13MOL0     C 1605   2.174  10.605   8.354 -0.5852 -0.3689 -0.1933
   13MOL0     C 1606   2.317  10.661   8.371 -0.4400  0.4327  0.0628
   13MOL0     C 1607   2.394  10.570   8.469  0.3364  0.3431 -0.0437
   13MOL0     O 1608   2.512  10.644   8.516 -0.1554 -0.0866 -0.1579
   13MOL0     C 1609   2.630  10.635   8.450 -0.0835 -0.9409  0.1896
   13MOL0     C 1610   2.743  10.691   8.504  0.4098 -0.8745 -0.7517
   13MOL0     C 1611   2.873  10.687   8.442 -0.6540 -0.2979 -0.6943
   13MOL0     C 1612   2.886  10.625   8.321 -1.7530  0.8299 -1.1917
   13MOL0     C 1613   3.024  10.616   8.272  0.7776 -0.1147 -0.1979
   13MOL0     O 1614   3.037  10.521   8.172 -0.0611  0.2585  0.5019
   13MOL0     C 1615   3.150  10.523   8.099  0.8677  0.4267  0.1049
   13MOL0     C 1616   3.143  10.537   7.965 -0.8923 -0.0377  0.1441
   13MOL0     C 1617   3.265  10.531   7.888  0.2471  0.4125  0.8775
   13MOL0     C 1618   3.389  10.481   7.948 -0.1148  0.0064 -0.2857
   13MOL0     O 1619   3.504  10.466   7.879  0.0845 -0.1737  0.2892
   13MOL0     C 1620   3.497  10.459   7.738  0.2684 -0.1698  0.2507
   13MOL0     C 1621   3.633  10.409   7.684  0.4527  0.1848  0.2391
   13MOL0     C 1622   3.743  10.515   7.692 -0.1002  0.2489 -0.1749
   13MOL0     C 1623   3.867  10.477   7.621 -0.9671 -0.9070  0.8644
   13MOL0     C 1624   3.977  10.584   7.655  0.2011 -0.6211  0.4180
   13MOL0     C 1625   4.091  10.558   7.555  0.8430 -0.3294 -0.3589
   13MOL0     C 1626   4.207  10.655   7.556 -0.3432  0.0745  1.2989
   13MOL0     C 1627   4.310  10.642   7.665 -0.1913 -0.2515 -0.6504
   13MOL0    Cl 1628   4.438  10.758   7.635  0.4320  0.5560 -0.0409
   13MOL0     C 1629   3.393  10.468   8.087  0.3692 -0.0580  0.8171
   13MOL0     C 1630   3.274  10.489   8.160  0.5223 -0.5955 -0.0312
   13MOL0     O 1631   3.113  10.685   8.321  0.2302 -0.2148  0.8009
   13MOL0     C 1632   2.770  10.585   8.257 -0.8947  0.5637 -0.0667
   13MOL0     C 1633   2.645  10.590   8.315  0.2393 -0.5119 -0.6483
   13MOL0     N 1634   1.916  10.639   8.075  0.8089 -0.7662  0.2018
   13MOL0     N 1635   1.789  10.590   8.086 -0.2563 -0.2577 -0.3936
   13MOL0     C 1636   1.163   9.978   8.960 -0.2968 -0.7426  1.1754
   13MOL0     C 1637   1.153   9.878   9.058 -0.3605  0.5008  0.2603
   13MOL0     C 1638   1.210   9.635   9.429 -0.1295  0.0463  0.4406
   13MOL0     C 1639   1.219   9.514   9.363  0.3553 -0.1281 -0.6814
   13MOL0     C 1640   1.194   9.396   9.435  0.2251  0.3472  0.8036
   13MOL0     C 1641   1.170   9.397   9.571  0.8960  0.3550  0.6261
   13MOL0     O 1642   1.148   9.267   9.613  0.1028  0.8304  1.2017
   13MOL0     C 1643   1.128   9.257   9.762  0.4507 -0.0638 -0.8232
   13MOL0     C 1644   1.087   9.117   9.804 -0.4231 -0.0595 -0.1459
   13MOL0     C 1645   1.066   9.079   9.955  0.4575  0.1530 -0.6584
   13MOL0     C 1646   1.099   8.934   9.993 -1.1210 -1.1543 -0.3265
   13MOL0     C 1647   0.989   8.844   9.948 -0.6423 -0.0168 -0.4738
   13MOL0     C 1648   0.891   8.770   9.925  0.0971 -0.3410  0.0201
   13MOL0     C 1649   1.159   9.522   9.642  1.0918 -0.0302 -0.4154
   13MOL0     C 1650   1.183   9.646   9.574 -0.5252  0.6580 -0.3784
   13MOL0     H 1651   1.462   9.889   9.193 -1.7070  0.0145  2.0451
   13MOL0     H 1652   1.466  10.115   9.048 -1.4842  1.2031 -1.5999
   13MOL0     H 1653   1.213  10.315   8.764 -0.6987  0.9442  1.9944
   13MOL0     H 1654   1.098  10.214   8.818 -0.2223 -1.7028  0.8653
   13MOL0     H 1655   1.134  10.142   8.588 -3.1211  0.8583  3.1695
   13MOL0     H 1656   1.230  10.012   8.663  0.3455 -0.0873 -1.1854
   13MOL0     H 1657   1.436  10.161   8.652  0.8946  0.4669 -1.6165
   13MOL0     H 1658   1.352  10.295   8.571  2.3957 -0.0452 -0.1144
   13MOL0     H 1659   1.474  10.044   8.480 -0.4722 -0.3272  2.4402
   13MOL0     H 1660   1.320  10.067   8.401 -0.0453 -1.3713 -0.4284
   13MOL0     H 1661   1.397  10.302   8.330  0.6855  0.1873 -3.4686
   13MOL0     H 1662   1.475  10.157   8.255 -2.0788 -1.6081  1.1897
   13MOL0     H 1663   1.658  10.169   8.422 -0.1782  0.2188 -0.6516
   13MOL0     H 1664   1.603  10.314   8.485  1.8985 -0.1565 -0.7521
   13MOL0     H 1665   1.784  10.319   8.296  0.0560 -1.4276 -2.0045
   13MOL0     H 1666   1.658  10.295   8.184  0.6193  0.2275 -0.3698
   13MOL0     H 1667   1.656  10.534   8.384  0.5565 -0.3874  0.2974
   13MOL0     H 1668   1.568  10.522   8.230  0.6491  1.7715  0.1227
   13MOL0     H 1669   1.887  10.587   8.394  1.7691  1.4678 -0.0349
   13MOL0     H 1670   2.123  10.784   8.224 -0.7303 -0.7481 -1.5655
   13MOL0     H 1671   2.179  10.647   8.142 -0.7256  2.9064 -2.3906
   13MOL0     H 1672   2.175  10.497   8.334  0.7526 -0.0706 -2.0061
   13MOL0     H 1673   2.119  10.627   8.446  0.2849  1.8960 -0.1410
   13MOL0     H 1674   2.371  10.668   8.276 -0.7012 -0.4738 -0.1566
   13MOL0     H 1675   2.317  10.767   8.400 -1.4742  0.2332  0.8537
   13MOL0     H 1676   2.418  10.472   8.426 -0.2588  0.6054 -0.9765
   13MOL0     H 1677   2.320  10.545   8.546 -3.0858  0.5448 -3.0085
   13MOL0     H 1678   2.734  10.745   8.598  2.6432  0.6656 -1.3368
   13MOL0     H 1679   2.954  10.730   8.500 -0.6251  0.0834 -1.0121
   13MOL0     H 1680   3.049  10.560   7.917 -0.9568 -1.2060 -0.3157
   13MOL0     H 1681   3.244  10.559   7.785 -0.1239  1.8820  1.3189
   13MOL0     H 1682   3.464  10.556   7.698 -1.4257 -1.3718 -1.4999
   13MOL0     H 1683   3.412  10.397   7.706 -1.1679  0.6315  2.3397
   13MOL0     H 1684   3.619  10.382   7.579  0.7953 -1.0355  0.4891
   13MOL0     H 1685   3.656  10.324   7.748  0.6583 -0.0080 -0.0847
   13MOL0     H 1686   3.777  10.534   7.795 -0.2108  0.3358 -0.1540
   13MOL0     H 1687   3.702  10.610   7.656  0.1485  0.3953 -0.0786
   13MOL0     H 1688   3.902  10.379   7.652  0.6217 -0.4793  0.5076
   13MOL0     H 1689   3.840  10.477   7.515 -0.9460  2.1788  0.7459
   13MOL0     H 1690   4.013  10.558   7.755 -0.3930 -0.3389  0.7074
   13MOL0     H 1691   3.954  10.689   7.637  5.7525  0.8201 -0.1748
   13MOL0     H 1692   4.047  10.558   7.455  0.9527  0.8386 -0.4128
   13MOL0     H 1693   4.124  10.455   7.574  2.1996 -0.0930 -1.2908
   13MOL0     H 1694   4.251  10.644   7.457 -3.7185  1.9022 -0.6103
   13MOL0     H 1695   4.178  10.761   7.549  0.1180  0.1094 -0.3540
   13MOL0     H 1696   4.347  10.540   7.678 -1.8433 -0.7374  0.6362
   13MOL0     H 1697   4.258  10.659   7.760 -1.0065  0.8224 -1.2642
   13MOL0     H 1698   3.485  10.430   8.129  0.8951 -2.1754 -1.9392
   13MOL0     H 1699   3.273  10.485   8.268 -0.7838  0.9823  0.0590
   13MOL0     H 1700   2.783  10.537   8.161 -1.5680 -2.8380  1.4047
   13MOL0     H 1701   2.557  10.556   8.262 -1.5393  2.5810  0.0763
   13MOL0     H 1702   1.082   9.983   8.887  1.4156  0.8508 -0.7406
   13MOL0     H 1703   1.059   9.825   9.049 -1.6922  3.0313 -2.6134
   13MOL0     H 1704   1.230   9.505   9.255  0.7053 -1.6827 -0.5489
   13MOL0     H 1705   1.206   9.298   9.388 -0.0310  0.1311  1.1826
   13MOL0     H 1706   1.049   9.329   9.789 -1.3220 -1.6626 -1.4804
   13MOL0     H 1707   1.216   9.272   9.825 -1.2109  0.9448  1.3908
   13MOL0     H 1708   0.995   9.088   9.751  1.2949  0.1957 -3.5461
   13MOL0     H 1709   1.170   9.055   9.771  0.3209  0.0122  1.5397
   13MOL0     H 1710   0.964   9.095   9.992  0.0547 -0.2362 -1.5471
   13MOL0     H 1711   1.131   9.141  10.017  0.4912 -2.0873  1.7307
   13MOL0     H 1712   1.193   8.904   9.946 -0.8009 -0.0237 -0.4374
   13MOL0     H 1713   1.122   8.929  10.100  0.8634  0.5818 -0.6192
   13MOL0     H 1714   0.814   8.703   9.895 -0.4784  0.3462 -0.0701
   13MOL0     H 1715   1.112   9.531   9.739 -2.0641 -1.5554 -1.6611
   13MOL0     H 1716   1.172   9.742   9.622  1.1557  1.3379 -1.2710
   14MOL0     O 1717  10.009   0.156   0.869  0.1752 -0.4970  0.1731
   14MOL0     C 1718   9.996   0.201   0.988  0.8899 -0.2815 -0.4664
   14MOL0     O 1719   9.909   0.302   1.026 -0.2846 -0.5650  0.4453
   14MOL0     C 1720   9.805   0.333   0.941 -0.7469 -0.0179  0.3765
   14MOL0     C 1721   9.724   0.244   0.870 -0.4391  1.0546 -0.0706
   14MOL0     C 1722   9.624   0.299   0.791 -0.2277 -0.2094  0.2618
   14MOL0     C 1723   9.603   0.432   0.777 -0.0458 -1.0560 -0.1450
   14MOL0     O 1724   9.483   0.478   0.710 -0.1652  0.1140 -0.9657
   14MOL0     C 1725   9.455   0.614   0.685  0.2716  0.6007  0.9462
   14MOL0     C 1726   9.343   0.622   0.578 -0.1846  0.4128 -0.1775
   14MOL0     C 1727   9.400   0.687   0.459 -0.2697  0.1239  0.4748
   14MOL0     C 1728   9.298   0.692   0.340 -0.4812 -0.3811 -0.0898
   14MOL0     C 1729   9.351   0.775   0.226 -0.3259  0.9949  0.2855
   14MOL0     C 1730   9.235   0.794   0.124 -0.0539 -0.5224 -0.8013
   14MOL0     C 1731   9.266   0.849  -0.012 -0.0284 -0.6424 -0.4130
   14MOL0     C 1732   9.264   1.003  -0.019  0.2677 -0.0796 -0.7814
   14MOL0     N 1733   9.289   1.060  -0.154  0.1875 -0.1653  0.2238
   14MOL0     C 1734   9.296   1.195  -0.192 -0.2243  0.5587 -0.0782
   14MOL0     C 1735   9.295   1.198  -0.331  0.1031 -0.4659  0.1120
   14MOL0     C 1736   9.282   1.319  -0.424  0.0433 -0.1508 -0.9640
   14MOL0     C 1737   9.142   1.355  -0.467  0.5431  0.5078  0.2930
   14MOL0     C 1738   9.051   1.383  -0.347 -0.8108  0.7620 -0.8502
   14MOL0     C 1739   8.909   1.416  -0.390 -0.0715  0.0279 -0.3989
   14MOL0     O 1740   8.824   1.378  -0.284 -0.0161  0.0275 -0.0813
   14MOL0     C 1741   8.707   1.447  -0.278 -0.1858 -0.3087  0.7387
   14MOL0     C 1742   8.611   1.460  -0.383 -0.4646 -0.2877 -0.2509
   14MOL0     C 1743   8.490   1.510  -0.355  0.1287 -1.0589  0.8022
   14MOL0     C 1744   8.451   1.553  -0.224  0.4377 -0.7824 -0.7218
   14MOL0     C 1745   8.314   1.589  -0.190  0.4317  0.3892 -0.1764
   14MOL0     O 1746   8.273   1.550  -0.065 -0.0544  0.6140  0.5967
   14MOL0     C 1747   8.158   1.603  -0.012  0.6938 -0.8570  1.1066
   14MOL0     C 1748   8.111   1.538   0.105  0.5156 -0.3677  1.1754
   14MOL0     C 1749   8.004   1.583   0.180 -0.1210 -0.2038 -0.5481
   14MOL0     C 1750   7.927   1.683   0.139  0.4809 -0.4190 -0.5410
   14MOL0     O 1751   7.829   1.719   0.223 -0.2851  0.7184 -0.2170
   14MOL0     C 1752   7.711   1.789   0.167 -1.3490  0.2402  0.2344
   14MOL0     C 1753   7.598   1.788   0.267 -0.8447  0.4962  0.8912
   14MOL0     C 1754   7.494   1.675   0.244 -0.0465  0.5445  0.2352
   14MOL0     C 1755   7.404   1.698   0.127 -0.7275 -0.2045 -0.1470
   14MOL0     C 1756   7.275   1.603   0.113  0.6782  0.0171 -0.2977
   14MOL0     C 1757   7.146   1.658   0.174 -0.2949  0.1769  0.1876
   14MOL0     C 1758   7.038   1.546   0.169 -0.5525  0.1748 -0.0901
   14MOL0     C 1759   6.910   1.606   0.233 -0.3674 -0.2435 -0.2250
   14MOL0    Cl 1760   6.793   1.488   0.269  0.2104  0.1847  0.1486
   14MOL0     C 1761   7.967   1.751   0.025 -0.4020 -1.5053  0.2659
   14MOL0     C 1762   8.087   1.720  -0.041 -0.6402  0.1260  0.5557
   14MOL0     O 1763   8.245   1.647  -0.275  0.1290  0.3358 -0.1728
   14MOL0     C 1764   8.537   1.524  -0.118 -0.3202  0.9230  0.3092
   14MOL0     C 1765   8.666   1.475  -0.144 -0.3924  0.3559  0.0580
   14MOL0     N 1766   9.309   1.068  -0.373  0.2762  0.4162  0.6328
   14MOL0     N 1767   9.293   0.984  -0.269 -0.4960  0.5814 -0.1058
   14MOL0     C 1768   9.691   0.525   0.834 -1.3237 -0.5191  0.0373
   14MOL0     C 1769   9.793   0.475   0.921  0.2184 -0.0698  0.5328
   14MOL0     C 1770  10.067   0.135   1.094 -0.7009 -1.0135  0.1005
   14MOL0     C 1771  10.064   0.173   1.230 -0.2678 -0.5309 -0.8562
   14MOL0     C 1772  10.135   0.108   1.330 -0.1706  0.4024  0.0680
   14MOL0     C 1773  10.218   0.006   1.288 -0.3164  0.5444 -0.2936
   14MOL0     O 1774  10.306  -0.054   1.377 -0.2165 -0.5159 -0.7243
   14MOL0     C 1775  10.401   0.039   1.436  0.2429  0.0780 -0.0657
   14MOL0     C 1776  10.523  -0.045   1.468 -0.3815 -0.5176  0.7722
   14MOL0     C 1777  10.638   0.051   1.519 -0.2566 -0.5910 -0.7629
   14MOL0     C 1778  10.762  -0.030   1.571 -0.9197 -0.4693  0.1849
   14MOL0     C 1779  10.897   0.044   1.557 -0.2442  1.3526  0.2930
   14MOL0     C 1780  10.989   0.117   1.546 -0.9939  0.4154  0.1184
   14MOL0     C 1781  10.230  -0.033   1.157  0.6850  0.0262  0.3181
   14MOL0     C 1782  10.145   0.023   1.066 -0.4049 -0.5353  0.0414
   14MOL0     H 1783   9.742   0.138   0.882 -0.8210  0.6871 -2.2743
   14MOL0     H 1784   9.551   0.230   0.749 -0.8217  0.1878  0.6450
   14MOL0     H 1785   9.543   0.665   0.646 -2.6368  5.0142 -0.6570
   14MOL0     H 1786   9.430   0.669   0.776  0.9078  3.3162 -0.4255
   14MOL0     H 1787   9.255   0.678   0.613 -0.3492 -0.8016  1.5148
   14MOL0     H 1788   9.310   0.521   0.552  3.9523 -1.3187  0.5903
   14MOL0     H 1789   9.488   0.628   0.431 -1.8811 -1.4835 -1.6264
   14MOL0     H 1790   9.424   0.789   0.488  0.5901  1.0625 -3.0472
   14MOL0     H 1791   9.290   0.593   0.295 -3.1393 -0.2017 -0.1455
   14MOL0     H 1792   9.199   0.735   0.357 -0.9186 -0.2385 -2.6975
   14MOL0     H 1793   9.447   0.741   0.186  1.2282  3.5108  1.6020
   14MOL0     H 1794   9.372   0.873   0.271 -1.0214  0.0890  2.7710
   14MOL0     H 1795   9.168   0.865   0.173 -1.1779 -1.8399 -0.3706
   14MOL0     H 1796   9.168   0.709   0.110  0.2641 -1.4012  2.1735
   14MOL0     H 1797   9.362   0.808  -0.042  0.5993  1.5008 -1.5132
   14MOL0     H 1798   9.183   0.804  -0.068 -0.6504 -0.4731  0.3478
   14MOL0     H 1799   9.324   1.049   0.060 -1.8860 -1.4075  1.7589
   14MOL0     H 1800   9.162   1.029   0.011  0.1740 -0.9317 -0.3464
   14MOL0     H 1801   9.286   1.281  -0.127  0.1214  1.0108 -0.6195
   14MOL0     H 1802   9.339   1.302  -0.516  0.2634  3.0787 -1.5682
   14MOL0     H 1803   9.338   1.400  -0.377  0.7178 -1.5394  0.7121
   14MOL0     H 1804   9.082   1.281  -0.521 -0.8861  1.6883  0.2096
   14MOL0     H 1805   9.143   1.440  -0.535 -1.2705 -1.9692 -3.1586
   14MOL0     H 1806   9.047   1.291  -0.288  2.0203  0.6039 -0.7448
   14MOL0     H 1807   9.090   1.460  -0.280 -0.5093  1.1807 -1.4990
   14MOL0     H 1808   8.876   1.365  -0.481  1.7226 -0.1349 -0.9983
   14MOL0     H 1809   8.905   1.524  -0.411  0.1777  0.0674 -0.2466
   14MOL0     H 1810   8.644   1.425  -0.480  1.4285  0.3884  0.1054
   14MOL0     H 1811   8.422   1.520  -0.439  2.7519 -2.8088 -1.7524
   14MOL0     H 1812   8.162   1.450   0.143 -2.4985 -2.8183 -0.0836
   14MOL0     H 1813   7.990   1.535   0.277  2.4279  0.5533  0.2817
   14MOL0     H 1814   7.684   1.736   0.076 -0.4455  0.8501 -0.4101
   14MOL0     H 1815   7.746   1.892   0.150  1.5497 -0.7165 -0.2690
   14MOL0     H 1816   7.541   1.880   0.284 -1.2196  0.0979  1.8465
   14MOL0     H 1817   7.643   1.767   0.365  1.6112  1.3500  0.0312
   14MOL0     H 1818   7.427   1.674   0.330 -0.6935 -1.2783 -0.2603
   14MOL0     H 1819   7.528   1.572   0.231 -3.2004 -0.5512 -0.0106
   14MOL0     H 1820   7.362   1.799   0.124 -0.1779  0.0230 -0.2460
   14MOL0     H 1821   7.471   1.680   0.042  1.5958  1.8435  1.1174
   14MOL0     H 1822   7.309   1.514   0.165  0.0429 -0.8064 -1.2476
   14MOL0     H 1823   7.260   1.583   0.006  0.4328  2.9058 -0.9075
   14MOL0     H 1824   7.118   1.752   0.125  0.1263 -0.2072 -0.8203
   14MOL0     H 1825   7.164   1.670   0.282 -1.4768 -2.7790  0.8042
   14MOL0     H 1826   7.018   1.506   0.070 -2.8142 -0.9421  0.7404
   14MOL0     H 1827   7.061   1.464   0.238 -1.0210  0.6295  0.6192
   14MOL0     H 1828   6.867   1.674   0.160 -0.4042 -0.5536 -0.4977
   14MOL0     H 1829   6.929   1.664   0.324  1.0634 -1.1289  0.0823
   14MOL0     H 1830   7.911   1.839  -0.007 -0.1267 -0.8906  1.4118
   14MOL0     H 1831   8.124   1.777  -0.126 -0.9099  1.5098  1.3350
   14MOL0     H 1832   8.508   1.537  -0.014 -0.2654 -0.9470  0.5824
   14MOL0     H 1833   8.738   1.453  -0.066 -0.0446  0.0318 -0.3467
   14MOL0     H 1834   9.682   0.630   0.809  1.1425  0.3303  2.3294
   14MOL0     H 1835   9.861   0.546   0.966  0.5071  0.9967 -1.4495
   14MOL0     H 1836  10.007   0.260   1.261  1.2903 -0.3855  1.9985
   14MOL0     H 1837  10.127   0.131   1.436  1.8859  1.8763 -0.0282
   14MOL0     H 1838  10.362   0.094   1.522  0.3669 -1.9471  1.3607
   14MOL0     H 1839  10.426   0.106   1.353 -0.5139 -0.4008 -0.6871
   14MOL0     H 1840  10.502  -0.112   1.552  2.3529 -1.7796  0.5349
   14MOL0     H 1841  10.552  -0.106   1.382 -1.7234 -2.3562  1.5457
   14MOL0     H 1842  10.593   0.119   1.592 -1.4589 -1.3162 -0.7845
   14MOL0     H 1843  10.661   0.103   1.426 -3.0678 -1.5765 -2.1396
   14MOL0     H 1844  10.749  -0.044   1.679  1.8772  2.2152  1.0339
   14MOL0     H 1845  10.768  -0.128   1.522  0.8712 -1.2387  1.8121
   14MOL0     H 1846  11.083   0.167   1.529 -1.1059  0.9044  0.9123
   14MOL0     H 1847  10.311  -0.103   1.139  0.0278 -1.5737  2.9157
   14MOL0     H 1848  10.155  -0.010   0.963 -1.0548 -2.5489  0.5781
   15MOL0     O 1849   0.082  10.308   5.146 -0.0356 -0.4679  0.2338
   15MOL0     C 1850  -0.029  10.353   5.175 -0.1521 -0.1763 -0.4940
   15MOL0     O 1851  -0.083  10.475   5.142  0.1680 -0.8107  0.0702
   15MOL0     C 1852   0.002  10.549   5.055  0.3627  0.5343  0.1985
   15MOL0     C 1853   0.074  10.648   5.119 -0.3615  0.6062 -0.7594
   15MOL0     C 1854   0.168  10.729   5.050 -0.2461 -0.8265 -0.1388
   15MOL0     C 1855   0.174  10.719   4.911 -0.2931 -0.1762 -0.1562
   15MOL0     O 1856   0.266  10.776   4.829 -0.5548  0.3232 -0.6025
   15MOL0     C 1857   0.395  10.809   4.883  0.2327 -0.5124  0.3580
   15MOL0     C 1858   0.486  10.685   4.868 -0.1096 -0.5263 -0.5387
   15MOL0     C 1859   0.450  10.615   4.731 -0.1432 -0.3678 -0.6994
   15MOL0     C 1860   0.553  10.503   4.706  0.2213  0.5702 -0.4048
   15MOL0     C 1861   0.684  10.546   4.642 -0.4673 -0.7738  0.7436
   15MOL0     C 1862   0.760  10.421   4.587  1.2999  0.8266 -0.5565
   15MOL0     C 1863   0.893  10.459   4.533  0.7256 -0.1536 -0.4612
   15MOL0     C 1864   0.988  10.343   4.507  0.0026  0.4885  0.7494
   15MOL0     N 1865   0.949  10.260   4.385 -0.1463  0.4328 -0.5402
   15MOL0     C 1866   0.868  10.288   4.274 -0.4309  0.1439 -0.0875
   15MOL0     C 1867   0.903  10.188   4.184 -0.1745  0.4953 -0.5325
   15MOL0     C 1868   0.855  10.178   4.038 -0.3744 -0.5156 -0.5975
   15MOL0     C 1869   0.706  10.194   4.026  0.3351 -0.4723  0.5376
   15MOL0     C 1870   0.675  10.174   3.871 -0.4786 -0.0493 -1.5022
   15MOL0     C 1871   0.533  10.174   3.828  0.6177  0.1738 -0.1606
   15MOL0     O 1872   0.445  10.087   3.913  0.3085  0.2606  0.3865
   15MOL0     C 1873   0.313  10.124   3.933  0.0144  0.5470 -0.4030
   15MOL0     C 1874   0.258  10.128   4.061 -0.4289  0.2570 -0.4446
   15MOL0     C 1875   0.128  10.177   4.072  0.0825 -0.2011 -0.4700
   15MOL0     C 1876   0.063  10.230   3.963 -0.2187  0.2549 -0.4712
   15MOL0     C 1877  -0.070  10.283   3.978  0.0227  1.2595  0.4175
   15MOL0     O 1878  -0.132  10.330   3.871  0.5556 -0.4322  0.2919
   15MOL0     C 1879  -0.259  10.384   3.899 -0.4927 -0.0567 -0.7378
   15MOL0     C 1880  -0.364  10.307   3.947  0.8985  0.5059 -0.3909
   15MOL0     C 1881  -0.496  10.357   3.959 -0.6688  0.3986 -0.3186
   15MOL0     C 1882  -0.523  10.490   3.930 -0.0063 -0.0435 -0.6484
   15MOL0     O 1883  -0.659  10.521   3.940 -0.2605  1.1377 -0.0634
   15MOL0     C 1884  -0.704  10.634   3.864  0.8001  0.7206 -0.1649
   15MOL0     C 1885  -0.838  10.604   3.783  0.6584 -0.5766 -0.2219
   15MOL0     C 1886  -0.852  10.468   3.721 -0.7037 -0.2726  0.1120
   15MOL0     C 1887  -0.743  10.446   3.614 -0.3658 -0.4026 -0.1811
   15MOL0     C 1888  -0.719  10.314   3.552  0.2379 -0.1200 -1.0297
   15MOL0     C 1889  -0.649  10.204   3.631 -0.0883  0.5688  0.2114
   15MOL0     C 1890  -0.500  10.219   3.635 -1.0254  0.5127  0.0214
   15MOL0     C 1891  -0.439  10.087   3.697 -0.0682 -0.3539 -0.3068
   15MOL0    Cl 1892  -0.259  10.124   3.676  0.3047  0.5599  0.0578
   15MOL0     C 1893  -0.413  10.571   3.884  0.1470  0.2979  0.2995
   15MOL0     C 1894  -0.286  10.510   3.860  0.6202  0.2807  0.9355
   15MOL0     O 1895  -0.112  10.280   4.089  0.0488  0.5255  0.4070
   15MOL0     C 1896   0.122  10.229   3.832 -0.3957 -0.7264 -0.7995
   15MOL0     C 1897   0.243  10.170   3.821 -0.2233  0.6572 -0.4892
   15MOL0     N 1898   1.000  10.110   4.235 -0.5780 -0.7165  0.0582
   15MOL0     N 1899   1.030  10.153   4.356  0.1340  0.0691  0.4520
   15MOL0     C 1900   0.080  10.636   4.845 -0.4332  0.4287  0.5295
   15MOL0     C 1901   0.001  10.545   4.916 -0.9268 -0.1034 -0.3729
   15MOL0     C 1902  -0.119  10.267   5.256  0.1581  0.9702 -0.4297
   15MOL0     C 1903  -0.213  10.316   5.338  0.2213 -0.2921 -0.0076
   15MOL0     C 1904  -0.268  10.235   5.432  0.0886 -0.0415  0.4588
   15MOL0     C 1905  -0.233  10.098   5.446 -0.0070  0.0534  0.4268
   15MOL0     O 1906  -0.267  10.011   5.550 -0.1620  0.3161  1.1093
   15MOL0     C 1907  -0.390  10.017   5.612  0.2819 -0.3621 -0.1180
   15MOL0     C 1908  -0.401   9.879   5.675  0.1868  0.5027 -0.1011
   15MOL0     C 1909  -0.548   9.855   5.731  0.4853 -0.9970  0.2295
   15MOL0     C 1910  -0.554   9.782   5.863  0.4360 -0.9552  0.4496
   15MOL0     C 1911  -0.505   9.641   5.849 -0.6857 -0.0998 -0.3575
   15MOL0     C 1912  -0.477   9.525   5.857  0.0056  0.1455  0.0529
   15MOL0     C 1913  -0.145  10.051   5.356  0.1697 -0.1757 -0.1828
   15MOL0     C 1914  -0.086  10.130   5.264  0.6593  0.3746  0.1531
   15MOL0     H 1915   0.062  10.655   5.226 -0.7933 -0.9029 -0.6990
   15MOL0     H 1916   0.240  10.790   5.104  1.1118 -2.5075  0.0116
   15MOL0     H 1917   0.409  10.836   4.988  2.8178 -1.4067  0.3284
   15MOL0     H 1918   0.426  10.891   4.817  1.2217  0.1417  1.5868
   15MOL0     H 1919   0.447  10.621   4.948 -1.4297  1.0116  0.1197
   15MOL0     H 1920   0.594  10.697   4.881 -0.1813  0.3345 -0.7274
   15MOL0     H 1921   0.449  10.692   4.654  0.1642  0.6445  0.2900
   15MOL0     H 1922   0.354  10.564   4.743 -0.0488 -0.3008  0.4171
   15MOL0     H 1923   0.563  10.449   4.800  0.1090 -0.0873 -0.7641
   15MOL0     H 1924   0.510  10.439   4.628 -0.8250  2.5356 -1.5277
   15MOL0     H 1925   0.747  10.606   4.708  2.2402  0.4593 -2.6306
   15MOL0     H 1926   0.647  10.613   4.563 -0.1737  0.4713  1.6434
   15MOL0     H 1927   0.695  10.395   4.502  0.4444  1.5157 -0.1279
   15MOL0     H 1928   0.766  10.341   4.662  3.5203 -0.9785 -2.4657
   15MOL0     H 1929   0.875  10.517   4.442 -1.3656  0.0611  0.0352
   15MOL0     H 1930   0.940  10.515   4.614 -2.3318  0.3417  1.1244
   15MOL0     H 1931   1.004  10.282   4.597 -1.4016 -2.2841 -0.7710
   15MOL0     H 1932   1.085  10.387   4.484  0.9195 -0.1030  3.1439
   15MOL0     H 1933   0.799  10.370   4.255 -2.0121 -0.7118  1.6838
   15MOL0     H 1934   0.880  10.079   3.998 -0.5079 -1.2435  1.0189
   15MOL0     H 1935   0.914  10.253   3.984  1.8671 -3.4033 -2.4949
   15MOL0     H 1936   0.681  10.297   4.051  1.4179  0.0105 -0.2622
   15MOL0     H 1937   0.643  10.129   4.087 -2.2697  1.2260 -0.1573
   15MOL0     H 1938   0.723  10.247   3.806  1.0688  1.7674  1.4393
   15MOL0     H 1939   0.718  10.078   3.841  1.9572  0.9075 -1.2684
   15MOL0     H 1940   0.521  10.126   3.731  0.4736 -2.4137  1.0377
   15MOL0     H 1941   0.483  10.270   3.837 -0.3931 -0.3780  0.2306
   15MOL0     H 1942   0.304  10.098   4.154 -2.1809  2.1684  1.1285
   15MOL0     H 1943   0.090  10.189   4.173  1.7693  0.1489  0.1609
   15MOL0     H 1944  -0.347  10.203   3.976  0.7412  0.4304 -0.5685
   15MOL0     H 1945  -0.569  10.281   3.987  0.4999 -0.4365  0.5745
   15MOL0     H 1946  -0.623  10.673   3.802  2.5265 -0.1983  1.4055
   15MOL0     H 1947  -0.724  10.722   3.925 -3.1454 -0.4276  0.4785
   15MOL0     H 1948  -0.859  10.692   3.722 -0.3988  1.1778  2.4461
   15MOL0     H 1949  -0.913  10.610   3.863  0.7797 -3.5851  0.2486
   15MOL0     H 1950  -0.949  10.454   3.672  0.2139  0.3100 -1.9731
   15MOL0     H 1951  -0.838  10.393   3.800 -0.1000  0.7620  1.0150
   15MOL0     H 1952  -0.763  10.515   3.532  1.9270  0.7802  0.1690
   15MOL0     H 1953  -0.642  10.469   3.650 -0.2244  1.7817 -1.8057
   15MOL0     H 1954  -0.659  10.326   3.461 -0.3651 -2.5152 -1.8061
   15MOL0     H 1955  -0.819  10.275   3.528 -1.0389  2.9027 -1.0703
   15MOL0     H 1956  -0.675  10.107   3.587  0.0569  0.9941 -0.8347
   15MOL0     H 1957  -0.676  10.202   3.738  1.0503  0.4855  0.5042
   15MOL0     H 1958  -0.457  10.239   3.537  1.6526  0.2278  1.0444
   15MOL0     H 1959  -0.468  10.303   3.698  1.0652 -0.3096  0.1515
   15MOL0     H 1960  -0.455   9.999   3.635  2.5069  1.3125 -3.7245
   15MOL0     H 1961  -0.465  10.070   3.802  2.1486  1.1771  0.5793
   15MOL0     H 1962  -0.433  10.677   3.868  1.0569  0.7581  2.0009
   15MOL0     H 1963  -0.209  10.580   3.829  2.0658 -0.8966  1.7704
   15MOL0     H 1964   0.076  10.264   3.741 -2.1522 -1.1063 -0.1033
   15MOL0     H 1965   0.282  10.174   3.720  2.2135 -0.1683  0.3555
   15MOL0     H 1966   0.079  10.642   4.737  0.4585 -1.0270  0.4111
   15MOL0     H 1967  -0.073  10.476   4.876 -1.3241  1.0194 -1.6323
   15MOL0     H 1968  -0.240  10.421   5.334 -0.4295 -0.4903 -2.7435
   15MOL0     H 1969  -0.341  10.279   5.500 -2.3196 -0.2689 -1.7970
   15MOL0     H 1970  -0.470  10.053   5.546  1.7355  1.6860 -0.8503
   15MOL0     H 1971  -0.374  10.096   5.686 -4.0100  0.3900  0.2912
   15MOL0     H 1972  -0.368   9.798   5.609  0.2354  1.0362 -0.7437
   15MOL0     H 1973  -0.341   9.879   5.767  3.3539 -1.5901 -1.9822
   15MOL0     H 1974  -0.601   9.792   5.658  1.2795 -0.4758 -0.8035
   15MOL0     H 1975  -0.595   9.954   5.733 -2.2956 -2.1816 -0.5721
   15MOL0     H 1976  -0.495   9.834   5.940 -0.8509  0.8472  0.2975
   15MOL0     H 1977  -0.655   9.779   5.905  0.2005 -0.5013 -0.0805
   15MOL0     H 1978  -0.467   9.419   5.844 -1.9439 -0.0384 -0.2511
   15MOL0     H 1979  -0.108   9.950   5.373  1.7960  0.5849  1.1082
   15MOL0     H 1980  -0.009  10.082   5.203 -0.0631 -0.6716  0.0371
   16MOL0     O 1981  10.514  10.413   0.276  0.4069 -0.3478  0.5967
   16MOL0     C 1982  10.578  10.389   0.170 -1.2699 -0.3606 -0.4110
   16MOL0     O 1983  10.530  10.341   0.053 -0.0122  0.0372 -0.1491
   16MOL0     C 1984  10.407  10.283   0.045 -0.5150 -0.2869  0.0544
   16MOL0     C 1985  10.366  10.263  -0.087 -0.1299  0.3775  0.0227
   16MOL0     C 1986  10.244  10.196  -0.109 -0.1246  0.2261  0.3518
   16MOL0     C 1987  10.159  10.163  -0.005  0.9898 -0.1669 -0.0283
   16MOL0     O 1988  10.027  10.119  -0.007  0.2594  0.2192  0.0079
   16MOL0     C 1989   9.975  10.100  -0.139 -0.1335 -0.8310  0.0756
   16MOL0     C 1990   9.846  10.023  -0.133 -0.2574 -0.3657 -1.3709
   16MOL0     C 1991   9.772  10.011  -0.266  0.3859 -0.1408 -0.1507
   16MOL0     C 1992   9.649   9.923  -0.246 -0.1768 -0.8879  0.4715
   16MOL0     C 1993   9.567   9.917  -0.374  0.2667 -0.5871  0.3269
   16MOL0     C 1994   9.468  10.034  -0.366  0.1557  0.6152 -0.5322
   16MOL0     C 1995   9.364  10.028  -0.484  0.0048 -0.3797  0.0229
   16MOL0     C 1996   9.446  10.082  -0.609  0.0614  0.0935 -0.9148
   16MOL0     N 1997   9.361  10.069  -0.727  0.2522 -0.9215  0.1238
   16MOL0     C 1998   9.265  10.164  -0.758 -0.3375 -0.1286 -1.1783
   16MOL0     C 1999   9.217  10.123  -0.874  0.1151 -0.5879  0.8850
   16MOL0     C 2000   9.102  10.186  -0.949  0.5349  0.3996  0.3567
   16MOL0     C 2001   8.966  10.132  -0.903  0.6056  0.7250  0.7995
   16MOL0     C 2002   8.937  10.005  -0.982 -0.3892  0.2120  0.5170
   16MOL0     C 2003   8.798   9.947  -0.959  0.0397  0.9194 -0.6361
   16MOL0     O 2004   8.694  10.018  -1.014  0.9897 -0.0704  0.8875
   16MOL0     C 2005   8.597   9.963  -1.097 -0.3279  0.9930  0.0777
   16MOL0     C 2006   8.525  10.062  -1.159  0.0773  0.5444 -1.0104
   16MOL0     C 2007   8.415  10.029  -1.237  0.3775  0.1649  0.0630
   16MOL0     C 2008   8.377   9.891  -1.259 -0.2113 -0.6416  0.1777
   16MOL0     C 2009   8.261   9.853  -1.331  0.3563  0.8482  0.6162
   16MOL0     O 2010   8.193   9.954  -1.393 -0.4215 -0.2831  0.3471
   16MOL0     C 2011   8.098   9.918  -1.486  0.5709 -1.2604  0.1682
   16MOL0     C 2012   7.969   9.881  -1.445 -0.3022  0.5281  0.0801
   16MOL0     C 2013   7.872   9.851  -1.542  1.1273 -0.7352  0.9510
   16MOL0     C 2014   7.902   9.862  -1.679 -0.2019 -0.0846 -0.4583
   16MOL0     O 2015   7.801   9.842  -1.773 -0.4222 -0.0045 -0.3182
   16MOL0     C 2016   7.758   9.967  -1.822 -0.6771 -0.3072  0.2515
   16MOL0     C 2017   7.660   9.961  -1.940 -1.0184  0.0575  0.4472
   16MOL0     C 2018   7.542   9.875  -1.944  0.1690  0.3782  0.7477
   16MOL0     C 2019   7.434   9.934  -1.843  0.7310  0.9128  0.1586
   16MOL0     C 2020   7.306   9.846  -1.838 -1.1194 -0.1350  0.1348
   16MOL0     C 2021   7.181   9.932  -1.801 -0.4900 -0.1896 -0.5767
   16MOL0     C 2022   7.043   9.870  -1.797 -0.4041 -0.3937 -0.2304
   16MOL0     C 2023   7.036   9.747  -1.704  0.1407  0.2272  0.1766
   16MOL0    Cl 2024   6.867   9.694  -1.702 -0.2135  0.1542  0.0406
   16MOL0     C 2025   8.026   9.893  -1.728  0.3811  0.7492 -0.4128
   16MOL0     C 2026   8.126   9.925  -1.626 -0.0334 -0.1019 -0.3476
   16MOL0     O 2027   8.232   9.737  -1.347  0.4189  0.4261  0.6517
   16MOL0     C 2028   8.452   9.789  -1.203 -0.7742  0.0701  0.2201
   16MOL0     C 2029   8.564   9.824  -1.124  0.3814 -0.0981 -0.1134
   16MOL0     N 2030   9.275  10.003  -0.913 -0.7179 -0.6676 -0.2731
   16MOL0     N 2031   9.363   9.975  -0.827  0.2022  0.5770  0.4611
   16MOL0     C 2032  10.203  10.184   0.115  0.4452  0.6660  0.0957
   16MOL0     C 2033  10.328  10.233   0.146  0.1795 -0.2157 -0.3476
   16MOL0     C 2034  10.721  10.439   0.167  0.0099  0.6886 -0.2210
   16MOL0     C 2035  10.760  10.521   0.270 -0.2990 -0.5492 -0.0662
   16MOL0     C 2036  10.890  10.573   0.264  0.7428 -0.0040 -0.9668
   16MOL0     C 2037  10.974  10.549   0.164 -0.3919 -0.0857 -0.0544
   16MOL0     O 2038  11.091  10.609   0.165  0.1080 -0.1376 -0.1064
   16MOL0     C 2039  11.176  10.604   0.047 -0.2924  0.1625 -0.5121
   16MOL0     C 2040  11.313  10.660   0.084  0.6649 -0.2380 -0.0552
   16MOL0     C 2041  11.404  10.572   0.167  0.2424  0.0053 -0.0439
   16MOL0     C 2042  11.543  10.634   0.158  0.5833 -0.1129 -0.6543
   16MOL0     C 2043  11.633  10.575   0.257  0.3590 -0.0723 -0.1996
   16MOL0     C 2044  11.711  10.516   0.320  0.0997 -0.3585  0.1730
   16MOL0     C 2045  10.933  10.467   0.056 -0.0838  0.0410  0.1515
   16MOL0     C 2046  10.807  10.411   0.062 -0.0503 -0.1237 -0.4025
   16MOL0     H 2047  10.435  10.291  -0.166  0.3314  0.0223  0.2957
   16MOL0     H 2048  10.223  10.177  -0.213 -2.4522 -1.6940  1.0588
   16MOL0     H 2049  10.047  10.041  -0.197 -0.2498  3.5007 -5.2746
   16MOL0     H 2050   9.958  10.200  -0.180  0.5796 -0.3256  0.9730
   16MOL0     H 2051   9.782  10.064  -0.054 -0.2949 -0.9894 -1.0669
   16MOL0     H 2052   9.862   9.923  -0.091  0.0551  0.8691  1.7380
   16MOL0     H 2053   9.838   9.984  -0.349 -0.4931  0.4660 -1.0860
   16MOL0     H 2054   9.723  10.101  -0.306 -3.2388 -1.2552  1.4176
   16MOL0     H 2055   9.684   9.821  -0.228 -1.5657 -1.4253  0.2088
   16MOL0     H 2056   9.584   9.954  -0.164 -0.7531 -0.2741 -0.2056
   16MOL0     H 2057   9.511   9.823  -0.372 -1.5626  0.3103 -2.6145
   16MOL0     H 2058   9.630   9.934  -0.462 -1.1402  3.7183 -0.0950
   16MOL0     H 2059   9.513  10.133  -0.355 -2.1731  1.4425  3.1281
   16MOL0     H 2060   9.400  10.023  -0.281  1.2845 -1.1486  0.2011
   16MOL0     H 2061   9.322   9.928  -0.500  0.2403 -0.6495  1.0223
   16MOL0     H 2062   9.281  10.099  -0.475  1.2973  1.1216  0.6037
   16MOL0     H 2063   9.534  10.018  -0.622 -0.6521 -1.2067  0.2549
   16MOL0     H 2064   9.457  10.189  -0.592 -0.1572  0.0360 -0.3754
   16MOL0     H 2065   9.238  10.247  -0.694  1.6797  0.3418 -0.8609
   16MOL0     H 2066   9.117  10.163  -1.055 -3.4141  2.1989 -0.7600
   16MOL0     H 2067   9.106  10.294  -0.937 -1.5786  0.9760 -2.9010
   16MOL0     H 2068   8.893  10.208  -0.930  1.6238  2.2529  2.1500
   16MOL0     H 2069   8.961  10.125  -0.794 -5.3142 -1.2397  0.7362
   16MOL0     H 2070   8.934  10.041  -1.086  0.9406  1.4764  0.8850
   16MOL0     H 2071   9.015   9.934  -0.952 -0.6566  0.3410  1.5613
   16MOL0     H 2072   8.780   9.919  -0.854  4.6671  0.3794  0.2439
   16MOL0     H 2073   8.794   9.844  -0.996 -4.0140  0.6827 -0.0415
   16MOL0     H 2074   8.551  10.163  -1.129 -0.8055 -0.0279  2.0835
   16MOL0     H 2075   8.363  10.113  -1.282  0.7932  1.6533  2.2135
   16MOL0     H 2076   7.956   9.864  -1.339 -1.9641  1.7502  0.1031
   16MOL0     H 2077   7.781   9.806  -1.505 -0.2877  1.0343 -0.2433
   16MOL0     H 2078   7.839  10.031  -1.857 -0.8456  1.1381  2.3625
   16MOL0     H 2079   7.709  10.011  -1.735 -1.1665 -0.3883  0.0235
   16MOL0     H 2080   7.721   9.939  -2.028  0.2032  1.2439  0.9493
   16MOL0     H 2081   7.624  10.064  -1.950  1.0473  0.9346  1.3552
   16MOL0     H 2082   7.578   9.776  -1.914  3.9120  2.2190  3.0921
   16MOL0     H 2083   7.508   9.878  -2.047  2.8155  2.7513 -0.1976
   16MOL0     H 2084   7.475   9.929  -1.741  2.3412  1.3535 -0.4255
   16MOL0     H 2085   7.402  10.033  -1.877  0.1657  0.4432 -0.7040
   16MOL0     H 2086   7.323   9.769  -1.762  0.9659  2.0857  2.0858
   16MOL0     H 2087   7.279   9.796  -1.931 -1.4455  2.8516 -1.5118
   16MOL0     H 2088   7.181  10.022  -1.862  0.6588 -0.1032 -0.4671
   16MOL0     H 2089   7.191   9.966  -1.697 -0.7013 -0.9378 -0.3003
   16MOL0     H 2090   6.971   9.952  -1.795  1.0722  1.1574 -3.5423
   16MOL0     H 2091   7.016   9.831  -1.895 -2.3026  0.3988 -0.0651
   16MOL0     H 2092   7.066   9.788  -1.607 -0.1915  0.2678  0.2614
   16MOL0     H 2093   7.110   9.672  -1.735 -1.5030 -1.6438  0.6032
   16MOL0     H 2094   8.054   9.886  -1.832 -2.0444 -1.5094 -1.0231
   16MOL0     H 2095   8.229   9.945  -1.652  1.3671 -2.5937  2.5329
   16MOL0     H 2096   8.422   9.686  -1.218 -2.8640  0.6514 -0.0046
   16MOL0     H 2097   8.617   9.738  -1.083  2.6145  0.8955 -0.7322
   16MOL0     H 2098  10.141  10.157   0.200  0.0287  0.5004 -0.2623
   16MOL0     H 2099  10.366  10.245   0.247  2.6965 -0.3935 -1.2115
   16MOL0     H 2100  10.705  10.544   0.361  0.5653 -1.8633  0.8357
   16MOL0     H 2101  10.921  10.646   0.339  1.0559 -1.6333  0.5650
   16MOL0     H 2102  11.145  10.658  -0.043  3.5942  2.1715 -0.8507
   16MOL0     H 2103  11.183  10.499   0.017 -0.3710  0.1357 -0.4365
   16MOL0     H 2104  11.358  10.689  -0.011  0.0680 -0.1487 -0.3147
   16MOL0     H 2105  11.298  10.756   0.134 -1.8386  0.0539 -1.2325
   16MOL0     H 2106  11.420  10.473   0.125  1.8909  0.5541 -0.7812
   16MOL0     H 2107  11.370  10.584   0.271  3.6433  4.1529  0.9064
   16MOL0     H 2108  11.579  10.606   0.059 -0.8669 -2.7345 -0.5333
   16MOL0     H 2109  11.537  10.741   0.181 -3.0003 -0.2664 -0.3285
   16MOL0     H 2110  11.790  10.473   0.378 -0.2171 -0.2496  0.6945
   16MOL0     H 2111  10.989  10.454  -0.036  0.1719 -1.0263  0.4421
   16MOL0     H 2112  10.767  10.351  -0.019 -0.4942 -3.6444  2.1564
   17MOL0     O 2113  10.673  10.670   7.598 -0.7290 -0.1316 -0.0718
   17MOL0     C 2114  10.783  10.648   7.649  0.6736  0.3631  0.3815
   17MOL0     O 2115  10.803  10.623   7.790  0.2745  0.1231 -0.1758
   17MOL0     C 2116  10.703  10.630   7.877 -0.6460 -0.3925 -0.5232
   17MOL0     C 2117  10.745  10.676   8.001 -0.0187  0.4576  0.5818
   17MOL0     C 2118  10.662  10.691   8.113  1.1570 -0.8424 -0.4143
   17MOL0     C 2119  10.527  10.675   8.106 -1.0779 -0.0824  0.3615
   17MOL0     O 2120  10.456  10.681   8.229  0.4802 -0.6234  0.2847
   17MOL0     C 2121  10.312  10.657   8.219  0.4671  0.1805 -0.2425
   17MOL0     C 2122  10.282  10.538   8.308  0.0904  0.1286  0.3473
   17MOL0     C 2123  10.129  10.529   8.348  0.1444 -0.2207 -0.3785
   17MOL0     C 2124  10.113  10.460   8.484  0.0308  0.3416 -0.4003
   17MOL0     C 2125  10.032  10.336   8.481  0.8876  0.1830  0.6740
   17MOL0     C 2126  10.108  10.217   8.424 -0.6120 -0.1311 -1.3139
   17MOL0     C 2127  10.233  10.171   8.514  0.7595  0.2161  0.5486
   17MOL0     C 2128  10.199  10.087   8.639 -0.7699  0.9230  0.0612
   17MOL0     N 2129  10.108   9.973   8.616  0.3575  0.0934  0.0379
   17MOL0     C 2130  10.112   9.885   8.518  0.2128 -0.1545  0.4182
   17MOL0     C 2131  10.031   9.784   8.557  0.7546  0.5381 -0.5217
   17MOL0     C 2132   9.989   9.666   8.484  0.4407 -0.4026 -0.5258
   17MOL0     C 2133   9.855   9.690   8.418 -0.4917  0.0163 -0.5173
   17MOL0     C 2134   9.854   9.609   8.287 -0.2864  0.4974 -0.1999
   17MOL0     C 2135   9.731   9.639   8.217 -0.0765 -1.1802 -0.4246
   17MOL0     O 2136   9.715   9.590   8.084  0.2323 -0.0795  0.0189
   17MOL0     C 2137   9.608   9.498   8.055 -0.1464  0.6567  0.5953
   17MOL0     C 2138   9.554   9.398   8.144  0.1333  0.2604  0.5866
   17MOL0     C 2139   9.449   9.316   8.108  0.6626 -0.1234  0.3457
   17MOL0     C 2140   9.402   9.311   7.982 -0.3505 -0.4446 -0.3334
   17MOL0     C 2141   9.299   9.209   7.942  0.5415 -0.5858  0.0394
   17MOL0     O 2142   9.231   9.244   7.830 -0.3515  0.4196 -0.1848
   17MOL0     C 2143   9.127   9.165   7.777  0.0704  0.4773  0.0876
   17MOL0     C 2144   9.022   9.109   7.856 -0.4701 -0.2184 -0.5232
   17MOL0     C 2145   8.912   9.035   7.799  0.5652 -0.3819  0.8538
   17MOL0     C 2146   8.914   9.016   7.660 -0.8428  0.4528  0.2427
   17MOL0     O 2147   8.804   8.956   7.611 -0.1538  0.2423 -0.1929
   17MOL0     C 2148   8.820   8.879   7.485  0.6529 -0.0989 -0.6482
   17MOL0     C 2149   8.687   8.821   7.423 -0.2157 -0.8410 -0.1630
   17MOL0     C 2150   8.588   8.933   7.413 -0.0950 -0.2503 -1.0716
   17MOL0     C 2151   8.459   8.897   7.332  0.4589  0.0990  0.1702
   17MOL0     C 2152   8.336   8.988   7.329  1.1428  0.0373 -0.6066
   17MOL0     C 2153   8.225   8.950   7.223 -0.5967  0.3307  0.4254
   17MOL0     C 2154   8.146   8.821   7.259  0.7069 -0.2512 -0.3257
   17MOL0     C 2155   8.007   8.815   7.194 -0.5417 -0.2566 -0.1223
   17MOL0    Cl 2156   7.963   8.654   7.139 -0.1333  0.1445 -0.1288
   17MOL0     C 2157   9.013   9.077   7.582  1.0486  0.0158 -0.2648
   17MOL0     C 2158   9.115   9.155   7.634  0.5821  0.0287 -0.3241
   17MOL0     O 2159   9.276   9.104   8.004 -0.7059  0.2340 -0.8983
   17MOL0     C 2160   9.460   9.402   7.895  0.1162  0.1238 -0.5321
   17MOL0     C 2161   9.565   9.490   7.926 -0.1308  0.3519 -0.2745
   17MOL0     N 2162   9.973   9.818   8.685 -0.5335  0.4848 -0.1640
   17MOL0     N 2163  10.035   9.930   8.714  0.2829  0.2458 -0.5694
   17MOL0     C 2164  10.476  10.635   7.971 -0.3324  0.4941  0.1018
   17MOL0     C 2165  10.565  10.610   7.861 -0.6087  0.3598  0.5629
   17MOL0     C 2166  10.900  10.637   7.557  0.2749  0.4131 -0.6574
   17MOL0     C 2167  11.022  10.583   7.601  0.3262 -1.0494 -0.0230
   17MOL0     C 2168  11.126  10.580   7.507 -0.1527 -0.5674 -0.1822
   17MOL0     C 2169  11.113  10.640   7.381 -0.2760 -0.2818 -0.0705
   17MOL0     O 2170  11.225  10.652   7.298 -0.3151  0.7773  0.0911
   17MOL0     C 2171  11.356  10.649   7.340  0.1054 -1.0658  1.0767
   17MOL0     C 2172  11.442  10.701   7.235 -0.7452 -0.3987  0.1442
   17MOL0     C 2173  11.475  10.599   7.124  0.0563 -0.2030  0.9191
   17MOL0     C 2174  11.565  10.654   7.022 -0.0975  0.4902  0.6025
   17MOL0     C 2175  11.625  10.541   6.948 -0.4370  0.0870 -0.5105
   17MOL0     C 2176  11.671  10.455   6.879 -0.0124  0.0191  0.8649
   17MOL0     C 2177  10.990  10.696   7.344 -1.2762 -0.6885  0.2466
   17MOL0     C 2178  10.881  10.692   7.428  0.1295 -0.5800 -1.4221
   17MOL0     H 2179  10.851  10.690   8.017 -0.1379 -0.3240  2.3166
   17MOL0     H 2180  10.702  10.729   8.206  0.6824  0.4886 -0.7271
   17MOL0     H 2181  10.268  10.655   8.119 -0.0380  5.2198 -0.3796
   17MOL0     H 2182  10.273  10.743   8.274  0.3076  0.8903 -1.4504
   17MOL0     H 2183  10.351  10.535   8.393  1.1686  1.6564 -0.4226
   17MOL0     H 2184  10.297  10.440   8.261  2.9010  0.4390  0.4506
   17MOL0     H 2185  10.096  10.467   8.265  1.4891 -1.0840 -0.3001
   17MOL0     H 2186  10.081  10.627   8.338 -0.3592 -0.7072 -3.8711
   17MOL0     H 2187  10.205  10.447   8.541 -0.5399 -2.0020  0.1045
   17MOL0     H 2188  10.051  10.529   8.542 -0.9571 -1.7159  1.1077
   17MOL0     H 2189   9.944  10.352   8.418 -2.7623 -0.2644  5.1002
   17MOL0     H 2190   9.992  10.311   8.580 -1.3991  0.4779 -0.1139
   17MOL0     H 2191  10.130  10.226   8.317 -2.4914  1.9855 -1.6049
   17MOL0     H 2192  10.036  10.134   8.421  1.7676 -2.6836  2.7036
   17MOL0     H 2193  10.288  10.101   8.450 -3.3417 -3.1491  0.2650
   17MOL0     H 2194  10.297  10.252   8.551 -2.1479  3.7779 -1.5702
   17MOL0     H 2195  10.167  10.152   8.720 -0.4033 -2.9349  3.6201
   17MOL0     H 2196  10.299  10.049   8.663  1.3668  2.4500 -4.9156
   17MOL0     H 2197  10.179   9.889   8.432 -1.1140 -2.6001 -0.8175
   17MOL0     H 2198   9.990   9.572   8.540 -1.8927  0.5351  1.2416
   17MOL0     H 2199  10.054   9.645   8.398 -1.3499 -0.7702 -1.8594
   17MOL0     H 2200   9.848   9.796   8.394 -2.2440 -0.5300 -2.8219
   17MOL0     H 2201   9.771   9.660   8.481 -1.8114  1.9128 -1.2842
   17MOL0     H 2202   9.933   9.636   8.216  0.1979 -1.0831 -0.2834
   17MOL0     H 2203   9.840   9.504   8.314 -3.0717  1.4068  2.5693
   17MOL0     H 2204   9.719   9.748   8.219  0.5299 -1.1123  1.0050
   17MOL0     H 2205   9.648   9.601   8.278  0.6705 -1.5503  0.3858
   17MOL0     H 2206   9.585   9.404   8.248  1.5702  1.5607  0.1221
   17MOL0     H 2207   9.415   9.243   8.181  0.5750  0.3866  0.8249
   17MOL0     H 2208   9.020   9.112   7.964  1.1886 -4.9891 -0.1568
   17MOL0     H 2209   8.840   9.003   7.873  0.3326  1.3225  1.3950
   17MOL0     H 2210   8.880   8.791   7.508  0.1635 -0.3889 -0.4674
   17MOL0     H 2211   8.871   8.932   7.404  0.6966 -2.2451 -2.1066
   17MOL0     H 2212   8.657   8.744   7.494  2.7466 -0.5761  1.5104
   17MOL0     H 2213   8.707   8.771   7.327  0.5041  0.9041 -0.9577
   17MOL0     H 2214   8.635   9.016   7.361 -4.1983  1.6120 -2.2534
   17MOL0     H 2215   8.567   8.957   7.517 -0.0295 -3.2665 -0.2573
   17MOL0     H 2216   8.494   8.880   7.229  0.4957 -0.9375  0.3470
   17MOL0     H 2217   8.426   8.801   7.371  1.4447 -0.9969 -1.5722
   17MOL0     H 2218   8.365   9.092   7.310 -3.4251  1.2969 -2.1437
   17MOL0     H 2219   8.298   8.987   7.432  2.7609  0.8446  0.0466
   17MOL0     H 2220   8.273   8.959   7.125 -1.2872 -1.5568 -0.1323
   17MOL0     H 2221   8.151   9.029   7.235 -0.8823  0.0094  0.8741
   17MOL0     H 2222   8.210   8.744   7.216  0.1937 -1.7714  1.5257
   17MOL0     H 2223   8.133   8.823   7.367 -0.8128 -0.6483 -0.4661
   17MOL0     H 2224   8.009   8.875   7.103 -0.9969 -1.1058 -0.7084
   17MOL0     H 2225   7.927   8.863   7.252  1.9212  4.9193 -0.4848
   17MOL0     H 2226   9.008   9.079   7.474 -2.5286 -2.0253 -0.3062
   17MOL0     H 2227   9.163   9.217   7.559  0.9952 -0.8481 -0.7963
   17MOL0     H 2228   9.430   9.395   7.791  0.4583 -1.4487 -0.5496
   17MOL0     H 2229   9.602   9.557   7.849 -3.6233  0.4424 -2.1114
   17MOL0     H 2230  10.373  10.610   7.948  0.0940 -0.9804 -0.2831
   17MOL0     H 2231  10.525  10.577   7.765  1.3844 -2.8039  0.6891
   17MOL0     H 2232  11.038  10.547   7.702 -0.8201  0.7419  0.8510
   17MOL0     H 2233  11.217  10.531   7.541  2.0188  2.6268 -0.9094
   17MOL0     H 2234  11.384  10.550   7.377 -0.2049 -1.0940  1.2475
   17MOL0     H 2235  11.377  10.716   7.425  1.1527  1.7888 -1.2662
   17MOL0     H 2236  11.413  10.802   7.204  1.1584 -0.2158 -1.2350
   17MOL0     H 2237  11.540  10.708   7.284  0.5383  0.4542 -2.3966
   17MOL0     H 2238  11.379  10.566   7.083 -0.2827  0.3803  1.2100
   17MOL0     H 2239  11.535  10.520   7.170 -0.8246 -2.0965 -0.9997
   17MOL0     H 2240  11.516  10.724   6.953  0.1967  0.4516  0.3551
   17MOL0     H 2241  11.652  10.708   7.060  1.6779 -1.4498 -0.5101
   17MOL0     H 2242  11.707  10.370   6.825  1.4268  0.5126  0.9992
   17MOL0     H 2243  10.990  10.729   7.241 -3.1914  0.3962  0.5602
   17MOL0     H 2244  10.784  10.721   7.392 -0.0851 -2.6732 -2.6994
   18MOL0     O 2245   0.775   3.978  10.843  0.0976  0.0245  0.9297
   18MOL0     C 2246   0.869   4.048  10.820 -0.4052 -0.3212 -0.2735
   18MOL0     O 2247   0.872   4.186  10.808 -0.0049  0.4724  0.4180
   18MOL0     C 2248   0.757   4.255  10.836  0.0909  0.1735  0.2442
   18MOL0     C 2249   0.621   4.223  10.801 -0.4033 -0.4642  0.2452
   18MOL0     C 2250   0.515   4.315  10.838  0.0882 -0.1529  0.5673
   18MOL0     C 2251   0.553   4.430  10.911 -0.2186 -0.6431 -0.0823
   18MOL0     O 2252   0.455   4.517  10.946  0.3691 -0.3042  0.4129
   18MOL0     C 2253   0.441   4.619  10.841  1.2606  0.0684 -0.3160
   18MOL0     C 2254   0.302   4.684  10.858  0.3353  0.2505 -0.2096
   18MOL0     C 2255   0.189   4.611  10.795  0.2318  0.0257 -0.4681
   18MOL0     C 2256   0.058   4.678  10.812 -1.2954  0.1572  0.1825
   18MOL0     C 2257  -0.057   4.602  10.738  1.0816 -0.4812 -0.0530
   18MOL0     C 2258  -0.185   4.691  10.773 -0.3775 -0.4019 -0.0729
   18MOL0     C 2259  -0.307   4.670  10.695  0.3250 -0.3816 -0.1973
   18MOL0     C 2260  -0.383   4.808  10.672 -0.6176 -0.0013 -1.2130
   18MOL0     N 2261  -0.513   4.804  10.597 -0.7896 -0.0205 -0.1452
   18MOL0     C 2262  -0.637   4.792  10.640  0.6096  0.2661 -0.6517
   18MOL0     C 2263  -0.709   4.779  10.525  0.6247 -0.2507 -0.5084
   18MOL0     C 2264  -0.856   4.748  10.523 -0.9215  0.1315  0.2586
   18MOL0     C 2265  -0.889   4.661  10.409  0.2244 -0.2818  0.4620
   18MOL0     C 2266  -0.824   4.529  10.405 -0.4762  0.7905 -1.1037
   18MOL0     C 2267  -0.857   4.437  10.289 -0.2766 -0.4456 -0.2579
   18MOL0     O 2268  -0.997   4.431  10.277  0.6347  0.6019  0.8174
   18MOL0     C 2269  -1.058   4.334  10.202 -0.0328 -0.0793 -0.4134
   18MOL0     C 2270  -1.184   4.291  10.251 -0.2742 -0.0043 -0.3764
   18MOL0     C 2271  -1.256   4.191  10.186 -0.7837  0.1922 -0.7507
   18MOL0     C 2272  -1.195   4.123  10.070  0.6126  0.4299 -0.7918
   18MOL0     C 2273  -1.266   4.021   9.996 -0.0563  0.4189 -0.3117
   18MOL0     O 2274  -1.364   3.961  10.068  0.0785 -0.4447 -0.1388
   18MOL0     C 2275  -1.431   3.853  10.018 -0.6497  0.0899  0.2036
   18MOL0     C 2276  -1.573   3.866  10.006  1.1021  0.9351  0.5089
   18MOL0     C 2277  -1.658   3.763   9.957 -1.1536  0.0060 -0.2768
   18MOL0     C 2278  -1.589   3.641   9.915  0.7211 -0.1252  1.0814
   18MOL0     O 2279  -1.652   3.539   9.851 -0.2280  0.4412  0.3126
   18MOL0     C 2280  -1.795   3.543   9.861  0.6807  0.2013  0.1281
   18MOL0     C 2281  -1.840   3.421   9.778 -0.3564  0.0517  0.5568
   18MOL0     C 2282  -1.991   3.393   9.817 -0.6768  0.8005  0.6928
   18MOL0     C 2283  -2.046   3.307   9.701  0.2304  0.6244 -0.5448
   18MOL0     C 2284  -2.166   3.238   9.757  0.2960  0.0376  0.2642
   18MOL0     C 2285  -2.234   3.144   9.652 -0.8188 -0.3926  0.4474
   18MOL0     C 2286  -2.327   3.040   9.693 -0.8241  0.9961 -0.2989
   18MOL0     C 2287  -2.390   2.969   9.568  0.7484  0.1650 -0.6041
   18MOL0    Cl 2288  -2.460   2.817   9.611  0.2536 -0.2617 -0.4273
   18MOL0     C 2289  -1.449   3.632   9.925 -0.3302 -1.8037  0.6335
   18MOL0     C 2290  -1.369   3.735   9.985 -0.8186  0.7752 -0.9087
   18MOL0     O 2291  -1.227   3.995   9.881  0.2887  0.6555  0.0638
   18MOL0     C 2292  -1.068   4.172  10.020 -0.9061 -0.0001 -0.7608
   18MOL0     C 2293  -0.992   4.268  10.089  0.1963 -1.0814 -0.9701
   18MOL0     N 2294  -0.622   4.780  10.415 -0.2587  0.7291  0.9102
   18MOL0     N 2295  -0.503   4.799  10.461 -0.0884 -0.4357  0.5732
   18MOL0     C 2296   0.682   4.455  10.939 -0.7330  1.1122 -0.4982
   18MOL0     C 2297   0.791   4.376  10.902  0.5315 -0.3876 -0.2741
   18MOL0     C 2298   1.007   3.978  10.813  0.3880 -0.0887 -0.0772
   18MOL0     C 2299   1.109   4.054  10.749  0.1991  0.2437  1.7622
   18MOL0     C 2300   1.239   3.992  10.755  0.5369 -0.6451  0.6869
   18MOL0     C 2301   1.266   3.862  10.811 -0.3413 -0.5333  0.1904
   18MOL0     O 2302   1.397   3.815  10.790 -0.2563 -0.0931 -0.1196
   18MOL0     C 2303   1.430   3.684  10.838  0.4088  0.2136  0.6087
   18MOL0     C 2304   1.399   3.580  10.734  0.2464 -0.4305 -0.4540
   18MOL0     C 2305   1.505   3.584  10.620  0.9435 -0.4556 -0.2103
   18MOL0     C 2306   1.640   3.533  10.653 -0.1998 -0.5134 -0.3488
   18MOL0     C 2307   1.735   3.576  10.551 -0.0796  0.3105  1.0999
   18MOL0     C 2308   1.800   3.606  10.451 -0.4152  0.7359 -0.3692
   18MOL0     C 2309   1.155   3.790  10.861 -0.1410  0.6545 -0.5885
   18MOL0     C 2310   1.028   3.849  10.865 -0.3348 -0.5010  0.1368
   18MOL0     H 2311   0.611   4.130  10.747  4.5090 -1.1319  0.0631
   18MOL0     H 2312   0.411   4.302  10.809  0.5484  2.1989 -2.8096
   18MOL0     H 2313   0.442   4.582  10.738  3.0098  3.8556 -1.8791
   18MOL0     H 2314   0.512   4.700  10.861  0.2825  1.5690 -2.4902
   18MOL0     H 2315   0.303   4.786  10.818  0.9932 -0.0806 -1.0550
   18MOL0     H 2316   0.277   4.689  10.965  1.0322 -1.9363  0.1052
   18MOL0     H 2317   0.183   4.507  10.828 -0.8689 -0.6278 -2.5204
   18MOL0     H 2318   0.207   4.602  10.687 -1.7675 -3.5099 -0.6727
   18MOL0     H 2319   0.028   4.655  10.915 -1.9126  3.3084  0.8103
   18MOL0     H 2320   0.057   4.785  10.788  1.6952  0.4230  0.7777
   18MOL0     H 2321  -0.068   4.500  10.773  1.9353 -1.9954 -3.7072
   18MOL0     H 2322  -0.035   4.604  10.631 -2.3350 -0.3699 -0.8678
   18MOL0     H 2323  -0.162   4.797  10.762 -3.5261  0.3092 -0.7842
   18MOL0     H 2324  -0.203   4.687  10.881  3.4091  0.8315  0.7700
   18MOL0     H 2325  -0.279   4.632  10.597  0.2806  1.7858 -1.1005
   18MOL0     H 2326  -0.364   4.591  10.743  0.6751  0.7396  2.2387
   18MOL0     H 2327  -0.307   4.876  10.633  2.4105 -1.2517  2.0303
   18MOL0     H 2328  -0.404   4.849  10.771 -1.5106 -0.6045 -1.1295
   18MOL0     H 2329  -0.675   4.810  10.740  1.7339  2.2462 -0.5196
   18MOL0     H 2330  -0.907   4.843  10.510  0.0931  0.5877 -0.5317
   18MOL0     H 2331  -0.894   4.692  10.609  0.6298 -1.3388  0.0528
   18MOL0     H 2332  -0.871   4.716  10.316  1.7681 -0.6496  0.5062
   18MOL0     H 2333  -0.997   4.648  10.405  0.2200 -0.1968  0.3154
   18MOL0     H 2334  -0.716   4.544  10.401 -0.5990  1.9727 -0.4112
   18MOL0     H 2335  -0.859   4.475  10.495  0.3528 -0.7064 -1.6386
   18MOL0     H 2336  -0.828   4.333  10.305 -0.7144 -0.5975 -0.4520
   18MOL0     H 2337  -0.803   4.478  10.203 -0.5353  1.7332  0.5467
   18MOL0     H 2338  -1.207   4.345  10.342 -0.8612 -1.1603  0.1815
   18MOL0     H 2339  -1.356   4.183  10.228  0.2377  3.2857  2.7756
   18MOL0     H 2340  -1.610   3.964  10.036  0.1520  1.9051 -3.2860
   18MOL0     H 2341  -1.767   3.764   9.951 -1.2419 -2.8550 -0.3575
   18MOL0     H 2342  -1.834   3.635   9.815  2.8261 -0.4123 -3.2816
   18MOL0     H 2343  -1.823   3.519   9.964  4.7399 -3.8079  0.6172
   18MOL0     H 2344  -1.791   3.324   9.795  1.0055  0.2141 -1.9809
   18MOL0     H 2345  -1.816   3.440   9.673  2.5553 -1.8646  0.7764
   18MOL0     H 2346  -2.048   3.486   9.828 -1.4202  0.2681  1.4662
   18MOL0     H 2347  -1.992   3.326   9.903  0.1215 -2.6589 -1.7476
   18MOL0     H 2348  -2.068   3.369   9.614  0.5565  0.1696 -0.9608
   18MOL0     H 2349  -1.972   3.228   9.686  0.0386 -0.0764  1.8122
   18MOL0     H 2350  -2.233   3.322   9.778  1.2600  1.7129 -2.8523
   18MOL0     H 2351  -2.152   3.188   9.854 -0.1956  0.9934  0.8428
   18MOL0     H 2352  -2.158   3.096   9.590  1.2759  0.4970  2.2015
   18MOL0     H 2353  -2.281   3.215   9.584  3.0468  1.8146 -0.2031
   18MOL0     H 2354  -2.272   2.969   9.756 -1.5579  1.5060  0.9473
   18MOL0     H 2355  -2.414   3.082   9.743 -2.6531  0.7151 -3.0555
   18MOL0     H 2356  -2.315   2.949   9.491  1.8386 -0.4707  0.5805
   18MOL0     H 2357  -2.463   3.033   9.518 -1.1741 -0.3702  1.3631
   18MOL0     H 2358  -1.391   3.554   9.879 -0.8312 -0.7056 -2.0578
   18MOL0     H 2359  -1.261   3.740   9.988 -0.5338 -1.6436 -3.2232
   18MOL0     H 2360  -1.023   4.135   9.929 -0.9718 -1.5198 -0.2098
   18MOL0     H 2361  -0.895   4.305  10.055 -1.2643  0.6667 -3.5705
   18MOL0     H 2362   0.712   4.542  10.997 -3.1312 -0.0742  2.7958
   18MOL0     H 2363   0.890   4.413  10.926 -1.1762  1.6294  4.9399
   18MOL0     H 2364   1.088   4.153  10.710  1.2926  0.7463  2.3984
   18MOL0     H 2365   1.314   4.056  10.711 -1.9554  2.2787  0.3323
   18MOL0     H 2366   1.380   3.661  10.932  0.8050  2.0652  1.3072
   18MOL0     H 2367   1.535   3.697  10.865 -0.6681  3.3705  4.0655
   18MOL0     H 2368   1.421   3.482  10.778  2.1581 -0.4545 -1.3677
   18MOL0     H 2369   1.294   3.581  10.702  0.5907 -1.1890 -1.6844
   18MOL0     H 2370   1.517   3.689  10.591 -1.0191 -0.4557 -1.1279
   18MOL0     H 2371   1.461   3.524  10.541  1.8701 -2.1797  0.5258
   18MOL0     H 2372   1.676   3.560  10.753 -4.3681  0.1946  1.1647
   18MOL0     H 2373   1.647   3.424  10.654  0.6572 -0.4637 -0.2036
   18MOL0     H 2374   1.851   3.658  10.373  2.4951 -1.3981 -0.0392
   18MOL0     H 2375   1.180   3.689  10.889 -0.5732  1.0643  1.4315
   18MOL0     H 2376   0.947   3.796  10.915  1.6651 -2.4402  1.5288
   19MOL0     O 2377   2.411   0.189   9.951 -0.3795  0.0052  0.6010
   19MOL0     C 2378   2.328   0.154   9.869 -0.0530 -0.2920 -0.4222
   19MOL0     O 2379   2.291   0.024   9.841 -0.3551 -0.0463  0.0698
   19MOL0     C 2380   2.295  -0.079   9.941  0.1721  0.4765  0.6828
   19MOL0     C 2381   2.221  -0.193   9.912  0.5600  0.4694  0.1629
   19MOL0     C 2382   2.224  -0.311   9.993 -0.0617 -0.0906 -0.5707
   19MOL0     C 2383   2.292  -0.311  10.116 -0.1013  0.2454 -0.4408
   19MOL0     O 2384   2.292  -0.422  10.193 -0.2491  0.1125 -0.5327
   19MOL0     C 2385   2.342  -0.417  10.330 -0.0256 -0.1923 -0.1544
   19MOL0     C 2386   2.292  -0.553  10.407  0.7809 -0.7174 -0.1767
   19MOL0     C 2387   2.137  -0.552  10.435 -0.0851 -1.1567 -0.1625
   19MOL0     C 2388   2.091  -0.693  10.464  0.2859 -0.9030  0.1468
   19MOL0     C 2389   1.938  -0.698  10.504 -0.4181 -0.4321 -1.2974
   19MOL0     C 2390   1.854  -0.654  10.389 -0.2241  0.2976 -0.2246
   19MOL0     C 2391   1.703  -0.673  10.406 -0.6100 -0.5004  0.3524
   19MOL0     C 2392   1.640  -0.819  10.411  0.5602  0.7959 -0.0570
   19MOL0     N 2393   1.691  -0.896  10.297  0.3995 -0.1804  0.6930
   19MOL0     C 2394   1.795  -0.979  10.299 -0.3474 -0.8075 -0.0877
   19MOL0     C 2395   1.798  -1.038  10.182 -0.0978  0.3836 -0.1700
   19MOL0     C 2396   1.911  -1.128  10.136  0.3066 -0.2172 -0.2362
   19MOL0     C 2397   1.967  -1.078  10.008 -0.3718  0.2110  0.1556
   19MOL0     C 2398   2.035  -1.186   9.919 -0.1410 -0.5617 -0.0482
   19MOL0     C 2399   2.133  -1.286   9.982 -0.4954  0.5258  0.5737
   19MOL0     O 2400   2.254  -1.201  10.016 -0.2838  0.3163 -0.0650
   19MOL0     C 2401   2.366  -1.262  10.069  0.4771  0.0885  0.3511
   19MOL0     C 2402   2.370  -1.394  10.112 -0.7219 -0.7304  0.5422
   19MOL0     C 2403   2.478  -1.444  10.181  0.2241 -0.3286  0.0444
   19MOL0     C 2404   2.583  -1.350  10.211 -0.6679  0.3791  0.2783
   19MOL0     C 2405   2.687  -1.399  10.303 -0.6278 -0.0337  0.1548
   19MOL0     O 2406   2.761  -1.304  10.363 -0.2595 -0.5119  0.3697
   19MOL0     C 2407   2.889  -1.339  10.407  0.5990  0.1184 -0.4722
   19MOL0     C 2408   2.922  -1.296  10.540  0.0158 -0.6940 -0.1231
   19MOL0     C 2409   3.041  -1.333  10.601 -0.0992 -0.7450  0.4808
   19MOL0     C 2410   3.136  -1.408  10.530  0.2154 -0.1137  0.5089
   19MOL0     O 2411   3.255  -1.439  10.587  0.3028  0.2069 -0.0828
   19MOL0     C 2412   3.264  -1.485  10.723  0.4584  0.3568  0.7942
   19MOL0     C 2413   3.386  -1.424  10.794 -0.2635  0.1377  0.0410
   19MOL0     C 2414   3.529  -1.451  10.749  0.8201 -0.4051  0.9700
   19MOL0     C 2415   3.636  -1.404  10.846  0.4523  0.0378  0.0085
   19MOL0     C 2416   3.786  -1.397  10.786  0.6379  0.4083 -1.1540
   19MOL0     C 2417   3.894  -1.368  10.886  1.0511  0.2475 -0.3152
   19MOL0     C 2418   4.039  -1.364  10.836 -0.3942  0.2910 -0.3099
   19MOL0     C 2419   4.094  -1.496  10.786 -0.2880  0.5176 -0.3619
   19MOL0    Cl 2420   4.274  -1.494  10.742 -0.2362 -0.0747  0.1198
   19MOL0     C 2421   3.110  -1.452  10.407  0.0739 -0.1935 -0.9997
   19MOL0     C 2422   2.987  -1.420  10.337  0.2301 -0.4292 -0.1126
   19MOL0     O 2423   2.708  -1.517  10.308  0.2549 -0.4576  0.6118
   19MOL0     C 2424   2.586  -1.218  10.162  1.0566 -0.6709  0.7705
   19MOL0     C 2425   2.476  -1.171  10.089 -0.5755  0.1705 -0.1067
   19MOL0     N 2426   1.684  -1.001  10.110 -0.5958 -0.7117 -0.4233
   19MOL0     N 2427   1.625  -0.905  10.175 -0.2262 -1.0344  0.4753
   19MOL0     C 2428   2.352  -0.192  10.154 -0.0285 -0.3600 -0.6107
   19MOL0     C 2429   2.357  -0.076  10.067 -0.1761  0.5968 -0.8000
   19MOL0     C 2430   2.291   0.254   9.761  0.1877  0.0510 -0.2275
   19MOL0     C 2431   2.206   0.207   9.658  0.1038 -0.4340 -0.0007
   19MOL0     C 2432   2.172   0.291   9.545 -0.0186  0.7714 -0.3019
   19MOL0     C 2433   2.229   0.419   9.543 -0.8043 -0.1760 -0.8945
   19MOL0     O 2434   2.207   0.511   9.442  0.3496  0.0512  0.3641
   19MOL0     C 2435   2.077   0.559   9.451 -0.5380 -1.5998 -0.0833
   19MOL0     C 2436   2.048   0.647   9.333 -0.3569 -0.6887 -0.7499
   19MOL0     C 2437   2.069   0.575   9.205  0.1389 -0.2741  0.1550
   19MOL0     C 2438   2.197   0.623   9.138 -1.1062 -0.5559  0.4323
   19MOL0     C 2439   2.224   0.550   9.008 -0.0619 -0.0521 -0.3927
   19MOL0     C 2440   2.228   0.484   8.909 -0.6512 -0.6750 -0.5106
   19MOL0     C 2441   2.309   0.467   9.649 -0.3955 -0.7054  0.3845
   19MOL0     C 2442   2.345   0.386   9.759  0.7126  0.2960  0.7936
   19MOL0     H 2443   2.177  -0.202   9.813  1.4194 -1.8655 -0.0795
   19MOL0     H 2444   2.171  -0.401   9.966 -1.0603  0.2482  0.1981
   19MOL0     H 2445   2.318  -0.324  10.381 -0.0993  1.5919 -3.1802
   19MOL0     H 2446   2.451  -0.408  10.324  0.1435  0.6729  2.7185
   19MOL0     H 2447   2.349  -0.568  10.499  0.7340  1.3056  0.2378
   19MOL0     H 2448   2.315  -0.624  10.327 -1.2215  3.0179 -4.5533
   19MOL0     H 2449   2.081  -0.510  10.351  2.4053  3.4109  0.1264
   19MOL0     H 2450   2.126  -0.493  10.526  0.7032 -3.3874  1.4767
   19MOL0     H 2451   2.102  -0.741  10.366 -4.5787 -1.1878 -0.4635
   19MOL0     H 2452   2.149  -0.739  10.545 -2.7672 -0.4264  2.8255
   19MOL0     H 2453   1.928  -0.623  10.584  2.3619 -1.0968 -0.2067
   19MOL0     H 2454   1.910  -0.798  10.538 -0.1657 -0.2849 -0.6365
   19MOL0     H 2455   1.879  -0.704  10.295  2.5029  0.3895  0.3902
   19MOL0     H 2456   1.876  -0.551  10.362 -0.4798  0.5817  0.6311
   19MOL0     H 2457   1.666  -0.618  10.493  0.3455 -0.7890  0.9586
   19MOL0     H 2458   1.657  -0.628  10.317 -1.9425 -1.7612  0.3662
   19MOL0     H 2459   1.532  -0.801  10.406  0.4889  1.1425  2.0360
   19MOL0     H 2460   1.668  -0.863  10.507  2.2061 -1.1288 -1.3568
   19MOL0     H 2461   1.855  -0.978  10.389 -3.9135  2.0484  2.5583
   19MOL0     H 2462   1.866  -1.225  10.111 -0.6292  0.5351 -1.5964
   19MOL0     H 2463   1.995  -1.152  10.202  1.0863 -0.8325 -1.4086
   19MOL0     H 2464   2.036  -0.995  10.028 -1.0684  0.7723  0.2672
   19MOL0     H 2465   1.896  -1.032   9.938 -0.2316 -1.0306 -0.8458
   19MOL0     H 2466   1.957  -1.240   9.865 -0.8965  2.2454 -1.9842
   19MOL0     H 2467   2.078  -1.124   9.839 -1.0578  1.9466  1.3022
   19MOL0     H 2468   2.163  -1.369   9.916 -2.8143 -0.0400  0.1590
   19MOL0     H 2469   2.095  -1.330  10.075  0.5274 -0.6951  0.4493
   19MOL0     H 2470   2.285  -1.460  10.103 -0.5755 -0.7728 -0.8790
   19MOL0     H 2471   2.470  -1.546  10.217 -2.6995  0.2614  1.4327
   19MOL0     H 2472   2.848  -1.228  10.580  2.1549  1.2518  0.7555
   19MOL0     H 2473   3.060  -1.286  10.697 -0.6464  1.4376 -0.4282
   19MOL0     H 2474   3.243  -1.592  10.728 -0.6447  0.5874  1.3596
   19MOL0     H 2475   3.190  -1.433  10.784 -1.9558  0.2500 -1.8197
   19MOL0     H 2476   3.372  -1.456  10.897 -2.3098  2.5567  0.6063
   19MOL0     H 2477   3.373  -1.317  10.777  0.8829  0.1355 -1.0708
   19MOL0     H 2478   3.540  -1.403  10.651 -1.4796  2.7806  2.1338
   19MOL0     H 2479   3.549  -1.558  10.734  3.1625 -0.2445  2.4328
   19MOL0     H 2480   3.614  -1.311  10.899 -2.7384 -1.9745  2.5878
   19MOL0     H 2481   3.624  -1.477  10.925 -4.4787 -0.8868 -1.2087
   19MOL0     H 2482   3.791  -1.314  10.715 -0.6154  1.4172 -0.1239
   19MOL0     H 2483   3.797  -1.491  10.732 -2.3853 -0.2971 -0.7526
   19MOL0     H 2484   3.896  -1.436  10.972 -0.6500 -0.7571 -1.0165
   19MOL0     H 2485   3.879  -1.268  10.928  1.4179  0.1763 -0.0033
   19MOL0     H 2486   4.039  -1.287  10.758 -1.6030  0.7623  0.1276
   19MOL0     H 2487   4.106  -1.333  10.917 -0.3368 -0.7529  0.0607
   19MOL0     H 2488   4.036  -1.524  10.697  1.2202 -1.4006 -0.8193
   19MOL0     H 2489   4.076  -1.578  10.856 -1.9636 -0.9280 -2.3239
   19MOL0     H 2490   3.174  -1.520  10.351 -0.8375 -1.5402 -0.4594
   19MOL0     H 2491   2.962  -1.451  10.236 -0.0804 -0.2587 -0.0910
   19MOL0     H 2492   2.661  -1.140  10.174 -0.8120  1.5437 -1.1368
   19MOL0     H 2493   2.471  -1.075  10.039  0.0297 -0.8278 -2.1733
   19MOL0     H 2494   2.391  -0.182  10.255 -4.3631 -0.0587  1.2363
   19MOL0     H 2495   2.388   0.017  10.115  1.0957 -0.2730  0.1142
   19MOL0     H 2496   2.137   0.124   9.670 -1.2506  0.4792 -1.1027
   19MOL0     H 2497   2.122   0.239   9.464  0.5427 -0.3332  0.0341
   19MOL0     H 2498   2.062   0.617   9.543  1.9253  2.5850 -2.0552
   19MOL0     H 2499   2.016   0.468   9.458 -0.8782 -1.2688  1.8070
   19MOL0     H 2500   1.945   0.683   9.345 -0.1595  0.3892 -1.9450
   19MOL0     H 2501   2.124   0.725   9.341  1.3767 -2.5094  2.3378
   19MOL0     H 2502   2.000   0.586   9.121  3.7535  0.3647 -3.0180
   19MOL0     H 2503   2.073   0.466   9.217  1.4925 -0.6854 -3.0628
   19MOL0     H 2504   2.183   0.730   9.121  0.3952 -0.0499  2.0918
   19MOL0     H 2505   2.287   0.614   9.200  2.5829  0.1022 -4.2684
   19MOL0     H 2506   2.229   0.425   8.819  0.0021 -1.2372 -0.1436
   19MOL0     H 2507   2.361   0.562   9.635  0.0279 -0.6786  1.8861
   19MOL0     H 2508   2.414   0.419   9.836 -0.9829  1.4171  1.8967
   20MOL0     O 2509   7.764   2.622   8.226 -0.1960 -0.5693 -0.3290
   20MOL0     C 2510   7.660   2.682   8.203  0.3461 -0.6785 -0.7932
   20MOL0     O 2511   7.615   2.717   8.077 -0.3057  0.6782 -0.0746
   20MOL0     C 2512   7.669   2.655   7.962  0.0407 -0.0486  0.0312
   20MOL0     C 2513   7.580   2.566   7.903  0.6474 -0.6252 -0.4012
   20MOL0     C 2514   7.625   2.506   7.783 -0.4592  0.7605  0.6582
   20MOL0     C 2515   7.755   2.532   7.727 -0.1018  0.2708 -0.2686
   20MOL0     O 2516   7.781   2.481   7.605 -0.0120  0.0369 -0.4917
   20MOL0     C 2517   7.918   2.469   7.569  0.1346  0.6224  0.8081
   20MOL0     C 2518   7.911   2.389   7.438  1.1286 -0.6918 -0.0473
   20MOL0     C 2519   7.855   2.461   7.320 -0.5267 -0.6157 -0.7847
   20MOL0     C 2520   7.956   2.555   7.257  0.7178 -0.0593 -1.1322
   20MOL0     C 2521   7.899   2.626   7.137 -0.1442  0.5250 -0.2709
   20MOL0     C 2522   7.908   2.550   7.006 -0.3707  0.5439 -0.2564
   20MOL0     C 2523   7.910   2.631   6.882  0.1489 -0.0106  0.2158
   20MOL0     C 2524   7.967   2.556   6.756  0.4896 -0.3804 -0.1574
   20MOL0     N 2525   8.104   2.574   6.742 -0.0436  0.0290  0.0028
   20MOL0     C 2526   8.171   2.607   6.626  0.0840  0.4631 -0.7314
   20MOL0     C 2527   8.302   2.563   6.638  0.4450 -0.5965  0.4614
   20MOL0     C 2528   8.406   2.571   6.530  0.0946  0.2799  0.8751
   20MOL0     C 2529   8.394   2.452   6.442 -0.5735  0.5590  0.2901
   20MOL0     C 2530   8.494   2.453   6.311  0.2306  0.0128 -0.5555
   20MOL0     C 2531   8.467   2.326   6.245 -0.6474  0.4120  0.2746
   20MOL0     O 2532   8.329   2.315   6.203 -0.0130 -0.8601  0.8014
   20MOL0     C 2533   8.271   2.199   6.181 -0.7521  1.0047 -0.6335
   20MOL0     C 2534   8.329   2.072   6.191  0.8747 -0.1259 -0.1065
   20MOL0     C 2535   8.255   1.953   6.190  0.1442  0.1146  0.4794
   20MOL0     C 2536   8.120   1.948   6.173  0.5402  0.3335  0.1153
   20MOL0     C 2537   8.041   1.824   6.184 -0.2150  0.7929  1.3123
   20MOL0     O 2538   7.925   1.827   6.252 -0.6319  0.3265  0.1525
   20MOL0     C 2539   7.872   1.715   6.310 -0.3847  0.2581  0.0141
   20MOL0     C 2540   7.798   1.746   6.416  0.2381 -0.2607  0.8110
   20MOL0     C 2541   7.756   1.653   6.504  0.5041 -0.0381  0.0796
   20MOL0     C 2542   7.788   1.516   6.502 -0.3701  0.2416  0.9255
   20MOL0     O 2543   7.750   1.439   6.604 -0.4171  0.1608  0.1562
   20MOL0     C 2544   7.698   1.306   6.568 -0.2034 -0.4026  1.1298
   20MOL0     C 2545   7.541   1.309   6.571  0.3266 -0.3954  0.7501
   20MOL0     C 2546   7.491   1.167   6.553 -0.9888 -0.3799 -0.0754
   20MOL0     C 2547   7.339   1.161   6.564 -0.5293 -0.3591 -0.3060
   20MOL0     C 2548   7.293   1.025   6.539  0.6849 -0.2483  0.4463
   20MOL0     C 2549   7.142   1.026   6.484 -0.7944 -1.1194  0.2403
   20MOL0     C 2550   7.075   0.888   6.489  0.0959 -0.5624 -0.2657
   20MOL0     C 2551   6.934   0.875   6.424 -0.3440  0.3370 -0.2601
   20MOL0    Cl 2552   6.808   0.866   6.556 -0.4746  0.0892 -0.1344
   20MOL0     C 2553   7.866   1.476   6.391 -0.1154 -0.1143  0.0020
   20MOL0     C 2554   7.912   1.576   6.302  0.2180 -0.5522  0.1237
   20MOL0     O 2555   8.088   1.725   6.130  0.3536  0.0127  0.5649
   20MOL0     C 2556   8.054   2.074   6.189 -0.5434 -0.1057  0.7061
   20MOL0     C 2557   8.129   2.193   6.180  0.1153  0.6267  0.2087
   20MOL0     N 2558   8.320   2.519   6.769  0.0249 -0.0448 -0.0564
   20MOL0     N 2559   8.203   2.525   6.828  0.5025  0.0831 -0.2888
   20MOL0     C 2560   7.834   2.629   7.790 -0.3714  0.6384 -0.4121
   20MOL0     C 2561   7.799   2.678   7.907  0.3427  0.2449 -0.5486
   20MOL0     C 2562   7.578   2.727   8.323  0.6707  0.0835  0.7100
   20MOL0     C 2563   7.500   2.845   8.301  0.1222  0.9276 -0.4752
   20MOL0     C 2564   7.436   2.891   8.412  0.7828 -0.1957  0.0602
   20MOL0     C 2565   7.439   2.834   8.538 -0.2968  0.2521 -0.3396
   20MOL0     O 2566   7.355   2.890   8.626 -0.0815 -0.3662 -0.1587
   20MOL0     C 2567   7.333   2.825   8.755 -0.5875  0.5518 -1.0237
   20MOL0     C 2568   7.254   2.688   8.742 -0.2192  0.0492  0.4755
   20MOL0     C 2569   7.117   2.691   8.665  0.1895  0.4015  0.2831
   20MOL0     C 2570   7.062   2.555   8.668  0.5818  0.3181 -0.5001
   20MOL0     C 2571   6.918   2.560   8.676  0.3102  0.2052 -0.1477
   20MOL0     C 2572   6.796   2.539   8.672  0.3814  0.1864 -0.8474
   20MOL0     C 2573   7.520   2.719   8.563 -0.8166 -0.1098 -0.6140
   20MOL0     C 2574   7.597   2.672   8.456 -0.6757 -0.4393 -0.1319
   20MOL0     H 2575   7.484   2.550   7.951  1.7960  1.1910  2.8119
   20MOL0     H 2576   7.548   2.442   7.741 -0.4120  1.2714 -0.2176
   20MOL0     H 2577   7.969   2.413   7.648 -0.4848  0.8708  1.3925
   20MOL0     H 2578   7.962   2.566   7.547 -0.8510  1.1955  1.2889
   20MOL0     H 2579   7.846   2.301   7.446 -1.2398  0.5610 -3.4123
   20MOL0     H 2580   8.016   2.362   7.426  1.3329  0.1344 -0.1984
   20MOL0     H 2581   7.765   2.516   7.347  0.1761  0.0298  0.3448
   20MOL0     H 2582   7.814   2.401   7.238  1.1858  0.2644 -2.3819
   20MOL0     H 2583   7.971   2.624   7.341  1.5935 -2.8804  1.1552
   20MOL0     H 2584   8.050   2.506   7.233 -0.2704 -2.4300 -0.3972
   20MOL0     H 2585   7.964   2.712   7.118  2.3991 -1.2511 -0.1353
   20MOL0     H 2586   7.796   2.659   7.154 -0.2023  0.6036 -0.7399
   20MOL0     H 2587   7.834   2.469   7.006  0.4728 -0.2786 -2.0167
   20MOL0     H 2588   8.005   2.501   7.020 -0.6725  0.0230  0.0831
   20MOL0     H 2589   7.808   2.667   6.866  0.0875  1.2123  2.8746
   20MOL0     H 2590   7.962   2.726   6.885  0.0220  0.1715 -1.7576
   20MOL0     H 2591   7.909   2.598   6.673  0.9952  1.5534  0.4116
   20MOL0     H 2592   7.953   2.447   6.760  1.1380 -0.7093 -3.6680
   20MOL0     H 2593   8.133   2.670   6.547  1.1618  2.8188  0.5213
   20MOL0     H 2594   8.509   2.571   6.566 -0.0834  0.4097  1.3856
   20MOL0     H 2595   8.398   2.660   6.468  2.2041 -0.1555 -0.1258
   20MOL0     H 2596   8.295   2.448   6.396  0.3447  1.3497 -1.8802
   20MOL0     H 2597   8.409   2.353   6.486  0.8389  1.6005  2.3629
   20MOL0     H 2598   8.456   2.525   6.237 -3.7123  0.8825  1.9946
   20MOL0     H 2599   8.599   2.466   6.335  0.6315  2.2191 -2.9968
   20MOL0     H 2600   8.496   2.253   6.321  0.4895  1.1054  0.5347
   20MOL0     H 2601   8.525   2.317   6.153 -0.9045  4.4188 -0.4626
   20MOL0     H 2602   8.436   2.055   6.205  0.7603 -1.7782 -1.0253
   20MOL0     H 2603   8.309   1.859   6.181  0.5103  0.1278  2.1551
   20MOL0     H 2604   7.752   1.842   6.436  0.5393 -0.1163  0.8259
   20MOL0     H 2605   7.699   1.690   6.588 -1.0408  2.5889 -1.9796
   20MOL0     H 2606   7.737   1.231   6.637  1.3201  1.6493  2.6047
   20MOL0     H 2607   7.732   1.274   6.469 -0.8039  0.5858  0.5868
   20MOL0     H 2608   7.505   1.367   6.485  0.6284 -0.8175  0.3345
   20MOL0     H 2609   7.504   1.358   6.662  0.6194  5.1442 -1.7103
   20MOL0     H 2610   7.528   1.109   6.639  2.0900  0.9347 -0.3725
   20MOL0     H 2611   7.542   1.126   6.465  2.1532  3.4372 -0.3527
   20MOL0     H 2612   7.290   1.200   6.654  0.1503 -2.0010  0.8304
   20MOL0     H 2613   7.298   1.201   6.470 -2.0334 -4.1022 -1.4380
   20MOL0     H 2614   7.301   0.965   6.630  1.9743 -3.7058 -1.7408
   20MOL0     H 2615   7.357   0.975   6.466  0.6940  3.8049 -2.7209
   20MOL0     H 2616   7.136   1.073   6.385 -1.2323  0.6932  1.0858
   20MOL0     H 2617   7.077   1.087   6.546 -1.6688  1.2052 -2.7164
   20MOL0     H 2618   7.141   0.819   6.436 -0.8040 -1.3744 -0.3600
   20MOL0     H 2619   7.067   0.843   6.588  0.9657  0.4683  0.2841
   20MOL0     H 2620   6.928   0.779   6.370 -0.5339 -0.4734  1.1527
   20MOL0     H 2621   6.910   0.948   6.346  0.6588  1.2382  0.2647
   20MOL0     H 2622   7.895   1.373   6.372  0.7178  0.2197 -0.6279
   20MOL0     H 2623   7.960   1.539   6.212 -1.2838  4.0452 -2.9434
   20MOL0     H 2624   7.946   2.072   6.194 -0.5546 -0.7220  0.3084
   20MOL0     H 2625   8.085   2.292   6.181 -2.1327 -0.1872  4.1101
   20MOL0     H 2626   7.933   2.644   7.748  0.1303  2.3511  1.2679
   20MOL0     H 2627   7.852   2.737   7.981 -1.6106 -1.2477  2.2316
   20MOL0     H 2628   7.505   2.900   8.207  2.1876 -0.3820 -1.1891
   20MOL0     H 2629   7.391   2.991   8.408  0.9950 -0.0348  1.3628
   20MOL0     H 2630   7.274   2.896   8.814  2.1969  0.3060  2.3971
   20MOL0     H 2631   7.426   2.818   8.813  0.3535 -3.0701 -2.6858
   20MOL0     H 2632   7.332   2.621   8.705  1.3704  2.0643 -0.0059
   20MOL0     H 2633   7.232   2.662   8.846 -1.5866 -2.2161 -0.3112
   20MOL0     H 2634   7.137   2.730   8.564 -0.1062  1.4564  0.6209
   20MOL0     H 2635   7.045   2.753   8.717  0.2782  1.9265 -1.3174
   20MOL0     H 2636   7.098   2.502   8.580 -0.7930  1.8437 -2.0399
   20MOL0     H 2637   7.081   2.502   8.762 -1.5371  0.1967 -0.0724
   20MOL0     H 2638   6.690   2.549   8.669  0.4131  1.8402  1.2592
   20MOL0     H 2639   7.535   2.682   8.663 -4.8936  0.4173  0.3560
   20MOL0     H 2640   7.669   2.593   8.474  0.7435  0.5861 -1.1201
   21MOL0     O 2641   2.273   7.583  11.083 -0.4699 -0.8891 -0.0261
   21MOL0     C 2642   2.196   7.497  11.118  0.1304 -0.0422 -0.1916
   21MOL0     O 2643   2.202   7.367  11.070  0.3394 -0.4960  1.0639
   21MOL0     C 2644   2.322   7.321  11.014 -0.6596 -0.4973  0.6027
   21MOL0     C 2645   2.447   7.356  11.052 -0.8276 -0.0661  0.0738
   21MOL0     C 2646   2.563   7.299  10.995 -0.3146 -0.3899  0.5116
   21MOL0     C 2647   2.549   7.219  10.878  1.1703  0.1300 -0.0212
   21MOL0     O 2648   2.653   7.177  10.797 -0.4183  0.5378 -0.5247
   21MOL0     C 2649   2.744   7.291  10.764  0.9329  0.3477  0.1178
   21MOL0     C 2650   2.813   7.270  10.633  0.0269  0.2187  1.2530
   21MOL0     C 2651   2.718   7.230  10.513  0.1688  0.1830 -0.6113
   21MOL0     C 2652   2.591   7.324  10.503  0.2225  0.4218 -0.7797
   21MOL0     C 2653   2.498   7.282  10.387 -0.7788  0.8651 -0.2504
   21MOL0     C 2654   2.412   7.393  10.327 -0.1098 -0.4927 -0.4909
   21MOL0     C 2655   2.322   7.362  10.206 -0.7339  0.7811 -0.6613
   21MOL0     C 2656   2.238   7.471  10.173 -0.0515 -0.4501 -0.1126
   21MOL0     N 2657   2.141   7.436  10.068 -0.2004 -0.5337  0.2777
   21MOL0     C 2658   2.151   7.433   9.931 -0.2397 -0.6461  0.4758
   21MOL0     C 2659   2.031   7.390   9.886 -0.1771  0.7406  0.5794
   21MOL0     C 2660   2.006   7.358   9.737  0.0118 -0.6879  0.4067
   21MOL0     C 2661   2.128   7.317   9.646  0.4949 -0.7214 -0.4754
   21MOL0     C 2662   2.224   7.194   9.683  0.6337  0.0424  0.3158
   21MOL0     C 2663   2.136   7.059   9.690 -0.0331 -0.9017 -0.0567
   21MOL0     O 2664   2.076   7.050   9.816  0.2871 -0.4018 -0.4830
   21MOL0     C 2665   2.153   7.035   9.924  0.6795 -0.1122  0.2282
   21MOL0     C 2666   2.288   7.006   9.917  0.1162 -0.4274 -0.8787
   21MOL0     C 2667   2.363   6.990  10.031  0.7607 -1.1044 -0.4321
   21MOL0     C 2668   2.300   6.995  10.154  0.2349  0.3589  0.3838
   21MOL0     C 2669   2.376   6.947  10.273  0.1298  0.9003 -0.6607
   21MOL0     O 2670   2.321   6.967  10.402 -0.3893  0.1290  0.3078
   21MOL0     C 2671   2.379   6.919  10.521  0.6928  0.1417 -0.1155
   21MOL0     C 2672   2.291   6.880  10.621  0.8508  0.3183  0.1327
   21MOL0     C 2673   2.346   6.818  10.741  0.9146 -0.1773 -0.0626
   21MOL0     C 2674   2.481   6.817  10.767 -0.0369 -0.1300 -0.3152
   21MOL0     O 2675   2.530   6.752  10.874 -0.0579 -0.6497 -0.0908
   21MOL0     C 2676   2.652   6.804  10.936  0.1549  0.1578 -0.1793
   21MOL0     C 2677   2.666   6.774  11.089 -0.7501  0.4356 -0.1922
   21MOL0     C 2678   2.594   6.871  11.175 -0.6493 -0.1400  0.1666
   21MOL0     C 2679   2.442   6.847  11.158  0.3828  0.1598  0.2875
   21MOL0     C 2680   2.360   6.934  11.247 -1.0104  1.0203 -1.3923
   21MOL0     C 2681   2.208   6.898  11.219 -0.2025 -0.2229  0.1200
   21MOL0     C 2682   2.121   7.008  11.285 -0.9868  0.3758  0.4435
   21MOL0     C 2683   1.977   6.970  11.263 -0.4968  0.7601  0.1913
   21MOL0    Cl 2684   1.856   7.082  11.331  0.1161  0.3297  0.0788
   21MOL0     C 2685   2.563   6.870  10.674 -0.3564 -0.5073  0.2558
   21MOL0     C 2686   2.517   6.903  10.545 -0.5560 -0.4746 -0.0206
   21MOL0     O 2687   2.476   6.878  10.247 -0.1514 -0.7086 -0.6303
   21MOL0     C 2688   2.167   7.030  10.164 -0.1819  0.1408 -0.9553
   21MOL0     C 2689   2.093   7.044  10.046 -0.8677 -0.9245 -0.2987
   21MOL0     N 2690   1.951   7.359   9.995 -0.5447 -0.2837 -0.6100
   21MOL0     N 2691   2.018   7.399  10.098 -0.9276  0.2540 -0.2809
   21MOL0     C 2692   2.416   7.171  10.847  1.2858  0.5750 -0.8029
   21MOL0     C 2693   2.309   7.231  10.909  0.2774  0.9100 -0.8503
   21MOL0     C 2694   2.069   7.531  11.194 -0.2937 -0.4597 -0.6569
   21MOL0     C 2695   1.994   7.435  11.251 -0.1570 -0.2664 -0.0152
   21MOL0     C 2696   1.888   7.467  11.338  0.3828 -0.4558 -0.5860
   21MOL0     C 2697   1.859   7.607  11.364  1.0568  0.0394  0.3112
   21MOL0     O 2698   1.762   7.633  11.455  0.5115 -0.4283 -0.0888
   21MOL0     C 2699   1.748   7.771  11.501 -0.0136  0.0985  0.6859
   21MOL0     C 2700   1.630   7.791  11.597 -0.0798  0.5886 -0.0792
   21MOL0     C 2701   1.645   7.725  11.734  0.0501 -0.7232  0.5478
   21MOL0     C 2702   1.511   7.735  11.804  1.0580  1.1398 -0.0688
   21MOL0     C 2703   1.488   7.878  11.843  0.0950 -0.3120 -0.5646
   21MOL0     C 2704   1.490   7.998  11.867 -0.2089 -0.5036  0.8531
   21MOL0     C 2705   1.920   7.705  11.296 -0.7736  0.3956 -0.2993
   21MOL0     C 2706   2.021   7.672  11.209  0.2344  0.6212 -0.1575
   21MOL0     H 2707   2.466   7.429  11.130  0.9978  0.7936 -1.1168
   21MOL0     H 2708   2.663   7.330  11.022  0.3425 -0.7427 -1.3840
   21MOL0     H 2709   2.827   7.304  10.835  0.2305  1.4294  0.7584
   21MOL0     H 2710   2.687   7.383  10.761 -1.0733 -0.8288 -2.9460
   21MOL0     H 2711   2.898   7.203  10.651  0.4944  0.6971  0.8434
   21MOL0     H 2712   2.860   7.365  10.607 -1.1642  0.6662  0.6148
   21MOL0     H 2713   2.686   7.128  10.532  1.1393 -0.0531 -0.1793
   21MOL0     H 2714   2.773   7.227  10.418  1.1141 -1.6000 -0.0411
   21MOL0     H 2715   2.522   7.328  10.589 -1.5063 -3.2647 -1.7947
   21MOL0     H 2716   2.629   7.425  10.490  0.5430  0.2078 -1.5220
   21MOL0     H 2717   2.440   7.196  10.421 -2.1444  1.7002 -0.3917
   21MOL0     H 2718   2.565   7.245  10.309  0.6897  4.1295 -0.6992
   21MOL0     H 2719   2.481   7.477  10.314  2.1137 -2.4605 -2.3977
   21MOL0     H 2720   2.348   7.431  10.407  1.0363  1.0096 -0.2528
   21MOL0     H 2721   2.384   7.331  10.121 -2.5943 -2.6321 -0.9693
   21MOL0     H 2722   2.250   7.287  10.238 -2.3197  2.5542  0.1331
   21MOL0     H 2723   2.307   7.546  10.134  0.0669 -0.4913  0.0209
   21MOL0     H 2724   2.188   7.502  10.265 -2.7539 -1.6010 -1.0713
   21MOL0     H 2725   2.231   7.475   9.869  2.1473 -2.5360  2.1128
   21MOL0     H 2726   1.953   7.447   9.702 -1.7063 -0.0710  4.0929
   21MOL0     H 2727   1.921   7.290   9.728  1.1334 -1.8989 -1.7327
   21MOL0     H 2728   2.191   7.406   9.644 -3.3676  2.4152  1.2377
   21MOL0     H 2729   2.091   7.305   9.544  0.0860  2.4807 -0.8008
   21MOL0     H 2730   2.298   7.204   9.603 -1.4364  0.9804 -1.5801
   21MOL0     H 2731   2.264   7.221   9.781  1.8883 -0.4297 -0.0512
   21MOL0     H 2732   2.208   6.983   9.657  0.7444 -0.5422  0.7738
   21MOL0     H 2733   2.056   7.060   9.615  0.5086  0.5985 -0.6528
   21MOL0     H 2734   2.345   7.012   9.825  1.9311 -1.9486  0.0507
   21MOL0     H 2735   2.470   6.971  10.031  1.0729  0.4987  1.1256
   21MOL0     H 2736   2.185   6.894  10.602 -0.1543  0.5626  4.7354
   21MOL0     H 2737   2.272   6.772  10.805 -2.5135 -0.5611 -3.8716
   21MOL0     H 2738   2.677   6.909  10.919 -0.6653  0.4553  0.3706
   21MOL0     H 2739   2.741   6.751  10.902  1.4310  0.9587  1.7180
   21MOL0     H 2740   2.770   6.787  11.120 -0.4634 -0.7659 -0.5985
   21MOL0     H 2741   2.650   6.667  11.104 -0.0505  0.3281 -0.2091
   21MOL0     H 2742   2.633   6.972  11.155  3.6239 -1.7699 -0.7244
   21MOL0     H 2743   2.614   6.859  11.282 -1.2068 -1.2813  0.1557
   21MOL0     H 2744   2.419   6.879  11.056  3.5621  0.3197 -0.4815
   21MOL0     H 2745   2.421   6.740  11.163  2.2285 -0.5017 -3.2286
   21MOL0     H 2746   2.371   7.040  11.225  1.3001  1.4329  1.2487
   21MOL0     H 2747   2.391   6.923  11.351 -0.8713  1.6494 -1.3642
   21MOL0     H 2748   2.188   6.800  11.264  0.2869 -0.0634  0.7061
   21MOL0     H 2749   2.191   6.893  11.111  2.2884  0.4251 -0.3662
   21MOL0     H 2750   2.146   7.000  11.392  4.0000 -2.6079 -0.6374
   21MOL0     H 2751   2.138   7.106  11.240 -0.9278  0.6791  1.1096
   21MOL0     H 2752   1.959   6.868  11.298  0.2311  0.2747 -0.8171
   21MOL0     H 2753   1.950   6.971  11.157  0.2618  3.0395 -0.0442
   21MOL0     H 2754   2.669   6.850  10.686 -0.3991 -0.2928  0.9935
   21MOL0     H 2755   2.579   6.907  10.456 -1.5200 -2.9425 -0.8780
   21MOL0     H 2756   2.111   7.027  10.258 -0.4405  0.0915 -1.1102
   21MOL0     H 2757   1.987   7.065  10.035 -0.7800  0.5836  1.1847
   21MOL0     H 2758   2.418   7.097  10.768  4.1936  1.2236 -1.4786
   21MOL0     H 2759   2.213   7.187  10.884  1.8772 -2.6213 -1.2767
   21MOL0     H 2760   2.016   7.332  11.225  1.0059 -0.1372  0.3758
   21MOL0     H 2761   1.832   7.397  11.399 -0.2524 -0.0154 -0.6520
   21MOL0     H 2762   1.734   7.838  11.416  0.0616 -0.3092  0.3501
   21MOL0     H 2763   1.842   7.809  11.542  0.2824  0.2376 -0.1161
   21MOL0     H 2764   1.608   7.898  11.588 -0.3256  0.4439 -1.3557
   21MOL0     H 2765   1.545   7.737  11.553 -0.8351  0.5366  1.3854
   21MOL0     H 2766   1.718   7.783  11.791  1.0290 -0.0292 -1.3317
   21MOL0     H 2767   1.690   7.625  11.731 -0.0868 -0.7675 -0.7364
   21MOL0     H 2768   1.433   7.681  11.750 -2.0297  0.8853  4.1358
   21MOL0     H 2769   1.510   7.686  11.901 -1.7212  0.0108 -0.5769
   21MOL0     H 2770   1.487   8.103  11.886 -0.3124 -0.6704  1.7976
   21MOL0     H 2771   1.899   7.812  11.293 -2.0337  0.1594 -3.2583
   21MOL0     H 2772   2.057   7.755  11.149  0.4250  0.0778 -0.7998
   22MOL0     O 2773   0.933   2.679   9.861 -0.8941  0.2791 -0.0797
   22MOL0     C 2774   0.931   2.757   9.962  0.0229 -0.4174  0.1286
   22MOL0     O 2775   0.860   2.875   9.973 -0.2037  0.0544  0.3230
   22MOL0     C 2776   0.803   2.916   9.858 -0.0949  0.0223 -0.3816
   22MOL0     C 2777   0.674   2.975   9.874 -0.1761 -0.2630 -0.2930
   22MOL0     C 2778   0.604   3.025   9.760 -0.5186 -0.0267  0.5482
   22MOL0     C 2779   0.677   3.039   9.639  1.0645  0.6268  0.9044
   22MOL0     O 2780   0.634   3.105   9.525 -0.4760 -0.3274  0.9775
   22MOL0     C 2781   0.502   3.164   9.526  0.0613 -0.0156 -0.1368
   22MOL0     C 2782   0.471   3.210   9.395 -0.8320  0.0753 -0.2965
   22MOL0     C 2783   0.322   3.208   9.352  0.2925 -0.2160  0.1035
   22MOL0     C 2784   0.287   3.260   9.212  0.3902  0.6819  0.8062
   22MOL0     C 2785   0.134   3.261   9.182  0.4340  0.0732 -0.4606
   22MOL0     C 2786   0.050   3.330   9.291  0.5784 -0.3283 -0.3162
   22MOL0     C 2787  -0.089   3.375   9.232 -0.1121  0.6099 -0.4469
   22MOL0     C 2788  -0.199   3.391   9.343 -0.9137  0.3452 -0.5461
   22MOL0     N 2789  -0.328   3.434   9.276 -0.1191 -0.2473  0.5820
   22MOL0     C 2790  -0.408   3.344   9.206  0.9019  0.4930 -0.1058
   22MOL0     C 2791  -0.512   3.423   9.174 -0.1697 -0.1884 -0.1619
   22MOL0     C 2792  -0.625   3.384   9.084 -0.2962  0.5563  0.1591
   22MOL0     C 2793  -0.732   3.315   9.166 -0.5068  0.3149 -0.3934
   22MOL0     C 2794  -0.809   3.392   9.270  0.2627  0.5916 -0.1129
   22MOL0     C 2795  -0.900   3.298   9.354  0.0520 -0.3472  0.5452
   22MOL0     O 2796  -0.965   3.186   9.290  0.5359 -0.3143 -0.2820
   22MOL0     C 2797  -1.086   3.209   9.223 -0.9545 -0.1596  0.6273
   22MOL0     C 2798  -1.157   3.106   9.157  0.4799  0.5859 -0.4118
   22MOL0     C 2799  -1.276   3.123   9.078 -0.1482 -0.2573  1.1574
   22MOL0     C 2800  -1.321   3.250   9.061 -0.2261  0.1941 -0.9185
   22MOL0     C 2801  -1.449   3.275   8.991  0.7081  0.2317 -0.0611
   22MOL0     O 2802  -1.518   3.162   8.942 -0.4021 -0.5338  0.0180
   22MOL0     C 2803  -1.648   3.174   8.894 -0.0001  0.5705  0.0272
   22MOL0     C 2804  -1.754   3.246   8.952 -0.7968  0.4125  0.8081
   22MOL0     C 2805  -1.882   3.237   8.903  0.5642 -0.1249 -0.7753
   22MOL0     C 2806  -1.921   3.158   8.810 -0.0844  0.1550  0.7347
   22MOL0     O 2807  -2.057   3.154   8.799  0.1615  0.0469 -0.1446
   22MOL0     C 2808  -2.114   3.041   8.743  0.3519 -0.4246 -0.4199
   22MOL0     C 2809  -2.255   3.021   8.781 -0.3245 -0.0275 -0.4313
   22MOL0     C 2810  -2.307   2.892   8.720  0.0687 -0.2016 -0.2156
   22MOL0     C 2811  -2.445   2.845   8.792 -0.1894 -0.6963 -0.5962
   22MOL0     C 2812  -2.515   2.756   8.690 -0.0578 -0.6038  0.3714
   22MOL0     C 2813  -2.634   2.708   8.761 -0.2135  0.3451  0.0765
   22MOL0     C 2814  -2.749   2.816   8.774  0.2738 -0.4226 -0.5204
   22MOL0     C 2815  -2.793   2.880   8.645  0.0740 -0.5281  0.6109
   22MOL0    Cl 2816  -2.960   2.947   8.680  0.1394  0.6461  0.4741
   22MOL0     C 2817  -1.819   3.081   8.751  1.1748  0.7027  0.7995
   22MOL0     C 2818  -1.684   3.092   8.787  0.0655 -0.4242  0.7610
   22MOL0     O 2819  -1.494   3.392   8.972 -0.2164 -1.1224 -0.1854
   22MOL0     C 2820  -1.255   3.359   9.119  0.4138 -0.0172 -0.5095
   22MOL0     C 2821  -1.139   3.342   9.193 -0.4915  0.0490  0.3588
   22MOL0     N 2822  -0.499   3.552   9.227 -0.7188  0.4479  0.2682
   22MOL0     N 2823  -0.380   3.557   9.277  1.2412 -0.5953  0.1121
   22MOL0     C 2824   0.805   2.988   9.632 -0.1909  0.8490  0.6042
   22MOL0     C 2825   0.867   2.920   9.731  0.1509 -0.0233  0.0156
   22MOL0     C 2826   1.006   2.715  10.088 -0.1540  0.2346 -0.1937
   22MOL0     C 2827   1.047   2.582  10.100  0.2273  0.2141 -1.1350
   22MOL0     C 2828   1.115   2.551  10.221 -0.7244  0.3700  0.0878
   22MOL0     C 2829   1.148   2.649  10.316  0.0632 -0.2815 -0.7920
   22MOL0     O 2830   1.212   2.608  10.439 -0.3885 -0.2616  0.4732
   22MOL0     C 2831   1.163   2.491  10.498 -0.3186  0.1188 -1.0292
   22MOL0     C 2832   1.223   2.475  10.647 -0.9281  0.2436 -0.2783
   22MOL0     C 2833   1.172   2.363  10.734 -0.5258 -0.5093 -0.4303
   22MOL0     C 2834   1.017   2.362  10.733 -0.1395  0.1254 -0.2427
   22MOL0     C 2835   0.975   2.291  10.851 -0.8114  1.0159 -0.4356
   22MOL0     C 2836   0.934   2.241  10.954  1.2358  0.2744 -0.2047
   22MOL0     C 2837   1.109   2.783  10.295 -0.8671  0.8571 -1.1220
   22MOL0     C 2838   1.034   2.811  10.182 -0.1765 -0.4512  0.1863
   22MOL0     H 2839   0.630   2.978   9.974  2.1806 -2.8282  0.9499
   22MOL0     H 2840   0.509   3.072   9.783 -0.8529 -0.8648  0.8872
   22MOL0     H 2841   0.500   3.249   9.595  0.2212 -0.5029  0.4651
   22MOL0     H 2842   0.423   3.093   9.549  0.5772 -1.1078 -1.5816
   22MOL0     H 2843   0.533   3.144   9.334  0.3075 -0.0028  0.9265
   22MOL0     H 2844   0.495   3.314   9.374 -4.0486  0.9417 -0.2025
   22MOL0     H 2845   0.275   3.280   9.420 -2.2854  0.3355 -2.0696
   22MOL0     H 2846   0.276   3.109   9.354 -0.6258  0.1289 -1.7910
   22MOL0     H 2847   0.322   3.363   9.209  2.1771  0.1241  1.2560
   22MOL0     H 2848   0.353   3.210   9.141  0.9193 -0.0593  1.7876
   22MOL0     H 2849   0.091   3.161   9.169  0.2316 -0.1709  1.8161
   22MOL0     H 2850   0.131   3.316   9.087 -0.4557 -0.0042 -0.4854
   22MOL0     H 2851   0.100   3.416   9.335 -0.2792  1.2401 -2.2488
   22MOL0     H 2852   0.025   3.259   9.370  1.0326 -0.1796 -0.0380
   22MOL0     H 2853  -0.073   3.467   9.174 -0.3825 -0.3510 -2.1296
   22MOL0     H 2854  -0.135   3.301   9.165 -2.5264 -0.0985  1.8275
   22MOL0     H 2855  -0.174   3.464   9.421  0.0692 -0.2233 -0.3123
   22MOL0     H 2856  -0.208   3.302   9.405 -0.7555  0.5288 -0.2520
   22MOL0     H 2857  -0.401   3.241   9.174  2.3775  0.1738  1.1413
   22MOL0     H 2858  -0.593   3.309   9.011 -0.9605  1.1912 -0.8116
   22MOL0     H 2859  -0.662   3.476   9.038  1.9467  1.5307  0.1447
   22MOL0     H 2860  -0.686   3.233   9.221 -2.9919 -2.7107 -2.5026
   22MOL0     H 2861  -0.806   3.261   9.106  0.5914 -0.5152 -1.0618
   22MOL0     H 2862  -0.738   3.431   9.343  1.8208 -1.9940 -0.1394
   22MOL0     H 2863  -0.868   3.471   9.223 -1.0232 -0.9835 -1.2836
   22MOL0     H 2864  -0.979   3.354   9.404  0.0367 -0.5379  0.7353
   22MOL0     H 2865  -0.835   3.253   9.430  0.3061 -1.2493 -0.1875
   22MOL0     H 2866  -1.120   3.005   9.162 -3.4308 -1.3949 -4.4985
   22MOL0     H 2867  -1.326   3.035   9.039  0.4974  0.2771 -0.9971
   22MOL0     H 2868  -1.728   3.311   9.035 -2.2471  0.3100  1.3573
   22MOL0     H 2869  -1.953   3.296   8.960  0.3565  1.2116 -2.3502
   22MOL0     H 2870  -2.055   2.955   8.777  1.9905 -0.2756 -2.7049
   22MOL0     H 2871  -2.106   3.034   8.635 -1.4620  0.4639 -0.6431
   22MOL0     H 2872  -2.309   3.104   8.734  0.5637 -0.3829 -2.1509
   22MOL0     H 2873  -2.253   3.017   8.890  1.0583  5.2958  0.0044
   22MOL0     H 2874  -2.231   2.814   8.729  0.4878  0.2061 -0.2317
   22MOL0     H 2875  -2.328   2.911   8.615  0.6532  4.3665  0.3203
   22MOL0     H 2876  -2.428   2.787   8.883 -2.4136  0.9683  1.0002
   22MOL0     H 2877  -2.515   2.927   8.813 -0.5086 -1.2593  0.6348
   22MOL0     H 2878  -2.439   2.679   8.674  4.8156  3.8919 -0.8708
   22MOL0     H 2879  -2.540   2.798   8.592  1.3177 -2.6969 -0.9572
   22MOL0     H 2880  -2.605   2.687   8.865 -1.4705 -1.9612  0.0421
   22MOL0     H 2881  -2.670   2.616   8.714 -0.5222 -0.2621  1.4432
   22MOL0     H 2882  -2.835   2.764   8.817 -0.1893  0.6756 -0.0692
   22MOL0     H 2883  -2.721   2.888   8.852 -0.7187 -2.8160  2.2147
   22MOL0     H 2884  -2.792   2.802   8.569 -1.2296  1.3491 -1.4488
   22MOL0     H 2885  -2.729   2.966   8.624 -2.2790  1.8028  2.2832
   22MOL0     H 2886  -1.852   3.025   8.664 -1.6380  3.2901  0.0081
   22MOL0     H 2887  -1.612   3.034   8.730 -0.1115  0.2225 -0.1497
   22MOL0     H 2888  -1.297   3.459   9.109 -0.8855 -0.3607  1.1503
   22MOL0     H 2889  -1.072   3.417   9.233 -0.5935 -0.5410  1.7106
   22MOL0     H 2890   0.854   3.006   9.537 -0.6781 -1.7329 -0.2430
   22MOL0     H 2891   0.966   2.880   9.710  2.0106  2.8687  2.4498
   22MOL0     H 2892   1.034   2.500  10.030  1.6600  0.0633 -1.2668
   22MOL0     H 2893   1.146   2.450  10.245  0.6641  1.0230  1.1996
   22MOL0     H 2894   1.186   2.397  10.447 -2.3739 -0.5449 -0.8185
   22MOL0     H 2895   1.054   2.498  10.494 -0.6574 -2.6555  0.7199
   22MOL0     H 2896   1.331   2.467  10.641 -0.7547  2.3058 -0.9154
   22MOL0     H 2897   1.209   2.566  10.707 -0.8717 -0.0535  0.1913
   22MOL0     H 2898   1.209   2.378  10.835 -1.5616  0.1098 -0.1249
   22MOL0     H 2899   1.213   2.272  10.689  0.4121 -1.1886  1.7014
   22MOL0     H 2900   0.981   2.465  10.732 -0.1109  0.1741  1.1152
   22MOL0     H 2901   0.970   2.318  10.644  0.2512  0.0621 -0.4195
   22MOL0     H 2902   0.903   2.205  11.051 -0.5076  3.3018  0.4746
   22MOL0     H 2903   1.140   2.851  10.373 -1.0454 -0.4792  0.1566
   22MOL0     H 2904   1.000   2.914  10.169 -2.4829 -1.1782 -0.0760
   23MOL0     O 2905   4.187   9.270   3.794 -0.9319  0.0382  0.1349
   23MOL0     C 2906   4.178   9.213   3.685  0.2584 -0.2430  0.1163
   23MOL0     O 2907   4.065   9.207   3.605  0.0322 -0.0416  0.0213
   23MOL0     C 2908   3.944   9.253   3.639 -0.8043  0.3014 -0.4774
   23MOL0     C 2909   3.849   9.278   3.539 -0.2104  0.4077 -0.0882
   23MOL0     C 2910   3.728   9.332   3.580 -0.4085  0.1192 -0.0823
   23MOL0     C 2911   3.695   9.352   3.712 -0.3770  0.2374  0.1862
   23MOL0     O 2912   3.575   9.420   3.749  0.4488  0.4748 -0.1243
   23MOL0     C 2913   3.460   9.374   3.670  0.2305  0.3523 -0.3143
   23MOL0     C 2914   3.340   9.444   3.728  0.8693  0.5712  0.2080
   23MOL0     C 2915   3.206   9.428   3.644 -1.6171 -0.0250 -0.1705
   23MOL0     C 2916   3.211   9.475   3.496  0.1387 -0.7933  0.8553
   23MOL0     C 2917   3.081   9.447   3.416  0.1068  0.0540  0.2281
   23MOL0     C 2918   2.970   9.546   3.464  0.1835 -0.2663 -0.3855
   23MOL0     C 2919   2.848   9.546   3.362  0.1478 -0.4335 -0.9395
   23MOL0     C 2920   2.750   9.652   3.393  0.3112  0.4907  0.0498
   23MOL0     N 2921   2.634   9.647   3.303  0.4565 -0.4459 -0.5638
   23MOL0     C 2922   2.506   9.651   3.349 -0.0736 -0.1639 -0.4134
   23MOL0     C 2923   2.432   9.712   3.256  0.1057  0.3978  0.7323
   23MOL0     C 2924   2.286   9.747   3.265 -0.3979 -0.9405 -0.7634
   23MOL0     C 2925   2.210   9.617   3.274  0.7813  1.0955  0.0752
   23MOL0     C 2926   2.052   9.642   3.267  0.4276 -1.5785  0.2533
   23MOL0     C 2927   1.991   9.594   3.133  0.6672  0.2178 -0.2807
   23MOL0     O 2928   1.906   9.701   3.100 -0.0301  0.0498  0.4429
   23MOL0     C 2929   1.769   9.675   3.119 -0.3341  1.1976 -0.0243
   23MOL0     C 2930   1.686   9.732   3.029 -0.1537  0.1116  1.1108
   23MOL0     C 2931   1.549   9.711   3.035  0.1787  0.7299 -0.0995
   23MOL0     C 2932   1.488   9.628   3.128  0.0857  0.1462  0.5048
   23MOL0     C 2933   1.341   9.618   3.139  0.1498 -0.1649 -0.5706
   23MOL0     O 2934   1.270   9.649   3.027  0.1869  0.1395  0.5156
   23MOL0     C 2935   1.128   9.634   3.023 -0.0783  0.6323  0.0950
   23MOL0     C 2936   1.079   9.599   2.895  0.5052 -0.3607 -1.1025
   23MOL0     C 2937   0.945   9.574   2.876  0.7764  1.2639 -0.1109
   23MOL0     C 2938   0.853   9.572   2.987 -0.3809  0.0806  0.4428
   23MOL0     O 2939   0.721   9.557   2.949 -0.0500 -0.5543 -0.6143
   23MOL0     C 2940   0.633   9.567   3.063 -0.0240 -0.0173  0.2592
   23MOL0     C 2941   0.492   9.527   3.018  0.3474 -0.6294  0.0975
   23MOL0     C 2942   0.390   9.512   3.125 -0.5756 -0.4034 -0.3272
   23MOL0     C 2943   0.249   9.501   3.065 -0.8369  0.3958  0.1508
   23MOL0     C 2944   0.136   9.490   3.175  0.7240  0.5890  0.0095
   23MOL0     C 2945  -0.002   9.485   3.110 -0.0968  0.2524  0.5230
   23MOL0     C 2946  -0.114   9.494   3.216 -0.2177 -0.3272 -0.3097
   23MOL0     C 2947  -0.233   9.572   3.161  0.1712  0.0435 -0.3271
   23MOL0    Cl 2948  -0.364   9.582   3.282  0.1955  0.4045 -0.0039
   23MOL0     C 2949   0.899   9.615   3.113 -0.6124  0.8109 -0.1915
   23MOL0     C 2950   1.039   9.644   3.134  1.1512 -0.0056  0.3369
   23MOL0     O 2951   1.295   9.572   3.244  0.1224  0.0791 -0.9379
   23MOL0     C 2952   1.573   9.562   3.214 -0.0323  0.0265 -1.1194
   23MOL0     C 2953   1.713   9.575   3.202  0.6006 -0.3464 -0.2418
   23MOL0     N 2954   2.532   9.755   3.150  0.8513  0.7871 -0.9324
   23MOL0     N 2955   2.648   9.711   3.178  0.6128 -0.7150 -1.1197
   23MOL0     C 2956   3.788   9.339   3.806  0.5665  0.0627  0.5325
   23MOL0     C 2957   3.911   9.274   3.776  1.0196 -0.3103  0.3441
   23MOL0     C 2958   4.292   9.170   3.610 -0.6334 -0.0144 -0.1941
   23MOL0     C 2959   4.418   9.227   3.634  0.0017  0.4582 -0.2748
   23MOL0     C 2960   4.537   9.183   3.569  0.5443 -0.1783 -0.2995
   23MOL0     C 2961   4.528   9.081   3.478  0.2962  0.6007  0.2590
   23MOL0     O 2962   4.636   9.021   3.409 -0.3281  0.7226  0.3176
   23MOL0     C 2963   4.777   9.051   3.425  0.8204  0.0225  0.4471
   23MOL0     C 2964   4.827   9.162   3.330 -0.1822  0.2189 -0.6603
   23MOL0     C 2965   4.848   9.097   3.191  0.2522  1.3288 -0.4614
   23MOL0     C 2966   4.908   9.193   3.096  0.7824 -0.3514  0.1145
   23MOL0     C 2967   5.036   9.242   3.136  0.2349 -0.3458  0.9768
   23MOL0     C 2968   5.148   9.296   3.144  0.5245 -0.3823 -0.0763
   23MOL0     C 2969   4.406   9.022   3.450 -0.1429  0.5594 -0.7362
   23MOL0     C 2970   4.291   9.057   3.518  0.0839  0.9366  0.1392
   23MOL0     H 2971   3.866   9.252   3.435  1.8736 -3.7407  1.0723
   23MOL0     H 2972   3.654   9.352   3.503 -0.3486  1.2614  0.1470
   23MOL0     H 2973   3.453   9.265   3.673  1.2169  0.2996  1.0310
   23MOL0     H 2974   3.473   9.405   3.566 -0.9499  0.5248 -0.4258
   23MOL0     H 2975   3.357   9.552   3.725  0.8382  0.5923  0.6887
   23MOL0     H 2976   3.320   9.422   3.833  1.0358  0.4766  0.2191
   23MOL0     H 2977   3.134   9.490   3.697  0.7719 -0.4163  3.9457
   23MOL0     H 2978   3.193   9.319   3.643  1.6934 -0.6130  2.2434
   23MOL0     H 2979   3.238   9.581   3.493 -0.4735 -0.5655  2.5136
   23MOL0     H 2980   3.291   9.421   3.443 -0.1595 -0.4320  0.0223
   23MOL0     H 2981   3.049   9.344   3.434 -0.8262  0.2011 -0.5201
   23MOL0     H 2982   3.099   9.451   3.309  0.2261 -0.4221  0.2312
   23MOL0     H 2983   3.024   9.641   3.465  1.8318 -1.1214 -2.0072
   23MOL0     H 2984   2.931   9.520   3.563  2.8927 -0.0576  0.8223
   23MOL0     H 2985   2.899   9.556   3.265  2.9316 -1.6332  0.2792
   23MOL0     H 2986   2.803   9.447   3.352 -1.3815  0.2489 -1.0746
   23MOL0     H 2987   2.808   9.745   3.387 -0.8798  1.2310 -0.4369
   23MOL0     H 2988   2.717   9.638   3.497 -2.1518 -1.8747 -0.9431
   23MOL0     H 2989   2.480   9.610   3.446  0.9090  1.5895  0.6546
   23MOL0     H 2990   2.268   9.803   3.174  2.2880 -0.1153 -0.8620
   23MOL0     H 2991   2.273   9.816   3.349  0.3224 -0.3068 -1.1600
   23MOL0     H 2992   2.242   9.582   3.373  1.6368  2.9816  0.5086
   23MOL0     H 2993   2.232   9.532   3.208 -1.9888  0.6190 -0.3826
   23MOL0     H 2994   2.006   9.592   3.353 -1.8726 -0.7752 -0.4291
   23MOL0     H 2995   2.028   9.746   3.288  1.1423 -1.0419 -1.4117
   23MOL0     H 2996   1.945   9.497   3.151  1.7223 -0.7781 -2.6112
   23MOL0     H 2997   2.064   9.585   3.052  0.6882 -2.8274 -0.0100
   23MOL0     H 2998   1.722   9.807   2.958  0.4340  0.2585  1.5563
   23MOL0     H 2999   1.484   9.764   2.965  1.7966  4.7411  1.1448
   23MOL0     H 3000   1.146   9.578   2.813 -0.3650  0.3468 -2.0287
   23MOL0     H 3001   0.920   9.522   2.784  1.0050  0.2278  0.4004
   23MOL0     H 3002   0.636   9.670   3.101  3.7569 -0.2165  0.9489
   23MOL0     H 3003   0.670   9.499   3.141  1.4966  2.3463  1.7538
   23MOL0     H 3004   0.508   9.428   2.975 -0.0128 -1.1467  1.1262
   23MOL0     H 3005   0.463   9.606   2.948 -0.0676  0.1645  1.1370
   23MOL0     H 3006   0.401   9.591   3.200  0.6178  0.5195 -1.4278
   23MOL0     H 3007   0.419   9.420   3.177 -3.8152 -0.0253  2.5039
   23MOL0     H 3008   0.228   9.596   3.014  0.1606 -0.2723 -1.5476
   23MOL0     H 3009   0.242   9.429   2.984  3.4216  1.8081 -1.7299
   23MOL0     H 3010   0.129   9.573   3.246 -3.0177 -0.7003  1.3897
   23MOL0     H 3011   0.151   9.403   3.238  0.4925  0.8721  0.4592
   23MOL0     H 3012  -0.016   9.395   3.050  0.5444  0.0238  0.7136
   23MOL0     H 3013  -0.014   9.570   3.042  0.3801 -0.8992 -1.0736
   23MOL0     H 3014  -0.137   9.391   3.245  3.2721 -2.4699 -4.0435
   23MOL0     H 3015  -0.078   9.542   3.307 -1.2461 -1.5916  0.8165
   23MOL0     H 3016  -0.282   9.520   3.077 -3.7101  2.3041  0.2815
   23MOL0     H 3017  -0.196   9.671   3.133  4.3296 -0.9519  0.9791
   23MOL0     H 3018   0.823   9.625   3.190 -1.6006 -0.2859 -0.9787
   23MOL0     H 3019   1.082   9.684   3.225 -0.4139  0.6415  0.8208
   23MOL0     H 3020   1.538   9.491   3.288  2.9814 -2.3067 -1.7147
   23MOL0     H 3021   1.775   9.521   3.273 -1.0845 -1.6474  0.3056
   23MOL0     H 3022   3.758   9.378   3.903  0.5056 -2.0430  1.4008
   23MOL0     H 3023   3.974   9.238   3.857  2.0671 -2.3653 -1.2639
   23MOL0     H 3024   4.423   9.309   3.706  2.1711  0.6839 -0.6364
   23MOL0     H 3025   4.639   9.218   3.580  0.0982  0.8641  0.7298
   23MOL0     H 3026   4.829   8.956   3.407  0.4988  0.3199 -2.4861
   23MOL0     H 3027   4.791   9.076   3.530 -3.8285 -0.5607  1.3888
   23MOL0     H 3028   4.749   9.239   3.329  1.6858  2.2371 -0.0610
   23MOL0     H 3029   4.922   9.197   3.372 -0.6049  0.3078  0.2516
   23MOL0     H 3030   4.750   9.079   3.147 -0.4023  2.0980  0.6274
   23MOL0     H 3031   4.909   9.006   3.195  0.8226  1.7432  1.6094
   23MOL0     H 3032   4.913   9.150   2.996 -0.6760 -0.6681  0.1523
   23MOL0     H 3033   4.836   9.275   3.087 -0.3064 -1.0837  1.5928
   23MOL0     H 3034   5.242   9.346   3.155  1.8332 -1.7364 -3.6396
   23MOL0     H 3035   4.402   8.932   3.390  1.1908 -0.4104  0.5426
   23MOL0     H 3036   4.197   9.004   3.504  1.7911 -2.1562 -0.2738
   24MOL0     O 3037   1.851   0.552   1.820 -0.9368  0.2886 -0.0202
   24MOL0     C 3038   1.891   0.485   1.910 -0.0495 -0.0691 -0.7083
   24MOL0     O 3039   1.828   0.376   1.964  0.4650 -0.4351  0.9889
   24MOL0     C 3040   1.729   0.319   1.901 -0.2647  0.2601  0.7413
   24MOL0     C 3041   1.763   0.213   1.823 -0.4206  0.2597 -0.5930
   24MOL0     C 3042   1.673   0.125   1.766  1.3207 -0.3531  0.4957
   24MOL0     C 3043   1.534   0.153   1.773 -0.4141  0.1105 -0.7046
   24MOL0     O 3044   1.442   0.080   1.701 -1.1703 -0.5014  0.1230
   24MOL0     C 3045   1.314   0.056   1.750 -0.2921  0.5459  0.6444
   24MOL0     C 3046   1.270  -0.069   1.690  0.2720  0.3742 -0.3396
   24MOL0     C 3047   1.164  -0.124   1.786  0.2488  0.2250  0.8009
   24MOL0     C 3048   1.071  -0.240   1.734 -0.5288 -0.0710 -0.5757
   24MOL0     C 3049   0.969  -0.276   1.840  0.0444  0.3491 -0.1267
   24MOL0     C 3050   0.888  -0.408   1.803 -0.2491 -0.0965 -0.0445
   24MOL0     C 3051   0.799  -0.444   1.921 -0.6785 -0.6838  0.8126
   24MOL0     C 3052   0.735  -0.575   1.914  0.2964 -0.8047 -0.1651
   24MOL0     N 3053   0.602  -0.568   1.852 -0.2888  0.2798  0.0568
   24MOL0     C 3054   0.562  -0.505   1.740 -0.0858 -0.6823 -0.5328
   24MOL0     C 3055   0.429  -0.501   1.750  1.2873  0.0342 -0.3699
   24MOL0     C 3056   0.327  -0.452   1.649  0.1178  0.4371  0.0179
   24MOL0     C 3057   0.230  -0.366   1.723  0.7162  0.0312  0.5654
   24MOL0     C 3058   0.131  -0.296   1.628  0.5762 -0.4987 -0.4146
   24MOL0     C 3059   0.043  -0.394   1.560  0.0204 -0.0444  0.2582
   24MOL0     O 3060  -0.052  -0.311   1.496  1.3004 -0.0659  0.1922
   24MOL0     C 3061  -0.163  -0.367   1.429  0.0864  0.5127 -0.0642
   24MOL0     C 3062  -0.179  -0.505   1.408  0.7227 -0.6499 -0.1173
   24MOL0     C 3063  -0.305  -0.553   1.387 -0.3042 -0.0682 -0.5675
   24MOL0     C 3064  -0.423  -0.464   1.365 -0.3713 -0.1439  0.8178
   24MOL0     C 3065  -0.569  -0.512   1.359  0.0127  0.3929  0.2672
   24MOL0     O 3066  -0.581  -0.637   1.314 -0.4709  0.5902  0.7051
   24MOL0     C 3067  -0.705  -0.700   1.295  0.5849 -1.0694 -0.4639
   24MOL0     C 3068  -0.733  -0.753   1.166 -0.1343  0.3836 -0.0381
   24MOL0     C 3069  -0.852  -0.826   1.145 -0.0227  0.5883  0.5387
   24MOL0     C 3070  -0.943  -0.840   1.251  0.4497 -0.2610  0.3976
   24MOL0     O 3071  -1.060  -0.906   1.218  0.2630  0.3926  0.7776
   24MOL0     C 3072  -1.183  -0.857   1.276 -0.8318 -0.5840 -0.1276
   24MOL0     C 3073  -1.266  -0.766   1.184  0.8153 -0.4463 -0.1272
   24MOL0     C 3074  -1.356  -0.839   1.081  0.3213  0.6493  1.1459
   24MOL0     C 3075  -1.438  -0.751   0.998 -0.1063 -0.9710 -0.5496
   24MOL0     C 3076  -1.546  -0.819   0.918 -0.0375  0.6962 -0.3908
   24MOL0     C 3077  -1.522  -0.862   0.775 -0.4143  0.2145  0.4792
   24MOL0     C 3078  -1.645  -0.884   0.686  0.4277 -0.4554 -0.0854
   24MOL0     C 3079  -1.597  -0.941   0.552 -0.1383 -0.0602  0.7745
   24MOL0    Cl 3080  -1.751  -0.942   0.440  0.0478 -0.1916  0.1398
   24MOL0     C 3081  -0.913  -0.777   1.370  0.6939  0.7915 -0.1756
   24MOL0     C 3082  -0.794  -0.702   1.399  0.0276 -0.1910 -0.2095
   24MOL0     O 3083  -0.662  -0.441   1.398  0.1429 -0.2094 -0.4777
   24MOL0     C 3084  -0.397  -0.329   1.352 -0.6945 -0.3485  0.1498
   24MOL0     C 3085  -0.264  -0.276   1.392  0.3122  0.4394  0.1604
   24MOL0     N 3086   0.386  -0.559   1.872 -0.1739  0.3848  0.4462
   24MOL0     N 3087   0.499  -0.602   1.925 -0.2263 -0.5683 -0.1221
   24MOL0     C 3088   1.494   0.268   1.854 -0.0572 -0.4726 -1.2369
   24MOL0     C 3089   1.591   0.344   1.926 -0.1084  0.6649 -0.5389
   24MOL0     C 3090   2.015   0.527   1.976 -0.5402  0.2422  0.5027
   24MOL0     C 3091   2.091   0.436   2.053 -0.0202  0.2794 -0.6766
   24MOL0     C 3092   2.209   0.470   2.122 -0.3990  0.0257  0.6121
   24MOL0     C 3093   2.266   0.597   2.101  0.3550 -0.2749 -1.2151
   24MOL0     O 3094   2.398   0.620   2.148  0.3871  0.3901 -0.1444
   24MOL0     C 3095   2.461   0.738   2.097 -0.3273 -0.2381 -0.1702
   24MOL0     C 3096   2.608   0.750   2.151 -0.0056  0.1235  0.5143
   24MOL0     C 3097   2.679   0.860   2.073 -0.8459  0.2849 -0.1218
   24MOL0     C 3098   2.830   0.884   2.115 -0.1908  0.8903  1.1037
   24MOL0     C 3099   2.908   0.769   2.094  0.0445 -0.4490 -0.3043
   24MOL0     C 3100   2.973   0.663   2.085 -0.3170 -0.9651  0.3494
   24MOL0     C 3101   2.194   0.680   2.021  0.0705  0.2231 -0.3124
   24MOL0     C 3102   2.067   0.660   1.969  0.0225 -0.0539  0.2756
   24MOL0     H 3103   1.869   0.190   1.821 -0.9713 -4.0788  2.7953
   24MOL0     H 3104   1.720   0.058   1.695 -0.4581  1.3897 -2.5226
   24MOL0     H 3105   1.241   0.128   1.711 -1.7303 -0.2714  1.6931
   24MOL0     H 3106   1.313   0.061   1.859  1.9299 -0.9906  0.8088
   24MOL0     H 3107   1.359  -0.131   1.703 -1.1077 -1.3489  1.7089
   24MOL0     H 3108   1.229  -0.058   1.589 -1.3299  1.2471  0.3648
   24MOL0     H 3109   1.099  -0.039   1.807  0.9246  0.1157  3.9348
   24MOL0     H 3110   1.200  -0.166   1.881 -1.7695  0.4554  1.7139
   24MOL0     H 3111   1.014  -0.210   1.646  1.0882 -0.3199 -1.7492
   24MOL0     H 3112   1.127  -0.330   1.707 -2.1582 -0.6612 -2.0990
   24MOL0     H 3113   0.895  -0.197   1.854  0.5919  0.5423  2.0155
   24MOL0     H 3114   1.016  -0.293   1.937 -2.6849  1.6848  1.5603
   24MOL0     H 3115   0.957  -0.491   1.786 -0.9529 -0.8256  0.5758
   24MOL0     H 3116   0.830  -0.402   1.710  0.6339  0.4521 -0.5799
   24MOL0     H 3117   0.880  -0.450   1.994 -0.4388  2.6760  0.9732
   24MOL0     H 3118   0.732  -0.360   1.939  2.3637  2.3780 -0.8441
   24MOL0     H 3119   0.721  -0.606   2.018  1.2850 -1.5403 -0.2321
   24MOL0     H 3120   0.789  -0.650   1.854 -1.1647  0.0859 -2.7747
   24MOL0     H 3121   0.618  -0.458   1.660 -0.7006  1.8508  0.4229
   24MOL0     H 3122   0.272  -0.529   1.596 -2.3831  1.5020  0.8842
   24MOL0     H 3123   0.382  -0.410   1.565 -0.0979 -1.9956 -1.4074
   24MOL0     H 3124   0.281  -0.288   1.781  1.6976 -0.2394  0.0990
   24MOL0     H 3125   0.180  -0.428   1.798  0.2152 -0.0872  0.1383
   24MOL0     H 3126   0.074  -0.226   1.689  2.1503 -2.0006  3.0990
   24MOL0     H 3127   0.191  -0.248   1.550 -2.6078  1.5827 -1.7537
   24MOL0     H 3128  -0.009  -0.465   1.625 -0.3878  0.4602  0.4971
   24MOL0     H 3129   0.102  -0.459   1.495  0.8942 -1.1983  2.1272
   24MOL0     H 3130  -0.104  -0.578   1.439  2.1848  0.3658 -1.1019
   24MOL0     H 3131  -0.314  -0.661   1.388 -1.1905 -0.0686  3.2910
   24MOL0     H 3132  -0.666  -0.754   1.080  0.0260  2.0066  0.0509
   24MOL0     H 3133  -0.860  -0.880   1.052  1.3581  1.3215 -0.0256
   24MOL0     H 3134  -1.155  -0.801   1.365  0.6774 -2.6891  0.7778
   24MOL0     H 3135  -1.244  -0.938   1.317 -2.2174 -0.5669 -1.9791
   24MOL0     H 3136  -1.203  -0.696   1.128 -1.3786  2.0019  0.3140
   24MOL0     H 3137  -1.314  -0.693   1.249  1.9253  0.3099 -0.1259
   24MOL0     H 3138  -1.420  -0.911   1.134  1.0163 -3.0002 -2.4408
   24MOL0     H 3139  -1.282  -0.895   1.022 -0.5244  2.6845 -2.1087
   24MOL0     H 3140  -1.495  -0.697   1.073  2.4067 -2.9972  3.1134
   24MOL0     H 3141  -1.385  -0.677   0.936 -1.4867 -1.0938 -1.9411
   24MOL0     H 3142  -1.627  -0.746   0.910 -1.7884 -1.0306  0.6230
   24MOL0     H 3143  -1.579  -0.907   0.973 -0.0045  1.0521  0.1997
   24MOL0     H 3144  -1.476  -0.961   0.776  0.2488  0.4492 -1.7201
   24MOL0     H 3145  -1.444  -0.798   0.732 -0.9570  1.3590  1.1524
   24MOL0     H 3146  -1.716  -0.955   0.728 -0.4622  0.0547 -0.6947
   24MOL0     H 3147  -1.705  -0.795   0.666  2.3866  0.9263 -0.1095
   24MOL0     H 3148  -1.557  -1.042   0.559 -3.6046 -1.5323  1.3806
   24MOL0     H 3149  -1.512  -0.883   0.514  2.3936 -4.7921 -1.6477
   24MOL0     H 3150  -0.975  -0.800   1.456  2.7354 -2.4092  0.6229
   24MOL0     H 3151  -0.773  -0.658   1.496  1.6244 -0.3335 -0.4654
   24MOL0     H 3152  -0.469  -0.251   1.330  0.2250  0.6320  0.5217
   24MOL0     H 3153  -0.247  -0.169   1.390  1.1097  0.3224  0.5540
   24MOL0     H 3154   1.387   0.277   1.874 -0.0079 -2.5836  0.4639
   24MOL0     H 3155   1.564   0.435   1.980  3.4006  2.2293 -1.1366
   24MOL0     H 3156   2.069   0.331   2.064  2.5161 -0.2811 -0.3686
   24MOL0     H 3157   2.258   0.394   2.182 -1.7792  1.0980  3.2646
   24MOL0     H 3158   2.417   0.833   2.130  1.6417  0.4536  0.6003
   24MOL0     H 3159   2.468   0.736   1.988  3.0663 -0.8699 -0.0631
   24MOL0     H 3160   2.616   0.764   2.260 -1.1701  1.1750  0.4924
   24MOL0     H 3161   2.645   0.652   2.120 -1.0926 -0.1315 -0.0557
   24MOL0     H 3162   2.619   0.949   2.097  0.0709  0.6343  0.9283
   24MOL0     H 3163   2.675   0.831   1.967 -1.8091 -3.3171  0.7886
   24MOL0     H 3164   2.889   0.962   2.067  0.2849 -1.1312 -1.8774
   24MOL0     H 3165   2.823   0.884   2.224 -0.5167 -0.1141  1.0992
   24MOL0     H 3166   3.030   0.573   2.082  0.6297 -0.3658  0.1650
   24MOL0     H 3167   2.230   0.780   1.999  1.2927 -0.2909 -0.7188
   24MOL0     H 3168   2.013   0.741   1.922 -1.3913 -1.5840 -0.8252
   25MOL0     O 3169   7.297   9.765   1.122  0.5614 -0.0406  0.0106
   25MOL0     C 3170   7.395   9.733   1.058 -0.1811 -0.1592 -0.0113
   25MOL0     O 3171   7.411   9.626   0.970 -0.9799  0.2319 -0.1251
   25MOL0     C 3172   7.289   9.560   0.954  0.0668  0.1425 -0.1084
   25MOL0     C 3173   7.212   9.560   0.838 -0.0372 -0.1799  0.5720
   25MOL0     C 3174   7.087   9.499   0.832  0.0257  1.0837 -0.2779
   25MOL0     C 3175   7.033   9.428   0.939 -0.1457 -0.3127  0.5036
   25MOL0     O 3176   6.905   9.378   0.941 -0.1998  0.5775 -0.5214
   25MOL0     C 3177   6.877   9.300   0.825 -0.0508  0.2675  0.4279
   25MOL0     C 3178   6.751   9.228   0.850  0.5496  0.2927  0.9907
   25MOL0     C 3179   6.617   9.312   0.818 -0.2986  0.3742  0.2290
   25MOL0     C 3180   6.508   9.279   0.923 -0.6244  0.4838 -0.4700
   25MOL0     C 3181   6.371   9.324   0.886 -0.9738 -0.3750 -0.0823
   25MOL0     C 3182   6.269   9.229   0.953 -0.1070 -0.7196 -1.1113
   25MOL0     C 3183   6.128   9.293   0.927 -0.3209  0.3266 -0.0113
   25MOL0     C 3184   6.023   9.185   0.950 -0.2545  0.0981  0.5564
   25MOL0     N 3185   5.886   9.237   0.949  0.5247 -0.8226  0.2083
   25MOL0     C 3186   5.839   9.372   0.951  0.3021 -0.3667  0.3676
   25MOL0     C 3187   5.702   9.358   0.964 -0.1834 -0.5280  0.1564
   25MOL0     C 3188   5.608   9.476   0.987 -0.6028  0.1153  0.5229
   25MOL0     C 3189   5.496   9.486   0.887 -0.2706  0.2381 -0.0413
   25MOL0     C 3190   5.401   9.609   0.912 -0.1154  0.1852 -0.0136
   25MOL0     C 3191   5.257   9.598   0.881  0.5371 -0.1017  0.4900
   25MOL0     O 3192   5.184   9.721   0.896  0.3536 -0.3694  0.0255
   25MOL0     C 3193   5.048   9.721   0.869 -0.3167  1.0816 -0.5401
   25MOL0     C 3194   5.015   9.791   0.752  0.4869  0.0741  0.1076
   25MOL0     C 3195   4.886   9.822   0.723  0.5388  0.7717 -0.5670
   25MOL0     C 3196   4.786   9.754   0.805 -1.2497 -0.3456 -0.6971
   25MOL0     C 3197   4.651   9.747   0.761 -0.3000 -1.0791 -0.2592
   25MOL0     O 3198   4.613   9.834   0.659  0.3925 -0.3182  0.1921
   25MOL0     C 3199   4.483   9.839   0.619  0.2147  1.0354  0.0203
   25MOL0     C 3200   4.470   9.885   0.487 -0.3244  0.6288 -0.4264
   25MOL0     C 3201   4.337   9.886   0.434  1.1690 -0.1010  0.4821
   25MOL0     C 3202   4.220   9.855   0.507  0.7047  1.1316 -0.3371
   25MOL0     O 3203   4.095   9.834   0.456 -0.2490  0.6434 -0.3701
   25MOL0     C 3204   4.096   9.772   0.328 -0.9094 -0.3178  1.0935
   25MOL0     C 3205   3.957   9.717   0.295  1.5547 -0.0815 -0.0794
   25MOL0     C 3206   3.924   9.606   0.394  0.8199 -1.1187  0.1733
   25MOL0     C 3207   3.774   9.547   0.386  0.3934  0.2693  0.4118
   25MOL0     C 3208   3.758   9.473   0.249 -0.6472 -0.0680 -0.5262
   25MOL0     C 3209   3.629   9.383   0.252 -0.5817  0.3113 -0.5769
   25MOL0     C 3210   3.494   9.458   0.279  0.2356  0.0984 -0.2784
   25MOL0     C 3211   3.462   9.579   0.191  0.3551 -0.3218  0.3774
   25MOL0    Cl 3212   3.476   9.528   0.014 -0.6256  0.1180 -0.2215
   25MOL0     C 3213   4.242   9.822   0.636 -0.6176 -1.1933  0.2025
   25MOL0     C 3214   4.369   9.817   0.694  0.7592 -1.3239 -0.8100
   25MOL0     O 3215   4.585   9.648   0.798  0.2594 -0.3122  0.4801
   25MOL0     C 3216   4.820   9.673   0.914  0.7840  0.5037 -0.0731
   25MOL0     C 3217   4.950   9.660   0.949  1.2179  0.1912 -0.2044
   25MOL0     N 3218   5.673   9.223   0.994 -0.2290  0.4201  0.2729
   25MOL0     N 3219   5.783   9.153   0.978 -0.9903  0.2353 -0.2953
   25MOL0     C 3220   7.117   9.415   1.056  0.1855 -0.0081  0.0696
   25MOL0     C 3221   7.242   9.478   1.057 -0.0754  0.3394 -0.3183
   25MOL0     C 3222   7.517   9.820   1.070  0.1412 -0.8698 -0.3873
   25MOL0     C 3223   7.524   9.929   1.152  0.5891  0.1485 -0.1770
   25MOL0     C 3224   7.643   9.998   1.168 -0.6923  0.0352 -0.0881
   25MOL0     C 3225   7.761   9.964   1.097 -0.5831 -0.2837  0.3048
   25MOL0     O 3226   7.887  10.023   1.113  0.4198 -0.1545  0.7299
   25MOL0     C 3227   7.905  10.135   1.199 -0.8116 -0.1597 -0.2321
   25MOL0     C 3228   8.038  10.207   1.186 -0.1538 -0.7638  0.3169
   25MOL0     C 3229   8.149  10.096   1.216  0.5799  0.1172 -0.4350
   25MOL0     C 3230   8.284  10.152   1.199  0.0430 -0.3176 -0.4450
   25MOL0     C 3231   8.393  10.057   1.168  0.3021 -0.6753 -0.7163
   25MOL0     C 3232   8.489   9.991   1.124 -0.0781  0.3459 -0.0286
   25MOL0     C 3233   7.762   9.854   1.013  0.1581  0.2030 -0.1291
   25MOL0     C 3234   7.636   9.790   0.994 -0.6303  0.7633 -0.3236
   25MOL0     H 3235   7.226   9.636   0.761  0.9937  2.1440  2.8682
   25MOL0     H 3236   7.022   9.500   0.745 -4.5933  0.2205  2.8088
   25MOL0     H 3237   6.965   9.237   0.811  0.0881  0.8506 -1.6929
   25MOL0     H 3238   6.849   9.363   0.740 -2.8378 -2.7845 -1.1670
   25MOL0     H 3239   6.742   9.196   0.954 -0.9724 -1.7389  0.3125
   25MOL0     H 3240   6.748   9.132   0.796  0.8863  0.5364  0.5356
   25MOL0     H 3241   6.582   9.296   0.716  0.5428  0.3598 -0.0603
   25MOL0     H 3242   6.638   9.416   0.846 -1.4626  0.7595 -0.2774
   25MOL0     H 3243   6.501   9.174   0.954 -0.3200  0.8256  0.8137
   25MOL0     H 3244   6.536   9.332   1.013  0.3364 -0.4687 -0.1826
   25MOL0     H 3245   6.368   9.324   0.777 -0.3392 -1.3048 -0.1163
   25MOL0     H 3246   6.359   9.424   0.928  0.1003 -0.5836  0.7811
   25MOL0     H 3247   6.299   9.228   1.058 -0.9064  0.7544 -0.8390
   25MOL0     H 3248   6.288   9.130   0.911 -1.6777 -2.0002  0.9904
   25MOL0     H 3249   6.093   9.381   0.982 -5.1110 -0.3996 -1.4573
   25MOL0     H 3250   6.131   9.312   0.819  3.5036 -2.1904 -0.5661
   25MOL0     H 3251   6.044   9.135   1.045 -0.9686  1.7982  1.6648
   25MOL0     H 3252   6.030   9.110   0.870 -2.6098 -2.0952  2.2559
   25MOL0     H 3253   5.904   9.459   0.940  1.0367 -0.4100  3.3136
   25MOL0     H 3254   5.657   9.572   1.003 -0.4545 -0.2478  2.4075
   25MOL0     H 3255   5.566   9.455   1.085 -2.6590 -1.8787 -0.6835
   25MOL0     H 3256   5.430   9.400   0.897 -3.3444  2.2394 -1.3849
   25MOL0     H 3257   5.537   9.487   0.785  1.2448 -2.7233  0.4452
   25MOL0     H 3258   5.415   9.656   1.009  1.5006 -0.0100 -0.1235
   25MOL0     H 3259   5.435   9.682   0.838 -0.9969 -0.1666 -0.8042
   25MOL0     H 3260   5.224   9.530   0.961  1.6045 -0.3952  0.6926
   25MOL0     H 3261   5.250   9.552   0.782  0.5506  0.4395  0.2330
   25MOL0     H 3262   5.091   9.823   0.681  1.6232 -1.1658  0.7178
   25MOL0     H 3263   4.861   9.871   0.629  0.6162 -1.3750 -1.7869
   25MOL0     H 3264   4.551   9.903   0.418  0.8095 -0.9095  0.4348
   25MOL0     H 3265   4.307   9.907   0.332  1.4853  3.3694  0.9961
   25MOL0     H 3266   4.173   9.694   0.325 -0.8483 -0.2288 -0.4472
   25MOL0     H 3267   4.121   9.842   0.248 -4.0442  1.8797  1.8846
   25MOL0     H 3268   3.959   9.667   0.198 -0.2445 -1.6092  0.6070
   25MOL0     H 3269   3.885   9.800   0.299  0.3351 -0.9802 -1.7803
   25MOL0     H 3270   3.942   9.644   0.495  1.1663  0.3375 -0.4036
   25MOL0     H 3271   4.000   9.529   0.379  3.4616  1.7911 -3.1679
   25MOL0     H 3272   3.763   9.485   0.475  2.7659 -1.2718 -0.2782
   25MOL0     H 3273   3.705   9.632   0.387  1.2010  0.9455  0.9536
   25MOL0     H 3274   3.843   9.409   0.226 -0.0335  0.8288 -0.8052
   25MOL0     H 3275   3.752   9.555   0.176 -2.3102  2.4853  2.2535
   25MOL0     H 3276   3.635   9.306   0.330 -4.6219  1.7072  1.4067
   25MOL0     H 3277   3.615   9.336   0.155  0.8847  1.3982 -1.3616
   25MOL0     H 3278   3.412   9.386   0.267  0.4412 -0.2926  0.5353
   25MOL0     H 3279   3.495   9.494   0.382 -1.4246 -2.2834  0.6755
   25MOL0     H 3280   3.537   9.654   0.216 -0.6113  0.0850  2.1939
   25MOL0     H 3281   3.368   9.619   0.230  1.4398 -0.1973  3.0062
   25MOL0     H 3282   4.149   9.803   0.689 -3.9193  2.2610 -3.6103
   25MOL0     H 3283   4.366   9.793   0.800  4.9385 -1.0583 -0.4675
   25MOL0     H 3284   4.743   9.628   0.976  0.5838 -1.5283 -1.6848
   25MOL0     H 3285   4.987   9.605   1.035 -1.2216 -0.9151  0.2279
   25MOL0     H 3286   7.085   9.350   1.136 -0.1245 -0.3948 -0.3592
   25MOL0     H 3287   7.311   9.462   1.140  3.5638  0.8183 -3.0289
   25MOL0     H 3288   7.442   9.964   1.215  0.4985 -1.9060  0.9250
   25MOL0     H 3289   7.634  10.090   1.226  0.1409  0.6350 -0.8871
   25MOL0     H 3290   7.899  10.103   1.303 -1.6610  0.0212 -0.2181
   25MOL0     H 3291   7.826  10.211   1.187 -0.4615  0.4348  1.1025
   25MOL0     H 3292   8.051  10.242   1.083  1.4320  2.7454  1.5557
   25MOL0     H 3293   8.042  10.293   1.253 -3.5117 -1.2886  1.3703
   25MOL0     H 3294   8.131  10.010   1.151 -2.6929 -0.6600  1.2523
   25MOL0     H 3295   8.133  10.063   1.319  1.6635 -1.7774 -0.8365
   25MOL0     H 3296   8.281  10.223   1.115  1.7973 -0.2163 -0.4751
   25MOL0     H 3297   8.318  10.212   1.284 -0.3256 -2.7553  1.5248
   25MOL0     H 3298   8.572   9.942   1.078 -1.4236  0.1414 -2.4058
   25MOL0     H 3299   7.849   9.820   0.957  0.5771 -1.7403  1.6177
   25MOL0     H 3300   7.638   9.701   0.931 -0.2402  0.6714 -0.1871
   26MOL0     O 3301   0.678   7.136   1.266  0.9842 -0.2325 -0.6428
   26MOL0     C 3302   0.754   7.044   1.258  0.3527 -0.1403 -0.6383
   26MOL0     O 3303   0.771   6.942   1.349  0.0949 -0.1681 -0.9497
   26MOL0     C 3304   0.707   6.941   1.470 -0.2224  0.5504  0.5562
   26MOL0     C 3305   0.686   6.811   1.512 -0.2381  0.7163  0.0137
   26MOL0     C 3306   0.632   6.780   1.640  0.8532 -0.5146  0.1702
   26MOL0     C 3307   0.599   6.878   1.724  0.4666 -0.2604 -0.5612
   26MOL0     O 3308   0.531   6.832   1.834 -0.4147 -0.2082  0.3828
   26MOL0     C 3309   0.494   6.921   1.946 -0.2463 -0.3226 -0.0801
   26MOL0     C 3310   0.426   6.835   2.056  0.5721  0.3424 -0.8294
   26MOL0     C 3311   0.360   6.906   2.175  0.4559  0.2617  0.7977
   26MOL0     C 3312   0.468   6.933   2.287 -1.0322 -0.6060  0.8844
   26MOL0     C 3313   0.418   6.904   2.426  0.2893 -0.4519  0.1671
   26MOL0     C 3314   0.528   6.909   2.534 -0.0469 -0.7238  0.3127
   26MOL0     C 3315   0.634   6.810   2.515 -0.0736  0.7998  0.9986
   26MOL0     C 3316   0.747   6.820   2.620 -0.3161 -0.8365 -0.2724
   26MOL0     N 3317   0.742   6.738   2.735 -0.5531 -0.7314 -0.0922
   26MOL0     C 3318   0.638   6.745   2.831 -0.3504 -0.4065  0.3087
   26MOL0     C 3319   0.674   6.643   2.921  0.1520 -0.6537 -1.1470
   26MOL0     C 3320   0.613   6.622   3.054  0.7025  0.5101 -0.3884
   26MOL0     C 3321   0.455   6.617   3.044  0.3341  0.1453  0.2524
   26MOL0     C 3322   0.382   6.601   3.177  0.0698  0.4943 -0.8896
   26MOL0     C 3323   0.236   6.572   3.156 -0.3453  0.0907 -0.0368
   26MOL0     O 3324   0.178   6.564   3.281 -0.8110 -0.5653  0.0912
   26MOL0     C 3325   0.049   6.511   3.290 -0.7255  0.4885 -0.1709
   26MOL0     C 3326  -0.028   6.470   3.179 -0.1906  0.0657 -0.4834
   26MOL0     C 3327  -0.156   6.418   3.198  0.2178 -0.2259 -1.2496
   26MOL0     C 3328  -0.204   6.408   3.332  0.0972  0.2883 -0.0724
   26MOL0     C 3329  -0.329   6.342   3.360  0.1421  0.2744 -1.3146
   26MOL0     O 3330  -0.378   6.353   3.494 -0.2584 -1.0886 -0.2183
   26MOL0     C 3331  -0.485   6.280   3.523  0.2464 -0.5195 -0.2947
   26MOL0     C 3332  -0.494   6.185   3.624 -0.8375  0.8904 -0.6140
   26MOL0     C 3333  -0.619   6.122   3.657 -0.2488 -0.1576  0.2938
   26MOL0     C 3334  -0.735   6.157   3.587 -0.4453 -0.1720 -0.2357
   26MOL0     O 3335  -0.864   6.118   3.617  0.1013  0.5761  0.5549
   26MOL0     C 3336  -0.892   6.027   3.722 -0.1603 -0.3101  0.2040
   26MOL0     C 3337  -1.040   6.019   3.740  0.2909 -0.8630  0.4373
   26MOL0     C 3338  -1.072   5.965   3.880 -0.3246 -0.7922 -0.9828
   26MOL0     C 3339  -1.228   5.957   3.890 -0.0297  0.2999 -0.6066
   26MOL0     C 3340  -1.285   5.912   4.025 -0.3400  0.0641  0.4788
   26MOL0     C 3341  -1.436   5.872   3.989 -0.0298  0.3577  0.0176
   26MOL0     C 3342  -1.498   5.809   4.109 -0.6145 -0.0093 -0.0779
   26MOL0     C 3343  -1.523   5.905   4.227 -1.5194 -0.0646  0.6675
   26MOL0    Cl 3344  -1.658   5.832   4.319  0.1470 -0.7245  0.1228
   26MOL0     C 3345  -0.725   6.254   3.486  0.0070 -0.5003  0.2555
   26MOL0     C 3346  -0.603   6.313   3.457  0.1522 -0.6920 -0.2777
   26MOL0     O 3347  -0.380   6.266   3.271 -0.0429 -0.1064 -0.0490
   26MOL0     C 3348  -0.116   6.437   3.438  0.1707 -0.6263 -0.4389
   26MOL0     C 3349   0.006   6.484   3.415 -0.4560  0.3679 -1.0041
   26MOL0     N 3350   0.777   6.567   2.870 -0.1950 -0.4956  0.5986
   26MOL0     N 3351   0.821   6.628   2.771  0.3602  0.1373  0.2234
   26MOL0     C 3352   0.640   7.013   1.686  0.9155  1.0864 -0.0596
   26MOL0     C 3353   0.693   7.039   1.556  0.4878  0.5531  0.0104
   26MOL0     C 3354   0.814   7.013   1.127 -0.5408 -0.2359 -0.7181
   26MOL0     C 3355   0.748   7.050   1.008 -1.2661 -0.7509  0.3613
   26MOL0     C 3356   0.806   7.018   0.885  1.3175  0.3492  0.2586
   26MOL0     C 3357   0.932   6.954   0.883  1.1804  0.8019  0.0896
   26MOL0     O 3358   0.981   6.931   0.754 -0.3159 -0.4715  0.0797
   26MOL0     C 3359   1.114   6.896   0.742 -0.1995  0.2839  0.1370
   26MOL0     C 3360   1.151   6.959   0.605  0.6278 -0.8964 -1.1681
   26MOL0     C 3361   1.081   6.889   0.490  0.4226 -0.1719 -0.8356
   26MOL0     C 3362   0.981   6.968   0.396  0.6177 -0.1184 -0.6203
   26MOL0     C 3363   0.898   7.077   0.461 -0.4595  0.5565  0.7432
   26MOL0     C 3364   0.847   7.177   0.505 -0.4975 -0.1341 -0.8546
   26MOL0     C 3365   0.985   6.911   1.003 -0.2720 -0.9651  0.8977
   26MOL0     C 3366   0.939   6.944   1.124  0.4147  0.4094 -0.0134
   26MOL0     H 3367   0.697   6.730   1.441 -3.5943 -1.6746  1.8739
   26MOL0     H 3368   0.615   6.675   1.661 -1.6241  0.0172  1.1368
   26MOL0     H 3369   0.420   6.998   1.923 -1.4389  0.0437  4.0580
   26MOL0     H 3370   0.574   6.980   1.992 -1.4193 -0.6104  2.5461
   26MOL0     H 3371   0.491   6.754   2.091 -1.2322 -0.3012  1.2160
   26MOL0     H 3372   0.342   6.784   2.009 -0.2729  0.0865  0.8974
   26MOL0     H 3373   0.289   6.832   2.213 -2.6185  2.5103 -0.2330
   26MOL0     H 3374   0.310   7.000   2.150 -1.7375 -1.1823 -0.5294
   26MOL0     H 3375   0.561   6.880   2.260  0.0773  1.3289  0.7504
   26MOL0     H 3376   0.501   7.037   2.281 -0.6656 -0.7743 -0.3648
   26MOL0     H 3377   0.362   6.813   2.447 -1.7080  1.3360  3.5083
   26MOL0     H 3378   0.355   6.989   2.454  0.1332 -0.0458 -1.3302
   26MOL0     H 3379   0.478   6.902   2.631  2.0989  0.9294  1.6244
   26MOL0     H 3380   0.570   7.010   2.535  0.8258 -1.0329  3.2397
   26MOL0     H 3381   0.601   6.706   2.514  0.0546  0.7191  2.8636
   26MOL0     H 3382   0.678   6.826   2.416 -1.7579 -3.2355 -0.6197
   26MOL0     H 3383   0.749   6.926   2.647  2.5102 -0.7901 -0.3638
   26MOL0     H 3384   0.839   6.793   2.568 -0.4642 -1.6985 -0.1009
   26MOL0     H 3385   0.563   6.822   2.843 -1.0162 -0.6591 -1.8586
   26MOL0     H 3386   0.650   6.701   3.121  0.8278  0.6294 -0.5970
   26MOL0     H 3387   0.660   6.533   3.097 -0.1631  0.9341  1.5540
   26MOL0     H 3388   0.425   6.530   2.985 -1.4240  0.9034 -0.0316
   26MOL0     H 3389   0.405   6.705   3.002 -0.4628  0.3877  1.6404
   26MOL0     H 3390   0.427   6.525   3.242 -2.0263  0.7628  0.9798
   26MOL0     H 3391   0.383   6.692   3.237 -2.9766  0.7112 -1.0136
   26MOL0     H 3392   0.214   6.478   3.104 -0.2050  0.7640 -1.3654
   26MOL0     H 3393   0.199   6.652   3.091  0.2793  1.1196  0.8495
   26MOL0     H 3394   0.007   6.491   3.078  2.6423 -2.2418 -0.1103
   26MOL0     H 3395  -0.219   6.387   3.115 -2.7129 -0.3373  0.8432
   26MOL0     H 3396  -0.411   6.154   3.686 -0.7043 -2.0533 -2.0696
   26MOL0     H 3397  -0.615   6.060   3.746  2.8105  0.4409  0.6817
   26MOL0     H 3398  -0.835   6.068   3.807  0.7459  1.0388 -1.0102
   26MOL0     H 3399  -0.850   5.931   3.691  0.4548 -0.0909  0.3436
   26MOL0     H 3400  -1.089   5.968   3.656 -0.5912 -0.1869  0.5295
   26MOL0     H 3401  -1.074   6.121   3.721 -2.3970 -1.4468  1.6040
   26MOL0     H 3402  -1.027   6.030   3.955  3.7218 -2.3926 -1.7480
   26MOL0     H 3403  -1.017   5.874   3.904 -1.1342 -0.8413  0.8410
   26MOL0     H 3404  -1.269   6.056   3.871 -4.1944 -0.5724  2.2359
   26MOL0     H 3405  -1.259   5.892   3.807  0.9111 -2.7996  1.2794
   26MOL0     H 3406  -1.283   5.990   4.101 -0.3991 -0.3741  0.9309
   26MOL0     H 3407  -1.227   5.831   4.070  4.6047  3.1419  0.3687
   26MOL0     H 3408  -1.445   5.800   3.907  1.0220  2.9118 -2.5210
   26MOL0     H 3409  -1.496   5.956   3.954 -0.4903  0.3071  0.6741
   26MOL0     H 3410  -1.591   5.764   4.074 -0.8987  1.1733 -0.8748
   26MOL0     H 3411  -1.436   5.729   4.152 -1.9756 -0.3557  1.3562
   26MOL0     H 3412  -1.547   6.004   4.189  2.2509  0.3974 -0.8837
   26MOL0     H 3413  -1.428   5.909   4.280 -0.7552 -0.8753 -0.5900
   26MOL0     H 3414  -0.812   6.302   3.443 -0.4120 -2.7301 -1.5406
   26MOL0     H 3415  -0.602   6.393   3.383  1.0518 -0.0289  0.4307
   26MOL0     H 3416  -0.141   6.424   3.543  0.2756  2.4787  0.0683
   26MOL0     H 3417   0.078   6.489   3.497  2.9185 -0.3698 -3.7166
   26MOL0     H 3418   0.610   7.093   1.753 -0.4076  1.1119 -0.6403
   26MOL0     H 3419   0.715   7.145   1.552 -1.8401  1.1984  1.5497
   26MOL0     H 3420   0.648   7.093   1.013 -0.5728  0.8723  1.1903
   26MOL0     H 3421   0.753   7.044   0.794  1.2965 -3.1645 -0.8702
   26MOL0     H 3422   1.123   6.787   0.737 -1.8005  0.1506 -0.4603
   26MOL0     H 3423   1.177   6.935   0.823  1.1669  0.5013 -0.9855
   26MOL0     H 3424   1.128   7.066   0.607 -0.5253 -1.0746  2.7026
   26MOL0     H 3425   1.259   6.957   0.589  1.3622 -1.6081  2.8412
   26MOL0     H 3426   1.018   6.808   0.526 -0.6736  1.5428  1.3298
   26MOL0     H 3427   1.171   6.858   0.435  1.2080  0.4770  0.0628
   26MOL0     H 3428   1.040   7.009   0.314  0.1921  1.7872 -0.0269
   26MOL0     H 3429   0.919   6.891   0.348 -2.9716  1.8977  0.4138
   26MOL0     H 3430   0.809   7.269   0.546  3.1374 -0.4277  4.0849
   26MOL0     H 3431   1.068   6.842   1.009 -0.0683 -0.7096  1.0699
   26MOL0     H 3432   0.989   6.907   1.213  0.0273 -3.4866 -1.2279
   27MOL0     O 3433   8.561   9.017   5.959 -0.1781 -0.4753  0.7115
   27MOL0     C 3434   8.623   8.921   5.922 -0.6617  0.7377 -0.0510
   27MOL0     O 3435   8.584   8.827   5.836  0.9900  0.1124  0.4568
   27MOL0     C 3436   8.450   8.841   5.784 -0.3290 -0.0259  0.1021
   27MOL0     C 3437   8.329   8.877   5.858  0.0248 -0.0022 -0.8040
   27MOL0     C 3438   8.200   8.867   5.799 -0.6026  0.2180  0.1396
   27MOL0     C 3439   8.189   8.800   5.678  0.4960  0.0675 -0.3413
   27MOL0     O 3440   8.062   8.810   5.625 -0.2981  0.0895 -0.1118
   27MOL0     C 3441   8.010   8.689   5.555 -0.4671  0.1000 -0.1960
   27MOL0     C 3442   7.861   8.714   5.525  0.7070  0.3287 -0.4884
   27MOL0     C 3443   7.834   8.846   5.445 -0.7283 -0.1476 -0.1420
   27MOL0     C 3444   7.707   8.844   5.353  0.1001 -0.9405 -1.2017
   27MOL0     C 3445   7.701   8.981   5.277 -0.6450 -0.5608  0.2195
   27MOL0     C 3446   7.599   8.970   5.162 -0.4725  0.2817  0.2916
   27MOL0     C 3447   7.461   8.930   5.202  0.3864  0.2368  0.6101
   27MOL0     C 3448   7.370   9.040   5.262 -0.3925 -0.1228 -0.4963
   27MOL0     N 3449   7.228   9.031   5.237  0.0537 -0.2517  0.1810
   27MOL0     C 3450   7.153   9.095   5.143  1.2089  0.4846 -0.0628
   27MOL0     C 3451   7.024   9.085   5.194  0.7399  1.1927  0.4556
   27MOL0     C 3452   6.888   9.119   5.134 -0.5025 -0.1020  0.1322
   27MOL0     C 3453   6.903   9.237   5.039 -1.1332  0.8162  0.5028
   27MOL0     C 3454   6.783   9.250   4.932 -0.2892  0.0812  0.4242
   27MOL0     C 3455   6.662   9.325   4.985 -0.7101 -0.3546  0.5343
   27MOL0     O 3456   6.620   9.256   5.106 -0.3282 -0.3676  0.6976
   27MOL0     C 3457   6.483   9.256   5.132  0.4759  0.1848  0.6050
   27MOL0     C 3458   6.385   9.343   5.073 -0.5517  0.0084  0.9332
   27MOL0     C 3459   6.248   9.333   5.115  0.5582 -0.2126  1.3247
   27MOL0     C 3460   6.202   9.242   5.208  0.3884  0.2436 -0.0040
   27MOL0     C 3461   6.071   9.224   5.255 -0.6146 -0.3068  0.2557
   27MOL0     O 3462   5.976   9.265   5.162  0.4148 -0.3600 -0.1637
   27MOL0     C 3463   5.846   9.231   5.188 -0.3111  0.1136 -0.0718
   27MOL0     C 3464   5.767   9.315   5.262  0.1168 -0.1127 -0.5013
   27MOL0     C 3465   5.629   9.283   5.294 -0.3775 -0.1602 -0.4745
   27MOL0     C 3466   5.574   9.174   5.241 -1.0313  0.3297  0.4597
   27MOL0     O 3467   5.444   9.156   5.279 -0.0181  0.3922  0.3698
   27MOL0     C 3468   5.375   9.035   5.257 -0.1756 -0.3218  0.7307
   27MOL0     C 3469   5.222   9.051   5.272  0.3854  0.1865  0.6250
   27MOL0     C 3470   5.180   9.144   5.390  1.0039 -0.3967 -0.2078
   27MOL0     C 3471   5.027   9.150   5.408 -0.2056 -0.7086 -0.2501
   27MOL0     C 3472   4.992   9.226   5.540 -0.3795  0.6573  0.3005
   27MOL0     C 3473   5.021   9.371   5.526 -0.3826 -0.3690 -0.2200
   27MOL0     C 3474   5.008   9.456   5.654  0.0239  0.2758  0.7927
   27MOL0     C 3475   5.054   9.599   5.628  0.3856  0.0388  0.5874
   27MOL0    Cl 3476   4.954   9.696   5.520  0.0188  0.3973  0.2454
   27MOL0     C 3477   5.648   9.090   5.149 -0.0089  0.2162 -0.3542
   27MOL0     C 3478   5.792   9.113   5.130  0.0754  0.2386 -0.0915
   27MOL0     O 3479   6.047   9.162   5.356 -0.4079 -0.6066  0.3760
   27MOL0     C 3480   6.300   9.161   5.261  1.0970 -0.2470  0.2533
   27MOL0     C 3481   6.436   9.180   5.237 -0.2974 -0.1518 -0.5531
   27MOL0     N 3482   7.022   9.005   5.303  0.0833  0.5806 -0.0794
   27MOL0     N 3483   7.142   8.961   5.318  0.3628  0.3678  0.1351
   27MOL0     C 3484   8.300   8.764   5.605 -0.9006  0.5319 -0.7389
   27MOL0     C 3485   8.438   8.779   5.659 -0.0767 -0.1382 -0.9621
   27MOL0     C 3486   8.766   8.910   5.957 -0.7986  0.2847 -0.0325
   27MOL0     C 3487   8.823   8.963   6.079  0.6660 -0.5897  0.5009
   27MOL0     C 3488   8.953   8.952   6.103 -0.8253  0.8037  0.5094
   27MOL0     C 3489   9.047   8.888   6.022 -0.6133  0.4481  0.9276
   27MOL0     O 3490   9.174   8.886   6.074  0.7379  0.3611 -0.2901
   27MOL0     C 3491   9.289   8.866   5.992  0.3803  0.2770  0.4860
   27MOL0     C 3492   9.416   8.876   6.083 -0.0487 -0.7312  0.0453
   27MOL0     C 3493   9.541   8.937   6.008  0.1820 -0.6711  0.2185
   27MOL0     C 3494   9.658   8.970   6.101 -0.0593 -0.6236  0.2947
   27MOL0     C 3495   9.773   8.879   6.103  0.0333 -0.6338  0.0388
   27MOL0     C 3496   9.877   8.820   6.115 -0.3755  0.1351  0.0862
   27MOL0     C 3497   8.994   8.834   5.899 -0.0576 -0.5483  0.4062
   27MOL0     C 3498   8.855   8.847   5.870  0.0910 -0.7072 -0.3834
   27MOL0     H 3499   8.330   8.933   5.951 -0.6812  0.0954 -0.8537
   27MOL0     H 3500   8.105   8.892   5.845 -0.4092 -2.4586  2.1941
   27MOL0     H 3501   8.021   8.598   5.614  1.1687 -1.2703 -2.4758
   27MOL0     H 3502   8.047   8.682   5.452 -2.2072 -1.4375 -0.7828
   27MOL0     H 3503   7.812   8.728   5.622  1.8503 -2.1481  0.5315
   27MOL0     H 3504   7.832   8.628   5.465 -1.7575  1.4015 -0.9606
   27MOL0     H 3505   7.925   8.861   5.385  0.5986 -2.2129  1.2270
   27MOL0     H 3506   7.832   8.933   5.512 -2.6206  0.1869 -0.5785
   27MOL0     H 3507   7.712   8.760   5.284 -0.9361 -0.7232 -1.5643
   27MOL0     H 3508   7.620   8.830   5.418 -0.1290  1.5861 -0.8438
   27MOL0     H 3509   7.796   8.992   5.223 -2.3428  4.0921 -2.3772
   27MOL0     H 3510   7.688   9.062   5.350  1.0978 -0.9520  1.0421
   27MOL0     H 3511   7.634   8.900   5.085 -0.5257 -0.0561  0.5676
   27MOL0     H 3512   7.598   9.065   5.108 -6.0788  0.4058 -0.0040
   27MOL0     H 3513   7.426   8.891   5.106  2.6539  2.7952 -1.4064
   27MOL0     H 3514   7.453   8.841   5.266 -0.4987 -1.4009 -1.6485
   27MOL0     H 3515   7.415   9.134   5.227 -0.3865 -0.5596 -1.7192
   27MOL0     H 3516   7.396   9.036   5.368 -2.1246 -0.3439 -0.0357
   27MOL0     H 3517   7.177   9.156   5.057  0.4569  0.8126 -0.0542
   27MOL0     H 3518   6.813   9.158   5.204 -2.0656 -1.7555 -0.5585
   27MOL0     H 3519   6.844   9.027   5.094  1.9534 -1.2336 -0.1796
   27MOL0     H 3520   6.993   9.207   4.985 -4.2157 -2.1998 -3.6112
   27MOL0     H 3521   6.919   9.331   5.093 -1.8532  0.2575  1.7252
   27MOL0     H 3522   6.825   9.291   4.841 -0.5436  1.7526  1.0253
   27MOL0     H 3523   6.748   9.147   4.915  0.7848  0.0134 -1.5857
   27MOL0     H 3524   6.591   9.314   4.902 -1.1035 -1.4537  0.9854
   27MOL0     H 3525   6.692   9.428   5.005  0.6618 -0.7006  0.3149
   27MOL0     H 3526   6.415   9.422   5.006 -0.0873 -1.6562 -0.9339
   27MOL0     H 3527   6.172   9.401   5.079  1.8559  0.1883 -0.7939
   27MOL0     H 3528   5.819   9.401   5.304 -2.2695  1.0680  0.1954
   27MOL0     H 3529   5.576   9.346   5.365  0.5824 -1.6034  1.6551
   27MOL0     H 3530   5.414   8.952   5.317 -1.6547 -1.5894  0.0074
   27MOL0     H 3531   5.390   9.014   5.151  0.9814  0.0724  0.8010
   27MOL0     H 3532   5.189   8.947   5.281  2.9699 -0.4995  6.7283
   27MOL0     H 3533   5.193   9.092   5.174  0.9251  0.6499  0.6551
   27MOL0     H 3534   5.220   9.244   5.370  2.4717 -0.8955  0.0840
   27MOL0     H 3535   5.228   9.111   5.483 -0.6474  2.0061  1.6360
   27MOL0     H 3536   4.973   9.191   5.322  0.2348  2.9929  1.0785
   27MOL0     H 3537   4.996   9.045   5.411  1.2034 -1.1726 -0.9122
   27MOL0     H 3538   5.042   9.189   5.630 -0.1710 -1.0578 -0.4792
   27MOL0     H 3539   4.886   9.210   5.563 -2.3857  4.0214 -4.7565
   27MOL0     H 3540   4.952   9.418   5.455  1.3797  3.4105  0.3280
   27MOL0     H 3541   5.120   9.392   5.485 -0.3558  0.6141  0.3011
   27MOL0     H 3542   4.904   9.444   5.686 -0.2533 -1.5638 -0.5940
   27MOL0     H 3543   5.066   9.415   5.737 -1.2200  1.2587  2.1975
   27MOL0     H 3544   5.151   9.601   5.578  0.1765  0.4174  0.1976
   27MOL0     H 3545   5.043   9.655   5.722 -2.1177 -1.3437  1.2239
   27MOL0     H 3546   5.595   9.008   5.101  1.3397 -0.7859 -0.1837
   27MOL0     H 3547   5.860   9.044   5.081  1.6500 -0.2903  2.6404
   27MOL0     H 3548   6.286   9.084   5.336  1.5067 -1.5821 -1.0002
   27MOL0     H 3549   6.521   9.126   5.278 -1.3495 -1.1455  0.4159
   27MOL0     H 3550   8.281   8.721   5.507 -0.7715 -1.3453  0.0199
   27MOL0     H 3551   8.532   8.760   5.608  1.9581  1.0600  2.0580
   27MOL0     H 3552   8.761   9.010   6.154 -1.8181 -2.0290 -0.5399
   27MOL0     H 3553   9.000   8.991   6.193  3.1913  1.3058 -1.6038
   27MOL0     H 3554   9.302   8.946   5.919 -0.3234  1.1662  1.3069
   27MOL0     H 3555   9.290   8.774   5.934  0.6784  1.1488 -0.9477
   27MOL0     H 3556   9.391   8.934   6.173 -0.8922 -2.4004  0.9441
   27MOL0     H 3557   9.440   8.780   6.128  0.1934 -1.2415 -1.1556
   27MOL0     H 3558   9.516   9.027   5.951  2.3099 -0.1478  0.0381
   27MOL0     H 3559   9.587   8.865   5.940  3.5750  2.1182 -0.7166
   27MOL0     H 3560   9.712   9.061   6.072 -1.2210  0.3112  0.9331
   27MOL0     H 3561   9.616   8.994   6.200 -2.4314  1.7697 -1.1342
   27MOL0     H 3562   9.966   8.763   6.134 -1.1746 -1.3184 -0.3569
   27MOL0     H 3563   9.074   8.776   5.853  1.4681  0.2089  1.9953
   27MOL0     H 3564   8.819   8.800   5.779 -1.6849  1.8863 -1.1430
   28MOL0     O 3565   0.157   1.231   4.839 -0.1331  0.3978  0.3729
   28MOL0     C 3566   0.095   1.324   4.787  0.6112 -1.0861  1.4045
   28MOL0     O 3567  -0.036   1.329   4.770  0.5917 -0.6528  0.0065
   28MOL0     C 3568  -0.106   1.257   4.860 -0.2002 -0.1382  0.7341
   28MOL0     C 3569  -0.174   1.325   4.959  0.7595 -0.0991  0.0934
   28MOL0     C 3570  -0.250   1.260   5.048  0.5580 -0.5119 -0.4155
   28MOL0     C 3571  -0.279   1.125   5.037  0.6261 -0.0644 -0.0506
   28MOL0     O 3572  -0.368   1.060   5.117 -0.1226 -0.4031 -0.6164
   28MOL0     C 3573  -0.407   0.926   5.111 -0.9478 -0.0641  0.2091
   28MOL0     C 3574  -0.521   0.906   5.211  0.2467  0.1050 -0.5320
   28MOL0     C 3575  -0.659   0.959   5.165  0.3871  0.6093 -0.2046
   28MOL0     C 3576  -0.761   0.994   5.274 -0.6598  0.3779  0.3054
   28MOL0     C 3577  -0.900   1.044   5.213 -0.5819 -0.1713  0.0881
   28MOL0     C 3578  -1.011   1.064   5.313 -0.5553  0.4916 -0.3527
   28MOL0     C 3579  -0.974   1.179   5.406  0.2313  0.6168 -0.3868
   28MOL0     C 3580  -0.955   1.323   5.342 -0.8052  0.5981  0.0525
   28MOL0     N 3581  -1.075   1.388   5.281  0.3571  0.3597 -0.3389
   28MOL0     C 3582  -1.203   1.394   5.333  0.1060 -0.6218  0.5724
   28MOL0     C 3583  -1.286   1.412   5.225  0.1176 -0.7820  0.3033
   28MOL0     C 3584  -1.435   1.418   5.234  0.1092  0.5188  0.3246
   28MOL0     C 3585  -1.490   1.289   5.188 -0.8770  0.4006  0.5492
   28MOL0     C 3586  -1.644   1.282   5.186  0.7651  0.0689  1.2028
   28MOL0     C 3587  -1.710   1.145   5.131  0.3611 -0.5120 -1.4086
   28MOL0     O 3588  -1.856   1.166   5.166  0.6052  0.4785  0.0944
   28MOL0     C 3589  -1.926   1.075   5.229 -0.0121 -0.3442 -0.5688
   28MOL0     C 3590  -2.063   1.098   5.239 -0.6523 -0.0614  1.4025
   28MOL0     C 3591  -2.141   1.019   5.312 -0.0172 -0.2206 -0.1150
   28MOL0     C 3592  -2.094   0.908   5.384 -0.5543 -0.3964  0.4183
   28MOL0     C 3593  -2.185   0.832   5.465  0.4564  0.0521  0.5538
   28MOL0     O 3594  -2.316   0.853   5.432  0.5990 -0.1014  0.3768
   28MOL0     C 3595  -2.418   0.790   5.502 -0.3719 -0.3154 -0.6460
   28MOL0     C 3596  -2.512   0.724   5.432  0.7479  0.3618  0.2585
   28MOL0     C 3597  -2.597   0.630   5.495  0.2436 -0.7888  0.0178
   28MOL0     C 3598  -2.604   0.633   5.638 -0.1074  0.7088  0.4709
   28MOL0     O 3599  -2.691   0.543   5.697  0.0502  0.0959  0.4698
   28MOL0     C 3600  -2.698   0.529   5.834  0.7876 -0.4851  0.1835
   28MOL0     C 3601  -2.828   0.442   5.867 -0.3888 -0.4675  0.2024
   28MOL0     C 3602  -2.842   0.390   6.015 -0.1121 -0.4720  0.1248
   28MOL0     C 3603  -2.721   0.299   6.071  1.0136 -0.1024  1.3521
   28MOL0     C 3604  -2.742   0.252   6.214 -0.7946 -0.4552 -0.3896
   28MOL0     C 3605  -2.832   0.136   6.228 -0.7032 -0.3016  0.1140
   28MOL0     C 3606  -2.822   0.086   6.378 -0.2593  0.4534 -0.1364
   28MOL0     C 3607  -2.939  -0.004   6.417  0.1540 -0.4946  0.3719
   28MOL0    Cl 3608  -2.938  -0.158   6.332 -0.0974 -0.4955  0.2640
   28MOL0     C 3609  -2.518   0.717   5.717  0.3877  0.0509  0.8818
   28MOL0     C 3610  -2.417   0.789   5.650  0.2506 -0.3158  0.2381
   28MOL0     O 3611  -2.144   0.736   5.533  0.1836 -0.4768  0.3709
   28MOL0     C 3612  -1.954   0.880   5.362 -0.2237  0.6520  0.3399
   28MOL0     C 3613  -1.874   0.955   5.281  0.4938 -0.3894  0.5304
   28MOL0     N 3614  -1.210   1.418   5.121 -0.1043 -0.5343  0.1399
   28MOL0     N 3615  -1.090   1.408   5.149  0.3377  0.0368  0.0449
   28MOL0     C 3616  -0.203   1.055   4.930  0.2862  0.7244  0.9983
   28MOL0     C 3617  -0.116   1.120   4.845 -1.1955  0.3696 -0.1903
   28MOL0     C 3618   0.187   1.435   4.735 -0.5562 -0.3646  0.7016
   28MOL0     C 3619   0.327   1.430   4.728  0.0879  0.3417 -0.5204
   28MOL0     C 3620   0.414   1.529   4.701 -0.0514 -1.0547 -0.5634
   28MOL0     C 3621   0.358   1.652   4.665 -0.2783 -0.3595 -0.5733
   28MOL0     O 3622   0.428   1.769   4.656 -0.2176 -0.6767  0.4334
   28MOL0     C 3623   0.545   1.766   4.576 -0.2365  0.0520 -0.2389
   28MOL0     C 3624   0.588   1.909   4.510  0.6550 -0.4333 -0.4731
   28MOL0     C 3625   0.694   1.871   4.411 -0.2715 -0.3944 -0.6149
   28MOL0     C 3626   0.833   1.846   4.458  0.3006 -0.1344 -0.4471
   28MOL0     C 3627   0.890   1.977   4.505  0.2815  0.2195  0.6791
   28MOL0     C 3628   0.933   2.074   4.557 -0.8260 -0.0246  0.1062
   28MOL0     C 3629   0.221   1.666   4.662 -0.1415 -0.6474 -0.3981
   28MOL0     C 3630   0.132   1.562   4.698  1.4062 -0.6561 -0.6533
   28MOL0     H 3631  -0.157   1.430   4.978  1.5586 -0.4749  1.6401
   28MOL0     H 3632  -0.297   1.323   5.122  1.2785  1.3591 -1.4847
   28MOL0     H 3633  -0.323   0.862   5.138  1.6120  2.4134 -1.3403
   28MOL0     H 3634  -0.434   0.901   5.008  1.9736 -0.4055 -0.5585
   28MOL0     H 3635  -0.495   0.957   5.304  0.7762  0.0063 -0.6197
   28MOL0     H 3636  -0.521   0.802   5.244  2.8573  1.3639  4.5933
   28MOL0     H 3637  -0.697   0.882   5.097 -1.0063 -1.1213  2.3125
   28MOL0     H 3638  -0.653   1.050   5.106  0.8668  0.7036 -0.0156
   28MOL0     H 3639  -0.761   0.908   5.342 -0.1497  1.5650  1.8549
   28MOL0     H 3640  -0.713   1.075   5.329  0.9953  0.4384 -1.1475
   28MOL0     H 3641  -0.937   0.975   5.136 -2.4538  2.8338 -1.9642
   28MOL0     H 3642  -0.885   1.133   5.151  3.7831 -1.2217 -0.6323
   28MOL0     H 3643  -1.026   0.975   5.374  1.1310  0.7302  0.4779
   28MOL0     H 3644  -1.107   1.093   5.270 -1.5347 -0.3747  1.1532
   28MOL0     H 3645  -1.047   1.189   5.487  0.2258  0.4381 -0.3686
   28MOL0     H 3646  -0.874   1.163   5.446 -0.6283  0.3468  1.7814
   28MOL0     H 3647  -0.894   1.313   5.251  0.2314  1.3251  0.6466
   28MOL0     H 3648  -0.916   1.402   5.406  3.3927  0.0369 -1.4781
   28MOL0     H 3649  -1.226   1.373   5.437  2.8645  0.7638  1.5531
   28MOL0     H 3650  -1.469   1.494   5.163 -1.6946 -0.1278  0.4619
   28MOL0     H 3651  -1.475   1.438   5.333  1.0477 -2.9802  1.5477
   28MOL0     H 3652  -1.462   1.219   5.267 -0.4258  0.6172  0.5848
   28MOL0     H 3653  -1.452   1.265   5.089 -1.2945 -2.7960  1.0563
   28MOL0     H 3654  -1.692   1.311   5.279  0.5687  0.0313  1.1141
   28MOL0     H 3655  -1.663   1.357   5.109  2.6734  0.5008  1.0977
   28MOL0     H 3656  -1.656   1.064   5.182 -2.0087 -0.3253  1.7196
   28MOL0     H 3657  -1.700   1.158   5.023 -4.2200  0.3193 -1.9152
   28MOL0     H 3658  -2.108   1.181   5.185 -0.9134 -1.1990 -0.2119
   28MOL0     H 3659  -2.244   1.052   5.316 -0.3981 -1.4668  2.0379
   28MOL0     H 3660  -2.504   0.731   5.324 -1.6851  4.0787  0.1295
   28MOL0     H 3661  -2.660   0.568   5.432 -0.3043  0.0132 -0.2484
   28MOL0     H 3662  -2.708   0.622   5.890 -0.6545 -1.4154  1.5420
   28MOL0     H 3663  -2.612   0.466   5.858  0.4352 -1.5028 -1.0998
   28MOL0     H 3664  -2.820   0.362   5.793 -2.4202 -0.4781 -0.0697
   28MOL0     H 3665  -2.920   0.500   5.852  0.5284  0.9215 -0.2835
   28MOL0     H 3666  -2.930   0.329   6.039 -0.8265  1.2830  2.2547
   28MOL0     H 3667  -2.854   0.477   6.080  0.7408 -0.5854  0.4420
   28MOL0     H 3668  -2.698   0.214   6.006  1.1976  1.3753 -0.5799
   28MOL0     H 3669  -2.627   0.355   6.067  0.2943  1.0985  0.8884
   28MOL0     H 3670  -2.778   0.338   6.270 -1.5711 -1.0332  0.0110
   28MOL0     H 3671  -2.645   0.222   6.256 -0.3500 -0.2665 -1.2569
   28MOL0     H 3672  -2.796   0.060   6.158  0.1817  0.0480  0.1740
   28MOL0     H 3673  -2.933   0.170   6.207  0.0759  1.9919 -0.1526
   28MOL0     H 3674  -2.726   0.035   6.392 -1.0502 -0.8819  0.6987
   28MOL0     H 3675  -2.841   0.178   6.432 -2.0336 -0.5160  0.9967
   28MOL0     H 3676  -3.036   0.035   6.385 -0.1876 -2.3710 -0.9995
   28MOL0     H 3677  -2.935  -0.029   6.524 -1.9408  1.3642  0.9588
   28MOL0     H 3678  -2.525   0.705   5.824 -1.6004 -0.9245  0.6912
   28MOL0     H 3679  -2.341   0.847   5.700 -0.3452 -0.1920  1.0229
   28MOL0     H 3680  -1.925   0.782   5.399 -2.9887 -0.8085 -1.0625
   28MOL0     H 3681  -1.774   0.919   5.263  0.9449  0.6172  0.9561
   28MOL0     H 3682  -0.220   0.952   4.897  1.7942  0.9180 -0.4923
   28MOL0     H 3683  -0.072   1.061   4.764 -0.3128  1.9748 -0.9251
   28MOL0     H 3684   0.371   1.337   4.763 -1.3862 -0.0366  0.3759
   28MOL0     H 3685   0.522   1.519   4.714  0.4183 -1.0939 -3.6881
   28MOL0     H 3686   0.538   1.688   4.499 -0.1309  1.1655 -1.4131
   28MOL0     H 3687   0.632   1.725   4.628  0.5453  1.2068 -0.5801
   28MOL0     H 3688   0.493   1.952   4.474  0.3955  0.6121  1.3706
   28MOL0     H 3689   0.629   1.973   4.588 -1.9162  0.2744  0.4028
   28MOL0     H 3690   0.678   1.951   4.339 -1.1469 -0.6173 -0.6761
   28MOL0     H 3691   0.673   1.781   4.353  1.3170 -1.3586  0.2374
   28MOL0     H 3692   0.837   1.764   4.531  0.5320 -0.6007 -0.9736
   28MOL0     H 3693   0.886   1.815   4.368  0.6438 -0.2284 -0.2118
   28MOL0     H 3694   0.960   2.167   4.603 -0.1157  1.0065 -2.2374
   28MOL0     H 3695   0.186   1.768   4.652 -1.4276 -1.0122  0.1939
   28MOL0     H 3696   0.024   1.575   4.695  1.0987 -2.0965  1.7200
   29MOL0     O 3697   5.569   7.814   4.988  0.2162  0.0290 -0.7551
   29MOL0     C 3698   5.570   7.895   4.897 -1.0497  0.5269 -0.5267
   29MOL0     O 3699   5.481   7.989   4.874  0.2986  0.5848  0.4157
   29MOL0     C 3700   5.366   7.981   4.942  0.7426  0.5086 -0.5289
   29MOL0     C 3701   5.372   8.030   5.077 -0.3615 -1.0087 -1.0210
   29MOL0     C 3702   5.255   8.049   5.152  0.3556  0.2414  1.4027
   29MOL0     C 3703   5.140   7.982   5.106  0.1647  1.3264 -0.0901
   29MOL0     O 3704   5.038   7.992   5.200 -0.7365 -0.1282 -0.0259
   29MOL0     C 3705   4.909   8.010   5.134 -0.1289 -0.5557 -0.7821
   29MOL0     C 3706   4.817   8.050   5.250 -0.4280 -0.7077  0.5897
   29MOL0     C 3707   4.660   8.046   5.223 -0.3038  0.9064 -0.6236
   29MOL0     C 3708   4.594   8.095   5.345 -0.0813 -0.3171  0.3077
   29MOL0     C 3709   4.605   8.021   5.474 -0.5225 -0.7170 -1.4102
   29MOL0     C 3710   4.545   7.878   5.466  0.1718 -0.0075  0.2882
   29MOL0     C 3711   4.533   7.817   5.611  0.1218  0.2349  0.0008
   29MOL0     C 3712   4.675   7.792   5.671 -0.1547 -0.5296  0.5035
   29MOL0     N 3713   4.687   7.779   5.813  0.1674 -0.9191 -0.1872
   29MOL0     C 3714   4.624   7.856   5.910 -1.2870 -1.3382 -0.3754
   29MOL0     C 3715   4.686   7.832   6.023 -0.6929 -1.0446  0.5023
   29MOL0     C 3716   4.652   7.906   6.155  0.3485  0.1774 -0.3308
   29MOL0     C 3717   4.506   7.888   6.189 -0.2547 -1.1415 -0.2007
   29MOL0     C 3718   4.436   7.752   6.193 -0.0021 -0.1733  0.0925
   29MOL0     C 3719   4.293   7.760   6.232 -0.2726 -0.5654  0.4356
   29MOL0     O 3720   4.228   7.853   6.134  0.6834  0.2004  0.9111
   29MOL0     C 3721   4.090   7.854   6.158 -0.1792 -0.5614  0.4787
   29MOL0     C 3722   4.027   7.819   6.282 -0.4332  0.5982  0.4791
   29MOL0     C 3723   3.894   7.843   6.294 -1.1738 -0.2530  0.4165
   29MOL0     C 3724   3.818   7.889   6.189 -0.3706 -0.7049 -0.1966
   29MOL0     C 3725   3.672   7.904   6.198  1.0107  0.4102  0.5512
   29MOL0     O 3726   3.616   7.825   6.299  0.4705  0.3668  0.0596
   29MOL0     C 3727   3.481   7.835   6.341 -1.5138  0.5495  0.1888
   29MOL0     C 3728   3.426   7.713   6.380 -0.0904  0.0361  0.3759
   29MOL0     C 3729   3.297   7.703   6.436  0.1780  0.9697  0.0204
   29MOL0     C 3730   3.223   7.822   6.444  0.0979 -0.3406  0.8276
   29MOL0     O 3731   3.093   7.823   6.495 -0.6286 -0.2124  0.3640
   29MOL0     C 3732   3.095   7.815   6.641 -0.4185  0.0465  0.8417
   29MOL0     C 3733   3.132   7.675   6.699  0.0533 -0.3345 -0.2395
   29MOL0     C 3734   3.104   7.686   6.854  1.0737  0.4839 -0.0905
   29MOL0     C 3735   3.156   7.582   6.947  0.7989 -0.4543  0.3289
   29MOL0     C 3736   3.162   7.440   6.887  0.1828  0.3044 -0.1374
   29MOL0     C 3737   3.016   7.380   6.874  0.0404 -0.2725  0.3787
   29MOL0     C 3738   3.031   7.236   6.838  1.4349 -0.2002 -0.4167
   29MOL0     C 3739   3.021   7.221   6.687 -0.4078 -0.6157 -0.6939
   29MOL0    Cl 3740   3.143   7.308   6.581  0.0021 -0.0802 -0.0199
   29MOL0     C 3741   3.286   7.944   6.404  0.3749 -0.5798  0.1708
   29MOL0     C 3742   3.413   7.958   6.344  0.2098  0.3402 -0.8160
   29MOL0     O 3743   3.609   7.979   6.120 -0.6407  0.0212 -0.5716
   29MOL0     C 3744   3.879   7.926   6.069 -0.4917  0.0193  0.1314
   29MOL0     C 3745   4.012   7.909   6.050  1.1241 -0.4088  0.0988
   29MOL0     N 3746   4.792   7.745   5.987 -0.0903 -0.1712  0.0141
   29MOL0     N 3747   4.786   7.708   5.865 -0.6932  0.1050  0.0664
   29MOL0     C 3748   5.129   7.919   4.976  0.6001 -0.5670  0.0627
   29MOL0     C 3749   5.244   7.927   4.891  0.1579  0.1016 -0.5032
   29MOL0     C 3750   5.693   7.893   4.817  0.0643 -0.5546  0.2654
   29MOL0     C 3751   5.682   7.952   4.690 -0.2943  0.8579 -0.4132
   29MOL0     C 3752   5.796   7.953   4.604  0.9932 -0.1146 -1.0007
   29MOL0     C 3753   5.922   7.903   4.640  0.2352 -0.1690 -0.6172
   29MOL0     O 3754   6.027   7.900   4.561 -0.2064 -0.5774  0.3778
   29MOL0     C 3755   6.016   7.941   4.419 -0.5214 -0.4818 -0.3688
   29MOL0     C 3756   6.157   7.954   4.362 -0.9977  0.3487 -0.4529
   29MOL0     C 3757   6.159   7.934   4.211  0.3222 -0.7396 -0.9998
   29MOL0     C 3758   6.285   7.986   4.143  0.8262 -0.2688  1.0087
   29MOL0     C 3759   6.296   7.942   4.006 -0.2454 -0.5555  0.1849
   29MOL0     C 3760   6.305   7.906   3.888 -0.4100 -0.1585 -1.3632
   29MOL0     C 3761   5.921   7.842   4.768  0.2649 -0.1938 -0.7209
   29MOL0     C 3762   5.814   7.841   4.855  1.1545 -0.2899 -0.3378
   29MOL0     H 3763   5.462   8.074   5.118 -1.6991  2.6902 -1.6262
   29MOL0     H 3764   5.266   8.110   5.240  5.2423  0.5817  0.7846
   29MOL0     H 3765   4.863   7.922   5.087 -2.0798 -0.4686  0.8007
   29MOL0     H 3766   4.908   8.092   5.062 -2.2613 -1.6879 -2.1880
   29MOL0     H 3767   4.840   8.151   5.285  0.7203  0.1359 -2.3378
   29MOL0     H 3768   4.839   7.974   5.326  0.7033 -2.1135 -1.0863
   29MOL0     H 3769   4.626   7.946   5.196  0.5420  0.2029  0.7824
   29MOL0     H 3770   4.646   8.119   5.143 -3.6315  0.7449 -0.3193
   29MOL0     H 3771   4.627   8.198   5.362 -2.5617  0.5761  0.2065
   29MOL0     H 3772   4.489   8.106   5.316 -0.0533  1.2116  0.6790
   29MOL0     H 3773   4.541   8.064   5.550  0.7853 -2.5070  0.8491
   29MOL0     H 3774   4.707   8.018   5.513 -0.6555 -0.0753 -1.0120
   29MOL0     H 3775   4.618   7.821   5.407  2.8657  3.3039  0.1079
   29MOL0     H 3776   4.448   7.883   5.416  1.1128 -2.4954 -2.0194
   29MOL0     H 3777   4.471   7.868   5.685 -3.3076 -0.2643 -2.2885
   29MOL0     H 3778   4.482   7.720   5.604  1.4665 -0.6163  1.3449
   29MOL0     H 3779   4.748   7.871   5.655 -0.8222 -0.1580 -0.8682
   29MOL0     H 3780   4.720   7.707   5.619  1.8128 -0.6406  2.2569
   29MOL0     H 3781   4.537   7.919   5.895  0.4115  0.9394 -1.2113
   29MOL0     H 3782   4.675   8.011   6.135 -0.7382  0.4208 -0.3287
   29MOL0     H 3783   4.725   7.865   6.226  1.2530  4.6139  1.6788
   29MOL0     H 3784   4.447   7.959   6.130  0.5630  0.8994  1.3383
   29MOL0     H 3785   4.491   7.924   6.291 -2.5911 -1.6256 -0.3254
   29MOL0     H 3786   4.456   7.700   6.099  1.4808  0.7194 -0.1206
   29MOL0     H 3787   4.490   7.699   6.271 -2.5177  1.8659  3.5156
   29MOL0     H 3788   4.293   7.808   6.330 -2.3526  0.8140 -0.1612
   29MOL0     H 3789   4.251   7.659   6.226  0.5270 -0.8478 -0.9024
   29MOL0     H 3790   4.089   7.789   6.366 -1.3325 -2.4459  0.1725
   29MOL0     H 3791   3.843   7.838   6.390 -1.3825  0.5553  0.3569
   29MOL0     H 3792   3.478   7.622   6.354 -2.1352 -0.7735 -1.2122
   29MOL0     H 3793   3.245   7.614   6.469  2.1116  0.0690  0.7903
   29MOL0     H 3794   2.991   7.836   6.669 -0.0011  0.9810  1.7577
   29MOL0     H 3795   3.154   7.893   6.690 -0.8954  1.9390 -1.4602
   29MOL0     H 3796   3.237   7.648   6.686  0.9300  2.4693  0.4400
   29MOL0     H 3797   3.063   7.603   6.653 -2.8857  1.4644  1.0699
   29MOL0     H 3798   2.996   7.683   6.869  1.1246 -0.5815  0.1078
   29MOL0     H 3799   3.128   7.785   6.893 -0.9663  0.3385  1.7329
   29MOL0     H 3800   3.256   7.607   6.982  0.8658  0.8842 -0.7566
   29MOL0     H 3801   3.092   7.584   7.036 -1.8963  3.4979 -1.3909
   29MOL0     H 3802   3.220   7.369   6.946 -0.5010 -1.8646 -1.9138
   29MOL0     H 3803   3.216   7.446   6.792  1.5616 -0.5318  0.5596
   29MOL0     H 3804   2.960   7.443   6.804 -1.0091  1.0265  2.3017
   29MOL0     H 3805   2.974   7.393   6.974  0.8443  0.7724  0.5971
   29MOL0     H 3806   3.131   7.200   6.865  1.5946 -0.1154 -0.8828
   29MOL0     H 3807   2.952   7.183   6.892  2.4874 -3.3647 -1.7368
   29MOL0     H 3808   2.924   7.250   6.646 -0.9095 -0.8367  0.3027
   29MOL0     H 3809   3.032   7.114   6.666  2.8887 -0.5784  0.2689
   29MOL0     H 3810   3.232   8.037   6.390 -2.6390 -2.3030 -0.3429
   29MOL0     H 3811   3.456   8.056   6.323  3.8404 -0.9934 -0.3128
   29MOL0     H 3812   3.818   7.961   5.987 -0.9517  1.1875  0.9525
   29MOL0     H 3813   4.045   7.950   5.954 -3.5495  0.8838 -1.2100
   29MOL0     H 3814   5.034   7.878   4.942 -0.4389  2.7445 -1.3633
   29MOL0     H 3815   5.242   7.910   4.784  2.1863  3.1602 -1.1730
   29MOL0     H 3816   5.592   7.996   4.648 -1.9618 -2.0685 -0.1582
   29MOL0     H 3817   5.768   8.003   4.512 -1.5560  0.8877  0.2417
   29MOL0     H 3818   5.978   8.043   4.428  2.8687  0.7184  5.1817
   29MOL0     H 3819   5.959   7.873   4.355  0.0985  0.4184 -1.9282
   29MOL0     H 3820   6.205   8.049   4.389  0.8675  0.1660 -2.7715
   29MOL0     H 3821   6.211   7.874   4.413  0.8798  0.2677 -2.4460
   29MOL0     H 3822   6.068   7.976   4.165  0.1358 -0.2024 -0.1558
   29MOL0     H 3823   6.156   7.826   4.196 -0.1803 -0.6421 -1.6638
   29MOL0     H 3824   6.291   8.095   4.149  0.6949  0.0308 -2.5293
   29MOL0     H 3825   6.376   7.947   4.189  0.5770 -0.1017  1.6661
   29MOL0     H 3826   6.298   7.889   3.782 -2.9683 -1.3057 -1.0898
   29MOL0     H 3827   6.020   7.805   4.794  0.7396  0.9318 -0.8645
   29MOL0     H 3828   5.842   7.806   4.954  1.2523  2.7948  0.8154
   30MOL0     O 3829   1.415   0.447   5.782 -0.1426  0.5088  0.0441
   30MOL0     C 3830   1.400   0.561   5.823 -0.3883 -0.9588 -1.4981
   30MOL0     O 3831   1.482   0.667   5.808 -0.1104 -0.6394 -0.1075
   30MOL0     C 3832   1.602   0.652   5.739  0.1477 -0.3830  0.2680
   30MOL0     C 3833   1.711   0.717   5.785 -0.0062 -0.0208  0.2801
   30MOL0     C 3834   1.835   0.715   5.718  0.4870  0.2368  1.0911
   30MOL0     C 3835   1.847   0.650   5.599  0.1464 -0.5379  0.6469
   30MOL0     O 3836   1.970   0.636   5.547  0.2860 -0.6142  0.0533
   30MOL0     C 3837   1.997   0.626   5.409  0.1333 -1.0035  0.0857
   30MOL0     C 3838   2.133   0.689   5.365  1.2411 -0.1781  0.3170
   30MOL0     C 3839   2.143   0.834   5.395  0.5173 -0.4973  0.5724
   30MOL0     C 3840   2.283   0.903   5.360  0.6755  0.3355 -0.1815
   30MOL0     C 3841   2.283   1.057   5.414  0.0611 -0.6607 -0.1168
   30MOL0     C 3842   2.408   1.141   5.404  0.0095  0.8684 -0.8156
   30MOL0     C 3843   2.524   1.080   5.482 -0.2743  0.1257 -0.3581
   30MOL0     C 3844   2.666   1.135   5.442 -0.0723 -0.2960  0.6359
   30MOL0     N 3845   2.698   1.092   5.311 -0.7326 -0.2969  0.3933
   30MOL0     C 3846   2.661   1.177   5.204  0.3391 -0.5227 -0.2828
   30MOL0     C 3847   2.722   1.127   5.099 -0.2820 -0.1604 -0.2372
   30MOL0     C 3848   2.712   1.181   4.955 -0.3332 -0.4723  0.2289
   30MOL0     C 3849   2.762   1.331   4.950  0.2499 -0.6250 -0.1603
   30MOL0     C 3850   2.752   1.396   4.811  0.2683 -0.2817 -0.6298
   30MOL0     C 3851   2.605   1.408   4.763 -1.2776  0.6328 -1.1322
   30MOL0     O 3852   2.528   1.443   4.877 -0.0508  0.6879  0.4156
   30MOL0     C 3853   2.396   1.403   4.902 -0.6594  0.5146  0.0975
   30MOL0     C 3854   2.312   1.378   4.799  0.6429  0.3287 -0.0879
   30MOL0     C 3855   2.181   1.357   4.836 -0.5427  0.4550 -0.5830
   30MOL0     C 3856   2.139   1.351   4.968  0.5311 -0.2407 -0.7201
   30MOL0     C 3857   2.001   1.305   5.004  0.1013 -0.2727  0.9846
   30MOL0     O 3858   1.921   1.312   4.900 -0.1627  0.0404 -0.3778
   30MOL0     C 3859   1.779   1.306   4.930  0.1024  0.6291  0.8003
   30MOL0     C 3860   1.708   1.421   4.936  0.3606  0.7829 -0.2145
   30MOL0     C 3861   1.576   1.416   4.975 -0.2176 -0.0671 -0.2112
   30MOL0     C 3862   1.506   1.300   5.002  0.6712  0.6055  0.9073
   30MOL0     O 3863   1.378   1.308   5.041 -0.0936  0.6194  1.0157
   30MOL0     C 3864   1.326   1.217   5.143 -0.5458  0.7024  0.3948
   30MOL0     C 3865   1.196   1.266   5.226  0.4327  0.0938  0.4293
   30MOL0     C 3866   1.072   1.290   5.127 -0.1389 -0.0443  0.1432
   30MOL0     C 3867   1.019   1.163   5.059  0.9299 -0.2278  0.3848
   30MOL0     C 3868   0.877   1.171   5.020  0.4363 -0.3589 -0.1436
   30MOL0     C 3869   0.854   1.263   4.903 -0.0859  0.0040 -0.8755
   30MOL0     C 3870   0.709   1.249   4.856 -0.1582 -0.0398 -0.2513
   30MOL0     C 3871   0.678   1.114   4.788 -0.7074  0.4616  0.5536
   30MOL0    Cl 3872   0.504   1.098   4.780  0.1345  0.1979  0.2879
   30MOL0     C 3873   1.577   1.179   4.991 -0.1012  0.0255  0.6530
   30MOL0     C 3874   1.706   1.180   4.929 -0.5504  1.0364 -0.2109
   30MOL0     O 3875   1.975   1.282   5.124  0.7495  0.2416  0.2316
   30MOL0     C 3876   2.231   1.373   5.069 -0.9154 -0.2719 -0.0310
   30MOL0     C 3877   2.364   1.396   5.033 -0.1957  1.0482  0.2611
   30MOL0     N 3878   2.806   1.017   5.144  0.4781 -0.3918  0.3011
   30MOL0     N 3879   2.776   0.989   5.264 -0.6263 -0.2419  0.3746
   30MOL0     C 3880   1.736   0.588   5.549 -0.0211 -0.0579 -0.2254
   30MOL0     C 3881   1.610   0.590   5.611 -0.1446  0.2032 -0.0142
   30MOL0     C 3882   1.274   0.589   5.891  0.7372 -0.5549 -0.6880
   30MOL0     C 3883   1.162   0.511   5.865  0.6587  1.4199 -0.6038
   30MOL0     C 3884   1.033   0.537   5.926  0.5464 -0.4739 -0.1373
   30MOL0     C 3885   1.018   0.646   6.013 -0.0550  0.3451 -0.1464
   30MOL0     O 3886   0.906   0.682   6.084 -0.0977 -0.3160 -0.0350
   30MOL0     C 3887   0.806   0.585   6.118 -0.1539  1.1792 -0.1710
   30MOL0     C 3888   0.746   0.619   6.252  0.3059  0.0248  0.2371
   30MOL0     C 3889   0.676   0.755   6.262  0.3591 -0.7061 -0.6589
   30MOL0     C 3890   0.606   0.787   6.396  0.1214 -0.5390 -0.2794
   30MOL0     C 3891   0.484   0.704   6.415 -1.2687  0.0419  0.3581
   30MOL0     C 3892   0.384   0.639   6.415 -0.8273 -0.8511  0.0249
   30MOL0     C 3893   1.120   0.728   6.022 -0.5825 -0.1332  0.2851
   30MOL0     C 3894   1.251   0.698   5.970  0.6452  0.3670  0.1055
   30MOL0     H 3895   1.715   0.765   5.882  2.4597 -0.8265  0.6563
   30MOL0     H 3896   1.925   0.758   5.762  0.7104  1.5174 -0.5313
   30MOL0     H 3897   1.919   0.671   5.347 -0.2856  0.4759  1.6089
   30MOL0     H 3898   2.012   0.522   5.380  0.2391 -0.0974 -3.5015
   30MOL0     H 3899   2.146   0.687   5.256  0.1192  1.0841  0.1392
   30MOL0     H 3900   2.210   0.626   5.411  1.4398 -0.6879 -0.6667
   30MOL0     H 3901   2.123   0.846   5.502  0.7568 -2.5952  0.8939
   30MOL0     H 3902   2.062   0.886   5.343  1.2282  0.2303  0.1728
   30MOL0     H 3903   2.354   0.843   5.418 -0.4575  1.7366  2.8937
   30MOL0     H 3904   2.302   0.897   5.252 -1.7696  4.9545 -1.1271
   30MOL0     H 3905   2.247   1.053   5.517  2.1059 -2.2109  0.5806
   30MOL0     H 3906   2.211   1.114   5.353  0.9878  0.7961  0.0939
   30MOL0     H 3907   2.390   1.244   5.434 -4.0932  0.8676 -2.6313
   30MOL0     H 3908   2.441   1.141   5.299 -2.3625  0.3495 -1.6175
   30MOL0     H 3909   2.525   1.098   5.590  3.1726  0.0801 -0.2755
   30MOL0     H 3910   2.537   0.972   5.465  0.2440  0.0701  0.3418
   30MOL0     H 3911   2.737   1.094   5.515  0.4501  1.8560  1.4336
   30MOL0     H 3912   2.668   1.244   5.441  2.7937 -0.2490  0.6932
   30MOL0     H 3913   2.587   1.257   5.202 -1.1950 -1.9165 -0.9738
   30MOL0     H 3914   2.610   1.171   4.919 -0.8863  2.0765  0.9037
   30MOL0     H 3915   2.774   1.128   4.882 -1.5476 -1.2242 -0.2820
   30MOL0     H 3916   2.868   1.337   4.976 -0.0202  0.4276  0.7817
   30MOL0     H 3917   2.706   1.391   5.022 -1.5613 -2.3780 -0.0275
   30MOL0     H 3918   2.791   1.498   4.808 -0.8007  0.3751  2.8996
   30MOL0     H 3919   2.804   1.323   4.747 -0.0389 -0.3728 -0.7755
   30MOL0     H 3920   2.581   1.309   4.723  0.8244  0.3133 -1.6759
   30MOL0     H 3921   2.611   1.489   4.690  2.4486 -0.3745 -2.1110
   30MOL0     H 3922   2.336   1.379   4.693  0.2790 -0.0362 -0.1787
   30MOL0     H 3923   2.118   1.328   4.753  3.6761 -5.0838 -2.5223
   30MOL0     H 3924   1.764   1.514   4.924  0.7943  0.4552 -0.7497
   30MOL0     H 3925   1.531   1.514   4.977 -1.9183 -0.8163  0.2897
   30MOL0     H 3926   1.399   1.191   5.220 -0.3886 -2.1779 -0.6309
   30MOL0     H 3927   1.308   1.117   5.102 -0.8627  0.6419  0.6767
   30MOL0     H 3928   1.209   1.365   5.272  0.5351 -0.7465  2.3184
   30MOL0     H 3929   1.160   1.192   5.298 -2.5606 -2.2542 -3.1516
   30MOL0     H 3930   1.084   1.366   5.050 -2.1320  0.4286  0.2531
   30MOL0     H 3931   1.007   1.346   5.195  1.0523  0.4745  0.8980
   30MOL0     H 3932   1.079   1.123   4.977 -0.0852 -0.9302 -0.0279
   30MOL0     H 3933   1.018   1.088   5.139  0.8013 -1.0903 -0.4137
   30MOL0     H 3934   0.811   1.194   5.104  0.2561 -0.4188 -0.2675
   30MOL0     H 3935   0.850   1.070   4.990  1.1673 -1.6733  3.1945
   30MOL0     H 3936   0.935   1.256   4.830  1.2037 -1.3719  0.6032
   30MOL0     H 3937   0.878   1.362   4.944  3.0316  0.9083 -4.3446
   30MOL0     H 3938   0.629   1.276   4.924 -0.2847  2.0819 -1.1545
   30MOL0     H 3939   0.682   1.323   4.780 -0.9462 -1.2027 -1.1422
   30MOL0     H 3940   0.705   1.028   4.849  0.2907  1.4468  1.5621
   30MOL0     H 3941   0.730   1.110   4.691  2.3720  2.0752  1.9890
   30MOL0     H 3942   1.524   1.089   5.017 -0.5546  0.0318 -0.2057
   30MOL0     H 3943   1.759   1.089   4.902  0.6030  1.6926 -0.2487
   30MOL0     H 3944   2.201   1.375   5.173  1.4507  0.6726  0.7002
   30MOL0     H 3945   2.440   1.407   5.108 -0.8984  1.4359  0.9289
   30MOL0     H 3946   1.736   0.519   5.465 -1.7977 -1.4503  0.8397
   30MOL0     H 3947   1.526   0.536   5.566  0.6577 -0.5116 -0.7036
   30MOL0     H 3948   1.166   0.434   5.788 -2.2819 -0.1665  0.6397
   30MOL0     H 3949   0.961   0.458   5.910  2.7915 -3.3177  2.5970
   30MOL0     H 3950   0.847   0.485   6.135  2.0932  1.8866 -1.0348
   30MOL0     H 3951   0.733   0.565   6.038  1.6912 -2.3600 -1.1719
   30MOL0     H 3952   0.672   0.542   6.275  3.0758 -2.2170  2.2734
   30MOL0     H 3953   0.814   0.618   6.338  0.5959  0.3535  0.0164
   30MOL0     H 3954   0.590   0.755   6.195  1.3242  1.8475 -2.0182
   30MOL0     H 3955   0.743   0.837   6.233  0.5648  0.8262  3.4509
   30MOL0     H 3956   0.669   0.768   6.483 -4.7779 -2.7218  3.2076
   30MOL0     H 3957   0.573   0.891   6.404  2.3194  0.4165 -2.3113
   30MOL0     H 3958   0.302   0.575   6.393  0.1743 -2.1215 -0.1495
   30MOL0     H 3959   1.110   0.820   6.080 -3.3324 -0.6130  0.7418
   30MOL0     H 3960   1.336   0.754   6.009  0.7547 -1.2270  2.3087
   31MOL0     O 3961   5.718  10.169   7.414 -0.1435 -0.4897 -0.6187
   31MOL0     C 3962   5.650  10.121   7.499 -0.3349  0.0642 -0.0929
   31MOL0     O 3963   5.685  10.011   7.569  0.1283 -0.0196  0.1291
   31MOL0     C 3964   5.815   9.979   7.566  0.1754  0.8954 -0.0611
   31MOL0     C 3965   5.861   9.866   7.499  0.6568 -0.4354 -0.5494
   31MOL0     C 3966   5.997   9.826   7.490  0.7983 -0.2777 -0.1637
   31MOL0     C 3967   6.091   9.910   7.561 -0.7191  0.4011 -0.3729
   31MOL0     O 3968   6.231   9.890   7.553 -0.4423  0.1979 -1.3357
   31MOL0     C 3969   6.281   9.772   7.499 -0.7464  0.0273  0.1296
   31MOL0     C 3970   6.411   9.731   7.578 -0.1486 -0.3286  0.4883
   31MOL0     C 3971   6.385   9.691   7.721 -0.6271  0.4769 -0.2286
   31MOL0     C 3972   6.510   9.633   7.792  0.4055 -0.7175  0.2830
   31MOL0     C 3973   6.511   9.647   7.945  0.1078  0.0975  0.9185
   31MOL0     C 3974   6.399   9.566   8.005  0.2157 -0.2346  0.7471
   31MOL0     C 3975   6.393   9.557   8.157  0.2436 -0.0027  0.5480
   31MOL0     C 3976   6.272   9.489   8.212  0.3457  0.7466 -0.2006
   31MOL0     N 3977   6.142   9.569   8.197  0.0763  0.1192 -0.1189
   31MOL0     C 3978   6.059   9.585   8.087  0.4808 -0.3748  0.0961
   31MOL0     C 3979   5.963   9.662   8.133  0.2334 -0.3738 -0.6478
   31MOL0     C 3980   5.848   9.732   8.060 -0.0328  0.1876 -0.6492
   31MOL0     C 3981   5.888   9.875   8.008  0.2634  0.5848 -0.6498
   31MOL0     C 3982   5.906   9.966   8.123 -0.7959 -0.3170 -0.1724
   31MOL0     C 3983   5.935  10.114   8.088  0.2407 -0.2667  0.2681
   31MOL0     O 3984   5.836  10.157   7.989 -0.1044  0.2372 -0.9664
   31MOL0     C 3985   5.712  10.179   8.026  0.1752 -0.4749 -0.6999
   31MOL0     C 3986   5.631  10.186   7.918  0.0408 -0.3091 -0.3940
   31MOL0     C 3987   5.495  10.219   7.943 -0.2813  0.4771 -0.6954
   31MOL0     C 3988   5.439  10.232   8.071  0.6521  0.1162 -0.3949
   31MOL0     C 3989   5.293  10.254   8.092 -1.0646 -0.7600  0.8144
   31MOL0     O 3990   5.249  10.219   8.215 -0.1489  0.2064 -0.5584
   31MOL0     C 3991   5.111  10.203   8.233 -0.3334  0.4199  1.1863
   31MOL0     C 3992   5.061  10.284   8.331  0.3966  0.0478  0.2672
   31MOL0     C 3993   4.921  10.293   8.333  0.4019 -0.1950  0.3029
   31MOL0     C 3994   4.842  10.210   8.249  0.0526 -0.8456  0.8000
   31MOL0     O 3995   4.711  10.233   8.246  0.5757  0.2249 -0.0771
   31MOL0     C 3996   4.617  10.116   8.237  0.6308 -0.9032  0.6774
   31MOL0     C 3997   4.497  10.161   8.316 -0.3007  0.5772  0.0815
   31MOL0     C 3998   4.391  10.048   8.301  0.1350  0.0532 -0.2351
   31MOL0     C 3999   4.243  10.089   8.306  0.2638 -0.3960  0.6558
   31MOL0     C 4000   4.163   9.954   8.330 -0.3988  0.2082 -0.1380
   31MOL0     C 4001   4.022   9.973   8.306  0.0967 -1.7426 -0.2580
   31MOL0     C 4002   3.939   9.835   8.321  0.1752  0.0156 -0.0347
   31MOL0     C 4003   3.793   9.839   8.296 -0.2156  0.0224 -0.2476
   31MOL0    Cl 4004   3.723   9.695   8.351 -0.1094 -0.4319  0.0149
   31MOL0     C 4005   4.893  10.116   8.153 -0.8208  0.3851 -0.0416
   31MOL0     C 4006   5.035  10.112   8.149  0.6686  0.3082 -0.2857
   31MOL0     O 4007   5.233  10.288   7.992 -0.0136  0.5647  0.4652
   31MOL0     C 4008   5.527  10.211   8.175 -0.9445 -0.3546 -0.0574
   31MOL0     C 4009   5.668  10.199   8.155 -0.1722  0.5066 -0.0435
   31MOL0     N 4010   5.986   9.698   8.264  0.1832  0.4468  0.1719
   31MOL0     N 4011   6.097   9.637   8.307  0.6915 -0.3224  0.3730
   31MOL0     C 4012   6.038  10.016   7.638 -0.5828  0.7127 -0.3698
   31MOL0     C 4013   5.906  10.050   7.646  0.2603  1.1249  0.4532
   31MOL0     C 4014   5.509  10.162   7.509  0.0317 -0.5089 -0.8662
   31MOL0     C 4015   5.456  10.258   7.425  0.0172  0.5363 -0.4175
   31MOL0     C 4016   5.322  10.305   7.435 -0.5198 -0.4782 -0.1260
   31MOL0     C 4017   5.248  10.261   7.540 -0.1488 -0.6896 -0.3296
   31MOL0     O 4018   5.117  10.308   7.529 -0.3951 -0.1218 -0.2010
   31MOL0     C 4019   5.018  10.241   7.610  0.4757 -0.1839 -0.3913
   31MOL0     C 4020   4.976  10.326   7.727  0.4420  0.0001 -0.4104
   31MOL0     C 4021   4.908  10.244   7.838 -0.5303 -0.0298  0.1948
   31MOL0     C 4022   4.764  10.201   7.808  0.1042  0.2542 -0.2594
   31MOL0     C 4023   4.679  10.317   7.759 -0.1320 -0.0696 -1.1139
   31MOL0     C 4024   4.615  10.406   7.707 -0.7384  0.6983 -0.1846
   31MOL0     C 4025   5.300  10.172   7.638 -0.0363  0.3256 -0.2289
   31MOL0     C 4026   5.428  10.115   7.619 -0.6818  0.2195  0.0429
   31MOL0     H 4027   5.798   9.799   7.442 -0.6572  0.6454 -0.4381
   31MOL0     H 4028   6.037   9.746   7.428  1.1264 -2.2478  2.4425
   31MOL0     H 4029   6.308   9.795   7.395 -2.9274  0.7244 -0.3318
   31MOL0     H 4030   6.207   9.693   7.510 -1.8967  0.7310 -2.0577
   31MOL0     H 4031   6.467   9.824   7.588 -0.7845  0.2413 -0.9452
   31MOL0     H 4032   6.468   9.654   7.525  0.8847  1.3193 -0.8631
   31MOL0     H 4033   6.297   9.627   7.728 -1.6558  1.4973 -2.6680
   31MOL0     H 4034   6.358   9.779   7.780 -0.6864 -0.8810  1.8945
   31MOL0     H 4035   6.536   9.531   7.765  0.6594 -0.9810  1.4813
   31MOL0     H 4036   6.588   9.700   7.755 -1.2890  0.8202 -0.6578
   31MOL0     H 4037   6.496   9.749   7.981 -0.0154  0.6352 -0.5906
   31MOL0     H 4038   6.601   9.609   7.994  1.1274  0.4973 -0.5619
   31MOL0     H 4039   6.411   9.473   7.950  0.6153  1.4486 -2.2047
   31MOL0     H 4040   6.312   9.601   7.949  1.4326 -0.3317 -1.2937
   31MOL0     H 4041   6.477   9.498   8.194 -1.0993 -4.7045 -2.9029
   31MOL0     H 4042   6.387   9.659   8.196 -0.9806  0.5201 -0.9017
   31MOL0     H 4043   6.291   9.463   8.317 -2.4141  0.0441  0.2095
   31MOL0     H 4044   6.262   9.388   8.170  0.6722 -0.0899  1.6334
   31MOL0     H 4045   6.076   9.553   7.985 -0.3458 -2.4309  0.5586
   31MOL0     H 4046   5.769   9.731   8.136  1.6226  1.3485  1.1645
   31MOL0     H 4047   5.826   9.670   7.972  2.0616  2.1222 -2.6671
   31MOL0     H 4048   5.827   9.910   7.925  0.1669  1.4440 -0.2257
   31MOL0     H 4049   5.983   9.862   7.955 -0.9572  1.8430 -3.3544
   31MOL0     H 4050   5.817   9.965   8.187  0.0903  0.6941  1.1289
   31MOL0     H 4051   5.991   9.933   8.185 -1.8036  0.5550  1.7601
   31MOL0     H 4052   6.027  10.120   8.029 -0.4333 -1.2282 -0.9280
   31MOL0     H 4053   5.950  10.174   8.179 -0.4351  0.9926 -0.4126
   31MOL0     H 4054   5.675  10.166   7.821 -0.0984 -1.2100 -0.2790
   31MOL0     H 4055   5.428  10.229   7.858 -0.2562  1.1669 -0.6400
   31MOL0     H 4056   5.132  10.334   8.395 -0.2668 -0.5787  1.5394
   31MOL0     H 4057   4.881  10.352   8.414  0.4582 -0.1104  0.2700
   31MOL0     H 4058   4.660  10.032   8.293 -0.6240 -0.5580  2.2272
   31MOL0     H 4059   4.599  10.088   8.133  0.2874  0.1698  0.4373
   31MOL0     H 4060   4.459  10.259   8.284 -1.2533 -0.6437 -2.9354
   31MOL0     H 4061   4.522  10.172   8.422  1.7282 -1.3371 -0.1379
   31MOL0     H 4062   4.412   9.978   8.382  1.3596  0.6114 -0.0569
   31MOL0     H 4063   4.397  10.010   8.198 -1.2325 -0.1270 -0.2720
   31MOL0     H 4064   4.238  10.162   8.387  0.0894 -0.1808  0.4546
   31MOL0     H 4065   4.220  10.131   8.207  1.7975  1.5953  1.0780
   31MOL0     H 4066   4.189   9.930   8.434 -0.1402 -1.2756 -0.5262
   31MOL0     H 4067   4.205   9.878   8.264 -1.8253 -1.0696  0.3654
   31MOL0     H 4068   4.009  10.001   8.201 -0.1312 -3.0154 -0.5973
   31MOL0     H 4069   3.977  10.045   8.375 -1.8969 -1.5179 -1.7146
   31MOL0     H 4070   3.987   9.742   8.289  0.7175 -0.2101  1.3593
   31MOL0     H 4071   3.941   9.833   8.430 -0.7424 -1.1798 -0.0264
   31MOL0     H 4072   3.765   9.844   8.190 -0.9952  1.1667 -0.0090
   31MOL0     H 4073   3.740   9.925   8.338  1.1863  0.6971  0.1980
   31MOL0     H 4074   4.845  10.043   8.089  2.3096 -1.3141 -0.6238
   31MOL0     H 4075   5.102  10.051   8.090  2.4730 -0.5657  2.4431
   31MOL0     H 4076   5.496  10.230   8.278  0.9701  1.3947  0.2717
   31MOL0     H 4077   5.735  10.211   8.240  2.7015 -1.0333 -1.9114
   31MOL0     H 4078   6.109  10.093   7.666 -1.0001  1.1063 -0.3804
   31MOL0     H 4079   5.866  10.133   7.704 -0.2073 -1.0514  3.5411
   31MOL0     H 4080   5.508  10.308   7.344 -1.3236  2.2799 -0.2707
   31MOL0     H 4081   5.287  10.377   7.362  1.3517  0.6106 -0.0212
   31MOL0     H 4082   5.053  10.146   7.653 -2.7208 -1.8142 -1.0103
   31MOL0     H 4083   4.933  10.213   7.546  1.5930 -2.1881 -1.1106
   31MOL0     H 4084   5.075  10.363   7.755  0.6244 -1.1014  0.5280
   31MOL0     H 4085   4.925  10.415   7.689 -0.1887  0.7519  2.0202
   31MOL0     H 4086   4.906  10.317   7.919 -0.1883  1.7007 -1.2814
   31MOL0     H 4087   4.971  10.159   7.868  1.8857  1.7457  0.4509
   31MOL0     H 4088   4.765  10.127   7.728  0.9951 -1.3589  1.1675
   31MOL0     H 4089   4.714  10.160   7.897 -0.7768 -0.5750 -1.1128
   31MOL0     H 4090   4.584  10.491   7.651  2.1840  0.0338 -3.0711
   31MOL0     H 4091   5.241  10.143   7.723 -0.2407  0.8935 -0.1711
   31MOL0     H 4092   5.473  10.034   7.676  4.2718  1.5356 -1.5145
   32MOL0     O 4093   1.451   7.535   9.163 -0.5981  0.4774  0.2048
   32MOL0     C 4094   1.532   7.444   9.167  0.3914 -0.2680 -0.1040
   32MOL0     O 4095   1.618   7.422   9.260 -1.0944  0.5117  0.4534
   32MOL0     C 4096   1.619   7.476   9.378  0.7308  0.1521  0.4369
   32MOL0     C 4097   1.608   7.398   9.495  0.5501  0.5487  0.3193
   32MOL0     C 4098   1.607   7.459   9.617  0.1283 -0.6807 -1.1409
   32MOL0     C 4099   1.615   7.602   9.633  0.7537 -0.3466  0.3992
   32MOL0     O 4100   1.626   7.663   9.759 -0.4027 -0.2653 -0.3324
   32MOL0     C 4101   1.719   7.601   9.848 -0.2082  0.6408  0.6120
   32MOL0     C 4102   1.777   7.699   9.953  0.3716 -0.0335  0.1156
   32MOL0     C 4103   1.855   7.807   9.884  0.5528  0.9840  0.7804
   32MOL0     C 4104   1.886   7.914   9.991  0.4215  0.3212  1.2307
   32MOL0     C 4105   2.025   7.973   9.997 -0.2132  0.4975 -0.0853
   32MOL0     C 4106   2.057   8.067   9.882 -0.2002  0.8175  0.4129
   32MOL0     C 4107   2.129   8.193   9.919  0.3912  0.1948 -0.9841
   32MOL0     C 4108   2.073   8.262  10.051 -0.5358  0.3476  0.9669
   32MOL0     N 4109   2.165   8.373  10.083  0.5010  0.2739 -0.8854
   32MOL0     C 4110   2.300   8.359  10.126  0.5949 -0.8002  0.6438
   32MOL0     C 4111   2.333   8.490  10.172 -0.2447 -0.2768 -0.1121
   32MOL0     C 4112   2.471   8.540  10.229  0.2983  0.6221  0.8473
   32MOL0     C 4113   2.493   8.454  10.353  0.0302  0.2333 -0.4396
   32MOL0     C 4114   2.593   8.515  10.466 -0.4916 -0.3801  1.1977
   32MOL0     C 4115   2.739   8.547  10.405  0.0762 -0.3347  0.1464
   32MOL0     O 4116   2.781   8.670  10.466 -0.0997  0.9479  0.4511
   32MOL0     C 4117   2.908   8.679  10.496 -0.8450  0.0264 -0.0423
   32MOL0     C 4118   2.991   8.727  10.393 -0.3025  0.1782  0.2040
   32MOL0     C 4119   3.122   8.773  10.434  0.2275  0.1545  0.1042
   32MOL0     C 4120   3.160   8.751  10.570  0.3139 -0.5743  0.1856
   32MOL0     C 4121   3.296   8.801  10.618  0.3580  0.3214 -0.3562
   32MOL0     O 4122   3.329   8.802  10.755  0.0083 -0.0156 -0.5774
   32MOL0     C 4123   3.461   8.836  10.779  0.0316  0.2397  0.0346
   32MOL0     C 4124   3.570   8.746  10.757 -0.8465 -0.7712 -0.1342
   32MOL0     C 4125   3.695   8.795  10.788 -0.8413  0.8336  0.2648
   32MOL0     C 4126   3.727   8.920  10.842  0.0559  0.2588 -0.9049
   32MOL0     O 4127   3.858   8.954  10.866 -0.6963 -0.4043 -0.5851
   32MOL0     C 4128   3.865   9.048  10.987 -0.8055 -0.3983 -0.2172
   32MOL0     C 4129   3.872   9.199  10.950  0.2064 -0.3476  0.7934
   32MOL0     C 4130   4.012   9.250  10.922 -0.1458  0.4313  0.0955
   32MOL0     C 4131   4.079   9.196  10.798  0.2739 -0.5037  0.0302
   32MOL0     C 4132   4.138   9.317  10.717  0.2975  0.3574 -0.3491
   32MOL0     C 4133   4.201   9.282  10.584 -0.2131  0.8997  0.1614
   32MOL0     C 4134   4.319   9.176  10.596  0.9110  1.5845 -0.5685
   32MOL0     C 4135   4.397   9.163  10.464  0.1730 -1.7234  0.7870
   32MOL0    Cl 4136   4.547   9.256  10.462 -0.0634 -0.3349 -0.5127
   32MOL0     C 4137   3.619   9.005  10.861 -0.3796 -0.0276 -0.1451
   32MOL0     C 4138   3.487   8.960  10.838  0.1111 -0.7711  0.5612
   32MOL0     O 4139   3.362   8.867  10.535 -0.0702  0.2587 -0.1186
   32MOL0     C 4140   3.065   8.707  10.670 -0.6931  1.1575  0.5268
   32MOL0     C 4141   2.938   8.671  10.626  0.3918 -0.6310  0.0873
   32MOL0     N 4142   2.213   8.559  10.162 -0.2073 -0.2306 -0.2288
   32MOL0     N 4143   2.121   8.498  10.096  0.1224 -0.0818 -0.4338
   32MOL0     C 4144   1.640   7.679   9.520  0.3485 -0.4741 -0.2348
   32MOL0     C 4145   1.632   7.619   9.391  0.1228 -0.2494 -0.8043
   32MOL0     C 4146   1.511   7.330   9.072 -0.4396  0.5475 -0.4572
   32MOL0     C 4147   1.400   7.325   8.989  0.5371 -0.7739 -0.3021
   32MOL0     C 4148   1.390   7.226   8.896 -0.3283 -0.1685 -0.7266
   32MOL0     C 4149   1.483   7.115   8.877 -0.0250 -0.5171 -0.1181
   32MOL0     O 4150   1.473   7.011   8.792 -0.1015 -0.3183 -0.1013
   32MOL0     C 4151   1.356   7.013   8.707 -0.5514 -0.1534 -0.2966
   32MOL0     C 4152   1.346   6.879   8.637  0.6387 -0.1476  0.5576
   32MOL0     C 4153   1.448   6.847   8.546  0.1248  0.5428  0.0795
   32MOL0     C 4154   1.426   6.711   8.473 -1.0267 -0.4131  1.9541
   32MOL0     C 4155   1.548   6.685   8.386 -0.7080 -0.7396  0.6806
   32MOL0     C 4156   1.641   6.666   8.304 -0.1011  0.0419  0.4977
   32MOL0     C 4157   1.598   7.129   8.956  0.4186  1.0483 -0.2293
   32MOL0     C 4158   1.611   7.229   9.053 -0.0849 -0.2505  0.3194
   32MOL0     H 4159   1.593   7.291   9.483 -2.1967  0.8815  0.1023
   32MOL0     H 4160   1.599   7.411   9.714  3.0640 -0.2624 -0.5962
   32MOL0     H 4161   1.802   7.566   9.785  0.4241 -0.1614  1.8673
   32MOL0     H 4162   1.679   7.511   9.894  2.3899  0.1029  2.0060
   32MOL0     H 4163   1.841   7.646  10.025 -0.4041 -0.2591  0.6481
   32MOL0     H 4164   1.694   7.749  10.002  0.0821 -1.9712  1.7526
   32MOL0     H 4165   1.783   7.850   9.813 -1.2816 -2.0848  0.6189
   32MOL0     H 4166   1.945   7.771   9.833  0.6614  0.0172  1.6444
   32MOL0     H 4167   1.805   7.987   9.984  0.9404  0.8917  1.0972
   32MOL0     H 4168   1.865   7.869  10.088 -1.0668 -3.4568 -0.6400
   32MOL0     H 4169   2.102   7.895   9.993  1.6832  2.1268  2.1936
   32MOL0     H 4170   2.026   8.009  10.100 -1.1965 -2.9115  1.2487
   32MOL0     H 4171   1.966   8.098   9.829  0.4064  0.5370 -0.8465
   32MOL0     H 4172   2.119   8.018   9.807 -1.0292  1.0971 -0.4819
   32MOL0     H 4173   2.230   8.154   9.931 -0.4977 -1.3785  2.7793
   32MOL0     H 4174   2.113   8.268   9.840 -3.6485  0.6550  0.0394
   32MOL0     H 4175   2.075   8.201  10.142 -0.8484  1.2215  1.5739
   32MOL0     H 4176   1.974   8.306  10.032 -1.2575 -1.9531 -1.1790
   32MOL0     H 4177   2.377   8.283  10.119  1.7913  0.4719 -1.1643
   32MOL0     H 4178   2.459   8.640  10.272  2.0314  0.1794  2.4802
   32MOL0     H 4179   2.552   8.542  10.155 -1.0881  0.6879 -0.7356
   32MOL0     H 4180   2.530   8.355  10.326  0.4266  1.1077 -3.5039
   32MOL0     H 4181   2.393   8.437  10.395  0.4617 -0.2726  0.3940
   32MOL0     H 4182   2.551   8.612  10.495 -3.1631 -1.4469  1.1725
   32MOL0     H 4183   2.597   8.436  10.541 -0.6739 -0.5138  1.0664
   32MOL0     H 4184   2.740   8.561  10.296 -3.4815 -2.1505 -0.2623
   32MOL0     H 4185   2.812   8.467  10.420  2.2614  1.8113  1.5878
   32MOL0     H 4186   2.961   8.736  10.289  1.8086 -0.6296 -0.5230
   32MOL0     H 4187   3.194   8.814  10.364 -2.5178  3.1495 -1.1848
   32MOL0     H 4188   3.547   8.653  10.707 -4.2597 -0.9903  1.5790
   32MOL0     H 4189   3.775   8.733  10.750  0.6871  2.4897  0.6435
   32MOL0     H 4190   3.953   9.025  11.047  2.6664 -1.2339 -5.1047
   32MOL0     H 4191   3.782   9.026  11.055 -0.5105 -1.6121 -0.2179
   32MOL0     H 4192   3.814   9.263  11.018 -1.6501 -1.8157  0.6777
   32MOL0     H 4193   3.809   9.213  10.862 -0.8434 -0.8141  1.4495
   32MOL0     H 4194   4.083   9.228  11.003  1.9731 -1.4225 -2.0965
   32MOL0     H 4195   3.999   9.359  10.924  1.4668  0.6588  1.3437
   32MOL0     H 4196   4.158   9.127  10.827 -1.0888 -2.1854 -0.1509
   32MOL0     H 4197   4.008   9.152  10.728 -0.8187  2.3062 -0.7866
   32MOL0     H 4198   4.214   9.369  10.776 -0.4755 -0.9348  1.9478
   32MOL0     H 4199   4.052   9.383  10.702  0.6687  1.7559  2.8113
   32MOL0     H 4200   4.250   9.372  10.547  1.0912 -0.3123 -1.1663
   32MOL0     H 4201   4.128   9.244  10.512  1.1994 -3.1171  0.5353
   32MOL0     H 4202   4.381   9.185  10.686 -0.2385 -2.5104  0.8204
   32MOL0     H 4203   4.285   9.074  10.615 -1.2208  2.7402  2.8143
   32MOL0     H 4204   4.331   9.182  10.380  0.8712 -2.6994 -0.0006
   32MOL0     H 4205   4.427   9.059  10.446 -0.5661 -1.6270 -1.2003
   32MOL0     H 4206   3.622   9.106  10.902 -0.1971  0.1056 -0.4843
   32MOL0     H 4207   3.405   9.022  10.874 -0.5698 -2.5208  2.2066
   32MOL0     H 4208   3.102   8.704  10.772  1.8746 -2.1853 -0.3283
   32MOL0     H 4209   2.867   8.646  10.705  2.5872  1.3825  2.9274
   32MOL0     H 4210   1.656   7.785   9.533 -0.8313 -0.5355  2.3147
   32MOL0     H 4211   1.639   7.686   9.306  3.1698  2.1063  1.0795
   32MOL0     H 4212   1.330   7.407   9.000  3.3561  2.1968 -2.4430
   32MOL0     H 4213   1.295   7.230   8.845 -0.0630  1.5593 -1.1529
   32MOL0     H 4214   1.360   7.096   8.636  1.5791  1.3474  1.4319
   32MOL0     H 4215   1.265   7.016   8.768  0.1107 -0.2364  0.7348
   32MOL0     H 4216   1.334   6.802   8.713  1.0284  0.5075  1.2967
   32MOL0     H 4217   1.254   6.872   8.579  0.3883  1.5575  0.6965
   32MOL0     H 4218   1.547   6.860   8.592  1.5563  3.1443 -3.2363
   32MOL0     H 4219   1.452   6.930   8.475  2.3255  0.0874 -0.3995
   32MOL0     H 4220   1.422   6.631   8.547 -0.2511 -0.2614  2.1730
   32MOL0     H 4221   1.333   6.697   8.417 -0.7246  1.6692  0.8278
   32MOL0     H 4222   1.732   6.650   8.250 -1.4250  1.5985 -2.4519
   32MOL0     H 4223   1.672   7.052   8.934  1.4513  2.4004 -1.7321
   32MOL0     H 4224   1.694   7.230   9.122 -0.8830  1.3084  1.3336
   33MOL0     O 4225   2.647   3.009   3.131  0.1083  0.1359  0.0839
   33MOL0     C 4226   2.680   3.006   3.250 -0.0492  0.7181  0.7566
   33MOL0     O 4227   2.603   3.056   3.353 -0.5845 -0.1809 -0.0909
   33MOL0     C 4228   2.464   3.072   3.321  0.5094  0.9020 -0.3447
   33MOL0     C 4229   2.399   3.196   3.334  0.0168 -0.6539  0.2952
   33MOL0     C 4230   2.258   3.213   3.308  0.0110 -1.1175 -0.4319
   33MOL0     C 4231   2.189   3.113   3.241  0.5667 -0.5619 -0.1997
   33MOL0     O 4232   2.070   3.131   3.187 -0.5905  1.2964  0.0987
   33MOL0     C 4233   1.979   3.213   3.244  1.1645 -0.2604  1.1845
   33MOL0     C 4234   1.840   3.145   3.232  0.1308 -0.5209  0.3260
   33MOL0     C 4235   1.789   3.097   3.096 -0.1196 -0.0798  0.0638
   33MOL0     C 4236   1.747   2.950   3.111 -0.2486 -0.7961  0.4903
   33MOL0     C 4237   1.661   2.915   2.981  0.9132 -0.2319 -0.0913
   33MOL0     C 4238   1.576   2.783   2.985 -0.2927  0.3804  0.5776
   33MOL0     C 4239   1.462   2.772   2.883  0.6003 -0.1225  0.7401
   33MOL0     C 4240   1.340   2.857   2.924  0.3928  0.4951 -0.0427
   33MOL0     N 4241   1.263   2.909   2.814 -0.8106  0.2072 -0.1754
   33MOL0     C 4242   1.307   2.997   2.720 -0.9979 -0.5828 -0.3463
   33MOL0     C 4243   1.212   3.023   2.640 -0.3361 -0.0405 -0.3770
   33MOL0     C 4244   1.214   3.089   2.504  0.2238 -1.0683  0.1807
   33MOL0     C 4245   1.247   3.245   2.516  0.3946 -0.7959 -0.5547
   33MOL0     C 4246   1.142   3.332   2.446  0.5085 -0.0285  0.2869
   33MOL0     C 4247   1.138   3.314   2.301  0.1881  0.3458  0.1705
   33MOL0     O 4248   1.133   3.436   2.222  0.1352 -0.4560  0.7253
   33MOL0     C 4249   1.024   3.485   2.154  1.1525  0.4696 -0.9054
   33MOL0     C 4250   1.042   3.596   2.069 -0.5649  1.0275 -1.0450
   33MOL0     C 4251   0.940   3.653   1.998  0.2274  0.2155  0.1446
   33MOL0     C 4252   0.807   3.599   2.010 -0.4326  0.7087 -0.6199
   33MOL0     C 4253   0.690   3.646   1.934 -0.7735  0.4933 -0.3740
   33MOL0     O 4254   0.717   3.730   1.830 -0.4108 -0.9147 -0.0839
   33MOL0     C 4255   0.627   3.729   1.731  0.2352  0.0982  0.0691
   33MOL0     C 4256   0.526   3.839   1.716 -0.9148 -0.0161 -0.1576
   33MOL0     C 4257   0.427   3.827   1.617  0.2929  0.0916 -0.3057
   33MOL0     C 4258   0.429   3.715   1.532  0.4401 -0.9805 -0.9032
   33MOL0     O 4259   0.335   3.697   1.436 -0.6708 -0.5750 -0.2953
   33MOL0     C 4260   0.221   3.626   1.489 -0.5491 -0.4189 -0.3624
   33MOL0     C 4261   0.092   3.668   1.418  0.1325  0.3847  0.1709
   33MOL0     C 4262   0.115   3.666   1.264  0.3490  0.5855  0.6688
   33MOL0     C 4263  -0.014   3.718   1.189 -0.0070  0.0655 -0.2876
   33MOL0     C 4264  -0.052   3.635   1.066 -0.9564  0.5972  0.0228
   33MOL0     C 4265  -0.117   3.698   0.938 -0.2482 -0.5472 -0.6061
   33MOL0     C 4266  -0.233   3.792   0.972  0.0738 -0.5701 -0.0517
   33MOL0     C 4267  -0.362   3.722   1.018  0.0671  0.5873 -0.4550
   33MOL0    Cl 4268  -0.384   3.557   0.951 -0.2345  0.1623  0.2061
   33MOL0     C 4269   0.525   3.614   1.546 -0.2640 -0.2118  0.4271
   33MOL0     C 4270   0.619   3.618   1.650 -0.6384 -0.1243 -0.3519
   33MOL0     O 4271   0.586   3.587   1.954  0.2069 -0.4598  0.4458
   33MOL0     C 4272   0.789   3.480   2.097  0.3054  0.0437  0.1829
   33MOL0     C 4273   0.897   3.428   2.166  0.9228 -0.4630  0.2417
   33MOL0     N 4274   1.100   2.950   2.684  0.5460  0.5675 -0.0451
   33MOL0     N 4275   1.135   2.886   2.790  0.2677 -0.2474 -0.3653
   33MOL0     C 4276   2.253   2.990   3.228  0.4168 -0.1018  0.4042
   33MOL0     C 4277   2.391   2.969   3.266  0.2790 -0.3253 -0.5554
   33MOL0     C 4278   2.819   2.958   3.291  0.2512 -0.2559  0.6068
   33MOL0     C 4279   2.859   2.963   3.427  0.3598 -0.6001  0.7312
   33MOL0     C 4280   2.989   2.923   3.463  0.4998 -0.7130  0.2715
   33MOL0     C 4281   3.091   2.916   3.368  0.4039 -0.1976  0.1297
   33MOL0     O 4282   3.217   2.894   3.409 -0.1413 -0.4554  0.2099
   33MOL0     C 4283   3.320   2.938   3.320 -0.1147  0.7918  0.0259
   33MOL0     C 4284   3.454   2.951   3.389 -0.5707 -0.1839  0.0618
   33MOL0     C 4285   3.498   2.816   3.440 -0.0843  0.3200 -0.9932
   33MOL0     C 4286   3.612   2.830   3.539  0.2291  0.1196  0.1216
   33MOL0     C 4287   3.730   2.896   3.478  0.1487  0.0045 -0.0542
   33MOL0     C 4288   3.834   2.948   3.434  0.8167  0.2389  0.3275
   33MOL0     C 4289   3.055   2.911   3.234  0.3628 -0.0824  0.8286
   33MOL0     C 4290   2.919   2.938   3.194 -0.1313  0.1698  0.1958
   33MOL0     H 4291   2.465   3.275   3.369  0.2393 -0.3876 -0.6858
   33MOL0     H 4292   2.214   3.309   3.333  2.2616 -0.3997  1.0614
   33MOL0     H 4293   1.968   3.306   3.187  0.5577 -0.8337  0.3435
   33MOL0     H 4294   2.001   3.236   3.349 -5.2802 -0.6075  3.0054
   33MOL0     H 4295   1.760   3.207   3.273 -0.3517 -1.3583  0.6859
   33MOL0     H 4296   1.842   3.058   3.299 -2.8618 -1.6136 -0.8094
   33MOL0     H 4297   1.868   3.089   3.021 -1.3363  0.5506 -1.3321
   33MOL0     H 4298   1.712   3.168   3.065  0.0030  2.2224  4.1972
   33MOL0     H 4299   1.828   2.882   3.137  0.0514 -0.0419  1.6028
   33MOL0     H 4300   1.687   2.948   3.202 -1.6269 -0.5689 -0.3825
   33MOL0     H 4301   1.723   2.927   2.891  1.8379  0.1117  0.5750
   33MOL0     H 4302   1.579   2.988   2.976 -0.8593 -2.0590  0.7405
   33MOL0     H 4303   1.530   2.767   3.083  0.3344 -0.5321  0.7398
   33MOL0     H 4304   1.651   2.704   2.973  0.5259  0.9914  1.5701
   33MOL0     H 4305   1.502   2.796   2.784  0.3853  2.7466  1.2574
   33MOL0     H 4306   1.425   2.670   2.868  0.8512  0.0422 -1.2858
   33MOL0     H 4307   1.373   2.938   2.990 -1.7132 -0.9298  3.0215
   33MOL0     H 4308   1.286   2.789   2.991  0.1198 -2.3138 -2.8770
   33MOL0     H 4309   1.408   3.037   2.717 -0.5144 -0.8649  4.5069
   33MOL0     H 4310   1.118   3.073   2.454  0.1233  0.0130 -0.0083
   33MOL0     H 4311   1.281   3.040   2.433 -0.9793  1.8254 -3.3063
   33MOL0     H 4312   1.341   3.261   2.463  0.8269 -0.9518  0.1543
   33MOL0     H 4313   1.253   3.286   2.617 -2.0280 -1.4223 -0.0899
   33MOL0     H 4314   1.040   3.316   2.481 -0.4373  0.8891 -1.8778
   33MOL0     H 4315   1.170   3.434   2.475  1.3464 -0.2458  0.2898
   33MOL0     H 4316   1.056   3.246   2.278  1.3509 -0.5732 -1.4216
   33MOL0     H 4317   1.226   3.262   2.263 -0.1560 -0.5897  0.6485
   33MOL0     H 4318   1.139   3.638   2.048  0.2554  0.1579  0.8186
   33MOL0     H 4319   0.966   3.736   1.934 -1.0820 -0.8992 -1.9674
   33MOL0     H 4320   0.531   3.933   1.771 -0.2139  0.5447 -1.1552
   33MOL0     H 4321   0.348   3.901   1.611 -0.6421 -0.5414  2.4947
   33MOL0     H 4322   0.199   3.645   1.594 -0.5352  1.0135 -0.5984
   33MOL0     H 4323   0.240   3.519   1.477 -0.2281 -0.3270 -0.6877
   33MOL0     H 4324   0.069   3.770   1.450  0.8713  0.4562  0.5013
   33MOL0     H 4325   0.017   3.595   1.447  1.3155 -1.0943 -0.3757
   33MOL0     H 4326   0.136   3.563   1.233 -1.7367  0.7008 -1.4309
   33MOL0     H 4327   0.193   3.734   1.230  0.4746  0.8054  1.3776
   33MOL0     H 4328  -0.096   3.720   1.261  0.0955  1.0932 -0.1781
   33MOL0     H 4329   0.027   3.813   1.154  1.5149 -1.5172 -3.0946
   33MOL0     H 4330  -0.127   3.568   1.108 -0.4014  1.5367  2.7311
   33MOL0     H 4331   0.035   3.575   1.037 -0.3444  1.3310  0.3086
   33MOL0     H 4332  -0.155   3.616   0.877 -1.4427 -1.0205  0.7136
   33MOL0     H 4333  -0.041   3.748   0.877  2.6632 -2.0424  1.5733
   33MOL0     H 4334  -0.203   3.868   1.046  1.7104  1.3850 -2.5365
   33MOL0     H 4335  -0.241   3.851   0.880  1.5207 -0.2728 -0.0184
   33MOL0     H 4336  -0.444   3.781   0.977 -1.1555  0.5023  1.7216
   33MOL0     H 4337  -0.366   3.721   1.127  0.5308 -3.8972 -0.3021
   33MOL0     H 4338   0.521   3.532   1.476  2.9022  0.6903 -0.9744
   33MOL0     H 4339   0.690   3.538   1.665 -1.9015 -1.2580 -0.1747
   33MOL0     H 4340   0.695   3.427   2.108 -0.7399  1.3599 -1.7280
   33MOL0     H 4341   0.880   3.334   2.218 -0.2216 -0.8497 -0.7786
   33MOL0     H 4342   2.193   2.915   3.176 -0.7987  1.7997 -1.0505
   33MOL0     H 4343   2.429   2.869   3.249 -2.1558 -1.0408 -2.5043
   33MOL0     H 4344   2.779   2.985   3.498 -2.2398  0.0056 -2.1539
   33MOL0     H 4345   3.003   2.919   3.570 -0.0344  0.4566  0.4083
   33MOL0     H 4346   3.290   3.036   3.281 -0.1318  0.0899 -1.8175
   33MOL0     H 4347   3.341   2.872   3.236  0.1882  1.0416 -0.1001
   33MOL0     H 4348   3.520   2.982   3.308 -0.5015  0.4634  0.3572
   33MOL0     H 4349   3.454   3.026   3.470  0.4418  1.6180 -1.5175
   33MOL0     H 4350   3.519   2.756   3.351 -2.2994 -1.4023 -0.4729
   33MOL0     H 4351   3.418   2.762   3.492  1.2878 -0.3734  0.4715
   33MOL0     H 4352   3.585   2.886   3.629 -0.6234  2.0127 -1.2545
   33MOL0     H 4353   3.632   2.731   3.581  0.8043  1.3384  2.9064
   33MOL0     H 4354   3.922   2.984   3.385 -0.2522  2.6152 -0.0044
   33MOL0     H 4355   3.130   2.898   3.157  0.7401 -2.4335  1.5063
   33MOL0     H 4356   2.893   2.939   3.089 -1.6856  1.0439  0.5609
   34MOL0     O 4357   0.102   3.686  10.167  0.3779 -0.4711 -0.7635
   34MOL0     C 4358   0.160   3.581  10.198  0.3434 -0.0310 -0.5054
   34MOL0     O 4359   0.110   3.459  10.168  0.6818  0.3086 -0.3065
   34MOL0     C 4360   0.002   3.454  10.084 -0.9246 -0.3381 -0.4628
   34MOL0     C 4361   0.018   3.423   9.948 -0.7200 -0.4477  0.2584
   34MOL0     C 4362  -0.093   3.417   9.862  0.5028 -0.9030 -0.0765
   34MOL0     C 4363  -0.222   3.422   9.917  0.5257  0.3792 -0.2523
   34MOL0     O 4364  -0.335   3.403   9.837 -0.3500  0.8667 -0.1114
   34MOL0     C 4365  -0.334   3.455   9.704  0.2260 -0.3219  0.8996
   34MOL0     C 4366  -0.474   3.451   9.635  0.0496  0.0728 -0.1859
   34MOL0     C 4367  -0.565   3.526   9.723  0.6065 -0.3704 -0.3924
   34MOL0     C 4368  -0.680   3.559   9.626 -0.3050 -0.6930 -0.8147
   34MOL0     C 4369  -0.788   3.633   9.703  0.7616 -0.1768 -0.4722
   34MOL0     C 4370  -0.915   3.673   9.620 -0.9637 -0.0223 -0.3645
   34MOL0     C 4371  -1.027   3.729   9.720  0.1550  0.3582  0.4293
   34MOL0     C 4372  -1.139   3.797   9.630  0.7744  0.5943  0.4338
   34MOL0     N 4373  -1.213   3.720   9.524 -0.7227  0.8353  0.4942
   34MOL0     C 4374  -1.343   3.675   9.538 -1.2354 -0.0226  0.0838
   34MOL0     C 4375  -1.376   3.617   9.423  1.4052  0.0392 -0.0190
   34MOL0     C 4376  -1.506   3.546   9.380 -0.4804 -0.1316 -0.5638
   34MOL0     C 4377  -1.536   3.441   9.488  0.0739 -0.6389 -0.0902
   34MOL0     C 4378  -1.586   3.311   9.430  0.5957 -0.8923 -0.3476
   34MOL0     C 4379  -1.723   3.316   9.368  0.8757  0.3255  0.3736
   34MOL0     O 4380  -1.776   3.184   9.366 -0.3155 -0.2138  0.3126
   34MOL0     C 4381  -1.910   3.166   9.360  0.2759  0.8497 -0.0835
   34MOL0     C 4382  -1.956   3.032   9.354 -0.0230 -0.1766 -0.8459
   34MOL0     C 4383  -2.085   3.000   9.314  0.8050  0.4065 -0.2726
   34MOL0     C 4384  -2.156   3.099   9.249 -0.6679 -0.4576 -0.1788
   34MOL0     C 4385  -2.290   3.070   9.207 -0.5271 -0.8902  0.5206
   34MOL0     O 4386  -2.370   3.185   9.174  0.5285  0.7007 -0.5738
   34MOL0     C 4387  -2.507   3.174   9.154  0.1484  0.1488  0.5473
   34MOL0     C 4388  -2.584   3.070   9.108 -0.5973  0.2068 -0.3907
   34MOL0     C 4389  -2.725   3.060   9.087  0.6533  0.7070  0.3527
   34MOL0     C 4390  -2.796   3.185   9.105  1.1932 -0.0444 -0.2588
   34MOL0     O 4391  -2.924   3.181   9.066 -0.5160  0.0653  0.5390
   34MOL0     C 4392  -3.002   3.291   9.103 -0.6952 -0.6468  1.0104
   34MOL0     C 4393  -3.140   3.289   9.039  0.6612 -0.0704  0.1712
   34MOL0     C 4394  -3.146   3.286   8.884 -0.2790 -0.4488  0.1773
   34MOL0     C 4395  -3.285   3.300   8.829  0.1685  0.0965 -0.3198
   34MOL0     C 4396  -3.370   3.167   8.839  0.0279  0.2359 -0.9320
   34MOL0     C 4397  -3.493   3.167   8.749  0.0548  0.4536 -0.1056
   34MOL0     C 4398  -3.584   3.293   8.786  0.0776  0.3312 -0.5044
   34MOL0     C 4399  -3.701   3.307   8.689  0.1141 -0.1294 -0.6373
   34MOL0    Cl 4400  -3.807   3.160   8.709 -0.3141  0.2341  0.4609
   34MOL0     C 4401  -2.728   3.293   9.156 -0.3578 -0.1172  0.2379
   34MOL0     C 4402  -2.584   3.281   9.192  0.7546 -0.1455 -0.2356
   34MOL0     O 4403  -2.329   2.956   9.212  0.0828 -0.8573  0.3307
   34MOL0     C 4404  -2.114   3.233   9.254 -0.5684 -0.6957  0.1230
   34MOL0     C 4405  -1.995   3.264   9.315  0.1503  0.2865  0.4907
   34MOL0     N 4406  -1.284   3.642   9.328 -0.1776  1.0338 -0.1880
   34MOL0     N 4407  -1.186   3.691   9.398 -0.2153 -0.6098 -0.0546
   34MOL0     C 4408  -0.243   3.450  10.053  0.4187  0.2529 -0.3767
   34MOL0     C 4409  -0.127   3.476  10.133  0.3385 -0.1151  0.4690
   34MOL0     C 4410   0.298   3.593  10.258  0.4731  0.3009 -0.9104
   34MOL0     C 4411   0.368   3.716  10.268  0.1062  0.2247 -0.0253
   34MOL0     C 4412   0.489   3.728  10.344  0.7192 -0.2135 -0.2488
   34MOL0     C 4413   0.545   3.606  10.383  0.4603 -0.2478 -0.1654
   34MOL0     O 4414   0.660   3.601  10.452  0.1670 -0.1740 -0.4824
   34MOL0     C 4415   0.689   3.705  10.543  0.2857 -0.0024  0.1107
   34MOL0     C 4416   0.818   3.676  10.622 -0.1932 -0.6914  0.5757
   34MOL0     C 4417   0.947   3.637  10.544 -0.2999 -0.0347 -0.3103
   34MOL0     C 4418   0.974   3.759  10.442  0.4054  0.1769  0.9024
   34MOL0     C 4419   1.118   3.765  10.424  0.4289 -0.1443 -0.1810
   34MOL0     C 4420   1.239   3.775  10.414 -0.2623  0.2189 -0.9220
   34MOL0     C 4421   0.480   3.480  10.364 -0.5461 -1.4537  0.0750
   34MOL0     C 4422   0.358   3.477  10.299  0.1349 -0.6546 -0.0809
   34MOL0     H 4423   0.121   3.425   9.913 -0.1703 -2.1671  1.6198
   34MOL0     H 4424  -0.071   3.403   9.757 -0.3438 -0.5158 -0.3190
   34MOL0     H 4425  -0.263   3.396   9.646  0.1984 -0.0376  0.5753
   34MOL0     H 4426  -0.291   3.555   9.692 -1.4808  0.2774 -0.5621
   34MOL0     H 4427  -0.508   3.349   9.619  1.9333 -0.2953 -2.2539
   34MOL0     H 4428  -0.462   3.497   9.537  2.2375 -1.1759 -0.5530
   34MOL0     H 4429  -0.533   3.618   9.774  0.5955 -1.4725  1.7091
   34MOL0     H 4430  -0.603   3.462   9.803  0.4106  1.0043  0.6507
   34MOL0     H 4431  -0.648   3.622   9.543 -0.1040 -0.4593 -0.5612
   34MOL0     H 4432  -0.711   3.463   9.582  1.7567 -0.1168 -3.8026
   34MOL0     H 4433  -0.764   3.721   9.762 -1.6353 -0.4801  1.1023
   34MOL0     H 4434  -0.825   3.571   9.786  1.9432  0.4090  0.5171
   34MOL0     H 4435  -0.960   3.589   9.567 -4.4391 -0.4006  2.7740
   34MOL0     H 4436  -0.889   3.756   9.553 -0.2844  1.0611  1.1531
   34MOL0     H 4437  -1.078   3.653   9.781 -0.3799  0.5009  0.1658
   34MOL0     H 4438  -0.980   3.804   9.784  0.0833 -0.0298  0.9449
   34MOL0     H 4439  -1.092   3.887   9.588 -1.7855  2.4515  1.3085
   34MOL0     H 4440  -1.223   3.831   9.692  1.5291  1.8790  0.8056
   34MOL0     H 4441  -1.400   3.673   9.630  2.2567 -0.7551  2.4145
   34MOL0     H 4442  -1.491   3.494   9.285  2.9718 -0.3400 -0.0155
   34MOL0     H 4443  -1.583   3.623   9.366  0.2188  0.8207  0.6444
   34MOL0     H 4444  -1.598   3.480   9.569  1.4748  0.5426  0.4485
   34MOL0     H 4445  -1.436   3.426   9.530  0.3790  0.4497 -0.3993
   34MOL0     H 4446  -1.515   3.271   9.356  2.7820  1.5474  0.3119
   34MOL0     H 4447  -1.583   3.245   9.517  0.7816 -1.9459 -1.1316
   34MOL0     H 4448  -1.702   3.351   9.267  0.1298 -0.6815 -0.1429
   34MOL0     H 4449  -1.785   3.391   9.419  1.6749  1.0274  0.3458
   34MOL0     H 4450  -1.886   2.956   9.388 -1.3966 -1.2390 -0.2851
   34MOL0     H 4451  -2.117   2.897   9.321  0.7236  0.5458  1.9110
   34MOL0     H 4452  -2.529   2.980   9.085 -3.9122 -1.4453 -2.6971
   34MOL0     H 4453  -2.786   2.979   9.048 -1.4549  1.1018  2.5789
   34MOL0     H 4454  -2.953   3.376   9.054 -4.1279 -0.7166 -3.0786
   34MOL0     H 4455  -3.017   3.307   9.210  0.6695 -2.5041  1.5332
   34MOL0     H 4456  -3.186   3.385   9.067  1.7522  0.6997 -0.5747
   34MOL0     H 4457  -3.189   3.205   9.087  4.4500 -1.2962  2.2992
   34MOL0     H 4458  -3.085   3.206   8.841 -2.6966 -1.0538 -2.3956
   34MOL0     H 4459  -3.089   3.375   8.857  0.7262 -0.4632  2.0481
   34MOL0     H 4460  -3.333   3.368   8.900 -0.6669 -1.6375  0.8648
   34MOL0     H 4461  -3.285   3.339   8.727  1.0003 -0.2804 -0.4687
   34MOL0     H 4462  -3.410   3.158   8.940  0.1491 -3.5819 -1.0970
   34MOL0     H 4463  -3.307   3.080   8.818 -2.1513 -1.2704 -1.5503
   34MOL0     H 4464  -3.544   3.071   8.759  0.8801 -0.5521 -3.9222
   34MOL0     H 4465  -3.479   3.187   8.642  1.2134 -0.8069 -0.2122
   34MOL0     H 4466  -3.616   3.279   8.890  0.4688 -0.2633 -0.4582
   34MOL0     H 4467  -3.520   3.381   8.777  0.1323  0.2949 -0.4723
   34MOL0     H 4468  -3.656   3.306   8.589 -0.5575 -0.6487 -0.9380
   34MOL0     H 4469  -3.759   3.398   8.708 -1.8563 -1.8230  2.3425
   34MOL0     H 4470  -2.776   3.390   9.169 -0.6910 -0.3892  1.0956
   34MOL0     H 4471  -2.533   3.366   9.238  0.0972 -0.2415  0.7099
   34MOL0     H 4472  -2.167   3.311   9.201  0.2407  0.0806  0.4411
   34MOL0     H 4473  -1.965   3.368   9.321  2.9101 -0.4618  1.0943
   34MOL0     H 4474  -0.347   3.448  10.084 -0.3183 -0.2669 -2.7381
   34MOL0     H 4475  -0.139   3.485  10.240  3.5669 -1.6240  1.0779
   34MOL0     H 4476   0.336   3.818  10.248 -1.8533  0.0112  1.6410
   34MOL0     H 4477   0.535   3.822  10.369  1.4986 -1.3468  3.1010
   34MOL0     H 4478   0.603   3.734  10.605 -0.6394  3.0914 -2.3404
   34MOL0     H 4479   0.712   3.793  10.483  3.1261 -0.4711  0.3768
   34MOL0     H 4480   0.828   3.768  10.680 -0.4986  0.8935 -1.7342
   34MOL0     H 4481   0.799   3.590  10.687  0.1955 -1.4683 -0.3146
   34MOL0     H 4482   0.918   3.547  10.489  0.9947 -1.7949  1.7193
   34MOL0     H 4483   1.033   3.606  10.604  0.0833  2.1195  0.3548
   34MOL0     H 4484   0.920   3.747  10.348  3.4076  0.6222 -1.0023
   34MOL0     H 4485   0.940   3.855  10.484 -3.3355 -1.0446  1.0510
   34MOL0     H 4486   1.345   3.781  10.401 -0.1218 -1.2528 -0.6512
   34MOL0     H 4487   0.520   3.386  10.401 -0.8914 -2.0114 -0.9397
   34MOL0     H 4488   0.302   3.384  10.291  0.2836 -0.7044 -0.5727
   35MOL0     O 4489   6.779   2.730   6.662  0.5222 -0.3916 -0.4589
   35MOL0     C 4490   6.737   2.687   6.767  0.4437  0.1142 -0.9823
   35MOL0     O 4491   6.686   2.767   6.862  0.2168  0.2480 -0.3856
   35MOL0     C 4492   6.702   2.906   6.856 -0.1574  0.4064 -0.4832
   35MOL0     C 4493   6.817   2.974   6.811  1.1904 -0.2108  0.3970
   35MOL0     C 4494   6.828   3.112   6.835  0.3035  0.1895  0.2950
   35MOL0     C 4495   6.735   3.179   6.918 -0.8311  0.0195  0.7827
   35MOL0     O 4496   6.778   3.310   6.940  0.3256  0.6193  0.6334
   35MOL0     C 4497   6.677   3.407   6.963 -0.2634  0.5883 -0.2750
   35MOL0     C 4498   6.753   3.530   6.934  0.5650 -1.1996  0.1837
   35MOL0     C 4499   6.668   3.652   6.942 -0.2213 -0.0322  0.2431
   35MOL0     C 4500   6.754   3.773   6.892  0.4619 -0.4013 -0.4041
   35MOL0     C 4501   6.676   3.900   6.920  0.4104  0.6408  0.5735
   35MOL0     C 4502   6.764   4.017   6.888 -0.3091  0.4203 -0.1331
   35MOL0     C 4503   6.698   4.153   6.875  0.1931 -0.7424 -0.1713
   35MOL0     C 4504   6.793   4.270   6.901 -0.9232 -0.0647  0.1222
   35MOL0     N 4505   6.898   4.295   6.797  0.4942  0.5428 -1.1180
   35MOL0     C 4506   7.036   4.277   6.824  0.5641 -1.3145  0.0318
   35MOL0     C 4507   7.084   4.322   6.701 -0.2546 -0.8077 -0.7870
   35MOL0     C 4508   7.225   4.328   6.655  0.8475 -0.3522  0.4402
   35MOL0     C 4509   7.264   4.177   6.635  0.2399 -0.3132  0.1144
   35MOL0     C 4510   7.209   4.128   6.499 -0.6061  0.3771  0.3348
   35MOL0     C 4511   7.083   4.039   6.511  0.0974  0.1571 -0.5823
   35MOL0     O 4512   7.096   3.898   6.550 -0.5393  0.2980  0.0472
   35MOL0     C 4513   6.986   3.814   6.554 -0.7755  0.4796 -0.3417
   35MOL0     C 4514   6.854   3.855   6.544 -0.1854 -0.3692  0.1049
   35MOL0     C 4515   6.750   3.767   6.537  0.1644  0.5860 -0.1752
   35MOL0     C 4516   6.777   3.627   6.550  0.8129  0.9990 -1.1837
   35MOL0     C 4517   6.661   3.532   6.564  0.5901 -0.1911 -0.2185
   35MOL0     O 4518   6.530   3.587   6.545  0.2849  0.1538  0.7369
   35MOL0     C 4519   6.419   3.506   6.544  0.3110  0.2222 -0.0747
   35MOL0     C 4520   6.303   3.572   6.567  0.7866  0.1305  0.9464
   35MOL0     C 4521   6.179   3.506   6.562 -0.5051 -0.5980 -0.4478
   35MOL0     C 4522   6.166   3.373   6.519  0.6642  0.7921  0.2287
   35MOL0     O 4523   6.065   3.291   6.532  0.2872 -0.3923 -0.1727
   35MOL0     C 4524   5.932   3.341   6.514 -0.5799  0.1064  0.0293
   35MOL0     C 4525   5.830   3.230   6.523 -0.6204 -0.0887  0.7233
   35MOL0     C 4526   5.816   3.142   6.390 -0.1465  0.0634 -0.4469
   35MOL0     C 4527   5.934   3.057   6.360 -1.2508 -0.4536 -0.1199
   35MOL0     C 4528   5.900   2.948   6.260  0.5003  0.1354 -0.4061
   35MOL0     C 4529   6.029   2.872   6.222  0.2481  0.0658 -1.0060
   35MOL0     C 4530   6.079   2.781   6.341 -0.6527 -0.1698 -1.5297
   35MOL0     C 4531   6.105   2.635   6.317 -0.2509  0.5888 -0.6413
   35MOL0    Cl 4532   5.963   2.559   6.236 -0.0574  0.2116  0.3278
   35MOL0     C 4533   6.282   3.307   6.483  0.3003  0.2493 -0.0205
   35MOL0     C 4534   6.403   3.372   6.499 -0.8384  1.3810 -0.1529
   35MOL0     O 4535   6.680   3.413   6.588  0.4682 -0.3330 -0.1577
   35MOL0     C 4536   6.904   3.584   6.572 -1.3697  0.1302  0.1642
   35MOL0     C 4537   7.008   3.677   6.573 -0.3988 -0.1149 -0.2463
   35MOL0     N 4538   6.978   4.345   6.614 -0.0073  0.5321  0.4084
   35MOL0     N 4539   6.867   4.327   6.674 -0.0124  0.3426  0.2413
   35MOL0     C 4540   6.624   3.113   6.968 -0.9816  0.3494 -0.0555
   35MOL0     C 4541   6.611   2.977   6.937 -0.1188  0.5564  0.7273
   35MOL0     C 4542   6.721   2.536   6.795  0.9373 -0.6707  0.9955
   35MOL0     C 4543   6.668   2.489   6.914  0.2940  0.1472  0.4968
   35MOL0     C 4544   6.637   2.349   6.935 -0.3066 -1.3782 -0.3248
   35MOL0     C 4545   6.687   2.262   6.839  0.5451  0.1188 -0.2809
   35MOL0     O 4546   6.683   2.133   6.871 -0.4201 -0.1193  0.1999
   35MOL0     C 4547   6.590   2.063   6.791 -0.4866  0.7191 -0.2558
   35MOL0     C 4548   6.579   1.925   6.839 -0.4595 -0.3494  0.4649
   35MOL0     C 4549   6.535   1.924   6.988  0.5129  0.1521  1.0943
   35MOL0     C 4550   6.388   1.891   6.998  0.7108 -0.0167 -0.0137
   35MOL0     C 4551   6.355   1.750   6.981 -0.3802  0.0523 -0.7361
   35MOL0     C 4552   6.327   1.632   6.988  0.2972 -0.1967 -0.1379
   35MOL0     C 4553   6.755   2.308   6.728  0.2902 -0.4128  0.3274
   35MOL0     C 4554   6.773   2.440   6.704 -0.1479 -0.7205  0.0827
   35MOL0     H 4555   6.896   2.930   6.751 -1.2530 -0.9254 -2.5860
   35MOL0     H 4556   6.923   3.154   6.801  1.1026  1.5891  3.7744
   35MOL0     H 4557   6.656   3.410   7.070 -1.9640  1.8478 -0.6036
   35MOL0     H 4558   6.585   3.405   6.904 -2.5979  2.3192  2.9648
   35MOL0     H 4559   6.798   3.525   6.834  2.8247 -1.8826  1.1637
   35MOL0     H 4560   6.838   3.537   7.002  0.0887 -0.0164  0.6913
   35MOL0     H 4561   6.636   3.673   7.045  2.9428  0.3587  1.2296
   35MOL0     H 4562   6.577   3.648   6.881 -0.7160  1.9869  0.7867
   35MOL0     H 4563   6.848   3.781   6.948  1.3628 -1.1974 -1.7408
   35MOL0     H 4564   6.780   3.782   6.786  1.2548  2.6958 -0.0358
   35MOL0     H 4565   6.652   3.904   7.027 -0.6741 -1.3573  0.4533
   35MOL0     H 4566   6.588   3.898   6.854  0.0719 -0.8077  1.0401
   35MOL0     H 4567   6.815   3.992   6.795 -1.8643  1.4690 -1.3276
   35MOL0     H 4568   6.844   4.022   6.962  1.1447 -1.2186 -1.5054
   35MOL0     H 4569   6.659   4.167   6.774 -0.5149 -2.3359 -0.1360
   35MOL0     H 4570   6.618   4.158   6.950 -0.4443  0.6968 -0.9081
   35MOL0     H 4571   6.842   4.271   7.000  0.3787  2.2729 -0.4695
   35MOL0     H 4572   6.734   4.362   6.910 -0.3389  0.2938  0.4210
   35MOL0     H 4573   7.081   4.225   6.908  0.7212 -1.0103  0.1351
   35MOL0     H 4574   7.291   4.391   6.714  0.5195  3.0700 -2.4976
   35MOL0     H 4575   7.244   4.373   6.557  0.9476  2.4660  1.6679
   35MOL0     H 4576   7.221   4.117   6.716 -3.3429 -0.9032 -2.0391
   35MOL0     H 4577   7.373   4.184   6.638  0.2366  0.9652 -1.4784
   35MOL0     H 4578   7.196   4.210   6.427 -0.2461  0.1606  0.0226
   35MOL0     H 4579   7.279   4.057   6.455 -1.2479  1.1840 -2.1738
   35MOL0     H 4580   7.035   4.040   6.413  1.3594 -0.1838 -1.2250
   35MOL0     H 4581   7.013   4.091   6.577 -1.3873 -2.4898  0.0646
   35MOL0     H 4582   6.841   3.963   6.540  2.2942 -0.0446 -1.3758
   35MOL0     H 4583   6.649   3.805   6.526 -0.8455 -2.1854 -1.6572
   35MOL0     H 4584   6.313   3.678   6.591  0.2953  0.2212  0.7556
   35MOL0     H 4585   6.095   3.566   6.595 -1.1085 -2.9004  2.7427
   35MOL0     H 4586   5.927   3.387   6.415  0.6220  1.0902  0.4018
   35MOL0     H 4587   5.898   3.410   6.593 -1.4924 -1.8803  1.4515
   35MOL0     H 4588   5.732   3.275   6.540  0.0169  2.1436 -0.9552
   35MOL0     H 4589   5.843   3.175   6.617 -1.1750 -0.7891  0.3989
   35MOL0     H 4590   5.799   3.200   6.299  1.5770 -2.1185 -2.2953
   35MOL0     H 4591   5.728   3.083   6.416 -1.2439  1.5605 -0.6416
   35MOL0     H 4592   6.010   3.128   6.325  1.2097 -1.6780  2.2789
   35MOL0     H 4593   5.972   3.012   6.452  0.7230 -0.0931 -0.7043
   35MOL0     H 4594   5.855   2.989   6.169 -2.7885 -2.9078 -0.3818
   35MOL0     H 4595   5.828   2.873   6.295  1.3712 -0.4584  0.1704
   35MOL0     H 4596   6.107   2.948   6.214  0.6550 -0.2272  0.0878
   35MOL0     H 4597   6.010   2.815   6.131  0.5524 -1.0501 -0.3827
   35MOL0     H 4598   6.173   2.818   6.383  0.9145 -1.8977 -3.2933
   35MOL0     H 4599   6.005   2.781   6.422 -0.2675  0.4897 -1.1672
   35MOL0     H 4600   6.109   2.588   6.416  0.9582 -0.0706 -0.9934
   35MOL0     H 4601   6.204   2.627   6.273  0.9706  1.1044  1.8172
   35MOL0     H 4602   6.274   3.203   6.451 -0.4560 -0.1565  1.4346
   35MOL0     H 4603   6.486   3.313   6.462 -2.0244  0.8005 -1.9820
   35MOL0     H 4604   6.915   3.477   6.583  0.8893  0.3177  0.3523
   35MOL0     H 4605   7.107   3.635   6.589 -1.1993 -2.1985 -0.3519
   35MOL0     H 4606   6.555   3.173   7.027 -0.0734  1.8135 -0.4076
   35MOL0     H 4607   6.520   2.927   6.966 -0.1289 -0.1650 -0.4770
   35MOL0     H 4608   6.628   2.568   6.978  0.0410  0.8668 -0.5228
   35MOL0     H 4609   6.604   2.309   7.031 -0.7222  0.1322  0.1963
   35MOL0     H 4610   6.618   2.070   6.686 -1.9829  2.5778 -0.5821
   35MOL0     H 4611   6.491   2.110   6.799 -0.5833  0.3928  0.5956
   35MOL0     H 4612   6.499   1.878   6.782 -1.7771  2.1032  0.1570
   35MOL0     H 4613   6.670   1.867   6.822 -2.2232 -2.0618 -5.0577
   35MOL0     H 4614   6.556   2.016   7.042 -2.5138  1.7018 -0.1459
   35MOL0     H 4615   6.588   1.842   7.038  0.4682 -0.7668 -0.3111
   35MOL0     H 4616   6.354   1.939   7.090 -0.8275  0.9501 -1.0468
   35MOL0     H 4617   6.329   1.944   6.923  0.5798  3.3069  2.2468
   35MOL0     H 4618   6.311   1.526   6.986 -2.6615  0.1936 -1.2683
   35MOL0     H 4619   6.807   2.238   6.663  1.4097 -0.0074  0.7682
   35MOL0     H 4620   6.823   2.471   6.613  0.2261 -0.9923  0.1951
   36MOL0     O 4621   0.635   3.929   0.773 -0.1528  0.4199  0.3954
   36MOL0     C 4622   0.713   3.889   0.858  0.0510  0.5066  0.7352
   36MOL0     O 4623   0.686   3.887   0.990  0.1229  0.3021 -0.1132
   36MOL0     C 4624   0.572   3.944   1.045 -0.3625  0.6602 -0.5885
   36MOL0     C 4625   0.543   4.083   1.020  0.0257  0.0061 -0.0429
   36MOL0     C 4626   0.431   4.134   1.082  1.0781  0.5687  0.7687
   36MOL0     C 4627   0.367   4.063   1.186  0.1425 -0.4808  0.4125
   36MOL0     O 4628   0.267   4.136   1.243 -0.4171  0.4701  0.5292
   36MOL0     C 4629   0.185   4.062   1.330  0.2137  0.0400 -0.3227
   36MOL0     C 4630   0.084   4.167   1.388  0.9773 -0.0372 -0.0040
   36MOL0     C 4631  -0.063   4.126   1.394  0.0495 -0.6706 -0.0883
   36MOL0     C 4632  -0.134   4.198   1.518 -1.6876 -0.8055  0.6353
   36MOL0     C 4633  -0.281   4.163   1.535 -0.3125 -0.9376 -0.4207
   36MOL0     C 4634  -0.366   4.242   1.442  0.1078  0.1593  0.9074
   36MOL0     C 4635  -0.514   4.230   1.473 -0.3896 -0.6024 -0.1813
   36MOL0     C 4636  -0.578   4.343   1.396  1.0629 -0.0701  0.3731
   36MOL0     N 4637  -0.721   4.327   1.393  0.2187 -0.5991 -0.4148
   36MOL0     C 4638  -0.791   4.209   1.398  1.3787  0.4097 -0.0545
   36MOL0     C 4639  -0.913   4.238   1.442 -0.0450  0.4747 -0.0590
   36MOL0     C 4640  -1.023   4.147   1.451  0.0479  0.2665 -0.8693
   36MOL0     C 4641  -1.101   4.171   1.576  0.7785  0.3386 -0.7284
   36MOL0     C 4642  -1.064   4.074   1.684 -0.7997  0.0165  0.2117
   36MOL0     C 4643  -0.917   4.102   1.741  0.5375  0.3474  0.7041
   36MOL0     O 4644  -0.908   4.074   1.885 -0.0611 -0.1091 -0.1997
   36MOL0     C 4645  -0.834   4.163   1.963 -0.9299 -0.7383  0.0654
   36MOL0     C 4646  -0.866   4.185   2.103 -0.2094 -0.2638 -0.2835
   36MOL0     C 4647  -0.822   4.290   2.179 -0.1310 -1.0268 -0.0066
   36MOL0     C 4648  -0.716   4.369   2.130 -0.3296  0.2703 -0.7918
   36MOL0     C 4649  -0.640   4.463   2.221  0.0009 -0.1887  0.5955
   36MOL0     O 4650  -0.679   4.481   2.352 -0.2347 -0.5889 -0.4551
   36MOL0     C 4651  -0.597   4.558   2.428  1.2545  0.0409 -0.9490
   36MOL0     C 4652  -0.660   4.653   2.506  0.6713  0.6624 -0.1424
   36MOL0     C 4653  -0.584   4.742   2.583  0.4795  0.1907  0.1733
   36MOL0     C 4654  -0.449   4.718   2.602 -0.6174 -0.2988 -0.1671
   36MOL0     O 4655  -0.378   4.799   2.687 -0.0027 -0.0783  0.5408
   36MOL0     C 4656  -0.253   4.846   2.644 -1.0145  0.0052 -0.4872
   36MOL0     C 4657  -0.212   4.947   2.742 -0.9936  0.9054  0.2475
   36MOL0     C 4658  -0.059   4.982   2.727  0.2528 -0.3415  0.0764
   36MOL0     C 4659  -0.012   5.083   2.833  0.7366  0.7417  0.1398
   36MOL0     C 4660   0.139   5.086   2.856 -0.1246 -0.5895  0.2191
   36MOL0     C 4661   0.230   5.094   2.724  0.1232 -0.5369  0.0216
   36MOL0     C 4662   0.246   5.237   2.670 -0.0840 -0.6941 -0.7614
   36MOL0     C 4663   0.327   5.244   2.545 -0.0527  0.4172 -0.5821
   36MOL0    Cl 4664   0.495   5.193   2.589  0.1118 -0.8720  0.1720
   36MOL0     C 4665  -0.391   4.610   2.540  0.0827  0.8733 -0.3203
   36MOL0     C 4666  -0.464   4.530   2.450 -0.2970  0.6335 -0.0856
   36MOL0     O 4667  -0.537   4.515   2.167 -0.3523  0.5387  0.3112
   36MOL0     C 4668  -0.669   4.339   2.002  0.2774  0.3818  0.6784
   36MOL0     C 4669  -0.731   4.241   1.920 -0.2302  0.1145 -0.2514
   36MOL0     N 4670  -0.913   4.375   1.465  0.1883 -0.5966 -0.5866
   36MOL0     N 4671  -0.793   4.433   1.441  0.2189  0.0789  0.4575
   36MOL0     C 4672   0.401   3.931   1.206 -0.4453  0.4162  0.4109
   36MOL0     C 4673   0.508   3.874   1.141 -0.2415 -0.4846 -0.4022
   36MOL0     C 4674   0.848   3.845   0.816  0.2107  0.6444  0.8397
   36MOL0     C 4675   0.893   3.889   0.691 -0.6970 -0.4622 -0.2169
   36MOL0     C 4676   1.025   3.859   0.656 -0.2865  0.0816  0.0475
   36MOL0     C 4677   1.111   3.791   0.736  0.3274 -0.4304 -0.9027
   36MOL0     O 4678   1.238   3.749   0.699  0.2424  0.0155 -0.5271
   36MOL0     C 4679   1.296   3.809   0.582 -0.6494  0.3612 -0.0412
   36MOL0     C 4680   1.363   3.933   0.622 -0.6604 -0.5590 -0.3752
   36MOL0     C 4681   1.397   4.011   0.492 -0.0306  0.2302 -0.7200
   36MOL0     C 4682   1.466   4.147   0.527  0.5954 -0.8168  0.4943
   36MOL0     C 4683   1.588   4.139   0.595 -0.0159  0.5516 -0.0541
   36MOL0     C 4684   1.692   4.122   0.654  0.7312  1.0550 -1.0877
   36MOL0     C 4685   1.062   3.747   0.864 -0.0130 -0.1327  0.4327
   36MOL0     C 4686   0.930   3.772   0.903 -0.1280  0.2185 -0.3349
   36MOL0     H 4687   0.592   4.146   0.946  1.7576 -0.2254  0.8496
   36MOL0     H 4688   0.395   4.232   1.053 -0.2767  0.1396  0.9226
   36MOL0     H 4689   0.244   4.015   1.409 -2.3141 -0.4535  1.3916
   36MOL0     H 4690   0.129   3.983   1.280  0.7881 -1.2230  0.9779
   36MOL0     H 4691   0.090   4.250   1.317  4.4272 -0.7676 -0.7173
   36MOL0     H 4692   0.124   4.183   1.488 -2.4091 -3.5315  2.1559
   36MOL0     H 4693  -0.073   4.017   1.391 -1.6514 -0.5288 -1.1405
   36MOL0     H 4694  -0.111   4.158   1.301 -0.4771  0.1067  0.4413
   36MOL0     H 4695  -0.074   4.174   1.606  0.4895 -1.2195 -0.8749
   36MOL0     H 4696  -0.125   4.303   1.488 -3.2696 -0.9549 -0.5153
   36MOL0     H 4697  -0.302   4.188   1.640 -1.5876  0.2637 -0.9247
   36MOL0     H 4698  -0.303   4.057   1.527 -0.0549 -1.4811  3.8634
   36MOL0     H 4699  -0.349   4.209   1.339  0.2602  0.7842  0.7325
   36MOL0     H 4700  -0.333   4.346   1.445  0.5193  0.0526  0.3162
   36MOL0     H 4701  -0.545   4.137   1.425 -0.4211 -0.2845 -0.7907
   36MOL0     H 4702  -0.542   4.242   1.578 -1.7288  0.0386 -0.5968
   36MOL0     H 4703  -0.552   4.348   1.290  0.6468  0.6377  0.2974
   36MOL0     H 4704  -0.540   4.435   1.442  0.6244 -0.6785  2.0212
   36MOL0     H 4705  -0.760   4.112   1.361 -1.6496 -0.0148 -1.8559
   36MOL0     H 4706  -0.998   4.043   1.426  0.0618 -0.4751  1.8406
   36MOL0     H 4707  -1.099   4.169   1.375 -1.5023  0.1017  0.5579
   36MOL0     H 4708  -1.209   4.167   1.558  0.5766 -1.2168  0.5745
   36MOL0     H 4709  -1.083   4.271   1.614  1.9198  0.7325 -2.2022
   36MOL0     H 4710  -1.135   4.079   1.768  0.9636  1.6942  1.7289
   36MOL0     H 4711  -1.069   3.971   1.648 -3.1698  0.0834  0.2004
   36MOL0     H 4712  -0.887   4.204   1.716  2.1399 -0.3120 -0.1570
   36MOL0     H 4713  -0.848   4.037   1.686  0.6336  2.6013 -2.0653
   36MOL0     H 4714  -0.941   4.127   2.157  0.1581 -0.1727  0.3290
   36MOL0     H 4715  -0.863   4.310   2.277  1.7489 -1.1240  0.8401
   36MOL0     H 4716  -0.767   4.674   2.501  0.4650 -0.2071  0.3749
   36MOL0     H 4717  -0.627   4.815   2.651  0.9945 -0.1719  0.9020
   36MOL0     H 4718  -0.258   4.891   2.545  0.7645  0.3524 -0.4617
   36MOL0     H 4719  -0.175   4.768   2.643  1.7169  2.4968 -3.6333
   36MOL0     H 4720  -0.238   4.918   2.845 -2.9129 -0.0328 -0.4534
   36MOL0     H 4721  -0.278   5.034   2.740  0.9133  2.4092  0.1547
   36MOL0     H 4722  -0.047   5.017   2.624  1.8526 -1.5818 -0.1931
   36MOL0     H 4723  -0.004   4.888   2.736 -0.5776 -0.9172 -0.6450
   36MOL0     H 4724  -0.056   5.181   2.810 -0.0343  0.0314 -1.6513
   36MOL0     H 4725  -0.056   5.049   2.927 -1.5149 -1.6817 -1.6383
   36MOL0     H 4726   0.158   4.991   2.907 -2.5147 -0.6193  1.1932
   36MOL0     H 4727   0.155   5.168   2.927  0.7148 -0.6797  0.1444
   36MOL0     H 4728   0.193   5.037   2.639  0.5190 -0.5802 -0.1274
   36MOL0     H 4729   0.330   5.055   2.746  1.3890  1.6594 -1.3600
   36MOL0     H 4730   0.146   5.276   2.651 -0.1791 -0.0547  0.8627
   36MOL0     H 4731   0.300   5.300   2.742  3.1945  1.6667 -4.8561
   36MOL0     H 4732   0.324   5.332   2.480 -0.4257  0.2811 -0.7546
   36MOL0     H 4733   0.292   5.167   2.475  0.4877 -0.0964 -0.2965
   36MOL0     H 4734  -0.291   4.576   2.563 -1.4428 -3.6473  0.6140
   36MOL0     H 4735  -0.431   4.442   2.395 -0.9883  0.4366 -0.1868
   36MOL0     H 4736  -0.577   4.376   1.958 -0.4946  1.1663 -0.2914
   36MOL0     H 4737  -0.680   4.217   1.828  1.8872 -0.2920  0.9517
   36MOL0     H 4738   0.370   3.880   1.297 -2.0674 -1.7231 -1.2359
   36MOL0     H 4739   0.534   3.773   1.173  0.5499  0.5047  2.4503
   36MOL0     H 4740   0.831   3.953   0.630 -2.0456 -1.8291 -0.3611
   36MOL0     H 4741   1.063   3.911   0.568  1.4413 -0.6416  0.3339
   36MOL0     H 4742   1.230   3.814   0.495  0.0909 -1.8971 -0.8089
   36MOL0     H 4743   1.382   3.747   0.554 -0.3416  0.3877  0.8233
   36MOL0     H 4744   1.302   3.998   0.685  0.6552  3.3573 -2.7526
   36MOL0     H 4745   1.456   3.917   0.678  4.5287  1.8245 -6.9145
   36MOL0     H 4746   1.306   4.032   0.435 -0.7901 -0.9274  0.0073
   36MOL0     H 4747   1.457   3.944   0.431  1.3890 -2.3254  3.1451
   36MOL0     H 4748   1.469   4.208   0.437 -3.5753 -1.5102 -0.3173
   36MOL0     H 4749   1.400   4.211   0.586  1.4564  1.2546 -0.6764
   36MOL0     H 4750   1.770   4.085   0.718 -1.8620 -1.5313  0.8570
   36MOL0     H 4751   1.128   3.685   0.923 -1.1025 -0.0790  1.7489
   36MOL0     H 4752   0.895   3.737   1.000 -0.2272  1.0439 -0.0630
   37MOL0     O 4753   9.800   7.170   2.090  0.5594 -0.1165  0.0351
   37MOL0     C 4754   9.845   7.265   2.152  1.0121  0.2798 -0.2693
   37MOL0     O 4755   9.782   7.316   2.261 -0.5982  0.8080 -0.0329
   37MOL0     C 4756   9.664   7.269   2.302  0.4421 -0.2823  0.1284
   37MOL0     C 4757   9.554   7.248   2.228  0.6717 -0.4780 -0.2145
   37MOL0     C 4758   9.435   7.205   2.287 -1.2585  0.0783 -0.3456
   37MOL0     C 4759   9.431   7.173   2.423  0.8414  0.1216  0.2953
   37MOL0     O 4760   9.307   7.126   2.474  0.0248 -0.0373  0.2703
   37MOL0     C 4761   9.300   7.114   2.616 -0.2307 -1.0020  0.2330
   37MOL0     C 4762   9.153   7.098   2.650 -0.5972 -0.3118  0.6627
   37MOL0     C 4763   9.109   6.956   2.609 -0.3336 -0.3251  0.2653
   37MOL0     C 4764   8.965   6.931   2.630  0.3346 -0.6648 -0.8508
   37MOL0     C 4765   8.902   6.933   2.774 -0.1199 -0.4033 -0.1836
   37MOL0     C 4766   8.796   7.030   2.782  0.9193  0.4532 -0.2704
   37MOL0     C 4767   8.736   7.010   2.921 -0.1086  0.2472  0.1374
   37MOL0     C 4768   8.599   7.072   2.941  0.3268  0.4701 -0.4361
   37MOL0     N 4769   8.484   6.986   2.886 -0.8586  0.0654  0.4569
   37MOL0     C 4770   8.406   6.925   2.975  0.8256  0.1388  0.0769
   37MOL0     C 4771   8.291   6.907   2.907 -0.2828  0.2212  0.2254
   37MOL0     C 4772   8.164   6.849   2.959  0.0026  0.7007 -0.0944
   37MOL0     C 4773   8.052   6.959   2.986  0.2093 -1.1534  0.1879
   37MOL0     C 4774   7.920   6.900   3.013  0.5906 -0.5667 -0.3683
   37MOL0     C 4775   7.847   6.857   2.885 -0.8345 -0.0317  0.1216
   37MOL0     O 4776   7.765   6.750   2.907 -1.0106  0.3268 -0.0339
   37MOL0     C 4777   7.632   6.750   2.888  0.7123  0.2217 -0.0011
   37MOL0     C 4778   7.542   6.852   2.843 -0.0339 -0.0077 -0.9983
   37MOL0     C 4779   7.405   6.829   2.817  0.0861  0.5489 -0.5475
   37MOL0     C 4780   7.340   6.712   2.849 -0.2293  0.3631  0.6300
   37MOL0     C 4781   7.193   6.685   2.839  0.6417  0.4680  0.0015
   37MOL0     O 4782   7.119   6.767   2.759 -0.4130 -0.0980 -0.1209
   37MOL0     C 4783   6.988   6.736   2.729 -0.8147 -0.1563  0.9155
   37MOL0     C 4784   6.902   6.774   2.826 -0.1577 -0.1970 -0.9979
   37MOL0     C 4785   6.763   6.748   2.816  0.2731  0.0618  0.3147
   37MOL0     C 4786   6.722   6.676   2.702 -0.2785 -0.6043  0.3264
   37MOL0     O 4787   6.592   6.631   2.680  0.3121 -0.7551  0.4025
   37MOL0     C 4788   6.492   6.669   2.764  0.9348 -0.4946 -0.1914
   37MOL0     C 4789   6.370   6.575   2.741 -0.7407  0.6055  0.0106
   37MOL0     C 4790   6.386   6.436   2.807 -0.4009 -0.4499  0.1880
   37MOL0     C 4791   6.271   6.351   2.762  0.7494 -0.6329 -0.3304
   37MOL0     C 4792   6.131   6.404   2.791 -0.2220  0.4622 -0.7738
   37MOL0     C 4793   6.029   6.303   2.742  0.0675  0.2460  0.5511
   37MOL0     C 4794   5.892   6.352   2.762 -0.8748  0.4548 -0.3082
   37MOL0     C 4795   5.790   6.251   2.702  0.5413 -0.8892 -0.4411
   37MOL0    Cl 4796   5.761   6.273   2.529  0.2083 -0.7264  0.5213
   37MOL0     C 4797   6.817   6.630   2.607 -0.6468 -0.0606  0.6901
   37MOL0     C 4798   6.949   6.671   2.614 -0.4641  0.1944  0.6812
   37MOL0     O 4799   7.141   6.591   2.906  0.6902  0.2746  0.1523
   37MOL0     C 4800   7.425   6.617   2.917  0.5873 -0.4364 -0.6272
   37MOL0     C 4801   7.562   6.642   2.946  0.2830  0.0804 -0.2856
   37MOL0     N 4802   8.311   6.936   2.771  1.0984  0.2072  0.1051
   37MOL0     N 4803   8.427   6.990   2.761  0.0416 -0.1020 -0.8638
   37MOL0     C 4804   9.547   7.190   2.497 -0.5792  0.1127  0.3789
   37MOL0     C 4805   9.666   7.234   2.435  0.1697  1.0490  0.9202
   37MOL0     C 4806   9.959   7.331   2.093  0.3636  0.3736  0.1949
   37MOL0     C 4807  10.002   7.302   1.964 -0.6420 -0.1736  0.4479
   37MOL0     C 4808  10.124   7.359   1.919 -0.1059 -0.7185 -0.6597
   37MOL0     C 4809  10.192   7.448   2.005 -0.4967  0.9704  0.9873
   37MOL0     O 4810  10.316   7.482   1.965 -0.4008  0.6261  0.3252
   37MOL0     C 4811  10.313   7.590   1.869  0.1663 -0.2853  0.0021
   37MOL0     C 4812  10.451   7.643   1.838 -0.3190 -0.6137  0.1047
   37MOL0     C 4813  10.528   7.541   1.750  0.5329  0.0931 -0.6304
   37MOL0     C 4814  10.676   7.552   1.763 -0.0708 -0.6292 -0.3850
   37MOL0     C 4815  10.757   7.495   1.658  0.2196 -0.5018  0.0296
   37MOL0     C 4816  10.817   7.427   1.576  0.8859  0.0719 -0.5780
   37MOL0     C 4817  10.144   7.480   2.135 -0.0487  0.4312  0.1472
   37MOL0     C 4818  10.032   7.413   2.177 -0.0515 -0.4645 -0.0920
   37MOL0     H 4819   9.568   7.284   2.127  0.7360  2.6688  0.8053
   37MOL0     H 4820   9.341   7.197   2.234 -2.1097 -1.0392  1.2679
   37MOL0     H 4821   9.345   7.201   2.665  1.4762 -0.5443 -1.9492
   37MOL0     H 4822   9.348   7.020   2.647  0.0836 -0.8384  0.2514
   37MOL0     H 4823   9.090   7.174   2.602  3.2961  3.6497  1.1314
   37MOL0     H 4824   9.121   7.110   2.754 -1.2122  2.0129  0.2787
   37MOL0     H 4825   9.161   6.880   2.668 -1.3654 -0.5576  0.8990
   37MOL0     H 4826   9.130   6.946   2.502  3.2254 -1.8286  0.9453
   37MOL0     H 4827   8.911   7.000   2.565 -0.8938 -2.8746 -2.2884
   37MOL0     H 4828   8.939   6.838   2.578 -0.5727  1.0439 -3.6859
   37MOL0     H 4829   8.982   6.943   2.847 -0.8827  0.6989  0.5187
   37MOL0     H 4830   8.859   6.833   2.787 -0.6495 -0.4380 -1.9452
   37MOL0     H 4831   8.717   7.012   2.708  0.4217  1.1739  0.0677
   37MOL0     H 4832   8.830   7.133   2.765  1.6117  0.1842 -0.5382
   37MOL0     H 4833   8.724   6.903   2.942 -0.6179  0.2897  0.0784
   37MOL0     H 4834   8.795   7.054   3.002 -1.5929  0.1788  1.3011
   37MOL0     H 4835   8.602   7.174   2.901 -0.0851  1.8973  2.8461
   37MOL0     H 4836   8.586   7.078   3.049  0.4529 -3.3026 -0.0860
   37MOL0     H 4837   8.428   6.896   3.077 -1.8272  3.7228  1.8927
   37MOL0     H 4838   8.192   6.807   3.056 -0.5546 -2.1341 -1.0555
   37MOL0     H 4839   8.132   6.764   2.898  3.2286 -0.3822 -0.4885
   37MOL0     H 4840   8.040   7.025   2.900 -0.7892  0.1105  1.2475
   37MOL0     H 4841   8.079   7.021   3.072  0.4902 -0.5766 -0.3160
   37MOL0     H 4842   7.941   6.809   3.070  0.6950 -2.1536 -2.7547
   37MOL0     H 4843   7.853   6.968   3.066 -0.3490 -0.5049 -1.5937
   37MOL0     H 4844   7.918   6.833   2.805 -0.8253 -0.2653  0.1988
   37MOL0     H 4845   7.780   6.934   2.845 -0.7252 -0.4440 -0.8963
   37MOL0     H 4846   7.579   6.946   2.803  0.9421 -0.6286 -1.6036
   37MOL0     H 4847   7.342   6.898   2.762 -1.8953 -1.8389 -1.4677
   37MOL0     H 4848   6.941   6.822   2.915  0.3809  1.5576 -2.1366
   37MOL0     H 4849   6.697   6.778   2.897 -0.2672  2.1546 -0.8185
   37MOL0     H 4850   6.473   6.776   2.755  0.3693 -0.6998 -1.7053
   37MOL0     H 4851   6.523   6.649   2.868 -0.3412  0.7613  0.4600
   37MOL0     H 4852   6.351   6.568   2.634  0.2707 -0.7664 -0.1172
   37MOL0     H 4853   6.284   6.613   2.797 -3.0582 -0.6048 -2.4717
   37MOL0     H 4854   6.385   6.428   2.916 -0.5129 -0.2338  0.2036
   37MOL0     H 4855   6.472   6.382   2.768 -1.0188  0.1665 -2.1582
   37MOL0     H 4856   6.286   6.325   2.657 -2.0989 -3.3635 -0.2072
   37MOL0     H 4857   6.289   6.254   2.809  1.0696 -0.5153 -0.2018
   37MOL0     H 4858   6.113   6.503   2.750  0.6555  1.8341  1.9006
   37MOL0     H 4859   6.112   6.425   2.897  0.0766 -0.8419 -0.4401
   37MOL0     H 4860   6.045   6.215   2.806  1.0529 -1.2534 -1.6370
   37MOL0     H 4861   6.043   6.276   2.637  0.0164 -0.4927  0.7253
   37MOL0     H 4862   5.875   6.367   2.869  0.1913  0.4337 -0.1242
   37MOL0     H 4863   5.878   6.451   2.718  0.3425  1.0858  0.7008
   37MOL0     H 4864   5.701   6.254   2.766  0.9834  0.9264  0.1607
   37MOL0     H 4865   5.833   6.151   2.713  0.9341 -0.6009  0.8343
   37MOL0     H 4866   6.775   6.561   2.535 -1.7384  0.3360  0.9330
   37MOL0     H 4867   7.020   6.652   2.534  0.1279 -0.4531  1.3453
   37MOL0     H 4868   7.387   6.522   2.954  1.9162  0.0922  2.3806
   37MOL0     H 4869   7.602   6.563   3.008 -1.5597 -0.2975  0.5094
   37MOL0     H 4870   9.560   7.170   2.603  0.4788 -1.5467 -0.0275
   37MOL0     H 4871   9.760   7.254   2.485  0.0148  1.2424  1.1354
   37MOL0     H 4872   9.954   7.230   1.899 -0.9426  1.8589 -1.6962
   37MOL0     H 4873  10.172   7.318   1.831 -1.5579  1.6862 -2.6976
   37MOL0     H 4874  10.243   7.665   1.909  2.8349  0.3555  4.0765
   37MOL0     H 4875  10.268   7.555   1.776  0.2590 -1.7840  0.4910
   37MOL0     H 4876  10.454   7.737   1.782  4.4273  0.5238  1.7925
   37MOL0     H 4877  10.503   7.657   1.933 -0.0242 -0.9031 -0.0123
   37MOL0     H 4878  10.499   7.559   1.647 -0.4298  2.8252  0.0365
   37MOL0     H 4879  10.503   7.441   1.790  1.9331 -0.1778 -0.3886
   37MOL0     H 4880  10.682   7.661   1.771 -0.3765 -0.5835 -0.7915
   37MOL0     H 4881  10.701   7.503   1.858 -1.8862  1.0630  1.0302
   37MOL0     H 4882  10.872   7.379   1.498 -0.4048  0.6816 -1.9219
   37MOL0     H 4883  10.205   7.551   2.190  2.4475 -1.6580  0.2364
   37MOL0     H 4884  10.009   7.420   2.282 -0.1128 -0.9177 -0.0724
   38MOL0     O 4885   6.224   6.742   8.944 -0.8221  0.5217  0.5812
   38MOL0     C 4886   6.247   6.661   9.032  0.0381 -0.1007 -0.5370
   38MOL0     O 4887   6.166   6.570   9.082  0.3722 -0.2956 -0.4106
   38MOL0     C 4888   6.043   6.571   9.018 -0.4107  0.3326  0.3848
   38MOL0     C 4889   6.011   6.528   8.890 -0.7015  0.0389  0.3915
   38MOL0     C 4890   5.884   6.557   8.841  0.6661  0.4844  0.2258
   38MOL0     C 4891   5.786   6.637   8.912 -0.5786  0.7392  0.6885
   38MOL0     O 4892   5.669   6.671   8.846 -0.8431  0.1920 -0.0398
   38MOL0     C 4893   5.562   6.724   8.922 -0.1001  0.4917 -0.1564
   38MOL0     C 4894   5.434   6.738   8.833  0.6227  0.0180 -0.4135
   38MOL0     C 4895   5.372   6.602   8.799  0.2950  0.1499  0.1258
   38MOL0     C 4896   5.238   6.632   8.739 -0.6776 -0.3832 -0.1585
   38MOL0     C 4897   5.167   6.495   8.699 -0.3383  0.8605  0.0206
   38MOL0     C 4898   5.027   6.512   8.641  0.0854  1.1172  0.3347
   38MOL0     C 4899   4.934   6.580   8.741 -1.3816  0.2704 -0.3160
   38MOL0     C 4900   4.803   6.581   8.673  0.0387 -0.7687 -1.0078
   38MOL0     N 4901   4.706   6.681   8.733 -0.2072 -0.6798  0.1517
   38MOL0     C 4902   4.656   6.667   8.859 -0.3630  0.3649  0.0085
   38MOL0     C 4903   4.570   6.778   8.869 -1.0360  0.4199  0.2339
   38MOL0     C 4904   4.481   6.818   8.984 -0.2022  0.0323  0.6067
   38MOL0     C 4905   4.528   6.811   9.126 -0.7618  0.0722  0.1920
   38MOL0     C 4906   4.644   6.912   9.165 -0.2720  0.1429 -0.6341
   38MOL0     C 4907   4.720   6.874   9.293 -0.7245 -0.3329 -0.7783
   38MOL0     O 4908   4.796   6.748   9.274  0.1804 -0.3427 -0.9574
   38MOL0     C 4909   4.932   6.766   9.267  0.6671 -0.5026  0.0862
   38MOL0     C 4910   4.997   6.843   9.366  0.2640 -0.3826 -0.4471
   38MOL0     C 4911   5.137   6.842   9.370  0.7775 -0.6119 -0.0832
   38MOL0     C 4912   5.210   6.788   9.264  0.1400 -0.1015 -0.5580
   38MOL0     C 4913   5.361   6.810   9.257  0.7578 -0.0021 -0.3876
   38MOL0     O 4914   5.436   6.847   9.368 -0.7454 -0.4747 -1.1532
   38MOL0     C 4915   5.562   6.893   9.345 -0.5613 -0.3510  0.3555
   38MOL0     C 4916   5.659   6.862   9.438 -0.6367 -0.3602  0.2116
   38MOL0     C 4917   5.788   6.915   9.434 -0.9401 -0.3566  0.3789
   38MOL0     C 4918   5.818   7.006   9.332  0.3206 -0.0496  0.5898
   38MOL0     O 4919   5.950   7.050   9.322  0.4930  0.1844  0.3727
   38MOL0     C 4920   6.006   7.049   9.184  0.3973 -0.2378 -0.3834
   38MOL0     C 4921   6.152   6.995   9.194  0.2956  0.1801 -1.0340
   38MOL0     C 4922   6.246   7.081   9.265 -0.8550  0.2303 -0.5872
   38MOL0     C 4923   6.384   7.019   9.278  0.4323  0.0900  0.0466
   38MOL0     C 4924   6.489   7.082   9.372  0.4240  0.0522 -0.4563
   38MOL0     C 4925   6.612   6.985   9.398 -0.1896  0.3605  0.3612
   38MOL0     C 4926   6.730   7.040   9.483  0.8169 -0.6385  0.2478
   38MOL0     C 4927   6.815   6.929   9.551  1.4420  0.1095  0.8212
   38MOL0    Cl 4928   6.724   6.815   9.664 -0.1217  0.3120 -0.1300
   38MOL0     C 4929   5.717   7.040   9.238  0.3846  0.4629 -0.8488
   38MOL0     C 4930   5.589   6.993   9.254  0.6491  0.7815  0.2524
   38MOL0     O 4931   5.406   6.773   9.154  0.0375 -0.2492  0.7209
   38MOL0     C 4932   5.132   6.727   9.165  0.0099 -1.2587 -0.0260
   38MOL0     C 4933   4.995   6.716   9.155  0.2208 -0.4755  0.0610
   38MOL0     N 4934   4.576   6.840   8.750  0.8966 -0.3773 -0.7344
   38MOL0     N 4935   4.647   6.786   8.667 -0.6343 -0.2552  0.3499
   38MOL0     C 4936   5.823   6.668   9.039 -0.1640  0.6607  0.9892
   38MOL0     C 4937   5.945   6.627   9.101  0.4896 -0.2805 -0.1903
   38MOL0     C 4938   6.391   6.663   9.080 -1.1877 -0.1813  0.4750
   38MOL0     C 4939   6.492   6.694   8.996  0.1462  0.4934  0.0954
   38MOL0     C 4940   6.623   6.690   9.041  0.7457 -0.2351  0.1482
   38MOL0     C 4941   6.650   6.686   9.180  0.7403 -0.3488 -0.2234
   38MOL0     O 4942   6.767   6.688   9.243  0.0763  0.5184  0.1931
   38MOL0     C 4943   6.883   6.730   9.181 -0.1960  0.7086  0.1031
   38MOL0     C 4944   6.948   6.631   9.080  1.0593 -0.6773 -0.2205
   38MOL0     C 4945   7.086   6.683   9.037 -0.2766  0.0289 -0.0868
   38MOL0     C 4946   7.181   6.689   9.161 -0.2643 -0.4101 -0.8012
   38MOL0     C 4947   7.315   6.709   9.118 -0.3946 -0.1634 -0.6473
   38MOL0     C 4948   7.435   6.710   9.092 -0.6013 -0.1950  0.5820
   38MOL0     C 4949   6.540   6.647   9.265 -0.3694 -0.8232  0.1602
   38MOL0     C 4950   6.412   6.643   9.215  0.2864 -0.5246 -0.3562
   38MOL0     H 4951   6.102   6.504   8.836  0.6452  0.8753  2.1880
   38MOL0     H 4952   5.865   6.519   8.741  1.7213  3.2636 -1.1312
   38MOL0     H 4953   5.583   6.827   8.953  0.1681  0.9376 -1.7638
   38MOL0     H 4954   5.537   6.651   8.999  3.0244 -2.5691 -1.8025
   38MOL0     H 4955   5.467   6.790   8.743  0.7400 -0.0491 -0.4095
   38MOL0     H 4956   5.361   6.785   8.899  0.6423 -0.7555  0.1783
   38MOL0     H 4957   5.358   6.544   8.891 -0.9129  1.3491  0.7358
   38MOL0     H 4958   5.428   6.556   8.716  0.4172  0.5419 -0.0114
   38MOL0     H 4959   5.180   6.680   8.818 -0.8931  1.1248 -1.1851
   38MOL0     H 4960   5.251   6.697   8.652  0.4414 -0.8804 -0.3832
   38MOL0     H 4961   5.160   6.448   8.797  2.1839  0.5572  0.1146
   38MOL0     H 4962   5.234   6.443   8.631  0.0111  0.1457  0.8876
   38MOL0     H 4963   4.985   6.412   8.627 -2.6193  2.0557  1.0347
   38MOL0     H 4964   5.029   6.553   8.540 -0.9420  0.7172  0.1453
   38MOL0     H 4965   4.923   6.520   8.832 -1.7768  2.3428  1.0566
   38MOL0     H 4966   4.954   6.684   8.767 -4.1143  0.0669  3.3280
   38MOL0     H 4967   4.750   6.486   8.679 -0.5107 -0.3921  1.0217
   38MOL0     H 4968   4.820   6.611   8.569 -1.3875  0.9460 -0.7974
   38MOL0     H 4969   4.675   6.591   8.934 -0.3308  1.1336  0.8042
   38MOL0     H 4970   4.393   6.754   8.974 -0.6235  0.8553 -1.7370
   38MOL0     H 4971   4.446   6.918   8.957 -2.3084 -0.6536  0.6122
   38MOL0     H 4972   4.554   6.707   9.146 -1.0181 -0.0258  0.0260
   38MOL0     H 4973   4.443   6.835   9.191 -0.5362 -0.7355  0.7940
   38MOL0     H 4974   4.717   6.914   9.084 -1.0754 -0.3237 -1.3945
   38MOL0     H 4975   4.592   7.007   9.182 -1.1533 -0.1205 -1.6971
   38MOL0     H 4976   4.659   6.862   9.384  0.0069 -1.5989 -0.4386
   38MOL0     H 4977   4.777   6.964   9.319  1.2365 -1.4747 -0.9679
   38MOL0     H 4978   4.943   6.882   9.452  2.2487 -0.0461  0.7115
   38MOL0     H 4979   5.179   6.892   9.457 -2.4144  1.7420  0.2776
   38MOL0     H 4980   5.637   6.780   9.505 -1.3589 -0.4489 -0.1279
   38MOL0     H 4981   5.868   6.895   9.504  0.1679  0.2456 -0.6731
   38MOL0     H 4982   6.001   7.152   9.149  0.6615  0.3360  1.1961
   38MOL0     H 4983   5.944   6.988   9.118 -2.5540  1.3241  0.7645
   38MOL0     H 4984   6.188   6.973   9.093 -0.7876  1.5084 -1.7430
   38MOL0     H 4985   6.144   6.895   9.238 -0.2217  0.3430 -0.7478
   38MOL0     H 4986   6.205   7.111   9.362  2.6952 -0.1178  1.1955
   38MOL0     H 4987   6.263   7.179   9.220  3.2761  0.4854  1.0517
   38MOL0     H 4988   6.363   6.917   9.311 -2.9031  0.5765 -0.2524
   38MOL0     H 4989   6.441   7.030   9.185 -0.2954 -3.3660 -0.9422
   38MOL0     H 4990   6.445   7.117   9.466 -0.8636 -0.0587 -0.9971
   38MOL0     H 4991   6.524   7.168   9.314 -0.5181  1.1623  0.5445
   38MOL0     H 4992   6.648   6.966   9.297 -2.3970 -1.5716 -0.1697
   38MOL0     H 4993   6.568   6.892   9.437 -1.6532  0.2853 -1.3332
   38MOL0     H 4994   6.797   7.108   9.428 -1.6462  0.2998 -1.7704
   38MOL0     H 4995   6.681   7.090   9.566  0.7596 -2.2397  1.1993
   38MOL0     H 4996   6.898   6.969   9.610  0.0912  4.2919  0.2308
   38MOL0     H 4997   6.863   6.874   9.469 -0.5265  1.3541 -1.2976
   38MOL0     H 4998   5.744   7.106   9.156 -1.7225  2.5729  0.0243
   38MOL0     H 4999   5.518   7.025   9.179 -0.4369 -1.9333  0.0039
   38MOL0     H 5000   5.183   6.695   9.075  0.9838 -1.0079  0.4200
   38MOL0     H 5001   4.938   6.665   9.077 -2.6361  1.3050  0.8340
   38MOL0     H 5002   5.745   6.723   9.091 -1.2212 -1.9698  2.3706
   38MOL0     H 5003   5.980   6.658   9.199 -0.7279  0.6946 -0.0384
   38MOL0     H 5004   6.461   6.711   8.893 -1.8051  1.3293  0.7637
   38MOL0     H 5005   6.703   6.720   8.973 -0.2943  1.5703 -0.3523
   38MOL0     H 5006   6.950   6.746   9.266  1.4008 -0.6092 -0.8606
   38MOL0     H 5007   6.864   6.828   9.137 -2.8146 -0.4526 -1.5985
   38MOL0     H 5008   6.955   6.529   9.118 -0.6682  0.1693  2.7853
   38MOL0     H 5009   6.886   6.615   8.992  2.7292 -2.0674 -1.1898
   38MOL0     H 5010   7.083   6.779   8.985  1.3191  0.5871  0.7923
   38MOL0     H 5011   7.136   6.613   8.969 -2.0743 -1.9729  0.5140
   38MOL0     H 5012   7.155   6.761   9.239 -2.3185 -2.2978  0.3650
   38MOL0     H 5013   7.180   6.592   9.212  0.1488  0.7880  1.6385
   38MOL0     H 5014   7.534   6.696   9.053 -1.4286  0.6155 -2.0397
   38MOL0     H 5015   6.568   6.621   9.367 -0.0566  2.0219  0.8743
   38MOL0     H 5016   6.325   6.611   9.270  0.5903 -0.9939 -0.1373
   39MOL0     O 5017   4.860   6.233   0.405  0.2156 -0.0021 -0.6481
   39MOL0     C 5018   4.937   6.268   0.496 -1.2384  0.1505  0.2772
   39MOL0     O 5019   4.901   6.274   0.626 -0.2507 -0.4444 -0.1401
   39MOL0     C 5020   4.786   6.233   0.677  0.2981 -0.1512 -0.1254
   39MOL0     C 5021   4.781   6.129   0.770 -1.3538 -0.3443  0.1687
   39MOL0     C 5022   4.658   6.086   0.825  0.1117  0.3295 -0.4088
   39MOL0     C 5023   4.540   6.150   0.786  0.1630  0.6348  0.2406
   39MOL0     O 5024   4.417   6.110   0.830 -0.8171  0.1267 -0.6922
   39MOL0     C 5025   4.322   6.071   0.733 -0.5544  0.4359  0.1736
   39MOL0     C 5026   4.192   6.143   0.774 -0.6766 -0.4705  1.0723
   39MOL0     C 5027   4.062   6.096   0.706 -0.1220 -0.1513  0.5407
   39MOL0     C 5028   3.935   6.127   0.776 -0.0724 -0.3389 -0.6885
   39MOL0     C 5029   3.823   6.093   0.675  0.2279 -0.9704 -0.2097
   39MOL0     C 5030   3.812   5.945   0.646  1.3494 -0.0751  1.1551
   39MOL0     C 5031   3.712   5.893   0.539 -0.1872 -0.2044  0.9930
   39MOL0     C 5032   3.744   5.953   0.401  0.4361 -0.3090 -0.5274
   39MOL0     N 5033   3.642   5.919   0.298  0.0617 -0.5212 -0.7763
   39MOL0     C 5034   3.523   5.990   0.283 -0.9109 -0.4443 -0.0512
   39MOL0     C 5035   3.467   5.923   0.182 -0.2280  0.3243 -0.3721
   39MOL0     C 5036   3.325   5.929   0.139 -1.0423  0.5081  0.3612
   39MOL0     C 5037   3.248   6.047   0.190  0.5421 -1.2606  0.4719
   39MOL0     C 5038   3.134   6.100   0.103  1.3687  0.1273  0.2442
   39MOL0     C 5039   3.041   6.193   0.180  1.0286  0.8377  0.5110
   39MOL0     O 5040   2.938   6.251   0.094 -0.5078 -0.6724  0.3768
   39MOL0     C 5041   2.979   6.341  -0.007  0.5508 -0.0798  0.1847
   39MOL0     C 5042   3.093   6.413  -0.018  0.0776 -0.5775  0.0972
   39MOL0     C 5043   3.106   6.496  -0.130  0.3173 -0.3004 -0.5899
   39MOL0     C 5044   2.999   6.518  -0.220 -0.4181 -0.3149 -0.3273
   39MOL0     C 5045   3.013   6.625  -0.320  0.1129 -0.2972  0.3841
   39MOL0     O 5046   3.107   6.724  -0.290 -0.4873 -0.0872 -0.0715
   39MOL0     C 5047   3.112   6.828  -0.388 -0.5272  0.3516  0.6572
   39MOL0     C 5048   3.027   6.939  -0.382  0.1108 -0.8901 -0.4842
   39MOL0     C 5049   3.046   7.048  -0.484  0.0141 -0.1078 -0.0861
   39MOL0     C 5050   3.133   7.030  -0.583 -0.5674  0.1383 -0.0103
   39MOL0     O 5051   3.144   7.143  -0.661  0.2500 -0.2426  0.2129
   39MOL0     C 5052   3.194   7.121  -0.798  0.7341 -0.3939  0.1971
   39MOL0     C 5053   3.121   7.014  -0.881  0.5457  0.6166  0.1124
   39MOL0     C 5054   3.158   7.044  -1.026  0.4480  0.1991  1.4035
   39MOL0     C 5055   3.115   6.928  -1.125 -0.2173 -0.1990 -0.2131
   39MOL0     C 5056   3.191   6.954  -1.255  0.1244 -0.1753 -0.6487
   39MOL0     C 5057   3.178   6.841  -1.355 -0.0057  0.6570  0.5878
   39MOL0     C 5058   3.156   6.898  -1.488 -0.9310 -0.5792 -0.4332
   39MOL0     C 5059   3.175   6.790  -1.602  0.8270 -0.7037 -0.1928
   39MOL0    Cl 5060   3.348   6.753  -1.616  0.7966  0.0643 -0.0558
   39MOL0     C 5061   3.215   6.917  -0.591  1.3531  0.0530 -0.0363
   39MOL0     C 5062   3.201   6.821  -0.498 -0.8025 -0.4963  0.2698
   39MOL0     O 5063   2.955   6.610  -0.427  0.1708 -0.2058  0.3477
   39MOL0     C 5064   2.884   6.447  -0.210  0.0838 -0.6283 -0.1684
   39MOL0     C 5065   2.878   6.353  -0.104 -0.0948  0.0237  0.2055
   39MOL0     N 5066   3.555   5.820   0.136  0.0193 -0.0886  0.2841
   39MOL0     N 5067   3.651   5.816   0.215 -0.0283  0.4244  0.6492
   39MOL0     C 5068   4.541   6.250   0.687 -0.9215 -0.0601  0.1577
   39MOL0     C 5069   4.666   6.300   0.638  0.3727  0.3114  0.5003
   39MOL0     C 5070   5.072   6.317   0.449 -0.2333 -0.4905 -0.3009
   39MOL0     C 5071   5.172   6.366   0.538  0.4448  0.5968  0.6596
   39MOL0     C 5072   5.293   6.411   0.495 -0.7517  0.4267  0.7596
   39MOL0     C 5073   5.320   6.414   0.356 -0.1471  1.1224 -0.6435
   39MOL0     O 5074   5.432   6.481   0.309 -0.6007 -0.3973 -0.1640
   39MOL0     C 5075   5.548   6.400   0.317  0.2220 -0.9721  0.2265
   39MOL0     C 5076   5.676   6.469   0.259  0.8733  0.0346 -0.0571
   39MOL0     C 5077   5.676   6.469   0.099 -0.0605  0.9976 -0.9258
   39MOL0     C 5078   5.802   6.537   0.052  0.2147 -0.2321 -0.1210
   39MOL0     C 5079   5.830   6.672   0.079  0.7515 -0.8133 -0.0728
   39MOL0     C 5080   5.840   6.794   0.099 -0.5315  0.2802  0.6022
   39MOL0     C 5081   5.231   6.359   0.268  0.3648 -1.1704 -0.3031
   39MOL0     C 5082   5.106   6.315   0.320  0.6223 -0.4476 -0.2107
   39MOL0     H 5083   4.878   6.089   0.798 -1.1001  0.9908  1.2867
   39MOL0     H 5084   4.650   6.003   0.895  1.5283  1.4397  1.1417
   39MOL0     H 5085   4.293   5.967   0.747 -1.8285  0.9470  1.7867
   39MOL0     H 5086   4.346   6.099   0.630 -0.9078 -0.9127 -0.2874
   39MOL0     H 5087   4.193   6.248   0.746 -0.4888 -0.5796  0.6635
   39MOL0     H 5088   4.190   6.144   0.884  0.3436  3.2737  1.1774
   39MOL0     H 5089   4.060   5.986   0.702  0.5329 -0.1362 -0.7235
   39MOL0     H 5090   4.059   6.151   0.612  0.4367  1.4621  1.4330
   39MOL0     H 5091   3.919   6.063   0.864 -1.4318  1.4803  0.4549
   39MOL0     H 5092   3.929   6.233   0.801 -3.4850  0.6285 -4.4558
   39MOL0     H 5093   3.831   6.164   0.592 -3.8380  1.0325  0.8905
   39MOL0     H 5094   3.733   6.123   0.728  2.3049  1.8441  2.0536
   39MOL0     H 5095   3.784   5.889   0.736 -0.3052  0.1615  0.8114
   39MOL0     H 5096   3.907   5.902   0.612 -0.0183 -0.3578 -2.7582
   39MOL0     H 5097   3.708   5.785   0.528 -2.2737  0.0077 -1.2356
   39MOL0     H 5098   3.606   5.905   0.563 -0.1517  0.0745  1.0226
   39MOL0     H 5099   3.838   5.916   0.360 -0.7416 -2.3662 -1.5644
   39MOL0     H 5100   3.756   6.061   0.413  0.7915 -0.1777 -1.8849
   39MOL0     H 5101   3.484   6.072   0.342  0.5511 -0.4941  1.0249
   39MOL0     H 5102   3.287   5.832   0.171  6.1924 -3.5878 -1.1999
   39MOL0     H 5103   3.308   5.937   0.031 -1.8670 -0.5894  0.4044
   39MOL0     H 5104   3.316   6.133   0.195  0.3097 -0.5375 -4.3340
   39MOL0     H 5105   3.206   6.030   0.290  1.1376 -1.6544  0.6649
   39MOL0     H 5106   3.181   6.145   0.015 -1.2253 -1.3165 -2.0693
   39MOL0     H 5107   3.075   6.013   0.071  2.8073 -1.3770  1.4852
   39MOL0     H 5108   3.104   6.259   0.240  2.9935 -1.8944  1.6104
   39MOL0     H 5109   2.982   6.149   0.261 -0.8452 -1.8773 -2.1361
   39MOL0     H 5110   3.177   6.402   0.050  1.0569 -1.1422 -1.1460
   39MOL0     H 5111   3.198   6.554  -0.133 -1.0196  2.7955  4.6578
   39MOL0     H 5112   2.957   6.942  -0.299  2.6021  0.9180  1.7106
   39MOL0     H 5113   2.980   7.133  -0.469  0.8501  0.3808  1.0416
   39MOL0     H 5114   3.295   7.078  -0.799  0.2204 -1.7809 -3.2154
   39MOL0     H 5115   3.194   7.222  -0.841  1.1270 -0.9271 -1.0938
   39MOL0     H 5116   3.013   7.027  -0.884  0.1309 -2.2873 -0.6699
   39MOL0     H 5117   3.147   6.913  -0.848 -0.8446  0.1837 -0.0417
   39MOL0     H 5118   3.264   7.068  -1.031  0.3432  1.8498 -6.8063
   39MOL0     H 5119   3.100   7.133  -1.052  2.1882  1.0069  0.1562
   39MOL0     H 5120   3.146   6.834  -1.080  0.2938  0.9686  2.0108
   39MOL0     H 5121   3.008   6.931  -1.149  0.0133 -1.1952 -1.4481
   39MOL0     H 5122   3.296   6.975  -1.234  0.0995 -0.9770  0.3520
   39MOL0     H 5123   3.137   7.041  -1.294 -1.1022 -0.3470  0.5998
   39MOL0     H 5124   3.097   6.778  -1.316  0.9063  0.2748  1.9132
   39MOL0     H 5125   3.269   6.780  -1.353  0.8108  1.8060  3.4867
   39MOL0     H 5126   3.059   6.948  -1.494 -0.8811 -0.5771 -1.4759
   39MOL0     H 5127   3.236   6.971  -1.504 -0.0226 -1.6549 -0.9457
   39MOL0     H 5128   3.129   6.814  -1.698  2.7247 -0.0560 -0.9908
   39MOL0     H 5129   3.120   6.701  -1.571  2.2543 -1.1519  1.2177
   39MOL0     H 5130   3.295   6.918  -0.665  0.8110 -2.5955 -0.7817
   39MOL0     H 5131   3.266   6.734  -0.499  0.7907  0.6603  0.3950
   39MOL0     H 5132   2.803   6.465  -0.279  0.7752  0.8200 -0.6598
   39MOL0     H 5133   2.788   6.294  -0.094 -1.7733  1.7452 -3.1303
   39MOL0     H 5134   4.455   6.309   0.655  2.9027  5.1641 -1.9528
   39MOL0     H 5135   4.665   6.386   0.572 -1.3354  1.3214  1.7748
   39MOL0     H 5136   5.158   6.350   0.644 -0.6791 -2.6031  0.1445
   39MOL0     H 5137   5.363   6.454   0.566  0.7171  1.6887 -1.3325
   39MOL0     H 5138   5.525   6.306   0.267 -0.2403 -0.3330 -0.7901
   39MOL0     H 5139   5.579   6.384   0.421  3.6480 -1.8586 -0.7839
   39MOL0     H 5140   5.695   6.568   0.302  0.4213  0.2612 -0.3737
   39MOL0     H 5141   5.762   6.404   0.278 -0.1928 -1.6030 -0.5964
   39MOL0     H 5142   5.589   6.525   0.061  0.0442  1.5300 -0.4006
   39MOL0     H 5143   5.674   6.363   0.076  3.3501  0.5041  0.4778
   39MOL0     H 5144   5.891   6.483   0.086  0.6986 -0.5740 -1.8375
   39MOL0     H 5145   5.806   6.518  -0.055  0.7167  0.9052 -0.3113
   39MOL0     H 5146   5.852   6.899   0.117 -4.9874  1.8743 -3.5117
   39MOL0     H 5147   5.253   6.368   0.162  4.0747  0.0736  0.4454
   39MOL0     H 5148   5.046   6.253   0.255 -0.5865 -0.3962  0.8163
   40MOL0     O 5149   2.103   6.714  10.321 -0.0247 -0.5539  0.6607
   40MOL0     C 5150   2.130   6.625  10.239 -0.3690  0.2399  0.2282
   40MOL0     O 5151   2.053   6.588  10.138  0.6516  0.0481 -0.0980
   40MOL0     C 5152   1.922   6.633  10.139 -0.0002 -0.6155  0.2818
   40MOL0     C 5153   1.885   6.760  10.090  0.1349 -0.2539  0.3285
   40MOL0     C 5154   1.754   6.805  10.106  0.2855 -1.2036 -0.1393
   40MOL0     C 5155   1.654   6.721  10.167 -0.0362 -0.4609  0.1518
   40MOL0     O 5156   1.516   6.774  10.170 -0.0991 -0.0090  0.7697
   40MOL0     C 5157   1.483   6.909  10.210 -0.3212 -0.7713  0.1680
   40MOL0     C 5158   1.455   6.919  10.367  0.3383  0.5306  1.0050
   40MOL0     C 5159   1.409   7.059  10.411 -0.1494  0.0286 -0.4405
   40MOL0     C 5160   1.407   7.093  10.563 -0.3203  0.4221 -0.0366
   40MOL0     C 5161   1.309   7.195  10.591  0.5886 -0.5428 -0.4163
   40MOL0     C 5162   1.308   7.219  10.746 -0.3697  0.1551  0.3645
   40MOL0     C 5163   1.224   7.338  10.785 -0.0406 -0.5958  0.4779
   40MOL0     C 5164   1.201   7.351  10.939  0.0571  0.1673  0.6980
   40MOL0     N 5165   1.104   7.253  10.996 -0.1760 -0.1730 -0.4180
   40MOL0     C 5166   1.062   7.269  11.126 -0.4732 -0.2298 -0.4511
   40MOL0     C 5167   0.987   7.162  11.152 -0.3849 -0.4897  0.0605
   40MOL0     C 5168   0.916   7.123  11.281  0.6697 -0.6644  0.1234
   40MOL0     C 5169   0.863   7.227  11.375  0.7375  0.0999 -0.3546
   40MOL0     C 5170   0.749   7.301  11.310  0.2460  1.3525  0.0907
   40MOL0     C 5171   0.621   7.226  11.272  0.8244 -0.5538 -0.5141
   40MOL0     O 5172   0.596   7.123  11.362  0.0185  0.5713 -0.0305
   40MOL0     C 5173   0.516   7.150  11.472  0.4660 -1.2614 -0.2535
   40MOL0     C 5174   0.569   7.097  11.592 -0.7421  0.4199  0.4972
   40MOL0     C 5175   0.518   7.123  11.716  0.9193 -0.0450 -0.3795
   40MOL0     C 5176   0.402   7.202  11.730  0.3447 -0.6663 -0.0923
   40MOL0     C 5177   0.339   7.228  11.863  0.3658  0.1542  0.4683
   40MOL0     O 5178   0.381   7.147  11.962 -0.7645 -0.2420  0.6328
   40MOL0     C 5179   0.320   7.158  12.083 -0.9455 -0.1595 -0.4883
   40MOL0     C 5180   0.190   7.124  12.109  0.1551 -0.3488 -0.5053
   40MOL0     C 5181   0.126   7.150  12.233 -0.5578  0.1368 -0.2848
   40MOL0     C 5182   0.205   7.182  12.345 -0.4873  0.5667  0.1246
   40MOL0     O 5183   0.140   7.198  12.470 -0.6030  1.1912  0.1141
   40MOL0     C 5184   0.028   7.125  12.516 -0.4124 -0.2180 -0.3131
   40MOL0     C 5185  -0.024   7.180  12.654 -0.1911  0.2480  0.8263
   40MOL0     C 5186   0.081   7.155  12.761  1.1137 -0.7606  1.2911
   40MOL0     C 5187   0.033   7.206  12.894  0.6767 -0.4440 -0.4499
   40MOL0     C 5188   0.083   7.128  13.010 -0.1007  0.2413  0.3920
   40MOL0     C 5189   0.012   7.176  13.134 -0.3691  1.0271  0.1821
   40MOL0     C 5190   0.056   7.077  13.241 -0.7162 -0.9685  0.6254
   40MOL0     C 5191   0.006   7.086  13.387 -0.8349 -0.7860  0.2329
   40MOL0    Cl 5192  -0.154   7.021  13.425  0.0537 -0.0402  0.1230
   40MOL0     C 5193   0.346   7.201  12.327  0.1461 -0.2514 -0.5929
   40MOL0     C 5194   0.404   7.196  12.196  0.0900  1.4760 -1.2140
   40MOL0     O 5195   0.266   7.328  11.881 -0.1701  0.0553 -0.0881
   40MOL0     C 5196   0.348   7.266  11.617  0.3814  0.1319  0.1260
   40MOL0     C 5197   0.407   7.239  11.486  0.4367  0.9299 -0.4887
   40MOL0     N 5198   0.988   7.085  11.033  0.1651 -0.2630 -0.8087
   40MOL0     N 5199   1.051   7.147  10.941  0.2755  0.9496  0.3958
   40MOL0     C 5200   1.691   6.597  10.212 -0.8928  0.2956 -0.3983
   40MOL0     C 5201   1.823   6.548  10.194  0.7977  0.1877  0.5052
   40MOL0     C 5202   2.257   6.547  10.252  1.0607  0.9332 -0.1142
   40MOL0     C 5203   2.289   6.444  10.162 -0.3673  0.0559 -0.3839
   40MOL0     C 5204   2.416   6.379  10.164  0.0158 -0.2951 -0.1100
   40MOL0     C 5205   2.508   6.421  10.251  0.3512 -0.6586 -0.3117
   40MOL0     O 5206   2.629   6.366  10.272  0.0924  0.6425  0.2993
   40MOL0     C 5207   2.668   6.254  10.185 -0.5336 -0.3040 -0.0994
   40MOL0     C 5208   2.780   6.166  10.247  1.8718  0.0150  0.0895
   40MOL0     C 5209   2.761   6.101  10.382 -0.1966 -0.1373 -0.0636
   40MOL0     C 5210   2.889   6.016  10.416 -0.5464 -0.8673 -0.2864
   40MOL0     C 5211   2.926   5.923  10.312  0.1193 -0.4567 -0.1518
   40MOL0     C 5212   2.953   5.852  10.217 -0.5560  0.1214 -0.1286
   40MOL0     C 5213   2.481   6.521  10.340 -0.1958 -1.0910  0.3774
   40MOL0     C 5214   2.360   6.586  10.336 -0.5712 -0.5739 -0.7276
   40MOL0     H 5215   1.970   6.816  10.053  1.4974 -0.1948  3.2575
   40MOL0     H 5216   1.739   6.910  10.082  0.4019 -1.2233 -0.3020
   40MOL0     H 5217   1.386   6.923  10.162  0.3522 -2.5270 -1.8484
   40MOL0     H 5218   1.555   6.983  10.175  0.5276 -2.4005 -1.7414
   40MOL0     H 5219   1.547   6.885  10.418 -0.2107 -3.0406 -0.0874
   40MOL0     H 5220   1.369   6.853  10.380 -0.2368  1.1477  0.3898
   40MOL0     H 5221   1.305   7.070  10.377 -0.3178  0.4434  0.1950
   40MOL0     H 5222   1.470   7.134  10.361  1.4996 -0.7794  0.3011
   40MOL0     H 5223   1.397   7.023  10.646 -2.3491  1.1015  0.3480
   40MOL0     H 5224   1.510   7.129  10.579 -0.6316  0.3568  2.6615
   40MOL0     H 5225   1.210   7.160  10.563 -0.0355 -0.6817  1.7498
   40MOL0     H 5226   1.337   7.286  10.537 -0.7044  1.4217  2.0219
   40MOL0     H 5227   1.410   7.242  10.778 -0.5507 -0.1385  1.1942
   40MOL0     H 5228   1.280   7.125  10.794  0.0084  0.7676  1.8398
   40MOL0     H 5229   1.274   7.427  10.746  0.7191 -1.2496 -0.0632
   40MOL0     H 5230   1.127   7.328  10.735  0.0785  0.0990  0.0901
   40MOL0     H 5231   1.157   7.449  10.962  0.9417  0.9002 -0.5738
   40MOL0     H 5232   1.303   7.340  10.978 -0.2675 -1.1567  1.1908
   40MOL0     H 5233   1.064   7.363  11.181  0.6054 -0.3423 -0.2683
   40MOL0     H 5234   1.006   7.084  11.331  1.9785  2.9652  0.8902
   40MOL0     H 5235   0.840   7.047  11.262 -1.6837  1.5748  0.1428
   40MOL0     H 5236   0.945   7.292  11.406 -0.1397  1.3140 -0.5016
   40MOL0     H 5237   0.833   7.177  11.467 -0.5025  3.3399  1.1619
   40MOL0     H 5238   0.722   7.380  11.381 -1.7956  0.2923  0.5703
   40MOL0     H 5239   0.785   7.348  11.218 -2.0048  0.2439 -1.4652
   40MOL0     H 5240   0.646   7.182  11.175  1.5448 -1.5255  0.1004
   40MOL0     H 5241   0.536   7.294  11.262  2.0466  0.7410 -3.0113
   40MOL0     H 5242   0.656   7.032  11.590 -0.5030  0.7105  1.1054
   40MOL0     H 5243   0.569   7.086  11.804 -2.9202 -0.9737  1.7014
   40MOL0     H 5244   0.124   7.095  12.027 -0.9610  0.3734  0.1128
   40MOL0     H 5245   0.017   7.148  12.240 -0.5305  1.9718  1.7788
   40MOL0     H 5246   0.067   7.023  12.524  1.3808  0.4406 -0.0824
   40MOL0     H 5247  -0.044   7.121  12.434  1.1972  3.9105 -2.2033
   40MOL0     H 5248  -0.127   7.153  12.677  0.4123 -1.9037  1.2769
   40MOL0     H 5249  -0.030   7.288  12.644  0.3834  0.3734  1.6886
   40MOL0     H 5250   0.180   7.202  12.748  0.3671  0.6983  0.6252
   40MOL0     H 5251   0.105   7.049  12.759  2.0730 -0.5801  2.1557
   40MOL0     H 5252   0.056   7.311  12.913 -0.6389 -0.3654  0.9179
   40MOL0     H 5253  -0.076   7.199  12.901  0.6884  0.4553  1.1610
   40MOL0     H 5254   0.192   7.122  13.017  0.3793  3.9996 -1.3468
   40MOL0     H 5255   0.056   7.022  13.005 -3.4483  0.8135  2.8083
   40MOL0     H 5256  -0.095   7.189  13.118 -1.1232 -2.9437  0.8540
   40MOL0     H 5257   0.058   7.268  13.171  2.4750  0.1004 -0.7670
   40MOL0     H 5258   0.025   6.977  13.207  1.6489 -2.2139  1.8630
   40MOL0     H 5259   0.165   7.079  13.235 -0.7819  0.5247 -0.2429
   40MOL0     H 5260   0.012   7.186  13.431  0.3409 -0.5674 -0.3634
   40MOL0     H 5261   0.075   7.023  13.445 -0.1588 -1.2259 -1.0114
   40MOL0     H 5262   0.414   7.231  12.407 -0.5348  0.0349 -0.1067
   40MOL0     H 5263   0.509   7.216  12.182  0.9205 -0.3125  1.5897
   40MOL0     H 5264   0.257   7.323  11.628  0.8028  0.7276  0.6219
   40MOL0     H 5265   0.370   7.282  11.393  0.7958  0.9844 -0.6083
   40MOL0     H 5266   1.612   6.541  10.260 -0.6415  0.6719  0.4749
   40MOL0     H 5267   1.851   6.445  10.216  1.1055  0.4062  1.1733
   40MOL0     H 5268   2.219   6.429  10.080 -1.3934  2.6639 -0.0566
   40MOL0     H 5269   2.449   6.319  10.080  3.3433 -0.7455  1.3396
   40MOL0     H 5270   2.705   6.308  10.097 -1.9699 -2.1910 -1.9618
   40MOL0     H 5271   2.587   6.191  10.148 -1.3903  0.0139  1.1637
   40MOL0     H 5272   2.782   6.084  10.175  2.2381  0.3174 -0.2450
   40MOL0     H 5273   2.879   6.212  10.235  1.2577  0.6690 -3.4798
   40MOL0     H 5274   2.680   6.028  10.386 -1.4475  1.0856 -1.5645
   40MOL0     H 5275   2.755   6.179  10.459  4.9428 -0.4291  0.9611
   40MOL0     H 5276   2.968   6.090  10.431 -1.5885  0.2968 -0.4419
   40MOL0     H 5277   2.859   5.969  10.510 -3.5341  1.0633 -0.1661
   40MOL0     H 5278   2.991   5.774  10.153 -2.2527 -0.0638 -0.9403
   40MOL0     H 5279   2.559   6.554  10.408  0.4770 -1.3791 -0.2282
   40MOL0     H 5280   2.345   6.664  10.410  0.5503 -2.2083  1.3210
   41MOL0     O 5281   5.284   7.027   7.622  0.1665  0.4847  0.3010
   41MOL0     C 5282   5.195   6.943   7.612 -0.2825  0.1787  0.5876
   41MOL0     O 5283   5.187   6.831   7.691  0.2814  0.4084 -0.6190
   41MOL0     C 5284   5.290   6.818   7.794  0.2748  0.6440 -0.3491
   41MOL0     C 5285   5.364   6.704   7.811  0.4947 -0.8903 -0.0422
   41MOL0     C 5286   5.463   6.694   7.906 -0.1866  0.1300 -0.4391
   41MOL0     C 5287   5.497   6.804   7.980 -0.4753 -0.2799  0.0561
   41MOL0     O 5288   5.609   6.795   8.054 -0.0190 -0.5306  0.0974
   41MOL0     C 5289   5.677   6.921   8.081  0.2468  0.4187 -0.0795
   41MOL0     C 5290   5.824   6.881   8.064 -0.3870  0.1353 -0.6267
   41MOL0     C 5291   5.924   6.947   8.160 -0.4556 -0.4238  0.7075
   41MOL0     C 5292   6.076   6.916   8.111 -0.3594  0.2983 -0.7921
   41MOL0     C 5293   6.190   6.948   8.218  0.5568  0.4511  0.1948
   41MOL0     C 5294   6.326   6.966   8.161  0.3202  0.1541 -0.2487
   41MOL0     C 5295   6.451   6.995   8.240  0.1497  0.4622  0.7331
   41MOL0     C 5296   6.570   6.971   8.137  0.4303 -0.3193  0.1883
   41MOL0     N 5297   6.704   6.974   8.202  0.4477 -1.0110  0.1724
   41MOL0     C 5298   6.794   6.868   8.210  1.1119 -0.4387 -0.8654
   41MOL0     C 5299   6.893   6.924   8.285 -0.0848  0.1917  0.0792
   41MOL0     C 5300   7.004   6.843   8.339  0.0867 -0.2520 -0.7691
   41MOL0     C 5301   7.072   6.737   8.242 -0.5036 -0.8787  0.9018
   41MOL0     C 5302   7.166   6.803   8.131 -0.3254 -0.7083 -0.4332
   41MOL0     C 5303   7.082   6.868   8.018  0.0811  0.2175 -0.9445
   41MOL0     O 5304   6.998   6.764   7.961  0.6956 -0.8746 -0.3928
   41MOL0     C 5305   6.886   6.803   7.892  0.3284 -0.1035  0.3262
   41MOL0     C 5306   6.872   6.925   7.823 -0.1619  0.7565  0.9455
   41MOL0     C 5307   6.754   6.951   7.763 -0.2242 -0.6202 -0.1295
   41MOL0     C 5308   6.655   6.866   7.754  0.3590  0.5582 -0.2375
   41MOL0     C 5309   6.528   6.897   7.694 -0.7860 -0.7453 -0.4264
   41MOL0     O 5310   6.427   6.821   7.697 -0.5834  0.4603  0.1011
   41MOL0     C 5311   6.307   6.875   7.657  0.3818  0.8249  0.1259
   41MOL0     C 5312   6.234   6.958   7.743  0.3410 -0.9103  0.5488
   41MOL0     C 5313   6.129   7.033   7.686 -0.4894 -0.0256 -0.0361
   41MOL0     C 5314   6.080   7.011   7.558  1.0082  0.5818 -0.8559
   41MOL0     O 5315   5.962   7.082   7.522  0.6462 -0.3384  0.5658
   41MOL0     C 5316   5.914   7.071   7.385 -0.4691  0.4775 -0.8083
   41MOL0     C 5317   5.801   7.170   7.367 -0.5234 -0.0896 -0.1861
   41MOL0     C 5318   5.844   7.318   7.339  1.0461 -0.1209 -1.1883
   41MOL0     C 5319   5.757   7.410   7.441 -0.2969  0.8004 -0.0058
   41MOL0     C 5320   5.808   7.556   7.443 -0.6477  0.9277 -0.2036
   41MOL0     C 5321   5.704   7.631   7.523 -0.3712 -0.6491  0.5590
   41MOL0     C 5322   5.706   7.780   7.504 -0.5211 -0.2590  0.2783
   41MOL0     C 5323   5.604   7.842   7.597 -0.7245  0.3571  0.7623
   41MOL0    Cl 5324   5.632   8.008   7.598 -0.2769 -0.0086 -0.2359
   41MOL0     C 5325   6.154   6.928   7.477  1.3171 -0.0714 -0.0144
   41MOL0     C 5326   6.263   6.863   7.531  1.4146  0.6695  0.5755
   41MOL0     O 5327   6.540   7.005   7.632 -0.0353  0.6269  0.4475
   41MOL0     C 5328   6.670   6.739   7.819  0.0640  0.5448  0.1709
   41MOL0     C 5329   6.785   6.711   7.883  0.0803 -1.1275  0.2027
   41MOL0     N 5330   6.868   7.055   8.306  0.0278 -0.4579  0.0234
   41MOL0     N 5331   6.747   7.091   8.260  0.5825  0.4007  0.5733
   41MOL0     C 5332   5.410   6.916   7.982  0.0014 -0.4522 -0.3341
   41MOL0     C 5333   5.310   6.920   7.888 -0.3681  0.2213 -0.0832
   41MOL0     C 5334   5.081   6.978   7.523 -0.7298  0.9441 -0.9720
   41MOL0     C 5335   5.095   7.086   7.430  0.3778  0.5188  0.0243
   41MOL0     C 5336   4.983   7.126   7.354 -0.6842 -0.2095  0.0941
   41MOL0     C 5337   4.855   7.064   7.378 -0.8693  0.0752 -0.0850
   41MOL0     O 5338   4.740   7.089   7.309 -0.0815  0.2765  0.2707
   41MOL0     C 5339   4.723   7.218   7.264 -1.4432  0.7424  0.4789
   41MOL0     C 5340   4.573   7.237   7.226 -0.4497 -0.0466 -0.3347
   41MOL0     C 5341   4.517   7.124   7.138  0.0284 -0.5840 -0.7844
   41MOL0     C 5342   4.424   7.021   7.204  0.0187  0.0951  0.0876
   41MOL0     C 5343   4.300   7.083   7.260 -0.2378  0.1623 -0.1663
   41MOL0     C 5344   4.215   7.136   7.327  0.5039  0.1163 -0.0468
   41MOL0     C 5345   4.842   6.968   7.478 -0.1301 -0.1347 -0.5990
   41MOL0     C 5346   4.959   6.923   7.544 -0.5790  0.8952  0.7677
   41MOL0     H 5347   5.342   6.615   7.753  0.6599 -2.6041  2.3812
   41MOL0     H 5348   5.515   6.601   7.922 -0.1269  0.4033  1.2066
   41MOL0     H 5349   5.660   6.956   8.183 -1.4334 -0.4343 -0.0314
   41MOL0     H 5350   5.652   6.998   8.008 -2.2832  0.4885  0.7618
   41MOL0     H 5351   5.846   6.894   7.958 -1.5727 -1.7134 -1.1556
   41MOL0     H 5352   5.827   6.773   8.078 -1.3836  0.3787  2.1704
   41MOL0     H 5353   5.914   6.893   8.255 -1.2143 -0.2042  0.7567
   41MOL0     H 5354   5.905   7.054   8.167 -0.4496 -0.4692  1.5606
   41MOL0     H 5355   6.085   6.808   8.098 -0.6358  0.2194 -0.3316
   41MOL0     H 5356   6.099   6.962   8.014  1.0486  3.9888  1.1012
   41MOL0     H 5357   6.180   6.863   8.287 -1.0980  0.7689  0.3933
   41MOL0     H 5358   6.161   7.041   8.267 -1.5239 -0.0591  0.0114
   41MOL0     H 5359   6.314   7.059   8.105 -2.7949  1.6348  2.5078
   41MOL0     H 5360   6.343   6.880   8.096 -0.2243 -0.2959  0.1984
   41MOL0     H 5361   6.445   7.093   8.287  1.2927  2.1546 -2.3164
   41MOL0     H 5362   6.456   6.918   8.317 -0.5363 -0.6433 -0.2872
   41MOL0     H 5363   6.557   7.045   8.058 -0.7837  0.3304  0.9781
   41MOL0     H 5364   6.554   6.871   8.096  0.6333  0.5057 -2.0595
   41MOL0     H 5365   6.785   6.771   8.162  0.9961 -0.6688 -0.3840
   41MOL0     H 5366   6.964   6.775   8.415  1.9635 -1.5157 -0.8382
   41MOL0     H 5367   7.080   6.908   8.383  0.4755 -0.3505 -1.2863
   41MOL0     H 5368   7.000   6.667   8.198 -0.2954  0.2015 -1.3425
   41MOL0     H 5369   7.143   6.677   8.300 -1.1163 -0.2920  2.3025
   41MOL0     H 5370   7.229   6.882   8.174 -0.5992 -1.6018  1.7323
   41MOL0     H 5371   7.242   6.730   8.101  1.0664  0.7359 -0.6117
   41MOL0     H 5372   7.138   6.906   7.932  0.1033 -0.7756 -1.3811
   41MOL0     H 5373   7.023   6.950   8.061 -2.0488  0.7636 -4.5066
   41MOL0     H 5374   6.954   6.996   7.826  0.3028  0.2747  0.0256
   41MOL0     H 5375   6.754   7.053   7.723  0.4766  0.4836  2.5097
   41MOL0     H 5376   6.260   6.969   7.848  0.7409  1.9974  0.2288
   41MOL0     H 5377   6.081   7.116   7.737 -2.8940 -0.7938 -0.9216
   41MOL0     H 5378   5.876   6.971   7.364 -0.6151  0.4833 -0.5708
   41MOL0     H 5379   5.997   7.096   7.319  0.9175  1.7243  1.2920
   41MOL0     H 5380   5.745   7.162   7.460 -1.0505 -1.4140 -0.5867
   41MOL0     H 5381   5.730   7.136   7.291 -0.8434  0.0222  0.0602
   41MOL0     H 5382   5.825   7.345   7.235  1.1092  0.7120 -0.9942
   41MOL0     H 5383   5.951   7.334   7.358  0.8192 -0.2589  0.3372
   41MOL0     H 5384   5.656   7.394   7.402 -0.7027  0.4050  1.1696
   41MOL0     H 5385   5.759   7.374   7.544 -1.0580  2.0284  0.4709
   41MOL0     H 5386   5.822   7.595   7.342  0.4006 -2.1112 -1.3424
   41MOL0     H 5387   5.899   7.571   7.502 -2.7296  0.4426  3.4730
   41MOL0     H 5388   5.723   7.616   7.629  2.1868  0.9562  0.4118
   41MOL0     H 5389   5.609   7.593   7.484 -0.2426 -3.2414  2.5189
   41MOL0     H 5390   5.807   7.808   7.535  0.5487 -2.9180 -0.5236
   41MOL0     H 5391   5.678   7.797   7.399 -0.1419 -1.4485 -0.0285
   41MOL0     H 5392   5.611   7.809   7.701 -1.4988  0.7945  0.9663
   41MOL0     H 5393   5.507   7.805   7.561  1.5305 -4.3843 -1.3429
   41MOL0     H 5394   6.127   6.901   7.375 -0.5133  1.8108 -0.0977
   41MOL0     H 5395   6.308   6.798   7.458 -1.9978 -2.1734  0.7366
   41MOL0     H 5396   6.602   6.654   7.815  1.6402 -0.8707  1.6917
   41MOL0     H 5397   6.795   6.615   7.934  1.7514 -1.5443 -0.8035
   41MOL0     H 5398   5.415   6.994   8.058 -0.3006 -2.3674  1.7624
   41MOL0     H 5399   5.260   7.016   7.878 -0.3437  0.0829 -1.6938
   41MOL0     H 5400   5.186   7.145   7.416  1.2218  0.4491  4.1554
   41MOL0     H 5401   4.990   7.217   7.295  0.3701 -0.4413 -0.1529
   41MOL0     H 5402   4.789   7.238   7.179 -0.5207 -0.1003  0.9827
   41MOL0     H 5403   4.752   7.293   7.338  5.1320  0.9366 -1.6554
   41MOL0     H 5404   4.520   7.239   7.321  2.1438 -0.2224  1.2250
   41MOL0     H 5405   4.570   7.333   7.173  1.0258  1.3178  1.8752
   41MOL0     H 5406   4.602   7.074   7.092  0.0492 -0.2298 -1.1392
   41MOL0     H 5407   4.455   7.170   7.061 -1.0087 -1.4529 -0.4942
   41MOL0     H 5408   4.394   6.956   7.121 -3.5417  0.0229  1.2890
   41MOL0     H 5409   4.477   6.961   7.279 -3.7949 -3.5472  0.2349
   41MOL0     H 5410   4.141   7.187   7.386 -3.4935 -3.9510 -0.9906
   41MOL0     H 5411   4.752   6.912   7.504 -0.3546  1.2358  1.8815
   41MOL0     H 5412   4.945   6.839   7.612 -2.1417 -1.4576 -2.2177
   42MOL0     O 5413   6.737   6.064   9.290  0.3757  0.3485 -0.0106
   42MOL0     C 5414   6.747   6.183   9.277  0.2290 -0.7030  0.0732
   42MOL0     O 5415   6.680   6.262   9.185 -0.3936  0.6447  0.8856
   42MOL0     C 5416   6.584   6.210   9.100  0.1594  0.4542 -0.3106
   42MOL0     C 5417   6.475   6.291   9.072  0.7132  0.5133 -0.1026
   42MOL0     C 5418   6.360   6.245   8.994  0.4396  0.2645 -0.3748
   42MOL0     C 5419   6.353   6.113   8.948  0.4771 -0.6451 -0.2109
   42MOL0     O 5420   6.248   6.051   8.883  0.0769 -0.1103  0.3848
   42MOL0     C 5421   6.137   6.128   8.838  0.6116  0.5242 -0.7859
   42MOL0     C 5422   6.169   6.205   8.711 -0.1840 -0.1486 -0.8744
   42MOL0     C 5423   6.049   6.265   8.642 -0.2424 -0.2498 -0.1287
   42MOL0     C 5424   6.029   6.201   8.507  0.7283  0.0918  0.5171
   42MOL0     C 5425   5.905   6.264   8.439 -0.4329 -0.4080 -0.2803
   42MOL0     C 5426   5.914   6.255   8.283  0.6183 -0.3790 -0.1780
   42MOL0     C 5427   5.783   6.305   8.205 -0.4599  0.4449 -0.7716
   42MOL0     C 5428   5.775   6.248   8.070  0.5122  0.2041  0.7464
   42MOL0     N 5429   5.635   6.290   8.015 -0.4588  0.2147 -0.6541
   42MOL0     C 5430   5.518   6.230   8.062  0.6580  1.2891  0.2705
   42MOL0     C 5431   5.437   6.251   7.955  0.1709 -0.2110 -0.0802
   42MOL0     C 5432   5.304   6.183   7.947  0.0544 -0.3458 -0.3702
   42MOL0     C 5433   5.188   6.267   7.903  0.1377 -0.0342 -0.6128
   42MOL0     C 5434   5.063   6.179   7.892  0.4571 -0.3265  0.1242
   42MOL0     C 5435   4.938   6.261   7.878  0.5546 -0.0041 -0.5625
   42MOL0     O 5436   4.829   6.173   7.845 -0.1579  0.7912 -0.5985
   42MOL0     C 5437   4.697   6.196   7.883 -0.2587  0.0703  0.2114
   42MOL0     C 5438   4.646   6.314   7.932  0.1738 -0.1694  0.3585
   42MOL0     C 5439   4.512   6.314   7.983  0.5442 -0.1378 -0.0438
   42MOL0     C 5440   4.424   6.209   7.963 -0.5192 -0.2253 -0.5248
   42MOL0     C 5441   4.273   6.230   7.970 -0.8114  0.6463 -0.4539
   42MOL0     O 5442   4.229   6.356   7.990  0.1487 -0.5275 -0.0190
   42MOL0     C 5443   4.099   6.377   8.025  0.6342 -0.3110 -0.0273
   42MOL0     C 5444   4.064   6.454   8.130  0.2829 -1.3393  0.3753
   42MOL0     C 5445   3.934   6.487   8.170  0.5681 -0.4319 -0.0689
   42MOL0     C 5446   3.835   6.445   8.084  0.8048 -0.8975  0.0746
   42MOL0     O 5447   3.709   6.473   8.124  1.3917  0.0515 -0.2239
   42MOL0     C 5448   3.633   6.360   8.166  0.1099  0.4869  0.3847
   42MOL0     C 5449   3.495   6.397   8.225 -0.5485 -0.3180  0.7855
   42MOL0     C 5450   3.404   6.463   8.116 -0.3685  0.6360  0.2074
   42MOL0     C 5451   3.275   6.511   8.175 -0.2676  0.0106 -0.6973
   42MOL0     C 5452   3.181   6.565   8.069  0.2614 -0.2486 -0.3682
   42MOL0     C 5453   3.059   6.625   8.133 -0.5731  0.6076 -0.8600
   42MOL0     C 5454   2.994   6.737   8.050  0.5025  0.4136 -1.2567
   42MOL0     C 5455   2.873   6.794   8.123 -0.4188 -0.3160 -0.0193
   42MOL0    Cl 5456   2.736   6.676   8.154  0.3186  0.3833  0.0259
   42MOL0     C 5457   3.860   6.354   7.975 -0.4778  0.0253 -0.2043
   42MOL0     C 5458   3.993   6.330   7.947  0.9927 -0.3779  0.2123
   42MOL0     O 5459   4.199   6.131   7.967 -0.1174 -0.7033  0.1986
   42MOL0     C 5460   4.476   6.090   7.915  0.5046  0.6485  0.6817
   42MOL0     C 5461   4.609   6.086   7.869 -0.6659 -0.2704 -0.2990
   42MOL0     N 5462   5.498   6.342   7.870  0.1566 -0.3594 -0.3225
   42MOL0     N 5463   5.614   6.353   7.901 -0.5326 -0.0443 -0.2495
   42MOL0     C 5464   6.462   6.034   8.983  0.2350  1.4051  0.4930
   42MOL0     C 5465   6.575   6.084   9.047  0.0131 -0.6703 -1.5208
   42MOL0     C 5466   6.854   6.240   9.361 -0.3797  0.4631 -0.1813
   42MOL0     C 5467   6.955   6.166   9.411 -0.1891  0.0933  0.4959
   42MOL0     C 5468   7.056   6.218   9.482 -1.0290 -0.6912 -0.5171
   42MOL0     C 5469   7.069   6.352   9.505  0.8961 -0.7245  0.0270
   42MOL0     O 5470   7.185   6.405   9.563 -0.3305 -0.1470  0.2258
   42MOL0     C 5471   7.186   6.535   9.620  0.4214 -0.2915 -0.2489
   42MOL0     C 5472   7.308   6.543   9.717  0.4914  0.8416  0.4272
   42MOL0     C 5473   7.441   6.513   9.644  0.3351  0.1664  0.1231
   42MOL0     C 5474   7.492   6.619   9.544  0.8616 -0.6071  0.8723
   42MOL0     C 5475   7.619   6.592   9.492 -0.2205  0.6595 -0.3490
   42MOL0     C 5476   7.744   6.576   9.471  0.6930 -0.4910 -0.6455
   42MOL0     C 5477   6.978   6.435   9.443  0.1905  0.5442 -0.0134
   42MOL0     C 5478   6.864   6.379   9.377  0.6711 -0.5452  0.0739
   42MOL0     H 5479   6.485   6.381   9.130  0.0809 -2.2245  4.7642
   42MOL0     H 5480   6.277   6.313   8.977 -1.5609 -2.2228 -1.1233
   42MOL0     H 5481   6.096   6.193   8.915  2.6784 -1.9028  2.6228
   42MOL0     H 5482   6.060   6.062   8.796  1.1515  1.0668 -2.7451
   42MOL0     H 5483   6.228   6.144   8.642 -0.6923  0.2584 -1.6833
   42MOL0     H 5484   6.242   6.283   8.734 -0.3157 -0.6622  1.4639
   42MOL0     H 5485   6.066   6.373   8.635 -0.2045 -0.3573 -2.1029
   42MOL0     H 5486   5.966   6.241   8.710 -0.5676 -0.7309 -0.6939
   42MOL0     H 5487   6.116   6.216   8.443  1.7948 -1.9882  1.3848
   42MOL0     H 5488   6.020   6.092   8.511  0.1536  0.0443 -1.1064
   42MOL0     H 5489   5.902   6.367   8.475  0.2423 -0.6907  0.6245
   42MOL0     H 5490   5.813   6.220   8.476  0.1252  0.4302  2.3244
   42MOL0     H 5491   5.930   6.148   8.263 -0.2746 -0.1351 -2.6618
   42MOL0     H 5492   5.990   6.319   8.237 -0.4015  2.3503  1.7137
   42MOL0     H 5493   5.692   6.276   8.258  0.1523 -0.1879 -0.0490
   42MOL0     H 5494   5.788   6.414   8.200  1.2221  0.6431  2.4568
   42MOL0     H 5495   5.795   6.141   8.077  0.9961  0.0210 -2.2274
   42MOL0     H 5496   5.844   6.301   8.004 -3.8024  0.9639 -3.7816
   42MOL0     H 5497   5.515   6.163   8.147 -0.5304  2.3776  1.1258
   42MOL0     H 5498   5.289   6.147   8.049  0.1198  2.0640  0.5567
   42MOL0     H 5499   5.319   6.107   7.870  2.5764 -2.3300  1.8915
   42MOL0     H 5500   5.212   6.308   7.804  0.3722 -2.0725 -1.4596
   42MOL0     H 5501   5.172   6.350   7.972 -1.4878 -1.2502  0.5401
   42MOL0     H 5502   5.072   6.108   7.810 -1.1898 -3.3227  2.3694
   42MOL0     H 5503   5.055   6.132   7.991  0.2709 -0.4014  0.0743
   42MOL0     H 5504   4.953   6.342   7.805  1.2196  1.4994  1.1666
   42MOL0     H 5505   4.928   6.302   7.979  1.0693  0.2800 -0.6196
   42MOL0     H 5506   4.706   6.404   7.939  1.0080 -0.7489  0.9174
   42MOL0     H 5507   4.478   6.409   8.024 -0.0931 -0.9760  1.4535
   42MOL0     H 5508   4.140   6.495   8.197 -0.1791 -1.3792  0.9354
   42MOL0     H 5509   3.904   6.542   8.258 -0.2174 -0.6071 -0.2195
   42MOL0     H 5510   3.681   6.315   8.254 -2.7708  0.7919  2.2506
   42MOL0     H 5511   3.620   6.297   8.078  1.3790  0.9003 -0.1280
   42MOL0     H 5512   3.504   6.471   8.305 -2.2038  2.3464 -1.2953
   42MOL0     H 5513   3.441   6.310   8.265 -2.4678 -0.7336 -2.4246
   42MOL0     H 5514   3.371   6.387   8.045 -0.1448  0.2780  0.4824
   42MOL0     H 5515   3.446   6.550   8.064 -2.0859 -0.8187 -4.0395
   42MOL0     H 5516   3.221   6.429   8.224 -3.3906  1.6261 -1.2070
   42MOL0     H 5517   3.305   6.590   8.244 -0.3414 -0.7191  0.1850
   42MOL0     H 5518   3.145   6.482   8.006  0.1765 -2.7847  2.7816
   42MOL0     H 5519   3.231   6.636   8.002  2.4937 -0.4537  0.9928
   42MOL0     H 5520   3.080   6.655   8.236 -0.2870  1.2958 -1.1113
   42MOL0     H 5521   2.980   6.553   8.154 -0.9283  1.6350  1.6168
   42MOL0     H 5522   3.065   6.816   8.022  0.6482  0.8541  0.2722
   42MOL0     H 5523   2.952   6.683   7.964  0.8772 -2.6464  0.3299
   42MOL0     H 5524   2.838   6.872   8.055  2.0112 -0.9265 -2.1156
   42MOL0     H 5525   2.898   6.842   8.218 -3.2975  1.3366  0.0291
   42MOL0     H 5526   3.783   6.317   7.909 -0.2311 -1.7832  0.4763
   42MOL0     H 5527   4.016   6.281   7.853 -0.1061 -1.6281  0.5640
   42MOL0     H 5528   4.433   5.994   7.889 -1.9349  2.2093 -1.5583
   42MOL0     H 5529   4.637   5.988   7.830 -0.6755  0.4115 -2.1117
   42MOL0     H 5530   6.448   5.931   8.952  0.8044  1.7504 -1.0317
   42MOL0     H 5531   6.644   6.002   9.064 -1.3141 -1.3484  1.2479
   42MOL0     H 5532   6.968   6.065   9.372  0.6335  0.3856 -0.0250
   42MOL0     H 5533   7.138   6.155   9.516 -0.2295  1.4570  1.9117
   42MOL0     H 5534   7.095   6.552   9.679  1.2360  3.3338  0.2208
   42MOL0     H 5535   7.189   6.614   9.544  0.9861  1.7843  1.8386
   42MOL0     H 5536   7.300   6.641   9.765  0.1232  0.6151  0.8340
   42MOL0     H 5537   7.296   6.464   9.791  0.0262  1.7903  1.3804
   42MOL0     H 5538   7.441   6.414   9.597  2.3629 -1.4731  3.2596
   42MOL0     H 5539   7.516   6.497   9.721 -0.5574 -0.1556  0.9500
   42MOL0     H 5540   7.430   6.639   9.456  1.3949  3.9529  1.3085
   42MOL0     H 5541   7.484   6.716   9.592 -2.7920 -1.7595  3.0012
   42MOL0     H 5542   7.846   6.571   9.439  0.5545  2.0861 -1.7332
   42MOL0     H 5543   6.982   6.543   9.442  1.0559  0.5294  0.7781
   42MOL0     H 5544   6.783   6.444   9.345 -1.1520 -2.1965  1.0700
   43MOL0     O 5545   6.017   9.846   1.779 -0.5356  0.2697  0.5381
   43MOL0     C 5546   5.961   9.785   1.873 -0.3854  0.2321  0.3993
   43MOL0     O 5547   6.028   9.752   1.985  0.6088 -0.3825  0.2876
   43MOL0     C 5548   6.165   9.778   2.000  0.1312  0.4044 -0.4771
   43MOL0     C 5549   6.261   9.676   1.999 -0.5740  0.4559  0.8924
   43MOL0     C 5550   6.404   9.702   1.994  1.0399 -1.1011  0.3966
   43MOL0     C 5551   6.445   9.831   2.017 -1.6955 -0.5237 -0.2982
   43MOL0     O 5552   6.577   9.863   2.040 -0.8799 -0.7171  0.4124
   43MOL0     C 5553   6.644   9.779   2.132  0.4675  0.3078 -0.2954
   43MOL0     C 5554   6.794   9.811   2.149  0.6607  0.0561 -0.0153
   43MOL0     C 5555   6.878   9.766   2.028  0.0811 -0.2626  0.1383
   43MOL0     C 5556   7.016   9.757   2.075 -0.5586 -0.0007 -0.5634
   43MOL0     C 5557   7.108   9.768   1.946 -0.6007  1.0806  0.2351
   43MOL0     C 5558   7.126   9.910   1.889  0.4036 -0.0981 -0.1211
   43MOL0     C 5559   7.254   9.924   1.810 -0.2396  0.4987  0.6549
   43MOL0     C 5560   7.269  10.055   1.730  0.1822 -0.4678  0.0417
   43MOL0     N 5561   7.171  10.078   1.614  0.4330  0.7040 -0.9125
   43MOL0     C 5562   7.203  10.035   1.485 -0.6146 -0.5559  0.0908
   43MOL0     C 5563   7.091  10.062   1.413  0.2028 -0.0857 -1.6914
   43MOL0     C 5564   7.053  10.051   1.271 -0.2811 -0.6179 -0.3448
   43MOL0     C 5565   6.988   9.910   1.232  0.3542 -0.6870 -0.6554
   43MOL0     C 5566   6.963   9.887   1.080  0.4674 -0.1027 -0.7120
   43MOL0     C 5567   6.965   9.742   1.052  0.2489  0.5432  0.6834
   43MOL0     O 5568   6.885   9.645   1.123 -0.1472 -0.3501  0.1996
   43MOL0     C 5569   6.740   9.641   1.119 -0.1966  0.5799  0.3595
   43MOL0     C 5570   6.670   9.563   1.219  0.3975  0.7821 -0.6648
   43MOL0     C 5571   6.532   9.564   1.223  0.0356 -0.8332  0.5147
   43MOL0     C 5572   6.461   9.635   1.122 -0.7268  0.1330 -0.0458
   43MOL0     C 5573   6.319   9.631   1.131  0.7626 -0.1023 -0.8949
   43MOL0     O 5574   6.262   9.560   1.223  0.6145 -0.4309 -0.8913
   43MOL0     C 5575   6.127   9.577   1.239 -0.1035  0.8958 -0.2285
   43MOL0     C 5576   6.071   9.697   1.290 -0.2146 -0.1568 -0.6536
   43MOL0     C 5577   5.938   9.716   1.301  1.5672 -0.3685 -0.0333
   43MOL0     C 5578   5.857   9.598   1.283  0.0043 -0.8862  0.3311
   43MOL0     O 5579   5.718   9.605   1.280  0.4722  0.4890 -0.2122
   43MOL0     C 5580   5.630   9.535   1.380 -0.0208 -0.1235  0.3637
   43MOL0     C 5581   5.485   9.576   1.354  0.2912  0.1528  0.4591
   43MOL0     C 5582   5.457   9.722   1.313  0.3610  0.6913 -0.6187
   43MOL0     C 5583   5.313   9.729   1.276  0.6648  0.4010 -0.2690
   43MOL0     C 5584   5.265   9.877   1.249 -0.0248 -0.1199 -0.3247
   43MOL0     C 5585   5.121   9.870   1.222 -0.2027  0.2631 -0.6134
   43MOL0     C 5586   5.070  10.009   1.181  0.5272 -0.2617  0.4027
   43MOL0     C 5587   4.918  10.018   1.151 -0.9082  0.2034 -0.6150
   43MOL0    Cl 5588   4.889  10.164   1.062 -0.0548  0.2201 -0.0990
   43MOL0     C 5589   5.917   9.468   1.248  0.3026  0.1645 -0.6187
   43MOL0     C 5590   6.054   9.462   1.228 -0.4011 -0.3907 -0.4217
   43MOL0     O 5591   6.258   9.697   1.044 -0.2934 -0.7084 -0.0139
   43MOL0     C 5592   6.526   9.699   1.017 -0.2244  0.1576 -0.8696
   43MOL0     C 5593   6.662   9.700   1.020 -0.3731 -0.0389 -0.3226
   43MOL0     N 5594   6.998  10.115   1.507  0.0337  0.5113 -0.2371
   43MOL0     N 5595   7.051  10.122   1.631 -0.5174  0.5697  0.4929
   43MOL0     C 5596   6.353   9.932   2.029  0.0748 -0.5688 -0.3137
   43MOL0     C 5597   6.215   9.906   2.020 -0.8310 -0.3976  0.1523
   43MOL0     C 5598   5.821   9.749   1.867 -0.1881  0.1639 -0.8633
   43MOL0     C 5599   5.752   9.808   1.768  1.7467 -0.1204  0.6593
   43MOL0     C 5600   5.608   9.805   1.777 -0.4092  0.0911  0.8228
   43MOL0     C 5601   5.548   9.731   1.884  0.3339 -0.5975 -1.3106
   43MOL0     O 5602   5.411   9.715   1.896  0.6357 -0.8783  0.5256
   43MOL0     C 5603   5.322   9.717   1.784  0.5418 -0.0908  0.1386
   43MOL0     C 5604   5.322   9.571   1.734 -0.3124  0.3751 -0.6514
   43MOL0     C 5605   5.192   9.515   1.684  0.1116 -0.9544  1.0208
   43MOL0     C 5606   5.204   9.372   1.622  0.5285  0.7107  0.0663
   43MOL0     C 5607   5.079   9.292   1.628  0.3241 -0.4802 -0.3115
   43MOL0     C 5608   4.969   9.239   1.621  0.2220 -0.1771 -0.1081
   43MOL0     C 5609   5.626   9.674   1.986 -0.0218 -1.1282 -0.0343
   43MOL0     C 5610   5.755   9.685   1.975  0.3117 -0.3068 -0.1623
   43MOL0     H 5611   6.233   9.573   1.982  1.1440 -0.1471  1.5580
   43MOL0     H 5612   6.463   9.616   1.966  1.6140 -0.3578 -0.7428
   43MOL0     H 5613   6.630   9.674   2.106 -5.0485  1.1654 -2.2028
   43MOL0     H 5614   6.602   9.795   2.232  2.6781  0.9097  0.5917
   43MOL0     H 5615   6.818   9.750   2.237 -0.4384  0.6705  0.7390
   43MOL0     H 5616   6.822   9.914   2.174  0.5880 -0.2320  1.3394
   43MOL0     H 5617   6.864   9.842   1.950 -4.5843 -5.1146 -4.5528
   43MOL0     H 5618   6.853   9.676   1.971  1.5106 -0.2095 -0.6042
   43MOL0     H 5619   7.052   9.834   2.144 -0.4630 -0.4870 -0.0609
   43MOL0     H 5620   7.028   9.665   2.133  1.3457  0.9019  0.5833
   43MOL0     H 5621   7.069   9.705   1.865  0.9826 -0.9139  0.9329
   43MOL0     H 5622   7.205   9.733   1.981 -0.1354  0.9836 -1.0885
   43MOL0     H 5623   7.131   9.974   1.977  0.2513 -0.0529 -0.1452
   43MOL0     H 5624   7.050   9.927   1.812 -0.1445 -3.0848 -0.3590
   43MOL0     H 5625   7.345   9.911   1.870 -0.4474  2.5320  1.5107
   43MOL0     H 5626   7.264   9.847   1.734  3.4800  1.9868 -0.6188
   43MOL0     H 5627   7.365  10.076   1.681 -1.3035  2.0722 -2.1025
   43MOL0     H 5628   7.263  10.141   1.799 -0.4347 -0.3587 -0.1418
   43MOL0     H 5629   7.304  10.008   1.454  0.4625  0.5899  2.3178
   43MOL0     H 5630   7.144  10.076   1.215 -0.4603  1.4126  0.1996
   43MOL0     H 5631   6.977  10.129   1.259  1.0482  1.2177  2.3378
   43MOL0     H 5632   6.889   9.891   1.275  0.1985 -1.3616 -1.2908
   43MOL0     H 5633   7.040   9.828   1.282 -1.9026 -1.3547  0.7240
   43MOL0     H 5634   6.863   9.924   1.055  0.4111  0.4618  0.2731
   43MOL0     H 5635   7.037   9.943   1.021  0.2310 -0.0979 -1.0038
   43MOL0     H 5636   7.065   9.699   1.038 -0.9653 -1.7939 -1.5417
   43MOL0     H 5637   6.942   9.737   0.945 -2.2298  0.7181  1.1485
   43MOL0     H 5638   6.735   9.519   1.294  0.3258  2.6388  0.5530
   43MOL0     H 5639   6.483   9.514   1.306  0.4432  0.0160  1.2926
   43MOL0     H 5640   6.136   9.770   1.338 -0.0981 -1.1517  0.7525
   43MOL0     H 5641   5.900   9.814   1.327 -0.1859 -0.2224 -2.7696
   43MOL0     H 5642   5.666   9.570   1.477  1.0059  0.2370 -0.1316
   43MOL0     H 5643   5.640   9.426   1.378 -0.2550 -0.1924  1.8412
   43MOL0     H 5644   5.411   9.537   1.424 -1.2211 -0.2144 -1.2688
   43MOL0     H 5645   5.446   9.523   1.267 -1.4195 -0.0229  1.2908
   43MOL0     H 5646   5.527   9.729   1.229  2.6388 -1.9272  0.9123
   43MOL0     H 5647   5.480   9.795   1.391 -2.1729  0.9507 -0.0203
   43MOL0     H 5648   5.297   9.669   1.186  0.3376  1.1688 -0.7383
   43MOL0     H 5649   5.250   9.682   1.352  2.4205  0.3420  1.2133
   43MOL0     H 5650   5.316   9.922   1.162  0.0960 -2.4473 -1.5327
   43MOL0     H 5651   5.299   9.931   1.338  2.9594 -4.2829  1.3410
   43MOL0     H 5652   5.058   9.835   1.304  1.4744  0.4668  0.8221
   43MOL0     H 5653   5.092   9.801   1.143 -0.9639  0.2155 -0.3016
   43MOL0     H 5654   5.097  10.089   1.251  1.3151 -0.5472  0.4378
   43MOL0     H 5655   5.132  10.027   1.092 -0.3023  1.2989  0.0902
   43MOL0     H 5656   4.856  10.021   1.242 -0.9708 -1.3297 -0.5861
   43MOL0     H 5657   4.902   9.932   1.087 -0.6260  0.7865 -1.4847
   43MOL0     H 5658   5.854   9.386   1.217 -1.2439  1.6262 -1.4926
   43MOL0     H 5659   6.110   9.372   1.203 -0.4709 -1.3552  2.4986
   43MOL0     H 5660   6.476   9.747   0.934 -2.0531  1.4557  0.8890
   43MOL0     H 5661   6.705   9.768   0.946 -2.4520  2.0182  0.2401
   43MOL0     H 5662   6.382  10.032   2.060 -3.0973  1.0526 -2.0364
   43MOL0     H 5663   6.156   9.994   2.043  2.6474  1.2552  4.4848
   43MOL0     H 5664   5.797   9.873   1.694  2.1913 -1.7624 -0.5768
   43MOL0     H 5665   5.553   9.852   1.696  2.1154 -0.5304 -1.3857
   43MOL0     H 5666   5.348   9.793   1.710 -0.0354 -1.1520 -1.1938
   43MOL0     H 5667   5.218   9.743   1.808 -0.6935 -0.7413 -3.8197
   43MOL0     H 5668   5.400   9.549   1.660 -0.8936 -0.3484 -1.0668
   43MOL0     H 5669   5.336   9.499   1.815  1.9880 -1.1044 -2.2380
   43MOL0     H 5670   5.140   9.579   1.614  2.1349 -0.2876  0.0453
   43MOL0     H 5671   5.119   9.512   1.765  0.1682  0.7337  1.1665
   43MOL0     H 5672   5.230   9.392   1.518  1.1782  2.0997  0.4677
   43MOL0     H 5673   5.278   9.317   1.683  1.6086  2.2142  0.1671
   43MOL0     H 5674   4.886   9.172   1.632 -0.8849  1.5637  3.8358
   43MOL0     H 5675   5.594   9.602   2.061 -0.8591 -0.1406  0.5840
   43MOL0     H 5676   5.815   9.648   2.058  1.6113 -1.2712 -1.4774
   44MOL0     O 5677   7.000   1.320   0.473  0.0031  0.0636  0.1875
   44MOL0     C 5678   7.034   1.203   0.448  0.5727 -0.3053  0.0860
   44MOL0     O 5679   6.949   1.096   0.467  0.3167 -0.6899  0.1349
   44MOL0     C 5680   6.815   1.125   0.476 -0.8347  0.9220 -0.1231
   44MOL0     C 5681   6.741   1.160   0.371  0.0617 -0.2477  0.5394
   44MOL0     C 5682   6.601   1.198   0.389 -0.7918 -0.1205  0.0516
   44MOL0     C 5683   6.539   1.198   0.515  0.6401  0.7268  0.1097
   44MOL0     O 5684   6.409   1.222   0.559 -0.4059  0.3250 -0.3002
   44MOL0     C 5685   6.315   1.258   0.450 -0.7780  1.0667  0.0085
   44MOL0     C 5686   6.177   1.275   0.510  0.4270 -0.7432 -0.0181
   44MOL0     C 5687   6.070   1.255   0.402  0.1269  0.1515 -0.1088
   44MOL0     C 5688   5.931   1.293   0.466  1.5163 -0.9633  0.5627
   44MOL0     C 5689   5.809   1.308   0.374  0.2961  0.0003  0.7388
   44MOL0     C 5690   5.756   1.178   0.317 -0.0533  0.6942  0.3558
   44MOL0     C 5691   5.618   1.184   0.254  0.3416  0.2644 -0.3802
   44MOL0     C 5692   5.607   1.071   0.152  0.2485 -0.0837 -0.4287
   44MOL0     N 5693   5.464   1.045   0.129  0.6070  0.3778 -0.8012
   44MOL0     C 5694   5.379   0.959   0.199 -0.8181 -0.1135  0.0586
   44MOL0     C 5695   5.257   0.986   0.150  0.0083  0.1008  0.8676
   44MOL0     C 5696   5.130   0.917   0.200 -0.0017 -0.2724 -0.2288
   44MOL0     C 5697   5.089   0.969   0.341  0.1171 -0.4502 -0.2014
   44MOL0     C 5698   4.938   0.992   0.362 -0.1429 -0.4680  0.0149
   44MOL0     C 5699   4.861   0.862   0.377 -0.9611  0.5017 -1.2948
   44MOL0     O 5700   4.770   0.831   0.268 -0.0889  0.5582  1.0089
   44MOL0     C 5701   4.698   0.936   0.213 -0.4565  0.2654 -0.1043
   44MOL0     C 5702   4.746   0.994   0.089  0.1924  0.2989 -0.4800
   44MOL0     C 5703   4.677   1.094   0.026 -0.3923 -0.5798  0.1919
   44MOL0     C 5704   4.547   1.133   0.079  0.4545  0.4341 -0.7024
   44MOL0     C 5705   4.457   1.233   0.018 -0.4760  0.2190 -0.3036
   44MOL0     O 5706   4.326   1.234   0.058 -0.8049  0.5851  0.3076
   44MOL0     C 5707   4.245   1.348   0.032 -0.4679  0.0268  0.2630
   44MOL0     C 5708   4.274   1.485   0.042 -0.2952 -0.0722  0.0749
   44MOL0     C 5709   4.181   1.581   0.012 -0.2349 -0.3734 -0.2732
   44MOL0     C 5710   4.054   1.552  -0.041 -0.6918  0.2138  0.0298
   44MOL0     O 5711   3.957   1.649  -0.071  0.2369 -0.0136 -0.2451
   44MOL0     C 5712   3.896   1.629  -0.201  0.7042  0.3458  0.3824
   44MOL0     C 5713   3.798   1.739  -0.201 -0.1728  0.1316  0.8584
   44MOL0     C 5714   3.729   1.752  -0.336  0.3524  0.3686 -0.1539
   44MOL0     C 5715   3.607   1.659  -0.373  0.1222  0.4199  0.5332
   44MOL0     C 5716   3.515   1.590  -0.259 -0.5769  0.3042  0.3106
   44MOL0     C 5717   3.441   1.468  -0.306 -0.1263 -0.3962 -0.6404
   44MOL0     C 5718   3.353   1.401  -0.204 -0.4063 -0.1684  0.7994
   44MOL0     C 5719   3.265   1.312  -0.285  0.8772  0.7965 -0.4285
   44MOL0    Cl 5720   3.154   1.217  -0.178 -0.0912 -0.3872 -0.0414
   44MOL0     C 5721   4.020   1.416  -0.060 -0.6959 -0.3462 -0.3398
   44MOL0     C 5722   4.112   1.318  -0.019  0.1564  0.9795  0.5668
   44MOL0     O 5723   4.516   1.319  -0.050 -0.1340  0.7472  0.6534
   44MOL0     C 5724   4.513   1.078   0.199 -0.0952 -0.6086  0.1484
   44MOL0     C 5725   4.586   0.984   0.270  1.0169 -1.1589  0.6373
   44MOL0     N 5726   5.264   1.065   0.037  0.1565  0.3662  0.0615
   44MOL0     N 5727   5.386   1.106   0.036 -0.8044 -0.3199 -0.0960
   44MOL0     C 5728   6.624   1.166   0.626  0.3503  0.9868  0.5536
   44MOL0     C 5729   6.757   1.128   0.604 -0.1897 -0.2995  0.2231
   44MOL0     C 5730   7.180   1.193   0.432  0.0523  0.2677 -0.0854
   44MOL0     C 5731   7.230   1.067   0.397 -0.2693  0.7559  0.6453
   44MOL0     C 5732   7.367   1.047   0.372 -0.6205 -1.0614 -1.2497
   44MOL0     C 5733   7.452   1.148   0.384 -0.1890  0.3792  0.2721
   44MOL0     O 5734   7.587   1.127   0.380 -0.7657 -0.6209  0.3715
   44MOL0     C 5735   7.633   1.061   0.254  0.3093 -0.7043 -0.7831
   44MOL0     C 5736   7.782   1.085   0.237  0.7053  0.5062  0.2605
   44MOL0     C 5737   7.820   1.193   0.132 -0.0701  0.1247  1.0789
   44MOL0     C 5738   7.969   1.193   0.094  0.2396 -0.4324  0.7890
   44MOL0     C 5739   8.016   1.068   0.044  0.9298  0.9857 -0.4523
   44MOL0     C 5740   8.064   0.964   0.007  0.1792  0.3631 -0.5888
   44MOL0     C 5741   7.402   1.275   0.424  0.3935 -0.1683  0.8176
   44MOL0     C 5742   7.265   1.302   0.437 -0.6463  0.7155  0.5547
   44MOL0     H 5743   6.805   1.165   0.283  0.1198 -0.3928  0.5743
   44MOL0     H 5744   6.541   1.234   0.306 -1.7348 -1.3924  0.1413
   44MOL0     H 5745   6.307   1.171   0.384 -0.8034  1.1676 -0.1216
   44MOL0     H 5746   6.349   1.340   0.385 -1.6847  0.8301 -0.7974
   44MOL0     H 5747   6.159   1.376   0.548 -2.5692  0.1299 -3.2316
   44MOL0     H 5748   6.157   1.198   0.586 -0.2387 -0.7215 -0.1645
   44MOL0     H 5749   6.083   1.149   0.376 -0.5384  0.7537 -3.3465
   44MOL0     H 5750   6.097   1.310   0.312  4.7830  0.3088  1.1161
   44MOL0     H 5751   5.908   1.225   0.549 -0.9926 -2.4279 -1.1987
   44MOL0     H 5752   5.948   1.389   0.514  1.3957  0.1704 -1.5360
   44MOL0     H 5753   5.830   1.370   0.287  0.2377 -1.6758 -0.5117
   44MOL0     H 5754   5.728   1.357   0.430  0.8674  0.9304  0.7808
   44MOL0     H 5755   5.747   1.107   0.399 -0.8871 -2.0041 -1.9371
   44MOL0     H 5756   5.828   1.146   0.241 -1.7183  0.8559 -1.3737
   44MOL0     H 5757   5.541   1.172   0.331  0.0974 -0.9972 -0.7992
   44MOL0     H 5758   5.593   1.275   0.199 -2.2099 -0.4400 -0.5108
   44MOL0     H 5759   5.650   0.979   0.194 -1.0179 -1.3612 -1.8266
   44MOL0     H 5760   5.632   1.090   0.048 -3.3303  1.2383 -1.2028
   44MOL0     H 5761   5.415   0.903   0.285 -1.8495 -0.5434  0.2293
   44MOL0     H 5762   5.145   0.809   0.196  1.3897 -0.0565 -1.6372
   44MOL0     H 5763   5.046   0.930   0.131 -1.2839  0.6666  1.4529
   44MOL0     H 5764   5.142   1.060   0.371  2.4943 -2.3907  1.9870
   44MOL0     H 5765   5.121   0.899   0.418  0.9928  1.8072  1.6119
   44MOL0     H 5766   4.931   1.056   0.451  0.9592  1.3834 -1.1589
   44MOL0     H 5767   4.892   1.057   0.287  0.6109  1.3850  1.0898
   44MOL0     H 5768   4.802   0.869   0.468  0.5968 -0.6253 -0.1442
   44MOL0     H 5769   4.925   0.775   0.395  0.8959  2.3035  1.5966
   44MOL0     H 5770   4.842   0.953   0.060  0.1118  0.4068 -0.9071
   44MOL0     H 5771   4.725   1.134  -0.063  0.6390 -1.9238  0.1146
   44MOL0     H 5772   4.372   1.519   0.076 -0.0999  1.1481 -1.5690
   44MOL0     H 5773   4.217   1.684   0.021 -0.8701 -0.1376 -0.4003
   44MOL0     H 5774   3.831   1.542  -0.215  3.6876 -1.8146 -1.0962
   44MOL0     H 5775   3.974   1.636  -0.277 -0.5786 -0.4960 -1.0712
   44MOL0     H 5776   3.849   1.834  -0.183 -0.9507  1.0652 -1.5235
   44MOL0     H 5777   3.712   1.731  -0.134 -0.8345 -1.4616 -0.1193
   44MOL0     H 5778   3.803   1.753  -0.416  0.7277  1.1497  0.1839
   44MOL0     H 5779   3.682   1.851  -0.330  1.5769  0.9090  1.3599
   44MOL0     H 5780   3.533   1.711  -0.434  1.6623  3.9776  1.4569
   44MOL0     H 5781   3.647   1.582  -0.439 -3.5556 -2.2533  1.1123
   44MOL0     H 5782   3.447   1.660  -0.208 -1.4510 -0.0328 -0.3791
   44MOL0     H 5783   3.583   1.555  -0.180 -0.6535 -0.2494  0.1339
   44MOL0     H 5784   3.520   1.397  -0.334  0.7180  0.4036 -0.3283
   44MOL0     H 5785   3.380   1.491  -0.394 -1.4600  5.2169  1.3569
   44MOL0     H 5786   3.414   1.356  -0.125 -0.1457 -1.5371 -0.1406
   44MOL0     H 5787   3.274   1.463  -0.161 -0.7702  1.7600 -2.3957
   44MOL0     H 5788   3.328   1.239  -0.339  2.2726  1.4210  0.3114
   44MOL0     H 5789   3.211   1.373  -0.358  4.0469  2.8644 -1.2613
   44MOL0     H 5790   3.927   1.375  -0.096 -1.0230  0.6965 -0.7237
   44MOL0     H 5791   4.087   1.214  -0.040 -0.0939  1.5555 -2.4120
   44MOL0     H 5792   4.415   1.099   0.242  0.4493  1.2735  0.5470
   44MOL0     H 5793   4.547   0.941   0.361  0.8795 -1.0895  0.6111
   44MOL0     H 5794   6.585   1.178   0.727  1.2706 -2.7132  1.4817
   44MOL0     H 5795   6.808   1.115   0.699 -0.9916 -0.2798  0.6590
   44MOL0     H 5796   7.153   0.994   0.374 -2.1407  3.2462 -1.4913
   44MOL0     H 5797   7.408   0.950   0.347  0.5697 -1.6778  2.5756
   44MOL0     H 5798   7.579   1.106   0.170  2.6412  1.9513 -1.0121
   44MOL0     H 5799   7.622   0.955   0.276 -2.0516 -0.1228  1.3383
   44MOL0     H 5800   7.818   1.115   0.336  0.0919  0.6715  0.4411
   44MOL0     H 5801   7.827   0.988   0.214  2.1410  0.9602  1.0205
   44MOL0     H 5802   7.783   1.294   0.154 -0.3937  0.4664 -0.8995
   44MOL0     H 5803   7.757   1.179   0.044 -0.3988 -1.4521  1.5393
   44MOL0     H 5804   7.991   1.278   0.028  3.3030 -0.9297  1.0456
   44MOL0     H 5805   8.026   1.214   0.185 -0.6384 -2.7232  1.9457
   44MOL0     H 5806   8.106   0.870  -0.021 -0.9593  0.2310 -1.9953
   44MOL0     H 5807   7.456   1.369   0.430 -0.5076  0.4253 -0.0825
   44MOL0     H 5808   7.227   1.403   0.454  0.8853  1.2430  0.9802
   45MOL0     O 5809   7.252  10.975   8.027  0.4060  0.2077 -0.1110
   45MOL0     C 5810   7.194  10.872   7.992  0.3852  0.3891 -0.6771
   45MOL0     O 5811   7.244  10.764   7.926 -0.3850 -0.1762  0.2077
   45MOL0     C 5812   7.369  10.762   7.870 -0.5438  0.6432 -0.0777
   45MOL0     C 5813   7.430  10.876   7.829 -0.8663  0.3869  0.9455
   45MOL0     C 5814   7.560  10.850   7.767 -0.2423  0.2218 -0.3876
   45MOL0     C 5815   7.609  10.718   7.733 -0.1634  0.3522 -0.6981
   45MOL0     O 5816   7.710  10.709   7.645 -0.3483 -0.9257 -0.1574
   45MOL0     C 5817   7.748  10.582   7.589 -0.3937  0.7172  0.8890
   45MOL0     C 5818   7.880  10.576   7.502  0.3578  0.0604  0.3149
   45MOL0     C 5819   7.887  10.708   7.418  0.0986 -0.2716 -0.6876
   45MOL0     C 5820   8.008  10.705   7.327  0.0477  0.1693 -0.4056
   45MOL0     C 5821   8.027  10.844   7.257 -0.3116  0.8327 -0.2506
   45MOL0     C 5822   7.916  10.872   7.155 -0.2920 -0.5368  0.7954
   45MOL0     C 5823   7.939  11.005   7.070  0.2152  0.0954  0.1523
   45MOL0     C 5824   8.019  11.004   6.940 -0.0045  0.4541  0.1665
   45MOL0     N 5825   7.991  11.129   6.862  0.2451  0.6124  1.0856
   45MOL0     C 5826   8.056  11.252   6.882 -0.4665 -0.1450  0.9396
   45MOL0     C 5827   8.001  11.341   6.805  0.2140 -0.2660 -0.2961
   45MOL0     C 5828   8.037  11.490   6.793 -0.6112  0.1380  0.1070
   45MOL0     C 5829   8.083  11.550   6.924  0.8070  0.6608  0.3257
   45MOL0     C 5830   8.066  11.707   6.924  1.0631  0.2467 -0.5257
   45MOL0     C 5831   8.161  11.792   6.833 -0.1529  0.7532 -0.7769
   45MOL0     O 5832   8.300  11.747   6.837  0.0730 -0.3807  0.0107
   45MOL0     C 5833   8.401  11.802   6.755 -0.2837 -0.2126  1.2085
   45MOL0     C 5834   8.539  11.779   6.794  0.0941  0.3598  0.0828
   45MOL0     C 5835   8.640  11.846   6.724  0.4576 -0.0532 -0.2301
   45MOL0     C 5836   8.612  11.917   6.601 -0.3588  0.0694 -0.4188
   45MOL0     C 5837   8.717  11.967   6.518 -1.0963  0.0059 -0.1336
   45MOL0     O 5838   8.701  11.992   6.387 -0.3183 -0.3094 -0.2540
   45MOL0     C 5839   8.802  12.038   6.306  0.1249 -0.0379 -0.8222
   45MOL0     C 5840   8.811  11.984   6.184  0.7280 -1.4304  0.2370
   45MOL0     C 5841   8.901  12.024   6.093  0.2411 -0.0731  1.6215
   45MOL0     C 5842   8.983  12.131   6.110 -0.1824 -0.1582 -0.2839
   45MOL0     O 5843   9.055  12.173   6.009  0.3035 -0.1597  0.1425
   45MOL0     C 5844   9.193  12.152   6.039 -0.1871  0.4076 -0.4360
   45MOL0     C 5845   9.290  12.141   5.921  0.1228  1.4089 -0.8539
   45MOL0     C 5846   9.302  12.275   5.849  0.3369 -0.7760  0.4088
   45MOL0     C 5847   9.426  12.343   5.883  0.0347 -0.3942 -0.2980
   45MOL0     C 5848   9.447  12.477   5.822  0.9432 -0.9440  0.4358
   45MOL0     C 5849   9.434  12.485   5.676 -0.1012 -0.1138  0.1977
   45MOL0     C 5850   9.484  12.621   5.612  1.2589 -0.0742 -0.0877
   45MOL0     C 5851   9.631  12.629   5.606  0.5554 -0.0016 -0.4041
   45MOL0    Cl 5852   9.709  12.498   5.531 -0.2667  0.1789  0.1909
   45MOL0     C 5853   8.976  12.189   6.235 -0.0781  0.0338 -0.3579
   45MOL0     C 5854   8.885  12.144   6.333 -0.7373  0.5943  0.5431
   45MOL0     O 5855   8.830  11.963   6.577  0.2701 -0.4104  0.1162
   45MOL0     C 5856   8.483  11.929   6.567  0.4789  1.1575 -0.1654
   45MOL0     C 5857   8.376  11.867   6.643 -0.4786  0.0607  0.9136
   45MOL0     N 5858   7.900  11.272   6.732  0.1102 -0.6072 -0.3311
   45MOL0     N 5859   7.908  11.144   6.759  0.0423  0.6559  0.1110
   45MOL0     C 5860   7.556  10.611   7.800  0.3651  1.1573  0.2846
   45MOL0     C 5861   7.433  10.631   7.867  0.5287  0.5537 -0.2718
   45MOL0     C 5862   7.050  10.871   8.037  0.0087 -0.1660 -0.2905
   45MOL0     C 5863   7.003  10.982   8.104  0.7006  0.2541 -0.6065
   45MOL0     C 5864   6.861  10.994   8.124 -0.2482  0.4267  0.0855
   45MOL0     C 5865   6.768  10.897   8.084  0.5001  0.0326 -0.0477
   45MOL0     O 5866   6.635  10.922   8.109 -0.2525 -0.5255 -0.7683
   45MOL0     C 5867   6.531  10.838   8.066  0.6717 -0.4595 -0.1871
   45MOL0     C 5868   6.394  10.897   8.101 -0.4751  0.3520 -0.7964
   45MOL0     C 5869   6.369  10.903   8.252 -0.9587 -0.3519 -0.2649
   45MOL0     C 5870   6.232  10.964   8.292 -0.6912 -0.0718  0.9707
   45MOL0     C 5871   6.232  11.103   8.264  0.5082  0.2535 -0.2343
   45MOL0     C 5872   6.239  11.219   8.224  0.3917  0.4222  0.4482
   45MOL0     C 5873   6.826  10.787   8.019 -0.5216 -0.6099 -1.2211
   45MOL0     C 5874   6.960  10.775   7.997 -0.3601  0.5923  0.3307
   45MOL0     H 5875   7.396  10.979   7.825  2.7787  1.6810  0.3190
   45MOL0     H 5876   7.626  10.935   7.750 -0.0882  0.3234  0.6542
   45MOL0     H 5877   7.664  10.540   7.532 -1.4422 -0.1047  2.9445
   45MOL0     H 5878   7.764  10.508   7.667 -1.1456 -0.5637 -0.1337
   45MOL0     H 5879   7.885  10.489   7.437 -0.4166  2.2455 -2.9131
   45MOL0     H 5880   7.971  10.568   7.563  1.3666  2.4582 -0.7381
   45MOL0     H 5881   7.905  10.790   7.487 -0.1865 -0.8389  0.0785
   45MOL0     H 5882   7.794  10.714   7.361  0.4988 -1.2682 -1.4817
   45MOL0     H 5883   8.101  10.678   7.378 -0.0605  0.5586  0.0063
   45MOL0     H 5884   7.991  10.631   7.248 -2.8369  1.2703 -0.9298
   45MOL0     H 5885   8.124  10.831   7.208 -0.1590 -2.5143  0.6786
   45MOL0     H 5886   8.038  10.921   7.333 -0.0756  0.4961  0.0585
   45MOL0     H 5887   7.828  10.893   7.216  0.5007 -0.5047  1.9678
   45MOL0     H 5888   7.893  10.783   7.096 -1.6815  1.5607 -2.0237
   45MOL0     H 5889   7.836  11.036   7.052 -1.0380 -2.2418  2.5743
   45MOL0     H 5890   7.976  11.090   7.128  0.5721  1.2305 -1.6583
   45MOL0     H 5891   7.975  10.924   6.880 -1.2043  0.1860  1.3427
   45MOL0     H 5892   8.124  10.975   6.937 -0.4196 -1.3058  1.1823
   45MOL0     H 5893   8.138  11.275   6.950  0.0371 -2.1544  1.0799
   45MOL0     H 5894   7.949  11.552   6.773  0.7096  1.3367 -2.5106
   45MOL0     H 5895   8.102  11.517   6.709  1.6486  2.0155  2.3097
   45MOL0     H 5896   8.187  11.524   6.943  0.6558  0.3243  0.7134
   45MOL0     H 5897   8.012  11.505   6.994  0.9569 -2.0198 -1.1216
   45MOL0     H 5898   7.963  11.718   6.888  1.2743 -2.5151 -2.2847
   45MOL0     H 5899   8.073  11.741   7.027 -0.4606  2.4219 -1.0501
   45MOL0     H 5900   8.167  11.894   6.874 -0.7899  0.0382  1.2052
   45MOL0     H 5901   8.120  11.803   6.732 -1.8214  3.3663  0.0669
   45MOL0     H 5902   8.572  11.710   6.872  1.4996 -1.6223 -2.1489
   45MOL0     H 5903   8.737  11.826   6.767  1.0887  1.9515 -0.6519
   45MOL0     H 5904   8.751  11.894   6.174  0.8327 -1.2226 -3.0771
   45MOL0     H 5905   8.896  11.977   5.996 -0.7692  1.5672  0.8224
   45MOL0     H 5906   9.203  12.064   6.102 -1.5402  1.1273  0.8469
   45MOL0     H 5907   9.228  12.228   6.109  1.0979 -0.2652 -0.3236
   45MOL0     H 5908   9.246  12.072   5.849  2.3983 -0.1570 -0.8628
   45MOL0     H 5909   9.386  12.090   5.939 -0.2329  0.5530 -1.3347
   45MOL0     H 5910   9.215  12.339   5.869 -0.6485 -1.1484 -2.2440
   45MOL0     H 5911   9.300  12.251   5.742 -0.1486 -1.7390  0.6230
   45MOL0     H 5912   9.429  12.355   5.992  1.8849 -0.2565 -0.3235
   45MOL0     H 5913   9.513  12.280   5.859 -1.3231 -1.0903 -4.0520
   45MOL0     H 5914   9.541  12.522   5.855  0.0479  1.4458 -0.1197
   45MOL0     H 5915   9.366  12.532   5.870  1.4922 -1.1778  1.6669
   45MOL0     H 5916   9.336  12.465   5.634 -0.1373  0.9629 -0.2739
   45MOL0     H 5917   9.503  12.410   5.637  3.1571  2.7325 -0.1003
   45MOL0     H 5918   9.448  12.620   5.508  2.2945 -0.6876 -0.4591
   45MOL0     H 5919   9.439  12.709   5.658 -1.9519 -0.5120 -2.0848
   45MOL0     H 5920   9.669  12.646   5.707 -0.0084 -3.0075  0.4040
   45MOL0     H 5921   9.650  12.728   5.563 -2.4074  0.3592 -1.1047
   45MOL0     H 5922   9.030  12.282   6.246 -0.6203  0.3976 -0.7391
   45MOL0     H 5923   8.875  12.182   6.434  0.0059 -3.0416  2.1553
   45MOL0     H 5924   8.446  11.968   6.473  2.2864 -1.4617 -2.1375
   45MOL0     H 5925   8.277  11.880   6.600  0.1023  1.3749 -0.1146
   45MOL0     H 5926   7.589  10.509   7.783 -1.7890  0.7224 -1.7408
   45MOL0     H 5927   7.384  10.544   7.910  0.2900 -0.3987 -2.3253
   45MOL0     H 5928   7.061  11.063   8.147 -1.6739  0.8342  1.8147
   45MOL0     H 5929   6.829  11.077   8.186  0.3320 -0.7968  2.1238
   45MOL0     H 5930   6.542  10.731   8.088 -0.6442 -1.0678 -2.2012
   45MOL0     H 5931   6.531  10.838   7.956  3.5004  0.1028 -0.2660
   45MOL0     H 5932   6.390  10.999   8.061 -0.4073  1.0181  0.8292
   45MOL0     H 5933   6.306  10.849   8.057 -1.3860  1.9825 -0.8496
   45MOL0     H 5934   6.445  10.956   8.309  0.9792 -3.8552  0.6562
   45MOL0     H 5935   6.366  10.802   8.295 -2.1193 -0.6543 -1.0065
   45MOL0     H 5936   6.147  10.914   8.245 -0.3894 -1.8847  2.2454
   45MOL0     H 5937   6.214  10.959   8.400  2.5240  1.0719  1.6740
   45MOL0     H 5938   6.236  11.316   8.179  0.4453 -0.0491 -0.5925
   45MOL0     H 5939   6.772  10.696   7.994 -1.9133 -1.5113  3.9278
   45MOL0     H 5940   6.997  10.689   7.942  1.8194  0.8448  1.2698
   46MOL0     O 5941   5.945   9.470   7.314 -0.5481 -0.3896  0.3241
   46MOL0     C 5942   5.996   9.365   7.267  0.2164  0.0609 -0.0094
   46MOL0     O 5943   5.938   9.241   7.255 -0.7240 -0.1392  0.1998
   46MOL0     C 5944   5.807   9.234   7.285  0.4408  0.7288  0.1675
   46MOL0     C 5945   5.707   9.273   7.202 -1.0528 -0.6120  0.4257
   46MOL0     C 5946   5.569   9.257   7.229 -0.1757 -0.1260 -0.1164
   46MOL0     C 5947   5.536   9.196   7.347  0.6497  0.1602  0.8270
   46MOL0     O 5948   5.411   9.159   7.384  0.1843 -0.8683  0.7864
   46MOL0     C 5949   5.302   9.213   7.305 -0.7037  0.1693  0.1467
   46MOL0     C 5950   5.176   9.171   7.378  0.5108  0.8845 -0.2169
   46MOL0     C 5951   5.177   9.207   7.523  0.5200  0.4166  0.7262
   46MOL0     C 5952   5.049   9.164   7.601 -1.1397 -0.3431 -0.0318
   46MOL0     C 5953   4.914   9.231   7.548  1.2143  0.2947 -0.0433
   46MOL0     C 5954   4.796   9.177   7.633  0.7215 -0.0751 -0.6101
   46MOL0     C 5955   4.673   9.265   7.624  0.2784  0.0028  0.6143
   46MOL0     C 5956   4.573   9.197   7.717  0.5527  1.1615  0.1888
   46MOL0     N 5957   4.470   9.279   7.778 -0.4083  0.4367  0.5013
   46MOL0     C 5958   4.494   9.375   7.860 -1.3258  0.3627 -1.0969
   46MOL0     C 5959   4.380   9.432   7.891 -0.4450  0.0567 -0.8399
   46MOL0     C 5960   4.345   9.547   7.985 -0.8644 -0.4473  0.0888
   46MOL0     C 5961   4.298   9.504   8.121  0.5625  0.5561  0.1440
   46MOL0     C 5962   4.175   9.409   8.132 -0.3995 -1.0413  0.6689
   46MOL0     C 5963   4.039   9.462   8.085 -0.8402  0.2325 -0.3632
   46MOL0     O 5964   3.930   9.385   8.139 -0.1547  0.4041 -0.3326
   46MOL0     C 5965   3.802   9.435   8.132  0.4968 -0.9469 -0.8103
   46MOL0     C 5966   3.757   9.541   8.051 -0.1724 -0.3142 -0.3180
   46MOL0     C 5967   3.630   9.594   8.072 -0.2150 -0.8334 -0.0435
   46MOL0     C 5968   3.526   9.539   8.156  0.0517  1.1903  0.3940
   46MOL0     C 5969   3.398   9.595   8.166 -0.6635  1.0550 -0.9901
   46MOL0     O 5970   3.305   9.517   8.214  0.2261  0.6391 -1.0750
   46MOL0     C 5971   3.175   9.555   8.229 -0.6315  1.4548 -0.7375
   46MOL0     C 5972   3.107   9.529   8.348  1.1631  0.4256 -0.1996
   46MOL0     C 5973   2.965   9.536   8.355 -0.2351 -0.5304 -0.1296
   46MOL0     C 5974   2.893   9.574   8.243  0.2404 -0.0293 -0.7155
   46MOL0     O 5975   2.759   9.590   8.265 -0.8019 -0.7158  0.0220
   46MOL0     C 5976   2.668   9.625   8.164 -0.5442 -0.8825  0.9601
   46MOL0     C 5977   2.530   9.598   8.200  0.1486 -0.2735  0.4829
   46MOL0     C 5978   2.477   9.702   8.309  0.5526 -0.2233  0.0717
   46MOL0     C 5979   2.324   9.678   8.346  0.9853 -0.3155  0.4761
   46MOL0     C 5980   2.226   9.735   8.240 -0.1022 -0.0246 -0.9362
   46MOL0     C 5981   2.082   9.727   8.283 -0.0628 -0.0204  0.0200
   46MOL0     C 5982   2.027   9.841   8.375  0.4030 -0.0745  0.2573
   46MOL0     C 5983   1.927   9.780   8.475  0.1179 -0.5208  0.5356
   46MOL0    Cl 5984   2.010   9.688   8.604 -0.1407  0.1486 -0.1633
   46MOL0     C 5985   2.958   9.586   8.119  0.6543  0.3900  0.5438
   46MOL0     C 5986   3.098   9.586   8.114 -0.5646 -1.4069  0.5209
   46MOL0     O 5987   3.385   9.713   8.134  0.2612  0.7717  0.2728
   46MOL0     C 5988   3.579   9.422   8.226  0.1290 -0.2788  0.0298
   46MOL0     C 5989   3.709   9.375   8.218 -1.1708 -0.6235  0.3853
   46MOL0     N 5990   4.279   9.383   7.809 -0.6257  0.8645  0.2590
   46MOL0     N 5991   4.341   9.282   7.742  0.2508 -0.1056  0.0991
   46MOL0     C 5992   5.632   9.154   7.437 -0.3402 -0.3510  0.1896
   46MOL0     C 5993   5.773   9.165   7.402 -0.0020  0.1379  0.3344
   46MOL0     C 5994   6.134   9.364   7.226  0.0065  0.3636 -0.3637
   46MOL0     C 5995   6.218   9.473   7.256 -0.3260  0.3037 -0.5676
   46MOL0     C 5996   6.361   9.463   7.244  0.7252  0.0896 -0.1776
   46MOL0     C 5997   6.420   9.347   7.199 -0.5229  1.0918 -0.7444
   46MOL0     O 5998   6.552   9.352   7.187 -0.2357 -0.0909  0.2208
   46MOL0     C 5999   6.597   9.286   7.067  0.4727  0.2903 -0.1498
   46MOL0     C 6000   6.754   9.297   7.039  0.5155  0.0354 -0.4899
   46MOL0     C 6001   6.835   9.266   7.157 -0.1116  0.4429  0.1633
   46MOL0     C 6002   6.986   9.276   7.140 -0.3213 -0.1008 -0.3376
   46MOL0     C 6003   7.025   9.412   7.117 -0.6071 -0.0349  0.8817
   46MOL0     C 6004   7.067   9.521   7.096 -0.5141  0.7034 -0.1132
   46MOL0     C 6005   6.331   9.232   7.178  0.0771 -0.0189 -0.2789
   46MOL0     C 6006   6.185   9.234   7.177  0.3481 -0.0845  0.4138
   46MOL0     H 6007   5.724   9.320   7.105 -0.3183  3.8945  2.5117
   46MOL0     H 6008   5.505   9.278   7.144 -1.5830  2.2130  1.4214
   46MOL0     H 6009   5.305   9.168   7.205  1.4543 -4.4485  1.9706
   46MOL0     H 6010   5.293   9.322   7.308  0.4176  0.3228 -1.2079
   46MOL0     H 6011   5.162   9.063   7.364 -0.3214  0.8075  0.9932
   46MOL0     H 6012   5.091   9.223   7.332  0.4314 -0.1343 -1.2803
   46MOL0     H 6013   5.194   9.315   7.527  2.5206  0.1784 -0.2673
   46MOL0     H 6014   5.255   9.153   7.578 -2.4362 -0.7271  4.2168
   46MOL0     H 6015   5.048   9.055   7.594  3.4347 -0.4696 -2.7128
   46MOL0     H 6016   5.055   9.194   7.706  0.9765 -1.4275  0.2156
   46MOL0     H 6017   4.902   9.196   7.445  0.0994 -0.9397  0.4763
   46MOL0     H 6018   4.922   9.340   7.558 -0.2354  0.2278  2.6381
   46MOL0     H 6019   4.829   9.186   7.737 -0.0301 -0.5947 -0.3206
   46MOL0     H 6020   4.771   9.075   7.605  0.3175 -0.2409  0.3461
   46MOL0     H 6021   4.685   9.368   7.659 -2.6298  0.5455  0.3014
   46MOL0     H 6022   4.631   9.269   7.523  0.5275  1.1829  0.5440
   46MOL0     H 6023   4.621   9.136   7.794  1.8428 -0.3386 -1.6990
   46MOL0     H 6024   4.532   9.105   7.674  2.2001  0.0852  0.8409
   46MOL0     H 6025   4.592   9.391   7.905 -2.1960  0.2193  0.9827
   46MOL0     H 6026   4.285   9.620   7.929  0.7746  0.2653 -0.8320
   46MOL0     H 6027   4.436   9.606   7.999 -0.7552 -1.0910  2.3576
   46MOL0     H 6028   4.293   9.588   8.190 -0.1467  1.6720 -1.2213
   46MOL0     H 6029   4.387   9.451   8.157 -0.2131  0.2366  1.6715
   46MOL0     H 6030   4.176   9.322   8.065 -0.7643 -1.1621  0.8165
   46MOL0     H 6031   4.150   9.376   8.233  1.5217  1.9371  2.2474
   46MOL0     H 6032   4.038   9.436   7.979 -4.2371 -1.9712  0.0653
   46MOL0     H 6033   4.019   9.569   8.094 -0.8032  0.2637 -0.6496
   46MOL0     H 6034   3.822   9.587   7.978 -1.6947  1.7887 -0.4350
   46MOL0     H 6035   3.605   9.677   8.007  0.7267 -1.5433 -1.3653
   46MOL0     H 6036   3.162   9.505   8.438 -0.2190 -2.3186  0.0268
   46MOL0     H 6037   2.912   9.551   8.449  1.7656 -2.1183  1.3436
   46MOL0     H 6038   2.687   9.578   8.068  0.9426 -0.4689  1.0249
   46MOL0     H 6039   2.678   9.733   8.152  1.2425 -0.8398  2.2675
   46MOL0     H 6040   2.519   9.498   8.243 -2.0561  0.4823  1.8209
   46MOL0     H 6041   2.465   9.592   8.112  0.2897 -2.7843  0.4651
   46MOL0     H 6042   2.495   9.805   8.277 -0.6948 -0.3189 -1.0179
   46MOL0     H 6043   2.537   9.674   8.396  0.2072 -0.2995  0.2879
   46MOL0     H 6044   2.301   9.574   8.369  0.5517 -0.4179 -0.4148
   46MOL0     H 6045   2.308   9.736   8.438  1.1927  0.4963  0.0099
   46MOL0     H 6046   2.227   9.667   8.155  0.2683 -0.0086 -0.9469
   46MOL0     H 6047   2.242   9.841   8.217 -0.1696 -0.0783 -1.2294
   46MOL0     H 6048   2.072   9.631   8.334 -0.2957  0.0592  0.1269
   46MOL0     H 6049   2.018   9.719   8.194  1.1569 -1.2742 -0.7749
   46MOL0     H 6050   2.112   9.892   8.421  1.3758  0.0781 -1.6218
   46MOL0     H 6051   1.974   9.899   8.299  0.7317 -3.0354 -2.4674
   46MOL0     H 6052   1.869   9.706   8.419  0.6676  0.4013 -1.3165
   46MOL0     H 6053   1.854   9.856   8.506  0.6025 -0.8643  2.7171
   46MOL0     H 6054   2.903   9.626   8.034  3.8644  1.9959 -0.9418
   46MOL0     H 6055   3.148   9.614   8.022 -2.5990  1.1760  0.0660
   46MOL0     H 6056   3.508   9.378   8.296 -1.7301  0.1805 -1.4945
   46MOL0     H 6057   3.741   9.288   8.275 -0.1263 -0.3829  0.1750
   46MOL0     H 6058   5.603   9.119   7.536 -0.8846  1.7946  0.8588
   46MOL0     H 6059   5.843   9.134   7.479  2.4449 -0.9441 -2.1629
   46MOL0     H 6060   6.179   9.569   7.288  1.7352  1.2755 -0.8220
   46MOL0     H 6061   6.423   9.547   7.274 -0.7478  0.5552  1.7166
   46MOL0     H 6062   6.554   9.330   6.977 -0.9519  0.0341  0.3693
   46MOL0     H 6063   6.573   9.180   7.075  1.4253  0.1522  1.1643
   46MOL0     H 6064   6.773   9.225   6.959 -0.4915  0.4633 -1.1422
   46MOL0     H 6065   6.771   9.399   7.004 -2.5167  0.2331 -1.7314
   46MOL0     H 6066   6.808   9.171   7.205  1.7514  0.9643  2.4795
   46MOL0     H 6067   6.812   9.337   7.237 -1.6799  0.5853 -0.3962
   46MOL0     H 6068   7.040   9.247   7.231 -0.8175 -0.7612 -0.2517
   46MOL0     H 6069   7.019   9.214   7.057 -1.0224  0.2206 -0.8621
   46MOL0     H 6070   7.116   9.613   7.074  0.0729  0.8441  1.6111
   46MOL0     H 6071   6.383   9.138   7.161 -0.1818  0.0446 -1.5506
   46MOL0     H 6072   6.132   9.141   7.160  0.8274 -0.9128  2.9964
   47MOL0     O 6073   9.797   9.946   6.202 -0.2458  0.6131 -0.1218
   47MOL0     C 6074   9.867   9.839   6.187  0.3503 -0.0560 -0.6191
   47MOL0     O 6075   9.834   9.709   6.219  0.2627  0.0351  1.2092
   47MOL0     C 6076   9.722   9.672   6.284 -0.2927 -0.4828  0.0413
   47MOL0     C 6077   9.603   9.750   6.320 -0.8008  1.0380  0.7315
   47MOL0     C 6078   9.498   9.694   6.382 -0.1312 -0.5097  0.6162
   47MOL0     C 6079   9.495   9.556   6.421 -0.7078 -0.4886  0.1715
   47MOL0     O 6080   9.391   9.491   6.487 -0.3182  0.6171  0.4254
   47MOL0     C 6081   9.326   9.553   6.589 -0.3724  0.1538 -0.9635
   47MOL0     C 6082   9.263   9.445   6.679 -0.1997  1.5231  0.1754
   47MOL0     C 6083   9.368   9.362   6.750  0.4909 -0.3948 -1.1020
   47MOL0     C 6084   9.306   9.304   6.887 -0.1482  0.2637  0.3162
   47MOL0     C 6085   9.412   9.231   6.949 -0.1855 -0.1864 -0.1493
   47MOL0     C 6086   9.368   9.174   7.080 -0.6039  0.4152 -0.1456
   47MOL0     C 6087   9.310   9.270   7.177  0.7143  0.0390 -0.2816
   47MOL0     C 6088   9.399   9.380   7.217  0.4707 -0.6192 -0.2099
   47MOL0     N 6089   9.361   9.443   7.348 -0.3949 -0.2937 -0.3378
   47MOL0     C 6090   9.237   9.492   7.383 -0.5339  0.0206 -0.8017
   47MOL0     C 6091   9.254   9.549   7.504  0.7252  0.2102  0.8578
   47MOL0     C 6092   9.140   9.612   7.567  0.0653 -0.0728  0.8922
   47MOL0     C 6093   9.045   9.523   7.656 -0.4682  0.1288 -0.7111
   47MOL0     C 6094   8.926   9.610   7.704 -0.5666  0.7844 -0.5297
   47MOL0     C 6095   8.842   9.547   7.808 -0.5605 -1.4352  0.3488
   47MOL0     O 6096   8.781   9.428   7.753  0.3716 -0.1543  0.2484
   47MOL0     C 6097   8.654   9.431   7.693  0.2702  0.2766 -0.0392
   47MOL0     C 6098   8.573   9.542   7.675 -0.2450  0.1949  0.6840
   47MOL0     C 6099   8.451   9.531   7.597  0.4642 -1.0186 -0.2094
   47MOL0     C 6100   8.420   9.413   7.534  0.9393 -0.8582  0.3846
   47MOL0     C 6101   8.296   9.407   7.454  0.3943 -0.1253  0.1974
   47MOL0     O 6102   8.243   9.524   7.426  0.9391 -0.1942  1.1134
   47MOL0     C 6103   8.133   9.536   7.353  0.3604 -0.7134 -0.3588
   47MOL0     C 6104   8.005   9.572   7.408 -0.3885  0.8992  0.2966
   47MOL0     C 6105   7.898   9.596   7.329  0.2594 -0.6971  0.3352
   47MOL0     C 6106   7.908   9.596   7.193 -0.7206 -0.9959  0.7970
   47MOL0     O 6107   7.808   9.644   7.106  0.0650  0.4069  0.4898
   47MOL0     C 6108   7.670   9.600   7.144  0.3466 -0.4976  0.6598
   47MOL0     C 6109   7.593   9.728   7.201  0.5503  0.2013  0.7078
   47MOL0     C 6110   7.513   9.786   7.087  0.9709 -0.0973  0.0173
   47MOL0     C 6111   7.446   9.912   7.138  0.8893 -0.4471  0.3119
   47MOL0     C 6112   7.336   9.944   7.037  0.6393  0.2085 -0.1148
   47MOL0     C 6113   7.378   9.986   6.900  0.2308 -0.4399  0.2362
   47MOL0     C 6114   7.265  10.034   6.815  1.0256  0.0596 -0.4627
   47MOL0     C 6115   7.308  10.096   6.677 -0.5475  0.5639 -0.4200
   47MOL0    Cl 6116   7.152  10.166   6.601 -0.2388  0.2202 -0.2853
   47MOL0     C 6117   8.027   9.552   7.136  0.3011 -0.0479 -0.0773
   47MOL0     C 6118   8.145   9.533   7.211  0.4072  0.2714 -1.6419
   47MOL0     O 6119   8.243   9.299   7.440  0.1892  0.0424 -0.2373
   47MOL0     C 6120   8.495   9.296   7.559  0.5732 -0.2186 -0.0856
   47MOL0     C 6121   8.615   9.316   7.632  0.4850  0.7238 -0.3561
   47MOL0     N 6122   9.386   9.525   7.553  0.5467 -0.0967  0.0446
   47MOL0     N 6123   9.443   9.459   7.456 -0.1143 -0.5606 -1.0933
   47MOL0     C 6124   9.610   9.483   6.394 -0.2708 -0.0131 -0.3085
   47MOL0     C 6125   9.719   9.540   6.327 -0.6604  0.1167 -0.3875
   47MOL0     C 6126   9.997   9.864   6.115  0.0420  0.8247 -0.5818
   47MOL0     C 6127  10.092   9.758   6.103 -0.3303 -0.1682 -0.1833
   47MOL0     C 6128  10.223   9.797   6.063  0.4717  0.6175  0.1872
   47MOL0     C 6129  10.256   9.925   6.017 -0.6029 -0.3294 -1.2283
   47MOL0     O 6130  10.386   9.936   5.965  0.0978  0.2583 -0.4222
   47MOL0     C 6131  10.426  10.061   5.920 -0.7052  0.7960 -0.1399
   47MOL0     C 6132  10.500  10.154   6.022 -0.4085 -0.6695 -0.1251
   47MOL0     C 6133  10.644  10.091   6.059  0.4437  0.3400 -0.1950
   47MOL0     C 6134  10.639   9.989   6.178 -0.2078 -0.2072  0.2288
   47MOL0     C 6135  10.774   9.956   6.202 -0.1916 -0.2445  0.8719
   47MOL0     C 6136  10.889   9.915   6.203 -0.2421  0.1033 -0.0622
   47MOL0     C 6137  10.158  10.033   6.039  0.5358  0.7112 -1.0407
   47MOL0     C 6138  10.034   9.997   6.088  0.7616  0.0104  0.5274
   47MOL0     H 6139   9.592   9.852   6.283 -1.3652  0.6322 -0.2622
   47MOL0     H 6140   9.407   9.751   6.397 -0.2849 -0.7200  0.4797
   47MOL0     H 6141   9.254   9.630   6.559 -0.5448  1.0198  1.4209
   47MOL0     H 6142   9.397   9.610   6.650  0.0434  0.2266 -1.5130
   47MOL0     H 6143   9.208   9.374   6.617  2.6801  0.7897 -1.7448
   47MOL0     H 6144   9.187   9.486   6.748 -0.1966 -1.0738  1.8507
   47MOL0     H 6145   9.466   9.409   6.742  0.9283 -0.8369  1.1401
   47MOL0     H 6146   9.390   9.273   6.691  1.5080  0.2887 -1.7894
   47MOL0     H 6147   9.274   9.382   6.955 -2.5960 -0.7692  0.4425
   47MOL0     H 6148   9.215   9.247   6.868  0.7989 -1.1098 -0.3230
   47MOL0     H 6149   9.509   9.280   6.963  1.2863 -3.0825  0.5587
   47MOL0     H 6150   9.435   9.151   6.878  1.9471  0.7379 -0.5754
   47MOL0     H 6151   9.455   9.139   7.135 -0.9439  0.4733  0.4353
   47MOL0     H 6152   9.306   9.085   7.061 -1.4533  0.1176  3.3572
   47MOL0     H 6153   9.208   9.298   7.151  0.7507  0.7773  0.3424
   47MOL0     H 6154   9.288   9.216   7.269 -3.7899  1.5407 -0.2262
   47MOL0     H 6155   9.402   9.458   7.140  4.1868  2.4388  2.6299
   47MOL0     H 6156   9.502   9.347   7.234  0.3055 -0.6277  0.8062
   47MOL0     H 6157   9.140   9.469   7.341 -1.2036 -0.4635  0.9540
   47MOL0     H 6158   9.078   9.659   7.490 -1.3862 -2.6491  0.3637
   47MOL0     H 6159   9.176   9.701   7.620 -0.3479  1.3054 -1.0292
   47MOL0     H 6160   9.099   9.481   7.741 -2.7872  1.3622  1.4801
   47MOL0     H 6161   9.009   9.437   7.598  2.1352 -2.0566  0.7252
   47MOL0     H 6162   8.964   9.704   7.745 -2.7481  1.3886  0.2635
   47MOL0     H 6163   8.870   9.631   7.613  1.1868  0.1632 -1.7940
   47MOL0     H 6164   8.765   9.618   7.839  0.9107 -1.2128  4.0446
   47MOL0     H 6165   8.897   9.524   7.900 -0.2724 -0.5527  0.4006
   47MOL0     H 6166   8.597   9.637   7.720 -0.4768  0.0480  1.1157
   47MOL0     H 6167   8.397   9.624   7.586 -0.1245 -1.6380 -3.4528
   47MOL0     H 6168   8.002   9.579   7.516  3.0146 -4.5973  1.1318
   47MOL0     H 6169   7.820   9.640   7.390  2.7294 -0.0516  3.3132
   47MOL0     H 6170   7.681   9.521   7.219  0.9198 -0.1071  1.0031
   47MOL0     H 6171   7.618   9.562   7.056 -0.9914 -0.2669  1.3214
   47MOL0     H 6172   7.677   9.792   7.231 -0.3873  1.1719  1.3150
   47MOL0     H 6173   7.530   9.699   7.286  2.0195 -2.3228  1.0378
   47MOL0     H 6174   7.436   9.712   7.062  2.2201 -1.1874 -0.7166
   47MOL0     H 6175   7.578   9.809   7.002 -2.3622  2.0895 -2.1736
   47MOL0     H 6176   7.403   9.890   7.236 -0.7548  0.0760 -0.2638
   47MOL0     H 6177   7.516   9.993   7.163 -0.6894  0.3394  2.5191
   47MOL0     H 6178   7.275  10.022   7.082 -0.6439 -2.2419  2.7647
   47MOL0     H 6179   7.259   9.866   7.034 -0.3658  1.1563  0.4449
   47MOL0     H 6180   7.440   9.907   6.858  1.9915 -0.5389  2.7801
   47MOL0     H 6181   7.454  10.064   6.906 -0.1344 -0.1024  0.5356
   47MOL0     H 6182   7.195   9.951   6.803 -1.4585  1.4412  2.6746
   47MOL0     H 6183   7.205  10.105   6.875  0.8113 -1.6559  1.4631
   47MOL0     H 6184   7.344  10.012   6.618  2.5023  1.3005  0.2232
   47MOL0     H 6185   7.386  10.172   6.688 -0.5067  0.6904 -1.5068
   47MOL0     H 6186   8.023   9.534   7.029 -3.8415 -1.1882  0.0746
   47MOL0     H 6187   8.247   9.518   7.179  1.5051  2.4370  0.5264
   47MOL0     H 6188   8.477   9.194   7.527  0.1072  0.8883 -3.7774
   47MOL0     H 6189   8.676   9.227   7.648 -1.8275 -1.4149 -2.4352
   47MOL0     H 6190   9.611   9.382   6.432 -3.2909  0.1167  0.3916
   47MOL0     H 6191   9.802   9.477   6.301 -3.0812 -3.2846 -0.5458
   47MOL0     H 6192  10.078   9.654   6.132  0.6844 -0.5371 -0.9769
   47MOL0     H 6193  10.302   9.726   6.041  1.5979  1.4772  1.3588
   47MOL0     H 6194  10.339  10.113   5.878 -1.7739 -0.0390  0.9746
   47MOL0     H 6195  10.500  10.042   5.842  1.5542  2.4628  1.4230
   47MOL0     H 6196  10.524  10.253   5.980  2.2909 -1.3673 -0.4114
   47MOL0     H 6197  10.442  10.161   6.115  0.2861  0.1445  0.2530
   47MOL0     H 6198  10.714  10.172   6.082  0.7588  0.4202 -1.3751
   47MOL0     H 6199  10.681  10.029   5.977 -0.4915 -1.6115  0.7828
   47MOL0     H 6200  10.577  10.035   6.256 -2.0266 -0.8086 -0.7974
   47MOL0     H 6201  10.588   9.895   6.155 -2.2318  0.7977  0.3507
   47MOL0     H 6202  10.982   9.862   6.196  0.3630  1.0646  0.4274
   47MOL0     H 6203  10.165  10.140   6.026  1.5653  1.0408  1.6213
   47MOL0     H 6204   9.962  10.077   6.100 -0.7436 -0.7284 -2.4127
   48MOL0     O 6205   1.586  10.915   2.657  0.3567 -0.0694  0.5277
   48MOL0     C 6206   1.617  10.813   2.594  0.8194 -0.9333 -0.4532
   48MOL0     O 6207   1.537  10.742   2.510  0.9679 -0.2455  0.0242
   48MOL0     C 6208   1.401  10.744   2.510 -0.3758 -0.2271  0.6287
   48MOL0     C 6209   1.344  10.670   2.613  0.8044  0.3861 -0.6734
   48MOL0     C 6210   1.207  10.655   2.622  0.2248 -0.9882 -0.4334
   48MOL0     C 6211   1.126  10.724   2.522 -0.0618 -0.3133  0.7053
   48MOL0     O 6212   0.990  10.715   2.534  0.6634  0.2927  0.3749
   48MOL0     C 6213   0.905  10.699   2.417 -0.4864 -0.5411 -0.1692
   48MOL0     C 6214   0.755  10.670   2.465 -0.8827 -0.5948 -0.7140
   48MOL0     C 6215   0.672  10.663   2.347  0.5834  0.8118 -0.2052
   48MOL0     C 6216   0.525  10.655   2.397 -0.9276 -0.5649  0.8224
   48MOL0     C 6217   0.445  10.595   2.290  0.2370 -1.0346  0.6801
   48MOL0     C 6218   0.309  10.642   2.321 -0.4618 -0.2276 -0.1478
   48MOL0     C 6219   0.211  10.554   2.235 -0.8462 -1.0670 -1.3939
   48MOL0     C 6220   0.076  10.623   2.198 -0.2607  0.9241 -0.5556
   48MOL0     N 6221  -0.031  10.603   2.297 -0.1987 -0.7996  0.2339
   48MOL0     C 6222  -0.150  10.554   2.259  0.4121 -0.2770  0.5302
   48MOL0     C 6223  -0.227  10.557   2.370  0.0034  0.2327  0.5298
   48MOL0     C 6224  -0.345  10.479   2.401  0.2773  0.3069 -0.1509
   48MOL0     C 6225  -0.451  10.452   2.287  0.2804 -0.3089 -0.2484
   48MOL0     C 6226  -0.548  10.346   2.337  1.0388  0.8879  0.0370
   48MOL0     C 6227  -0.653  10.309   2.237 -0.9169  0.6347 -0.0989
   48MOL0     O 6228  -0.764  10.401   2.251  0.4851  0.3074  0.3519
   48MOL0     C 6229  -0.890  10.359   2.219 -0.5232 -1.1061 -0.9906
   48MOL0     C 6230  -0.926  10.247   2.146  0.5628  0.6403  0.5002
   48MOL0     C 6231  -1.057  10.214   2.132  0.6264 -0.3274  0.3502
   48MOL0     C 6232  -1.163  10.289   2.174  0.2129  0.5150 -0.6240
   48MOL0     C 6233  -1.301  10.247   2.145 -0.2384  0.3326 -0.1397
   48MOL0     O 6234  -1.400  10.311   2.220 -0.6429  0.5226  0.7802
   48MOL0     C 6235  -1.532  10.281   2.217  0.3097  0.0297  0.2994
   48MOL0     C 6236  -1.599  10.178   2.144 -0.6951  0.5303  0.5444
   48MOL0     C 6237  -1.731  10.153   2.153  0.2559  0.7546 -0.3063
   48MOL0     C 6238  -1.812  10.236   2.216 -1.0848 -0.4095  0.3292
   48MOL0     O 6239  -1.950  10.231   2.213 -0.1702  0.4360 -0.4542
   48MOL0     C 6240  -2.007  10.097   2.174  0.7597 -0.3450 -0.0899
   48MOL0     C 6241  -2.163  10.098   2.191  0.2291  0.2242 -0.1585
   48MOL0     C 6242  -2.223   9.988   2.109  0.2656  0.6999 -0.0501
   48MOL0     C 6243  -2.230  10.032   1.965 -0.4813 -0.5500 -0.3404
   48MOL0     C 6244  -2.335   9.971   1.883 -0.8039  0.2381 -0.9129
   48MOL0     C 6245  -2.330  10.015   1.739 -0.2948  0.1756  0.2443
   48MOL0     C 6246  -2.441   9.949   1.654  0.2055  1.0055  0.7619
   48MOL0     C 6247  -2.429   9.983   1.503 -0.2508  0.4020 -0.6289
   48MOL0    Cl 6248  -2.317   9.860   1.435 -0.0274 -0.0384 -0.3701
   48MOL0     C 6249  -1.756  10.331   2.303 -0.0050  1.1266  0.1440
   48MOL0     C 6250  -1.615  10.354   2.309 -0.5102 -1.0929 -0.9682
   48MOL0     O 6251  -1.315  10.165   2.051  0.6523 -0.1334  0.1674
   48MOL0     C 6252  -1.117  10.399   2.246 -0.2544  0.0692  0.3953
   48MOL0     C 6253  -0.989  10.441   2.270  0.7136 -0.3432  0.5548
   48MOL0     N 6254  -0.151  10.622   2.469 -1.1332  0.4555 -0.0095
   48MOL0     N 6255  -0.034  10.652   2.425  0.0168  0.0790  0.3292
   48MOL0     C 6256   1.187  10.792   2.415 -0.1897  0.1230  0.2959
   48MOL0     C 6257   1.327  10.796   2.407  0.7281 -0.5751  0.2219
   48MOL0     C 6258   1.754  10.766   2.610  0.9397 -0.4622 -0.1885
   48MOL0     C 6259   1.840  10.808   2.719 -0.0472  0.0149  1.6942
   48MOL0     C 6260   1.967  10.750   2.722 -0.4253  0.7551  0.5250
   48MOL0     C 6261   2.021  10.669   2.616  0.6883  0.6944  0.0539
   48MOL0     O 6262   2.150  10.635   2.606  0.2271  0.2293  0.0152
   48MOL0     C 6263   2.207  10.575   2.720 -0.4547  0.3337  0.7661
   48MOL0     C 6264   2.273  10.443   2.696  0.0699  0.3279  0.6011
   48MOL0     C 6265   2.183  10.351   2.602  0.0720  0.0014  0.6212
   48MOL0     C 6266   2.234  10.207   2.581 -0.2104  0.3103  0.4373
   48MOL0     C 6267   2.370  10.202   2.510 -0.1419  0.4485 -0.4195
   48MOL0     C 6268   2.480  10.212   2.457 -0.2487  0.1901  0.2101
   48MOL0     C 6269   1.937  10.620   2.525  0.2719 -0.0195  0.2195
   48MOL0     C 6270   1.802  10.669   2.522 -0.0788  0.5252  0.8871
   48MOL0     H 6271   1.406  10.621   2.687 -1.5801  3.2434  3.5977
   48MOL0     H 6272   1.153  10.604   2.700 -0.1809  0.5971  0.3639
   48MOL0     H 6273   0.940  10.610   2.364  0.2842 -1.8044  2.3119
   48MOL0     H 6274   0.901  10.792   2.359  2.0106  0.0915  0.5639
   48MOL0     H 6275   0.725  10.757   2.523  1.4438 -0.0554 -0.1959
   48MOL0     H 6276   0.765  10.571   2.511 -1.3950 -0.0925  0.5027
   48MOL0     H 6277   0.699  10.582   2.278 -2.1389  0.1810 -0.6818
   48MOL0     H 6278   0.674  10.749   2.280 -0.8760 -1.8418 -4.0104
   48MOL0     H 6279   0.518  10.590   2.484  2.8889 -0.8125  1.1500
   48MOL0     H 6280   0.490  10.754   2.429 -0.3834  0.0991 -0.5075
   48MOL0     H 6281   0.457  10.487   2.285  0.7548 -1.0175  1.5346
   48MOL0     H 6282   0.476  10.627   2.190  0.4868 -0.7259  0.8573
   48MOL0     H 6283   0.307  10.748   2.291  0.9919 -0.0875  0.1655
   48MOL0     H 6284   0.283  10.646   2.428 -4.2750 -2.4348 -0.8034
   48MOL0     H 6285   0.250  10.515   2.140  0.0489 -1.8222 -0.7449
   48MOL0     H 6286   0.204  10.464   2.297  3.4671  1.5497  3.7169
   48MOL0     H 6287   0.049  10.578   2.102 -0.7066 -1.0945  0.4529
   48MOL0     H 6288   0.090  10.726   2.165  0.4325  1.1087  0.2839
   48MOL0     H 6289  -0.174  10.510   2.163  1.6719 -0.1908  0.1585
   48MOL0     H 6290  -0.410  10.512   2.483 -0.5929 -0.9058 -0.3236
   48MOL0     H 6291  -0.306  10.381   2.430  2.1647  0.2549 -2.6011
   48MOL0     H 6292  -0.395  10.403   2.207 -0.2467 -1.4317  0.0516
   48MOL0     H 6293  -0.505  10.540   2.251 -1.3665 -0.2787  2.0597
   48MOL0     H 6294  -0.475  10.264   2.346  2.5040  2.0517 -0.7442
   48MOL0     H 6295  -0.595  10.370   2.432  2.0977  1.3896  0.4588
   48MOL0     H 6296  -0.685  10.205   2.244  1.3469 -0.3087 -2.3308
   48MOL0     H 6297  -0.595  10.314   2.145  2.8280  1.7345  2.1271
   48MOL0     H 6298  -0.855  10.181   2.097  1.6983  1.7510  0.5785
   48MOL0     H 6299  -1.072  10.127   2.069 -0.1573  1.5193 -2.2528
   48MOL0     H 6300  -1.543  10.099   2.095 -1.8825  1.6444 -2.8984
   48MOL0     H 6301  -1.766  10.073   2.089  2.4481 -0.1118 -0.5118
   48MOL0     H 6302  -1.967  10.023   2.244 -0.5227  0.7649  1.9255
   48MOL0     H 6303  -1.977  10.088   2.069  1.9410 -1.4307  0.3116
   48MOL0     H 6304  -2.205  10.191   2.152  1.0190  0.7409  0.1920
   48MOL0     H 6305  -2.184  10.089   2.298 -1.4779 -0.1658 -0.5020
   48MOL0     H 6306  -2.327   9.977   2.141 -0.6387  2.0977 -2.2114
   48MOL0     H 6307  -2.163   9.899   2.127  0.5877  0.8817 -0.2007
   48MOL0     H 6308  -2.232  10.142   1.959  1.0594 -0.4942 -0.3391
   48MOL0     H 6309  -2.131  10.016   1.922 -0.5710 -0.9130 -0.4091
   48MOL0     H 6310  -2.428  10.006   1.929 -0.3279  1.4547 -0.8244
   48MOL0     H 6311  -2.328   9.862   1.885  1.8474  0.3472  0.9616
   48MOL0     H 6312  -2.236   9.978   1.697 -0.0649 -0.0278  0.9234
   48MOL0     H 6313  -2.334  10.124   1.741 -2.0504  0.1708 -0.8095
   48MOL0     H 6314  -2.427   9.841   1.661  0.6521  1.0624  0.8092
   48MOL0     H 6315  -2.533   9.989   1.697  1.5169  1.2500  3.6293
   48MOL0     H 6316  -2.383  10.081   1.489 -1.3630  1.5328  2.6927
   48MOL0     H 6317  -2.522   9.964   1.448  0.7718 -3.0927 -1.4112
   48MOL0     H 6318  -1.835  10.378   2.361 -0.4129 -1.2056  1.5951
   48MOL0     H 6319  -1.573  10.436   2.367  0.9894 -0.0183 -3.4170
   48MOL0     H 6320  -1.187  10.458   2.304 -1.8339  0.3091 -1.6218
   48MOL0     H 6321  -0.961  10.520   2.339  0.8632 -0.2654  0.4063
   48MOL0     H 6322   1.124  10.836   2.338 -0.2599 -0.6396 -0.0955
   48MOL0     H 6323   1.386  10.828   2.322  2.4580  0.3501  1.7199
   48MOL0     H 6324   1.806  10.872   2.800 -2.9896 -0.8532  1.2796
   48MOL0     H 6325   2.042  10.764   2.799 -1.1277  0.0174  1.3801
   48MOL0     H 6326   2.139  10.554   2.803 -0.1083  0.5272  1.1041
   48MOL0     H 6327   2.280  10.646   2.760 -0.0817  1.1508 -1.2590
   48MOL0     H 6328   2.372  10.457   2.652  0.2851 -1.3395  0.5144
   48MOL0     H 6329   2.280  10.392   2.792  0.2792  0.0449  0.4388
   48MOL0     H 6330   2.174  10.405   2.507 -1.3309  0.2186  0.8584
   48MOL0     H 6331   2.087  10.341   2.653 -1.3217 -0.3328 -1.9305
   48MOL0     H 6332   2.247  10.160   2.679 -3.9101  0.8171  1.3051
   48MOL0     H 6333   2.160  10.148   2.526  2.3666 -0.8594 -2.0024
   48MOL0     H 6334   2.579  10.219   2.416 -1.2098 -1.6300 -2.8081
   48MOL0     H 6335   1.973  10.544   2.456  0.2226  1.0328 -1.0027
   48MOL0     H 6336   1.724  10.626   2.460  1.4056 -0.4604 -0.3509
   49MOL0     O 6337   9.548   9.205   3.218 -0.1471  0.7055  0.4769
   49MOL0     C 6338   9.664   9.233   3.233 -0.2216  0.3763 -0.6007
   49MOL0     O 6339   9.751   9.152   3.302  0.1934 -0.2002 -0.8575
   49MOL0     C 6340   9.711   9.021   3.319 -0.2554  0.2486  0.9237
   49MOL0     C 6341   9.676   8.940   3.206 -0.4189 -0.0187 -0.4861
   49MOL0     C 6342   9.670   8.796   3.220  0.0182  0.1852 -0.5581
   49MOL0     C 6343   9.683   8.738   3.349  0.3033 -0.0010  0.4593
   49MOL0     O 6344   9.716   8.610   3.368  0.4212 -0.1421 -0.2620
   49MOL0     C 6345   9.677   8.517   3.267  0.6085 -0.5086  0.0107
   49MOL0     C 6346   9.677   8.377   3.319  0.0234 -0.8620  0.8557
   49MOL0     C 6347   9.572   8.346   3.420 -0.4907 -0.2047 -0.8005
   49MOL0     C 6348   9.602   8.224   3.503 -0.0822  0.8354 -0.7607
   49MOL0     C 6349   9.495   8.194   3.610 -0.0714  0.0732 -0.0824
   49MOL0     C 6350   9.447   8.326   3.685 -0.3390 -0.6369 -0.4152
   49MOL0     C 6351   9.360   8.300   3.812 -1.1557  0.0640  0.1470
   49MOL0     C 6352   9.445   8.270   3.939  0.5965  0.5856  0.3064
   49MOL0     N 6353   9.499   8.136   3.939 -0.0749 -0.6841 -0.2193
   49MOL0     C 6354   9.437   8.015   3.927 -0.3991 -0.2266 -0.2229
   49MOL0     C 6355   9.535   7.919   3.924  0.6523 -0.8124  0.2041
   49MOL0     C 6356   9.498   7.780   3.896 -1.1534  0.2243  0.8733
   49MOL0     C 6357   9.429   7.727   4.015 -1.3511  0.6278 -0.4634
   49MOL0     C 6358   9.373   7.594   3.973 -0.9427  0.3735 -0.3903
   49MOL0     C 6359   9.220   7.602   3.993 -0.0428  0.0746 -0.4894
   49MOL0     O 6360   9.154   7.706   3.926  0.0485 -0.3685 -0.1500
   49MOL0     C 6361   9.013   7.702   3.921  0.4264 -0.2058 -0.2520
   49MOL0     C 6362   8.951   7.769   3.813 -0.7721  0.5168 -0.3242
   49MOL0     C 6363   8.816   7.749   3.791  0.2222 -0.0016 -0.2577
   49MOL0     C 6364   8.734   7.675   3.881 -0.2920 -0.1448 -1.3090
   49MOL0     C 6365   8.597   7.644   3.863 -0.0534 -0.3677  0.1103
   49MOL0     O 6366   8.531   7.573   3.956 -0.3024  0.0945  0.8151
   49MOL0     C 6367   8.397   7.591   3.965  0.3356  0.1184 -0.2113
   49MOL0     C 6368   8.343   7.669   4.064  0.5187 -0.4073 -0.2138
   49MOL0     C 6369   8.210   7.684   4.081 -0.0592  0.3222  0.0452
   49MOL0     C 6370   8.120   7.612   4.007 -0.8034  0.3438  0.6547
   49MOL0     O 6371   7.988   7.644   4.009  0.4349  0.9271 -0.0496
   49MOL0     C 6372   7.920   7.623   4.138 -0.3618 -0.9366  0.0442
   49MOL0     C 6373   7.842   7.490   4.138  0.0264 -0.8833  0.5753
   49MOL0     C 6374   7.720   7.489   4.050  1.1456 -0.8581  0.1091
   49MOL0     C 6375   7.610   7.552   4.124 -0.0916  0.5843 -0.5328
   49MOL0     C 6376   7.472   7.551   4.057  0.6609  0.0636 -1.7244
   49MOL0     C 6377   7.399   7.410   4.049  0.1400 -0.7998 -0.6367
   49MOL0     C 6378   7.284   7.433   3.943 -0.2178 -0.3660 -0.6208
   49MOL0     C 6379   7.192   7.554   3.974 -0.9403  0.6391  0.0577
   49MOL0    Cl 6380   7.123   7.549   4.141  0.0040 -0.0076 -0.0817
   49MOL0     C 6381   8.168   7.526   3.912 -0.1012  0.7716  0.0819
   49MOL0     C 6382   8.305   7.518   3.888 -0.3454  0.6181 -0.2991
   49MOL0     O 6383   8.547   7.680   3.756 -0.3416  0.6596 -1.0882
   49MOL0     C 6384   8.800   7.610   3.985 -0.7132 -0.1007 -1.0610
   49MOL0     C 6385   8.936   7.617   4.005 -0.1611 -0.2537 -0.6357
   49MOL0     N 6386   9.655   7.984   3.925  0.3761  0.5205 -0.2037
   49MOL0     N 6387   9.635   8.110   3.945  0.0861 -0.3508  0.2899
   49MOL0     C 6388   9.702   8.813   3.459  0.1886  0.2878  0.5563
   49MOL0     C 6389   9.712   8.952   3.442 -0.2124 -0.5869 -0.2199
   49MOL0     C 6390   9.700   9.372   3.188  0.8541 -0.6833  0.3624
   49MOL0     C 6391   9.829   9.410   3.192 -0.9260 -1.2472  0.5330
   49MOL0     C 6392   9.871   9.542   3.160 -0.5097 -0.2600 -0.6168
   49MOL0     C 6393   9.777   9.644   3.122  0.5758  0.5636  0.2037
   49MOL0     O 6394   9.800   9.776   3.102  0.3326 -0.3951  0.6581
   49MOL0     C 6395   9.925   9.835   3.140  0.0917  0.7578  0.0992
   49MOL0     C 6396   9.923   9.991   3.113 -1.0354 -0.0988 -0.4255
   49MOL0     C 6397   9.817  10.064   3.194 -0.6112 -0.2673 -0.1048
   49MOL0     C 6398   9.822  10.211   3.187  0.7548 -0.0050  0.2458
   49MOL0     C 6399   9.837  10.280   3.315 -0.7342  0.0008 -0.4393
   49MOL0     C 6400   9.835  10.327   3.424 -0.6309  0.0715  0.8443
   49MOL0     C 6401   9.644   9.602   3.113  0.5593 -0.6496  0.0570
   49MOL0     C 6402   9.606   9.465   3.148 -0.7438  0.5079 -0.3665
   49MOL0     H 6403   9.670   8.993   3.111  3.2724 -1.1123 -1.5014
   49MOL0     H 6404   9.667   8.724   3.139  5.0165 -1.6859  0.5281
   49MOL0     H 6405   9.750   8.519   3.186 -0.5870  0.6119 -1.0981
   49MOL0     H 6406   9.574   8.539   3.236  0.9700 -2.0604 -2.5397
   49MOL0     H 6407   9.769   8.341   3.365 -1.1107 -2.1593  2.2387
   49MOL0     H 6408   9.654   8.314   3.233 -2.5866  1.0279  0.0341
   49MOL0     H 6409   9.475   8.340   3.368 -1.0204  4.2792 -0.7283
   49MOL0     H 6410   9.569   8.430   3.489  0.2471 -0.9830  0.2019
   49MOL0     H 6411   9.626   8.140   3.437 -2.7538  0.0726 -0.8377
   49MOL0     H 6412   9.699   8.235   3.554 -0.1650  1.7646 -0.7861
   49MOL0     H 6413   9.550   8.134   3.684  0.0016 -0.4597 -0.5659
   49MOL0     H 6414   9.416   8.133   3.566 -1.5010 -0.0468  2.4595
   49MOL0     H 6415   9.408   8.401   3.616  1.2577  0.3457 -0.3117
   49MOL0     H 6416   9.536   8.373   3.729 -1.7229  1.7769  0.0041
   49MOL0     H 6417   9.311   8.396   3.830  1.3500  1.3523  0.4722
   49MOL0     H 6418   9.284   8.222   3.803  0.6323 -2.0164  1.8176
   49MOL0     H 6419   9.378   8.281   4.025 -1.6064  1.0023 -1.3694
   49MOL0     H 6420   9.526   8.342   3.950 -1.3383  2.9417  0.0551
   49MOL0     H 6421   9.333   7.989   3.912 -0.0242 -3.7132  2.0992
   49MOL0     H 6422   9.583   7.714   3.877 -0.8147  1.2885 -1.6253
   49MOL0     H 6423   9.431   7.784   3.810  1.2441 -1.6590 -1.2283
   49MOL0     H 6424   9.343   7.789   4.042 -2.0446 -0.9244  1.1264
   49MOL0     H 6425   9.492   7.723   4.104 -0.7395 -2.1496 -0.9366
   49MOL0     H 6426   9.400   7.578   3.869  3.9719 -1.3642  0.8867
   49MOL0     H 6427   9.415   7.515   4.035 -2.0854  0.4676  0.5637
   49MOL0     H 6428   9.192   7.619   4.098 -4.0800 -1.7215 -1.0857
   49MOL0     H 6429   9.178   7.503   3.974  0.8511 -0.5581  0.7256
   49MOL0     H 6430   9.016   7.811   3.737  0.0532  0.2184  0.2002
   49MOL0     H 6431   8.763   7.800   3.710  0.8140 -0.7831 -1.1574
   49MOL0     H 6432   8.408   7.719   4.136 -2.3925  1.9896  0.9876
   49MOL0     H 6433   8.173   7.757   4.153  3.7801  2.5617  0.0482
   49MOL0     H 6434   7.843   7.701   4.149 -0.7574 -0.6686 -3.3557
   49MOL0     H 6435   7.989   7.628   4.222 -0.0820  2.1652 -0.2379
   49MOL0     H 6436   7.818   7.454   4.238 -0.5001 -0.2316  0.6927
   49MOL0     H 6437   7.907   7.412   4.096 -1.6914 -1.9024 -0.3092
   49MOL0     H 6438   7.688   7.385   4.045 -1.6009 -0.0445 -1.5231
   49MOL0     H 6439   7.721   7.539   3.953 -0.7985 -1.1790 -0.1099
   49MOL0     H 6440   7.607   7.508   4.224 -3.1717  3.2391  0.7184
   49MOL0     H 6441   7.622   7.660   4.139  1.4838  0.0817  2.6197
   49MOL0     H 6442   7.484   7.604   3.962  1.3022 -1.5861 -2.5905
   49MOL0     H 6443   7.410   7.605   4.130  1.0590 -1.6917 -0.0160
   49MOL0     H 6444   7.369   7.385   4.151 -0.1313  1.3249 -0.1477
   49MOL0     H 6445   7.463   7.329   4.014  0.3454 -0.0431 -2.1355
   49MOL0     H 6446   7.332   7.445   3.845  1.5709  0.5715  0.3272
   49MOL0     H 6447   7.234   7.338   3.924  1.3833 -1.3245 -0.1865
   49MOL0     H 6448   7.114   7.558   3.896  0.6294  1.0136 -1.5614
   49MOL0     H 6449   7.249   7.647   3.968  1.0651 -0.4131  1.8339
   49MOL0     H 6450   8.092   7.470   3.857 -0.5614 -1.1149  2.4633
   49MOL0     H 6451   8.354   7.465   3.807  1.2306  0.4467  0.7149
   49MOL0     H 6452   8.744   7.557   4.061 -0.0672 -0.8531 -1.0985
   49MOL0     H 6453   8.966   7.561   4.093 -1.9440 -1.9898 -1.0596
   49MOL0     H 6454   9.715   8.755   3.550  2.6238  0.8818  0.6757
   49MOL0     H 6455   9.735   9.019   3.525 -0.5821 -0.9932  0.2191
   49MOL0     H 6456   9.895   9.326   3.214 -0.3565 -1.7517 -2.5429
   49MOL0     H 6457   9.973   9.579   3.163 -0.6257  0.0034  1.5609
   49MOL0     H 6458  10.003   9.784   3.082 -1.3876  0.4371 -1.6816
   49MOL0     H 6459   9.946   9.820   3.247 -0.4025  1.5386  0.3137
   49MOL0     H 6460  10.024  10.020   3.143 -1.8552  1.2624  1.2366
   49MOL0     H 6461   9.914  10.014   3.007  0.6587 -3.0663 -1.3235
   49MOL0     H 6462   9.822  10.033   3.299  3.7555 -0.4710 -0.1976
   49MOL0     H 6463   9.721  10.036   3.149 -0.9724  2.8860 -1.6024
   49MOL0     H 6464   9.895  10.246   3.114 -1.3857  0.5913 -1.7324
   49MOL0     H 6465   9.725  10.242   3.148 -0.4883 -0.0719  3.0305
   49MOL0     H 6466   9.829  10.389   3.511 -0.4757  0.3043  0.6904
   49MOL0     H 6467   9.568   9.673   3.080  1.6524  0.3658 -0.3505
   49MOL0     H 6468   9.503   9.431   3.138 -0.1734 -0.5917 -3.3705
   50MOL0     O 6469   7.815   8.184   3.246  0.3737 -0.6890  0.1280
   50MOL0     C 6470   7.863   8.106   3.160  0.2878 -0.3381  0.4800
   50MOL0     O 6471   7.792   8.029   3.077  0.1799  0.3217  1.2346
   50MOL0     C 6472   7.655   8.045   3.075  0.0854  0.1436 -0.4022
   50MOL0     C 6473   7.570   7.934   3.096  0.3149  0.3706 -0.7649
   50MOL0     C 6474   7.434   7.955   3.087  0.0612 -0.1535  1.0238
   50MOL0     C 6475   7.386   8.078   3.041  0.2022  0.6490  0.5749
   50MOL0     O 6476   7.243   8.085   3.034 -0.3233 -0.3127  0.3161
   50MOL0     C 6477   7.192   8.186   2.944  0.0857  0.0736 -0.5806
   50MOL0     C 6478   7.045   8.152   2.900 -0.1195  0.2537  0.5749
   50MOL0     C 6479   6.953   8.143   3.016 -0.0272 -0.2422  1.7548
   50MOL0     C 6480   6.812   8.099   2.966  0.3713  0.6785  0.1234
   50MOL0     C 6481   6.731   8.046   3.091 -0.2217 -0.0114 -0.3268
   50MOL0     C 6482   6.690   8.159   3.178  0.0794  0.2919  0.1156
   50MOL0     C 6483   6.583   8.114   3.273 -1.2011  0.0036 -0.1697
   50MOL0     C 6484   6.526   8.242   3.340 -0.3082 -0.0072 -0.4343
   50MOL0     N 6485   6.630   8.326   3.394 -0.4607 -0.1218  0.1421
   50MOL0     C 6486   6.736   8.293   3.476 -0.2449 -0.1299 -0.2511
   50MOL0     C 6487   6.804   8.411   3.493  0.6472 -0.1147  0.8830
   50MOL0     C 6488   6.945   8.437   3.547 -0.1729  0.3948 -0.0889
   50MOL0     C 6489   6.966   8.385   3.689 -0.9604 -0.3394 -0.2307
   50MOL0     C 6490   6.927   8.495   3.793  0.4391  0.1718 -0.0336
   50MOL0     C 6491   6.988   8.467   3.931 -0.4612  0.2067  0.1813
   50MOL0     O 6492   6.939   8.346   3.992  0.6412  0.0672  0.5788
   50MOL0     C 6493   6.824   8.354   4.067 -1.1712 -0.9425  0.4765
   50MOL0     C 6494   6.752   8.474   4.084 -0.7258  0.6887  0.3143
   50MOL0     C 6495   6.635   8.476   4.160  0.3205 -0.6466 -0.3065
   50MOL0     C 6496   6.596   8.369   4.235  0.0086  0.0277 -0.3957
   50MOL0     C 6497   6.477   8.376   4.327  0.3093  1.7500  0.3048
   50MOL0     O 6498   6.419   8.496   4.350 -0.2552  0.0706  0.2244
   50MOL0     C 6499   6.307   8.514   4.426 -0.6264  0.2521 -0.0228
   50MOL0     C 6500   6.290   8.642   4.496 -0.3161 -0.4048  0.8611
   50MOL0     C 6501   6.174   8.684   4.559 -0.5618 -0.0241  0.3232
   50MOL0     C 6502   6.073   8.589   4.576 -0.6394 -0.6136 -0.8480
   50MOL0     O 6503   5.950   8.605   4.632 -0.6637 -0.3995  0.3936
   50MOL0     C 6504   5.949   8.708   4.735  1.0145 -0.0564  0.1654
   50MOL0     C 6505   5.803   8.732   4.777 -0.0833 -0.5966 -0.1418
   50MOL0     C 6506   5.756   8.616   4.870  0.0015 -0.2145  0.5171
   50MOL0     C 6507   5.621   8.647   4.947 -1.0798  0.2652  0.6638
   50MOL0     C 6508   5.571   8.523   5.028  0.5093  0.2079  0.2908
   50MOL0     C 6509   5.459   8.561   5.125 -0.3661 -0.0755 -0.3920
   50MOL0     C 6510   5.424   8.447   5.215  1.2719  1.4454 -0.1248
   50MOL0     C 6511   5.537   8.382   5.305 -0.1831 -0.2421 -0.7576
   50MOL0    Cl 6512   5.473   8.227   5.373 -0.3089  0.1984 -0.0937
   50MOL0     C 6513   6.092   8.461   4.518  0.3864 -0.2349 -0.0631
   50MOL0     C 6514   6.198   8.427   4.445  0.2273  0.1033  0.0783
   50MOL0     O 6515   6.436   8.266   4.376 -0.2537  0.5329 -0.4182
   50MOL0     C 6516   6.669   8.249   4.220  0.4288  1.0729  0.5531
   50MOL0     C 6517   6.782   8.244   4.140 -0.0877 -0.8887  0.1396
   50MOL0     N 6518   6.747   8.509   3.411  0.6258  0.2437 -0.4803
   50MOL0     N 6519   6.648   8.455   3.351  0.5979 -0.4726  0.3980
   50MOL0     C 6520   7.475   8.183   3.009 -0.5602 -0.8865  0.2462
   50MOL0     C 6521   7.607   8.172   3.033 -0.0159  0.8611  1.0658
   50MOL0     C 6522   8.007   8.116   3.153 -0.4139 -0.4097 -0.0032
   50MOL0     C 6523   8.086   8.176   3.250  0.0470  0.2702  0.0290
   50MOL0     C 6524   8.228   8.183   3.229  1.0358  0.5166 -0.4545
   50MOL0     C 6525   8.282   8.144   3.113 -0.8265  0.1891  0.7457
   50MOL0     O 6526   8.409   8.157   3.062  0.8759  0.0210 -0.1312
   50MOL0     C 6527   8.518   8.191   3.150  0.4690  0.3220  0.9750
   50MOL0     C 6528   8.634   8.243   3.071 -0.2353  0.2949  0.5569
   50MOL0     C 6529   8.748   8.277   3.166 -0.8908 -0.3953 -0.4180
   50MOL0     C 6530   8.886   8.273   3.092 -0.5464 -0.8504 -0.4353
   50MOL0     C 6531   8.895   8.386   3.000  0.5788 -0.7162 -0.4801
   50MOL0     C 6532   8.910   8.487   2.929  0.3721  0.4502 -0.0826
   50MOL0     C 6533   8.203   8.075   3.018 -0.3296 -0.2473 -0.1541
   50MOL0     C 6534   8.071   8.057   3.043  0.7383 -0.2638 -0.4985
   50MOL0     H 6535   7.618   7.842   3.126  0.3094 -0.3049 -2.6966
   50MOL0     H 6536   7.379   7.864   3.105  1.5220 -1.0678  1.0453
   50MOL0     H 6537   7.257   8.183   2.856  4.2936 -2.5363  2.3030
   50MOL0     H 6538   7.194   8.285   2.990 -0.4779 -0.3155  0.3026
   50MOL0     H 6539   7.044   8.052   2.856  0.1047  0.9289 -1.0274
   50MOL0     H 6540   7.008   8.219   2.822  2.1516 -0.4959 -1.2582
   50MOL0     H 6541   6.934   8.243   3.056  0.8916  0.2371  1.0280
   50MOL0     H 6542   6.992   8.072   3.090  0.6183  1.2056  2.8578
   50MOL0     H 6543   6.755   8.182   2.924 -2.0445  0.4816  2.6924
   50MOL0     H 6544   6.819   8.023   2.888 -0.1437  2.3421 -1.6227
   50MOL0     H 6545   6.784   7.966   3.145  0.9083  2.1611  2.0030
   50MOL0     H 6546   6.633   8.004   3.070 -1.9595  1.9463  3.0605
   50MOL0     H 6547   6.641   8.234   3.114  2.2455  0.9493 -0.8672
   50MOL0     H 6548   6.781   8.194   3.227  0.2339 -0.1829  0.1678
   50MOL0     H 6549   6.505   8.062   3.218 -0.4114 -2.4485  0.8729
   50MOL0     H 6550   6.620   8.051   3.354 -0.2746  0.9653  0.1849
   50MOL0     H 6551   6.446   8.221   3.411  1.0191  0.7197  1.3609
   50MOL0     H 6552   6.479   8.308   3.266 -1.0626  0.2237  0.2390
   50MOL0     H 6553   6.767   8.196   3.513 -1.5647 -0.2414  0.6491
   50MOL0     H 6554   6.969   8.542   3.565  1.4344 -0.0300  0.3857
   50MOL0     H 6555   7.023   8.387   3.489 -0.1748  0.3690 -0.0688
   50MOL0     H 6556   7.072   8.356   3.691 -1.3495 -1.9902 -1.3628
   50MOL0     H 6557   6.911   8.291   3.702  0.9832 -1.4100  0.7122
   50MOL0     H 6558   6.962   8.594   3.765 -2.9582  1.7992  0.9377
   50MOL0     H 6559   6.819   8.492   3.811  0.3791  2.3371  0.2258
   50MOL0     H 6560   6.978   8.548   4.004  2.2519  1.5051 -0.7392
   50MOL0     H 6561   7.096   8.455   3.915 -0.5566 -3.3711  1.4092
   50MOL0     H 6562   6.771   8.555   4.014  1.3238 -0.8733 -1.0461
   50MOL0     H 6563   6.574   8.565   4.175 -0.7486 -0.6302 -3.9094
   50MOL0     H 6564   6.370   8.713   4.475  0.0756 -1.7375 -2.9493
   50MOL0     H 6565   6.159   8.789   4.581 -0.8302  0.1377 -0.5995
   50MOL0     H 6566   5.994   8.803   4.705 -0.7865  1.2532  1.3941
   50MOL0     H 6567   6.017   8.665   4.809 -0.1600 -2.8014 -0.2380
   50MOL0     H 6568   5.737   8.749   4.692  0.8336  1.5024 -0.5049
   50MOL0     H 6569   5.797   8.823   4.838 -1.9359  0.0240 -1.1644
   50MOL0     H 6570   5.833   8.600   4.946 -0.2711 -1.5294  0.5480
   50MOL0     H 6571   5.740   8.524   4.813 -2.1814  0.4893 -0.1269
   50MOL0     H 6572   5.632   8.738   5.006 -0.3618  0.5962  0.0368
   50MOL0     H 6573   5.547   8.668   4.870  1.7191 -0.7239 -2.5176
   50MOL0     H 6574   5.656   8.495   5.091  1.1850 -0.7828 -1.0030
   50MOL0     H 6575   5.536   8.444   4.960  0.0568  0.8162 -0.1988
   50MOL0     H 6576   5.375   8.594   5.064 -1.9993  1.7380  2.5629
   50MOL0     H 6577   5.496   8.647   5.183  1.0741  0.6094 -2.2290
   50MOL0     H 6578   5.343   8.479   5.281  0.8318 -0.2776  0.2229
   50MOL0     H 6579   5.404   8.361   5.150 -1.1624  2.0557 -0.2773
   50MOL0     H 6580   5.573   8.441   5.390 -0.6218 -1.7661  0.5353
   50MOL0     H 6581   5.617   8.352   5.238  2.9299 -3.1907  3.7154
   50MOL0     H 6582   6.013   8.387   4.526 -0.4214  0.5238 -0.8113
   50MOL0     H 6583   6.203   8.328   4.399 -1.2200  0.0372  0.0038
   50MOL0     H 6584   6.643   8.167   4.285 -1.7734  0.0536 -1.4594
   50MOL0     H 6585   6.847   8.158   4.153 -0.6714 -1.1555  1.5983
   50MOL0     H 6586   7.462   8.280   2.963  3.1268 -0.5112 -0.2986
   50MOL0     H 6587   7.668   8.254   2.998  0.1551  0.3137  0.0212
   50MOL0     H 6588   8.041   8.209   3.343 -1.2562 -0.6541 -0.2472
   50MOL0     H 6589   8.288   8.223   3.311  0.9020  0.1379 -0.1635
   50MOL0     H 6590   8.548   8.099   3.200  1.6191 -0.4540 -1.0171
   50MOL0     H 6591   8.490   8.258   3.231  0.5678  1.6974 -0.0976
   50MOL0     H 6592   8.668   8.172   2.996  1.4426  0.2303  1.3264
   50MOL0     H 6593   8.609   8.335   3.017 -1.0033  1.6001  2.9466
   50MOL0     H 6594   8.758   8.211   3.253 -1.6675  0.4098  0.2997
   50MOL0     H 6595   8.726   8.367   3.223  0.5989  0.4863 -1.1753
   50MOL0     H 6596   8.975   8.264   3.155  1.2223  0.3344 -2.6094
   50MOL0     H 6597   8.890   8.187   3.024  4.5954 -0.3304 -1.2068
   50MOL0     H 6598   8.943   8.572   2.872 -0.7653  1.7297  1.1047
   50MOL0     H 6599   8.249   8.039   2.926 -3.3328  1.3027 -2.4500
   50MOL0     H 6600   8.027   8.002   2.961  2.5278 -0.8642 -1.1051
   51MOL0     O 6601   4.036   0.080   0.952 -0.9896  0.7364  0.4780
   51MOL0     C 6602   4.060   0.195   0.999 -0.1982 -0.7702 -0.6080
   51MOL0     O 6603   3.979   0.301   0.979  0.1730  0.3510 -0.7616
   51MOL0     C 6604   3.864   0.300   0.901  0.2436 -1.0947 -0.4033
   51MOL0     C 6605   3.828   0.416   0.825 -0.6558 -0.2077 -0.1279
   51MOL0     C 6606   3.712   0.438   0.748 -0.1813  0.5476  0.6642
   51MOL0     C 6607   3.627   0.328   0.729  0.7655  0.3181 -0.2434
   51MOL0     O 6608   3.522   0.323   0.637 -0.4735  0.1924  0.9215
   51MOL0     C 6609   3.465   0.433   0.569 -1.3844 -0.0147 -0.0138
   51MOL0     C 6610   3.353   0.397   0.475 -0.4109  0.6522  0.1805
   51MOL0     C 6611   3.286   0.260   0.494  0.3888  0.5028  0.2614
   51MOL0     C 6612   3.166   0.228   0.395 -0.3029 -0.2473 -0.6962
   51MOL0     C 6613   3.030   0.225   0.459  0.3789 -0.8192 -1.0495
   51MOL0     C 6614   2.920   0.177   0.363  0.5162  0.4882 -0.7653
   51MOL0     C 6615   2.780   0.167   0.431  0.2009 -0.4508 -0.0124
   51MOL0     C 6616   2.696   0.277   0.388  0.0525 -0.9809  0.2274
   51MOL0     N 6617   2.567   0.285   0.454 -0.1125  0.1148  0.5025
   51MOL0     C 6618   2.448   0.324   0.379 -0.3662  1.2161 -0.2697
   51MOL0     C 6619   2.350   0.310   0.472 -0.0687  0.7667  0.3767
   51MOL0     C 6620   2.208   0.332   0.458 -0.0833  0.1152 -0.5228
   51MOL0     C 6621   2.126   0.216   0.515 -0.0965  0.0475 -0.3055
   51MOL0     C 6622   1.999   0.191   0.433 -0.0616 -0.6239 -0.5797
   51MOL0     C 6623   1.901   0.107   0.518 -0.2455  0.0408  0.4528
   51MOL0     O 6624   1.784   0.115   0.434  0.1466  0.0684 -0.2499
   51MOL0     C 6625   1.703   0.001   0.425 -0.1155 -1.2284  0.2805
   51MOL0     C 6626   1.669  -0.081   0.535 -0.4754 -0.2527 -1.4241
   51MOL0     C 6627   1.585  -0.183   0.532  0.8479 -0.7574 -0.2284
   51MOL0     C 6628   1.520  -0.212   0.407  0.2718 -0.7953  0.4412
   51MOL0     C 6629   1.418  -0.321   0.408 -0.5138  0.4850  0.0482
   51MOL0     O 6630   1.371  -0.363   0.522 -0.4836 -0.2170  0.1269
   51MOL0     C 6631   1.305  -0.481   0.533  0.4923  0.6940  0.3333
   51MOL0     C 6632   1.376  -0.592   0.583  0.5149  0.0040 -0.0566
   51MOL0     C 6633   1.315  -0.711   0.605  0.0175  0.4525 -0.0526
   51MOL0     C 6634   1.183  -0.737   0.578  0.4611 -0.4293  0.0671
   51MOL0     O 6635   1.146  -0.863   0.604  0.6521  0.0828 -0.3427
   51MOL0     C 6636   1.011  -0.886   0.604  0.3272 -0.5729  0.5049
   51MOL0     C 6637   0.992  -1.032   0.637  0.0834 -0.4246 -0.0790
   51MOL0     C 6638   0.847  -1.073   0.630  0.5949 -0.1389  0.0324
   51MOL0     C 6639   0.800  -1.126   0.496 -0.9282 -0.1273  0.5290
   51MOL0     C 6640   0.656  -1.134   0.475 -0.2472 -0.1764 -0.6155
   51MOL0     C 6641   0.623  -1.221   0.355  0.0531  0.5987 -0.6479
   51MOL0     C 6642   0.475  -1.213   0.317  0.6795 -0.0896 -0.0701
   51MOL0     C 6643   0.442  -1.310   0.212  0.2345  0.0004  0.0171
   51MOL0    Cl 6644   0.265  -1.292   0.161 -0.0418 -0.0903 -0.0155
   51MOL0     C 6645   1.115  -0.635   0.513 -1.0108 -0.4333 -1.1875
   51MOL0     C 6646   1.173  -0.504   0.492  0.5147 -0.0861 -0.7005
   51MOL0     O 6647   1.374  -0.353   0.298  0.1637 -0.4802  0.5148
   51MOL0     C 6648   1.551  -0.125   0.298  1.3390  1.1679  0.9792
   51MOL0     C 6649   1.645  -0.025   0.307 -0.0645  0.6428 -0.3162
   51MOL0     N 6650   2.410   0.269   0.596 -0.1396  0.2796  0.2937
   51MOL0     N 6651   2.532   0.258   0.581 -0.1547 -0.2466 -0.5237
   51MOL0     C 6652   3.652   0.215   0.810 -0.2234  0.0397 -1.3628
   51MOL0     C 6653   3.766   0.203   0.902  0.7848  0.5849  0.5819
   51MOL0     C 6654   4.168   0.228   1.095 -1.0083 -1.2243 -0.0508
   51MOL0     C 6655   4.239   0.121   1.149  0.3390 -0.5427  1.0166
   51MOL0     C 6656   4.351   0.140   1.221 -1.0329  0.7125  0.0611
   51MOL0     C 6657   4.386   0.267   1.251 -0.4558  0.4337 -0.7220
   51MOL0     O 6658   4.489   0.280   1.344  0.0963  0.4177 -0.4239
   51MOL0     C 6659   4.607   0.196   1.355 -0.2140  0.1060 -1.1083
   51MOL0     C 6660   4.720   0.263   1.444  0.9625  0.7212  0.4746
   51MOL0     C 6661   4.835   0.157   1.445  0.0823 -0.2349 -0.1621
   51MOL0     C 6662   4.960   0.215   1.510  0.2624 -0.5951 -0.2835
   51MOL0     C 6663   4.936   0.237   1.661 -0.2237  0.2791  0.3579
   51MOL0     C 6664   4.909   0.247   1.780  0.8907  0.4267 -0.4927
   51MOL0     C 6665   4.309   0.380   1.228  0.5469 -0.3970 -0.3348
   51MOL0     C 6666   4.199   0.356   1.141  0.1080  0.4213 -0.7720
   51MOL0     H 6667   3.906   0.491   0.822 -0.6019 -0.2951 -1.3302
   51MOL0     H 6668   3.697   0.537   0.706 -2.5103  0.4800  1.2007
   51MOL0     H 6669   3.547   0.481   0.514 -0.2016 -0.7220  1.0869
   51MOL0     H 6670   3.435   0.512   0.639 -0.6982  0.4323 -0.2169
   51MOL0     H 6671   3.386   0.398   0.371  0.6037  0.3678  0.4886
   51MOL0     H 6672   3.274   0.471   0.489  1.0570  2.7279 -1.7640
   51MOL0     H 6673   3.246   0.277   0.594  0.8922  2.8926  0.1201
   51MOL0     H 6674   3.360   0.181   0.483  0.0527  0.0495  1.1722
   51MOL0     H 6675   3.161   0.301   0.314 -2.7619  1.4754  0.8259
   51MOL0     H 6676   3.181   0.132   0.346  1.4793  0.9962 -2.7715
   51MOL0     H 6677   2.997   0.324   0.493  0.7629 -1.0029 -0.1318
   51MOL0     H 6678   3.036   0.161   0.547 -0.6506 -0.5372 -0.7502
   51MOL0     H 6679   2.944   0.078   0.324 -4.4019 -0.9886 -0.6399
   51MOL0     H 6680   2.926   0.243   0.276 -2.0348  1.2445 -0.4316
   51MOL0     H 6681   2.737   0.068   0.409  3.5626 -1.9860 -0.3107
   51MOL0     H 6682   2.783   0.171   0.540  3.1000 -1.1640 -0.0011
   51MOL0     H 6683   2.690   0.277   0.278 -0.6423 -1.5614  0.2562
   51MOL0     H 6684   2.751   0.369   0.406 -0.2220 -0.7982  0.1550
   51MOL0     H 6685   2.431   0.355   0.277  0.9223 -1.4393 -1.3887
   51MOL0     H 6686   2.175   0.332   0.354 -2.0229  0.2466  0.0636
   51MOL0     H 6687   2.184   0.426   0.508  0.4270  0.2761 -0.5736
   51MOL0     H 6688   2.096   0.250   0.614  0.0253 -3.4671  1.0875
   51MOL0     H 6689   2.185   0.125   0.530  1.3456  1.2665  1.9585
   51MOL0     H 6690   1.952   0.287   0.412 -0.7193 -1.7430 -5.1535
   51MOL0     H 6691   2.032   0.141   0.341  0.9686  0.9519 -1.1013
   51MOL0     H 6692   1.876   0.138   0.620 -3.2584 -0.2407 -0.1227
   51MOL0     H 6693   1.929   0.002   0.520 -3.7482 -1.0081  0.6608
   51MOL0     H 6694   1.716  -0.065   0.632  0.2076 -0.2315 -1.7503
   51MOL0     H 6695   1.557  -0.239   0.621  0.7194 -3.7292 -1.9957
   51MOL0     H 6696   1.482  -0.588   0.607  0.6390 -3.0250  0.3443
   51MOL0     H 6697   1.387  -0.788   0.631  0.7318  1.3170  0.5579
   51MOL0     H 6698   0.950  -0.857   0.518 -0.1758  0.8349  1.3147
   51MOL0     H 6699   0.957  -0.831   0.681 -1.1661  0.7209 -1.3552
   51MOL0     H 6700   1.037  -1.046   0.736 -2.7178 -0.4961  1.2646
   51MOL0     H 6701   1.052  -1.089   0.565  0.0489  1.4290 -1.6821
   51MOL0     H 6702   0.787  -0.988   0.665 -0.6070  0.0875 -2.3175
   51MOL0     H 6703   0.828  -1.156   0.699  1.1923  0.5958  1.1065
   51MOL0     H 6704   0.834  -1.055   0.419  1.3296 -0.9300  0.7236
   51MOL0     H 6705   0.842  -1.225   0.477 -3.8156 -1.0295 -2.1170
   51MOL0     H 6706   0.616  -1.032   0.469 -2.2200 -0.8865 -0.3341
   51MOL0     H 6707   0.622  -1.175   0.571 -1.1889  0.8834 -0.4793
   51MOL0     H 6708   0.632  -1.327   0.382  0.2943  0.6725 -0.4309
   51MOL0     H 6709   0.688  -1.201   0.270  0.1673  2.3040 -0.1849
   51MOL0     H 6710   0.401  -1.231   0.395  0.8557  0.3567  0.1997
   51MOL0     H 6711   0.460  -1.112   0.277  2.3497 -1.5166 -5.0392
   51MOL0     H 6712   0.460  -1.412   0.245 -1.0786 -0.0617  0.6203
   51MOL0     H 6713   0.512  -1.297   0.129  3.4655  0.3205  2.5887
   51MOL0     H 6714   1.013  -0.645   0.478 -0.4106  2.2657 -4.2887
   51MOL0     H 6715   1.119  -0.417   0.457 -2.8363 -0.2171  3.3875
   51MOL0     H 6716   1.502  -0.152   0.205  0.9935  1.0208  1.2026
   51MOL0     H 6717   1.684   0.026   0.220 -1.0931 -0.0272 -1.1915
   51MOL0     H 6718   3.576   0.137   0.814 -1.0470  0.7906 -2.0532
   51MOL0     H 6719   3.772   0.125   0.977 -1.3037  0.0817  0.2950
   51MOL0     H 6720   4.198   0.025   1.119 -2.5615  0.6249  0.8775
   51MOL0     H 6721   4.401   0.046   1.241 -1.9935 -0.5417 -2.8037
   51MOL0     H 6722   4.653   0.179   1.257  0.7146  0.7180 -0.7900
   51MOL0     H 6723   4.574   0.105   1.406 -0.7518  2.3990  3.1072
   51MOL0     H 6724   4.751   0.352   1.389  1.5116 -0.1439 -0.6571
   51MOL0     H 6725   4.684   0.298   1.541 -2.3269  1.5882 -0.9209
   51MOL0     H 6726   4.845   0.117   1.343 -1.7376  0.5208 -0.6741
   51MOL0     H 6727   4.797   0.076   1.508  0.2453  0.6809  1.1493
   51MOL0     H 6728   5.036   0.137   1.502 -1.4953 -2.3257 -1.0667
   51MOL0     H 6729   5.002   0.305   1.466  0.3256 -0.6310 -0.2972
   51MOL0     H 6730   4.891   0.252   1.886  2.3343 -1.7349 -0.0790
   51MOL0     H 6731   4.330   0.481   1.260 -2.5927  0.9039 -2.0129
   51MOL0     H 6732   4.146   0.446   1.114  0.1008  2.0560  3.8829
   52MOL0     O 6733   2.748   4.655   7.880  0.7800 -1.1049 -0.2581
   52MOL0     C 6734   2.721   4.736   7.969  0.5116 -0.1177  0.3038
   52MOL0     O 6735   2.601   4.808   7.985 -0.4409  0.7704  0.2881
   52MOL0     C 6736   2.495   4.774   7.908 -0.6103 -0.1072  0.5587
   52MOL0     C 6737   2.439   4.871   7.819  1.0205  0.2815  0.0106
   52MOL0     C 6738   2.320   4.848   7.751 -0.2076  0.2733 -0.0227
   52MOL0     C 6739   2.269   4.716   7.764  0.4493 -0.0774 -0.5872
   52MOL0     O 6740   2.166   4.692   7.675 -0.9371 -0.0424  0.0478
   52MOL0     C 6741   2.207   4.619   7.556  0.1725 -0.2327 -0.1412
   52MOL0     C 6742   2.110   4.633   7.445  0.4542 -0.1352 -0.0075
   52MOL0     C 6743   1.984   4.554   7.447  1.2321 -0.1178 -0.3270
   52MOL0     C 6744   1.909   4.580   7.316 -0.3597  0.0896 -0.9514
   52MOL0     C 6745   1.767   4.527   7.335 -0.5395  0.2891  0.2134
   52MOL0     C 6746   1.767   4.382   7.365 -0.2006 -0.2084 -0.5592
   52MOL0     C 6747   1.620   4.334   7.370 -0.4793 -1.4961 -1.2340
   52MOL0     C 6748   1.557   4.379   7.505  0.0148 -0.9796 -0.1548
   52MOL0     N 6749   1.413   4.337   7.500 -0.1671 -0.1807  0.9395
   52MOL0     C 6750   1.337   4.396   7.401  1.1720 -0.0521  0.6178
   52MOL0     C 6751   1.217   4.322   7.402 -0.3950 -0.4705 -0.1697
   52MOL0     C 6752   1.097   4.338   7.311  1.1201  0.7713  0.0844
   52MOL0     C 6753   0.966   4.348   7.390 -0.9354 -0.2350  0.3205
   52MOL0     C 6754   0.864   4.265   7.321  0.7008  0.0572 -0.7077
   52MOL0     C 6755   0.827   4.290   7.174 -0.0606 -0.3667  0.6259
   52MOL0     O 6756   0.778   4.428   7.161  0.4410 -0.5030  0.1112
   52MOL0     C 6757   0.644   4.460   7.168  0.0834  0.2994  0.8167
   52MOL0     C 6758   0.552   4.382   7.237 -0.1435  0.7979 -0.1908
   52MOL0     C 6759   0.419   4.427   7.242  0.6697 -0.5853  0.0646
   52MOL0     C 6760   0.384   4.548   7.188 -0.0684 -0.2341  0.2615
   52MOL0     C 6761   0.246   4.590   7.200  0.0183  0.7745 -1.3718
   52MOL0     O 6762   0.206   4.693   7.123  0.7386 -0.1775 -0.7718
   52MOL0     C 6763   0.080   4.750   7.146 -0.1323  0.2534  0.3764
   52MOL0     C 6764  -0.042   4.677   7.120 -0.3354  0.6626 -0.1299
   52MOL0     C 6765  -0.156   4.736   7.156 -0.0821 -0.3694  0.0252
   52MOL0     C 6766  -0.168   4.870   7.198 -0.1419 -0.1028  0.4406
   52MOL0     O 6767  -0.294   4.914   7.212  0.7660 -0.0162  0.2421
   52MOL0     C 6768  -0.334   4.952   7.344 -0.4862  0.3054  0.2737
   52MOL0     C 6769  -0.486   4.984   7.331 -0.7547 -0.2167 -0.7240
   52MOL0     C 6770  -0.567   4.992   7.461  0.3782 -0.0170  1.4168
   52MOL0     C 6771  -0.510   5.079   7.572  0.6970 -0.1941  0.6676
   52MOL0     C 6772  -0.612   5.097   7.687 -0.0221  0.9128 -0.9174
   52MOL0     C 6773  -0.552   5.188   7.802 -1.4757  0.1003  0.2723
   52MOL0     C 6774  -0.634   5.189   7.926 -0.1554  0.0325 -0.7705
   52MOL0     C 6775  -0.555   5.231   8.047  0.1048 -0.7936 -0.2952
   52MOL0    Cl 6776  -0.657   5.215   8.198  0.3649  0.2449 -0.2359
   52MOL0     C 6777  -0.049   4.948   7.221  0.3104  0.0421 -0.1450
   52MOL0     C 6778   0.072   4.885   7.187  0.3486 -0.2053  0.9356
   52MOL0     O 6779   0.166   4.531   7.276 -0.7717 -0.6653  0.0768
   52MOL0     C 6780   0.483   4.619   7.121 -0.2224 -0.2006  0.0716
   52MOL0     C 6781   0.610   4.578   7.110  0.7001 -0.3661  1.2422
   52MOL0     N 6782   1.241   4.212   7.488 -0.2238 -0.1084 -0.2888
   52MOL0     N 6783   1.359   4.225   7.538  0.7679  0.5196  0.0510
   52MOL0     C 6784   2.322   4.619   7.856  0.0260  0.0883 -0.0898
   52MOL0     C 6785   2.442   4.649   7.918 -0.1106 -0.2390 -0.3273
   52MOL0     C 6786   2.831   4.758   8.066  0.4948  0.6759 -0.1583
   52MOL0     C 6787   2.963   4.726   8.031  0.0794  0.5360  0.3067
   52MOL0     C 6788   3.058   4.754   8.128  0.2889 -0.4657 -0.9195
   52MOL0     C 6789   3.027   4.786   8.262 -1.4703  0.3271 -0.2958
   52MOL0     O 6790   3.122   4.801   8.363 -0.3655  0.1390  0.0916
   52MOL0     C 6791   3.259   4.814   8.334 -0.0816  0.3365 -0.1768
   52MOL0     C 6792   3.324   4.846   8.461  0.3237 -0.4523 -0.7955
   52MOL0     C 6793   3.465   4.890   8.428  0.3178 -0.0704 -0.0346
   52MOL0     C 6794   3.568   4.895   8.541  1.0113 -0.0656  0.0737
   52MOL0     C 6795   3.659   4.782   8.550  0.5410  0.5932 -0.6208
   52MOL0     C 6796   3.743   4.693   8.567 -0.1806  0.6159  0.2362
   52MOL0     C 6797   2.892   4.797   8.300 -0.3966  0.5248  0.4334
   52MOL0     C 6798   2.799   4.791   8.198  1.0962 -0.8172  0.1077
   52MOL0     H 6799   2.483   4.969   7.804 -0.4438  1.2092  1.4487
   52MOL0     H 6800   2.296   4.920   7.674  2.3141  1.2637 -0.0044
   52MOL0     H 6801   2.210   4.513   7.584 -0.3247 -0.4543 -0.8781
   52MOL0     H 6802   2.306   4.660   7.532 -0.5967  1.4610 -0.5359
   52MOL0     H 6803   2.167   4.599   7.358  0.2862  0.2847 -0.2863
   52MOL0     H 6804   2.080   4.737   7.432 -0.9024  0.3504  4.9727
   52MOL0     H 6805   1.915   4.589   7.524 -0.8270 -0.2852 -1.9931
   52MOL0     H 6806   2.011   4.448   7.447 -0.0639 -0.4651  0.3948
   52MOL0     H 6807   1.914   4.689   7.306 -3.6466  0.4990  0.5544
   52MOL0     H 6808   1.967   4.534   7.236  2.6637 -0.0136  1.1043
   52MOL0     H 6809   1.712   4.548   7.243 -1.1618  1.8238  0.9097
   52MOL0     H 6810   1.720   4.580   7.418 -0.2201 -0.4409  0.8839
   52MOL0     H 6811   1.811   4.371   7.464 -0.5035  2.0103 -0.1209
   52MOL0     H 6812   1.830   4.335   7.289  1.0629 -0.3111  0.5187
   52MOL0     H 6813   1.571   4.374   7.281  2.6244  1.5606 -1.7920
   52MOL0     H 6814   1.601   4.227   7.364  3.4039 -2.4878  1.0503
   52MOL0     H 6815   1.561   4.487   7.518  1.3311 -1.2469  2.1740
   52MOL0     H 6816   1.616   4.348   7.592 -0.5205  3.6576  2.1709
   52MOL0     H 6817   1.352   4.487   7.344 -2.5252  0.4589  0.2127
   52MOL0     H 6818   1.095   4.247   7.250  1.4009 -0.2879  1.5873
   52MOL0     H 6819   1.106   4.430   7.252  0.7856 -0.4402 -1.9315
   52MOL0     H 6820   0.938   4.453   7.380  3.3181  0.8643 -2.1042
   52MOL0     H 6821   0.970   4.328   7.498  0.3655  0.1301  0.3554
   52MOL0     H 6822   0.893   4.160   7.327  3.2539  0.5784 -2.3685
   52MOL0     H 6823   0.769   4.287   7.371 -0.4736  0.8511 -3.0925
   52MOL0     H 6824   0.755   4.224   7.124  2.8289 -0.8412 -3.4319
   52MOL0     H 6825   0.919   4.286   7.115 -1.0414  0.8597 -1.0629
   52MOL0     H 6826   0.578   4.288   7.284  3.0562 -0.3168 -3.6942
   52MOL0     H 6827   0.348   4.361   7.292 -0.1879 -0.5515 -1.0586
   52MOL0     H 6828  -0.043   4.570   7.101 -1.2474  0.6719 -0.2114
   52MOL0     H 6829  -0.244   4.672   7.157 -1.0716  0.9214  2.0814
   52MOL0     H 6830  -0.260   5.023   7.382  1.4859 -1.1253 -0.7720
   52MOL0     H 6831  -0.321   4.871   7.417  0.4094  0.1945 -0.0070
   52MOL0     H 6832  -0.525   4.905   7.265  0.7611  0.6233 -2.7456
   52MOL0     H 6833  -0.501   5.081   7.283 -3.7096  0.9003  2.1419
   52MOL0     H 6834  -0.574   4.889   7.495  1.3112  0.1358  2.1034
   52MOL0     H 6835  -0.665   5.037   7.444  0.7095  0.5924  1.0473
   52MOL0     H 6836  -0.419   5.042   7.620  1.0467  1.2891  1.1951
   52MOL0     H 6837  -0.486   5.179   7.536 -1.1904 -0.0062 -0.1470
   52MOL0     H 6838  -0.630   4.996   7.726 -4.7493  1.1444 -1.9679
   52MOL0     H 6839  -0.704   5.145   7.653 -1.9946 -1.2717  1.0376
   52MOL0     H 6840  -0.538   5.285   7.753 -0.4630 -0.8952 -1.5285
   52MOL0     H 6841  -0.450   5.158   7.827 -1.3482 -0.6254 -1.0157
   52MOL0     H 6842  -0.709   5.265   7.907  2.1739  1.9848 -2.9657
   52MOL0     H 6843  -0.682   5.093   7.948  0.8128 -0.2403  0.3264
   52MOL0     H 6844  -0.528   5.336   8.032 -1.3012 -0.1489  1.3415
   52MOL0     H 6845  -0.466   5.168   8.053 -1.0719 -2.5634 -0.7673
   52MOL0     H 6846  -0.045   5.052   7.250  1.3066 -1.1049  4.6903
   52MOL0     H 6847   0.165   4.935   7.211  2.7424 -3.4267 -0.8323
   52MOL0     H 6848   0.454   4.709   7.069  0.4503  0.5138  0.9067
   52MOL0     H 6849   0.696   4.637   7.079  1.5002 -1.8293  0.5600
   52MOL0     H 6850   2.277   4.521   7.859 -0.4680  0.2205 -2.0809
   52MOL0     H 6851   2.480   4.569   7.980  0.4711  0.6798  0.5252
   52MOL0     H 6852   2.991   4.694   7.931  0.0106  1.0462  0.1224
   52MOL0     H 6853   3.162   4.730   8.107  0.5673 -1.4737  1.2634
   52MOL0     H 6854   3.281   4.887   8.256  1.1498 -0.0481 -0.2205
   52MOL0     H 6855   3.308   4.720   8.304 -1.7297 -0.7135  0.2985
   52MOL0     H 6856   3.264   4.927   8.503  0.3698 -0.4205 -0.7902
   52MOL0     H 6857   3.324   4.764   8.534  2.1863 -0.7651 -1.0791
   52MOL0     H 6858   3.453   4.990   8.386  0.6016 -0.2448 -0.5519
   52MOL0     H 6859   3.511   4.827   8.350 -0.3387 -1.1894  0.4643
   52MOL0     H 6860   3.625   4.989   8.537 -0.5936  0.9524  0.3668
   52MOL0     H 6861   3.520   4.896   8.639 -1.9808  2.5088 -1.2557
   52MOL0     H 6862   3.810   4.609   8.575 -1.2880 -0.1329  2.3796
   52MOL0     H 6863   2.871   4.812   8.405 -3.0653  1.1304 -0.1103
   52MOL0     H 6864   2.696   4.812   8.222  1.3256  1.4892 -0.6722
   53MOL0     O 6865   8.981   9.398   3.448  0.1689 -0.9517 -0.1706
   53MOL0     C 6866   9.011   9.367   3.561  0.3280  0.5178  0.1586
   53MOL0     O 6867   8.924   9.335   3.662 -0.2488  0.6709  0.5942
   53MOL0     C 6868   8.787   9.331   3.651 -0.5529 -0.3559 -0.7134
   53MOL0     C 6869   8.707   9.337   3.762  0.2290  0.1702  0.1974
   53MOL0     C 6870   8.578   9.309   3.756  0.7140  0.7902 -0.3631
   53MOL0     C 6871   8.503   9.280   3.637 -1.1579  0.5809  0.8225
   53MOL0     O 6872   8.366   9.269   3.642  0.2277 -0.1912 -0.2160
   53MOL0     C 6873   8.310   9.201   3.532  0.5762 -0.2068  0.3974
   53MOL0     C 6874   8.154   9.187   3.557 -0.3242 -0.6441  0.2047
   53MOL0     C 6875   8.140   9.077   3.666  0.2079  0.6825  0.4293
   53MOL0     C 6876   7.990   9.050   3.664  0.1445 -0.3372 -0.3177
   53MOL0     C 6877   7.944   8.952   3.770 -0.5305  0.0929  0.2234
   53MOL0     C 6878   7.794   8.969   3.792  0.2894  0.0404  0.3727
   53MOL0     C 6879   7.737   8.867   3.902  0.1596  0.9967 -0.2281
   53MOL0     C 6880   7.762   8.903   4.049 -0.1403 -0.5996 -0.1863
   53MOL0     N 6881   7.671   9.010   4.100 -0.3499  0.0853 -0.2601
   53MOL0     C 6882   7.619   9.004   4.220  0.2832  0.2353 -0.9940
   53MOL0     C 6883   7.577   9.124   4.243  0.0131  0.6642  0.7116
   53MOL0     C 6884   7.525   9.192   4.356  0.2864 -0.3609  0.0742
   53MOL0     C 6885   7.416   9.121   4.429  0.0576 -1.0181 -0.2760
   53MOL0     C 6886   7.361   9.214   4.536  0.1908  0.2861  0.3655
   53MOL0     C 6887   7.231   9.148   4.604 -0.2854  0.0759  0.2539
   53MOL0     O 6888   7.125   9.149   4.507 -1.1609 -0.7170  0.4410
   53MOL0     C 6889   6.999   9.110   4.540  0.1702  0.1054 -0.8991
   53MOL0     C 6890   6.901   9.112   4.441 -1.1619 -0.3354  0.4862
   53MOL0     C 6891   6.766   9.093   4.463 -0.0681 -0.4411  0.1584
   53MOL0     C 6892   6.722   9.043   4.588 -0.9418  0.0579 -0.5339
   53MOL0     C 6893   6.576   9.021   4.610  0.3017  1.3638 -0.9814
   53MOL0     O 6894   6.526   9.041   4.738  0.8365  0.4407 -0.6749
   53MOL0     C 6895   6.394   9.078   4.748  0.2021  1.2040  0.0542
   53MOL0     C 6896   6.335   9.168   4.662  0.2502 -0.0309  0.5440
   53MOL0     C 6897   6.195   9.177   4.671 -0.1788 -0.0986 -0.2629
   53MOL0     C 6898   6.122   9.111   4.778 -1.0313  0.4049  1.2098
   53MOL0     O 6899   5.983   9.118   4.778  0.1112  0.1090  0.2930
   53MOL0     C 6900   5.921   9.162   4.658 -0.0215  0.0056  0.5234
   53MOL0     C 6901   5.778   9.107   4.646 -0.6605 -0.0312  0.0297
   53MOL0     C 6902   5.681   9.164   4.737  0.0444  0.7494 -0.3081
   53MOL0     C 6903   5.544   9.108   4.704 -0.0500 -0.2907  0.8867
   53MOL0     C 6904   5.436   9.133   4.803  0.0881 -0.3286  0.7228
   53MOL0     C 6905   5.300   9.083   4.741  0.3120 -0.5005  0.0533
   53MOL0     C 6906   5.187   9.095   4.836  0.1275 -0.5021 -0.3926
   53MOL0     C 6907   5.130   8.961   4.898  0.4432  0.2515 -0.3763
   53MOL0    Cl 6908   5.269   8.858   4.953  0.1485 -0.1062 -0.2149
   53MOL0     C 6909   6.194   9.049   4.879 -0.9446  0.2616  0.2844
   53MOL0     C 6910   6.324   9.028   4.862 -0.6030 -0.5409  0.3753
   53MOL0     O 6911   6.516   8.972   4.516  0.2492  0.7975 -0.1147
   53MOL0     C 6912   6.821   9.011   4.685  0.2156 -0.6089  0.1026
   53MOL0     C 6913   6.955   9.049   4.662 -0.1363  0.3962  0.4505
   53MOL0     N 6914   7.605   9.200   4.124  0.5948 -0.1921  0.4738
   53MOL0     N 6915   7.656   9.127   4.044 -0.3893  0.5280  0.7690
   53MOL0     C 6916   8.583   9.272   3.524 -0.1194  0.5090  0.3089
   53MOL0     C 6917   8.721   9.299   3.526  0.9511 -0.4782 -0.3750
   53MOL0     C 6918   9.159   9.366   3.595 -0.8189 -0.0705  1.4081
   53MOL0     C 6919   9.223   9.344   3.725 -0.4278 -0.4265 -0.1002
   53MOL0     C 6920   9.363   9.340   3.733  0.6405  0.9173 -0.0246
   53MOL0     C 6921   9.443   9.385   3.628  0.7945  0.5274  0.1589
   53MOL0     O 6922   9.585   9.406   3.645  0.0951 -0.0014  0.0923
   53MOL0     C 6923   9.639   9.526   3.585 -0.0600 -0.4863  0.4790
   53MOL0     C 6924   9.784   9.492   3.548  0.1447 -1.3713 -0.6814
   53MOL0     C 6925   9.848   9.622   3.494  0.2378 -0.4440 -0.1326
   53MOL0     C 6926   9.946   9.693   3.585  0.6718  0.0722  0.1628
   53MOL0     C 6927  10.019   9.814   3.522 -0.7410  0.3726  0.2288
   53MOL0     C 6928  10.081   9.910   3.477  0.1382  0.9800 -0.5513
   53MOL0     C 6929   9.381   9.397   3.503  1.0404  0.5039  0.5402
   53MOL0     C 6930   9.242   9.377   3.486  0.7004 -0.0824 -0.7366
   53MOL0     H 6931   8.741   9.370   3.860 -1.4490 -0.8146  1.1505
   53MOL0     H 6932   8.515   9.320   3.845  0.7336  1.2242 -0.4024
   53MOL0     H 6933   8.356   9.104   3.517  0.7247 -0.0701 -0.0247
   53MOL0     H 6934   8.330   9.276   3.456  2.4700 -0.2485  0.8036
   53MOL0     H 6935   8.096   9.161   3.468  0.3554  3.4040 -1.6447
   53MOL0     H 6936   8.102   9.280   3.581  0.2177  0.1629 -1.5696
   53MOL0     H 6937   8.176   9.127   3.757  0.4364  2.9163 -0.8321
   53MOL0     H 6938   8.200   8.987   3.649 -2.0595 -0.7692 -0.2566
   53MOL0     H 6939   7.930   9.141   3.681  0.2871 -0.5023  1.2265
   53MOL0     H 6940   7.974   9.016   3.561  0.3387  2.1832 -1.2435
   53MOL0     H 6941   8.003   8.976   3.859  0.1505  1.6121 -0.5904
   53MOL0     H 6942   7.970   8.854   3.730  0.5258  1.1154 -1.6883
   53MOL0     H 6943   7.741   8.947   3.699  0.9144  1.0493 -0.2406
   53MOL0     H 6944   7.786   9.072   3.828  4.5348  0.9352 -0.6491
   53MOL0     H 6945   7.628   8.859   3.894 -0.1786  3.1828  1.2815
   53MOL0     H 6946   7.783   8.772   3.874 -0.0156  0.7688  0.2448
   53MOL0     H 6947   7.867   8.929   4.063 -0.0672 -2.1235  2.9844
   53MOL0     H 6948   7.748   8.811   4.106 -0.6036 -0.4019  0.0232
   53MOL0     H 6949   7.631   8.928   4.297 -2.1076  1.6878  0.9468
   53MOL0     H 6950   7.488   9.290   4.327  0.1401 -0.3578  0.2707
   53MOL0     H 6951   7.604   9.216   4.427 -0.4238  1.3643  0.3272
   53MOL0     H 6952   7.458   9.037   4.485 -0.6271  1.1417  3.8808
   53MOL0     H 6953   7.342   9.090   4.354 -0.2231 -0.3986 -0.2680
   53MOL0     H 6954   7.434   9.240   4.613 -1.0850  1.3798  1.2601
   53MOL0     H 6955   7.333   9.312   4.498  0.7022  0.2455 -0.1314
   53MOL0     H 6956   7.206   9.201   4.696 -1.1175 -0.1772  0.1825
   53MOL0     H 6957   7.255   9.044   4.629  0.3072 -0.0077 -0.6207
   53MOL0     H 6958   6.932   9.154   4.346 -1.2348 -2.3165 -0.4626
   53MOL0     H 6959   6.708   9.068   4.375 -0.1393 -2.0711  0.6310
   53MOL0     H 6960   6.386   9.243   4.602 -2.1752  2.0292  0.8531
   53MOL0     H 6961   6.145   9.258   4.620  1.3920  0.2434 -1.3481
   53MOL0     H 6962   5.974   9.126   4.570  0.8481  0.9825  0.6223
   53MOL0     H 6963   5.931   9.271   4.653 -0.9446  0.0973  0.5154
   53MOL0     H 6964   5.775   8.999   4.665  0.0624  0.1429  1.2945
   53MOL0     H 6965   5.747   9.118   4.542  1.7596  0.8941 -0.6801
   53MOL0     H 6966   5.677   9.272   4.727  2.3756  0.9422  0.1684
   53MOL0     H 6967   5.707   9.136   4.839 -0.1063 -0.1567 -0.5023
   53MOL0     H 6968   5.509   9.141   4.606 -2.5171  0.8858  2.0793
   53MOL0     H 6969   5.545   8.999   4.705  0.3358 -0.3638 -1.6522
   53MOL0     H 6970   5.425   9.238   4.834  1.0084 -1.0268  3.6758
   53MOL0     H 6971   5.446   9.081   4.898  1.3970 -2.1418 -0.3391
   53MOL0     H 6972   5.304   8.975   4.723  0.6575 -0.4587 -0.1202
   53MOL0     H 6973   5.269   9.129   4.647 -4.3408  2.0654  2.4570
   53MOL0     H 6974   5.216   9.163   4.917  0.2538  1.0340 -1.6724
   53MOL0     H 6975   5.100   9.142   4.790 -0.2862 -1.7906 -0.9803
   53MOL0     H 6976   5.062   8.905   4.833 -1.0687 -1.3986  2.4194
   53MOL0     H 6977   5.074   8.995   4.985  2.3856  2.2355  0.1857
   53MOL0     H 6978   6.152   8.994   4.964  0.6192  1.6274  2.0206
   53MOL0     H 6979   6.381   8.965   4.930 -1.5399 -2.0126 -0.1508
   53MOL0     H 6980   6.802   8.967   4.782  0.6153  0.7912  0.8316
   53MOL0     H 6981   7.028   9.014   4.734 -0.4934 -1.1406  0.1212
   53MOL0     H 6982   8.530   9.246   3.433 -0.4082  1.9416  0.0584
   53MOL0     H 6983   8.768   9.281   3.430  1.3677 -1.4113 -0.0109
   53MOL0     H 6984   9.162   9.330   3.814  1.9763  0.1036  1.7447
   53MOL0     H 6985   9.413   9.327   3.828  0.4188 -3.7570 -0.3110
   53MOL0     H 6986   9.633   9.605   3.660  1.9089  0.7587 -0.5955
   53MOL0     H 6987   9.585   9.562   3.497 -1.2328  4.1718  2.7718
   53MOL0     H 6988   9.840   9.457   3.636  1.4976  2.2147  0.0232
   53MOL0     H 6989   9.780   9.415   3.470  2.0397 -2.1634 -0.0711
   53MOL0     H 6990   9.768   9.688   3.459 -1.1059 -1.1012  1.5189
   53MOL0     H 6991   9.904   9.603   3.402 -1.1631 -0.9863 -0.9140
   53MOL0     H 6992   9.881   9.723   3.668  1.0185  1.4055 -0.0224
   53MOL0     H 6993  10.027   9.629   3.621  1.3688  0.4218 -0.7483
   53MOL0     H 6994  10.130  10.001   3.450  1.3730  0.3092 -0.6458
   53MOL0     H 6995   9.436   9.408   3.410  0.7353 -2.1801 -0.0341
   53MOL0     H 6996   9.208   9.374   3.383  0.0244 -4.1128 -0.5828
   54MOL0     O 6997   4.857  10.272   7.275 -0.4512 -0.2615  0.4566
   54MOL0     C 6998   4.899  10.162   7.239 -0.0691  0.4342  0.0995
   54MOL0     O 6999   4.827  10.048   7.223  0.3442 -0.9891  0.0049
   54MOL0     C 7000   4.692  10.041   7.261 -0.6048 -0.3470 -1.0700
   54MOL0     C 7001   4.603   9.971   7.183  0.1859  0.2379 -0.4456
   54MOL0     C 7002   4.473   9.958   7.228  0.3685  1.0544 -0.9889
   54MOL0     C 7003   4.424  10.017   7.348 -0.9203  1.3453 -0.3326
   54MOL0     O 7004   4.297   9.999   7.395  0.4406  0.1037  0.0106
   54MOL0     C 7005   4.199   9.908   7.337 -1.4505  0.1206  1.1609
   54MOL0     C 7006   4.081   9.871   7.422  0.3212  0.0038 -0.3995
   54MOL0     C 7007   3.989   9.784   7.343 -0.1179 -0.2489  0.5811
   54MOL0     C 7008   3.855   9.753   7.412  0.1075 -0.3524  0.3251
   54MOL0     C 7009   3.754   9.711   7.311  0.5691 -0.6187 -0.2553
   54MOL0     C 7010   3.621   9.715   7.381  1.2955 -0.4450  0.9776
   54MOL0     C 7011   3.497   9.697   7.289  0.1764  0.4920 -1.0628
   54MOL0     C 7012   3.368   9.689   7.378  0.9314  0.9478  0.7605
   54MOL0     N 7013   3.256   9.686   7.281 -0.0770  0.1766 -0.2064
   54MOL0     C 7014   3.181   9.569   7.252  0.8374  0.5376  0.3111
   54MOL0     C 7015   3.098   9.602   7.155  0.3600  0.3259  0.1781
   54MOL0     C 7016   2.988   9.524   7.078  1.2211  0.7776  0.5275
   54MOL0     C 7017   2.853   9.557   7.143  0.9246 -0.1227  0.2313
   54MOL0     C 7018   2.838   9.512   7.288 -0.3879 -0.7103  1.4108
   54MOL0     C 7019   2.719   9.586   7.360 -0.0860 -0.1775  0.4184
   54MOL0     O 7020   2.606   9.584   7.282 -0.1959 -0.4622  0.2457
   54MOL0     C 7021   2.495   9.552   7.359  0.3323 -1.1232 -0.2532
   54MOL0     C 7022   2.436   9.652   7.442 -0.8591 -0.1298  0.3063
   54MOL0     C 7023   2.324   9.627   7.518 -0.3223 -0.7475  0.3716
   54MOL0     C 7024   2.266   9.495   7.509  0.2318  0.1712  0.1097
   54MOL0     C 7025   2.149   9.463   7.596 -0.4156  0.1207  0.8275
   54MOL0     O 7026   2.060   9.555   7.639 -0.0612 -0.2704 -0.0820
   54MOL0     C 7027   1.939   9.517   7.696  0.2777  0.2542  0.1757
   54MOL0     C 7028   1.866   9.395   7.669 -0.1331  0.0482  0.1687
   54MOL0     C 7029   1.740   9.366   7.728 -1.2247  0.3674  0.6467
   54MOL0     C 7030   1.690   9.456   7.818  0.0066 -0.0230 -0.2108
   54MOL0     O 7031   1.586   9.437   7.895 -0.5972 -0.4805 -0.2068
   54MOL0     C 7032   1.490   9.329   7.869 -0.4284 -0.0350 -0.0384
   54MOL0     C 7033   1.366   9.370   7.937  0.4517  0.0502 -1.3206
   54MOL0     C 7034   1.244   9.270   7.915 -0.2922 -0.2175 -0.2482
   54MOL0     C 7035   1.124   9.301   8.011  0.4822  0.2425 -1.3991
   54MOL0     C 7036   1.169   9.305   8.158 -0.2168  0.4616 -0.9366
   54MOL0     C 7037   1.040   9.306   8.257 -0.0532 -0.5133 -0.0314
   54MOL0     C 7038   1.053   9.292   8.404 -0.5287  0.0225 -0.7769
   54MOL0     C 7039   1.156   9.390   8.452 -0.3564 -1.1820  0.0440
   54MOL0    Cl 7040   1.102   9.557   8.423 -0.1763 -0.5263  0.2321
   54MOL0     C 7041   1.746   9.578   7.833 -0.9012 -0.0130  0.0433
   54MOL0     C 7042   1.864   9.619   7.770 -0.0838  0.7519  0.2852
   54MOL0     O 7043   2.137   9.343   7.613  0.3239 -0.0562 -0.3580
   54MOL0     C 7044   2.322   9.397   7.427 -0.1672  0.2510 -0.8267
   54MOL0     C 7045   2.441   9.432   7.355 -0.2508  0.5520  0.3227
   54MOL0     N 7046   3.109   9.740   7.130  0.0179  1.2178  0.0806
   54MOL0     N 7047   3.205   9.783   7.207  0.4575 -0.4182  0.1291
   54MOL0     C 7048   4.507  10.094   7.416  0.4576 -1.6621 -0.1270
   54MOL0     C 7049   4.645  10.101   7.382  0.0901  1.1344 -0.1469
   54MOL0     C 7050   5.042  10.149   7.213 -0.2042 -0.4198 -0.2617
   54MOL0     C 7051   5.107  10.275   7.177 -0.1908  0.4094  0.0062
   54MOL0     C 7052   5.227  10.261   7.107 -0.3699 -0.1512  0.4862
   54MOL0     C 7053   5.303  10.143   7.078 -0.2881 -0.2793 -0.2105
   54MOL0     O 7054   5.421  10.162   6.999 -0.2854  0.8226 -0.5571
   54MOL0     C 7055   5.507  10.053   6.973  0.8227 -0.2159 -0.2619
   54MOL0     C 7056   5.645  10.100   6.925 -0.3936 -0.3985 -0.3541
   54MOL0     C 7057   5.751  10.062   7.022 -0.2184 -0.5876 -0.0675
   54MOL0     C 7058   5.818  10.175   7.097  0.5599  0.0527  0.4319
   54MOL0     C 7059   5.932  10.107   7.166  0.2987 -0.1474  0.7596
   54MOL0     C 7060   6.035  10.087   7.223  0.0895  0.8811  0.3459
   54MOL0     C 7061   5.240  10.025   7.118  0.6994  0.8005 -0.0173
   54MOL0     C 7062   5.109  10.028   7.178 -0.8212  0.0607  1.2270
   54MOL0     H 7063   4.641   9.934   7.089  0.1500 -1.1154  0.0438
   54MOL0     H 7064   4.405   9.899   7.167 -1.2502  1.3321  0.4656
   54MOL0     H 7065   4.252   9.816   7.309  1.9983  2.4433 -0.7027
   54MOL0     H 7066   4.170   9.959   7.244  0.2105 -0.1629  0.4471
   54MOL0     H 7067   4.021   9.958   7.453 -3.0870 -0.2395 -5.2488
   54MOL0     H 7068   4.112   9.815   7.511 -0.7597 -1.4491 -0.9043
   54MOL0     H 7069   4.044   9.698   7.303  1.3788  1.2273 -0.6793
   54MOL0     H 7070   3.969   9.820   7.242 -1.0619 -1.2540  0.3877
   54MOL0     H 7071   3.874   9.676   7.488  1.6932 -1.7004 -1.3427
   54MOL0     H 7072   3.819   9.847   7.454 -0.7964  0.0271 -1.2317
   54MOL0     H 7073   3.768   9.616   7.258 -1.3428 -0.7753 -0.5794
   54MOL0     H 7074   3.747   9.786   7.232 -1.7419 -0.3008  0.1784
   54MOL0     H 7075   3.606   9.813   7.426 -1.0638 -0.3069  0.0079
   54MOL0     H 7076   3.625   9.638   7.459  2.2913 -1.7129 -0.2647
   54MOL0     H 7077   3.493   9.788   7.229  0.1904  1.7708  0.7896
   54MOL0     H 7078   3.509   9.611   7.222  2.3741  0.6525 -0.9631
   54MOL0     H 7079   3.356   9.770   7.450 -2.3733  0.1853  1.2539
   54MOL0     H 7080   3.387   9.596   7.433  4.2612  0.4481 -0.9861
   54MOL0     H 7081   3.191   9.466   7.284 -2.2346  0.4246  1.2171
   54MOL0     H 7082   3.003   9.416   7.072 -1.6717  0.3048 -5.9385
   54MOL0     H 7083   2.979   9.557   6.974  1.0341 -1.7361 -0.3084
   54MOL0     H 7084   2.767   9.527   7.082  2.3466 -3.6212 -0.2510
   54MOL0     H 7085   2.849   9.667   7.140 -0.7429 -0.1505  0.5061
   54MOL0     H 7086   2.817   9.405   7.280  1.5808 -1.3365  3.4894
   54MOL0     H 7087   2.933   9.519   7.343  1.3807  1.6845 -1.6447
   54MOL0     H 7088   2.738   9.693   7.377  0.1240  0.3978 -2.7882
   54MOL0     H 7089   2.712   9.541   7.459  0.3516  2.9351  1.9852
   54MOL0     H 7090   2.482   9.750   7.455  0.8012 -0.5682 -1.6685
   54MOL0     H 7091   2.281   9.701   7.585 -1.3469 -0.9409 -0.0623
   54MOL0     H 7092   1.900   9.318   7.600 -1.1207  0.8273 -1.2348
   54MOL0     H 7093   1.702   9.267   7.703  0.6695 -0.1002 -0.6479
   54MOL0     H 7094   1.527   9.231   7.901  2.0126  0.4789 -1.0316
   54MOL0     H 7095   1.468   9.310   7.763  1.0118 -0.1203 -0.3487
   54MOL0     H 7096   1.328   9.464   7.897 -0.3662  0.2686 -0.0673
   54MOL0     H 7097   1.397   9.389   8.040 -1.1896  0.3693 -0.8538
   54MOL0     H 7098   1.288   9.176   7.948  3.3467  2.3563  3.1934
   54MOL0     H 7099   1.206   9.267   7.812  1.4620 -2.4981 -0.8904
   54MOL0     H 7100   1.071   9.394   7.987  0.7342  0.9709  0.6466
   54MOL0     H 7101   1.049   9.222   8.002 -0.1019  0.2668  1.9752
   54MOL0     H 7102   1.226   9.394   8.185 -1.4985  1.0697 -0.1531
   54MOL0     H 7103   1.237   9.219   8.163 -1.0448 -0.1477  1.2665
   54MOL0     H 7104   0.980   9.219   8.226 -1.5600  0.8731 -1.1779
   54MOL0     H 7105   0.984   9.396   8.232  1.7130  0.8594  0.7592
   54MOL0     H 7106   0.961   9.307   8.461 -1.1787  5.0507 -2.6102
   54MOL0     H 7107   1.076   9.187   8.425 -2.5721 -0.8234 -2.4082
   54MOL0     H 7108   1.256   9.383   8.409  1.0048  2.5732  2.1996
   54MOL0     H 7109   1.166   9.365   8.558  1.7335  2.2458  0.7719
   54MOL0     H 7110   1.704   9.652   7.900 -0.6717  1.9359 -1.8417
   54MOL0     H 7111   1.898   9.721   7.784  1.7042  0.4394 -1.3125
   54MOL0     H 7112   2.287   9.294   7.422  0.2629  0.0062  0.5872
   54MOL0     H 7113   2.493   9.362   7.291  1.3019  1.5974  0.3757
   54MOL0     H 7114   4.459  10.140   7.501  0.1990 -5.4043  1.9479
   54MOL0     H 7115   4.716  10.164   7.435 -0.4323  0.8243  0.9533
   54MOL0     H 7116   5.072  10.375   7.198  2.3917  1.4188 -0.1173
   54MOL0     H 7117   5.271  10.347   7.059 -1.5991 -0.8858 -2.1053
   54MOL0     H 7118   5.462   9.982   6.903  0.7788 -3.0364  2.4041
   54MOL0     H 7119   5.518   9.997   7.066 -0.4298 -0.7394 -0.4038
   54MOL0     H 7120   5.661  10.060   6.824  0.1672  1.6281 -1.1048
   54MOL0     H 7121   5.643  10.208   6.911  2.9676 -0.2033 -0.2614
   54MOL0     H 7122   5.826  10.010   6.962  0.5193  0.4175 -0.0515
   54MOL0     H 7123   5.721   9.990   7.098  1.3656 -0.2559  0.9131
   54MOL0     H 7124   5.861  10.255   7.036  2.5134 -0.0286  1.6237
   54MOL0     H 7125   5.753  10.222   7.171  0.3107  1.2040 -0.4869
   54MOL0     H 7126   6.118  10.079   7.291  1.5412  3.2360 -0.9862
   54MOL0     H 7127   5.290   9.930   7.108 -2.7146 -1.4585  2.1084
   54MOL0     H 7128   5.053   9.937   7.194 -1.2075  0.1725  0.5682
   55MOL0     O 7129   4.253   1.190   2.734  0.3025 -0.4846 -0.0448
   55MOL0     C 7130   4.207   1.292   2.788  0.4416 -0.8736 -0.6232
   55MOL0     O 7131   4.117   1.387   2.737  0.1143 -0.2619  0.1407
   55MOL0     C 7132   4.054   1.370   2.611  0.5299  0.4443 -0.3417
   55MOL0     C 7133   3.974   1.477   2.572 -0.2723 -0.0954  0.8588
   55MOL0     C 7134   3.897   1.472   2.460  0.3153 -1.1070 -0.6727
   55MOL0     C 7135   3.898   1.363   2.374 -0.1088  1.1686 -0.3314
   55MOL0     O 7136   3.832   1.352   2.254 -0.4806 -0.5626  0.3570
   55MOL0     C 7137   3.770   1.464   2.193 -0.4822  0.5982  0.0663
   55MOL0     C 7138   3.713   1.427   2.048 -0.5414 -0.6707 -0.3715
   55MOL0     C 7139   3.675   1.553   1.976  0.1148 -0.3545  0.2852
   55MOL0     C 7140   3.607   1.508   1.848 -0.7531  0.1935 -0.4601
   55MOL0     C 7141   3.575   1.629   1.758  1.0043  0.4669  0.6709
   55MOL0     C 7142   3.495   1.586   1.639 -1.0304 -0.2756 -0.2100
   55MOL0     C 7143   3.493   1.697   1.533  0.2970 -0.0879 -0.0486
   55MOL0     C 7144   3.424   1.640   1.402  0.0542 -0.6511  0.8407
   55MOL0     N 7145   3.381   1.751   1.314  0.8376 -0.7383  0.4999
   55MOL0     C 7146   3.466   1.845   1.254  0.8778  0.3418 -0.3859
   55MOL0     C 7147   3.392   1.910   1.152  0.2196  0.1843 -0.4719
   55MOL0     C 7148   3.427   2.053   1.108 -0.3220  0.2442  0.4833
   55MOL0     C 7149   3.318   2.108   1.017  0.4851  0.2087 -0.1228
   55MOL0     C 7150   3.200   2.164   1.104  0.3510 -0.5581  1.4245
   55MOL0     C 7151   3.199   2.309   1.123 -0.6559  0.1854 -0.0265
   55MOL0     O 7152   3.095   2.355   1.212 -0.7517  0.0323 -0.3201
   55MOL0     C 7153   2.970   2.397   1.169 -0.4978 -0.1384 -0.6100
   55MOL0     C 7154   2.917   2.382   1.043  0.4465  0.9806 -0.5787
   55MOL0     C 7155   2.787   2.421   1.000 -0.3632 -0.2568 -0.4567
   55MOL0     C 7156   2.697   2.469   1.100  0.9399 -0.9754  0.3597
   55MOL0     C 7157   2.564   2.521   1.056 -0.6716  0.8156 -0.2309
   55MOL0     O 7158   2.524   2.483   0.926  0.2575  0.3750  0.0393
   55MOL0     C 7159   2.398   2.441   0.891  0.6049  0.1809  0.1410
   55MOL0     C 7160   2.389   2.362   0.776  0.4298 -0.4002 -0.0134
   55MOL0     C 7161   2.266   2.332   0.720 -0.7441  0.5879 -0.7698
   55MOL0     C 7162   2.145   2.368   0.785 -0.4347  0.0067  0.2661
   55MOL0     O 7163   2.037   2.310   0.720  0.0179  0.3738  0.1399
   55MOL0     C 7164   1.908   2.334   0.785 -0.2287  0.5239 -0.1376
   55MOL0     C 7165   1.809   2.227   0.739 -0.2831 -1.1008  0.0347
   55MOL0     C 7166   1.674   2.220   0.821  0.2273 -0.0512 -0.7336
   55MOL0     C 7167   1.596   2.344   0.809  0.6358 -0.3314 -0.5964
   55MOL0     C 7168   1.448   2.340   0.847 -0.6022  0.9823 -0.4819
   55MOL0     C 7169   1.398   2.467   0.901 -0.7244 -0.4557 -0.2319
   55MOL0     C 7170   1.276   2.450   0.991 -1.4065  0.6305 -0.5020
   55MOL0     C 7171   1.145   2.466   0.912 -0.2666  0.1827 -0.5396
   55MOL0    Cl 7172   1.002   2.426   1.022 -0.1895  0.2521  0.3074
   55MOL0     C 7173   2.153   2.451   0.895  0.1492  0.4848 -0.0972
   55MOL0     C 7174   2.279   2.483   0.946  0.4035  0.4191  0.2280
   55MOL0     O 7175   2.502   2.585   1.134  0.1195 -0.6546  0.4335
   55MOL0     C 7176   2.744   2.478   1.229  0.4310  0.3486  0.5020
   55MOL0     C 7177   2.877   2.440   1.263  0.6301 -1.2583 -0.6848
   55MOL0     N 7178   3.271   1.844   1.141 -0.9691  0.0595 -0.1739
   55MOL0     N 7179   3.264   1.757   1.242 -0.1951  0.5072  0.1435
   55MOL0     C 7180   3.964   1.252   2.414  0.1476  1.3359 -1.4282
   55MOL0     C 7181   4.045   1.249   2.529 -0.2659  0.0979  0.3912
   55MOL0     C 7182   4.293   1.336   2.914  0.0187  0.3641  0.5993
   55MOL0     C 7183   4.234   1.436   2.993 -0.5055  1.1967 -0.2339
   55MOL0     C 7184   4.297   1.480   3.108  0.0965 -0.0150  0.3962
   55MOL0     C 7185   4.429   1.437   3.147 -0.1077  0.2882  0.5049
   55MOL0     O 7186   4.490   1.516   3.243  0.6943 -0.5442  0.1778
   55MOL0     C 7187   4.624   1.482   3.266  1.1328  1.2140 -0.3725
   55MOL0     C 7188   4.717   1.598   3.288 -0.0058  0.1438 -1.7862
   55MOL0     C 7189   4.676   1.677   3.405 -0.3650  0.1499 -0.0978
   55MOL0     C 7190   4.658   1.834   3.372 -0.8818 -0.5821 -0.2740
   55MOL0     C 7191   4.524   1.854   3.309 -0.0287 -1.7190  1.0506
   55MOL0     C 7192   4.405   1.876   3.295  0.0078 -0.0001  0.8669
   55MOL0     C 7193   4.479   1.333   3.075 -0.1674 -0.5917 -0.5828
   55MOL0     C 7194   4.421   1.281   2.955  0.7402 -0.2490 -0.2373
   55MOL0     H 7195   3.970   1.567   2.632 -3.5229 -0.1402  0.8825
   55MOL0     H 7196   3.830   1.554   2.436  0.5777 -1.4585 -2.8236
   55MOL0     H 7197   3.850   1.538   2.178  2.3575 -2.0363  1.1400
   55MOL0     H 7198   3.688   1.497   2.257  0.8402  1.1030  1.5521
   55MOL0     H 7199   3.619   1.373   2.062 -1.9418  2.3062  4.0057
   55MOL0     H 7200   3.789   1.372   1.991  0.6820  0.1313  0.4217
   55MOL0     H 7201   3.749   1.628   1.946 -1.8573  0.8213 -1.9536
   55MOL0     H 7202   3.595   1.602   2.032 -2.0886 -4.1113  0.7770
   55MOL0     H 7203   3.666   1.444   1.782 -0.0296  1.6192 -1.2428
   55MOL0     H 7204   3.511   1.463   1.877 -1.2041  1.3035 -0.1778
   55MOL0     H 7205   3.665   1.682   1.727  1.6670 -0.0977  1.5989
   55MOL0     H 7206   3.529   1.702   1.826 -2.3102  0.3317 -1.1999
   55MOL0     H 7207   3.394   1.552   1.663 -1.6881  0.8995 -1.2369
   55MOL0     H 7208   3.546   1.504   1.586  0.3560  0.8988 -0.7528
   55MOL0     H 7209   3.445   1.783   1.581  0.2026 -1.6513  2.8653
   55MOL0     H 7210   3.596   1.729   1.514  0.9366 -1.4176  1.0066
   55MOL0     H 7211   3.342   1.572   1.428  0.1867 -0.6024  1.4064
   55MOL0     H 7212   3.501   1.586   1.347 -3.2306 -3.1672 -1.7183
   55MOL0     H 7213   3.566   1.863   1.290  1.2366  0.7225 -1.5228
   55MOL0     H 7214   3.523   2.050   1.054  0.0856  2.2549  1.0297
   55MOL0     H 7215   3.445   2.119   1.193  0.4925  1.8659 -0.8902
   55MOL0     H 7216   3.277   2.025   0.959 -0.4750  0.8925 -0.4580
   55MOL0     H 7217   3.357   2.180   0.945  3.5176 -1.9765 -0.8374
   55MOL0     H 7218   3.110   2.137   1.048  1.4673  1.5014 -1.5879
   55MOL0     H 7219   3.197   2.122   1.206 -1.5814 -0.8230  1.2975
   55MOL0     H 7220   3.192   2.368   1.031  3.9427  0.4051 -0.4346
   55MOL0     H 7221   3.291   2.348   1.167 -2.7624  2.1844  3.1240
   55MOL0     H 7222   2.980   2.333   0.969 -2.0653 -0.6385 -1.8073
   55MOL0     H 7223   2.769   2.416   0.893  0.7130  0.5303 -0.6938
   55MOL0     H 7224   2.479   2.334   0.721  0.5227  0.3566 -0.2595
   55MOL0     H 7225   2.263   2.274   0.628  1.5155  2.1362 -1.8982
   55MOL0     H 7226   1.875   2.431   0.747  1.6847  1.3227  0.1393
   55MOL0     H 7227   1.923   2.331   0.894  2.6443  1.6744 -0.4309
   55MOL0     H 7228   1.865   2.135   0.758  1.2909 -0.0827  0.5285
   55MOL0     H 7229   1.795   2.229   0.630 -0.9964  2.8050  0.0626
   55MOL0     H 7230   1.698   2.190   0.923  2.5443 -2.6336 -1.8930
   55MOL0     H 7231   1.622   2.133   0.780 -2.7316  1.0563  0.4592
   55MOL0     H 7232   1.660   2.414   0.863  0.8084  1.0380 -2.4796
   55MOL0     H 7233   1.605   2.377   0.705 -0.0402 -2.0538 -1.2302
   55MOL0     H 7234   1.434   2.262   0.923 -0.8936  1.4344 -0.0700
   55MOL0     H 7235   1.384   2.325   0.760  1.2323  3.9558 -2.5324
   55MOL0     H 7236   1.384   2.536   0.817  1.6565  0.0538 -0.2797
   55MOL0     H 7237   1.481   2.503   0.962 -1.9688  1.2672  0.5734
   55MOL0     H 7238   1.289   2.361   1.053 -0.4432 -0.1598 -1.7694
   55MOL0     H 7239   1.283   2.543   1.047 -0.9204  0.2199  0.1305
   55MOL0     H 7240   1.137   2.398   0.827 -0.7770  1.9689 -1.9873
   55MOL0     H 7241   1.135   2.567   0.872  0.0543  0.1556 -0.6905
   55MOL0     H 7242   2.064   2.490   0.944 -0.4457 -2.6499  1.5554
   55MOL0     H 7243   2.282   2.546   1.034  0.4370  2.9955 -1.5191
   55MOL0     H 7244   2.677   2.521   1.303 -2.3302 -2.0686 -0.4108
   55MOL0     H 7245   2.911   2.462   1.364 -1.8681  2.0077 -0.3558
   55MOL0     H 7246   3.962   1.159   2.357  2.3697 -0.6512  1.4455
   55MOL0     H 7247   4.107   1.164   2.556 -1.3627 -0.4703  1.1828
   55MOL0     H 7248   4.138   1.481   2.970 -0.6135  0.7243 -0.7359
   55MOL0     H 7249   4.252   1.556   3.171  0.2405  0.1133  0.3432
   55MOL0     H 7250   4.676   1.445   3.177 -1.0301 -4.2971  0.2818
   55MOL0     H 7251   4.619   1.406   3.344  1.6814 -0.3568 -1.8130
   55MOL0     H 7252   4.824   1.578   3.298 -0.1390  0.6236  2.6596
   55MOL0     H 7253   4.711   1.650   3.192 -1.9009  0.3314 -1.6020
   55MOL0     H 7254   4.737   1.651   3.492  0.1878 -0.1704 -0.5727
   55MOL0     H 7255   4.582   1.639   3.445  1.1709  0.3791  4.2304
   55MOL0     H 7256   4.661   1.892   3.465 -1.1205  1.7240 -1.6464
   55MOL0     H 7257   4.731   1.879   3.304 -1.3573 -1.0906 -1.1436
   55MOL0     H 7258   4.299   1.890   3.300  0.1771  1.1887  1.5588
   55MOL0     H 7259   4.577   1.300   3.108  0.7388 -0.3430 -2.8810
   55MOL0     H 7260   4.472   1.198   2.908 -0.5005 -2.4643  2.0943
   56MOL0     O 7261   7.798   9.830   8.071  0.9229 -0.7163  0.1072
   56MOL0     C 7262   7.907   9.773   8.064  0.6720  0.1977 -0.0459
   56MOL0     O 7263   7.951   9.711   7.957  0.7535  0.8718  0.0512
   56MOL0     C 7264   7.858   9.691   7.854  0.0830 -0.9982  0.6492
   56MOL0     C 7265   7.863   9.775   7.742 -0.5260  0.1868 -0.2727
   56MOL0     C 7266   7.764   9.766   7.646 -0.5416 -1.1470 -0.0424
   56MOL0     C 7267   7.669   9.665   7.648  0.6905 -0.1839 -1.0279
   56MOL0     O 7268   7.579   9.657   7.544 -1.1856 -0.6864 -0.2682
   56MOL0     C 7269   7.446   9.599   7.571 -0.0969 -0.7511 -0.1615
   56MOL0     C 7270   7.357   9.675   7.676 -0.6227 -0.1577 -0.1133
   56MOL0     C 7271   7.250   9.580   7.736 -0.2082 -0.0050 -1.0011
   56MOL0     C 7272   7.173   9.637   7.856 -0.1145 -0.8228  0.6869
   56MOL0     C 7273   7.046   9.570   7.884  0.2051  0.3073  0.5075
   56MOL0     C 7274   7.056   9.421   7.915 -0.6096 -0.1967  0.2404
   56MOL0     C 7275   6.919   9.361   7.953  0.1032  0.1764 -0.2996
   56MOL0     C 7276   6.876   9.405   8.089  0.4894  0.2065 -0.5205
   56MOL0     N 7277   6.759   9.333   8.137 -0.6794  0.0714 -0.5683
   56MOL0     C 7278   6.755   9.256   8.248 -0.1502 -1.0341  0.1688
   56MOL0     C 7279   6.627   9.222   8.261  0.7526  0.1801 -0.9535
   56MOL0     C 7280   6.566   9.132   8.372  0.5014 -0.3772  0.1716
   56MOL0     C 7281   6.417   9.097   8.351  0.0382 -0.0253  0.8723
   56MOL0     C 7282   6.370   9.009   8.462  0.3084 -0.2718  0.5964
   56MOL0     C 7283   6.215   8.984   8.471 -0.4866  0.3030  0.1355
   56MOL0     O 7284   6.148   9.099   8.525  0.5054  0.6823 -0.4788
   56MOL0     C 7285   6.034   9.086   8.590  0.7982 -0.3191 -0.3167
   56MOL0     C 7286   5.940   8.983   8.555 -0.1393 -0.0132 -0.2497
   56MOL0     C 7287   5.811   8.979   8.605  0.6801 -0.1491 -0.1665
   56MOL0     C 7288   5.764   9.081   8.694  0.5110 -0.5063  0.8715
   56MOL0     C 7289   5.621   9.082   8.730 -0.1675 -0.2267  0.0482
   56MOL0     O 7290   5.547   8.961   8.718 -0.2884  0.1824 -0.1336
   56MOL0     C 7291   5.409   8.964   8.750 -0.1280 -0.7712 -0.8068
   56MOL0     C 7292   5.334   9.046   8.675  1.0725  0.1117 -0.2239
   56MOL0     C 7293   5.189   9.038   8.681 -0.9769  1.1455 -0.3923
   56MOL0     C 7294   5.129   8.955   8.771 -0.3249  0.3248  0.2414
   56MOL0     O 7295   4.999   8.945   8.786 -0.8434  0.0298  0.9705
   56MOL0     C 7296   4.938   8.904   8.666  0.0124  0.5284  0.0691
   56MOL0     C 7297   4.849   9.025   8.632  1.1906 -0.4617  0.5719
   56MOL0     C 7298   4.743   9.060   8.744 -0.5223 -0.2543  0.5009
   56MOL0     C 7299   4.618   9.135   8.696  0.1408 -0.3400 -0.2543
   56MOL0     C 7300   4.648   9.288   8.677 -0.5249  0.2087 -0.8006
   56MOL0     C 7301   4.694   9.347   8.808  0.0187 -0.2383 -0.3718
   56MOL0     C 7302   4.660   9.493   8.817  0.5215 -0.1826  0.0662
   56MOL0     C 7303   4.721   9.569   8.934  0.1607 -0.1812  0.0898
   56MOL0    Cl 7304   4.659   9.746   8.923 -0.9541  0.0050 -0.9047
   56MOL0     C 7305   5.206   8.883   8.864 -0.0979 -0.1484  0.6022
   56MOL0     C 7306   5.348   8.884   8.849 -0.0467 -0.0715 -0.6966
   56MOL0     O 7307   5.580   9.182   8.785  0.3698  0.3291 -0.1230
   56MOL0     C 7308   5.862   9.171   8.733 -0.6433  0.1160 -0.4621
   56MOL0     C 7309   5.994   9.175   8.691  0.2630  0.1638  0.2541
   56MOL0     N 7310   6.555   9.273   8.154 -0.3956  0.1398  0.2630
   56MOL0     N 7311   6.640   9.343   8.085 -0.3029  0.4793  0.4547
   56MOL0     C 7312   7.668   9.570   7.752 -0.5102 -0.0868 -0.0942
   56MOL0     C 7313   7.765   9.586   7.855  0.4914  0.0621 -0.6832
   56MOL0     C 7314   7.984   9.762   8.173 -0.3052 -0.6083  0.6855
   56MOL0     C 7315   7.934   9.796   8.300 -0.2293  0.0093 -0.3250
   56MOL0     C 7316   8.003   9.770   8.412 -0.0459  0.1071 -0.0510
   56MOL0     C 7317   8.131   9.707   8.403  0.5346 -0.2146  0.8781
   56MOL0     O 7318   8.213   9.675   8.507  0.2505  0.3263 -0.7494
   56MOL0     C 7319   8.172   9.710   8.639  0.1379  0.0989  0.9574
   56MOL0     C 7320   8.250   9.628   8.751  0.3092 -0.6370  0.2226
   56MOL0     C 7321   8.201   9.627   8.900 -0.2798  0.0762  0.0185
   56MOL0     C 7322   8.119   9.503   8.932  0.3416  0.0318  0.0037
   56MOL0     C 7323   8.191   9.385   8.958  0.8082 -0.1352 -0.6559
   56MOL0     C 7324   8.244   9.282   8.988 -0.0150  0.1042 -0.5386
   56MOL0     C 7325   8.188   9.684   8.270  0.2363  0.3980  0.2168
   56MOL0     C 7326   8.110   9.702   8.162  0.3905  1.1381  0.5132
   56MOL0     H 7327   7.951   9.838   7.741  1.6468 -2.6386  0.9257
   56MOL0     H 7328   7.769   9.834   7.562  0.7775  0.8633  1.5858
   56MOL0     H 7329   7.457   9.491   7.586  0.4393 -0.9160 -1.5712
   56MOL0     H 7330   7.383   9.616   7.483 -1.6680  3.3634  1.4957
   56MOL0     H 7331   7.307   9.762   7.631 -2.0362 -0.6106  0.5264
   56MOL0     H 7332   7.422   9.725   7.748 -0.4485  2.0144 -1.6587
   56MOL0     H 7333   7.299   9.488   7.772  1.0026  0.9410 -0.1232
   56MOL0     H 7334   7.183   9.556   7.653 -0.5933  1.4378 -1.1325
   56MOL0     H 7335   7.234   9.631   7.947 -0.6967  2.6334  1.4398
   56MOL0     H 7336   7.162   9.744   7.837  1.1968 -0.6979  0.5471
   56MOL0     H 7337   6.987   9.593   7.795  0.8660  2.3426  0.5375
   56MOL0     H 7338   7.013   9.614   7.979  1.3723 -0.3133  1.2263
   56MOL0     H 7339   7.133   9.417   7.992 -0.4566 -0.8195  0.0602
   56MOL0     H 7340   7.091   9.363   7.829  1.2793 -0.1118  0.9126
   56MOL0     H 7341   6.848   9.400   7.879 -2.3819 -0.4796  1.5865
   56MOL0     H 7342   6.917   9.252   7.953  2.0161  0.0813  1.6459
   56MOL0     H 7343   6.854   9.512   8.089 -0.9267 -0.0474  0.7674
   56MOL0     H 7344   6.948   9.386   8.169 -0.6109 -0.3437  0.3684
   56MOL0     H 7345   6.829   9.224   8.319 -1.8818 -0.1523  2.5078
   56MOL0     H 7346   6.585   9.183   8.467  0.7327  0.2348 -0.1961
   56MOL0     H 7347   6.624   9.040   8.381  0.8899 -0.5161 -2.7719
   56MOL0     H 7348   6.393   9.038   8.262  2.3940 -1.6103  1.1833
   56MOL0     H 7349   6.365   9.193   8.349  0.3875  0.1620  0.6347
   56MOL0     H 7350   6.423   8.914   8.447  2.7839  0.8279  1.8249
   56MOL0     H 7351   6.407   9.037   8.561  1.3222 -1.9091  0.7379
   56MOL0     H 7352   6.200   8.889   8.522 -1.1139  0.7579  0.8053
   56MOL0     H 7353   6.174   8.977   8.370 -2.8339 -1.1722  1.1079
   56MOL0     H 7354   5.968   8.902   8.490 -1.5158 -1.5918  1.0311
   56MOL0     H 7355   5.746   8.897   8.577  0.3970  0.5610 -1.6820
   56MOL0     H 7356   5.391   9.103   8.602  1.3672 -0.6044 -0.5629
   56MOL0     H 7357   5.134   9.088   8.603 -0.5834  1.5203 -0.4365
   56MOL0     H 7358   4.868   8.824   8.688  0.4841  0.8110  2.9111
   56MOL0     H 7359   5.010   8.877   8.588 -1.0918  1.5097 -1.3512
   56MOL0     H 7360   4.784   9.009   8.545  0.1912  0.8961  1.0439
   56MOL0     H 7361   4.907   9.106   8.588  1.2451 -0.3276  0.8956
   56MOL0     H 7362   4.790   9.114   8.828 -1.0604 -0.8178  1.1806
   56MOL0     H 7363   4.706   8.968   8.790  0.3018  0.3842  2.5698
   56MOL0     H 7364   4.586   9.085   8.604 -2.7764 -3.6268  2.2831
   56MOL0     H 7365   4.532   9.139   8.763 -0.4973  2.5983 -1.0817
   56MOL0     H 7366   4.556   9.336   8.643 -1.9055 -2.6704 -1.3691
   56MOL0     H 7367   4.727   9.308   8.604  1.4720  0.9740  1.4264
   56MOL0     H 7368   4.797   9.313   8.822 -0.0946 -0.6139 -0.4108
   56MOL0     H 7369   4.638   9.296   8.887  3.0530  0.4083  2.4034
   56MOL0     H 7370   4.683   9.542   8.722  0.1168 -0.5813 -0.2465
   56MOL0     H 7371   4.551   9.497   8.825  0.3887 -0.3340 -1.3597
   56MOL0     H 7372   4.829   9.556   8.923 -0.0318 -1.7790 -0.2206
   56MOL0     H 7373   4.682   9.526   9.027 -3.0635 -2.0199 -1.8907
   56MOL0     H 7374   5.168   8.810   8.935 -1.5979 -0.2406 -0.2591
   56MOL0     H 7375   5.410   8.809   8.897  1.0549  1.2340 -0.0062
   56MOL0     H 7376   5.832   9.243   8.808 -1.5708 -0.0855 -0.6290
   56MOL0     H 7377   6.053   9.258   8.727  2.8360 -0.8841 -1.2655
   56MOL0     H 7378   7.587   9.497   7.752  1.5848 -2.5712  0.2645
   56MOL0     H 7379   7.761   9.518   7.939  2.4175  1.0806  0.2978
   56MOL0     H 7380   7.840   9.844   8.325  0.5424  1.0566  0.6602
   56MOL0     H 7381   7.957   9.800   8.506  1.3537  1.3449  0.2837
   56MOL0     H 7382   8.067   9.679   8.646  0.2707 -0.5975  0.0258
   56MOL0     H 7383   8.179   9.817   8.658  0.2217 -0.1379  2.3416
   56MOL0     H 7384   8.238   9.527   8.712 -1.2895 -1.0438  1.6403
   56MOL0     H 7385   8.354   9.663   8.742 -0.1215  0.5921 -0.2765
   56MOL0     H 7386   8.142   9.718   8.916 -1.2066 -0.2859 -1.2014
   56MOL0     H 7387   8.287   9.626   8.967 -1.5360 -2.0493  1.7591
   56MOL0     H 7388   8.067   9.510   9.029 -3.1002  4.3510 -1.8012
   56MOL0     H 7389   8.054   9.481   8.847  0.3715 -0.3814  0.0867
   56MOL0     H 7390   8.281   9.181   8.993 -0.9148 -0.2378 -0.6246
   56MOL0     H 7391   8.291   9.651   8.270 -0.0884 -0.8682  2.4984
   56MOL0     H 7392   8.156   9.681   8.066  0.7086  0.4519  0.8051
   57MOL0     O 7393   6.781   8.829  10.215  0.8245  0.6846 -0.2204
   57MOL0     C 7394   6.754   8.943  10.173  0.2475  0.0164 -0.4801
   57MOL0     O 7395   6.838   9.030  10.123  0.4484  0.0182  0.0677
   57MOL0     C 7396   6.974   9.027  10.167  0.1618  0.2174 -0.1726
   57MOL0     C 7397   7.008   9.015  10.304  1.3245  0.0844  1.3259
   57MOL0     C 7398   7.133   9.021  10.353 -0.5472 -0.3513 -0.2212
   57MOL0     C 7399   7.241   9.041  10.268 -0.0345  0.2678  0.7136
   57MOL0     O 7400   7.368   9.036  10.315  0.1603  0.1176  0.1240
   57MOL0     C 7401   7.472   9.037  10.222  0.1371  1.7983  0.3483
   57MOL0     C 7402   7.522   8.888  10.172 -0.7333 -0.1575 -1.4414
   57MOL0     C 7403   7.517   8.777  10.281 -0.1084 -0.9950  0.2890
   57MOL0     C 7404   7.550   8.642  10.227  0.0301 -0.1184 -0.2420
   57MOL0     C 7405   7.670   8.628  10.139 -0.8622  0.5913 -0.0467
   57MOL0     C 7406   7.722   8.482  10.149 -0.1640  0.1469 -0.3125
   57MOL0     C 7407   7.641   8.390  10.063  0.1640  0.2286  0.4523
   57MOL0     C 7408   7.699   8.241  10.049 -0.1894  0.3107  0.6304
   57MOL0     N 7409   7.605   8.150   9.980 -0.2263 -0.4629 -0.0932
   57MOL0     C 7410   7.485   8.120  10.041  0.0623 -0.1024 -0.8155
   57MOL0     C 7411   7.419   8.046   9.942 -0.0367 -0.5672  0.0571
   57MOL0     C 7412   7.291   7.974   9.976 -0.1087  0.9213  0.2577
   57MOL0     C 7413   7.190   8.004   9.866 -0.4526 -0.6027 -0.8628
   57MOL0     C 7414   7.123   8.147   9.894 -0.3141 -0.6732  0.6313
   57MOL0     C 7415   7.013   8.190   9.792  0.5273 -0.3066  0.2337
   57MOL0     O 7416   6.907   8.095   9.800  0.4519  0.0512 -0.2375
   57MOL0     C 7417   6.795   8.147   9.740  0.6008  0.4338  0.1414
   57MOL0     C 7418   6.780   8.259   9.660  0.2632 -0.5242 -0.3713
   57MOL0     C 7419   6.652   8.293   9.630 -0.4804 -0.7740  1.5771
   57MOL0     C 7420   6.538   8.227   9.667 -0.0694 -0.5717 -0.7127
   57MOL0     C 7421   6.393   8.259   9.614 -0.4500  0.4044 -0.8340
   57MOL0     O 7422   6.293   8.172   9.664  0.2381  0.4814 -0.6875
   57MOL0     C 7423   6.164   8.219   9.690  0.4985 -0.4875  0.7975
   57MOL0     C 7424   6.129   8.356   9.693  1.2549  0.9128  0.6190
   57MOL0     C 7425   6.006   8.404   9.738 -0.1580  0.7872  0.2566
   57MOL0     C 7426   5.908   8.316   9.775  0.5577 -0.4749 -0.1475
   57MOL0     O 7427   5.789   8.377   9.820 -0.2070 -0.0605  0.5413
   57MOL0     C 7428   5.677   8.288   9.818 -0.8702 -0.6085 -0.8943
   57MOL0     C 7429   5.549   8.376   9.841 -0.3467  0.3149 -0.0090
   57MOL0     C 7430   5.411   8.298   9.852  0.2495 -0.4712  0.2406
   57MOL0     C 7431   5.296   8.407   9.853 -0.4896 -0.2820 -0.0253
   57MOL0     C 7432   5.159   8.339   9.884  0.2327 -0.1753 -1.0208
   57MOL0     C 7433   5.034   8.438   9.865 -0.6458  0.3799 -0.7565
   57MOL0     C 7434   4.903   8.365   9.881  0.5851  1.0173 -0.3879
   57MOL0     C 7435   4.791   8.472   9.903  0.8849 -0.5831 -0.4577
   57MOL0    Cl 7436   4.777   8.552   9.740  0.4261 -0.3754  0.0950
   57MOL0     C 7437   5.932   8.175   9.772  0.1583 -0.0192  0.6435
   57MOL0     C 7438   6.062   8.136   9.738 -0.5292  1.3608 -0.4205
   57MOL0     O 7439   6.376   8.343   9.528 -0.3233 -0.2444 -0.4579
   57MOL0     C 7440   6.547   8.116   9.746  0.1735 -0.6113  0.8522
   57MOL0     C 7441   6.674   8.073   9.776 -0.5191 -0.6668 -0.7378
   57MOL0     N 7442   7.499   8.021   9.836 -0.4629 -0.4184  0.2854
   57MOL0     N 7443   7.605   8.094   9.854  0.0139 -0.6856  0.1831
   57MOL0     C 7444   7.213   9.037  10.128  1.1459 -0.2963  0.1899
   57MOL0     C 7445   7.081   9.036  10.083 -0.0892  0.0153  0.0553
   57MOL0     C 7446   6.608   8.967  10.150  0.3686  0.2693 -0.6881
   57MOL0     C 7447   6.560   9.089  10.106  0.6088 -0.4439 -0.6534
   57MOL0     C 7448   6.431   9.110  10.065  0.8304  0.6896 -0.1449
   57MOL0     C 7449   6.345   8.999  10.084 -0.0318  0.3709  0.2660
   57MOL0     O 7450   6.211   9.016  10.057 -0.0888  0.3251 -0.0230
   57MOL0     C 7451   6.123   9.030  10.169 -1.0876 -0.3918 -1.5254
   57MOL0     C 7452   6.004   8.939  10.172 -0.9684  0.0369  0.5123
   57MOL0     C 7453   5.877   9.017  10.149 -0.0047  0.1879  0.3603
   57MOL0     C 7454   5.878   9.100  10.016 -0.3864  1.0172  0.1940
   57MOL0     C 7455   5.763   9.194  10.030 -0.1938  0.5466  0.8522
   57MOL0     C 7456   5.684   9.276  10.062  0.7825 -0.1081  0.5635
   57MOL0     C 7457   6.388   8.879  10.131  0.0145 -0.5859  0.3577
   57MOL0     C 7458   6.515   8.860  10.163 -0.1297  0.0644 -0.5869
   57MOL0     H 7459   6.923   9.015  10.372 -0.5172 -1.8328 -0.7927
   57MOL0     H 7460   7.152   9.020  10.460  0.3274  3.7224 -0.1904
   57MOL0     H 7461   7.554   9.074  10.284 -0.0087 -0.4994  2.0329
   57MOL0     H 7462   7.463   9.113  10.144 -0.1284  1.9289  0.5027
   57MOL0     H 7463   7.626   8.891  10.141  0.2876  0.4493  1.7039
   57MOL0     H 7464   7.465   8.857  10.083  0.0964 -2.3411 -1.2669
   57MOL0     H 7465   7.415   8.779  10.320 -0.2900  0.9657 -0.1836
   57MOL0     H 7466   7.592   8.794  10.358  0.1603 -1.4337  0.1241
   57MOL0     H 7467   7.565   8.579  10.315  0.4258  1.8705  1.1845
   57MOL0     H 7468   7.471   8.600  10.163  0.9177 -0.1222 -1.3674
   57MOL0     H 7469   7.758   8.679  10.178  2.4984 -2.7107 -2.5933
   57MOL0     H 7470   7.658   8.650  10.032  1.2218 -0.3250 -0.5114
   57MOL0     H 7471   7.723   8.442  10.251  1.9734 -2.0747 -1.1079
   57MOL0     H 7472   7.824   8.473  10.112  0.4120 -1.4249  1.4859
   57MOL0     H 7473   7.543   8.376  10.112  0.3732  1.5067  1.2870
   57MOL0     H 7474   7.631   8.436   9.964 -1.0078 -1.2512 -0.1527
   57MOL0     H 7475   7.738   8.206  10.145  0.2390  0.9184  0.6770
   57MOL0     H 7476   7.788   8.250   9.986 -1.4868  3.6603 -0.9424
   57MOL0     H 7477   7.449   8.156  10.136  0.8496 -0.8760 -0.1972
   57MOL0     H 7478   7.249   7.992  10.076  0.7790 -1.9254  1.2506
   57MOL0     H 7479   7.316   7.868   9.973  0.8956  1.1686 -1.4486
   57MOL0     H 7480   7.120   7.921   9.865 -0.1637 -0.9329 -4.0863
   57MOL0     H 7481   7.233   8.021   9.766  0.8794  0.3467 -0.1675
   57MOL0     H 7482   7.078   8.160   9.993  3.1240  2.8205  1.9870
   57MOL0     H 7483   7.204   8.220   9.898 -1.3021  0.5356 -0.4433
   57MOL0     H 7484   7.054   8.201   9.692  0.5158 -0.5042  0.2064
   57MOL0     H 7485   6.986   8.294   9.813  4.2186  1.3544 -2.2908
   57MOL0     H 7486   6.860   8.316   9.614  1.1802 -1.9611 -0.6460
   57MOL0     H 7487   6.643   8.375   9.559 -0.1654 -0.3547  2.0152
   57MOL0     H 7488   6.203   8.430   9.663  2.7740 -0.2450  1.3576
   57MOL0     H 7489   5.999   8.512   9.745 -0.0351  0.7157  1.8822
   57MOL0     H 7490   5.691   8.221   9.903 -0.1975  0.7081  0.0705
   57MOL0     H 7491   5.668   8.226   9.728 -2.2308 -1.2628 -0.3363
   57MOL0     H 7492   5.542   8.435   9.749  0.2879  1.7032  0.8151
   57MOL0     H 7493   5.564   8.436   9.931  0.9367  2.1032 -1.3464
   57MOL0     H 7494   5.408   8.242   9.946  1.2468 -0.5169  0.2561
   57MOL0     H 7495   5.404   8.232   9.766  1.9731 -0.5397  0.1149
   57MOL0     H 7496   5.322   8.487   9.924  1.4347  0.6662 -1.6905
   57MOL0     H 7497   5.306   8.455   9.755  1.6938  0.5491  0.5388
   57MOL0     H 7498   5.159   8.306   9.988  0.9690 -1.5145 -1.4125
   57MOL0     H 7499   5.156   8.250   9.820  2.0018  1.1163 -3.0315
   57MOL0     H 7500   5.042   8.480   9.764 -0.2425  0.0350 -0.8746
   57MOL0     H 7501   5.033   8.521   9.936 -1.0887 -1.3221  1.3561
   57MOL0     H 7502   4.877   8.298   9.798  2.3400  2.2901 -2.0692
   57MOL0     H 7503   4.902   8.302   9.970  0.3419  0.2824 -0.8965
   57MOL0     H 7504   4.816   8.546   9.980 -0.1870  0.1884 -0.8336
   57MOL0     H 7505   4.696   8.430   9.936  2.3092 -1.2472  3.2885
   57MOL0     H 7506   5.863   8.098   9.805 -0.4689  0.4316  0.4207
   57MOL0     H 7507   6.098   8.033   9.741  0.7856  1.7787 -1.0557
   57MOL0     H 7508   6.465   8.059   9.788  0.0893 -2.3748 -1.5190
   57MOL0     H 7509   6.690   7.985   9.837  0.5173 -1.1563 -1.6711
   57MOL0     H 7510   7.291   9.041  10.052  1.1619 -1.2192  0.1518
   57MOL0     H 7511   7.050   9.039   9.979  0.8752 -1.3822 -0.2920
   57MOL0     H 7512   6.631   9.169  10.089 -0.2939  0.6845  0.6717
   57MOL0     H 7513   6.395   9.207  10.033 -0.2349  0.6520  0.9027
   57MOL0     H 7514   6.108   9.138  10.175 -1.2486 -0.4694  2.5601
   57MOL0     H 7515   6.166   9.014  10.269  0.1413 -0.0456 -1.9801
   57MOL0     H 7516   6.016   8.861  10.096 -0.3253  1.2572 -0.6850
   57MOL0     H 7517   6.013   8.889  10.269  0.4970  2.5300  1.7730
   57MOL0     H 7518   5.852   9.064  10.245 -0.5875 -0.6074  0.6086
   57MOL0     H 7519   5.795   8.945  10.142 -1.0879  1.4000  0.0321
   57MOL0     H 7520   5.968   9.160  10.000 -0.2043  0.2656 -1.8221
   57MOL0     H 7521   5.874   9.038   9.926  0.8037 -2.6126  2.4076
   57MOL0     H 7522   5.624   9.358  10.097  1.0254  1.2143 -1.8789
   57MOL0     H 7523   6.336   8.784  10.143  0.3115 -1.1515 -2.2790
   57MOL0     H 7524   6.546   8.761  10.194  3.8547  1.3169  0.0506
   58MOL0     O 7525   0.497   2.959   4.984  0.3296 -0.4486 -0.2394
   58MOL0     C 7526   0.510   3.011   5.093 -0.4617 -0.2717 -0.6879
   58MOL0     O 7527   0.409   3.006   5.192 -0.2579  0.8057 -0.2373
   58MOL0     C 7528   0.288   2.939   5.177  1.1234 -0.6171 -0.5003
   58MOL0     C 7529   0.191   2.981   5.271 -0.0475  0.1941  0.3246
   58MOL0     C 7530   0.065   2.928   5.270 -0.3662 -0.3111  0.0678
   58MOL0     C 7531   0.034   2.819   5.181  0.1147 -0.0286 -0.6147
   58MOL0     O 7532  -0.090   2.748   5.168 -0.5862  0.4913  0.2803
   58MOL0     C 7533  -0.200   2.808   5.240  0.3057 -0.2527 -0.8061
   58MOL0     C 7534  -0.330   2.742   5.215  0.0759 -0.1606 -0.5754
   58MOL0     C 7535  -0.434   2.746   5.335  0.3322 -0.2694 -0.4152
   58MOL0     C 7536  -0.382   2.684   5.467 -0.7257 -0.4376  0.1918
   58MOL0     C 7537  -0.488   2.618   5.551  0.7312 -0.5321 -0.6339
   58MOL0     C 7538  -0.619   2.702   5.583  0.0833 -0.3314 -0.3494
   58MOL0     C 7539  -0.732   2.630   5.642 -0.3468  0.5511 -0.1603
   58MOL0     C 7540  -0.793   2.523   5.555  0.5467 -0.2061  0.1968
   58MOL0     N 7541  -0.937   2.512   5.600  0.0058  0.2068 -0.5494
   58MOL0     C 7542  -1.035   2.587   5.537 -0.0329  0.5506 -0.3014
   58MOL0     C 7543  -1.152   2.571   5.613 -1.0088  0.1964 -0.1722
   58MOL0     C 7544  -1.285   2.636   5.588 -0.1534  0.4886  0.7266
   58MOL0     C 7545  -1.311   2.707   5.717 -0.1599 -0.8746  0.4720
   58MOL0     C 7546  -1.452   2.781   5.723 -0.6125  0.0431  0.0433
   58MOL0     C 7547  -1.560   2.699   5.764  0.1053  0.3625  0.0294
   58MOL0     O 7548  -1.675   2.776   5.759 -0.1538  0.4397  0.0454
   58MOL0     C 7549  -1.783   2.726   5.838  0.2777  0.4894  0.9863
   58MOL0     C 7550  -1.844   2.817   5.928 -0.5995 -0.4184  1.0028
   58MOL0     C 7551  -1.954   2.773   6.004 -0.0011 -0.3668  0.4714
   58MOL0     C 7552  -2.012   2.643   5.996  0.9794  0.5369  1.2667
   58MOL0     C 7553  -2.130   2.606   6.072  0.4845 -0.1378 -1.5745
   58MOL0     O 7554  -2.159   2.472   6.073 -0.4771 -0.2242  0.3625
   58MOL0     C 7555  -2.269   2.427   6.146 -0.6422 -0.2252 -0.0815
   58MOL0     C 7556  -2.304   2.474   6.280  0.3198 -0.5686  0.1403
   58MOL0     C 7557  -2.402   2.428   6.357  1.0060 -0.2319  0.4080
   58MOL0     C 7558  -2.477   2.316   6.305  0.3924 -1.2006 -0.1839
   58MOL0     O 7559  -2.565   2.257   6.392  0.2159  0.2560 -0.0038
   58MOL0     C 7560  -2.536   2.117   6.415 -0.5023  0.7219 -0.3599
   58MOL0     C 7561  -2.664   2.039   6.389 -0.1807  0.0669 -0.6393
   58MOL0     C 7562  -2.644   1.891   6.360  1.2270 -0.0417 -0.2661
   58MOL0     C 7563  -2.773   1.822   6.399  0.4389  0.9145  0.1522
   58MOL0     C 7564  -2.781   1.681   6.343  0.1023  0.1115 -0.7129
   58MOL0     C 7565  -2.914   1.621   6.369  0.5380  0.4301 -0.2603
   58MOL0     C 7566  -2.913   1.482   6.326  0.3997  1.6601  1.5030
   58MOL0     C 7567  -3.035   1.389   6.366  0.2513  0.9655  1.0890
   58MOL0    Cl 7568  -3.036   1.369   6.533  0.3096  0.1302  0.2898
   58MOL0     C 7569  -2.459   2.276   6.170  0.5717 -1.1669 -0.2755
   58MOL0     C 7570  -2.355   2.342   6.090 -0.0444  0.0884 -0.3557
   58MOL0     O 7571  -2.174   2.696   6.147 -0.3242 -0.0784 -0.1736
   58MOL0     C 7572  -1.959   2.558   5.896 -0.9143 -0.4490  0.6347
   58MOL0     C 7573  -1.843   2.601   5.823 -0.3045 -0.3594 -0.2253
   58MOL0     N 7574  -1.116   2.480   5.710 -0.4328  0.3003 -0.1095
   58MOL0     N 7575  -0.993   2.439   5.698  1.0508 -0.6256 -1.0912
   58MOL0     C 7576   0.129   2.782   5.093 -1.1695  0.3309 -0.0013
   58MOL0     C 7577   0.257   2.840   5.077 -0.4893  0.7430 -1.6680
   58MOL0     C 7578   0.645   3.071   5.137  0.2409  0.6312  0.7255
   58MOL0     C 7579   0.660   3.109   5.266  0.6817 -0.1710 -0.6792
   58MOL0     C 7580   0.781   3.162   5.313 -0.1385 -0.5299 -0.4939
   58MOL0     C 7581   0.892   3.179   5.231 -0.5651  0.3775  0.9840
   58MOL0     O 7582   1.014   3.223   5.287  0.7755 -0.6779  0.4922
   58MOL0     C 7583   1.139   3.186   5.223 -0.2369  0.0359  0.1235
   58MOL0     C 7584   1.250   3.209   5.328  0.2973 -0.1887 -0.2900
   58MOL0     C 7585   1.291   3.357   5.336  0.5483  0.0842  0.4782
   58MOL0     C 7586   1.361   3.392   5.199  0.2181 -0.5134 -0.2813
   58MOL0     C 7587   1.453   3.497   5.238  0.4087 -0.3122  0.1343
   58MOL0     C 7588   1.515   3.596   5.276 -0.0780  0.3285 -0.1889
   58MOL0     C 7589   0.872   3.133   5.098  0.3945  0.3051  0.0511
   58MOL0     C 7590   0.750   3.084   5.045  0.1882 -0.1053  0.6431
   58MOL0     H 7591   0.225   3.062   5.335 -0.5431  0.7244 -0.0767
   58MOL0     H 7592  -0.004   2.957   5.348  0.3550 -0.3202  0.7206
   58MOL0     H 7593  -0.212   2.913   5.211 -1.2448  0.1755  1.2051
   58MOL0     H 7594  -0.190   2.804   5.349 -4.0191  1.1840 -0.1747
   58MOL0     H 7595  -0.321   2.636   5.190 -2.6428 -1.7988  4.1144
   58MOL0     H 7596  -0.380   2.798   5.135 -2.6189  0.0935  1.1606
   58MOL0     H 7597  -0.521   2.688   5.303 -1.0420  0.6784  1.4770
   58MOL0     H 7598  -0.482   2.840   5.361 -0.3569 -0.0235 -2.4398
   58MOL0     H 7599  -0.302   2.614   5.443 -0.1459  0.5125 -0.7442
   58MOL0     H 7600  -0.348   2.761   5.537 -0.5602 -1.4590  1.2593
   58MOL0     H 7601  -0.447   2.587   5.647  1.1831  1.8639 -0.0115
   58MOL0     H 7602  -0.519   2.524   5.504  0.0072 -0.1894 -0.8604
   58MOL0     H 7603  -0.659   2.745   5.492  0.5788 -0.7915 -0.7931
   58MOL0     H 7604  -0.593   2.797   5.630 -1.8797  1.0547 -1.9243
   58MOL0     H 7605  -0.688   2.587   5.733  1.0925  0.5841 -0.8193
   58MOL0     H 7606  -0.799   2.710   5.676 -1.0757  0.1480 -0.6226
   58MOL0     H 7607  -0.726   2.436   5.561  0.6684 -0.0073  2.3677
   58MOL0     H 7608  -0.794   2.554   5.450 -2.6138  1.2204  0.5238
   58MOL0     H 7609  -1.042   2.647   5.448  0.2653  1.0324 -0.0037
   58MOL0     H 7610  -1.359   2.557   5.574 -0.6206  1.0858 -0.2512
   58MOL0     H 7611  -1.285   2.698   5.498  1.8879  0.4815  0.6710
   58MOL0     H 7612  -1.234   2.783   5.730  1.8502 -2.8276  0.4829
   58MOL0     H 7613  -1.288   2.638   5.798  2.3782  1.2132  1.6801
   58MOL0     H 7614  -1.453   2.863   5.796  1.1545  1.5017 -1.4641
   58MOL0     H 7615  -1.462   2.827   5.624 -0.1194  1.6477  0.7029
   58MOL0     H 7616  -1.539   2.654   5.862  1.4273 -0.2968 -0.5289
   58MOL0     H 7617  -1.573   2.624   5.685 -1.4975  1.9958 -1.3230
   58MOL0     H 7618  -1.806   2.917   5.943 -1.3535 -0.2335  1.7393
   58MOL0     H 7619  -1.998   2.848   6.069 -1.4655 -0.2793 -0.5988
   58MOL0     H 7620  -2.240   2.552   6.321 -0.2577 -0.7855  1.5171
   58MOL0     H 7621  -2.433   2.466   6.453  0.1341  3.1276 -1.0698
   58MOL0     H 7622  -2.517   2.107   6.522 -2.1363 -2.4133 -0.2336
   58MOL0     H 7623  -2.455   2.083   6.350  1.7593  1.0322  2.1411
   58MOL0     H 7624  -2.714   2.067   6.297  0.7295  0.9812 -0.8721
   58MOL0     H 7625  -2.732   2.071   6.469 -1.6307  3.9678 -3.1326
   58MOL0     H 7626  -2.562   1.837   6.408  0.1006 -2.0139 -0.4422
   58MOL0     H 7627  -2.636   1.894   6.251 -0.6932  2.3931 -0.4238
   58MOL0     H 7628  -2.779   1.806   6.507 -1.4977  1.9203  0.2356
   58MOL0     H 7629  -2.858   1.882   6.365 -0.4638 -0.5449 -0.2489
   58MOL0     H 7630  -2.709   1.618   6.395 -1.2913 -0.5034  0.5604
   58MOL0     H 7631  -2.758   1.694   6.237 -1.2427  3.5322 -0.7347
   58MOL0     H 7632  -2.997   1.668   6.315 -0.5461 -2.1744 -1.0359
   58MOL0     H 7633  -2.935   1.627   6.477 -1.9055  0.8058 -0.6890
   58MOL0     H 7634  -2.912   1.488   6.216  1.8266  0.0541  1.3911
   58MOL0     H 7635  -2.819   1.433   6.350 -1.3997 -2.4933  0.9968
   58MOL0     H 7636  -3.030   1.290   6.320 -3.1457  1.2697 -0.2733
   58MOL0     H 7637  -3.127   1.438   6.330 -0.2548 -0.5336  0.2767
   58MOL0     H 7638  -2.524   2.203   6.122  0.5878 -0.3732 -1.5680
   58MOL0     H 7639  -2.319   2.298   5.997  2.8304 -2.3791  1.7247
   58MOL0     H 7640  -1.995   2.457   5.876 -0.1891 -1.5132  4.0971
   58MOL0     H 7641  -1.803   2.535   5.748 -0.2350  0.2296 -0.7137
   58MOL0     H 7642   0.093   2.702   5.028 -2.1297  0.8054 -0.0830
   58MOL0     H 7643   0.323   2.806   4.998  0.1518 -1.4205 -0.2969
   58MOL0     H 7644   0.578   3.097   5.336  1.0227 -2.6563 -0.5847
   58MOL0     H 7645   0.787   3.201   5.414 -2.4281 -0.0822 -0.4787
   58MOL0     H 7646   1.157   3.243   5.131 -1.1547 -0.0868 -0.1455
   58MOL0     H 7647   1.124   3.085   5.183 -3.4448  1.3016 -2.3067
   58MOL0     H 7648   1.203   3.174   5.420  0.7710 -0.1603 -0.0361
   58MOL0     H 7649   1.334   3.145   5.300  1.4258  0.8063  0.7068
   58MOL0     H 7650   1.360   3.379   5.418 -1.0751 -0.6314  2.0991
   58MOL0     H 7651   1.198   3.414   5.343  1.6549  2.4682 -2.1239
   58MOL0     H 7652   1.409   3.304   5.154 -0.0204 -0.8576  0.1309
   58MOL0     H 7653   1.282   3.432   5.134 -1.0178  4.8260  3.7945
   58MOL0     H 7654   1.577   3.679   5.303 -0.8260  0.5830  0.7948
   58MOL0     H 7655   0.954   3.151   5.029  0.3970  1.4869  0.3302
   58MOL0     H 7656   0.728   3.043   4.947 -1.4460 -2.7906  1.9847
   59MOL0     O 7657   2.971  11.001   0.609 -0.3002 -0.4843 -0.8129
   59MOL0     C 7658   3.005  11.118   0.606  0.0564 -0.1363 -0.3890
   59MOL0     O 7659   2.916  11.223   0.597 -0.1200 -0.2622 -0.5013
   59MOL0     C 7660   2.786  11.196   0.570  0.0295  0.3815  0.5227
   59MOL0     C 7661   2.741  11.107   0.463  0.4299 -0.2356 -0.1236
   59MOL0     C 7662   2.606  11.074   0.447 -0.3122  0.3303 -0.2225
   59MOL0     C 7663   2.507  11.146   0.519 -0.0202  0.5371  1.3149
   59MOL0     O 7664   2.378  11.111   0.504 -0.7314  0.1435 -0.2775
   59MOL0     C 7665   2.283  11.217   0.478 -0.7884 -0.9848  0.1109
   59MOL0     C 7666   2.156  11.152   0.416 -0.3357 -0.4021 -0.2504
   59MOL0     C 7667   2.095  11.056   0.509  0.5534  0.4523  0.1716
   59MOL0     C 7668   1.975  10.980   0.441  0.2995 -0.4160  0.1433
   59MOL0     C 7669   1.892  10.895   0.536  0.1470 -0.4060  0.3034
   59MOL0     C 7670   1.962  10.809   0.650 -0.5388 -0.0883  0.0592
   59MOL0     C 7671   1.884  10.681   0.689  0.2456 -0.7311 -0.2673
   59MOL0     C 7672   1.912  10.571   0.586  0.6898 -0.0093  0.5137
   59MOL0     N 7673   1.804  10.474   0.604  0.0055  0.4191 -0.3925
   59MOL0     C 7674   1.792  10.371   0.689  0.0952  0.5332 -0.2322
   59MOL0     C 7675   1.674  10.309   0.660  0.2889  0.8286 -0.2272
   59MOL0     C 7676   1.627  10.184   0.718 -0.3559 -0.1119  0.1723
   59MOL0     C 7677   1.506  10.215   0.807 -0.0286  0.8063 -0.7001
   59MOL0     C 7678   1.439  10.083   0.850  0.6638 -0.3771 -0.5492
   59MOL0     C 7679   1.333  10.090   0.965 -0.7117 -0.1498 -0.1602
   59MOL0     O 7680   1.304   9.956   1.011  0.3082 -0.5793 -0.2147
   59MOL0     C 7681   1.180   9.925   1.042 -0.5939  0.2355 -0.7716
   59MOL0     C 7682   1.157   9.789   1.057  0.3761  0.5387 -0.2596
   59MOL0     C 7683   1.026   9.726   1.073 -1.1937 -1.1047 -0.1151
   59MOL0     C 7684   0.925   9.813   1.099  0.0853  0.3496 -0.4066
   59MOL0     C 7685   0.792   9.768   1.121 -0.0834 -0.1375  0.5975
   59MOL0     O 7686   0.690   9.870   1.101  0.4024  0.2248 -0.3557
   59MOL0     C 7687   0.554   9.829   1.110 -0.2403  0.8794 -0.2869
   59MOL0     C 7688   0.507   9.733   1.025  0.1473  1.1936 -0.1859
   59MOL0     C 7689   0.375   9.685   1.024  0.6054 -0.5132  0.3865
   59MOL0     C 7690   0.288   9.728   1.131 -0.3481 -0.2952 -0.4559
   59MOL0     O 7691   0.163   9.679   1.126 -0.9678  0.7139  0.1450
   59MOL0     C 7692   0.070   9.700   1.234 -0.6592  0.2965  0.5337
   59MOL0     C 7693  -0.063   9.614   1.205  0.0621 -0.5056 -0.3603
   59MOL0     C 7694  -0.151   9.677   1.093 -0.6551 -0.3813 -0.2384
   59MOL0     C 7695  -0.282   9.611   1.087  0.2940  0.4121  0.6715
   59MOL0     C 7696  -0.363   9.695   0.981 -0.2022  1.1101  0.4434
   59MOL0     C 7697  -0.496   9.619   0.979 -0.0529 -0.1241  0.3649
   59MOL0     C 7698  -0.595   9.701   0.887  0.0532 -0.5721 -0.4741
   59MOL0     C 7699  -0.610   9.850   0.910 -1.0059 -0.7844 -0.4991
   59MOL0    Cl 7700  -0.758   9.922   0.829 -0.2842  0.3064  0.7543
   59MOL0     C 7701   0.342   9.835   1.216  0.3096 -0.2249  0.2184
   59MOL0     C 7702   0.472   9.881   1.207  0.5050 -0.3518 -0.4664
   59MOL0     O 7703   0.770   9.643   1.140 -0.0412  0.1428 -0.8240
   59MOL0     C 7704   0.950   9.950   1.097 -0.1867  0.2088 -0.6776
   59MOL0     C 7705   1.072  10.001   1.070 -0.3028 -0.3734 -0.0816
   59MOL0     N 7706   1.617  10.374   0.553  0.1484  0.0761 -0.0867
   59MOL0     N 7707   1.695  10.474   0.524  0.1384  0.3575 -0.0281
   59MOL0     C 7708   2.554  11.240   0.613 -0.0411 -0.4994  0.4873
   59MOL0     C 7709   2.687  11.267   0.635  0.3108  0.0073  0.5778
   59MOL0     C 7710   3.147  11.149   0.615  0.4674  0.9249 -0.7541
   59MOL0     C 7711   3.234  11.057   0.556  0.5228  0.3509  0.2270
   59MOL0     C 7712   3.371  11.084   0.563 -0.1091 -0.4361  0.2556
   59MOL0     C 7713   3.430  11.194   0.621  0.4158  0.5985 -0.2849
   59MOL0     O 7714   3.564  11.213   0.639 -0.3294 -0.4526 -0.4166
   59MOL0     C 7715   3.642  11.099   0.641 -0.4301 -0.5304  0.1992
   59MOL0     C 7716   3.754  11.114   0.743 -0.3607 -0.4026  0.1709
   59MOL0     C 7717   3.855  10.991   0.756 -0.5701  1.2084  0.6432
   59MOL0     C 7718   3.811  10.856   0.815  0.5198 -0.7137 -0.3220
   59MOL0     C 7719   3.760  10.859   0.955  0.0954 -0.0141 -1.2344
   59MOL0     C 7720   3.741  10.871   1.073  0.5013  0.2396  0.2501
   59MOL0     C 7721   3.333  11.288   0.672  0.1391 -0.7775 -1.1347
   59MOL0     C 7722   3.197  11.266   0.669  0.1457 -1.4755  0.1926
   59MOL0     H 7723   2.822  11.063   0.405  2.1023  1.6365  0.6588
   59MOL0     H 7724   2.554  11.005   0.381 -2.4996  0.5941  1.1200
   59MOL0     H 7725   2.331  11.283   0.405  0.3805 -2.6936 -0.7270
   59MOL0     H 7726   2.268  11.272   0.572 -1.2750 -0.0189 -0.5203
   59MOL0     H 7727   2.202  11.099   0.332 -0.6120  2.2747 -2.2222
   59MOL0     H 7728   2.103  11.241   0.381  1.6322  0.4395 -1.2542
   59MOL0     H 7729   2.062  11.120   0.591 -0.8412  0.2525 -0.2091
   59MOL0     H 7730   2.172  10.985   0.541 -0.5198 -0.8828 -0.0932
   59MOL0     H 7731   1.920  11.061   0.392  2.2470  0.1826 -1.1973
   59MOL0     H 7732   2.002  10.917   0.356 -1.0994 -0.6086 -0.1861
   59MOL0     H 7733   1.835  10.823   0.477 -0.3921 -0.9986  1.5287
   59MOL0     H 7734   1.823  10.967   0.581 -1.9139 -2.4215  0.4888
   59MOL0     H 7735   1.979  10.878   0.733 -0.8372 -0.0509  0.0901
   59MOL0     H 7736   2.057  10.772   0.611 -0.1114 -0.0424  1.0276
   59MOL0     H 7737   1.932  10.641   0.778  0.2648 -0.5448 -0.1922
   59MOL0     H 7738   1.777  10.704   0.693  0.8635  2.7578  0.1894
   59MOL0     H 7739   2.014  10.537   0.603  0.8782  0.1169 -0.3530
   59MOL0     H 7740   1.904  10.615   0.486 -1.5843 -0.1079  0.6006
   59MOL0     H 7741   1.856  10.345   0.773 -4.6867  0.0213  3.7458
   59MOL0     H 7742   1.701  10.124   0.771  0.7093 -1.8571 -3.0190
   59MOL0     H 7743   1.593  10.127   0.631  0.6509 -0.7923  0.2148
   59MOL0     H 7744   1.451  10.298   0.762  1.4672  2.2933  0.0882
   59MOL0     H 7745   1.536  10.247   0.908 -1.4174  0.4452 -0.1463
   59MOL0     H 7746   1.396  10.041   0.759  3.4786 -0.7681 -1.8033
   59MOL0     H 7747   1.521  10.016   0.878  0.9971 -0.1079 -0.8691
   59MOL0     H 7748   1.247  10.132   0.911 -1.4964 -1.8766 -0.3233
   59MOL0     H 7749   1.373  10.152   1.045  3.4920 -1.4041 -1.0447
   59MOL0     H 7750   1.235   9.713   1.052 -0.1279  0.0569 -1.1268
   59MOL0     H 7751   1.006   9.619   1.079 -1.9354 -0.8750  2.6599
   59MOL0     H 7752   0.567   9.693   0.944  0.5462  2.3067 -0.4554
   59MOL0     H 7753   0.341   9.602   0.963 -0.3708 -2.1680  2.9668
   59MOL0     H 7754   0.026   9.800   1.244 -1.1360  0.0073  1.3763
   59MOL0     H 7755   0.116   9.671   1.328 -0.5769  2.5717  1.2664
   59MOL0     H 7756  -0.124   9.605   1.296 -1.8442 -2.3730 -1.7275
   59MOL0     H 7757  -0.037   9.514   1.170  3.4081  0.3045 -0.5685
   59MOL0     H 7758  -0.090   9.677   1.002 -1.2814 -0.7117 -0.6659
   59MOL0     H 7759  -0.165   9.785   1.094  1.1220 -0.1032 -0.6895
   59MOL0     H 7760  -0.273   9.506   1.058 -2.5291  0.8951 -2.5830
   59MOL0     H 7761  -0.337   9.604   1.181 -2.8058  0.5340 -1.0074
   59MOL0     H 7762  -0.317   9.690   0.882 -2.1415  0.6217 -0.4643
   59MOL0     H 7763  -0.370   9.798   1.017  0.3184  1.3872 -0.2294
   59MOL0     H 7764  -0.551   9.613   1.074 -1.2068  0.8693 -0.2180
   59MOL0     H 7765  -0.484   9.521   0.932 -2.7245 -0.8533  1.0310
   59MOL0     H 7766  -0.557   9.686   0.785  3.0895 -2.4150  0.7976
   59MOL0     H 7767  -0.698   9.664   0.892  0.9179 -3.2585 -0.9635
   59MOL0     H 7768  -0.526   9.902   0.864 -3.0161 -0.1917 -3.8366
   59MOL0     H 7769  -0.622   9.867   1.017  0.0009 -0.4099 -0.4327
   59MOL0     H 7770   0.276   9.873   1.293  2.9136 -3.8856  4.7806
   59MOL0     H 7771   0.523   9.960   1.261  0.4984 -0.1211 -0.7925
   59MOL0     H 7772   0.871  10.024   1.106  0.6587  1.1830 -1.1456
   59MOL0     H 7773   1.081  10.109   1.061  1.4788 -0.3985  0.9921
   59MOL0     H 7774   2.486  11.300   0.672  1.7971  1.7169  0.5192
   59MOL0     H 7775   2.708  11.342   0.711  0.1277  0.7185 -0.0576
   59MOL0     H 7776   3.209  10.966   0.501  3.2208  2.0536 -4.3847
   59MOL0     H 7777   3.433  11.007   0.516  2.2106 -0.8459  3.6425
   59MOL0     H 7778   3.686  11.080   0.543 -0.2785 -0.8144  0.3207
   59MOL0     H 7779   3.588  11.005   0.658 -1.4617 -0.1999 -1.0550
   59MOL0     H 7780   3.813  11.204   0.720 -0.5779 -0.9761 -3.2140
   59MOL0     H 7781   3.703  11.130   0.838 -0.5344 -3.4060  0.6840
   59MOL0     H 7782   3.938  11.026   0.818  0.5910  0.0273 -0.2019
   59MOL0     H 7783   3.900  10.976   0.658 -0.7866  1.5022  0.4962
   59MOL0     H 7784   3.729  10.826   0.750 -2.3711  2.2759  1.6394
   59MOL0     H 7785   3.892  10.782   0.818  1.9503  0.7674 -0.7648
   59MOL0     H 7786   3.708  10.882   1.175  0.4025 -1.2619  0.3969
   59MOL0     H 7787   3.370  11.381   0.713 -1.7544  0.2109 -1.5202
   59MOL0     H 7788   3.126  11.342   0.702  0.1199 -1.2489 -0.3646
   60MOL0     O 7789   5.487  10.515   7.182  0.5171 -0.2857 -0.3378
   60MOL0     C 7790   5.545  10.597   7.113 -0.3763  0.1694  1.0411
   60MOL0     O 7791   5.489  10.666   7.010  0.0005 -0.5662 -0.2534
   60MOL0     C 7792   5.355  10.665   6.992 -0.2095  1.1383 -0.5202
   60MOL0     C 7793   5.280  10.734   7.075  0.0870 -0.6313  0.9089
   60MOL0     C 7794   5.146  10.747   7.051 -0.4065  0.0524 -0.6533
   60MOL0     C 7795   5.084  10.675   6.957 -0.0668  0.5625 -0.5389
   60MOL0     O 7796   4.948  10.682   6.957 -0.2614 -0.3967  0.5077
   60MOL0     C 7797   4.877  10.562   6.961  0.7508  0.4748  1.3094
   60MOL0     C 7798   4.723  10.588   6.995  0.0753 -0.1666  0.3067
   60MOL0     C 7799   4.639  10.467   7.000 -0.4632 -0.5574  0.5967
   60MOL0     C 7800   4.487  10.497   7.031 -0.7094  0.3257 -0.4969
   60MOL0     C 7801   4.405  10.388   7.104 -0.1693 -0.1054 -0.0734
   60MOL0     C 7802   4.262  10.375   7.029 -1.0011 -0.0689  0.1536
   60MOL0     C 7803   4.163  10.286   7.114  0.1460 -0.5043  0.3648
   60MOL0     C 7804   4.026  10.301   7.053 -0.1478 -0.5018  0.3006
   60MOL0     N 7805   3.933  10.214   7.131 -0.3904 -0.5536  0.2656
   60MOL0     C 7806   3.861  10.263   7.232 -0.3729 -0.0093  0.4249
   60MOL0     C 7807   3.810  10.150   7.294 -0.0326 -0.2750  0.8065
   60MOL0     C 7808   3.717  10.137   7.413 -1.2695  1.1766 -0.8009
   60MOL0     C 7809   3.577  10.164   7.397 -0.1386 -0.9416 -0.7003
   60MOL0     C 7810   3.509  10.074   7.292  0.0659  0.5974  0.6093
   60MOL0     C 7811   3.363  10.107   7.249 -0.3100  0.5570 -0.3203
   60MOL0     O 7812   3.276  10.106   7.371 -0.1429 -0.0932 -0.4890
   60MOL0     C 7813   3.147  10.117   7.350  1.1999 -0.5537  0.1290
   60MOL0     C 7814   3.092  10.238   7.291  0.5724  0.0127  0.8445
   60MOL0     C 7815   2.950  10.250   7.282 -0.2434 -0.7204  0.0681
   60MOL0     C 7816   2.867  10.148   7.329  0.3139 -0.1973  0.5437
   60MOL0     C 7817   2.716  10.169   7.328 -0.4650  0.4304 -0.4028
   60MOL0     O 7818   2.675  10.286   7.282 -0.1268  0.0887 -0.0319
   60MOL0     C 7819   2.533  10.293   7.284  0.1850 -0.0709 -0.8986
   60MOL0     C 7820   2.482  10.334   7.408  0.3959  0.6754 -0.2720
   60MOL0     C 7821   2.345  10.370   7.416  0.1088  0.3225  0.2888
   60MOL0     C 7822   2.260  10.366   7.300  0.0927 -0.0700 -0.7557
   60MOL0     O 7823   2.130  10.403   7.330  0.1979  0.7472  0.9294
   60MOL0     C 7824   2.035  10.412   7.216  0.4472  0.5014  0.3731
   60MOL0     C 7825   1.895  10.444   7.267 -0.1610 -0.0696  0.4406
   60MOL0     C 7826   1.794  10.380   7.174  0.4853 -0.3719 -0.0260
   60MOL0     C 7827   1.651  10.402   7.236  0.0698  0.6189  0.2914
   60MOL0     C 7828   1.545  10.307   7.175 -0.3912  0.9358  0.6828
   60MOL0     C 7829   1.428  10.295   7.281  0.3201  0.7391  1.2077
   60MOL0     C 7830   1.330  10.188   7.235  0.7389  0.1538 -0.0787
   60MOL0     C 7831   1.246  10.218   7.105  0.4521  0.0493 -0.4941
   60MOL0    Cl 7832   1.081  10.280   7.145  0.0351 -0.1412 -0.0214
   60MOL0     C 7833   2.316  10.334   7.177 -0.8520  0.5039 -0.2306
   60MOL0     C 7834   2.454  10.292   7.171 -0.3406 -0.6498  0.6166
   60MOL0     O 7835   2.649  10.087   7.390 -1.0685  0.1557  0.7598
   60MOL0     C 7836   2.919  10.030   7.391 -0.0531 -0.2591  0.7927
   60MOL0     C 7837   3.059  10.021   7.387 -0.2704  0.0778  0.9939
   60MOL0     N 7838   3.838  10.038   7.217 -0.3096 -0.1073  0.7139
   60MOL0     N 7839   3.917  10.081   7.122 -0.4987 -0.2412 -0.2624
   60MOL0     C 7840   5.166  10.605   6.862 -0.1660  0.2708 -0.2163
   60MOL0     C 7841   5.302  10.600   6.880  0.8733 -0.4585 -0.4580
   60MOL0     C 7842   5.695  10.594   7.111 -0.2958  0.0879  0.9610
   60MOL0     C 7843   5.754  10.679   7.007  0.3276  0.0486  0.1448
   60MOL0     C 7844   5.890  10.666   6.987  1.0081  1.2582 -0.3690
   60MOL0     C 7845   5.973  10.585   7.071 -1.2044  0.9397 -0.1148
   60MOL0     O 7846   6.108  10.561   7.031  0.9678  0.9603 -0.0144
   60MOL0     C 7847   6.126  10.457   6.933 -0.1696 -0.1931 -0.5183
   60MOL0     C 7848   6.260  10.479   6.858  0.2819 -0.8277  0.5773
   60MOL0     C 7849   6.374  10.462   6.959  0.7521  0.6747 -0.7675
   60MOL0     C 7850   6.508  10.433   6.895 -0.7152 -0.3846 -0.4791
   60MOL0     C 7851   6.587  10.557   6.888 -0.3384  0.0706  0.2514
   60MOL0     C 7852   6.662  10.642   6.895 -0.8034 -1.3037  0.3674
   60MOL0     C 7853   5.912  10.512   7.178  0.2376 -0.3390 -0.1226
   60MOL0     C 7854   5.777  10.516   7.197 -0.2432  0.1441  0.7553
   60MOL0     H 7855   5.328  10.779   7.161 -0.7917  1.0136  0.5931
   60MOL0     H 7856   5.101  10.802   7.133  1.3595  1.2144 -0.4156
   60MOL0     H 7857   4.928  10.504   7.038  0.4937  0.0284  1.1476
   60MOL0     H 7858   4.888  10.507   6.867  0.8425  2.0651  0.3546
   60MOL0     H 7859   4.686  10.649   6.912 -0.2098 -1.4311 -0.5063
   60MOL0     H 7860   4.703  10.644   7.087  0.2871  0.7448 -0.1867
   60MOL0     H 7861   4.674  10.408   7.085  3.2280  0.3031 -0.1494
   60MOL0     H 7862   4.647  10.404   6.910 -3.4469  1.4012 -1.2209
   60MOL0     H 7863   4.488  10.567   7.115 -3.9884 -2.7452  2.4590
   60MOL0     H 7864   4.434  10.535   6.944 -1.4742  0.1647 -0.1097
   60MOL0     H 7865   4.405  10.415   7.210  0.0598  4.1580 -0.9768
   60MOL0     H 7866   4.460  10.294   7.089 -1.5170 -0.5473 -3.1778
   60MOL0     H 7867   4.286  10.319   6.939  2.1833  0.2576  0.6512
   60MOL0     H 7868   4.221  10.475   7.010 -0.9709 -0.2185 -0.6895
   60MOL0     H 7869   4.190  10.180   7.125 -3.2102 -1.7834 -2.0349
   60MOL0     H 7870   4.155  10.337   7.211 -2.5545  0.5681 -0.3304
   60MOL0     H 7871   4.048  10.252   6.958  1.1232 -2.5382  1.5802
   60MOL0     H 7872   3.993  10.405   7.052  0.7052 -0.2024 -2.2964
   60MOL0     H 7873   3.858  10.369   7.255 -0.1561  0.2360 -0.6153
   60MOL0     H 7874   3.753  10.212   7.484  1.3166 -1.5405  1.0103
   60MOL0     H 7875   3.731  10.041   7.462 -2.2945  2.6282  2.6350
   60MOL0     H 7876   3.567  10.265   7.356  1.3813 -0.3248  0.3625
   60MOL0     H 7877   3.518  10.156   7.489  2.0006  2.6654  1.2117
   60MOL0     H 7878   3.573  10.074   7.204 -1.7840 -1.3042 -0.8359
   60MOL0     H 7879   3.502   9.970   7.325 -2.6993  0.4156 -0.2537
   60MOL0     H 7880   3.328  10.042   7.168  1.1011  3.1578 -3.2514
   60MOL0     H 7881   3.359  10.211   7.214  1.0552  1.3770  1.7654
   60MOL0     H 7882   3.166  10.314   7.269  1.0516  0.0595  2.4787
   60MOL0     H 7883   2.902  10.343   7.254 -1.3581 -0.2585  3.1062
   60MOL0     H 7884   2.549  10.344   7.493  1.2999 -2.2027 -0.5447
   60MOL0     H 7885   2.294  10.413   7.502 -2.3449  0.7920 -1.3109
   60MOL0     H 7886   2.024  10.319   7.160 -1.8220  1.2906 -0.5942
   60MOL0     H 7887   2.062  10.501   7.158  4.7716 -0.8534 -0.0701
   60MOL0     H 7888   1.873  10.551   7.268 -0.6223 -0.1460 -0.4030
   60MOL0     H 7889   1.881  10.402   7.367 -0.3995 -1.1764 -0.0438
   60MOL0     H 7890   1.814  10.273   7.169 -0.2414 -0.4574 -1.4855
   60MOL0     H 7891   1.800  10.425   7.075 -1.2497  0.9326  0.4178
   60MOL0     H 7892   1.653  10.387   7.344 -3.0480 -0.7932  0.2733
   60MOL0     H 7893   1.622  10.506   7.216  1.1842  0.5067 -2.3783
   60MOL0     H 7894   1.589  10.211   7.147 -1.5970  0.7029 -0.4953
   60MOL0     H 7895   1.514  10.353   7.081  0.3525 -0.0278 -0.0494
   60MOL0     H 7896   1.381  10.394   7.284 -1.0629  0.0866  2.0349
   60MOL0     H 7897   1.452  10.270   7.385 -2.1454 -0.2062  1.6221
   60MOL0     H 7898   1.379  10.091   7.225 -3.3603 -2.4368  1.9566
   60MOL0     H 7899   1.252  10.174   7.311 -1.5366 -0.0653 -2.3203
   60MOL0     H 7900   1.237  10.128   7.045  1.7326  0.9382 -2.1073
   60MOL0     H 7901   1.299  10.295   7.048 -0.5483  1.4518  0.4106
   60MOL0     H 7902   2.251  10.327   7.091  0.1973 -1.3378 -0.9233
   60MOL0     H 7903   2.490  10.275   7.070 -0.7924 -1.2239  0.5414
   60MOL0     H 7904   2.862   9.943   7.422  3.4737 -2.1690  2.5060
   60MOL0     H 7905   3.094   9.928   7.431 -0.6162 -0.7945 -0.4834
   60MOL0     H 7906   5.106  10.563   6.783 -5.8966  0.3558  3.4869
   60MOL0     H 7907   5.375  10.540   6.827 -0.0476 -1.1923 -0.9318
   60MOL0     H 7908   5.699  10.743   6.939 -0.7839 -1.7425 -0.7521
   60MOL0     H 7909   5.935  10.719   6.904  1.3173  2.2886  0.4379
   60MOL0     H 7910   6.048  10.467   6.856  1.4748  0.4331 -2.1913
   60MOL0     H 7911   6.116  10.358   6.979 -0.4093 -0.7099 -1.6404
   60MOL0     H 7912   6.253  10.403   6.780 -0.7824 -1.7791  1.5584
   60MOL0     H 7913   6.259  10.580   6.815  2.2027 -1.9103 -2.3126
   60MOL0     H 7914   6.349  10.371   7.015  4.4533 -0.4886 -0.7679
   60MOL0     H 7915   6.358  10.542   7.032 -3.5037 -2.0730  1.7849
   60MOL0     H 7916   6.560  10.357   6.955  0.0619 -0.9544 -1.8418
   60MOL0     H 7917   6.489  10.388   6.797  1.0310  0.5019 -1.2566
   60MOL0     H 7918   6.740  10.713   6.915 -2.3337  0.9021 -0.9493
   60MOL0     H 7919   5.985  10.465   7.243  2.6026  2.7103 -0.3352
   60MOL0     H 7920   5.735  10.462   7.282 -0.7487 -0.3947  0.1798
   61MOL0     O 7921   4.513   5.538   6.641  0.7699  0.3075  0.2161
   61MOL0     C 7922   4.555   5.529   6.529  0.5868  0.6584  1.1875
   61MOL0     O 7923   4.679   5.484   6.496 -0.1618  0.9317  0.5904
   61MOL0     C 7924   4.777   5.457   6.585 -0.2586 -0.6768 -0.1737
   61MOL0     C 7925   4.763   5.368   6.692  0.0534  0.1624  0.0887
   61MOL0     C 7926   4.867   5.353   6.784 -0.5413  0.1092 -0.2045
   61MOL0     C 7927   4.992   5.411   6.768 -0.0937 -0.3993 -0.5056
   61MOL0     O 7928   5.087   5.377   6.868 -0.2524  0.4869 -0.3449
   61MOL0     C 7929   5.226   5.415   6.863  0.0035 -0.9509  0.1557
   61MOL0     C 7930   5.305   5.361   6.985  0.7712 -0.0956  0.5912
   61MOL0     C 7931   5.457   5.394   6.963  0.1897 -0.8524 -0.4571
   61MOL0     C 7932   5.531   5.318   7.069 -0.3928  0.2406 -0.0354
   61MOL0     C 7933   5.684   5.342   7.071  0.3458 -0.6623  0.7473
   61MOL0     C 7934   5.754   5.290   6.942 -0.3522 -0.3192  0.0158
   61MOL0     C 7935   5.889   5.360   6.922  0.4044 -0.7394 -0.1903
   61MOL0     C 7936   6.007   5.283   6.985 -0.5409 -0.1078  0.2860
   61MOL0     N 7937   6.010   5.274   7.137  0.2699  0.1253  1.0390
   61MOL0     C 7938   5.992   5.363   7.238  1.6796 -0.1232  0.0287
   61MOL0     C 7939   5.991   5.292   7.356  0.9645  0.4277  0.1758
   61MOL0     C 7940   5.978   5.363   7.488 -0.0796 -0.5821  0.0984
   61MOL0     C 7941   5.877   5.323   7.588  0.1479  0.2147 -0.5258
   61MOL0     C 7942   5.727   5.368   7.541 -1.1427 -0.1548 -0.5822
   61MOL0     C 7943   5.675   5.496   7.603 -0.0966 -0.0851  0.2122
   61MOL0     O 7944   5.534   5.517   7.586 -0.0128  0.0184  1.0654
   61MOL0     C 7945   5.464   5.537   7.471  0.2114 -0.5706  0.2041
   61MOL0     C 7946   5.518   5.588   7.356 -0.1831  0.6899  0.1608
   61MOL0     C 7947   5.437   5.627   7.252  0.3896 -0.3200  0.3479
   61MOL0     C 7948   5.302   5.631   7.258 -0.0069  0.6454  0.9120
   61MOL0     C 7949   5.221   5.678   7.141 -0.0578 -0.5569 -0.0737
   61MOL0     O 7950   5.086   5.681   7.167 -0.8568 -0.2539  0.2513
   61MOL0     C 7951   5.009   5.754   7.085  0.0343 -0.3917 -0.1178
   61MOL0     C 7952   4.961   5.880   7.128 -0.5636 -0.8714  0.7701
   61MOL0     C 7953   4.883   5.956   7.052  0.4121 -0.1133 -0.1668
   61MOL0     C 7954   4.835   5.909   6.930  0.2151 -0.3476 -0.3251
   61MOL0     O 7955   4.752   5.988   6.853 -0.2611  0.1973 -0.2536
   61MOL0     C 7956   4.645   5.909   6.782  0.7244  0.7659  0.2362
   61MOL0     C 7957   4.524   5.999   6.754  0.0262 -0.2198 -0.1713
   61MOL0     C 7958   4.550   6.101   6.647 -0.4337  0.3647  0.1039
   61MOL0     C 7959   4.426   6.187   6.614 -0.0217 -0.0060  0.6618
   61MOL0     C 7960   4.363   6.262   6.720 -0.4388 -0.9365 -0.5479
   61MOL0     C 7961   4.461   6.350   6.796  0.9326 -0.6312 -0.3294
   61MOL0     C 7962   4.399   6.461   6.883  0.5967  0.1939  0.4413
   61MOL0     C 7963   4.378   6.580   6.788 -1.2199 -0.1565 -0.5882
   61MOL0    Cl 7964   4.298   6.705   6.881  0.0402 -0.3672 -0.2772
   61MOL0     C 7965   4.878   5.787   6.880  1.0544  0.4361 -0.0323
   61MOL0     C 7966   4.955   5.703   6.963  0.0678 -0.2286 -1.5599
   61MOL0     O 7967   5.282   5.713   7.036 -0.0397  0.5752 -0.5958
   61MOL0     C 7968   5.243   5.583   7.376  0.2828  0.4537  0.1454
   61MOL0     C 7969   5.326   5.531   7.479  0.9418  0.0935 -1.3950
   61MOL0     N 7970   5.975   5.156   7.323  0.1170  0.4600  0.2047
   61MOL0     N 7971   5.993   5.147   7.188 -0.0724 -0.1437 -0.1231
   61MOL0     C 7972   5.011   5.479   6.653 -0.1416 -0.3436 -0.5975
   61MOL0     C 7973   4.904   5.505   6.563 -0.2576  0.2933  0.2784
   61MOL0     C 7974   4.456   5.543   6.416 -0.5663 -0.4221  0.0817
   61MOL0     C 7975   4.468   5.474   6.291 -0.0234 -0.6598 -0.0484
   61MOL0     C 7976   4.369   5.486   6.196  0.9652 -0.2357  0.0750
   61MOL0     C 7977   4.248   5.560   6.227 -0.1152  0.5267  0.1450
   61MOL0     O 7978   4.147   5.564   6.132  0.0267  0.5262  0.6038
   61MOL0     C 7979   4.028   5.629   6.175 -0.7443  0.1810 -0.0060
   61MOL0     C 7980   3.936   5.600   6.062  0.0588  0.4104 -0.3008
   61MOL0     C 7981   3.811   5.681   6.045  0.0935  0.1960 -0.4974
   61MOL0     C 7982   3.715   5.684   6.161 -0.5964 -0.0413 -0.4618
   61MOL0     C 7983   3.652   5.556   6.183  0.2010  0.7411  0.4522
   61MOL0     C 7984   3.589   5.452   6.183 -0.6472  0.3563  0.1842
   61MOL0     C 7985   4.239   5.627   6.353 -0.0588 -0.0635 -0.1490
   61MOL0     C 7986   4.343   5.632   6.442 -0.1033  0.1119  0.0661
   61MOL0     H 7987   4.671   5.312   6.697 -0.6511  1.2507 -0.2026
   61MOL0     H 7988   4.860   5.279   6.863  1.5623 -1.5046 -1.4309
   61MOL0     H 7989   5.233   5.524   6.857 -1.7890 -0.8924 -1.8324
   61MOL0     H 7990   5.276   5.371   6.776  1.9637  0.1142  0.6963
   61MOL0     H 7991   5.283   5.254   6.988 -2.6219  0.5184  1.6239
   61MOL0     H 7992   5.248   5.397   7.071 -2.3587 -2.1250 -0.4652
   61MOL0     H 7993   5.477   5.499   6.982  4.4276 -1.6050  0.2446
   61MOL0     H 7994   5.479   5.366   6.859 -4.3899 -2.3487 -1.2523
   61MOL0     H 7995   5.483   5.356   7.159 -1.6036  0.8901 -0.9295
   61MOL0     H 7996   5.512   5.211   7.057  1.0301 -0.4028  2.6775
   61MOL0     H 7997   5.730   5.288   7.153 -0.7806  0.3153  2.0814
   61MOL0     H 7998   5.707   5.448   7.087  0.0184 -0.4325 -0.2225
   61MOL0     H 7999   5.694   5.318   6.855  0.8580 -1.6023 -1.2638
   61MOL0     H 8000   5.764   5.182   6.936  3.7528 -0.1678  1.1453
   61MOL0     H 8001   5.915   5.373   6.817  2.1480 -1.2632  0.1353
   61MOL0     H 8002   5.884   5.459   6.967 -3.4926 -0.1437 -1.5601
   61MOL0     H 8003   6.103   5.330   6.961 -0.4012  0.5465  1.9642
   61MOL0     H 8004   6.003   5.182   6.942  2.0669  0.3535 -1.2361
   61MOL0     H 8005   5.999   5.471   7.224 -0.5565 -0.0214 -0.6922
   61MOL0     H 8006   5.971   5.471   7.480  0.4229 -0.3740  1.9946
   61MOL0     H 8007   6.078   5.342   7.527 -0.0626 -2.5380 -0.8877
   61MOL0     H 8008   5.907   5.370   7.682  0.6301 -2.2123  0.6362
   61MOL0     H 8009   5.873   5.214   7.603  2.1499  0.4667  3.0974
   61MOL0     H 8010   5.716   5.376   7.433  2.4326 -0.5946 -1.1119
   61MOL0     H 8011   5.666   5.279   7.562  0.4124 -2.1309 -3.6241
   61MOL0     H 8012   5.736   5.578   7.563  0.9964 -1.6070 -1.3772
   61MOL0     H 8013   5.680   5.501   7.712 -1.1311  0.9284  0.2379
   61MOL0     H 8014   5.624   5.613   7.352 -0.1252  0.3710 -0.4052
   61MOL0     H 8015   5.488   5.659   7.162 -0.0001 -2.1024 -0.5648
   61MOL0     H 8016   5.010   5.922   7.215  2.4664  1.5122 -1.8242
   61MOL0     H 8017   4.857   6.054   7.091 -1.6885  0.3854 -2.6018
   61MOL0     H 8018   4.604   5.826   6.840  0.0415  0.6315 -0.4333
   61MOL0     H 8019   4.678   5.862   6.689 -0.9534  1.6619 -0.8701
   61MOL0     H 8020   4.495   6.049   6.847 -1.6970 -1.9541  0.2799
   61MOL0     H 8021   4.440   5.940   6.718 -0.0858 -0.6563  0.7806
   61MOL0     H 8022   4.594   6.049   6.561  2.1250  0.4700  1.2387
   61MOL0     H 8023   4.624   6.167   6.693 -1.8859  3.4204 -1.6246
   61MOL0     H 8024   4.455   6.257   6.535 -0.7390  1.3596  1.5616
   61MOL0     H 8025   4.349   6.133   6.559 -0.3872  1.6917 -0.5769
   61MOL0     H 8026   4.328   6.200   6.803  5.0572  0.0902  3.0377
   61MOL0     H 8027   4.287   6.326   6.674  1.0088  1.0022 -0.3823
   61MOL0     H 8028   4.533   6.405   6.735  1.0107 -1.8156 -1.3262
   61MOL0     H 8029   4.532   6.287   6.850  0.5485 -2.3849 -1.7886
   61MOL0     H 8030   4.306   6.434   6.933 -1.3953  0.9432 -2.5680
   61MOL0     H 8031   4.464   6.486   6.968 -0.6824 -0.5173  1.6520
   61MOL0     H 8032   4.325   6.546   6.699  1.1291 -3.9956 -0.7771
   61MOL0     H 8033   4.473   6.623   6.754 -0.7521  1.4439  2.3611
   61MOL0     H 8034   4.863   5.761   6.776  0.2449  0.7626 -0.0054
   61MOL0     H 8035   4.998   5.615   6.917  0.4668 -0.9305  0.0928
   61MOL0     H 8036   5.135   5.590   7.386  0.2735  0.2045  0.2280
   61MOL0     H 8037   5.281   5.489   7.569  1.1327  0.5298 -1.0875
   61MOL0     H 8038   5.111   5.518   6.639  0.0217  0.1572  1.5804
   61MOL0     H 8039   4.927   5.566   6.476 -2.6711  0.7112 -0.1531
   61MOL0     H 8040   4.536   5.396   6.259 -1.4637 -1.9593 -0.0392
   61MOL0     H 8041   4.377   5.447   6.095 -2.2488 -2.2645  0.4647
   61MOL0     H 8042   4.035   5.738   6.187 -2.5339  0.1830  1.6016
   61MOL0     H 8043   3.989   5.584   6.267  1.6940 -2.3873 -0.0987
   61MOL0     H 8044   4.005   5.623   5.981  1.5397 -1.6280  0.3006
   61MOL0     H 8045   3.913   5.494   6.046 -2.1780  0.5475  1.4201
   61MOL0     H 8046   3.754   5.666   5.953 -0.3127 -0.7259 -0.1109
   61MOL0     H 8047   3.851   5.782   6.040  0.7729 -0.0775 -0.7524
   61MOL0     H 8048   3.764   5.735   6.245 -2.5572 -0.7792  1.2289
   61MOL0     H 8049   3.638   5.754   6.129 -1.3386 -0.5963  0.0671
   61MOL0     H 8050   3.543   5.356   6.194  1.2738 -0.5002  1.2555
   61MOL0     H 8051   4.161   5.700   6.370  0.9470  1.3811 -1.4088
   61MOL0     H 8052   4.339   5.695   6.531  0.0616 -0.0711  0.2056
   62MOL0     O 8053   2.884   2.400   6.020 -0.1489  0.3257  0.1367
   62MOL0     C 8054   2.933   2.332   5.927  0.0848 -0.1458 -0.6051
   62MOL0     O 8055   2.855   2.273   5.836 -0.3180 -0.1015 -0.4378
   62MOL0     C 8056   2.722   2.277   5.830 -0.2322  0.1515 -0.1507
   62MOL0     C 8057   2.630   2.247   5.936  0.4905  0.0207 -0.0165
   62MOL0     C 8058   2.489   2.250   5.920  0.1547  0.2661 -0.2352
   62MOL0     C 8059   2.430   2.296   5.802  0.6543 -0.6974  0.1342
   62MOL0     O 8060   2.298   2.293   5.794  0.3076  0.2488  0.3902
   62MOL0     C 8061   2.224   2.355   5.899 -0.2804  0.2661  0.3705
   62MOL0     C 8062   2.103   2.425   5.833 -0.2376 -0.2007 -0.4303
   62MOL0     C 8063   2.144   2.543   5.741 -0.0813  0.6117  0.0571
   62MOL0     C 8064   2.013   2.606   5.698  0.3760  0.1685 -0.5978
   62MOL0     C 8065   2.035   2.710   5.593  0.0446 -0.0495 -0.2613
   62MOL0     C 8066   2.085   2.838   5.667  0.0482 -0.2039  0.3597
   62MOL0     C 8067   2.166   2.938   5.579 -1.0987  0.7596 -0.0830
   62MOL0     C 8068   2.304   2.877   5.532 -0.1093  0.0497 -0.3418
   62MOL0     N 8069   2.353   2.963   5.422 -0.6515  0.1327 -0.6498
   62MOL0     C 8070   2.420   2.922   5.312  0.5307  0.1830  0.5065
   62MOL0     C 8071   2.439   3.024   5.226  0.7471  0.1439 -1.2837
   62MOL0     C 8072   2.490   3.020   5.084 -0.9730 -0.1821  0.1624
   62MOL0     C 8073   2.381   3.029   4.975 -0.0101 -0.1250 -0.4511
   62MOL0     C 8074   2.312   2.896   4.970 -0.0233 -0.3573  0.3601
   62MOL0     C 8075   2.163   2.892   4.930 -0.3905 -0.6742  0.3436
   62MOL0     O 8076   2.088   2.909   5.045  0.0092  0.0888 -0.7365
   62MOL0     C 8077   1.972   2.826   5.052 -0.0783  0.2176  0.6822
   62MOL0     C 8078   1.903   2.783   4.941  0.4906  0.0193  0.3148
   62MOL0     C 8079   1.788   2.711   4.950 -0.0757  0.4199 -0.2959
   62MOL0     C 8080   1.751   2.655   5.079  1.2824 -0.1587  0.4816
   62MOL0     C 8081   1.627   2.570   5.091 -0.5065 -0.0388  0.2182
   62MOL0     O 8082   1.579   2.522   4.976  0.5149  0.1887 -0.8224
   62MOL0     C 8083   1.458   2.449   4.978 -0.1930  0.3250  0.5583
   62MOL0     C 8084   1.459   2.336   4.902 -1.0304  0.7940 -0.2173
   62MOL0     C 8085   1.338   2.267   4.879  0.0583 -1.4067 -0.3561
   62MOL0     C 8086   1.219   2.307   4.930 -0.7695 -0.1567  0.3583
   62MOL0     O 8087   1.109   2.235   4.893 -0.5958 -0.3355 -0.0741
   62MOL0     C 8088   0.976   2.276   4.942  0.4096 -1.3313  0.4589
   62MOL0     C 8089   0.856   2.192   4.882 -0.3487  0.4050 -0.2458
   62MOL0     C 8090   0.879   2.047   4.924 -0.2251  0.0094  0.2609
   62MOL0     C 8091   0.754   1.949   4.904 -0.8120 -0.0916  0.1702
   62MOL0     C 8092   0.796   1.803   4.918 -0.3973 -0.0474  0.0776
   62MOL0     C 8093   0.703   1.714   4.997  0.0016 -0.5131 -0.1536
   62MOL0     C 8094   0.710   1.749   5.150  0.8339  0.8925 -0.8629
   62MOL0     C 8095   0.690   1.634   5.240  1.0372  0.4558  0.1033
   62MOL0    Cl 8096   0.855   1.551   5.256  0.0603  0.0307  0.1951
   62MOL0     C 8097   1.221   2.414   5.014  0.4503  0.4906 -0.5443
   62MOL0     C 8098   1.336   2.489   5.042 -1.0571 -0.2386  0.4474
   62MOL0     O 8099   1.572   2.555   5.206  0.5261 -0.8557 -0.0309
   62MOL0     C 8100   1.829   2.695   5.188  0.0135 -0.0301 -0.4090
   62MOL0     C 8101   1.932   2.786   5.176  0.4276 -0.9022 -0.4026
   62MOL0     N 8102   2.392   3.137   5.299  0.0393  0.3275 -0.4648
   62MOL0     N 8103   2.336   3.100   5.414 -0.2026  0.5116 -0.2862
   62MOL0     C 8104   2.511   2.331   5.696 -0.1568  0.5472 -0.3466
   62MOL0     C 8105   2.654   2.323   5.711  0.9967 -0.5346  0.0405
   62MOL0     C 8106   3.071   2.301   5.928 -0.0753  0.1270 -0.0199
   62MOL0     C 8107   3.121   2.187   5.855 -0.4956 -0.1290 -0.1797
   62MOL0     C 8108   3.258   2.160   5.843  1.5411  0.1738  0.1754
   62MOL0     C 8109   3.351   2.231   5.917 -0.4880  0.0104 -0.5756
   62MOL0     O 8110   3.483   2.201   5.890 -0.6572 -0.0416 -0.7894
   62MOL0     C 8111   3.587   2.291   5.936  1.2445  0.7874 -0.7292
   62MOL0     C 8112   3.717   2.267   5.865  0.3283 -0.8002 -0.0926
   62MOL0     C 8113   3.817   2.375   5.912  0.2556  0.5328  0.6808
   62MOL0     C 8114   3.953   2.373   5.843 -1.4110  0.1647 -0.1740
   62MOL0     C 8115   4.044   2.270   5.889  0.6303 -0.3432  0.3710
   62MOL0     C 8116   4.106   2.179   5.935 -0.5627  0.4778 -0.4745
   62MOL0     C 8117   3.309   2.333   6.001  0.3926 -0.6000  0.4993
   62MOL0     C 8118   3.169   2.363   6.010  0.3640 -0.7180 -0.6810
   62MOL0     H 8119   2.669   2.198   6.025  1.0252  1.3428  0.5020
   62MOL0     H 8120   2.423   2.229   6.004 -0.0068  0.5280 -0.2984
   62MOL0     H 8121   2.285   2.424   5.958  0.7710 -2.7283  3.0985
   62MOL0     H 8122   2.189   2.275   5.966  0.0716  1.5420  2.1605
   62MOL0     H 8123   2.039   2.454   5.916  0.8246 -2.7058  1.4046
   62MOL0     H 8124   2.036   2.348   5.793 -1.2122  0.2331  0.3371
   62MOL0     H 8125   2.204   2.517   5.653  1.3216  1.2163  0.7960
   62MOL0     H 8126   2.214   2.606   5.798  2.0015  2.1957 -3.8295
   62MOL0     H 8127   1.958   2.521   5.658  1.4593 -1.8518  1.8641
   62MOL0     H 8128   1.949   2.649   5.776 -0.5330 -0.3826 -1.0256
   62MOL0     H 8129   1.949   2.739   5.532  2.2213  3.1019 -2.1175
   62MOL0     H 8130   2.117   2.672   5.532  0.8893  0.9543  0.2056
   62MOL0     H 8131   2.137   2.813   5.760 -0.0078  1.5466  0.8941
   62MOL0     H 8132   1.990   2.886   5.692 -1.4926 -3.0079  0.2318
   62MOL0     H 8133   2.112   2.965   5.487 -0.2802 -0.2968 -0.8929
   62MOL0     H 8134   2.179   3.029   5.638 -1.4809  1.6993 -1.3952
   62MOL0     H 8135   2.297   2.772   5.503  0.2117  0.5412 -2.3901
   62MOL0     H 8136   2.378   2.868   5.612  1.2595  0.1114 -1.5507
   62MOL0     H 8137   2.447   2.820   5.288 -0.9323  0.1087 -1.1016
   62MOL0     H 8138   2.543   2.927   5.065  0.7885  0.4803  1.5305
   62MOL0     H 8139   2.565   3.100   5.076 -1.7804  0.5188 -0.5942
   62MOL0     H 8140   2.426   3.065   4.882  0.5787 -1.4428 -0.6941
   62MOL0     H 8141   2.306   3.107   4.993  1.5285  1.3027  0.0350
   62MOL0     H 8142   2.357   2.852   4.881 -2.2207 -1.2623 -0.3692
   62MOL0     H 8143   2.328   2.830   5.056  1.7475 -2.3487 -1.3750
   62MOL0     H 8144   2.150   2.800   4.872  1.0487 -0.8917  0.3113
   62MOL0     H 8145   2.144   2.983   4.871 -0.1413 -0.0995  1.1310
   62MOL0     H 8146   1.926   2.816   4.840  1.3246  0.2201  0.5680
   62MOL0     H 8147   1.730   2.691   4.860 -0.5620  0.6652 -0.0464
   62MOL0     H 8148   1.556   2.303   4.867  0.0101 -0.0352  3.0914
   62MOL0     H 8149   1.335   2.180   4.814  2.1694 -1.1321 -0.8889
   62MOL0     H 8150   0.958   2.383   4.926 -2.1062 -0.9772  4.4001
   62MOL0     H 8151   0.972   2.275   5.051 -0.6787  0.5089  0.4872
   62MOL0     H 8152   0.845   2.202   4.774  2.3868 -0.5086 -0.7082
   62MOL0     H 8153   0.764   2.229   4.928  1.3433  1.2949  2.6905
   62MOL0     H 8154   0.913   2.046   5.027  1.0320  0.2149 -0.1418
   62MOL0     H 8155   0.966   2.007   4.872  0.2359 -1.4585  2.0494
   62MOL0     H 8156   0.683   1.985   4.978  0.0499 -0.6254  1.2799
   62MOL0     H 8157   0.725   1.961   4.799  1.0274 -0.8523 -0.4675
   62MOL0     H 8158   0.892   1.785   4.967  0.3937 -1.5620 -1.8840
   62MOL0     H 8159   0.817   1.761   4.819 -0.2965  0.8262 -0.2889
   62MOL0     H 8160   0.739   1.611   4.984  3.4314  0.6230 -0.5860
   62MOL0     H 8161   0.601   1.730   4.961 -0.2573  0.4346  0.9605
   62MOL0     H 8162   0.803   1.804   5.171  1.2893 -0.5085  1.1846
   62MOL0     H 8163   0.629   1.818   5.177  0.6534 -0.6814  3.5112
   62MOL0     H 8164   0.611   1.567   5.203  0.9557  1.2741 -1.2489
   62MOL0     H 8165   0.659   1.655   5.343  0.9170 -1.2601  0.4515
   62MOL0     H 8166   1.127   2.434   5.063 -0.2479 -0.7537 -1.3216
   62MOL0     H 8167   1.324   2.584   5.094 -2.2451  0.9608 -1.8509
   62MOL0     H 8168   1.800   2.658   5.285 -1.4234 -1.7341 -1.4342
   62MOL0     H 8169   1.990   2.805   5.266 -1.1574  0.2726  0.4057
   62MOL0     H 8170   2.462   2.361   5.604 -3.4433  0.0843  1.1074
   62MOL0     H 8171   2.727   2.353   5.636  0.7677  4.6585  1.4822
   62MOL0     H 8172   3.044   2.132   5.801 -0.4533  3.5735 -4.6690
   62MOL0     H 8173   3.289   2.090   5.767  0.8483 -0.2172  0.2523
   62MOL0     H 8174   3.591   2.281   6.045  1.3546  3.3629 -0.4471
   62MOL0     H 8175   3.561   2.395   5.913 -0.9261  0.5925  0.5450
   62MOL0     H 8176   3.752   2.167   5.890 -0.0071 -1.2028 -1.1916
   62MOL0     H 8177   3.694   2.264   5.758 -1.2674 -0.4697  0.2191
   62MOL0     H 8178   3.829   2.355   6.019 -0.0059 -4.3200  0.0055
   62MOL0     H 8179   3.771   2.474   5.910 -1.6494 -0.3173 -0.1582
   62MOL0     H 8180   3.942   2.369   5.734 -0.5033 -2.4508 -0.2396
   62MOL0     H 8181   4.007   2.467   5.860 -0.3050 -0.2456 -1.2526
   62MOL0     H 8182   4.165   2.114   5.995 -2.4035 -1.8522 -1.0481
   62MOL0     H 8183   3.375   2.397   6.059 -1.0284  1.9291 -0.5153
   62MOL0     H 8184   3.140   2.453   6.062  1.4596  0.5987 -2.2579
   63MOL0     O 8185   7.986   0.878   7.452  0.0497 -0.5014 -0.9485
   63MOL0     C 8186   7.903   0.949   7.393 -0.2450  0.7389 -0.1458
   63MOL0     O 8187   7.772   0.971   7.431  0.9488 -0.2180 -0.8950
   63MOL0     C 8188   7.734   0.913   7.549  0.4791  0.3956 -0.0042
   63MOL0     C 8189   7.662   0.995   7.622  0.4554  0.2108 -0.9439
   63MOL0     C 8190   7.588   0.943   7.732  0.0080 -0.3424  0.0897
   63MOL0     C 8191   7.610   0.813   7.781  0.6233 -0.0603  0.9891
   63MOL0     O 8192   7.541   0.771   7.889 -0.1101  0.2482 -0.0127
   63MOL0     C 8193   7.448   0.660   7.863 -0.1302 -0.0994  0.1218
   63MOL0     C 8194   7.374   0.641   7.995 -0.3791 -0.2829 -0.4135
   63MOL0     C 8195   7.272   0.747   8.024  0.2601  0.5426  0.2282
   63MOL0     C 8196   7.307   0.870   8.101 -0.0589 -0.4151  0.2707
   63MOL0     C 8197   7.195   0.940   8.159 -0.4090  0.2322  0.7308
   63MOL0     C 8198   7.095   0.990   8.054 -0.0680  0.6972  0.4146
   63MOL0     C 8199   6.984   1.063   8.125  1.3195  0.5536 -0.6806
   63MOL0     C 8200   6.883   1.137   8.039 -0.5298 -0.6123  0.6520
   63MOL0     N 8201   6.949   1.236   7.952  0.8038 -0.3701 -0.1762
   63MOL0     C 8202   6.893   1.267   7.834 -0.0797 -0.8337  0.3288
   63MOL0     C 8203   6.973   1.365   7.790  0.4978 -0.1180  0.5130
   63MOL0     C 8204   6.961   1.443   7.658  0.3639 -0.1242  0.7068
   63MOL0     C 8205   6.923   1.588   7.692  0.2012  0.1913  0.4106
   63MOL0     C 8206   6.967   1.681   7.576  0.7266  0.2182 -0.3774
   63MOL0     C 8207   6.913   1.823   7.588 -0.5205 -0.8476  0.3204
   63MOL0     O 8208   6.963   1.872   7.715  0.0291  0.2859  0.1648
   63MOL0     C 8209   6.946   2.008   7.745  0.0272  0.5048  0.6522
   63MOL0     C 8210   6.991   2.035   7.874 -0.2747  0.2124 -0.1301
   63MOL0     C 8211   6.979   2.166   7.914 -0.9039  0.3366  0.7094
   63MOL0     C 8212   6.914   2.270   7.842 -0.0588 -0.2925 -0.4262
   63MOL0     C 8213   6.901   2.405   7.910  0.8838  0.0038  0.8255
   63MOL0     O 8214   6.828   2.502   7.837  0.0533  0.5995  0.3338
   63MOL0     C 8215   6.834   2.631   7.877 -1.0925 -0.3715  0.9186
   63MOL0     C 8216   6.895   2.689   7.990 -0.6012  0.3789  1.4528
   63MOL0     C 8217   6.884   2.825   8.012  0.4141 -0.2581 -0.0082
   63MOL0     C 8218   6.820   2.909   7.918  0.1183  0.7035  0.3066
   63MOL0     O 8219   6.816   3.043   7.938 -0.2443 -0.4814 -0.4414
   63MOL0     C 8220   6.899   3.130   7.844 -0.9963 -0.3305 -0.3918
   63MOL0     C 8221   6.923   3.270   7.897  0.3196 -0.4722 -0.2781
   63MOL0     C 8222   6.803   3.316   7.971 -0.0913 -1.2334  0.3224
   63MOL0     C 8223   6.834   3.464   8.001  0.6418  0.1378 -0.0503
   63MOL0     C 8224   6.716   3.502   8.090  0.1142  0.0493 -0.0981
   63MOL0     C 8225   6.725   3.649   8.126  0.5403  0.1588 -0.0222
   63MOL0     C 8226   6.593   3.697   8.194 -0.3085  0.0824 -0.0710
   63MOL0     C 8227   6.467   3.674   8.105  0.7815  0.1477 -0.4792
   63MOL0    Cl 8228   6.466   3.725   7.925  0.2217  0.2159  0.1304
   63MOL0     C 8229   6.767   2.851   7.798 -0.4101 -0.2506 -0.6591
   63MOL0     C 8230   6.775   2.720   7.783  0.4425 -0.5468  0.1202
   63MOL0     O 8231   6.947   2.407   8.021 -0.0670  0.2235 -0.9158
   63MOL0     C 8232   6.863   2.241   7.715 -0.3193 -0.7321 -0.0143
   63MOL0     C 8233   6.894   2.108   7.666 -0.1443  0.1249  0.7115
   63MOL0     N 8234   7.087   1.377   7.870 -0.3113  0.3107 -0.8530
   63MOL0     N 8235   7.067   1.299   7.974 -1.0903 -0.1539 -0.6782
   63MOL0     C 8236   7.701   0.732   7.710 -0.3623 -0.0516  0.5603
   63MOL0     C 8237   7.766   0.783   7.600 -0.2075  0.2975  0.2011
   63MOL0     C 8238   7.947   1.001   7.266  0.1270  0.4648  0.0046
   63MOL0     C 8239   7.851   1.050   7.162 -0.3636  0.2856 -0.1054
   63MOL0     C 8240   7.907   1.110   7.045 -0.0778 -0.2302  0.4214
   63MOL0     C 8241   8.041   1.125   7.019  0.1934 -0.7901 -0.0348
   63MOL0     O 8242   8.090   1.190   6.914  0.1496  0.5111  0.0930
   63MOL0     C 8243   8.002   1.250   6.810 -0.2562 -0.4518 -0.0571
   63MOL0     C 8244   7.963   1.389   6.841 -0.1630 -0.1143 -0.6630
   63MOL0     C 8245   8.028   1.495   6.755 -1.0546 -0.7902  0.0309
   63MOL0     C 8246   7.978   1.634   6.772 -0.2500 -0.6317 -0.2789
   63MOL0     C 8247   8.047   1.702   6.878  0.1998  0.1220 -0.3771
   63MOL0     C 8248   8.111   1.744   6.971  0.4305  0.3778  0.6402
   63MOL0     C 8249   8.132   1.083   7.114  0.7281 -1.4905 -0.5662
   63MOL0     C 8250   8.083   1.022   7.235  0.0464 -0.1166  0.1601
   63MOL0     H 8251   7.648   1.098   7.591 -1.2618  0.3037  0.0026
   63MOL0     H 8252   7.517   1.010   7.780  2.2862  4.3914 -2.4285
   63MOL0     H 8253   7.499   0.568   7.832 -0.7076 -0.2502 -0.4088
   63MOL0     H 8254   7.381   0.668   7.777 -0.2558 -0.0445  0.2248
   63MOL0     H 8255   7.438   0.628   8.082 -2.1158 -2.2481  0.6593
   63MOL0     H 8256   7.318   0.547   7.989 -0.8252  0.0786 -3.2098
   63MOL0     H 8257   7.178   0.703   8.061  0.1248 -1.3459 -2.0930
   63MOL0     H 8258   7.236   0.789   7.929  0.9635  2.1981  0.6466
   63MOL0     H 8259   7.382   0.844   8.176  1.1062 -1.4569 -1.1776
   63MOL0     H 8260   7.370   0.923   8.028 -0.4182 -0.6207 -0.1950
   63MOL0     H 8261   7.244   1.014   8.222  0.4419 -1.4426  2.1299
   63MOL0     H 8262   7.148   0.861   8.218 -1.4763  0.4424  0.1789
   63MOL0     H 8263   7.048   0.904   8.005  2.4710 -0.2742 -0.5044
   63MOL0     H 8264   7.140   1.050   7.974  0.1294 -0.3898 -0.3154
   63MOL0     H 8265   6.930   0.983   8.175  3.2774  0.1230  0.8614
   63MOL0     H 8266   7.028   1.143   8.186 -0.5036  0.0364  1.3954
   63MOL0     H 8267   6.801   1.176   8.100 -2.1712 -1.3882 -0.9654
   63MOL0     H 8268   6.829   1.070   7.971 -1.2183 -0.5423  1.1197
   63MOL0     H 8269   6.802   1.230   7.787  0.0682  0.3486 -0.9636
   63MOL0     H 8270   6.904   1.399   7.576  2.3334 -2.1806  0.3291
   63MOL0     H 8271   7.063   1.435   7.619  2.0550 -0.1523  4.6071
   63MOL0     H 8272   6.970   1.622   7.785  0.3010  4.0483 -0.8923
   63MOL0     H 8273   6.814   1.598   7.696  0.1390 -0.4337  0.3290
   63MOL0     H 8274   7.075   1.696   7.586  0.3804  4.0253 -0.5892
   63MOL0     H 8275   6.946   1.634   7.480 -1.4042 -1.4982  0.8340
   63MOL0     H 8276   6.804   1.829   7.598 -0.5539 -2.5042  1.3244
   63MOL0     H 8277   6.951   1.881   7.503  1.0577  0.5978  1.9447
   63MOL0     H 8278   7.036   1.969   7.948  2.0459  2.5607  0.7131
   63MOL0     H 8279   7.010   2.178   8.018 -1.5122 -3.9861  1.5655
   63MOL0     H 8280   6.950   2.635   8.067 -0.0650 -0.5004  0.4745
   63MOL0     H 8281   6.926   2.874   8.100  1.9140 -0.1466 -0.7524
   63MOL0     H 8282   6.876   3.138   7.737  1.1775 -0.4409 -0.9267
   63MOL0     H 8283   6.994   3.076   7.842 -1.3104 -1.1056  2.0790
   63MOL0     H 8284   6.940   3.340   7.814 -0.5517  0.1362  0.0352
   63MOL0     H 8285   7.010   3.262   7.963  1.9411 -0.7850 -2.3249
   63MOL0     H 8286   6.788   3.267   8.067  2.5422 -0.8038  1.0549
   63MOL0     H 8287   6.714   3.317   7.908  2.1563 -3.4756 -3.2686
   63MOL0     H 8288   6.931   3.475   8.049  1.1285  1.0862 -1.2248
   63MOL0     H 8289   6.833   3.527   7.912  4.4809  0.1515 -0.2275
   63MOL0     H 8290   6.705   3.435   8.175 -0.3075 -1.4772 -1.3061
   63MOL0     H 8291   6.625   3.485   8.032 -1.4379  3.4014  1.1128
   63MOL0     H 8292   6.750   3.709   8.039 -3.7330  0.8137 -1.0418
   63MOL0     H 8293   6.800   3.667   8.203  2.7400 -2.9012 -1.2402
   63MOL0     H 8294   6.577   3.654   8.293 -1.8897 -0.6099 -0.5915
   63MOL0     H 8295   6.617   3.803   8.203 -2.1227  0.5415 -0.2718
   63MOL0     H 8296   6.379   3.726   8.145  0.7230 -0.2720 -0.0526
   63MOL0     H 8297   6.442   3.568   8.104 -0.9689  0.5397 -2.1025
   63MOL0     H 8298   6.723   2.912   7.720  1.7900 -0.5794 -2.2159
   63MOL0     H 8299   6.732   2.673   7.696  2.3463 -0.0895 -1.1248
   63MOL0     H 8300   6.813   2.328   7.674 -0.1889 -0.8755 -0.4953
   63MOL0     H 8301   6.865   2.091   7.563 -2.2387  0.4458  1.1806
   63MOL0     H 8302   7.738   0.640   7.754 -1.5660 -0.4440  0.7848
   63MOL0     H 8303   7.836   0.718   7.549 -1.9446 -2.3328  0.9650
   63MOL0     H 8304   7.744   1.046   7.178 -0.1061 -0.9483  1.5602
   63MOL0     H 8305   7.827   1.136   6.977  0.0594 -0.1768  0.2785
   63MOL0     H 8306   7.913   1.187   6.799 -0.4544 -0.2802  0.5792
   63MOL0     H 8307   8.069   1.262   6.724  0.1489 -2.8216 -0.1365
   63MOL0     H 8308   7.855   1.401   6.824  0.3079  1.7473 -2.8956
   63MOL0     H 8309   7.977   1.416   6.946 -4.9910  1.7567 -0.2675
   63MOL0     H 8310   8.020   1.477   6.647 -4.1567 -0.0462  0.0586
   63MOL0     H 8311   8.132   1.495   6.790 -1.1206  0.6062  0.2656
   63MOL0     H 8312   7.992   1.688   6.677 -0.0967  0.9391  0.5958
   63MOL0     H 8313   7.870   1.633   6.790 -0.3619  3.8104  0.5084
   63MOL0     H 8314   8.157   1.791   7.056  1.7233  1.4714 -0.6151
   63MOL0     H 8315   8.238   1.102   7.100  1.2018 -2.9849  0.7255
   63MOL0     H 8316   8.146   0.997   7.320 -1.0977 -2.3796  0.4224
   64MOL0     O 8317   7.685   4.025   6.846 -1.4550 -0.2430 -0.1377
   64MOL0     C 8318   7.709   4.086   6.741 -0.0922  0.4775  0.6324
   64MOL0     O 8319   7.694   4.033   6.612 -0.6163  0.0772 -0.2588
   64MOL0     C 8320   7.637   3.909   6.589 -0.9291 -0.1347 -0.4321
   64MOL0     C 8321   7.694   3.825   6.500  0.0258  0.5827  0.1992
   64MOL0     C 8322   7.635   3.706   6.464 -0.4486 -0.0517  0.0352
   64MOL0     C 8323   7.526   3.656   6.530  0.1768 -0.3030  0.3579
   64MOL0     O 8324   7.457   3.545   6.499  0.7279 -0.5777  0.5341
   64MOL0     C 8325   7.442   3.503   6.361  0.1521  0.1548 -0.3041
   64MOL0     C 8326   7.362   3.378   6.344 -0.9328  0.0430 -0.6366
   64MOL0     C 8327   7.216   3.392   6.380  0.6612  0.9938  0.1664
   64MOL0     C 8328   7.141   3.265   6.332  0.0151  0.8511 -0.3129
   64MOL0     C 8329   7.023   3.240   6.421 -0.7523  0.1065 -0.4604
   64MOL0     C 8330   6.967   3.101   6.363 -1.2598 -0.2017  0.5054
   64MOL0     C 8331   6.838   3.048   6.438 -0.0446 -0.4454  0.4951
   64MOL0     C 8332   6.720   3.130   6.404  0.5939  0.6716  0.4382
   64MOL0     N 8333   6.580   3.069   6.429  0.0495 -0.7544  0.3365
   64MOL0     C 8334   6.537   3.060   6.559  0.1451  0.2670  0.0919
   64MOL0     C 8335   6.436   2.972   6.542  0.1511  0.2465  0.0203
   64MOL0     C 8336   6.337   2.930   6.653 -0.4993  0.0724 -0.0602
   64MOL0     C 8337   6.350   2.782   6.682 -0.5001 -0.2365 -0.5464
   64MOL0     C 8338   6.222   2.729   6.754 -0.0043  0.4229  0.0910
   64MOL0     C 8339   6.211   2.779   6.893  0.8842 -0.7185  0.1229
   64MOL0     O 8340   6.317   2.724   6.980  0.2450  0.2771  0.5628
   64MOL0     C 8341   6.276   2.616   7.053  0.4393  0.3066  1.1631
   64MOL0     C 8342   6.202   2.617   7.170  0.3213 -0.0375 -0.3373
   64MOL0     C 8343   6.166   2.502   7.245  0.2655 -0.4739  0.6164
   64MOL0     C 8344   6.184   2.377   7.185  0.4472  0.3995  0.5619
   64MOL0     C 8345   6.124   2.248   7.250 -0.1609 -0.1629 -1.1597
   64MOL0     O 8346   6.106   2.138   7.172 -0.8304 -0.2564  0.0197
   64MOL0     C 8347   6.029   2.033   7.211  0.6107  0.2103  0.2208
   64MOL0     C 8348   5.888   2.032   7.195 -0.4896 -0.2085 -0.1597
   64MOL0     C 8349   5.817   1.920   7.225  0.8027 -0.2941  0.0961
   64MOL0     C 8350   5.874   1.807   7.280 -0.1662  0.0911  0.4285
   64MOL0     O 8351   5.793   1.700   7.311  0.3462  0.1026 -0.0157
   64MOL0     C 8352   5.674   1.677   7.233 -0.2574 -0.0224  0.7373
   64MOL0     C 8353   5.620   1.540   7.258 -1.0862  0.3422  0.2993
   64MOL0     C 8354   5.565   1.508   7.389  0.4165  0.1446  0.5491
   64MOL0     C 8355   5.538   1.358   7.395 -0.0231 -0.3435 -0.0563
   64MOL0     C 8356   5.432   1.318   7.503  0.5941  0.7553 -0.1210
   64MOL0     C 8357   5.292   1.346   7.451  0.3638 -0.1356 -0.4583
   64MOL0     C 8358   5.194   1.296   7.556  0.1758 -0.0668 -0.3004
   64MOL0     C 8359   5.072   1.380   7.573 -0.8350  0.5464  0.0065
   64MOL0    Cl 8360   5.112   1.544   7.628  0.0210 -0.1546 -0.4556
   64MOL0     C 8361   6.012   1.813   7.302 -0.4678 -1.2311 -0.1549
   64MOL0     C 8362   6.091   1.925   7.263  0.2704 -0.6067 -0.2206
   64MOL0     O 8363   6.075   2.256   7.363  0.1652 -0.2837 -0.6635
   64MOL0     C 8364   6.246   2.376   7.064  0.3488 -0.0928 -0.1790
   64MOL0     C 8365   6.295   2.490   7.002 -0.3957  0.4300  0.5264
   64MOL0     N 8366   6.420   2.949   6.404 -0.4180 -0.3807  0.7923
   64MOL0     N 8367   6.501   3.018   6.334 -0.1282  0.8251  0.1288
   64MOL0     C 8368   7.483   3.726   6.633 -0.1154  0.4500  0.3936
   64MOL0     C 8369   7.525   3.859   6.658 -0.9757  0.0907  0.1831
   64MOL0     C 8370   7.767   4.228   6.753  0.3666  0.3011 -0.5506
   64MOL0     C 8371   7.798   4.306   6.644 -0.7126 -0.1444 -0.4282
   64MOL0     C 8372   7.848   4.438   6.663  0.0892 -0.2539 -0.5517
   64MOL0     C 8373   7.873   4.496   6.786 -0.0142  0.4884 -0.4482
   64MOL0     O 8374   7.934   4.619   6.805  0.3188  0.1468  0.0546
   64MOL0     C 8375   8.030   4.630   6.915 -0.7579  0.1922  1.0513
   64MOL0     C 8376   8.162   4.574   6.881 -0.4976  0.0860  0.4346
   64MOL0     C 8377   8.216   4.615   6.741  0.4104 -0.3500 -0.0843
   64MOL0     C 8378   8.335   4.540   6.690 -0.3003  0.2384  0.1578
   64MOL0     C 8379   8.283   4.398   6.675  0.3450 -0.6299 -0.0973
   64MOL0     C 8380   8.213   4.296   6.670 -0.2140  0.0259 -0.6324
   64MOL0     C 8381   7.845   4.404   6.889  0.4712 -0.3795  0.5760
   64MOL0     C 8382   7.806   4.278   6.873 -0.0025 -0.4077 -0.3607
   64MOL0     H 8383   7.778   3.844   6.433  0.2350  0.1348  0.3288
   64MOL0     H 8384   7.650   3.654   6.370 -1.1237 -0.2185  0.0150
   64MOL0     H 8385   7.537   3.482   6.310  0.9391 -0.2474  1.2733
   64MOL0     H 8386   7.409   3.594   6.309  3.8735 -0.0005 -3.4603
   64MOL0     H 8387   7.408   3.304   6.409  1.0253 -2.5800 -4.5923
   64MOL0     H 8388   7.371   3.339   6.242 -0.0573 -2.3377  0.2987
   64MOL0     H 8389   7.178   3.485   6.339  1.1876  0.7786 -0.8443
   64MOL0     H 8390   7.210   3.398   6.489 -1.6689  3.4005 -0.0070
   64MOL0     H 8391   7.128   3.266   6.223 -1.9279  0.0266 -0.1215
   64MOL0     H 8392   7.206   3.177   6.335 -0.8510  0.1721 -0.8658
   64MOL0     H 8393   6.941   3.314   6.415 -0.5817  0.2986 -0.4362
   64MOL0     H 8394   7.045   3.237   6.528 -3.0658  0.6476  0.0967
   64MOL0     H 8395   7.034   3.016   6.379  0.2431  0.9330  0.4117
   64MOL0     H 8396   6.951   3.115   6.256  0.4092  3.8807  0.6314
   64MOL0     H 8397   6.810   2.947   6.406  1.6015 -0.4818 -0.9687
   64MOL0     H 8398   6.870   3.048   6.542  4.2445  2.3232 -0.5574
   64MOL0     H 8399   6.739   3.159   6.300  3.5115 -0.7171  0.5076
   64MOL0     H 8400   6.721   3.228   6.453 -0.1558  2.2817 -2.5136
   64MOL0     H 8401   6.579   3.110   6.645  2.1264  0.1801 -0.7743
   64MOL0     H 8402   6.238   2.956   6.616 -1.3406 -3.1326 -0.3219
   64MOL0     H 8403   6.359   2.980   6.749 -0.1999 -0.5501  0.1988
   64MOL0     H 8404   6.449   2.769   6.728 -0.6623 -0.6256 -0.3114
   64MOL0     H 8405   6.345   2.736   6.583 -2.1432 -1.3612  0.0274
   64MOL0     H 8406   6.137   2.767   6.698  0.0655  0.3416 -0.0714
   64MOL0     H 8407   6.211   2.620   6.748 -0.5525  0.4339  0.8601
   64MOL0     H 8408   6.113   2.739   6.920  0.7676 -1.8201 -1.7213
   64MOL0     H 8409   6.206   2.888   6.894  0.5859 -0.5913 -3.0840
   64MOL0     H 8410   6.187   2.716   7.211  1.5621 -0.0649  0.2272
   64MOL0     H 8411   6.124   2.504   7.345  2.3160  1.0511  1.5175
   64MOL0     H 8412   5.860   2.126   7.148  0.5303  0.2239  0.0654
   64MOL0     H 8413   5.714   1.951   7.206  0.9735  0.6336  0.6182
   64MOL0     H 8414   5.683   1.692   7.125  0.3153  1.7143  0.9823
   64MOL0     H 8415   5.603   1.753   7.267 -0.9677 -1.2823  2.2057
   64MOL0     H 8416   5.701   1.473   7.227  0.8734  1.8239  1.8766
   64MOL0     H 8417   5.543   1.522   7.183  1.3395  1.4621 -2.6826
   64MOL0     H 8418   5.474   1.566   7.407  0.0017 -0.0448 -0.8662
   64MOL0     H 8419   5.629   1.543   7.471  1.3124  1.0402 -0.5031
   64MOL0     H 8420   5.505   1.313   7.301 -4.3037  1.5655  0.3213
   64MOL0     H 8421   5.642   1.330   7.411  1.2109  1.7660 -3.3380
   64MOL0     H 8422   5.440   1.378   7.595  0.9636  1.0148 -0.3157
   64MOL0     H 8423   5.438   1.211   7.523 -0.6143  0.4441 -1.2919
   64MOL0     H 8424   5.271   1.284   7.363 -0.4046 -0.5369 -0.0027
   64MOL0     H 8425   5.278   1.453   7.429  1.5413 -0.4701 -3.3052
   64MOL0     H 8426   5.162   1.193   7.541  2.9284 -0.9988 -0.2636
   64MOL0     H 8427   5.250   1.281   7.649  2.2961  0.2955 -1.4546
   64MOL0     H 8428   5.010   1.339   7.653 -1.4396  2.8958  0.8337
   64MOL0     H 8429   5.017   1.395   7.479 -2.0922  4.3955  1.1542
   64MOL0     H 8430   6.065   1.726   7.338  0.4572 -0.3915  0.5918
   64MOL0     H 8431   6.199   1.926   7.277  0.5786  3.7344 -1.3445
   64MOL0     H 8432   6.262   2.276   7.026  1.7658  0.0352  0.0228
   64MOL0     H 8433   6.350   2.479   6.909 -2.6392  1.3944 -1.0196
   64MOL0     H 8434   7.406   3.688   6.700 -0.5293 -0.9439 -0.8194
   64MOL0     H 8435   7.481   3.924   6.733 -2.1588  0.1401 -0.5286
   64MOL0     H 8436   7.793   4.258   6.547  2.2589 -1.9334  0.1707
   64MOL0     H 8437   7.889   4.500   6.584  2.1198  0.2103  0.7685
   64MOL0     H 8438   7.995   4.591   7.011 -3.1705  0.1265  0.2203
   64MOL0     H 8439   8.049   4.737   6.931  0.8250 -0.1784  1.7684
   64MOL0     H 8440   8.225   4.598   6.967 -0.8394 -0.1135  0.7450
   64MOL0     H 8441   8.163   4.465   6.897 -1.6574  0.4022  3.1700
   64MOL0     H 8442   8.232   4.723   6.740  1.1151 -0.4460 -1.3889
   64MOL0     H 8443   8.137   4.593   6.669 -0.2639  1.2337  0.1191
   64MOL0     H 8444   8.361   4.585   6.593 -0.8258 -0.1142 -0.1502
   64MOL0     H 8445   8.420   4.546   6.759 -0.0315 -0.3346 -0.1158
   64MOL0     H 8446   8.140   4.224   6.640  2.1745 -2.7587 -0.2499
   64MOL0     H 8447   7.848   4.448   6.988  1.4093  4.3796 -1.3088
   64MOL0     H 8448   7.796   4.223   6.966  2.7453  1.0047  0.8493
   65MOL0     O 8449   8.448   0.604   5.175 -0.1090 -0.1753  0.2792
   65MOL0     C 8450   8.387   0.717   5.172 -0.5633 -0.0690  0.6271
   65MOL0     O 8451   8.250   0.726   5.162 -0.7888 -0.2423 -0.4126
   65MOL0     C 8452   8.179   0.611   5.181 -0.1775 -0.8451  0.4795
   65MOL0     C 8453   8.084   0.575   5.078 -0.5658  0.3030  0.7353
   65MOL0     C 8454   7.979   0.483   5.105 -0.2855 -0.2490 -0.0917
   65MOL0     C 8455   7.973   0.431   5.231  0.2451 -0.2421 -0.7874
   65MOL0     O 8456   7.862   0.357   5.257  0.0435 -0.2713  0.0325
   65MOL0     C 8457   7.836   0.286   5.376 -0.5645  0.2767 -0.1567
   65MOL0     C 8458   7.723   0.190   5.354  0.9114 -0.1463  0.1172
   65MOL0     C 8459   7.591   0.261   5.323  0.2753 -1.2811  0.3668
   65MOL0     C 8460   7.464   0.178   5.348  0.0779 -0.9298  0.2961
   65MOL0     C 8461   7.353   0.251   5.269 -0.3623  0.7540 -0.0883
   65MOL0     C 8462   7.225   0.172   5.285 -0.6262  0.1417 -0.4145
   65MOL0     C 8463   7.110   0.242   5.221  0.1490  0.9997  0.4127
   65MOL0     C 8464   6.973   0.165   5.259  0.2662  0.3608 -0.6217
   65MOL0     N 8465   6.855   0.219   5.193  0.0278  0.2456  0.3421
   65MOL0     C 8466   6.857   0.285   5.078  0.5833 -0.0464  1.4516
   65MOL0     C 8467   6.721   0.295   5.050  0.2192 -0.1521 -0.5175
   65MOL0     C 8468   6.679   0.349   4.918 -0.1593 -0.1509  0.7274
   65MOL0     C 8469   6.530   0.377   4.928 -0.0085  0.2452 -0.3169
   65MOL0     C 8470   6.474   0.424   4.795  0.3902 -0.6857 -0.0126
   65MOL0     C 8471   6.445   0.297   4.706 -0.4644  0.7416 -0.4728
   65MOL0     O 8472   6.386   0.328   4.577 -0.1523  0.4133  0.0771
   65MOL0     C 8473   6.253   0.336   4.568 -0.2411 -0.5704  0.3574
   65MOL0     C 8474   6.205   0.357   4.444 -0.2121 -0.2490 -0.8234
   65MOL0     C 8475   6.067   0.362   4.420 -0.6226  0.4435 -0.3458
   65MOL0     C 8476   5.977   0.345   4.528  0.4776 -0.2831  0.7114
   65MOL0     C 8477   5.824   0.345   4.502 -0.6624 -1.0468  0.2492
   65MOL0     O 8478   5.797   0.372   4.364  0.6388 -0.1483  0.1892
   65MOL0     C 8479   5.673   0.432   4.335 -0.3501 -0.5513  0.4951
   65MOL0     C 8480   5.676   0.539   4.251 -1.1472 -0.2491  0.2384
   65MOL0     C 8481   5.561   0.618   4.226  0.2141 -0.4973  0.8156
   65MOL0     C 8482   5.435   0.577   4.273  0.1363  0.0919  0.8971
   65MOL0     O 8483   5.318   0.634   4.235 -0.5030  0.6612 -0.2445
   65MOL0     C 8484   5.326   0.769   4.186 -0.1980  0.0849  1.1252
   65MOL0     C 8485   5.186   0.829   4.224 -0.3019  0.4075  0.0199
   65MOL0     C 8486   5.069   0.777   4.150  0.3038 -0.0346 -0.0564
   65MOL0     C 8487   4.944   0.849   4.205  0.6077 -0.2593 -0.7677
   65MOL0     C 8488   4.812   0.810   4.135  0.3106 -0.1595  0.8762
   65MOL0     C 8489   4.713   0.724   4.220 -1.0873 -0.1989 -0.0943
   65MOL0     C 8490   4.607   0.655   4.131  0.6626 -0.1240  0.6505
   65MOL0     C 8491   4.504   0.580   4.213  0.3708 -0.1563  0.7405
   65MOL0    Cl 8492   4.351   0.555   4.123 -0.2452  0.0534 -0.0122
   65MOL0     C 8493   5.434   0.457   4.335 -0.4785 -0.2340  0.3329
   65MOL0     C 8494   5.553   0.381   4.366 -0.1472 -0.6776 -0.4997
   65MOL0     O 8495   5.746   0.341   4.599  0.9755 -0.1192 -0.4476
   65MOL0     C 8496   6.032   0.352   4.654  0.3587  0.4890  0.1410
   65MOL0     C 8497   6.168   0.352   4.674  0.4725 -0.2609 -0.5213
   65MOL0     N 8498   6.654   0.249   5.155  0.2113 -0.5893  0.0886
   65MOL0     N 8499   6.737   0.207   5.246  1.0637 -0.0800 -0.1926
   65MOL0     C 8500   8.073   0.452   5.331  0.7028 -0.5382 -0.3823
   65MOL0     C 8501   8.177   0.540   5.303 -0.2639 -0.0184  0.2206
   65MOL0     C 8502   8.462   0.840   5.182 -1.0700  0.1269 -0.0913
   65MOL0     C 8503   8.604   0.833   5.184 -0.0426  0.0213 -1.0327
   65MOL0     C 8504   8.686   0.943   5.178 -0.6595 -0.1546 -0.2708
   65MOL0     C 8505   8.617   1.069   5.163 -1.0377  0.9631  0.0524
   65MOL0     O 8506   8.664   1.192   5.165  0.2099  0.2332  0.8781
   65MOL0     C 8507   8.795   1.211   5.203 -0.7718 -0.6180  0.1488
   65MOL0     C 8508   8.827   1.355   5.195 -0.4865  0.2159 -0.4445
   65MOL0     C 8509   8.981   1.367   5.237  0.0819  0.7446  0.6170
   65MOL0     C 8510   9.015   1.496   5.305 -0.7193 -0.3422  0.2068
   65MOL0     C 8511   9.168   1.517   5.322  0.9093 -0.1578  0.5021
   65MOL0     C 8512   9.281   1.533   5.352  0.1034  0.6311 -0.2659
   65MOL0     C 8513   8.477   1.067   5.130 -0.7700 -0.8992  0.8926
   65MOL0     C 8514   8.399   0.961   5.156  0.2438  0.0019 -0.4960
   65MOL0     H 8515   8.085   0.627   4.982 -2.9447 -1.4227 -0.3111
   65MOL0     H 8516   7.911   0.471   5.020  0.7507  4.0286 -1.8153
   65MOL0     H 8517   7.816   0.347   5.464 -1.1432 -0.3237  0.1372
   65MOL0     H 8518   7.918   0.218   5.403 -0.6000 -0.2081 -1.2290
   65MOL0     H 8519   7.714   0.133   5.446 -0.8654  0.6922  0.5002
   65MOL0     H 8520   7.741   0.116   5.275 -2.4305  1.0032 -1.9009
   65MOL0     H 8521   7.589   0.303   5.222 -0.2794  0.9286  1.2391
   65MOL0     H 8522   7.577   0.341   5.395 -0.4665 -1.3558  0.3171
   65MOL0     H 8523   7.474   0.077   5.307 -0.4513 -1.3318  1.1200
   65MOL0     H 8524   7.447   0.176   5.456  1.1586 -0.9250  0.4758
   65MOL0     H 8525   7.374   0.229   5.164 -1.2575  0.4859 -0.2158
   65MOL0     H 8526   7.349   0.357   5.297  1.9190  0.9225 -0.1750
   65MOL0     H 8527   7.207   0.165   5.392  2.3484  0.1498  0.1892
   65MOL0     H 8528   7.236   0.075   5.235  0.3820  0.1709 -0.2750
   65MOL0     H 8529   7.104   0.350   5.239 -1.8656  0.4239  4.4022
   65MOL0     H 8530   7.133   0.221   5.116  0.2261 -1.5758  0.8815
   65MOL0     H 8531   6.965   0.162   5.368  1.2912 -0.5330 -0.5555
   65MOL0     H 8532   6.984   0.064   5.221  2.2196 -0.0252  0.8092
   65MOL0     H 8533   6.938   0.314   5.012 -0.9424  1.2457  0.0739
   65MOL0     H 8534   6.701   0.278   4.838  2.4597  1.8290 -0.4578
   65MOL0     H 8535   6.743   0.433   4.889  2.6423 -2.8370 -1.4748
   65MOL0     H 8536   6.505   0.456   4.999  0.0237 -0.8634  0.9711
   65MOL0     H 8537   6.481   0.280   4.941  3.3507 -2.1380 -3.2903
   65MOL0     H 8538   6.384   0.483   4.816  0.8176 -1.0345  3.3725
   65MOL0     H 8539   6.551   0.491   4.756 -0.6486 -0.9311 -2.7212
   65MOL0     H 8540   6.385   0.231   4.769  1.9944 -0.4678  0.7482
   65MOL0     H 8541   6.541   0.246   4.692 -0.8331 -0.3361  0.7086
   65MOL0     H 8542   6.280   0.366   4.366 -0.1758  0.8661 -0.6796
   65MOL0     H 8543   6.025   0.370   4.320 -1.4375 -1.6838 -0.2272
   65MOL0     H 8544   5.770   0.573   4.210 -1.4647  0.1991 -0.1462
   65MOL0     H 8545   5.577   0.692   4.149  1.5792 -1.8376 -0.2472
   65MOL0     H 8546   5.336   0.770   4.077 -0.6418  2.8640  1.0390
   65MOL0     H 8547   5.406   0.821   4.239  2.8945 -1.4741 -1.6503
   65MOL0     H 8548   5.190   0.937   4.211  1.7671  0.4162  0.4740
   65MOL0     H 8549   5.171   0.799   4.328 -1.9692 -0.5095 -0.4496
   65MOL0     H 8550   5.069   0.670   4.170  0.7848 -0.1535 -0.6429
   65MOL0     H 8551   5.070   0.791   4.041 -0.5244 -0.1339 -0.0792
   65MOL0     H 8552   4.929   0.844   4.313  0.4822 -0.9602 -0.8144
   65MOL0     H 8553   4.962   0.954   4.178  0.4179 -0.5072 -1.8828
   65MOL0     H 8554   4.833   0.748   4.048 -0.4041 -2.5971  2.3324
   65MOL0     H 8555   4.763   0.897   4.089  1.0476  0.3009  0.9539
   65MOL0     H 8556   4.662   0.783   4.297  0.4450  1.4210 -0.2727
   65MOL0     H 8557   4.772   0.648   4.273 -0.6755 -2.2825 -3.2739
   65MOL0     H 8558   4.565   0.724   4.058 -1.1248 -2.5883 -0.7921
   65MOL0     H 8559   4.647   0.571   4.073 -3.9000 -1.4529 -0.9727
   65MOL0     H 8560   4.479   0.634   4.304  1.1806 -1.4046  1.7488
   65MOL0     H 8561   4.538   0.478   4.235  0.2534 -0.1010  1.1969
   65MOL0     H 8562   5.335   0.420   4.358 -0.6390 -0.2426 -0.3475
   65MOL0     H 8563   5.539   0.283   4.411  1.6273 -2.0412 -2.7270
   65MOL0     H 8564   5.972   0.351   4.744  1.3250 -0.4217  0.7834
   65MOL0     H 8565   6.205   0.328   4.773  4.9954  3.0144 -1.1111
   65MOL0     H 8566   8.066   0.410   5.431 -0.8718 -0.5622 -0.4787
   65MOL0     H 8567   8.250   0.575   5.375 -0.1902 -0.0171  0.1450
   65MOL0     H 8568   8.648   0.735   5.196 -0.8838 -0.2883 -0.3660
   65MOL0     H 8569   8.794   0.948   5.191 -0.4267 -2.7459 -0.7380
   65MOL0     H 8570   8.865   1.150   5.144 -0.2410 -2.4344  2.4942
   65MOL0     H 8571   8.817   1.183   5.306 -0.6096 -4.6350 -0.7860
   65MOL0     H 8572   8.815   1.399   5.096  1.3411  0.6753 -0.4982
   65MOL0     H 8573   8.771   1.404   5.275 -0.6235 -0.4929 -0.0920
   65MOL0     H 8574   9.040   1.348   5.147 -1.1356  2.0417 -0.5062
   65MOL0     H 8575   9.004   1.290   5.311 -1.9232 -0.5563 -0.0258
   65MOL0     H 8576   8.975   1.579   5.245  1.3983  0.5743 -0.0194
   65MOL0     H 8577   8.975   1.501   5.407  0.9713 -0.5691  0.9230
   65MOL0     H 8578   9.383   1.540   5.384 -0.3972 -1.0287  1.9471
   65MOL0     H 8579   8.421   1.159   5.116  0.5069 -0.3900 -1.3683
   65MOL0     H 8580   8.292   0.967   5.139 -0.0195 -1.0684  0.5969
   66MOL0     O 8581   2.517   7.170   3.410  0.9589  0.3965  0.3810
   66MOL0     C 8582   2.440   7.076   3.428  0.2611 -0.1386  0.1734
   66MOL0     O 8583   2.410   7.016   3.555 -0.2149 -0.2410 -0.4513
   66MOL0     C 8584   2.482   7.065   3.660 -0.0725 -0.2915  0.1286
   66MOL0     C 8585   2.432   7.173   3.737  0.1477 -0.6774 -0.0996
   66MOL0     C 8586   2.521   7.254   3.822 -0.4201 -0.8494  0.6565
   66MOL0     C 8587   2.656   7.227   3.823 -0.0797 -0.4201 -0.4759
   66MOL0     O 8588   2.736   7.317   3.891  0.4325 -1.1934 -0.3758
   66MOL0     C 8589   2.759   7.273   4.027 -0.3906 -0.6473  0.3876
   66MOL0     C 8590   2.907   7.277   4.047 -0.1677  0.2295 -0.3875
   66MOL0     C 8591   2.951   7.428   4.029  0.3821  0.2339 -0.7188
   66MOL0     C 8592   3.102   7.460   4.039 -0.0947 -0.1317 -1.0892
   66MOL0     C 8593   3.139   7.607   4.026 -0.0858 -0.4341 -0.9014
   66MOL0     C 8594   3.277   7.632   4.049  0.2035 -0.0541  0.9741
   66MOL0     C 8595   3.319   7.774   4.014 -0.0240  0.0408  0.3717
   66MOL0     C 8596   3.346   7.786   3.859  0.3565 -0.1751 -0.2577
   66MOL0     N 8597   3.234   7.841   3.780  0.1046  0.2398 -0.5691
   66MOL0     C 8598   3.138   7.930   3.829 -0.0751  0.5834 -0.6195
   66MOL0     C 8599   3.036   7.928   3.747 -0.2408 -0.2579  0.6814
   66MOL0     C 8600   2.911   8.002   3.760  0.6295  0.1590 -0.0565
   66MOL0     C 8601   2.787   7.900   3.791  0.5472 -0.3018 -0.1194
   66MOL0     C 8602   2.842   7.797   3.892  0.6989  0.4077  0.0570
   66MOL0     C 8603   2.728   7.710   3.940 -0.8526 -0.0733 -0.6634
   66MOL0     O 8604   2.600   7.778   3.957 -0.3137  0.6957  0.4503
   66MOL0     C 8605   2.499   7.697   3.985 -0.5743 -0.1561  0.6033
   66MOL0     C 8606   2.399   7.687   3.883  1.3511 -0.5523 -0.6354
   66MOL0     C 8607   2.298   7.598   3.893 -0.2967  0.1986 -0.3790
   66MOL0     C 8608   2.309   7.495   3.997  0.6866  0.4619 -0.1813
   66MOL0     C 8609   2.216   7.383   3.997  0.8209  0.7374  0.4518
   66MOL0     O 8610   2.153   7.355   4.115  0.4603  0.0140  0.0846
   66MOL0     C 8611   2.022   7.323   4.128  0.6570  1.2991  0.4354
   66MOL0     C 8612   1.919   7.379   4.038  0.2177  0.2238 -0.0000
   66MOL0     C 8613   1.787   7.364   4.064  0.4333  0.2752  0.0254
   66MOL0     C 8614   1.740   7.291   4.174 -0.3676  0.7889 -0.8279
   66MOL0     O 8615   1.616   7.272   4.219  0.6941  0.4010 -0.0111
   66MOL0     C 8616   1.517   7.358   4.158  0.3207 -0.8283  0.2705
   66MOL0     C 8617   1.368   7.343   4.202  1.4986 -0.6993 -0.4047
   66MOL0     C 8618   1.272   7.320   4.074 -1.4885 -0.1241  0.3805
   66MOL0     C 8619   1.136   7.305   4.131  0.4659  0.5649 -0.2921
   66MOL0     C 8620   1.030   7.264   4.026  0.2276 -0.0854  0.4539
   66MOL0     C 8621   0.894   7.311   4.062 -0.0347  0.5283 -0.0339
   66MOL0     C 8622   0.789   7.278   3.954  0.4324 -0.1201 -0.5799
   66MOL0     C 8623   0.655   7.342   3.980  0.1724  0.3850 -0.7326
   66MOL0    Cl 8624   0.542   7.348   3.846 -0.3096  0.1064  0.2919
   66MOL0     C 8625   1.828   7.219   4.259 -0.0219  0.0343 -0.2897
   66MOL0     C 8626   1.972   7.233   4.237  0.2059  0.9271  0.8194
   66MOL0     O 8627   2.187   7.335   3.888 -0.5517  1.1163  0.0900
   66MOL0     C 8628   2.394   7.524   4.103  0.7798  0.2979  0.4007
   66MOL0     C 8629   2.493   7.618   4.094  0.8722  0.9016 -0.2068
   66MOL0     N 8630   3.070   7.845   3.646 -0.0920  0.1246 -0.2300
   66MOL0     N 8631   3.188   7.792   3.666 -0.4680  0.2650  0.9014
   66MOL0     C 8632   2.702   7.112   3.763 -0.2771 -0.4878 -0.5490
   66MOL0     C 8633   2.622   7.038   3.679  0.3704  1.6336 -0.1215
   66MOL0     C 8634   2.361   7.037   3.311  0.2372  0.1816 -0.2377
   66MOL0     C 8635   2.382   7.072   3.183 -0.3037  0.3490 -0.5720
   66MOL0     C 8636   2.298   7.040   3.075 -0.7720  0.2484 -0.3353
   66MOL0     C 8637   2.197   6.950   3.095 -0.2297 -0.3644  0.4690
   66MOL0     O 8638   2.118   6.910   2.995 -0.0537  0.3082 -0.4281
   66MOL0     C 8639   2.188   6.827   2.904  0.2103 -0.0023  1.2995
   66MOL0     C 8640   2.097   6.720   2.860  0.3949  0.3112 -0.0833
   66MOL0     C 8641   2.042   6.614   2.968 -0.4619 -0.2963  0.8196
   66MOL0     C 8642   1.925   6.665   3.048  0.1182 -0.9591  0.2702
   66MOL0     C 8643   1.871   6.550   3.121 -0.4996  0.5433  0.3338
   66MOL0     C 8644   1.859   6.458   3.195  0.5510  0.5166  0.8660
   66MOL0     C 8645   2.170   6.907   3.221 -0.0701 -0.1772  0.5303
   66MOL0     C 8646   2.254   6.950   3.331  0.7678  0.7991  1.3620
   66MOL0     H 8647   2.325   7.190   3.733 -0.0592 -1.5079  1.2032
   66MOL0     H 8648   2.504   7.344   3.881  3.4491  0.0168  0.7396
   66MOL0     H 8649   2.734   7.166   4.038  1.3528 -1.6859 -3.8873
   66MOL0     H 8650   2.701   7.334   4.097 -1.5901  0.2946 -1.3766
   66MOL0     H 8651   2.961   7.204   3.986  2.1432  1.5122 -0.0217
   66MOL0     H 8652   2.930   7.235   4.146  0.6810 -2.2240 -1.5589
   66MOL0     H 8653   2.900   7.491   4.102  0.5494 -1.2230  0.6954
   66MOL0     H 8654   2.916   7.471   3.934 -1.5499 -0.4002 -0.3484
   66MOL0     H 8655   3.128   7.446   4.144 -0.6580 -0.0030 -0.9287
   66MOL0     H 8656   3.162   7.391   3.979 -1.6645  1.3444 -4.6554
   66MOL0     H 8657   3.075   7.674   4.084  0.8087  1.0223 -1.5457
   66MOL0     H 8658   3.123   7.636   3.922  2.5205  2.6896 -0.5828
   66MOL0     H 8659   3.334   7.557   3.994  0.0494  0.7285 -0.3066
   66MOL0     H 8660   3.286   7.632   4.158 -1.0250 -0.2445  1.0960
   66MOL0     H 8661   3.248   7.850   4.046  0.7486  2.0195 -2.2593
   66MOL0     H 8662   3.417   7.785   4.061  1.9538 -2.3149 -2.7409
   66MOL0     H 8663   3.377   7.691   3.813  0.6116 -0.0304 -0.3839
   66MOL0     H 8664   3.430   7.856   3.849 -1.4689  2.1218 -0.1289
   66MOL0     H 8665   3.151   7.980   3.925  1.6312 -0.2589 -0.3610
   66MOL0     H 8666   2.891   8.054   3.666  2.3467  0.5629 -0.2292
   66MOL0     H 8667   2.917   8.070   3.846  2.2960  0.3330 -0.2764
   66MOL0     H 8668   2.748   7.851   3.701 -1.5571 -2.6021  1.8889
   66MOL0     H 8669   2.710   7.961   3.838  0.5389  0.2866 -0.8688
   66MOL0     H 8670   2.920   7.730   3.853  0.5849 -0.0894  0.6658
   66MOL0     H 8671   2.886   7.854   3.974 -2.6471  0.8894  1.6603
   66MOL0     H 8672   2.762   7.671   4.036  2.6630 -1.9056 -2.4599
   66MOL0     H 8673   2.717   7.627   3.869  0.6514  1.3845 -2.7334
   66MOL0     H 8674   2.387   7.751   3.795 -1.4649  0.8881  0.6787
   66MOL0     H 8675   2.219   7.599   3.818 -1.6770 -1.2189  0.9759
   66MOL0     H 8676   1.942   7.438   3.950 -1.8881  0.9287 -0.1470
   66MOL0     H 8677   1.722   7.427   4.003  4.6798  2.7492 -2.4583
   66MOL0     H 8678   1.516   7.344   4.050 -1.2810  0.2131  0.1261
   66MOL0     H 8679   1.547   7.460   4.182 -0.9020 -0.3732 -0.1145
   66MOL0     H 8680   1.342   7.438   4.248  1.1161 -1.1980  0.4365
   66MOL0     H 8681   1.356   7.266   4.279 -1.7423  0.7670  0.7196
   66MOL0     H 8682   1.299   7.237   4.009 -4.2102 -1.0595  0.3008
   66MOL0     H 8683   1.288   7.412   4.017 -0.2352  1.0355  2.4735
   66MOL0     H 8684   1.146   7.212   4.189  0.6909  0.2263 -0.8629
   66MOL0     H 8685   1.115   7.389   4.197 -1.9415  0.8580 -1.3265
   66MOL0     H 8686   1.029   7.155   4.015  0.1545  0.0161 -0.7594
   66MOL0     H 8687   1.052   7.312   3.930 -1.3905 -2.9684 -1.5133
   66MOL0     H 8688   0.914   7.418   4.072 -1.0710  0.5832  2.1060
   66MOL0     H 8689   0.866   7.282   4.164 -0.0446  0.7271  0.0199
   66MOL0     H 8690   0.824   7.318   3.858  2.2525 -1.6940 -0.6323
   66MOL0     H 8691   0.775   7.170   3.946 -0.7545 -0.0763  0.6550
   66MOL0     H 8692   0.684   7.443   4.010  2.7683  0.3109 -2.6833
   66MOL0     H 8693   0.605   7.295   4.066 -1.1750  0.8626 -1.2416
   66MOL0     H 8694   1.792   7.150   4.335 -1.7791 -0.9180 -1.9051
   66MOL0     H 8695   2.044   7.180   4.298 -0.4376 -1.6870 -0.5631
   66MOL0     H 8696   2.391   7.480   4.202  1.5567  3.3994  1.9527
   66MOL0     H 8697   2.557   7.633   4.181  1.5296 -0.5827 -0.3902
   66MOL0     H 8698   2.809   7.096   3.766 -0.2037  0.0831  0.5639
   66MOL0     H 8699   2.670   6.955   3.628 -0.0682 -0.9181  3.2358
   66MOL0     H 8700   2.471   7.128   3.157  0.0211 -0.2704 -0.8151
   66MOL0     H 8701   2.332   7.060   2.974  1.0040 -1.6654 -0.2060
   66MOL0     H 8702   2.274   6.786   2.959  1.7734  0.4358 -0.7064
   66MOL0     H 8703   2.224   6.874   2.812 -1.1960 -1.7243 -0.2036
   66MOL0     H 8704   2.006   6.764   2.817  0.2342 -0.2561 -0.3319
   66MOL0     H 8705   2.147   6.670   2.777  2.9193  0.9524  0.9694
   66MOL0     H 8706   2.122   6.600   3.041 -0.4552 -1.8407  0.5369
   66MOL0     H 8707   2.013   6.527   2.908  0.4707  0.7951 -1.3270
   66MOL0     H 8708   1.939   6.746   3.120 -4.7129  1.4379 -1.0933
   66MOL0     H 8709   1.843   6.698   2.985 -1.7286 -1.1078  2.4604
   66MOL0     H 8710   1.857   6.365   3.249 -0.7711  0.2149  0.3263
   66MOL0     H 8711   2.081   6.848   3.238 -1.6380  1.7603 -0.5426
   66MOL0     H 8712   2.226   6.911   3.429 -1.4350  1.4289  1.0369
   67MOL0     O 8713   0.787  10.214   8.450 -0.1193 -0.5259  0.1770
   67MOL0     C 8714   0.693  10.144   8.482 -0.5727  0.1365  0.0697
   67MOL0     O 8715   0.571  10.124   8.429  0.3607  0.4868  0.9963
   67MOL0     C 8716   0.523  10.185   8.315  0.2966  1.6657 -0.9240
   67MOL0     C 8717   0.382  10.186   8.305  0.2997 -0.1699  0.0636
   67MOL0     C 8718   0.318  10.250   8.197 -0.3630  0.0985 -1.2624
   67MOL0     C 8719   0.404  10.305   8.102  0.0126 -0.2654 -0.7901
   67MOL0     O 8720   0.341  10.361   7.992  0.4042 -0.4288 -0.5036
   67MOL0     C 8721   0.240  10.298   7.910  0.2160 -0.2597  0.0829
   67MOL0     C 8722   0.282  10.158   7.860  0.7015 -0.1232 -0.0723
   67MOL0     C 8723   0.213  10.120   7.728 -0.0773  0.3744 -0.2364
   67MOL0     C 8724   0.060  10.127   7.746  0.5895  0.3013 -0.3496
   67MOL0     C 8725  -0.001  10.036   7.644  0.4144  0.2973 -0.0351
   67MOL0     C 8726  -0.163  10.046   7.643 -0.4784  0.2044 -1.3574
   67MOL0     C 8727  -0.223   9.941   7.540 -0.5445  0.2802 -0.7549
   67MOL0     C 8728  -0.365   9.913   7.559  0.6288 -0.4367 -0.8363
   67MOL0     N 8729  -0.451  10.008   7.485 -0.4966  0.0090 -0.1760
   67MOL0     C 8730  -0.494  10.136   7.520 -0.1051 -0.2568 -0.0145
   67MOL0     C 8731  -0.535  10.194   7.411 -0.5974 -0.1812  0.3827
   67MOL0     C 8732  -0.567  10.339   7.391  0.1975  0.5624 -0.0374
   67MOL0     C 8733  -0.700  10.344   7.318  0.1233  0.2433 -0.0310
   67MOL0     C 8734  -0.725  10.492   7.277  0.0085 -0.7453 -0.2150
   67MOL0     C 8735  -0.871  10.499   7.233  0.1621  0.7970 -0.9969
   67MOL0     O 8736  -0.968  10.434   7.322  0.0061  0.5493  0.0407
   67MOL0     C 8737  -1.026  10.488   7.436 -0.3247 -0.4635 -0.9728
   67MOL0     C 8738  -1.123  10.423   7.502  0.5276  0.1532  1.0492
   67MOL0     C 8739  -1.186  10.469   7.614  0.6036  0.4823 -0.4966
   67MOL0     C 8740  -1.150  10.593   7.676 -0.0355  0.2031 -0.5962
   67MOL0     C 8741  -1.235  10.647   7.783  0.3079 -0.0746 -0.1574
   67MOL0     O 8742  -1.355  10.586   7.808 -0.5875  0.6071  0.3517
   67MOL0     C 8743  -1.425  10.608   7.923 -0.2108 -0.4844 -0.6266
   67MOL0     C 8744  -1.437  10.735   7.980  0.7189  0.4501  0.4597
   67MOL0     C 8745  -1.508  10.757   8.094  0.4301 -0.0922 -0.7864
   67MOL0     C 8746  -1.555  10.651   8.171  0.4317  0.2745  1.0933
   67MOL0     O 8747  -1.614  10.680   8.290  0.2551  0.5296  0.9593
   67MOL0     C 8748  -1.686  10.569   8.349 -0.1736  0.3628 -0.0874
   67MOL0     C 8749  -1.781  10.590   8.460 -0.1048  0.7201 -0.5060
   67MOL0     C 8750  -1.872  10.471   8.487 -0.5789 -0.1524  0.0115
   67MOL0     C 8751  -1.928  10.463   8.628  0.5611  0.2424  0.7133
   67MOL0     C 8752  -2.049  10.563   8.645 -0.2055  0.1723 -0.9142
   67MOL0     C 8753  -2.185  10.520   8.584 -0.4159  0.9815  0.8175
   67MOL0     C 8754  -2.308  10.588   8.643 -0.8773  0.1167  1.0131
   67MOL0     C 8755  -2.445  10.542   8.594 -0.0344  1.5809  1.2327
   67MOL0    Cl 8756  -2.485  10.576   8.424 -0.4248  0.3038 -0.0875
   67MOL0     C 8757  -1.546  10.522   8.114  0.4150  0.1700  0.7013
   67MOL0     C 8758  -1.478  10.503   7.990 -0.0656  0.6486 -0.7806
   67MOL0     O 8759  -1.189  10.741   7.853  0.3001 -0.1237 -0.0264
   67MOL0     C 8760  -1.042  10.654   7.616 -0.0053  0.3385 -1.4438
   67MOL0     C 8761  -0.975  10.604   7.499  1.4055 -0.2140 -0.7672
   67MOL0     N 8762  -0.517  10.110   7.299 -0.6033 -0.0488  0.3458
   67MOL0     N 8763  -0.468   9.996   7.345  0.6654 -0.1279  0.4132
   67MOL0     C 8764   0.541  10.306   8.114 -0.5552  0.6087  0.6914
   67MOL0     C 8765   0.609  10.247   8.221 -0.0263 -0.7604  0.3120
   67MOL0     C 8766   0.710  10.066   8.609  0.1142  0.3000  0.0099
   67MOL0     C 8767   0.690   9.923   8.605  0.3286 -0.3190  0.6935
   67MOL0     C 8768   0.712   9.858   8.727 -0.1337 -0.1492  0.6439
   67MOL0     C 8769   0.753   9.921   8.846 -0.7046  0.5272  0.6465
   67MOL0     O 8770   0.777   9.839   8.955  0.3559 -0.6192 -0.0221
   67MOL0     C 8771   0.708   9.878   9.075 -0.0481  0.1099 -0.3600
   67MOL0     C 8772   0.755   9.781   9.184 -0.5968 -0.6383 -0.7093
   67MOL0     C 8773   0.770   9.637   9.141 -0.8425  0.1131 -0.4625
   67MOL0     C 8774   0.819   9.549   9.265 -0.0549  0.9429  0.7049
   67MOL0     C 8775   0.836   9.415   9.209 -0.0129  0.1033 -0.0923
   67MOL0     C 8776   0.847   9.294   9.183  0.4855  0.3282 -0.4029
   67MOL0     C 8777   0.752  10.064   8.846 -0.5231 -0.2277  0.4115
   67MOL0     C 8778   0.732  10.138   8.726  0.0479  0.6935 -1.1268
   67MOL0     H 8779   0.329  10.150   8.393 -0.6915 -0.3019 -0.5714
   67MOL0     H 8780   0.211  10.258   8.183 -0.7772 -1.3663  0.6718
   67MOL0     H 8781   0.216  10.366   7.828  2.1711 -1.9984 -2.0912
   67MOL0     H 8782   0.152  10.287   7.975  0.9418 -1.2644  0.9387
   67MOL0     H 8783   0.259  10.081   7.934  2.0162 -0.4820 -0.0134
   67MOL0     H 8784   0.391  10.155   7.852  0.8721  0.6860  1.6455
   67MOL0     H 8785   0.247  10.021   7.699  2.4626 -0.1150  3.5839
   67MOL0     H 8786   0.227  10.193   7.647 -3.3271  0.7690 -0.5900
   67MOL0     H 8787   0.027  10.084   7.842  3.3352 -1.5083 -0.0842
   67MOL0     H 8788   0.005  10.219   7.727 -1.8129 -1.3293 -1.7775
   67MOL0     H 8789   0.019   9.932   7.673  0.5574  0.5827  0.8924
   67MOL0     H 8790   0.035  10.065   7.545  2.0500  0.1732  0.4950
   67MOL0     H 8791  -0.183  10.147   7.605  0.2082  1.1437  0.6490
   67MOL0     H 8792  -0.206  10.042   7.743 -0.3092 -1.3111 -1.3179
   67MOL0     H 8793  -0.197   9.971   7.438  1.5432  2.0417  0.2298
   67MOL0     H 8794  -0.168   9.847   7.547 -2.1004 -0.5982  0.2945
   67MOL0     H 8795  -0.392   9.914   7.666  0.5529 -1.9851 -0.8104
   67MOL0     H 8796  -0.389   9.812   7.524 -0.1469 -0.7258  0.4221
   67MOL0     H 8797  -0.488  10.178   7.620  1.2883 -1.3059  0.3820
   67MOL0     H 8798  -0.490  10.393   7.335 -0.1846 -0.6096 -1.7947
   67MOL0     H 8799  -0.592  10.389   7.485 -1.0155  0.9030 -0.5209
   67MOL0     H 8800  -0.779  10.316   7.388  1.3162 -0.4253  1.0907
   67MOL0     H 8801  -0.707  10.276   7.233 -5.9366  1.0764 -0.6515
   67MOL0     H 8802  -0.711  10.557   7.364 -1.7419 -1.0988  0.3674
   67MOL0     H 8803  -0.652  10.514   7.198  1.7298 -1.4019  1.1223
   67MOL0     H 8804  -0.888  10.459   7.132  2.4668 -0.2590 -1.0311
   67MOL0     H 8805  -0.894  10.606   7.235  2.0082  1.2023  0.5330
   67MOL0     H 8806  -1.163  10.331   7.461 -3.4805  0.9366  2.7527
   67MOL0     H 8807  -1.282  10.419   7.628  0.7240 -0.6013 -2.9760
   67MOL0     H 8808  -1.413  10.826   7.927 -0.1665  0.6083  0.3142
   67MOL0     H 8809  -1.513  10.864   8.112  2.2925 -0.1585  0.4724
   67MOL0     H 8810  -1.618  10.496   8.394 -2.1776 -0.9626  0.9626
   67MOL0     H 8811  -1.753  10.519   8.278 -1.8715 -1.1084  2.4053
   67MOL0     H 8812  -1.847  10.676   8.444 -0.4757  0.2487 -1.5545
   67MOL0     H 8813  -1.726  10.601   8.555 -1.1303  1.2940  0.0367
   67MOL0     H 8814  -1.829  10.371   8.475 -3.3656 -1.5914  1.2823
   67MOL0     H 8815  -1.959  10.484   8.423 -1.2495  0.6071  1.0559
   67MOL0     H 8816  -1.962  10.362   8.653  0.4002  0.7470  2.6814
   67MOL0     H 8817  -1.860  10.487   8.710 -0.2269  1.0093  1.1632
   67MOL0     H 8818  -2.015  10.659   8.605 -2.5995  0.6605 -1.8893
   67MOL0     H 8819  -2.060  10.579   8.753 -0.7614 -0.4727 -0.8729
   67MOL0     H 8820  -2.190  10.411   8.590  1.1219  0.8615  0.4859
   67MOL0     H 8821  -2.189  10.532   8.475 -1.1910  0.4192  0.7760
   67MOL0     H 8822  -2.301  10.571   8.751  1.4215 -0.7881  0.7742
   67MOL0     H 8823  -2.310  10.695   8.620  1.8215  0.0179 -0.0064
   67MOL0     H 8824  -2.526  10.585   8.653 -1.2437 -0.6687  1.3318
   67MOL0     H 8825  -2.445  10.434   8.609 -1.9016  1.2135 -0.9163
   67MOL0     H 8826  -1.575  10.430   8.164  1.7067 -0.7825 -0.2123
   67MOL0     H 8827  -1.484  10.402   7.949 -0.9452  1.0755 -1.7399
   67MOL0     H 8828  -1.009  10.744   7.665 -0.5192 -0.0056 -0.4278
   67MOL0     H 8829  -0.899  10.665   7.451  0.4531 -0.0436 -2.0834
   67MOL0     H 8830   0.599  10.357   8.039 -0.6493  1.3801  1.1335
   67MOL0     H 8831   0.718  10.248   8.219  0.0813  2.3902 -2.8484
   67MOL0     H 8832   0.657   9.868   8.517  2.0330  0.9932 -0.8328
   67MOL0     H 8833   0.694   9.753   8.745  0.3668 -1.6092 -5.2874
   67MOL0     H 8834   0.600   9.868   9.057 -0.6219 -1.5544  3.1339
   67MOL0     H 8835   0.717   9.982   9.108  1.3000  0.2931 -1.2476
   67MOL0     H 8836   0.852   9.823   9.211 -1.0023 -0.4951  0.5993
   67MOL0     H 8837   0.697   9.784   9.277  0.6147 -0.7716  0.0742
   67MOL0     H 8838   0.857   9.637   9.075  0.3092  1.7924  0.9794
   67MOL0     H 8839   0.673   9.611   9.097 -0.7559  2.0526 -1.9385
   67MOL0     H 8840   0.912   9.596   9.297  1.2533 -0.5523 -0.7445
   67MOL0     H 8841   0.745   9.549   9.346  0.8681 -1.7295  1.6623
   67MOL0     H 8842   0.847   9.190   9.157  0.1139 -0.0803  1.1216
   67MOL0     H 8843   0.778  10.106   8.943 -1.6875  0.8544  0.2619
   67MOL0     H 8844   0.752  10.244   8.739 -2.9216  1.1186  0.9656
   68MOL0     O 8845   5.418   0.866   3.184  0.2418  0.4261  0.0956
   68MOL0     C 8846   5.407   0.743   3.200 -0.5830 -0.2427 -0.8630
   68MOL0     O 8847   5.360   0.658   3.106  0.4099 -0.1737  0.0598
   68MOL0     C 8848   5.333   0.683   2.974  0.6945 -0.4973 -0.1326
   68MOL0     C 8849   5.291   0.572   2.886 -0.2046 -0.4684  0.0729
   68MOL0     C 8850   5.271   0.594   2.750  0.4637 -0.7738  0.0128
   68MOL0     C 8851   5.268   0.726   2.700  0.1150  0.3461 -0.6808
   68MOL0     O 8852   5.252   0.732   2.570 -0.0632 -0.4898 -0.5886
   68MOL0     C 8853   5.251   0.859   2.500 -0.6757  0.6107 -0.2921
   68MOL0     C 8854   5.265   0.835   2.353  0.1860  0.0159 -0.2962
   68MOL0     C 8855   5.126   0.818   2.283  0.8670  0.4675  0.0382
   68MOL0     C 8856   5.031   0.708   2.347 -0.2408  0.3614 -0.5421
   68MOL0     C 8857   4.898   0.695   2.266  0.2032  0.4189 -0.2299
   68MOL0     C 8858   4.907   0.589   2.153  0.2525  0.1240 -0.0786
   68MOL0     C 8859   4.899   0.446   2.210 -0.4025 -0.3632  0.6311
   68MOL0     C 8860   4.769   0.399   2.266  0.3131 -0.4296  0.3769
   68MOL0     N 8861   4.654   0.395   2.172 -0.2251 -0.2356  0.3940
   68MOL0     C 8862   4.610   0.289   2.087  0.3092 -0.4100  0.0692
   68MOL0     C 8863   4.528   0.357   2.002  0.3097 -0.2082  0.1143
   68MOL0     C 8864   4.457   0.293   1.880 -0.5459  0.3870  0.1733
   68MOL0     C 8865   4.305   0.313   1.857 -0.1248 -0.4210  0.2009
   68MOL0     C 8866   4.286   0.454   1.796 -0.6600  1.1853  0.6417
   68MOL0     C 8867   4.137   0.468   1.751 -0.5114  0.2589  0.0729
   68MOL0     O 8868   4.116   0.389   1.628  0.2267  0.1302 -0.0135
   68MOL0     C 8869   3.989   0.390   1.573  0.1467 -0.0204  0.1558
   68MOL0     C 8870   3.875   0.455   1.641 -0.2733  0.6042 -0.0485
   68MOL0     C 8871   3.754   0.436   1.580 -0.5468 -1.4418  0.0736
   68MOL0     C 8872   3.729   0.361   1.462  0.1387 -0.3263  0.1054
   68MOL0     C 8873   3.597   0.355   1.389 -1.0059 -0.5544 -0.9310
   68MOL0     O 8874   3.592   0.269   1.285 -0.3773 -0.2860 -0.7118
   68MOL0     C 8875   3.504   0.275   1.188  0.0323  0.3715  0.8933
   68MOL0     C 8876   3.437   0.395   1.150  0.0256 -0.3159  0.1520
   68MOL0     C 8877   3.344   0.410   1.052 -0.5231  0.2721  0.6610
   68MOL0     C 8878   3.301   0.297   0.978 -0.4706 -0.4532 -1.0316
   68MOL0     O 8879   3.215   0.312   0.873 -0.2409  0.0196  0.1098
   68MOL0     C 8880   3.110   0.400   0.896  1.1282 -0.9134 -0.3534
   68MOL0     C 8881   2.986   0.336   0.829 -0.7721  0.7862  0.4220
   68MOL0     C 8882   2.896   0.260   0.931 -0.2187 -0.2011 -0.1257
   68MOL0     C 8883   2.748   0.253   0.902 -0.1803  0.4649 -0.1608
   68MOL0     C 8884   2.677   0.147   0.999  0.4243  0.6209 -0.3792
   68MOL0     C 8885   2.529   0.120   0.958 -0.5034  0.7645 -0.6999
   68MOL0     C 8886   2.452   0.253   0.945 -0.6470 -1.2952 -1.0633
   68MOL0     C 8887   2.306   0.248   0.904 -1.2732  0.3987 -0.4770
   68MOL0    Cl 8888   2.227   0.176   1.052  0.0802  0.2635 -0.2162
   68MOL0     C 8889   3.358   0.176   1.015  0.0340  0.8169  1.1314
   68MOL0     C 8890   3.454   0.166   1.117 -0.5395 -0.0558  0.1570
   68MOL0     O 8891   3.515   0.438   1.427  0.2102  1.2886  0.1497
   68MOL0     C 8892   3.841   0.284   1.423  0.2873  0.0660 -0.6626
   68MOL0     C 8893   3.971   0.307   1.467  0.0105  0.9070  0.2165
   68MOL0     N 8894   4.517   0.487   2.042 -0.5350  0.4344 -0.0101
   68MOL0     N 8895   4.596   0.509   2.140  0.9832 -0.9746 -0.3291
   68MOL0     C 8896   5.299   0.830   2.791 -0.5194  0.1213 -0.2468
   68MOL0     C 8897   5.337   0.813   2.922 -0.7106 -0.2868  0.3898
   68MOL0     C 8898   5.450   0.693   3.331 -0.0793  0.1814  1.0871
   68MOL0     C 8899   5.570   0.738   3.386 -0.1441 -0.7585  0.2269
   68MOL0     C 8900   5.616   0.678   3.504  0.3768 -0.3534  0.3844
   68MOL0     C 8901   5.558   0.565   3.569 -0.2220  0.5326  0.9590
   68MOL0     O 8902   5.598   0.499   3.675  0.0339 -0.0562 -0.7103
   68MOL0     C 8903   5.683   0.560   3.779  0.4178  0.1742 -0.5813
   68MOL0     C 8904   5.828   0.576   3.743  0.8881 -0.3248  0.4771
   68MOL0     C 8905   5.913   0.540   3.865  0.6744  0.0852  0.3061
   68MOL0     C 8906   6.059   0.575   3.835  0.3876  0.0256 -0.5411
   68MOL0     C 8907   6.126   0.550   3.966 -0.5273  0.1859  0.5516
   68MOL0     C 8908   6.166   0.532   4.079  0.1969  0.3186 -0.3059
   68MOL0     C 8909   5.441   0.517   3.498 -0.3459 -0.1951  0.0341
   68MOL0     C 8910   5.388   0.581   3.389  0.2618  0.1174  0.1123
   68MOL0     H 8911   5.258   0.484   2.941 -2.0008  0.8650  1.2723
   68MOL0     H 8912   5.242   0.516   2.680  1.2103 -0.9272 -0.1306
   68MOL0     H 8913   5.331   0.925   2.535  1.8628 -2.0377 -0.6883
   68MOL0     H 8914   5.155   0.910   2.512 -0.3320  2.4825 -4.1503
   68MOL0     H 8915   5.329   0.747   2.341 -0.1124 -0.0035 -1.9660
   68MOL0     H 8916   5.321   0.921   2.315  1.2641  0.3790  1.9870
   68MOL0     H 8917   5.143   0.801   2.176  0.9556  0.9228 -0.0241
   68MOL0     H 8918   5.072   0.913   2.289  0.8136  0.3957  0.8588
   68MOL0     H 8919   5.076   0.608   2.353  1.4360  1.1837  3.3070
   68MOL0     H 8920   5.015   0.733   2.452 -3.2635 -0.2121 -0.7779
   68MOL0     H 8921   4.871   0.795   2.230  0.7712  0.5700 -0.2410
   68MOL0     H 8922   4.822   0.671   2.342  1.1862  0.0854  0.6773
   68MOL0     H 8923   5.001   0.612   2.103 -0.1709  0.2043 -0.8558
   68MOL0     H 8924   4.836   0.603   2.070 -0.0002 -1.5942 -0.1958
   68MOL0     H 8925   4.930   0.388   2.123  0.3664  3.0483 -1.5821
   68MOL0     H 8926   4.974   0.420   2.284 -1.9427 -2.2634  1.6070
   68MOL0     H 8927   4.746   0.476   2.340 -0.4014  1.7029 -1.9293
   68MOL0     H 8928   4.789   0.303   2.315  3.0449  0.1786  0.5829
   68MOL0     H 8929   4.643   0.187   2.069 -0.4913 -0.3020 -2.4162
   68MOL0     H 8930   4.477   0.187   1.897  3.9177  1.2691  1.8472
   68MOL0     H 8931   4.519   0.324   1.795 -1.3427 -2.9971 -1.8172
   68MOL0     H 8932   4.248   0.305   1.950  0.1047 -1.3003  0.2754
   68MOL0     H 8933   4.277   0.245   1.776  2.1656  0.6610 -1.6343
   68MOL0     H 8934   4.304   0.528   1.874  3.2063  0.7852  0.3093
   68MOL0     H 8935   4.353   0.471   1.711 -1.2069  1.9297  0.3410
   68MOL0     H 8936   4.112   0.574   1.745  1.8528  1.1200  3.1845
   68MOL0     H 8937   4.071   0.424   1.827 -1.4266  2.3430  0.5480
   68MOL0     H 8938   3.878   0.517   1.730 -0.0399 -2.0065  1.8823
   68MOL0     H 8939   3.670   0.488   1.624  0.4252  0.0802  0.2218
   68MOL0     H 8940   3.479   0.489   1.183  3.9062 -2.8005  3.4159
   68MOL0     H 8941   3.303   0.507   1.029 -4.1549 -1.0294  1.0116
   68MOL0     H 8942   3.139   0.494   0.848  0.6508 -0.5409  0.0752
   68MOL0     H 8943   3.094   0.426   1.001 -3.2023  0.9902 -1.2686
   68MOL0     H 8944   3.018   0.277   0.743  1.3998 -1.3807  2.5635
   68MOL0     H 8945   2.929   0.427   0.805  0.2924  1.7949  1.5312
   68MOL0     H 8946   2.890   0.316   1.025  0.5713  0.9694 -0.7540
   68MOL0     H 8947   2.937   0.163   0.960  1.2855  0.9278  1.7569
   68MOL0     H 8948   2.702   0.352   0.912 -0.7107  0.2122 -0.0621
   68MOL0     H 8949   2.729   0.228   0.797 -2.8844  3.3959 -0.5190
   68MOL0     H 8950   2.681   0.178   1.104 -0.8659 -2.7745  0.7857
   68MOL0     H 8951   2.748   0.064   0.995 -0.8884 -0.7773  2.5082
   68MOL0     H 8952   2.496   0.055   1.040 -1.0728  2.8645  0.8225
   68MOL0     H 8953   2.519   0.065   0.864 -1.8051  2.1379 -1.4116
   68MOL0     H 8954   2.464   0.316   1.033  0.3249 -2.1639 -0.5662
   68MOL0     H 8955   2.497   0.310   0.863 -0.4264  0.0825 -0.0176
   68MOL0     H 8956   2.286   0.188   0.815 -1.1726  2.1303 -1.7094
   68MOL0     H 8957   2.256   0.344   0.889  0.7877  1.6474  0.3473
   68MOL0     H 8958   3.309   0.087   0.977  1.6791 -0.5547  2.0325
   68MOL0     H 8959   3.474   0.063   1.145 -2.0996 -1.1318 -2.2804
   68MOL0     H 8960   3.819   0.207   1.349  1.4720 -2.3499  1.3244
   68MOL0     H 8961   4.053   0.254   1.419 -3.0750 -2.7154 -1.6092
   68MOL0     H 8962   5.304   0.932   2.754 -1.1621  0.5195  0.7172
   68MOL0     H 8963   5.377   0.904   2.967 -0.4313  0.5178 -1.3709
   68MOL0     H 8964   5.638   0.809   3.342  1.0291 -1.1921  1.2874
   68MOL0     H 8965   5.714   0.706   3.542  1.5692 -0.8779 -2.0713
   68MOL0     H 8966   5.668   0.500   3.869  2.5557  0.1167 -0.2009
   68MOL0     H 8967   5.648   0.657   3.816 -1.0921 -0.7055  0.3895
   68MOL0     H 8968   5.849   0.508   3.660 -0.1387  1.0867 -1.0073
   68MOL0     H 8969   5.851   0.678   3.713  0.8945  0.8308  3.8956
   68MOL0     H 8970   5.900   0.436   3.898 -1.1695  0.0401 -0.4496
   68MOL0     H 8971   5.887   0.598   3.954 -1.8881  1.7377 -1.4009
   68MOL0     H 8972   6.102   0.517   3.752  0.8446 -2.5052  1.3198
   68MOL0     H 8973   6.081   0.678   3.809  1.7974 -0.3805 -1.0874
   68MOL0     H 8974   6.188   0.509   4.181  2.5112 -3.1287 -1.4219
   68MOL0     H 8975   5.383   0.431   3.530 -0.4312 -0.9972 -2.0782
   68MOL0     H 8976   5.296   0.546   3.344  0.2058 -0.3169  0.5566
   69MOL0     O 8977   7.922   8.867   1.462  0.2728  0.1032  0.0448
   69MOL0     C 8978   7.904   8.958   1.384 -0.1619  0.4160 -0.2362
   69MOL0     O 8979   7.806   8.965   1.281  0.3356 -0.3417  0.2318
   69MOL0     C 8980   7.706   8.869   1.255  0.7593 -0.0038 -0.7566
   69MOL0     C 8981   7.673   8.767   1.347  0.2036 -0.0674 -0.5894
   69MOL0     C 8982   7.570   8.677   1.316  0.7903 -0.5279 -0.5831
   69MOL0     C 8983   7.498   8.688   1.201  0.0102 -0.4486  1.0125
   69MOL0     O 8984   7.403   8.590   1.175  0.0985 -0.0310  0.4329
   69MOL0     C 8985   7.302   8.607   1.066 -0.1749  0.9295  0.3312
   69MOL0     C 8986   7.235   8.476   1.024  0.5130  1.0155 -0.1728
   69MOL0     C 8987   7.123   8.484   0.919 -0.0061  0.9812  0.7534
   69MOL0     C 8988   7.087   8.336   0.861 -0.2837 -0.2212  0.2513
   69MOL0     C 8989   6.931   8.320   0.869  0.3921  0.3565  0.0333
   69MOL0     C 8990   6.899   8.174   0.826 -0.1626  0.0761 -0.1653
   69MOL0     C 8991   6.751   8.148   0.809 -0.4881 -0.9182 -0.0293
   69MOL0     C 8992   6.725   7.992   0.805  0.2649 -0.5038 -0.1546
   69MOL0     N 8993   6.753   7.918   0.938  0.6282  0.4271  0.1911
   69MOL0     C 8994   6.706   7.972   1.052 -0.1888 -0.0144 -0.6809
   69MOL0     C 8995   6.766   7.906   1.148  0.4137 -0.0719  0.0221
   69MOL0     C 8996   6.760   7.944   1.298 -0.8073  0.1096 -0.2066
   69MOL0     C 8997   6.782   7.832   1.400 -0.1102  0.3447  0.6752
   69MOL0     C 8998   6.676   7.729   1.374 -0.5456  0.5359 -0.9159
   69MOL0     C 8999   6.586   7.699   1.490  0.8412  0.2473 -1.4627
   69MOL0     O 9000   6.485   7.802   1.493  0.4245  0.0182 -0.2376
   69MOL0     C 9001   6.377   7.802   1.408 -0.0840 -0.7015  0.3385
   69MOL0     C 9002   6.303   7.692   1.401  0.6946  0.7692  0.0630
   69MOL0     C 9003   6.194   7.691   1.317  0.5334  0.6666 -0.9323
   69MOL0     C 9004   6.151   7.804   1.246  0.8867 -0.4387 -0.1952
   69MOL0     C 9005   6.008   7.808   1.185  0.6637 -0.1254  0.8387
   69MOL0     O 9006   5.942   7.691   1.143  0.4428  0.0579  0.0327
   69MOL0     C 9007   5.816   7.687   1.088 -0.1642 -0.3294 -0.2585
   69MOL0     C 9008   5.716   7.614   1.144  0.5303 -0.6184 -0.3634
   69MOL0     C 9009   5.597   7.606   1.074  0.1838  0.4850 -0.1616
   69MOL0     C 9010   5.576   7.656   0.953  0.5085 -0.0435  0.0522
   69MOL0     O 9011   5.452   7.620   0.907 -0.5545 -0.1538 -0.5417
   69MOL0     C 9012   5.375   7.717   0.839  0.3974 -0.9130  0.9269
   69MOL0     C 9013   5.248   7.758   0.902  0.5420 -0.2557 -0.3111
   69MOL0     C 9014   5.177   7.636   0.939  0.1824  0.3789  0.1645
   69MOL0     C 9015   5.043   7.667   1.010 -0.4597  1.0005 -0.0022
   69MOL0     C 9016   4.932   7.703   0.924 -0.9339 -0.4181  0.1346
   69MOL0     C 9017   4.805   7.714   1.002  0.3234 -0.4554  0.2241
   69MOL0     C 9018   4.707   7.766   0.898  0.0651  1.4358 -0.1322
   69MOL0     C 9019   4.566   7.725   0.946  1.5537 -0.0866 -0.2612
   69MOL0    Cl 9020   4.527   7.789   1.117 -0.4349 -0.0359 -0.1287
   69MOL0     C 9021   5.673   7.742   0.897 -0.7981  0.6420 -1.0133
   69MOL0     C 9022   5.799   7.740   0.960 -0.5744 -0.0494  0.2819
   69MOL0     O 9023   5.970   7.920   1.159  0.1470 -0.3495  0.6724
   69MOL0     C 9024   6.232   7.921   1.253 -1.3208  0.5130 -0.3510
   69MOL0     C 9025   6.346   7.918   1.333  0.6808  0.5469 -0.3105
   69MOL0     N 9026   6.852   7.816   1.089  0.0207  0.1050  1.1977
   69MOL0     N 9027   6.844   7.823   0.959  0.1961  0.9076  0.5690
   69MOL0     C 9028   7.541   8.783   1.105  0.5610  0.3248 -0.2741
   69MOL0     C 9029   7.640   8.880   1.137 -0.2843 -0.6646 -0.5480
   69MOL0     C 9030   7.993   9.069   1.408  0.5094  0.7030 -0.1605
   69MOL0     C 9031   8.110   9.059   1.481 -0.4187 -1.1827 -0.3717
   69MOL0     C 9032   8.189   9.167   1.520 -0.5476 -0.0673 -0.3227
   69MOL0     C 9033   8.152   9.293   1.469  0.9476  0.3344 -0.0200
   69MOL0     O 9034   8.230   9.394   1.510  0.1350 -0.2957  0.1362
   69MOL0     C 9035   8.174   9.486   1.610  0.3764 -0.7144 -0.3723
   69MOL0     C 9036   8.190   9.442   1.763 -0.4067 -0.8725  0.5840
   69MOL0     C 9037   8.183   9.559   1.862 -0.3270 -0.1071  0.8221
   69MOL0     C 9038   8.196   9.517   2.015  0.3196  0.0085 -0.5514
   69MOL0     C 9039   8.209   9.639   2.089  0.5423  0.0715  0.3045
   69MOL0     C 9040   8.270   9.736   2.135 -0.5506 -0.2672  0.6818
   69MOL0     C 9041   8.041   9.307   1.381 -0.7989  0.2319  0.4252
   69MOL0     C 9042   7.955   9.194   1.363  0.6918 -0.1176 -0.3145
   69MOL0     H 9043   7.719   8.757   1.445 -3.7206 -0.8635  1.3933
   69MOL0     H 9044   7.552   8.601   1.392 -1.0950 -0.3110 -0.7757
   69MOL0     H 9045   7.359   8.632   0.976 -0.3031 -2.1442 -0.7296
   69MOL0     H 9046   7.220   8.675   1.090 -1.3687 -0.0331 -0.8471
   69MOL0     H 9047   7.201   8.423   1.113  0.8454  1.0429 -0.0286
   69MOL0     H 9048   7.318   8.418   0.980 -0.6267  0.6046 -1.8754
   69MOL0     H 9049   7.153   8.544   0.832 -1.5816 -0.9483 -1.2521
   69MOL0     H 9050   7.032   8.528   0.962  0.5341  0.1156  2.8848
   69MOL0     H 9051   7.128   8.321   0.760 -0.5246 -2.9215  0.4681
   69MOL0     H 9052   7.136   8.257   0.918  2.2935  0.4146 -0.9078
   69MOL0     H 9053   6.896   8.404   0.808  3.0372  1.9627  0.5612
   69MOL0     H 9054   6.894   8.344   0.969  1.2603  1.0615  0.1987
   69MOL0     H 9055   6.948   8.107   0.897 -0.5481  0.6366  0.6394
   69MOL0     H 9056   6.935   8.161   0.724  0.4121  4.1546 -0.6702
   69MOL0     H 9057   6.694   8.192   0.892 -3.8399  0.8129 -2.9723
   69MOL0     H 9058   6.718   8.195   0.716  2.6093 -3.8939 -2.9063
   69MOL0     H 9059   6.792   7.948   0.730  1.1115 -0.2864  0.4598
   69MOL0     H 9060   6.622   7.979   0.770  0.6228 -1.6678 -0.8137
   69MOL0     H 9061   6.638   8.057   1.051  1.3332  1.2560  0.3155
   69MOL0     H 9062   6.666   7.987   1.334 -0.4025  1.8403 -1.0952
   69MOL0     H 9063   6.832   8.024   1.319 -2.8215  1.6924  1.1291
   69MOL0     H 9064   6.784   7.860   1.506 -0.8242  0.5003  0.6555
   69MOL0     H 9065   6.880   7.791   1.376 -1.0020 -0.2861 -2.3165
   69MOL0     H 9066   6.624   7.746   1.279  1.9641 -2.0094 -2.9015
   69MOL0     H 9067   6.722   7.631   1.358 -0.0642  0.8423 -1.4469
   69MOL0     H 9068   6.652   7.694   1.577 -0.7827  1.6491 -0.1042
   69MOL0     H 9069   6.548   7.597   1.474 -1.3239  0.6696  0.5046
   69MOL0     H 9070   6.342   7.597   1.435 -0.0845  0.4422  0.0500
   69MOL0     H 9071   6.141   7.596   1.321 -0.3919  1.1412 -1.5071
   69MOL0     H 9072   5.737   7.566   1.238 -1.4774 -0.9681 -0.0505
   69MOL0     H 9073   5.516   7.549   1.118 -1.9696  3.6242  0.3132
   69MOL0     H 9074   5.334   7.676   0.747 -2.9181  3.7048  0.0254
   69MOL0     H 9075   5.428   7.805   0.802 -1.1908  0.4144  1.6653
   69MOL0     H 9076   5.187   7.816   0.833  2.0077  0.7983 -0.7760
   69MOL0     H 9077   5.278   7.817   0.990  0.6780  0.2760 -0.7103
   69MOL0     H 9078   5.243   7.581   1.007  1.2792 -0.2092 -1.3125
   69MOL0     H 9079   5.166   7.570   0.853 -0.1870  0.1043  0.4222
   69MOL0     H 9080   5.018   7.589   1.082  1.4288 -1.2508 -1.6386
   69MOL0     H 9081   5.058   7.760   1.067 -1.4715  1.7606 -0.9480
   69MOL0     H 9082   4.918   7.622   0.852 -0.5603 -1.0425  0.7533
   69MOL0     H 9083   4.957   7.795   0.870  0.0926 -1.5757 -1.4294
   69MOL0     H 9084   4.826   7.786   1.082 -1.4678  1.0057 -0.5569
   69MOL0     H 9085   4.780   7.620   1.051  1.5141 -1.1311 -0.4250
   69MOL0     H 9086   4.730   7.872   0.881 -0.7475  1.4419 -1.3493
   69MOL0     H 9087   4.715   7.719   0.799  4.3660  0.3848  0.5047
   69MOL0     H 9088   4.562   7.617   0.957 -1.0076  0.0589  1.0331
   69MOL0     H 9089   4.484   7.769   0.889  1.3749  3.6994  2.5204
   69MOL0     H 9090   5.658   7.786   0.799 -1.2193  0.5058 -1.0099
   69MOL0     H 9091   5.879   7.777   0.896 -0.9261  3.9824  1.8433
   69MOL0     H 9092   6.207   8.013   1.200  2.1158  2.3104  0.9024
   69MOL0     H 9093   6.406   8.009   1.332  1.4957  0.0135 -0.6790
   69MOL0     H 9094   7.478   8.799   1.018  0.1233 -1.3537 -0.2990
   69MOL0     H 9095   7.657   8.962   1.068 -0.6685  1.9031  2.1624
   69MOL0     H 9096   8.142   8.966   1.527 -1.2976 -0.5574  1.6484
   69MOL0     H 9097   8.257   9.164   1.605 -1.5040  2.3632  0.6097
   69MOL0     H 9098   8.067   9.497   1.594  0.4196  1.9071  0.5842
   69MOL0     H 9099   8.195   9.590   1.584 -0.9348 -0.5517 -0.8220
   69MOL0     H 9100   8.117   9.370   1.800 -0.5338  0.9338  4.2823
   69MOL0     H 9101   8.293   9.406   1.773  0.2289  0.7525  0.1260
   69MOL0     H 9102   8.088   9.608   1.843 -0.2933 -0.6505 -0.9703
   69MOL0     H 9103   8.258   9.630   1.826 -1.5922 -0.4412 -2.8588
   69MOL0     H 9104   8.100   9.467   2.035 -0.0874  0.8089 -0.4659
   69MOL0     H 9105   8.275   9.444   2.033  0.8363  0.1816 -1.9944
   69MOL0     H 9106   8.326   9.814   2.183  0.6590  0.4467 -1.7005
   69MOL0     H 9107   8.015   9.405   1.343  0.5038  1.3339  2.2222
   69MOL0     H 9108   7.869   9.212   1.300  1.7114 -0.5399 -1.8766
   70MOL0     O 9109   2.250   6.099   2.447  0.0630 -0.1916  0.1426
   70MOL0     C 9110   2.180   6.003   2.410 -0.6910  0.2146  0.5486
   70MOL0     O 9111   2.060   5.957   2.458  0.0279  0.0770 -0.2231
   70MOL0     C 9112   2.001   6.046   2.536  0.5695  0.0810  0.5831
   70MOL0     C 9113   1.978   6.182   2.489  0.3822  0.2278  0.5244
   70MOL0     C 9114   1.906   6.277   2.571  0.4127 -0.0513  0.4467
   70MOL0     C 9115   1.837   6.233   2.685  0.1997 -0.6148  0.8540
   70MOL0     O 9116   1.779   6.326   2.757 -0.4885 -0.6866 -0.5245
   70MOL0     C 9117   1.687   6.301   2.871 -0.5837 -0.1711  0.4719
   70MOL0     C 9118   1.545   6.289   2.828 -0.8355 -0.6187 -0.6201
   70MOL0     C 9119   1.499   6.404   2.740 -0.1887 -0.0019  0.0075
   70MOL0     C 9120   1.354   6.388   2.706 -0.2357 -0.4850 -0.0401
   70MOL0     C 9121   1.319   6.455   2.566 -0.3215  0.3473 -0.1131
   70MOL0     C 9122   1.188   6.409   2.493 -0.2707 -0.1920 -0.0742
   70MOL0     C 9123   1.066   6.482   2.546 -0.3421 -0.6269 -0.6524
   70MOL0     C 9124   0.940   6.465   2.454 -0.6838  0.7162  0.0401
   70MOL0     N 9125   0.893   6.335   2.498 -0.1395 -0.0367 -0.8163
   70MOL0     C 9126   0.815   6.314   2.604 -0.3492 -0.4879  0.6884
   70MOL0     C 9127   0.772   6.190   2.589  0.7004 -0.0891 -0.3710
   70MOL0     C 9128   0.675   6.137   2.693 -0.0184 -0.4140  0.5797
   70MOL0     C 9129   0.580   6.038   2.642 -0.6378  0.1464  0.5152
   70MOL0     C 9130   0.492   5.963   2.746 -0.4574 -0.0929  0.3151
   70MOL0     C 9131   0.390   5.885   2.668 -0.5345 -0.5498 -0.2412
   70MOL0     O 9132   0.319   5.964   2.575  0.3977 -0.4787 -0.3285
   70MOL0     C 9133   0.199   6.021   2.608  0.0312  0.1686  0.0003
   70MOL0     C 9134   0.163   6.061   2.743  0.1047 -0.3962  0.2942
   70MOL0     C 9135   0.049   6.128   2.771  0.8662 -0.7514  0.2654
   70MOL0     C 9136  -0.039   6.173   2.668 -1.2870  0.2752 -0.1386
   70MOL0     C 9137  -0.175   6.216   2.697 -0.6761 -0.0410 -0.1712
   70MOL0     O 9138  -0.241   6.184   2.811  0.1188  0.0657 -0.1278
   70MOL0     C 9139  -0.377   6.202   2.839  0.6858 -0.0532 -0.8989
   70MOL0     C 9140  -0.474   6.239   2.739 -0.4899 -1.1904  0.5028
   70MOL0     C 9141  -0.605   6.257   2.778  1.3044 -0.0463 -0.6945
   70MOL0     C 9142  -0.651   6.233   2.914 -0.1684 -0.4331 -0.2068
   70MOL0     O 9143  -0.784   6.254   2.948 -0.4463  0.5418  0.2322
   70MOL0     C 9144  -0.832   6.263   3.087  0.2329  0.2076  0.5817
   70MOL0     C 9145  -0.872   6.124   3.134  0.1080 -0.2096 -0.4376
   70MOL0     C 9146  -0.994   6.066   3.062 -0.2118  0.3316 -0.8959
   70MOL0     C 9147  -1.119   6.135   3.104  0.2162 -0.4847 -0.1977
   70MOL0     C 9148  -1.192   6.059   3.225  0.5974 -0.0246 -0.3492
   70MOL0     C 9149  -1.324   6.125   3.267 -0.0478 -0.2245 -0.6982
   70MOL0     C 9150  -1.361   6.066   3.406  0.1781 -0.3626 -0.0393
   70MOL0     C 9151  -1.515   6.073   3.430 -0.3431 -0.7677 -0.0080
   70MOL0    Cl 9152  -1.605   5.977   3.305  0.2098  0.1460  0.2477
   70MOL0     C 9153  -0.552   6.193   3.009  0.7646  0.0115 -0.1269
   70MOL0     C 9154  -0.421   6.179   2.968 -0.9237 -0.9746 -0.1167
   70MOL0     O 9155  -0.219   6.282   2.605 -0.1577 -0.3166  0.1948
   70MOL0     C 9156   0.014   6.158   2.532  0.2659 -1.0901  0.2003
   70MOL0     C 9157   0.127   6.085   2.500 -1.0625  0.2385  0.2179
   70MOL0     N 9158   0.829   6.136   2.478  0.1443 -0.2888  0.0973
   70MOL0     N 9159   0.898   6.228   2.422 -1.3451  0.4852 -0.2199
   70MOL0     C 9160   1.849   6.095   2.717  0.1650 -0.0535  1.0886
   70MOL0     C 9161   1.930   6.007   2.640  0.1664 -0.2261  0.2690
   70MOL0     C 9162   2.250   5.908   2.315 -0.1462 -0.0292 -0.0131
   70MOL0     C 9163   2.177   5.826   2.225  0.9633 -0.3393  0.2332
   70MOL0     C 9164   2.239   5.741   2.134 -0.0453 -0.4651 -0.0676
   70MOL0     C 9165   2.378   5.727   2.143  1.0838 -0.3957  0.7485
   70MOL0     O 9166   2.449   5.649   2.047  0.1990  0.1973 -0.5573
   70MOL0     C 9167   2.393   5.518   2.015  0.6384  0.1336  0.1781
   70MOL0     C 9168   2.470   5.450   1.899 -0.1505  0.6004  1.0633
   70MOL0     C 9169   2.618   5.457   1.923  0.1087  0.3379  0.3145
   70MOL0     C 9170   2.705   5.386   1.815  0.0415 -0.0331  1.1166
   70MOL0     C 9171   2.846   5.359   1.841  0.3268  0.1269  0.6608
   70MOL0     C 9172   2.966   5.352   1.850 -0.0309  0.1464  0.0018
   70MOL0     C 9173   2.454   5.803   2.233  0.4589  0.4674 -0.0855
   70MOL0     C 9174   2.392   5.895   2.324 -0.7457  0.3248 -0.2787
   70MOL0     H 9175   2.021   6.207   2.393 -2.7042  0.0433 -1.0478
   70MOL0     H 9176   1.897   6.379   2.536 -1.0513 -0.7611 -1.3848
   70MOL0     H 9177   1.705   6.376   2.948 -1.8492  0.2541  0.3711
   70MOL0     H 9178   1.720   6.204   2.911  1.0482 -1.4398 -3.3929
   70MOL0     H 9179   1.496   6.293   2.926 -1.7694  0.6808 -1.1034
   70MOL0     H 9180   1.535   6.188   2.789  2.1124 -1.8194  1.3416
   70MOL0     H 9181   1.557   6.381   2.650 -1.3284  1.5107 -1.1694
   70MOL0     H 9182   1.516   6.509   2.766 -2.9415  1.2707 -2.7173
   70MOL0     H 9183   1.335   6.280   2.698 -1.1102 -0.3810  0.4828
   70MOL0     H 9184   1.279   6.405   2.784 -0.0397  0.5767 -0.0771
   70MOL0     H 9185   1.395   6.444   2.488 -1.2859  1.4303 -1.2676
   70MOL0     H 9186   1.313   6.561   2.590 -1.2684 -0.2183  2.4679
   70MOL0     H 9187   1.188   6.300   2.503  1.2686 -0.1909  0.2535
   70MOL0     H 9188   1.201   6.432   2.387  2.0910  2.1627  0.6113
   70MOL0     H 9189   1.034   6.462   2.649 -1.3294 -1.6106 -1.1301
   70MOL0     H 9190   1.085   6.590   2.547  0.8643 -0.6979  3.4662
   70MOL0     H 9191   0.972   6.476   2.350  0.1978  0.4635  0.2778
   70MOL0     H 9192   0.863   6.536   2.487 -1.3633 -0.0840  0.2177
   70MOL0     H 9193   0.794   6.390   2.679 -0.6546 -2.9762  3.2960
   70MOL0     H 9194   0.616   6.224   2.725 -0.0474  0.7957 -2.3709
   70MOL0     H 9195   0.736   6.088   2.769 -2.9335 -1.2741  2.5649
   70MOL0     H 9196   0.636   5.967   2.581 -0.9890  0.5225 -0.2640
   70MOL0     H 9197   0.512   6.088   2.571 -4.0113 -3.4348  0.8731
   70MOL0     H 9198   0.563   5.897   2.797  0.0850  1.5179  1.7467
   70MOL0     H 9199   0.444   6.038   2.810 -0.4466 -0.6778  1.0126
   70MOL0     H 9200   0.318   5.843   2.739 -0.8880  2.3473  1.2963
   70MOL0     H 9201   0.438   5.804   2.613 -2.1102 -0.7536 -1.4052
   70MOL0     H 9202   0.235   6.024   2.816 -0.7794 -0.6682  1.0460
   70MOL0     H 9203   0.023   6.160   2.872  1.2523  1.0880 -0.1780
   70MOL0     H 9204  -0.456   6.267   2.636  2.2061  3.7881  1.9892
   70MOL0     H 9205  -0.678   6.287   2.703  1.0207 -1.2970 -0.9339
   70MOL0     H 9206  -0.912   6.337   3.094  3.5495  4.3621 -0.8589
   70MOL0     H 9207  -0.751   6.296   3.153 -0.6493  0.8044  1.4065
   70MOL0     H 9208  -0.876   6.112   3.242  3.9407 -0.9618 -0.2225
   70MOL0     H 9209  -0.780   6.068   3.116  2.0557  1.4375  3.2799
   70MOL0     H 9210  -1.005   5.960   3.085  2.8330  0.0067 -0.6179
   70MOL0     H 9211  -0.975   6.069   2.955 -0.3336 -0.0921 -0.9300
   70MOL0     H 9212  -1.097   6.237   3.135 -1.5642 -0.5147  1.3226
   70MOL0     H 9213  -1.185   6.148   3.018 -1.5004  2.0096  1.3897
   70MOL0     H 9214  -1.131   6.046   3.315  0.3830 -1.3708 -0.3688
   70MOL0     H 9215  -1.216   5.957   3.194 -2.6490  0.7400 -0.7162
   70MOL0     H 9216  -1.400   6.099   3.192 -2.0786 -2.0176  1.8074
   70MOL0     H 9217  -1.311   6.233   3.272  0.2969 -0.2753  3.8094
   70MOL0     H 9218  -1.330   5.962   3.422 -1.7554 -0.8186  1.0632
   70MOL0     H 9219  -1.328   6.129   3.489 -1.8595  0.3254  0.3256
   70MOL0     H 9220  -1.537   6.179   3.416 -1.8393 -0.8543  1.2819
   70MOL0     H 9221  -1.533   6.039   3.533  1.0309 -2.2326 -0.2225
   70MOL0     H 9222  -0.583   6.178   3.112 -1.3194  0.1336 -0.6945
   70MOL0     H 9223  -0.356   6.148   3.049 -1.1564 -3.5052 -0.8003
   70MOL0     H 9224  -0.049   6.196   2.452 -0.2281 -0.2598  0.9709
   70MOL0     H 9225   0.149   6.067   2.395  3.0185  0.2767  0.8966
   70MOL0     H 9226   1.803   6.037   2.796  1.2139 -2.8511 -0.2330
   70MOL0     H 9227   1.932   5.901   2.665 -0.0543 -1.0964 -2.9776
   70MOL0     H 9228   2.069   5.831   2.229  0.7496 -2.5746 -0.8738
   70MOL0     H 9229   2.176   5.693   2.058 -0.5785  2.0709 -1.3403
   70MOL0     H 9230   2.293   5.526   1.970  0.1582 -2.1578  0.7054
   70MOL0     H 9231   2.398   5.464   2.110  0.8262  0.5794  0.4268
   70MOL0     H 9232   2.438   5.347   1.886  2.7165 -0.1707 -0.5147
   70MOL0     H 9233   2.455   5.499   1.802 -0.6419 -2.2452 -0.3924
   70MOL0     H 9234   2.636   5.404   2.017  2.3187 -1.1899 -0.8958
   70MOL0     H 9235   2.641   5.563   1.938 -3.5643  1.2823  0.2079
   70MOL0     H 9236   2.658   5.291   1.788 -1.0546  1.0819 -1.1551
   70MOL0     H 9237   2.703   5.447   1.725  2.1211  0.9160  1.6601
   70MOL0     H 9238   3.070   5.346   1.872 -0.0457 -0.0275  0.0288
   70MOL0     H 9239   2.562   5.810   2.236  0.3467  3.3321  0.6152
   70MOL0     H 9240   2.465   5.937   2.393  1.5381 -4.3232  0.5582
   71MOL0     O 9241   7.959   7.757   7.881 -0.0838  0.0987 -0.0566
   71MOL0     C 9242   7.964   7.635   7.871  0.2925 -0.0946 -0.1020
   71MOL0     O 9243   7.864   7.546   7.913 -0.5436  0.3583 -0.1818
   71MOL0     C 9244   7.763   7.582   7.999  0.2961 -0.4007 -0.3619
   71MOL0     C 9245   7.650   7.511   7.976  0.8194  0.3471 -0.4207
   71MOL0     C 9246   7.527   7.543   8.041  0.9900  0.5023  0.4300
   71MOL0     C 9247   7.511   7.648   8.135 -0.5061  0.0723  1.1056
   71MOL0     O 9248   7.388   7.684   8.178  0.1256 -0.5712 -0.3461
   71MOL0     C 9249   7.368   7.643   8.314  0.1342  0.3358 -0.1105
   71MOL0     C 9250   7.221   7.665   8.341  0.3732  0.2312  0.1434
   71MOL0     C 9251   7.142   7.545   8.270  0.4335 -0.2054 -0.4518
   71MOL0     C 9252   6.991   7.551   8.300  0.5114  0.4393  0.3426
   71MOL0     C 9253   6.920   7.441   8.221  0.0626  0.6485 -0.5196
   71MOL0     C 9254   6.891   7.473   8.078  0.3493  0.4431 -0.3225
   71MOL0     C 9255   6.833   7.361   7.998  0.2519 -1.6604  0.1366
   71MOL0     C 9256   6.912   7.234   7.992  0.9477 -0.6433  0.0548
   71MOL0     N 9257   7.049   7.262   7.932  0.5208  0.1585 -0.2303
   71MOL0     C 9258   7.081   7.338   7.822  0.1564 -0.7250  1.0542
   71MOL0     C 9259   7.214   7.330   7.802 -0.5767  0.6139  0.7241
   71MOL0     C 9260   7.303   7.370   7.681  0.1601 -0.3480 -0.0397
   71MOL0     C 9261   7.231   7.381   7.547  0.0258 -0.8042 -0.3913
   71MOL0     C 9262   7.338   7.400   7.437  0.6560  0.1336  0.3355
   71MOL0     C 9263   7.300   7.441   7.294 -0.6655  0.5917  0.8375
   71MOL0     O 9264   7.220   7.339   7.232  0.3021  0.0852  0.0237
   71MOL0     C 9265   7.094   7.371   7.174 -0.4014 -0.2142  0.3455
   71MOL0     C 9266   7.047   7.509   7.155 -0.2935 -0.7925 -0.3079
   71MOL0     C 9267   6.929   7.517   7.073 -0.8892 -0.2289 -0.3720
   71MOL0     C 9268   6.866   7.407   7.017 -0.5649  0.0885  0.0434
   71MOL0     C 9269   6.753   7.433   6.930 -0.2676  1.0257  0.2976
   71MOL0     O 9270   6.704   7.562   6.937  0.0372  0.2483  0.2785
   71MOL0     C 9271   6.595   7.593   6.861  0.8970  0.0622 -0.0522
   71MOL0     C 9272   6.611   7.661   6.736  0.9768 -0.0384 -0.3594
   71MOL0     C 9273   6.499   7.714   6.662  0.2974 -0.0209 -0.7222
   71MOL0     C 9274   6.372   7.699   6.721  0.3690 -0.0719 -0.2946
   71MOL0     O 9275   6.272   7.739   6.635 -0.3609  0.0215 -0.3373
   71MOL0     C 9276   6.140   7.760   6.673 -0.1825  0.1953 -0.8139
   71MOL0     C 9277   6.071   7.851   6.577  0.0761 -0.2717 -1.0503
   71MOL0     C 9278   5.930   7.886   6.627  0.2012  0.9245  0.2729
   71MOL0     C 9279   5.838   7.762   6.606 -0.2971  0.2387 -0.4040
   71MOL0     C 9280   5.696   7.820   6.620 -0.7713  0.1761 -0.6558
   71MOL0     C 9281   5.653   7.839   6.766  0.0950  0.6388 -0.4017
   71MOL0     C 9282   5.508   7.879   6.799  0.5629  0.3328  0.7913
   71MOL0     C 9283   5.411   7.770   6.746 -0.0520  0.8328 -0.0771
   71MOL0    Cl 9284   5.247   7.813   6.801 -0.0006 -0.2821 -0.0689
   71MOL0     C 9285   6.353   7.632   6.837  0.6033  0.0017 -0.4513
   71MOL0     C 9286   6.468   7.584   6.914  0.0927  0.1720  0.2005
   71MOL0     O 9287   6.691   7.340   6.884  0.3414  0.6167  0.5193
   71MOL0     C 9288   6.897   7.277   7.054 -0.4894  0.9074  0.3335
   71MOL0     C 9289   7.016   7.261   7.128  0.2996  0.1075  0.6501
   71MOL0     N 9290   7.266   7.252   7.908  0.2376 -0.1998 -0.0049
   71MOL0     N 9291   7.165   7.215   7.980 -0.2471 -0.7457 -0.3884
   71MOL0     C 9292   7.636   7.708   8.169 -0.3138 -1.1154 -1.3821
   71MOL0     C 9293   7.754   7.689   8.100 -0.7658 -0.4769  0.2753
   71MOL0     C 9294   8.082   7.578   7.800 -0.2893 -0.1509 -0.5123
   71MOL0     C 9295   8.072   7.450   7.752 -0.1370  0.4457 -0.3823
   71MOL0     C 9296   8.182   7.397   7.684  0.2794 -0.5042  0.7965
   71MOL0     C 9297   8.293   7.484   7.652  1.4002 -0.0070  0.1572
   71MOL0     O 9298   8.389   7.436   7.563 -0.3054  0.3269  0.3508
   71MOL0     C 9299   8.361   7.329   7.460 -0.4517  0.0882  0.1807
   71MOL0     C 9300   8.303   7.370   7.320  0.6447 -0.3127 -0.0140
   71MOL0     C 9301   8.182   7.462   7.313 -0.8268  0.0573  0.2153
   71MOL0     C 9302   8.138   7.458   7.160  0.0805 -0.3841 -1.0735
   71MOL0     C 9303   8.026   7.554   7.147 -0.0028  0.1824 -1.0163
   71MOL0     C 9304   7.939   7.649   7.149  0.7250  0.4091  0.2146
   71MOL0     C 9305   8.315   7.600   7.720  0.7340 -0.2099 -0.4268
   71MOL0     C 9306   8.202   7.651   7.791 -0.1505  0.3684  0.0831
   71MOL0     H 9307   7.651   7.443   7.891  0.7044 -0.5938  0.3190
   71MOL0     H 9308   7.432   7.500   8.010 -0.1173  0.8705  3.0770
   71MOL0     H 9309   7.425   7.712   8.375  0.5613  2.9440 -3.1792
   71MOL0     H 9310   7.396   7.538   8.328 -0.3669 -0.0381 -1.6364
   71MOL0     H 9311   7.203   7.767   8.306  1.7705 -0.0854 -1.6290
   71MOL0     H 9312   7.209   7.662   8.450  1.6802 -1.1076  0.2844
   71MOL0     H 9313   7.179   7.452   8.315 -1.1440 -0.0344  1.3358
   71MOL0     H 9314   7.160   7.554   8.163  1.2701  2.3707 -0.1553
   71MOL0     H 9315   6.977   7.537   8.408 -0.2914  1.0062  0.3215
   71MOL0     H 9316   6.952   7.650   8.276  0.9154  0.5342  0.0646
   71MOL0     H 9317   6.825   7.433   8.275  0.0632  4.0952  0.2759
   71MOL0     H 9318   6.982   7.352   8.229  2.8611  2.4087 -1.1587
   71MOL0     H 9319   6.979   7.506   8.023 -2.1296 -0.0501 -5.1980
   71MOL0     H 9320   6.825   7.560   8.079  1.3710  1.2266 -0.3664
   71MOL0     H 9321   6.731   7.344   8.032  0.3080 -0.9762  0.6769
   71MOL0     H 9322   6.821   7.395   7.895  1.2726  0.3393  0.6222
   71MOL0     H 9323   6.856   7.174   7.919 -1.5186 -0.0529  1.3626
   71MOL0     H 9324   6.930   7.180   8.085  0.4303 -0.1645  0.4365
   71MOL0     H 9325   7.017   7.388   7.749  2.1055  0.3003 -0.0165
   71MOL0     H 9326   7.376   7.288   7.689  1.5425  0.9651  1.4407
   71MOL0     H 9327   7.352   7.465   7.703 -0.4939 -0.3133  1.4232
   71MOL0     H 9328   7.150   7.454   7.547  2.5948  2.2379 -0.1161
   71MOL0     H 9329   7.179   7.288   7.520  0.3626 -0.3042 -3.0691
   71MOL0     H 9330   7.407   7.474   7.478  0.9652 -1.2827  2.5576
   71MOL0     H 9331   7.398   7.309   7.433  0.7556  0.0569  2.4050
   71MOL0     H 9332   7.394   7.474   7.249 -1.2774 -1.2815 -2.1584
   71MOL0     H 9333   7.235   7.526   7.314 -0.6119  0.8964 -0.2007
   71MOL0     H 9334   7.095   7.596   7.197 -0.6058  1.1746 -3.7116
   71MOL0     H 9335   6.891   7.618   7.056  0.6743  0.1825 -1.7262
   71MOL0     H 9336   6.714   7.662   6.699  1.5087 -2.6398  0.7995
   71MOL0     H 9337   6.515   7.756   6.563 -0.1675  0.1666 -0.7207
   71MOL0     H 9338   6.140   7.805   6.773 -4.5922  0.0092 -0.5643
   71MOL0     H 9339   6.092   7.662   6.682 -1.4503  0.9561  1.7084
   71MOL0     H 9340   6.066   7.791   6.485  2.1323 -0.8648 -0.8343
   71MOL0     H 9341   6.122   7.947   6.568 -2.9580  1.9182  2.3712
   71MOL0     H 9342   5.894   7.978   6.581 -1.1427  1.0540  1.4878
   71MOL0     H 9343   5.937   7.906   6.735  0.5694  2.3829 -0.0011
   71MOL0     H 9344   5.836   7.713   6.508 -1.4733  0.3876 -0.4697
   71MOL0     H 9345   5.867   7.697   6.689  1.8957  2.2063  0.5013
   71MOL0     H 9346   5.624   7.752   6.573 -1.7882 -0.6706  1.9046
   71MOL0     H 9347   5.695   7.922   6.583 -2.9623  1.9625  3.5586
   71MOL0     H 9348   5.718   7.909   6.819 -1.8365  0.6935  2.0835
   71MOL0     H 9349   5.664   7.738   6.808  1.3769  1.6639  1.9330
   71MOL0     H 9350   5.499   7.903   6.905 -0.2563 -1.3059  1.1245
   71MOL0     H 9351   5.489   7.978   6.756 -1.3543  0.9470  2.8849
   71MOL0     H 9352   5.440   7.674   6.790 -2.2120 -0.5942 -1.5285
   71MOL0     H 9353   5.424   7.755   6.638 -0.2691  0.7655 -0.0942
   71MOL0     H 9354   6.252   7.611   6.871  0.8343 -0.4346 -0.0180
   71MOL0     H 9355   6.462   7.539   7.013 -2.3642  1.6414  0.7908
   71MOL0     H 9356   6.837   7.193   7.020  3.3311 -3.4578  3.1472
   71MOL0     H 9357   7.052   7.159   7.136 -0.9082 -0.3934  0.0063
   71MOL0     H 9358   7.651   7.794   8.233 -1.9810 -1.7421 -0.0865
   71MOL0     H 9359   7.833   7.761   8.114  1.5922 -3.0526  0.9844
   71MOL0     H 9360   7.983   7.391   7.770  1.9924 -2.1132  3.3704
   71MOL0     H 9361   8.166   7.292   7.663 -2.3364  0.4575 -3.0678
   71MOL0     H 9362   8.291   7.264   7.513 -0.1658 -2.9071 -2.7996
   71MOL0     H 9363   8.455   7.276   7.442 -0.6574 -0.5154  0.8133
   71MOL0     H 9364   8.381   7.417   7.258  0.2602  1.3797  0.7116
   71MOL0     H 9365   8.277   7.275   7.273  0.9699  0.7404 -2.4999
   71MOL0     H 9366   8.215   7.563   7.341  1.7990 -1.0993  1.6327
   71MOL0     H 9367   8.105   7.425   7.381  0.4317 -3.5007 -0.0835
   71MOL0     H 9368   8.222   7.483   7.094  1.0185 -1.6848 -0.4174
   71MOL0     H 9369   8.107   7.355   7.140  2.1561 -0.8584 -2.2152
   71MOL0     H 9370   7.865   7.726   7.160 -0.4713 -0.7592  0.4505
   71MOL0     H 9371   8.394   7.672   7.707 -0.8123  2.0763  1.8165
   71MOL0     H 9372   8.196   7.749   7.837 -2.0974  1.0734 -1.5043
   72MOL0     O 9373   5.697   9.581  10.979 -0.5698 -0.5064  0.0740
   72MOL0     C 9374   5.703   9.464  10.942  0.0567 -0.1269 -0.1306
   72MOL0     O 9375   5.601   9.383  10.879  0.2674 -0.0461  0.5040
   72MOL0     C 9376   5.472   9.422  10.894 -0.1063  0.2893  0.3749
   72MOL0     C 9377   5.388   9.375  10.791  0.9693  0.2781 -0.1396
   72MOL0     C 9378   5.255   9.404  10.797 -0.0736 -1.0197 -0.2369
   72MOL0     C 9379   5.197   9.480  10.899  0.4618 -0.1814  1.1149
   72MOL0     O 9380   5.067   9.529  10.900  0.1905  0.0229 -0.0259
   72MOL0     C 9381   4.973   9.478  10.995  0.2811 -0.3517 -0.3784
   72MOL0     C 9382   4.893   9.605  11.047 -0.5451 -0.7414 -0.4878
   72MOL0     C 9383   4.804   9.668  10.936 -0.5161  0.2164 -0.6963
   72MOL0     C 9384   4.686   9.750  10.994  0.2436 -0.2455 -0.0070
   72MOL0     C 9385   4.552   9.671  11.026  0.1173 -0.8615 -0.4328
   72MOL0     C 9386   4.484   9.603  10.911  0.0687 -0.6177 -0.0724
   72MOL0     C 9387   4.345   9.538  10.971  0.2674  0.2056 -0.7400
   72MOL0     C 9388   4.361   9.384  10.996  0.4240 -0.2587  0.2297
   72MOL0     N 9389   4.464   9.349  11.090  0.6649 -0.2440 -0.0680
   72MOL0     C 9390   4.445   9.339  11.229 -0.1556  0.0254  0.2939
   72MOL0     C 9391   4.570   9.300  11.275  0.1737  0.8385 -0.0021
   72MOL0     C 9392   4.582   9.259  11.420 -0.1702 -0.3704  0.3386
   72MOL0     C 9393   4.456   9.189  11.471  0.3705  0.8299 -0.1052
   72MOL0     C 9394   4.395   9.076  11.369  0.3631  0.9403 -0.5923
   72MOL0     C 9395   4.260   9.023  11.428  0.8963 -0.1310 -0.5149
   72MOL0     O 9396   4.149   9.126  11.426  0.2301  0.3871  0.0132
   72MOL0     C 9397   4.019   9.083  11.413 -0.2635  0.1842 -0.8954
   72MOL0     C 9398   3.920   9.180  11.395  0.2256  0.2572  0.1320
   72MOL0     C 9399   3.792   9.159  11.350  0.2036  1.0576  0.7150
   72MOL0     C 9400   3.739   9.025  11.350  0.0546 -0.5783  0.1870
   72MOL0     C 9401   3.598   9.005  11.303 -0.3248 -0.1067  0.0271
   72MOL0     O 9402   3.522   9.116  11.277  0.7971  0.0022  0.1578
   72MOL0     C 9403   3.394   9.107  11.236 -0.3634  0.6425  0.7351
   72MOL0     C 9404   3.360   9.165  11.112 -0.1877 -0.2422 -0.4067
   72MOL0     C 9405   3.228   9.148  11.057 -0.6283 -0.6021  0.0056
   72MOL0     C 9406   3.134   9.063  11.122 -1.0776 -0.6154 -0.8690
   72MOL0     O 9407   3.007   9.059  11.087  0.4227 -0.0181 -0.3722
   72MOL0     C 9408   2.932   8.933  11.087 -0.5881  0.0883 -0.1034
   72MOL0     C 9409   2.787   8.967  11.089 -0.1988  0.8323 -0.0489
   72MOL0     C 9410   2.701   8.850  11.138  0.4595  0.5577 -0.2362
   72MOL0     C 9411   2.725   8.718  11.062  0.1296  0.1446  0.4663
   72MOL0     C 9412   2.661   8.708  10.917 -0.6476  0.2705 -0.2971
   72MOL0     C 9413   2.510   8.698  10.917 -0.7734  0.2737  0.4290
   72MOL0     C 9414   2.441   8.683  10.780  0.0652  0.3897  0.8934
   72MOL0     C 9415   2.302   8.734  10.778  0.4834  0.1074  0.3381
   72MOL0    Cl 9416   2.279   8.923  10.767 -0.0845  0.0238 -0.2291
   72MOL0     C 9417   3.175   8.998  11.238 -0.2640  0.1356  0.7009
   72MOL0     C 9418   3.305   9.015  11.286 -0.9814  0.2339 -0.2596
   72MOL0     O 9419   3.566   8.891  11.279  0.4958  0.3099 -0.2925
   72MOL0     C 9420   3.827   8.933  11.407 -0.5760  0.3237 -0.2292
   72MOL0     C 9421   3.960   8.955  11.432 -0.3608  0.4431 -1.0278
   72MOL0     N 9422   4.660   9.301  11.168  0.1777  0.8609 -0.1553
   72MOL0     N 9423   4.592   9.328  11.061  0.5980 -0.1159  0.5699
   72MOL0     C 9424   5.280   9.523  11.001  0.2931 -1.1010 -0.9103
   72MOL0     C 9425   5.412   9.485  11.006 -0.9305 -0.3002  0.1871
   72MOL0     C 9426   5.835   9.401  10.947 -1.0474 -0.3083 -0.3644
   72MOL0     C 9427   5.842   9.256  10.956 -0.8854  0.3392  0.8589
   72MOL0     C 9428   5.962   9.184  10.961 -0.2796 -0.2777  0.3475
   72MOL0     C 9429   6.085   9.260  10.957  0.0962 -0.1401 -0.3230
   72MOL0     O 9430   6.198   9.188  10.948  0.8663 -0.5313  0.0306
   72MOL0     C 9431   6.315   9.238  11.015  0.2173 -0.5136 -0.6572
   72MOL0     C 9432   6.417   9.126  11.023 -0.7888  0.0189 -0.5021
   72MOL0     C 9433   6.557   9.168  11.069 -0.2350 -0.3516 -0.5358
   72MOL0     C 9434   6.648   9.048  11.065  0.6955  0.3333  0.1854
   72MOL0     C 9435   6.788   9.088  11.092  0.1950  0.2095  1.1578
   72MOL0     C 9436   6.897   9.126  11.111 -0.7370 -1.2700  1.1580
   72MOL0     C 9437   6.078   9.402  10.957  0.2041  0.3906  0.3987
   72MOL0     C 9438   5.958   9.472  10.949 -0.5141  0.4548 -1.0384
   72MOL0     H 9439   5.440   9.318  10.714 -0.5525 -2.4363  0.6871
   72MOL0     H 9440   5.188   9.381  10.715  0.0572 -2.0151 -0.0743
   72MOL0     H 9441   5.020   9.444  11.088  0.5116 -0.1831 -0.4320
   72MOL0     H 9442   4.903   9.404  10.955 -0.6654  0.5573 -0.4314
   72MOL0     H 9443   4.957   9.683  11.088 -0.7820 -1.5510  1.5187
   72MOL0     H 9444   4.822   9.573  11.123 -0.3922 -0.7295 -0.3399
   72MOL0     H 9445   4.767   9.583  10.878 -0.9139  1.2492 -2.0168
   72MOL0     H 9446   4.868   9.731  10.874  1.3632  0.6710  1.5581
   72MOL0     H 9447   4.731   9.792  11.084  4.3286 -0.6915 -1.5858
   72MOL0     H 9448   4.665   9.836  10.930 -2.6524 -1.8704 -1.4380
   72MOL0     H 9449   4.475   9.737  11.067 -1.6482 -1.3293 -2.7999
   72MOL0     H 9450   4.577   9.594  11.100  1.9268 -0.7246 -0.8651
   72MOL0     H 9451   4.558   9.536  10.865  1.8274  0.2386  1.3769
   72MOL0     H 9452   4.451   9.672  10.833 -0.2260 -2.7679 -1.9664
   72MOL0     H 9453   4.300   9.584  11.059 -1.4271  0.4978 -1.7205
   72MOL0     H 9454   4.265   9.546  10.897 -1.9256 -2.3694  1.1460
   72MOL0     H 9455   4.384   9.341  10.898  1.1809 -1.4883  0.9124
   72MOL0     H 9456   4.260   9.351  11.022  0.1768 -1.1834 -1.6779
   72MOL0     H 9457   4.356   9.340  11.292 -2.4558  0.4337 -2.7121
   72MOL0     H 9458   4.612   9.344  11.483  4.8529 -2.2925  1.0173
   72MOL0     H 9459   4.667   9.192  11.434  0.3827 -0.1164 -1.5462
   72MOL0     H 9460   4.374   9.257  11.497  0.2307  1.8290 -2.8844
   72MOL0     H 9461   4.491   9.138  11.562  4.0552  1.2790 -1.1238
   72MOL0     H 9462   4.375   9.098  11.263  2.2541 -1.3748 -1.5216
   72MOL0     H 9463   4.470   8.998  11.360 -1.7214 -1.1904 -0.5320
   72MOL0     H 9464   4.285   8.988  11.528  1.0171 -0.8481 -0.7834
   72MOL0     H 9465   4.230   8.932  11.375 -0.2888 -2.0963  3.2327
   72MOL0     H 9466   3.940   9.287  11.406  1.1825  0.1446 -0.4279
   72MOL0     H 9467   3.743   9.251  11.319  1.7171  2.6544  2.7955
   72MOL0     H 9468   3.449   9.192  11.055 -1.1067  1.0030 -1.3009
   72MOL0     H 9469   3.204   9.191  10.960  1.0492 -3.2446 -1.6714
   72MOL0     H 9470   2.951   8.871  11.175  1.3236 -0.4900 -0.8577
   72MOL0     H 9471   2.956   8.876  10.996  3.2388  0.8773  0.2420
   72MOL0     H 9472   2.762   9.005  10.989 -0.0197  1.4803  0.1508
   72MOL0     H 9473   2.765   9.040  11.168  0.6004 -0.3781  1.3328
   72MOL0     H 9474   2.595   8.879  11.142  0.6395  1.1635  0.1292
   72MOL0     H 9475   2.730   8.827  11.240 -0.3283  3.6699  0.8092
   72MOL0     H 9476   2.833   8.702  11.051  0.3179  1.8599 -0.5307
   72MOL0     H 9477   2.692   8.637  11.128  0.2593 -0.7397 -0.5249
   72MOL0     H 9478   2.710   8.626  10.865 -1.5417  0.0454 -0.7957
   72MOL0     H 9479   2.678   8.800  10.859  0.0348  0.6328  0.4493
   72MOL0     H 9480   2.468   8.787  10.965 -0.8168  0.3566  0.2427
   72MOL0     H 9481   2.471   8.619  10.981 -0.0565 -1.0164 -0.6648
   72MOL0     H 9482   2.494   8.748  10.709 -0.2409 -0.6564 -0.3343
   72MOL0     H 9483   2.438   8.580  10.742 -1.2885  1.7349 -3.0944
   72MOL0     H 9484   2.252   8.699  10.869  1.9947  1.1006  1.5834
   72MOL0     H 9485   2.258   8.687  10.689 -2.7799  4.0962 -0.4461
   72MOL0     H 9486   3.102   8.937  11.291 -0.8989  2.0166  2.0634
   72MOL0     H 9487   3.332   8.968  11.380 -3.1560  1.5625  1.1015
   72MOL0     H 9488   3.805   8.828  11.425  1.3213 -0.5078 -2.2323
   72MOL0     H 9489   4.014   8.866  11.461 -1.1640 -0.1888 -1.4340
   72MOL0     H 9490   5.236   9.588  11.076 -0.6946 -1.1648 -1.4209
   72MOL0     H 9491   5.462   9.514  11.099 -3.9982 -0.0672  1.8817
   72MOL0     H 9492   5.744   9.209  10.955 -1.8239  2.2075 -0.2627
   72MOL0     H 9493   5.973   9.079  10.938  1.0791 -0.3156  1.0366
   72MOL0     H 9494   6.286   9.285  11.110 -1.7910 -1.0418 -0.9520
   72MOL0     H 9495   6.358   9.313  10.949  1.4308 -1.1982 -0.6556
   72MOL0     H 9496   6.390   9.065  11.109  0.6126  1.6523  1.1830
   72MOL0     H 9497   6.418   9.074  10.927  2.9696 -4.2636  1.4854
   72MOL0     H 9498   6.554   9.205  11.172  2.2374 -0.1313 -0.4617
   72MOL0     H 9499   6.608   9.254  11.024  1.7343 -0.9131  0.4823
   72MOL0     H 9500   6.628   8.972  11.141  0.2487 -1.0156 -1.2224
   72MOL0     H 9501   6.632   8.994  10.971 -1.1525 -2.7842  2.1125
   72MOL0     H 9502   6.981   9.193  11.106 -0.8130 -1.2130  0.6578
   72MOL0     H 9503   6.169   9.459  10.963  2.1702 -2.5026  0.0894
   72MOL0     H 9504   5.962   9.581  10.955  2.5157  0.3432  0.3102
   73MOL0     O 9505   4.982   8.433   2.795  0.1098  0.0334  0.0472
   73MOL0     C 9506   5.002   8.545   2.831 -0.9936 -0.1559 -0.3545
   73MOL0     O 9507   5.127   8.596   2.887 -0.3918 -0.4607 -1.1198
   73MOL0     C 9508   5.227   8.507   2.907 -0.7791 -0.3640 -0.1978
   73MOL0     C 9509   5.260   8.456   3.032  0.8164 -0.3786  0.0359
   73MOL0     C 9510   5.364   8.360   3.044  0.6240  0.0125  0.8292
   73MOL0     C 9511   5.419   8.305   2.932  0.8263 -0.9147  0.1497
   73MOL0     O 9512   5.477   8.187   2.966  0.5348  0.3994  0.4743
   73MOL0     C 9513   5.552   8.110   2.865  0.4023 -0.2865  0.8637
   73MOL0     C 9514   5.665   8.024   2.929  0.5274  0.0999 -0.3665
   73MOL0     C 9515   5.611   7.919   3.023  0.1996  0.0056  0.1328
   73MOL0     C 9516   5.538   7.809   2.953  1.0068 -0.3663 -0.3353
   73MOL0     C 9517   5.493   7.702   3.057 -0.5176  0.9225  0.3045
   73MOL0     C 9518   5.418   7.598   2.977  0.7881 -0.5707  0.4298
   73MOL0     C 9519   5.512   7.528   2.874  0.5476 -0.1105  0.1224
   73MOL0     C 9520   5.446   7.399   2.816  0.4398  0.0985  0.1922
   73MOL0     N 9521   5.306   7.414   2.758  0.6213 -0.5387 -0.4289
   73MOL0     C 9522   5.272   7.523   2.682  1.0590  0.3056  0.1845
   73MOL0     C 9523   5.153   7.483   2.622 -0.1033  0.5208  0.2302
   73MOL0     C 9524   5.062   7.550   2.519 -0.4945 -0.0182 -0.1300
   73MOL0     C 9525   4.950   7.618   2.600  0.2567  0.5078 -0.1153
   73MOL0     C 9526   4.868   7.715   2.512  0.1362  0.3589 -0.2426
   73MOL0     C 9527   4.734   7.772   2.560 -0.3241  0.6190  0.4732
   73MOL0     O 9528   4.639   7.666   2.582  0.2846 -0.5150 -0.0100
   73MOL0     C 9529   4.543   7.635   2.484 -0.2638 -0.0020  0.3375
   73MOL0     C 9530   4.434   7.561   2.534 -0.5147  0.4607 -1.3049
   73MOL0     C 9531   4.317   7.551   2.456  0.5417 -0.6962  0.6254
   73MOL0     C 9532   4.314   7.589   2.316 -0.0530 -0.3757  0.2686
   73MOL0     C 9533   4.192   7.592   2.238  0.6600  0.5602 -0.0806
   73MOL0     O 9534   4.212   7.626   2.111  0.4041  0.8275 -0.0346
   73MOL0     C 9535   4.095   7.636   2.032 -0.3580 -0.4243 -0.4287
   73MOL0     C 9536   4.098   7.561   1.915 -0.3419 -0.1237 -0.1218
   73MOL0     C 9537   3.983   7.562   1.829 -1.2516 -0.4567 -0.9276
   73MOL0     C 9538   3.879   7.653   1.849  1.3372  0.2727  0.4579
   73MOL0     O 9539   3.761   7.661   1.774 -0.3516 -0.3643 -0.4199
   73MOL0     C 9540   3.726   7.534   1.710 -0.2357 -0.0495 -0.2826
   73MOL0     C 9541   3.580   7.536   1.645 -0.5794  0.6484  1.0615
   73MOL0     C 9542   3.572   7.619   1.513  0.1443  0.0097  0.4485
   73MOL0     C 9543   3.435   7.644   1.487  0.4009 -0.2529 -0.1777
   73MOL0     C 9544   3.407   7.722   1.362  0.2769 -0.6109  0.5507
   73MOL0     C 9545   3.469   7.864   1.351 -0.4907  0.4078 -0.0952
   73MOL0     C 9546   3.380   7.947   1.249 -0.0828  0.2668 -0.1300
   73MOL0     C 9547   3.456   8.072   1.211  1.1275  0.0991 -0.6349
   73MOL0    Cl 9548   3.443   8.223   1.316 -0.1921 -0.0229 -0.0372
   73MOL0     C 9549   3.892   7.741   1.955  0.0751  1.1249 -0.8456
   73MOL0     C 9550   3.997   7.736   2.046 -0.5766  0.6139 -0.1991
   73MOL0     O 9551   4.083   7.574   2.293 -0.0095  0.2241 -0.3720
   73MOL0     C 9552   4.433   7.642   2.274 -0.4173 -0.5593  0.1682
   73MOL0     C 9553   4.542   7.677   2.349  0.0684  0.0831 -0.3633
   73MOL0     N 9554   5.129   7.351   2.656  0.5800 -0.1055 -0.3804
   73MOL0     N 9555   5.223   7.314   2.737 -0.2223  0.1167 -0.1238
   73MOL0     C 9556   5.386   8.352   2.806 -0.6030 -0.9648 -0.3654
   73MOL0     C 9557   5.300   8.461   2.790 -0.9929 -0.3396 -1.3432
   73MOL0     C 9558   4.892   8.641   2.831 -1.2168  0.3897 -0.5669
   73MOL0     C 9559   4.898   8.771   2.900 -0.7133  0.2528  0.7275
   73MOL0     C 9560   4.790   8.855   2.890 -0.0591 -0.4929  0.4225
   73MOL0     C 9561   4.670   8.818   2.834  0.3254 -0.0963  1.4838
   73MOL0     O 9562   4.552   8.888   2.841 -0.2835 -0.0128  0.8631
   73MOL0     C 9563   4.556   9.019   2.883  0.0730  0.0822  0.3561
   73MOL0     C 9564   4.415   9.068   2.915  0.2705  0.0729  0.1719
   73MOL0     C 9565   4.313   9.031   2.813 -0.0225  0.4080  0.0365
   73MOL0     C 9566   4.175   9.073   2.849 -0.2946 -0.5305  0.5976
   73MOL0     C 9567   4.070   8.985   2.792 -0.3061 -0.3465  0.7951
   73MOL0     C 9568   3.989   8.910   2.733 -0.1285  0.3447 -0.2923
   73MOL0     C 9569   4.662   8.694   2.772  0.7272 -0.7476 -0.3549
   73MOL0     C 9570   4.769   8.609   2.767  0.5180  0.9186  0.1928
   73MOL0     H 9571   5.200   8.482   3.118  0.3884  1.2556 -0.7217
   73MOL0     H 9572   5.373   8.311   3.140 -0.6191 -2.2066 -0.1074
   73MOL0     H 9573   5.596   8.177   2.791 -1.5570 -0.2377 -0.3299
   73MOL0     H 9574   5.481   8.039   2.820  0.0009 -1.3069  2.9826
   73MOL0     H 9575   5.716   8.099   2.989 -0.3148 -1.2445  2.1569
   73MOL0     H 9576   5.732   7.986   2.851 -2.4412  1.3041 -3.8177
   73MOL0     H 9577   5.546   7.959   3.101  2.1302 -0.6620  2.2068
   73MOL0     H 9578   5.689   7.875   3.085 -0.4435 -1.3830 -0.0143
   73MOL0     H 9579   5.446   7.846   2.906 -0.6580 -1.4817  1.8768
   73MOL0     H 9580   5.603   7.769   2.875  1.3863  0.0897 -0.2580
   73MOL0     H 9581   5.434   7.737   3.142 -0.0018  3.2363 -0.2245
   73MOL0     H 9582   5.588   7.658   3.090  0.0762  3.1530  1.7679
   73MOL0     H 9583   5.337   7.644   2.919 -0.9450 -2.1914  1.4684
   73MOL0     H 9584   5.377   7.529   3.050  0.7740 -0.3511  0.6304
   73MOL0     H 9585   5.529   7.594   2.788  0.2494  0.5812  0.5935
   73MOL0     H 9586   5.602   7.501   2.929  0.3086  0.0167  0.5786
   73MOL0     H 9587   5.435   7.321   2.891 -0.2248 -0.7206 -0.7291
   73MOL0     H 9588   5.508   7.353   2.738  0.4430  0.8377 -0.2616
   73MOL0     H 9589   5.327   7.616   2.668  1.4013 -0.1389 -1.7404
   73MOL0     H 9590   5.026   7.477   2.446  2.9287 -1.7788 -0.2622
   73MOL0     H 9591   5.118   7.621   2.457 -0.6457 -1.8003 -2.4883
   73MOL0     H 9592   4.999   7.664   2.685  2.4968  2.4305 -2.3019
   73MOL0     H 9593   4.876   7.543   2.633  0.2363 -1.5456 -4.1067
   73MOL0     H 9594   4.943   7.788   2.481  1.6499 -1.8102 -2.0429
   73MOL0     H 9595   4.845   7.668   2.417 -1.2721  0.7574 -0.1178
   73MOL0     H 9596   4.689   7.840   2.486  1.3937  1.7251  0.3908
   73MOL0     H 9597   4.760   7.832   2.647 -0.6874 -1.1417  1.8322
   73MOL0     H 9598   4.436   7.521   2.635 -1.7982 -1.2779 -1.9259
   73MOL0     H 9599   4.231   7.510   2.508 -1.0580  1.5619 -0.1164
   73MOL0     H 9600   4.180   7.493   1.895 -1.5036 -2.3367  2.1232
   73MOL0     H 9601   3.999   7.484   1.755  1.6146 -1.2386  0.3737
   73MOL0     H 9602   3.732   7.450   1.780 -0.7110  1.2233  1.3656
   73MOL0     H 9603   3.805   7.524   1.635  0.4746 -1.7352  0.6390
   73MOL0     H 9604   3.504   7.569   1.716 -0.3736  0.1275  1.5346
   73MOL0     H 9605   3.554   7.430   1.631  0.2431  0.4786  0.7568
   73MOL0     H 9606   3.625   7.567   1.432  1.5979 -0.2714  1.5359
   73MOL0     H 9607   3.618   7.718   1.524 -1.6954  0.8372  0.9368
   73MOL0     H 9608   3.395   7.542   1.486  1.0650 -0.6845  3.7902
   73MOL0     H 9609   3.397   7.709   1.566  2.1927  0.9840 -0.2744
   73MOL0     H 9610   3.298   7.737   1.366  0.1637 -1.4706  0.9296
   73MOL0     H 9611   3.432   7.653   1.280  2.8988  0.9321 -0.0594
   73MOL0     H 9612   3.569   7.859   1.307  0.2816  1.2491  1.4764
   73MOL0     H 9613   3.469   7.916   1.447  2.7830 -0.4674  0.4882
   73MOL0     H 9614   3.358   7.886   1.161  2.0478 -1.5995  0.5321
   73MOL0     H 9615   3.287   7.975   1.301 -0.8780  0.6974 -1.7238
   73MOL0     H 9616   3.432   8.096   1.107 -0.6207  0.9517 -0.0759
   73MOL0     H 9617   3.564   8.058   1.196  1.2904  0.7397 -0.1410
   73MOL0     H 9618   3.823   7.826   1.959 -0.3965  0.7143  0.5119
   73MOL0     H 9619   4.013   7.805   2.128  2.0162  1.7235 -1.4949
   73MOL0     H 9620   4.432   7.670   2.169  0.6371 -0.1313  0.2567
   73MOL0     H 9621   4.627   7.736   2.316 -0.0052  0.1997 -0.3471
   73MOL0     H 9622   5.434   8.296   2.727  1.5102 -3.8669  2.6833
   73MOL0     H 9623   5.296   8.504   2.691  0.4986  0.4564 -1.0769
   73MOL0     H 9624   4.988   8.800   2.954 -0.5402 -0.5439  0.8738
   73MOL0     H 9625   4.811   8.955   2.927 -1.9705  0.7656 -1.6767
   73MOL0     H 9626   4.601   9.070   2.797  1.0270 -4.1818 -1.9452
   73MOL0     H 9627   4.611   9.030   2.977 -0.5778 -1.4097  0.9499
   73MOL0     H 9628   4.389   9.018   3.008  2.7533 -1.3481  0.1615
   73MOL0     H 9629   4.412   9.177   2.929  3.1014  0.7953 -3.2869
   73MOL0     H 9630   4.319   8.926   2.780  2.6577 -0.1573  1.9749
   73MOL0     H 9631   4.343   9.094   2.730 -0.1493  0.9916  0.4304
   73MOL0     H 9632   4.158   9.071   2.957  0.3443 -0.8510  0.6968
   73MOL0     H 9633   4.161   9.177   2.816  1.5784  1.0562  4.2102
   73MOL0     H 9634   3.913   8.837   2.714 -1.4653  1.7864 -0.6799
   73MOL0     H 9635   4.567   8.647   2.748  0.3009  0.0415 -0.2792
   73MOL0     H 9636   4.777   8.514   2.715  1.5331  0.2478  1.5346
   74MOL0     O 9637   8.217   6.231   3.995 -0.6797  0.6377  0.5520
   74MOL0     C 9638   8.193   6.338   3.941 -0.6237 -0.3772 -0.4889
   74MOL0     O 9639   8.277   6.447   3.945 -1.1863  0.3878 -0.7335
   74MOL0     C 9640   8.420   6.423   3.947 -0.1649 -0.1745  0.0995
   74MOL0     C 9641   8.490   6.297   3.930  0.1196  0.3321  0.7883
   74MOL0     C 9642   8.629   6.292   3.936 -0.0320 -0.3454 -1.2687
   74MOL0     C 9643   8.712   6.404   3.960 -0.1321 -0.0197 -0.7629
   74MOL0     O 9644   8.857   6.402   3.976 -0.2823  0.7004 -0.1479
   74MOL0     C 9645   8.931   6.296   3.912  0.1436  0.3078  0.2318
   74MOL0     C 9646   9.077   6.289   3.939  0.7910  0.1899 -0.3701
   74MOL0     C 9647   9.149   6.416   3.916  0.0734  0.1344 -0.3836
   74MOL0     C 9648   9.292   6.406   3.980 -0.4876 -0.6766  0.6953
   74MOL0     C 9649   9.377   6.534   3.981  0.2252 -0.3341 -1.0751
   74MOL0     C 9650   9.413   6.568   3.835 -0.3067  0.1974  0.2520
   74MOL0     C 9651   9.471   6.712   3.832  0.0024  0.5735  0.2344
   74MOL0     C 9652   9.623   6.723   3.872 -0.7037  0.0913  0.1230
   74MOL0     N 9653   9.660   6.854   3.921 -0.1613 -0.7176 -0.3147
   74MOL0     C 9654   9.613   6.919   4.039  0.3563 -0.1187  0.9747
   74MOL0     C 9655   9.674   7.038   4.034 -1.2862 -0.7898 -0.1040
   74MOL0     C 9656   9.652   7.159   4.127 -0.4540  0.0201 -1.5213
   74MOL0     C 9657   9.517   7.197   4.170 -0.8788 -0.0502 -0.3971
   74MOL0     C 9658   9.523   7.321   4.257  0.3256  0.1759 -0.0226
   74MOL0     C 9659   9.383   7.353   4.323 -0.3939 -0.7712  0.2705
   74MOL0     O 9660   9.277   7.323   4.229 -1.1311 -0.4100 -0.3269
   74MOL0     C 9661   9.145   7.339   4.264 -0.9739  0.4906  0.6231
   74MOL0     C 9662   9.098   7.390   4.389  0.2935 -0.6013  0.3913
   74MOL0     C 9663   8.950   7.402   4.415  0.1380  0.8808  1.1118
   74MOL0     C 9664   8.868   7.354   4.310  0.3634 -1.0014  0.1760
   74MOL0     C 9665   8.720   7.369   4.328 -0.6123  0.4917  0.5205
   74MOL0     O 9666   8.634   7.316   4.235 -0.3338  0.2134 -0.3284
   74MOL0     C 9667   8.514   7.269   4.274  0.3511  0.4976 -0.6059
   74MOL0     C 9668   8.492   7.177   4.379  0.5061 -0.8494 -0.0936
   74MOL0     C 9669   8.380   7.167   4.449  0.5832  0.6430 -0.0977
   74MOL0     C 9670   8.263   7.227   4.408  0.6044 -0.5023 -1.0991
   74MOL0     O 9671   8.156   7.199   4.490  0.2727  0.2400 -0.1411
   74MOL0     C 9672   8.030   7.204   4.430  0.8478 -0.0390 -1.1433
   74MOL0     C 9673   7.922   7.140   4.521 -0.0932  0.3256  0.0467
   74MOL0     C 9674   7.781   7.160   4.460  0.4970  0.1715  0.6941
   74MOL0     C 9675   7.756   7.051   4.358  1.0970 -0.5267  0.6740
   74MOL0     C 9676   7.600   7.022   4.341  0.0478  0.0828 -0.1288
   74MOL0     C 9677   7.575   6.926   4.222  0.2480 -0.5601 -0.0950
   74MOL0     C 9678   7.578   6.996   4.081  0.1576  0.5294 -0.1647
   74MOL0     C 9679   7.479   6.944   3.975  0.4651  0.5180 -0.0779
   74MOL0    Cl 9680   7.569   6.951   3.812  0.0555  0.1637 -0.0756
   74MOL0     C 9681   8.271   7.303   4.290  0.0730 -0.0864  0.7810
   74MOL0     C 9682   8.399   7.321   4.219 -0.5138  0.5639 -0.4694
   74MOL0     O 9683   8.686   7.435   4.424  0.3001  0.4910  0.8079
   74MOL0     C 9684   8.910   7.312   4.191 -0.4435  0.5650 -0.0130
   74MOL0     C 9685   9.052   7.301   4.166 -0.5827  0.6554 -0.5894
   74MOL0     N 9686   9.756   7.045   3.923  0.3093 -0.4168 -0.3927
   74MOL0     N 9687   9.746   6.939   3.849  0.0450  0.0084 -0.4707
   74MOL0     C 9688   8.644   6.527   3.977 -0.1367  0.6795  0.1192
   74MOL0     C 9689   8.501   6.531   3.966 -1.0222 -0.3306 -0.1143
   74MOL0     C 9690   8.054   6.372   3.927 -0.6585  0.1411  0.3666
   74MOL0     C 9691   8.023   6.476   3.835  0.1731  0.9731 -0.3408
   74MOL0     C 9692   7.891   6.499   3.801 -0.0062 -0.2184 -0.4329
   74MOL0     C 9693   7.795   6.413   3.851 -0.5001  0.2952  0.3935
   74MOL0     O 9694   7.673   6.430   3.797  0.0763  0.1996  0.4651
   74MOL0     C 9695   7.549   6.354   3.824 -0.8574  0.4367  0.0782
   74MOL0     C 9696   7.467   6.393   3.698  0.0898  0.6647 -0.4993
   74MOL0     C 9697   7.427   6.546   3.682  0.8199  0.1705  0.5914
   74MOL0     C 9698   7.271   6.564   3.679 -1.4277 -0.4205 -0.9234
   74MOL0     C 9699   7.227   6.709   3.681 -0.5113  0.4019 -0.1178
   74MOL0     C 9700   7.174   6.818   3.674 -0.1288 -0.0965 -0.0988
   74MOL0     C 9701   7.822   6.311   3.941  0.7730  1.3672  0.4540
   74MOL0     C 9702   7.956   6.288   3.979  0.0792  0.0408 -0.1298
   74MOL0     H 9703   8.447   6.198   3.924  1.5742 -0.2992  0.3188
   74MOL0     H 9704   8.669   6.191   3.938  1.3854  0.1824 -1.9864
   74MOL0     H 9705   8.923   6.282   3.804  0.7845 -2.5498  0.4763
   74MOL0     H 9706   8.894   6.200   3.950 -0.7871  1.1536  1.5364
   74MOL0     H 9707   9.125   6.216   3.874  3.1136 -0.5790  2.0068
   74MOL0     H 9708   9.095   6.247   4.039  2.6174 -1.6077 -1.3698
   74MOL0     H 9709   9.095   6.491   3.975  0.6580 -1.0745  1.7760
   74MOL0     H 9710   9.163   6.451   3.813  1.9789 -0.2062 -0.2784
   74MOL0     H 9711   9.271   6.383   4.085 -1.0507 -3.2730  0.0999
   74MOL0     H 9712   9.356   6.327   3.938  0.7859  0.4933  0.3664
   74MOL0     H 9713   9.466   6.521   4.043 -0.0005 -0.5267 -0.7884
   74MOL0     H 9714   9.312   6.607   4.030  0.9169 -0.2603 -0.2502
   74MOL0     H 9715   9.338   6.563   3.755  0.9664 -1.0376 -0.9116
   74MOL0     H 9716   9.489   6.498   3.799  1.2983  3.0964 -2.5342
   74MOL0     H 9717   9.471   6.729   3.724  1.4715 -0.1649  0.0930
   74MOL0     H 9718   9.407   6.779   3.889 -0.8165  1.0068 -1.1663
   74MOL0     H 9719   9.678   6.705   3.780 -1.7885  0.9074 -0.7134
   74MOL0     H 9720   9.662   6.650   3.943  0.2468  0.3375 -0.1401
   74MOL0     H 9721   9.536   6.878   4.104  0.6724 -3.3033 -0.4762
   74MOL0     H 9722   9.702   7.240   4.074  1.2840 -1.1804 -1.7927
   74MOL0     H 9723   9.710   7.138   4.218 -2.2913 -1.6708 -0.6639
   74MOL0     H 9724   9.457   7.124   4.225 -0.8710  0.5639  0.4394
   74MOL0     H 9725   9.457   7.222   4.082 -0.0737  1.4061 -0.5566
   74MOL0     H 9726   9.589   7.312   4.343 -1.7979 -1.9826  1.5242
   74MOL0     H 9727   9.550   7.403   4.190 -3.2476 -0.5205 -2.6168
   74MOL0     H 9728   9.383   7.457   4.357  0.7431 -1.1100  1.4105
   74MOL0     H 9729   9.371   7.287   4.410  1.3590 -0.3559  0.8820
   74MOL0     H 9730   9.158   7.432   4.469  0.4525  0.5351 -0.3045
   74MOL0     H 9731   8.912   7.439   4.510 -3.5530 -2.1682  1.1004
   74MOL0     H 9732   8.584   7.140   4.424  1.0268 -0.0322 -0.4661
   74MOL0     H 9733   8.363   7.104   4.536  0.0987  0.1905 -0.5094
   74MOL0     H 9734   8.039   7.152   4.335 -2.8983 -0.1765 -1.5870
   74MOL0     H 9735   8.008   7.310   4.416  1.3606  0.6698  2.3368
   74MOL0     H 9736   7.926   7.204   4.610  0.8418  0.1696  0.1315
   74MOL0     H 9737   7.949   7.036   4.543  1.1740  0.4836 -0.6870
   74MOL0     H 9738   7.770   7.254   4.404 -0.0247  0.2759  0.9661
   74MOL0     H 9739   7.705   7.169   4.537 -0.7574 -1.5579 -0.2616
   74MOL0     H 9740   7.796   7.087   4.263  0.3693 -0.1098  0.5194
   74MOL0     H 9741   7.800   6.955   4.384  0.4695 -0.8538  0.5487
   74MOL0     H 9742   7.540   7.114   4.335 -0.5248 -0.3621 -1.7272
   74MOL0     H 9743   7.561   6.969   4.429 -0.7021  0.0032 -0.4965
   74MOL0     H 9744   7.476   6.883   4.234 -0.8221  0.6087 -3.4798
   74MOL0     H 9745   7.652   6.848   4.223  0.4551 -0.3552 -0.0254
   74MOL0     H 9746   7.567   7.104   4.099 -2.8289 -0.1160  2.8970
   74MOL0     H 9747   7.675   6.977   4.035 -0.3831  2.0262 -2.0810
   74MOL0     H 9748   7.386   7.003   3.972  0.1545  0.0102 -3.2364
   74MOL0     H 9749   7.449   6.841   3.997 -3.0837  1.7558  1.8326
   74MOL0     H 9750   8.181   7.349   4.250 -0.5135  0.6236  2.7922
   74MOL0     H 9751   8.411   7.389   4.136 -4.1208  1.7229 -0.1907
   74MOL0     H 9752   8.844   7.283   4.110 -3.8929  0.8969  2.4662
   74MOL0     H 9753   9.089   7.269   4.070 -2.2462  1.2179 -1.4654
   74MOL0     H 9754   8.705   6.617   3.985  0.5449  0.4472 -1.7977
   74MOL0     H 9755   8.455   6.630   3.970  1.8005  1.0405  1.7749
   74MOL0     H 9756   8.109   6.533   3.803  1.4592 -0.4703  0.4151
   74MOL0     H 9757   7.864   6.576   3.730  0.0970 -0.0854 -0.3281
   74MOL0     H 9758   7.492   6.390   3.910 -0.3083  1.8161 -0.1013
   74MOL0     H 9759   7.567   6.246   3.829  0.0457  0.5735 -0.0216
   74MOL0     H 9760   7.525   6.370   3.609 -1.1339  0.9511 -1.3920
   74MOL0     H 9761   7.378   6.329   3.699 -0.3495  1.2611  0.6518
   74MOL0     H 9762   7.452   6.572   3.579 -1.0948 -2.9245 -0.7988
   74MOL0     H 9763   7.468   6.618   3.754  0.8692  1.2494 -0.4746
   74MOL0     H 9764   7.230   6.515   3.590 -2.9508 -0.7307 -0.0751
   74MOL0     H 9765   7.228   6.525   3.771 -4.6538  1.7998 -1.3342
   74MOL0     H 9766   7.116   6.908   3.674 -1.8884 -1.1867 -0.3518
   74MOL0     H 9767   7.735   6.261   3.981  2.3880 -1.7044  0.4269
   74MOL0     H 9768   7.985   6.202   4.037  2.5732  0.8450 -0.0424
   75MOL0     O 9769   5.395   9.234   3.485  0.0554 -0.0629  0.6704
   75MOL0     C 9770   5.442   9.173   3.574 -0.1011  0.2142 -0.3448
   75MOL0     O 9771   5.380   9.152   3.693  0.2879  0.5105  0.5580
   75MOL0     C 9772   5.250   9.194   3.700 -0.7799  0.3426  1.0955
   75MOL0     C 9773   5.135   9.120   3.669  0.4055 -0.2002  0.2315
   75MOL0     C 9774   5.007   9.185   3.679  0.5137 -0.4646 -0.3121
   75MOL0     C 9775   4.991   9.323   3.692  0.6446  0.3428 -0.1658
   75MOL0     O 9776   4.858   9.376   3.691 -0.3150  0.2320  0.0533
   75MOL0     C 9777   4.850   9.522   3.673  0.3504  0.2414 -0.6556
   75MOL0     C 9778   4.814   9.581   3.805  0.5208 -0.3629 -0.8137
   75MOL0     C 9779   4.680   9.547   3.876  0.4465  0.0312 -0.4305
   75MOL0     C 9780   4.554   9.621   3.808 -0.4160  0.0555  0.5697
   75MOL0     C 9781   4.429   9.614   3.894 -0.0159  0.3651 -0.4332
   75MOL0     C 9782   4.307   9.702   3.836 -0.0230  0.6383  0.0182
   75MOL0     C 9783   4.205   9.723   3.948  0.6634  0.4108  0.1471
   75MOL0     C 9784   4.088   9.805   3.894 -0.1754  0.0127 -0.1183
   75MOL0     N 9785   3.992   9.839   4.003 -0.1675  1.1882 -0.9801
   75MOL0     C 9786   4.017   9.905   4.119  0.0011  0.6272  0.8511
   75MOL0     C 9787   3.892   9.923   4.173 -0.7704 -0.5965 -0.2313
   75MOL0     C 9788   3.859  10.008   4.299  0.2106  0.7216  0.6433
   75MOL0     C 9789   3.919   9.954   4.434 -0.3496  0.3242 -0.8679
   75MOL0     C 9790   3.859   9.811   4.473 -0.3342 -0.4671  0.8553
   75MOL0     C 9791   3.717   9.818   4.550 -0.0929 -0.3998  0.3357
   75MOL0     O 9792   3.729   9.714   4.650 -0.3322  0.6162  0.0963
   75MOL0     C 9793   3.618   9.662   4.725  0.0518  0.0746  1.3141
   75MOL0     C 9794   3.603   9.526   4.747  0.6560  0.3027 -0.2135
   75MOL0     C 9795   3.489   9.481   4.825  0.1343 -0.3625  0.0961
   75MOL0     C 9796   3.398   9.571   4.875 -0.0857  0.3522  0.2508
   75MOL0     C 9797   3.266   9.525   4.914  0.0430 -0.4757  0.4316
   75MOL0     O 9798   3.240   9.393   4.944 -0.8655  0.0652 -0.0636
   75MOL0     C 9799   3.115   9.342   4.908 -0.0381  0.1115 -0.7921
   75MOL0     C 9800   3.024   9.374   4.798  0.7703  0.2975  0.2324
   75MOL0     C 9801   2.899   9.310   4.792 -0.7979 -0.1518  0.4672
   75MOL0     C 9802   2.855   9.217   4.884  0.5263  0.3176 -0.0274
   75MOL0     O 9803   2.728   9.164   4.877  0.3788 -0.7650  0.1580
   75MOL0     C 9804   2.682   9.068   4.974  0.4291 -0.3282  0.2342
   75MOL0     C 9805   2.534   9.037   4.939  0.6791  0.0314  0.4674
   75MOL0     C 9806   2.480   8.944   5.047  0.3652 -0.4424  0.2679
   75MOL0     C 9807   2.344   8.897   5.004 -0.0352  0.6446 -0.3642
   75MOL0     C 9808   2.296   8.798   5.115  0.7832  0.5806 -0.5408
   75MOL0     C 9809   2.150   8.767   5.092  0.5136 -0.4003  0.2878
   75MOL0     C 9810   2.096   8.674   5.188  0.3517 -0.2873 -0.7997
   75MOL0     C 9811   2.133   8.534   5.130  0.0271  0.3904  0.4644
   75MOL0    Cl 9812   2.048   8.418   5.241 -0.6105 -0.1823 -0.0072
   75MOL0     C 9813   2.948   9.177   4.988 -0.1972 -0.3990 -0.3825
   75MOL0     C 9814   3.077   9.242   4.995  0.9832  0.4119 -0.2417
   75MOL0     O 9815   3.177   9.615   4.913  0.6009 -0.3668 -0.9132
   75MOL0     C 9816   3.426   9.714   4.866 -0.0989  0.0409  0.7721
   75MOL0     C 9817   3.530   9.750   4.782  0.3910 -0.9723 -0.5655
   75MOL0     N 9818   3.803   9.877   4.090  1.0171 -0.1667 -0.1366
   75MOL0     N 9819   3.856   9.804   3.998  0.0946  0.3591 -0.0230
   75MOL0     C 9820   5.110   9.393   3.716 -0.4354 -0.2759 -0.0886
   75MOL0     C 9821   5.236   9.332   3.724  0.2031 -0.4260 -0.1380
   75MOL0     C 9822   5.574   9.112   3.554  0.2979  0.7798 -1.1790
   75MOL0     C 9823   5.651   9.062   3.666  0.0244  0.3584 -0.4468
   75MOL0     C 9824   5.776   8.998   3.640  0.2254 -0.3841  0.2568
   75MOL0     C 9825   5.826   8.986   3.509 -0.4039 -0.2518 -0.5582
   75MOL0     O 9826   5.948   8.919   3.482  0.8108 -0.4798 -0.0117
   75MOL0     C 9827   5.988   8.905   3.341 -0.0191 -0.9035  0.2856
   75MOL0     C 9828   6.092   8.795   3.324 -0.4447  0.0163  0.0586
   75MOL0     C 9829   6.146   8.793   3.180  0.3975 -0.0345  0.6070
   75MOL0     C 9830   6.264   8.691   3.177  0.0675 -0.3331 -0.1122
   75MOL0     C 9831   6.246   8.556   3.226 -0.4765  1.1700 -0.6293
   75MOL0     C 9832   6.233   8.446   3.284  0.4907  0.7289  0.6760
   75MOL0     C 9833   5.749   9.038   3.403  0.0659  0.2130  0.1044
   75MOL0     C 9834   5.620   9.099   3.420  0.0477 -0.2099 -0.1381
   75MOL0     H 9835   5.144   9.013   3.655 -1.8394 -0.3852 -0.2850
   75MOL0     H 9836   4.923   9.115   3.680  1.5332 -1.7352  1.3469
   75MOL0     H 9837   4.774   9.553   3.602 -0.6614  2.2097  1.1795
   75MOL0     H 9838   4.946   9.566   3.643  1.6830  0.7000  3.5202
   75MOL0     H 9839   4.805   9.689   3.794  0.5840  0.0132  2.1774
   75MOL0     H 9840   4.888   9.544   3.876 -1.1766 -1.2608  0.5574
   75MOL0     H 9841   4.706   9.560   3.981  1.5444 -0.5128 -0.6235
   75MOL0     H 9842   4.670   9.438   3.869  1.7877 -0.1141 -0.3362
   75MOL0     H 9843   4.580   9.725   3.784  2.9878 -1.0053 -0.9357
   75MOL0     H 9844   4.533   9.573   3.712  2.0071 -0.4320  0.2231
   75MOL0     H 9845   4.455   9.649   3.994  3.1253 -1.4324 -0.4582
   75MOL0     H 9846   4.393   9.511   3.894 -2.9057  1.2186 -3.2058
   75MOL0     H 9847   4.264   9.656   3.747  0.8475 -1.3762  0.5749
   75MOL0     H 9848   4.353   9.799   3.816 -0.4871  0.6221 -1.1724
   75MOL0     H 9849   4.163   9.629   3.985  0.2375  1.8481  3.6621
   75MOL0     H 9850   4.254   9.768   4.034  4.0685 -1.7123 -0.4880
   75MOL0     H 9851   4.026   9.746   3.826 -2.8572  1.4345  0.9291
   75MOL0     H 9852   4.129   9.901   3.861  0.4953  1.3864  4.1378
   75MOL0     H 9853   4.116   9.929   4.158 -0.2171 -1.1981  2.7516
   75MOL0     H 9854   3.750  10.003   4.305  0.1352  2.2288  1.0730
   75MOL0     H 9855   3.877  10.116   4.286  1.0227  0.3514 -2.0780
   75MOL0     H 9856   3.911  10.012   4.527  0.2963 -1.3468  0.2805
   75MOL0     H 9857   4.027   9.949   4.421 -0.5532  0.8092 -3.1518
   75MOL0     H 9858   3.857   9.754   4.381 -1.7137  4.3457 -2.4874
   75MOL0     H 9859   3.929   9.755   4.536  0.8325  0.2423  0.2431
   75MOL0     H 9860   3.637   9.785   4.483  0.7145  0.5963 -1.1753
   75MOL0     H 9861   3.701   9.909   4.609  1.8351  1.6673 -2.0766
   75MOL0     H 9862   3.677   9.461   4.702  2.2020  1.1219  1.0380
   75MOL0     H 9863   3.456   9.378   4.833 -2.8857  0.6951  4.1467
   75MOL0     H 9864   3.031   9.453   4.723 -1.9776 -2.0336 -2.7936
   75MOL0     H 9865   2.838   9.340   4.708  0.7587 -0.8917 -0.9746
   75MOL0     H 9866   2.704   9.096   5.077  2.3745  0.3969 -0.3367
   75MOL0     H 9867   2.746   8.979   4.964 -0.3979 -1.2480  2.4320
   75MOL0     H 9868   2.531   8.990   4.840  0.9595 -1.5628  1.1778
   75MOL0     H 9869   2.483   9.133   4.929  1.4686  0.4669  0.5662
   75MOL0     H 9870   2.475   9.006   5.137  1.9474  2.2221 -1.3476
   75MOL0     H 9871   2.545   8.857   5.060 -0.9637 -1.6394 -0.7012
   75MOL0     H 9872   2.288   8.990   5.009  2.9372  2.5596  0.0345
   75MOL0     H 9873   2.333   8.870   4.899 -0.7066 -1.0270  0.1062
   75MOL0     H 9874   2.307   8.855   5.207  0.0900 -0.5607  0.2690
   75MOL0     H 9875   2.361   8.710   5.119 -2.5084 -2.0373  0.0093
   75MOL0     H 9876   2.140   8.725   4.992 -0.3481  0.1217  0.1452
   75MOL0     H 9877   2.086   8.856   5.089 -1.4805 -1.5919  3.0417
   75MOL0     H 9878   2.138   8.692   5.287 -2.2127  0.3521  0.2487
   75MOL0     H 9879   1.987   8.685   5.183  0.2286 -1.7868 -3.2404
   75MOL0     H 9880   2.239   8.506   5.135 -0.2353 -0.5836  0.7464
   75MOL0     H 9881   2.096   8.515   5.029  0.3576  0.2630  0.3632
   75MOL0     H 9882   2.933   9.117   5.077  0.7549  1.3136  1.0017
   75MOL0     H 9883   3.156   9.221   5.065  0.9409 -0.5906 -0.4810
   75MOL0     H 9884   3.360   9.782   4.920 -1.0706 -0.3191  0.0624
   75MOL0     H 9885   3.554   9.855   4.776  1.0926 -1.1771 -1.6815
   75MOL0     H 9886   5.104   9.493   3.758 -2.1963  0.5010 -2.0097
   75MOL0     H 9887   5.322   9.390   3.757  1.3084 -1.7678 -0.5365
   75MOL0     H 9888   5.626   9.071   3.771 -0.0304  0.9216 -0.5024
   75MOL0     H 9889   5.818   8.941   3.722  0.0904  3.1854  3.0350
   75MOL0     H 9890   6.029   9.000   3.306 -0.1748  1.4805  5.5438
   75MOL0     H 9891   5.906   8.868   3.280 -0.0215  1.5152 -1.2997
   75MOL0     H 9892   6.176   8.811   3.392 -0.0370  2.9117 -1.0026
   75MOL0     H 9893   6.054   8.695   3.349 -3.5484 -0.0216 -3.7066
   75MOL0     H 9894   6.184   8.894   3.159 -2.2253  0.4377 -2.7925
   75MOL0     H 9895   6.077   8.762   3.101  2.3603  0.2559 -1.3429
   75MOL0     H 9896   6.321   8.702   3.084 -0.5688 -0.8865 -0.5759
   75MOL0     H 9897   6.330   8.734   3.253  0.0121 -1.9460  0.9060
   75MOL0     H 9898   6.216   8.351   3.331 -0.6687  0.7122  0.2652
   75MOL0     H 9899   5.780   9.033   3.299  2.5765 -1.4713  0.8298
   75MOL0     H 9900   5.554   9.121   3.337 -0.5057 -1.8310 -0.1571
   76MOL0     O 9901   7.964   9.438   5.103  0.6369  0.7268  0.0832
   76MOL0     C 9902   8.039   9.525   5.061 -0.2051 -0.0286  0.3294
   76MOL0     O 9903   8.009   9.643   5.000 -0.1205  0.8987  0.2008
   76MOL0     C 9904   7.884   9.676   4.993  0.7528  0.3159 -0.4619
   76MOL0     C 9905   7.795   9.637   4.883 -1.7056  0.2749  0.5557
   76MOL0     C 9906   7.665   9.691   4.875  0.0322  0.0261 -0.3195
   76MOL0     C 9907   7.614   9.778   4.974  0.4209  0.2653  0.8724
   76MOL0     O 9908   7.491   9.830   4.966 -0.0518  0.1280  0.2415
   76MOL0     C 9909   7.490   9.943   4.878 -0.2288  0.4216 -0.0008
   76MOL0     C 9910   7.350   9.978   4.824 -0.0217  0.5844 -0.3356
   76MOL0     C 9911   7.255   9.994   4.945 -0.2586 -0.8827  0.0495
   76MOL0     C 9912   7.109  10.012   4.888  0.4487  0.6626 -0.2779
   76MOL0     C 9913   6.995  10.022   4.994 -0.4149 -0.0052  0.3724
   76MOL0     C 9914   6.854  10.025   4.930 -0.6365 -0.2340  0.7504
   76MOL0     C 9915   6.757  10.047   5.048 -0.0075 -0.0002  0.5194
   76MOL0     C 9916   6.612  10.063   4.999  0.1188 -0.6368 -0.6139
   76MOL0     N 9917   6.495  10.051   5.092 -0.4175 -0.2794  0.4219
   76MOL0     C 9918   6.386   9.975   5.064 -0.3722 -1.4623 -0.6449
   76MOL0     C 9919   6.308   9.999   5.168  0.3096  0.3452 -0.3090
   76MOL0     C 9920   6.176   9.941   5.219  0.0595  0.2876  0.8969
   76MOL0     C 9921   6.069   9.957   5.112 -0.0661  0.0866 -0.3388
   76MOL0     C 9922   5.946   9.879   5.154  0.5692 -0.0061 -0.0337
   76MOL0     C 9923   5.818   9.914   5.083  0.9074  0.1723  0.0734
   76MOL0     O 9924   5.791  10.047   5.117  0.2554  0.2337  0.3247
   76MOL0     C 9925   5.676  10.110   5.088 -0.3665  0.6661 -0.0579
   76MOL0     C 9926   5.656  10.236   5.140  0.3378 -0.2730 -0.7157
   76MOL0     C 9927   5.546  10.312   5.103  0.9273 -0.4638 -0.2260
   76MOL0     C 9928   5.449  10.258   5.018 -0.0592 -0.8389 -0.2674
   76MOL0     C 9929   5.326  10.336   4.983 -0.0344 -0.9754 -0.7990
   76MOL0     O 9930   5.219  10.268   4.935 -0.4519  0.6302  0.0820
   76MOL0     C 9931   5.134  10.338   4.853  0.0077 -0.0065  0.0833
   76MOL0     C 9932   5.151  10.468   4.798 -0.7516  0.6177  0.4002
   76MOL0     C 9933   5.051  10.518   4.714 -0.5623 -1.1741 -0.5418
   76MOL0     C 9934   4.934  10.455   4.687  1.1188  0.3337 -1.1198
   76MOL0     O 9935   4.844  10.496   4.586 -0.0725  0.0086 -0.4941
   76MOL0     C 9936   4.868  10.464   4.445 -0.2173 -0.6847 -0.0936
   76MOL0     C 9937   4.770  10.550   4.360 -0.7640  0.4052 -0.0701
   76MOL0     C 9938   4.620  10.498   4.376 -0.8286 -0.0981  0.2210
   76MOL0     C 9939   4.593  10.377   4.280 -0.9819 -0.3845  0.2648
   76MOL0     C 9940   4.462  10.313   4.339  0.3235 -0.3054 -0.2019
   76MOL0     C 9941   4.494  10.212   4.450  0.4195 -0.4703 -0.2003
   76MOL0     C 9942   4.373  10.185   4.533  0.2817 -0.9063 -0.1448
   76MOL0     C 9943   4.254  10.132   4.455  0.1649 -0.6294 -0.1452
   76MOL0    Cl 9944   4.298   9.979   4.370  0.4524 -0.7468 -0.6569
   76MOL0     C 9945   4.911  10.329   4.743 -0.2055  0.3776 -0.3102
   76MOL0     C 9946   5.014  10.268   4.817 -0.8201 -0.0879  0.4521
   76MOL0     O 9947   5.319  10.456   5.021 -0.7056 -0.6282  0.5316
   76MOL0     C 9948   5.465  10.123   4.976  0.2003 -0.1837 -0.5252
   76MOL0     C 9949   5.579  10.049   5.013 -0.2122 -0.0030 -0.6076
   76MOL0     N 9950   6.372  10.091   5.253 -0.2420 -0.4580  0.3369
   76MOL0     N 9951   6.480  10.126   5.202 -0.2073 -0.7251  0.3437
   76MOL0     C 9952   7.697   9.824   5.080 -0.5454  0.3241 -0.1557
   76MOL0     C 9953   7.834   9.767   5.087  0.5169 -0.5306  0.2693
   76MOL0     C 9954   8.188   9.496   5.068  0.6395 -0.8193 -0.6189
   76MOL0     C 9955   8.240   9.384   5.132  1.0142 -0.0125 -0.4418
   76MOL0     C 9956   8.378   9.363   5.160 -0.2579 -0.3976  0.6378
   76MOL0     C 9957   8.467   9.445   5.091 -0.0797 -1.0287  0.0149
   76MOL0     O 9958   8.599   9.423   5.078  0.9067  0.1376 -0.6119
   76MOL0     C 9959   8.667   9.412   5.210  0.8778 -0.2745  0.1960
   76MOL0     C 9960   8.801   9.474   5.189  0.5555 -0.0619 -0.0020
   76MOL0     C 9961   8.895   9.467   5.300 -0.7494 -0.6127  0.2358
   76MOL0     C 9962   9.030   9.410   5.287  0.3599  0.7507 -0.8577
   76MOL0     C 9963   9.037   9.275   5.231 -0.6745 -0.1161  0.1405
   76MOL0     C 9964   9.021   9.160   5.189 -0.6108  0.0233  0.6628
   76MOL0     C 9965   8.416   9.551   5.008  0.3794  0.4845  0.7048
   76MOL0     C 9966   8.281   9.574   5.000 -0.0769 -1.6026  0.0446
   76MOL0     H 9967   7.832   9.557   4.820  1.5882  0.3692  2.1796
   76MOL0     H 9968   7.593   9.658   4.800  1.0382  0.9854 -1.7470
   76MOL0     H 9969   7.554   9.935   4.790  0.6579  0.6101  0.6146
   76MOL0     H 9970   7.521  10.026   4.941 -2.3143 -0.1124  1.8616
   76MOL0     H 9971   7.308   9.902   4.757  1.0368 -0.3051 -0.0182
   76MOL0     H 9972   7.365  10.074   4.774  2.0388  0.5971  0.2166
   76MOL0     H 9973   7.281  10.081   5.006  2.3686 -1.3151 -0.3587
   76MOL0     H 9974   7.253   9.912   5.016 -0.6508 -1.1258 -0.2371
   76MOL0     H 9975   7.104  10.100   4.824 -1.2694  0.8755  0.0980
   76MOL0     H 9976   7.089   9.931   4.818  0.0772  0.1496  0.4025
   76MOL0     H 9977   7.013  10.118   5.042  1.5799  0.0825 -0.4419
   76MOL0     H 9978   7.004   9.949   5.076 -1.5163  1.9704  2.3444
   76MOL0     H 9979   6.836   9.934   4.872 -0.3953  0.2017 -0.0251
   76MOL0     H 9980   6.861  10.104   4.855  1.0048 -0.2310  0.8668
   76MOL0     H 9981   6.755   9.964   5.119 -0.9509  0.9685  1.6634
   76MOL0     H 9982   6.793  10.140   5.094 -0.5989  0.4037  0.1647
   76MOL0     H 9983   6.586  10.000   4.913 -1.0417 -1.0893  0.0524
   76MOL0     H 9984   6.591  10.167   4.971  1.2290  0.6130  2.6849
   76MOL0     H 9985   6.371   9.905   4.982  2.6354 -1.8198 -1.0059
   76MOL0     H 9986   6.144   9.992   5.311 -1.1749 -1.5833  1.5651
   76MOL0     H 9987   6.202   9.835   5.228 -0.1529  0.0196 -1.2279
   76MOL0     H 9988   6.107   9.920   5.016 -0.8159 -0.5073 -0.4148
   76MOL0     H 9989   6.043  10.063   5.105  2.5235  0.8169  0.1178
   76MOL0     H 9990   5.956   9.772   5.135 -0.9087 -0.5099  1.7734
   76MOL0     H 9991   5.931   9.887   5.262 -0.5363 -1.5518 -0.0400
   76MOL0     H 9992   5.739   9.847   5.118 -1.0174  1.9100 -0.7025
   76MOL0     H 9993   5.840   9.917   4.976  2.0311 -1.5602  0.2340
   76MOL0     H 9994   5.719  10.283   5.214 -1.6880 -1.3101  1.8087
   76MOL0     H 9995   5.532  10.413   5.141 -1.1675  0.0224 -2.0702
   76MOL0     H 9996   5.243  10.526   4.803  0.0854 -0.1310 -3.2507
   76MOL0     H 9997   5.054  10.615   4.665 -0.5975  0.9348  3.2213
   76MOL0     H 9998   4.850  10.356   4.441 -2.0337 -0.4849  1.2525
   76MOL0     H 9999   4.971  10.490   4.418  0.2583 -2.8923 -0.6176
   76MOL0     H10000   4.797  10.541   4.254 -0.1433  1.3729  0.0005
   76MOL0     H10001   4.779  10.655   4.389 -1.9962  0.4508  0.1975
   76MOL0     H10002   4.563  10.590   4.357 -1.2621  0.5280  3.8254
   76MOL0     H10003   4.594  10.467   4.478 -0.5893  1.7733  0.8965
   76MOL0     H10004   4.588  10.410   4.176  1.0430 -0.0289  0.2489
   76MOL0     H10005   4.672  10.303   4.296 -1.5159 -0.8238  0.9625
   76MOL0     H10006   4.404  10.279   4.252  0.4160 -1.5131  0.1939
   76MOL0     H10007   4.390  10.386   4.378  0.2021  0.6293 -2.0316
   76MOL0     H10008   4.562  10.256   4.523 -0.1761 -0.9659  0.6719
   76MOL0     H10009   4.534  10.118   4.410  0.4512 -0.9430  0.9021
   76MOL0     H10010   4.396  10.111   4.610  2.5473 -2.1047 -1.8363
   76MOL0     H10011   4.347  10.274   4.591 -3.2947 -1.4109 -0.7268
   76MOL0     H10012   4.211  10.208   4.389 -2.7555 -0.8274  1.3528
   76MOL0     H10013   4.173  10.105   4.524 -0.8543  0.1818 -0.9919
   76MOL0     H10014   4.814  10.283   4.724 -1.4437  2.8888 -0.4584
   76MOL0     H10015   4.999  10.166   4.852  1.3752 -0.7086 -0.2478
   76MOL0     H10016   5.373  10.081   4.934  0.0005 -0.8367  0.5295
   76MOL0     H10017   5.588   9.944   4.988  1.0509 -0.0722  0.0532
   76MOL0     H10018   7.660   9.898   5.151  1.2261 -0.8683  2.1589
   76MOL0     H10019   7.898   9.794   5.170  1.1095 -1.5617  0.1574
   76MOL0     H10020   8.171   9.311   5.173 -0.2899  1.2534 -0.3084
   76MOL0     H10021   8.416   9.280   5.219  0.9170 -0.7033 -0.5062
   76MOL0     H10022   8.668   9.309   5.246 -0.6035 -0.6816 -0.8547
   76MOL0     H10023   8.613   9.466   5.289  0.6154 -0.7237  0.3268
   76MOL0     H10024   8.852   9.436   5.099  0.8242  0.2062  0.0399
   76MOL0     H10025   8.786   9.580   5.168  0.3884 -0.1331 -0.2603
   76MOL0     H10026   8.843   9.426   5.387 -4.6017  4.4713  0.8012
   76MOL0     H10027   8.907   9.569   5.337 -2.4102 -0.6927  1.0862
   76MOL0     H10028   9.082   9.475   5.216 -1.1148  3.1954  0.1847
   76MOL0     H10029   9.084   9.405   5.382 -0.2032 -1.8532 -0.5887
   76MOL0     H10030   9.029   9.067   5.135  3.0452  0.8999 -0.6406
   76MOL0     H10031   8.482   9.609   4.944  1.4815 -1.0289  0.4225
   76MOL0     H10032   8.249   9.665   4.950 -0.3269 -0.3625  2.3090
   77MOL0     O10033   8.174   4.603   7.317  0.4864  0.9976  1.1432
   77MOL0     C10034   8.103   4.500   7.297 -0.1856  0.9127  0.5387
   77MOL0     O10035   7.981   4.479   7.350  0.1653 -0.0664  0.3117
   77MOL0     C10036   7.922   4.563   7.440  0.5412 -0.0210 -0.1223
   77MOL0     C10037   7.856   4.505   7.556  1.0651 -0.4953  0.6275
   77MOL0     C10038   7.781   4.584   7.653 -0.2215 -0.0789  0.3739
   77MOL0     C10039   7.787   4.719   7.627 -0.2216 -1.4977 -0.3150
   77MOL0     O10040   7.729   4.814   7.707 -1.0811  1.3866  0.1383
   77MOL0     C10041   7.716   4.779   7.846 -0.4474  0.6280 -0.4731
   77MOL0     C10042   7.683   4.899   7.924 -0.2273  0.3907  0.4978
   77MOL0     C10043   7.611   5.012   7.850 -0.6866 -0.8732  0.9305
   77MOL0     C10044   7.555   5.105   7.949  0.0864  0.0977 -0.0485
   77MOL0     C10045   7.445   5.190   7.901  0.8248 -1.1317 -0.2236
   77MOL0     C10046   7.439   5.324   7.971  1.0351 -1.1921  0.0591
   77MOL0     C10047   7.309   5.396   7.925 -0.4379 -0.4340  0.2042
   77MOL0     C10048   7.318   5.480   7.797 -0.6111 -0.6703  0.1086
   77MOL0     N10049   7.183   5.484   7.733  0.3493 -0.1704  0.1365
   77MOL0     C10050   7.075   5.550   7.789 -0.2505 -0.3556  0.3265
   77MOL0     C10051   6.975   5.550   7.698 -0.0330 -0.1509 -0.3203
   77MOL0     C10052   6.839   5.614   7.711  0.1710 -0.1673 -0.6130
   77MOL0     C10053   6.788   5.685   7.587  0.4626  0.7036  0.2422
   77MOL0     C10054   6.883   5.804   7.548  0.5561 -0.8569  0.0155
   77MOL0     C10055   6.834   5.887   7.429 -0.1286  0.3567 -0.3424
   77MOL0     O10056   6.726   5.974   7.468 -0.3042  0.4625  0.3203
   77MOL0     C10057   6.658   6.023   7.369 -0.1757 -1.1620  0.8117
   77MOL0     C10058   6.703   6.068   7.242  0.6448  0.6466 -0.2666
   77MOL0     C10059   6.624   6.117   7.139  0.0065 -0.2168 -0.0826
   77MOL0     C10060   6.490   6.128   7.161  0.0207  0.8052 -0.1496
   77MOL0     C10061   6.396   6.187   7.063 -0.8479  0.2093  0.1019
   77MOL0     O10062   6.262   6.202   7.102 -0.3780  0.4239 -0.0892
   77MOL0     C10063   6.160   6.237   7.029  0.5230 -0.6767  0.9199
   77MOL0     C10064   6.135   6.187   6.899 -0.3480 -0.4255  0.1160
   77MOL0     C10065   6.021   6.237   6.823 -0.6647  0.7350 -0.3504
   77MOL0     C10066   5.941   6.336   6.875  0.6823  0.5224  0.0310
   77MOL0     O10067   5.844   6.397   6.793  0.1815  0.4303 -0.2679
   77MOL0     C10068   5.723   6.446   6.855 -0.1427 -0.5103  0.1999
   77MOL0     C10069   5.617   6.444   6.751  0.4592  0.3278 -0.5125
   77MOL0     C10070   5.478   6.475   6.808 -0.1766 -0.2618  0.6165
   77MOL0     C10071   5.378   6.385   6.736 -0.1862  0.0032  0.3784
   77MOL0     C10072   5.245   6.388   6.819 -0.2895 -0.6865 -0.7943
   77MOL0     C10073   5.128   6.332   6.734 -0.1203 -0.0043 -0.9257
   77MOL0     C10074   4.997   6.370   6.812 -0.4816  0.4013 -0.1375
   77MOL0     C10075   4.871   6.293   6.772  0.8353 -0.3972  0.6568
   77MOL0    Cl10076   4.816   6.355   6.611  0.2432  0.6431  0.0446
   77MOL0     C10077   5.965   6.378   7.007  0.2308  0.4030  0.1396
   77MOL0     C10078   6.071   6.331   7.083 -0.7851 -0.0308 -0.7666
   77MOL0     O10079   6.445   6.225   6.955 -0.0723 -0.3597  0.1619
   77MOL0     C10080   6.441   6.103   7.291  0.4422  0.0998  0.0835
   77MOL0     C10081   6.531   6.058   7.399 -1.2242  0.2856  0.9183
   77MOL0     N10082   7.023   5.485   7.586 -0.6605  0.0657  0.5477
   77MOL0     N10083   7.145   5.455   7.606 -0.2454 -0.2873 -0.6888
   77MOL0     C10084   7.852   4.778   7.523  0.2966 -0.2078  0.8120
   77MOL0     C10085   7.925   4.702   7.431 -0.2139 -0.5979  1.0614
   77MOL0     C10086   8.159   4.385   7.226 -0.4510  0.7495  0.0160
   77MOL0     C10087   8.090   4.263   7.197 -0.1251  0.0158  1.0970
   77MOL0     C10088   8.157   4.171   7.111  0.4945  0.2615 -1.1710
   77MOL0     C10089   8.292   4.179   7.085 -0.4367 -0.1087 -1.0062
   77MOL0     O10090   8.369   4.079   7.031  0.0396 -0.3540 -0.7780
   77MOL0     C10091   8.317   3.965   6.968 -0.5035 -0.5306  0.4133
   77MOL0     C10092   8.423   3.908   6.858  0.7631 -0.1643  0.5571
   77MOL0     C10093   8.457   3.999   6.735  0.8277  0.1732  0.1578
   77MOL0     C10094   8.535   4.125   6.767  0.0385  0.4277 -0.4515
   77MOL0     C10095   8.666   4.098   6.819  0.2188 -0.0509 -0.2766
   77MOL0     C10096   8.765   4.074   6.886  0.1106 -1.1105  0.2225
   77MOL0     C10097   8.360   4.296   7.116 -0.3595  0.6076  0.4112
   77MOL0     C10098   8.297   4.399   7.176 -0.6763  0.1826 -0.2364
   77MOL0     H10099   7.869   4.397   7.567  0.8622 -0.5370  0.4592
   77MOL0     H10100   7.729   4.536   7.735 -1.0293  0.7684  0.3847
   77MOL0     H10101   7.795   4.709   7.874 -2.8768 -1.5719  1.3414
   77MOL0     H10102   7.625   4.719   7.853  0.7147 -1.4648 -2.0919
   77MOL0     H10103   7.782   4.928   7.962 -0.8658  2.4435  0.7213
   77MOL0     H10104   7.617   4.865   8.005 -1.3344  1.3921  0.0397
   77MOL0     H10105   7.536   4.977   7.778  0.0690  0.5173 -0.6035
   77MOL0     H10106   7.687   5.056   7.785  0.4803 -1.2802  1.9780
   77MOL0     H10107   7.513   5.046   8.031 -2.5693  1.0959 -0.5588
   77MOL0     H10108   7.638   5.168   7.983  0.9156 -1.3383  0.6580
   77MOL0     H10109   7.351   5.137   7.920 -1.2307  2.2900  0.2347
   77MOL0     H10110   7.458   5.204   7.793 -1.2722  1.9640 -0.2307
   77MOL0     H10111   7.527   5.380   7.937  0.7389  0.1658  1.4162
   77MOL0     H10112   7.440   5.308   8.079 -1.9005 -2.4654 -0.0005
   77MOL0     H10113   7.232   5.319   7.913  0.3242 -0.9002 -2.2797
   77MOL0     H10114   7.271   5.476   7.989 -0.2645 -0.2063  0.0212
   77MOL0     H10115   7.396   5.435   7.735  2.0391  4.4894 -0.7992
   77MOL0     H10116   7.353   5.581   7.821 -1.7365 -0.5172  1.2228
   77MOL0     H10117   7.062   5.591   7.889 -3.4753  2.1746 -0.9499
   77MOL0     H10118   6.852   5.688   7.791  0.7139  0.8608 -1.6333
   77MOL0     H10119   6.772   5.533   7.741  1.8240 -1.8447 -1.2688
   77MOL0     H10120   6.689   5.720   7.618 -0.6059 -1.8651  0.0247
   77MOL0     H10121   6.766   5.621   7.501 -2.7270  2.8539 -0.7194
   77MOL0     H10122   6.912   5.864   7.635  3.4647  0.5445 -1.8037
   77MOL0     H10123   6.971   5.760   7.501 -0.7819 -0.5303 -2.9820
   77MOL0     H10124   6.797   5.819   7.352 -1.2518  1.0763 -0.4709
   77MOL0     H10125   6.927   5.935   7.399  0.5034  1.2398  2.6259
   77MOL0     H10126   6.807   6.061   7.212  0.8256  0.8094  0.3213
   77MOL0     H10127   6.655   6.150   7.041 -0.1945 -1.2080 -0.4930
   77MOL0     H10128   6.204   6.119   6.851 -0.2301 -0.9947  1.0829
   77MOL0     H10129   6.012   6.211   6.717 -2.1200  1.4977 -0.4393
   77MOL0     H10130   5.744   6.544   6.899  0.3333 -0.6749  0.3489
   77MOL0     H10131   5.704   6.378   6.939 -0.8791 -1.0195 -0.3698
   77MOL0     H10132   5.625   6.345   6.703  1.2116  0.7581 -1.3176
   77MOL0     H10133   5.646   6.518   6.676 -0.4206 -1.6031 -2.9034
   77MOL0     H10134   5.450   6.578   6.782  1.0883 -0.8938 -4.1695
   77MOL0     H10135   5.486   6.455   6.915  3.0432  0.5206  0.6101
   77MOL0     H10136   5.348   6.415   6.636  1.3452 -0.1827 -0.1587
   77MOL0     H10137   5.415   6.282   6.737 -2.0041 -0.7290  2.9345
   77MOL0     H10138   5.221   6.488   6.856 -0.9648 -0.4748 -1.7718
   77MOL0     H10139   5.263   6.325   6.907 -0.6201 -2.0276 -1.6678
   77MOL0     H10140   5.139   6.223   6.729 -0.2002 -0.1894  1.6415
   77MOL0     H10141   5.121   6.378   6.635 -0.7580  5.1811  1.2271
   77MOL0     H10142   5.013   6.328   6.912  1.2928 -0.2238 -0.6524
   77MOL0     H10143   4.986   6.479   6.804  1.7076  0.7835  1.2129
   77MOL0     H10144   4.797   6.308   6.851  0.5079  0.8483  0.1183
   77MOL0     H10145   4.886   6.184   6.772  0.8185 -0.4242  2.0420
   77MOL0     H10146   5.902   6.458   7.045 -0.0254 -0.2304  1.0907
   77MOL0     H10147   6.079   6.374   7.183 -0.5815 -0.4415 -0.6033
   77MOL0     H10148   6.339   6.122   7.321  0.5525  0.7731  0.0403
   77MOL0     H10149   6.485   6.049   7.497  0.0129  0.6596  1.5501
   77MOL0     H10150   7.848   4.885   7.504 -0.2220 -0.7178 -2.6926
   77MOL0     H10151   7.964   4.753   7.343 -0.0108  1.0601  2.0736
   77MOL0     H10152   7.984   4.247   7.216 -1.0353  2.0455 -1.6180
   77MOL0     H10153   8.098   4.086   7.078  0.8287 -0.5188  0.1570
   77MOL0     H10154   8.219   3.977   6.921  0.6293 -1.3322 -2.3825
   77MOL0     H10155   8.298   3.885   7.040  1.1662 -1.4149 -0.0916
   77MOL0     H10156   8.511   3.874   6.912  1.8111  1.9074  0.2536
   77MOL0     H10157   8.378   3.820   6.812 -0.0956  0.0882  0.8886
   77MOL0     H10158   8.362   4.017   6.682  0.6963  0.2515  0.4185
   77MOL0     H10159   8.515   3.938   6.665  1.7113  0.4417  0.6469
   77MOL0     H10160   8.551   4.197   6.687  0.4009  1.1976  0.2937
   77MOL0     H10161   8.483   4.184   6.844  2.3459 -1.8919  3.2047
   77MOL0     H10162   8.858   4.060   6.938  0.8530  0.4728 -0.5933
   77MOL0     H10163   8.461   4.316   7.083 -0.0537 -1.9035 -0.3424
   77MOL0     H10164   8.355   4.489   7.196 -1.0302  1.3003 -3.5935
   78MOL0     O10165   4.960   7.208   9.384 -0.1514 -0.7031 -0.4481
   78MOL0     C10166   4.983   7.154   9.499  0.4752 -0.4708 -0.4921
   78MOL0     O10167   4.885   7.124   9.585  0.1531  0.5738 -0.1683
   78MOL0     C10168   4.747   7.132   9.567 -1.6652  0.4554  0.7328
   78MOL0     C10169   4.687   7.209   9.468  0.1535  0.2655  0.1306
   78MOL0     C10170   4.550   7.196   9.456  1.1724  0.5041  0.6198
   78MOL0     C10171   4.473   7.094   9.533 -1.0593 -0.2521 -0.0718
   78MOL0     O10172   4.336   7.079   9.519 -0.8566  0.2173  0.3828
   78MOL0     C10173   4.301   6.990   9.405 -0.1216 -0.9242  0.4842
   78MOL0     C10174   4.151   6.962   9.386 -0.1503 -0.2185 -0.1943
   78MOL0     C10175   4.121   6.882   9.258 -0.1348  1.4716 -1.0941
   78MOL0     C10176   3.975   6.840   9.248 -0.0101 -0.1885 -0.4406
   78MOL0     C10177   3.859   6.947   9.235 -0.2205 -0.1752  0.1008
   78MOL0     C10178   3.719   6.885   9.218  0.4974  0.1010 -0.8875
   78MOL0     C10179   3.627   6.976   9.140 -0.0282 -0.2820 -0.4953
   78MOL0     C10180   3.573   7.099   9.219 -0.5841 -0.4122  0.0500
   78MOL0     N10181   3.661   7.217   9.222 -0.1308 -0.6311  0.1097
   78MOL0     C10182   3.680   7.304   9.114 -0.3852  0.4707 -0.2621
   78MOL0     C10183   3.748   7.410   9.162 -0.8348  0.3164 -0.3053
   78MOL0     C10184   3.808   7.533   9.094  0.3135  0.3626 -0.0294
   78MOL0     C10185   3.855   7.522   8.955 -0.2990 -0.0209 -0.4449
   78MOL0     C10186   3.849   7.667   8.893  0.2037 -0.4970 -0.1382
   78MOL0     C10187   3.895   7.667   8.747  0.0632 -0.3347  0.5573
   78MOL0     O10188   4.026   7.614   8.746  0.3544  0.8349  0.5032
   78MOL0     C10189   4.078   7.550   8.638 -0.1523 -0.0274  1.7052
   78MOL0     C10190   4.194   7.478   8.670  0.4240  0.6282 -0.2004
   78MOL0     C10191   4.263   7.404   8.572 -0.2632  0.9366 -0.7736
   78MOL0     C10192   4.219   7.387   8.444  0.9698  0.2787  0.5317
   78MOL0     C10193   4.281   7.300   8.349 -0.0882 -0.0515  0.0278
   78MOL0     O10194   4.269   7.336   8.218 -0.5340  0.3786  0.3723
   78MOL0     C10195   4.329   7.271   8.112  0.9521 -0.1431 -1.0414
   78MOL0     C10196   4.269   7.311   7.993  0.0784  0.8740 -0.6795
   78MOL0     C10197   4.332   7.269   7.873  0.2728 -0.4171  0.0507
   78MOL0     C10198   4.427   7.169   7.873 -0.0243 -0.3419 -1.0467
   78MOL0     O10199   4.487   7.122   7.761  0.0275 -0.0040  0.1190
   78MOL0     C10200   4.410   7.088   7.646  0.1654 -0.2476 -0.2667
   78MOL0     C10201   4.396   6.942   7.639 -0.1380  0.5588 -0.1872
   78MOL0     C10202   4.330   6.875   7.757 -0.9599  0.1306 -0.3035
   78MOL0     C10203   4.192   6.891   7.779  0.5711 -0.0464 -0.3417
   78MOL0     C10204   4.147   6.812   7.904  0.4591  0.1449 -0.3833
   78MOL0     C10205   4.003   6.838   7.947  0.4287  0.0428 -0.2052
   78MOL0     C10206   3.894   6.751   7.869 -0.7195 -0.0282 -0.0933
   78MOL0     C10207   3.756   6.769   7.923  0.9644  0.1429  0.2885
   78MOL0    Cl10208   3.696   6.924   7.894 -0.1176 -0.2148  0.0160
   78MOL0     C10209   4.470   7.120   7.991 -0.2420  0.0844 -0.5733
   78MOL0     C10210   4.422   7.165   8.115 -0.4517  0.5785 -0.1788
   78MOL0     O10211   4.338   7.201   8.399 -0.5598 -0.1010  0.4904
   78MOL0     C10212   4.106   7.463   8.401  0.5950 -0.4581 -0.8085
   78MOL0     C10213   4.039   7.544   8.498 -0.2528 -0.1748 -0.6038
   78MOL0     N10214   3.796   7.377   9.293  0.3654  0.9450 -0.4704
   78MOL0     N10215   3.748   7.254   9.324  0.1144  0.0695 -0.0201
   78MOL0     C10216   4.532   7.033   9.642  0.3927  0.1930 -0.2685
   78MOL0     C10217   4.673   7.057   9.653  0.5598  0.5557 -0.3206
   78MOL0     C10218   5.120   7.152   9.552 -0.6044 -0.5871 -0.0493
   78MOL0     C10219   5.225   7.216   9.483  0.2474  0.1536  0.0818
   78MOL0     C10220   5.360   7.214   9.533  0.0495 -0.7362 -0.6124
   78MOL0     C10221   5.382   7.151   9.649 -1.0625  0.3165 -0.3906
   78MOL0     O10222   5.511   7.141   9.702  1.0324 -0.1291 -0.2366
   78MOL0     C10223   5.635   7.186   9.647  0.3483 -0.3596  0.1907
   78MOL0     C10224   5.736   7.180   9.764  0.4193 -0.5314 -0.2358
   78MOL0     C10225   5.863   7.250   9.734  0.5196  0.3353  0.3609
   78MOL0     C10226   5.960   7.171   9.635 -0.7501 -0.3190 -0.4224
   78MOL0     C10227   6.087   7.252   9.622  0.1551 -0.1036  0.4997
   78MOL0     C10228   6.192   7.303   9.648  0.5192  0.2474 -0.6169
   78MOL0     C10229   5.283   7.087   9.724  0.0023 -0.2642  0.3366
   78MOL0     C10230   5.151   7.099   9.687  0.2889 -0.8905 -0.1684
   78MOL0     H10231   4.746   7.279   9.410  1.6829 -0.7959  0.3508
   78MOL0     H10232   4.493   7.241   9.376  2.0833  0.6932  0.0630
   78MOL0     H10233   4.359   6.898   9.413 -0.6564 -1.5898 -2.3190
   78MOL0     H10234   4.341   7.038   9.315 -0.5927  0.8860  1.1896
   78MOL0     H10235   4.086   7.050   9.392 -1.7086 -1.0831 -2.9410
   78MOL0     H10236   4.118   6.906   9.474 -0.6269 -0.7029 -0.6823
   78MOL0     H10237   4.179   6.790   9.258 -2.3083 -0.0316  0.7007
   78MOL0     H10238   4.144   6.947   9.173  0.3633  0.2393 -1.9451
   78MOL0     H10239   3.959   6.777   9.160  0.2648 -4.8841  2.5068
   78MOL0     H10240   3.953   6.768   9.326 -1.5912  1.2746  0.5325
   78MOL0     H10241   3.871   6.999   9.139 -1.3422 -0.9521 -0.4877
   78MOL0     H10242   3.860   7.022   9.313  6.4750  1.2687 -0.7913
   78MOL0     H10243   3.674   6.861   9.314  0.5567  2.3840 -0.2173
   78MOL0     H10244   3.727   6.785   9.174 -1.2140 -1.1959  1.5067
   78MOL0     H10245   3.674   7.003   9.046 -2.5162  1.4448 -1.3443
   78MOL0     H10246   3.541   6.914   9.110 -0.4911  0.6067 -1.0239
   78MOL0     H10247   3.557   7.063   9.321 -1.9957 -1.9145 -0.6484
   78MOL0     H10248   3.475   7.122   9.176 -0.3831 -2.5337 -1.7009
   78MOL0     H10249   3.655   7.295   9.009  0.3207  0.5531 -0.4377
   78MOL0     H10250   3.886   7.574   9.158  1.0277 -3.4033  1.8167
   78MOL0     H10251   3.726   7.605   9.091  0.1339  0.1304 -2.4093
   78MOL0     H10252   3.784   7.466   8.894 -2.9828  1.7202  0.8947
   78MOL0     H10253   3.957   7.481   8.950 -0.8721 -1.3772 -2.6733
   78MOL0     H10254   3.744   7.698   8.892  0.5990  0.8907 -0.0043
   78MOL0     H10255   3.912   7.737   8.948  2.8868 -3.6980  1.2239
   78MOL0     H10256   3.892   7.769   8.707 -1.6742 -0.7483 -0.4558
   78MOL0     H10257   3.826   7.609   8.687  0.9167  0.1419 -0.9343
   78MOL0     H10258   4.233   7.482   8.771  0.9809  1.3601 -0.4328
   78MOL0     H10259   4.350   7.347   8.604 -0.0649  1.4153 -0.4437
   78MOL0     H10260   4.198   7.393   7.990 -0.0800  0.7652 -0.0874
   78MOL0     H10261   4.312   7.325   7.782  2.2010  2.5121  1.2679
   78MOL0     H10262   4.475   7.121   7.565 -1.6349  2.7803 -0.6670
   78MOL0     H10263   4.315   7.139   7.624 -1.4962 -2.8111  0.5124
   78MOL0     H10264   4.497   6.901   7.626  0.0654  0.4368  1.5309
   78MOL0     H10265   4.349   6.924   7.543  1.8930  0.0145 -1.1374
   78MOL0     H10266   4.384   6.896   7.851  0.9206 -0.2842 -1.2447
   78MOL0     H10267   4.351   6.773   7.724  1.4706  1.1100 -2.0129
   78MOL0     H10268   4.167   6.995   7.802  0.7376 -0.4321  1.7296
   78MOL0     H10269   4.146   6.853   7.687  2.8225 -0.5539 -1.3461
   78MOL0     H10270   4.222   6.840   7.980 -1.3864 -0.4292  1.7504
   78MOL0     H10271   4.154   6.704   7.890 -2.5017  0.0009 -1.3125
   78MOL0     H10272   3.964   6.939   7.942 -1.6513 -0.3972  3.4367
   78MOL0     H10273   4.002   6.804   8.051  2.0824 -0.3459 -0.2797
   78MOL0     H10274   3.897   6.779   7.763  1.7449 -1.4778 -0.5059
   78MOL0     H10275   3.932   6.648   7.876  1.4070  0.5547 -1.7502
   78MOL0     H10276   3.749   6.738   8.028  2.4213  0.7577  0.5988
   78MOL0     H10277   3.682   6.708   7.871 -1.7639  3.5411 -0.2130
   78MOL0     H10278   4.538   7.037   7.977 -0.9867 -0.3375 -1.9210
   78MOL0     H10279   4.458   7.115   8.205  0.3156 -1.5407 -1.5773
   78MOL0     H10280   4.077   7.466   8.297  0.7786 -2.9843 -0.9772
   78MOL0     H10281   3.954   7.598   8.459 -3.1065 -1.6192  3.0320
   78MOL0     H10282   4.475   6.958   9.697  0.2806 -1.6979 -2.7670
   78MOL0     H10283   4.720   6.995   9.729 -1.2889 -1.5082 -0.7658
   78MOL0     H10284   5.203   7.267   9.390 -1.8173 -1.3036 -0.3003
   78MOL0     H10285   5.433   7.265   9.471  3.3813 -0.4268  3.2059
   78MOL0     H10286   5.618   7.289   9.613 -1.5013  0.0420  2.0814
   78MOL0     H10287   5.677   7.126   9.565  1.0659  2.3325 -1.5397
   78MOL0     H10288   5.687   7.221   9.852 -2.1287 -1.7410 -0.9901
   78MOL0     H10289   5.748   7.072   9.774  2.7326 -0.1208  2.3782
   78MOL0     H10290   5.911   7.271   9.830  1.7711 -2.0303  0.3205
   78MOL0     H10291   5.831   7.346   9.691  0.2040  0.6647  1.3007
   78MOL0     H10292   5.984   7.068   9.661  1.8273  0.5987  1.3038
   78MOL0     H10293   5.899   7.178   9.545 -0.1209 -0.0559 -0.8387
   78MOL0     H10294   6.293   7.330   9.672 -0.6495  3.2482  1.6396
   78MOL0     H10295   5.317   7.054   9.822  1.1447  1.7586  0.6806
   78MOL0     H10296   5.068   7.064   9.747  0.5539  0.4865  1.0694
   79MOL0     O10297   4.982  10.157   2.915 -0.6652  0.3248 -0.5784
   79MOL0     C10298   4.984  10.140   3.039  0.3543  0.2952  0.0074
   79MOL0     O10299   4.873  10.130   3.118 -0.5517  0.0481  0.5205
   79MOL0     C10300   4.748  10.176   3.077  0.1875  0.5640  0.5146
   79MOL0     C10301   4.631  10.116   3.114 -0.4268  0.1909  0.3181
   79MOL0     C10302   4.507  10.166   3.078  1.0948  0.6318  0.4028
   79MOL0     C10303   4.497  10.288   3.007 -1.4961  0.4329 -0.2831
   79MOL0     O10304   4.375  10.337   2.983  0.0153  0.4011 -0.2040
   79MOL0     C10305   4.296  10.398   3.091  0.0679 -0.5369  0.8421
   79MOL0     C10306   4.150  10.385   3.079  0.2907  0.1282  0.3379
   79MOL0     C10307   4.099  10.242   3.064 -0.8162 -0.1411  0.6208
   79MOL0     C10308   3.947  10.226   3.080 -0.3937 -0.2324 -0.4541
   79MOL0     C10309   3.904  10.090   3.037 -0.6467 -0.6480 -0.9305
   79MOL0     C10310   3.757  10.074   3.076 -0.4878 -0.1664 -0.3653
   79MOL0     C10311   3.703   9.946   3.015 -0.8211  0.5597  0.4551
   79MOL0     C10312   3.596   9.881   3.088  0.4560  0.0626 -0.7566
   79MOL0     N10313   3.488   9.977   3.099 -0.4485  1.0774 -0.1888
   79MOL0     C10314   3.419  10.026   2.997 -0.4361  0.2076 -0.2420
   79MOL0     C10315   3.344  10.124   3.044 -0.7775 -0.2791  0.0471
   79MOL0     C10316   3.257  10.203   2.960  0.6386 -0.6616 -0.7566
   79MOL0     C10317   3.125  10.237   3.034 -0.0721  0.0634  0.3488
   79MOL0     C10318   3.042  10.116   3.077 -0.9234  0.6391 -0.3929
   79MOL0     C10319   2.959  10.051   2.966 -0.4530 -0.0852  0.0944
   79MOL0     O10320   2.854  10.133   2.905 -0.2534  0.1111 -0.0625
   79MOL0     C10321   2.722  10.121   2.954 -0.5816  0.3207  0.2010
   79MOL0     C10322   2.638  10.189   2.863  0.7019  0.4846  0.2688
   79MOL0     C10323   2.499  10.196   2.900 -0.1593  0.4242  0.8977
   79MOL0     C10324   2.449  10.136   3.021 -0.4760 -1.0474 -0.5755
   79MOL0     C10325   2.304  10.139   3.040 -0.4473  0.2394  0.9044
   79MOL0     O10326   2.260  10.056   3.138  0.0654  0.9175 -0.1694
   79MOL0     C10327   2.127  10.076   3.171 -0.3109 -0.0787  0.9495
   79MOL0     C10328   2.087  10.185   3.253  0.4275 -0.1312 -0.0611
   79MOL0     C10329   1.955  10.201   3.285  0.0817 -0.0852  0.5884
   79MOL0     C10330   1.854  10.114   3.227 -0.1550  0.0986 -1.0034
   79MOL0     O10331   1.727  10.127   3.277 -0.1888  0.4906 -0.2396
   79MOL0     C10332   1.639  10.023   3.243  0.9367 -1.0819  0.0932
   79MOL0     C10333   1.506  10.043   3.321 -0.1969 -0.2084 -0.2807
   79MOL0     C10334   1.391   9.971   3.254  0.9733  0.4119 -0.4441
   79MOL0     C10335   1.263  10.040   3.303 -0.1354 -0.2404  0.0360
   79MOL0     C10336   1.155   9.941   3.286  0.4931  0.7286  0.3123
   79MOL0     C10337   1.018   9.987   3.344  0.3633 -0.5805  0.1270
   79MOL0     C10338   0.908   9.875   3.347 -0.3775 -0.1308  0.8084
   79MOL0     C10339   0.778   9.913   3.418  0.4545 -0.2950 -0.0105
   79MOL0    Cl10340   0.648   9.804   3.407  0.2295  0.5097 -0.4593
   79MOL0     C10341   1.895  10.012   3.148 -0.4970 -0.1991  0.1869
   79MOL0     C10342   2.027   9.995   3.115 -0.2483 -0.5820 -0.8324
   79MOL0     O10343   2.237  10.210   2.960  0.0699 -0.4528  0.1229
   79MOL0     C10344   2.542  10.070   3.099 -0.4150 -0.7970 -0.3052
   79MOL0     C10345   2.680  10.070   3.074 -0.4500  0.1916  0.0268
   79MOL0     N10346   3.365  10.130   3.177  0.1668  0.2615  0.3776
   79MOL0     N10347   3.456  10.045   3.212 -0.1866 -0.7400 -0.1670
   79MOL0     C10348   4.611  10.349   2.964  0.8199 -0.2859  0.8955
   79MOL0     C10349   4.732  10.292   2.992  0.5063  0.3328  0.2212
   79MOL0     C10350   5.113  10.121   3.108 -0.2921 -0.1147  0.2267
   79MOL0     C10351   5.231  10.131   3.026 -0.3821 -0.0837 -0.3813
   79MOL0     C10352   5.355  10.109   3.091 -0.1520  0.7900  0.0136
   79MOL0     C10353   5.362  10.078   3.232 -0.2802  0.6717  0.7442
   79MOL0     O10354   5.481  10.058   3.315  0.6374 -0.1271  0.7885
   79MOL0     C10355   5.584   9.986   3.239  0.5111  0.2524 -0.3183
   79MOL0     C10356   5.694   9.948   3.340 -0.8109  0.9175  0.5556
   79MOL0     C10357   5.801   9.847   3.300 -0.4019 -0.4924  0.3157
   79MOL0     C10358   5.896   9.838   3.418 -0.2951  0.4703 -1.2224
   79MOL0     C10359   6.011   9.750   3.400 -0.3978  0.4408  0.2696
   79MOL0     C10360   6.102   9.685   3.378  0.9439  0.1515 -0.7271
   79MOL0     C10361   5.238  10.069   3.304  0.0891 -0.1319 -0.7347
   79MOL0     C10362   5.115  10.093   3.244  0.0395  0.4655 -0.1657
   79MOL0     H10363   4.641  10.026   3.173  1.9560  1.6897  2.4065
   79MOL0     H10364   4.420  10.123   3.125  1.1774 -1.7946 -1.4678
   79MOL0     H10365   4.310  10.507   3.093 -1.6845 -0.2199 -1.1061
   79MOL0     H10366   4.331  10.360   3.187  2.0860 -2.3215 -0.5057
   79MOL0     H10367   4.134  10.439   2.985  2.1313 -0.8192 -0.5861
   79MOL0     H10368   4.100  10.431   3.164 -0.0494 -1.6956  1.1676
   79MOL0     H10369   4.148  10.196   3.150 -1.4904  2.3012  2.4404
   79MOL0     H10370   4.135  10.198   2.970 -3.1289  2.5958 -1.7561
   79MOL0     H10371   3.931  10.243   3.187  0.0571  0.2269 -0.4504
   79MOL0     H10372   3.892  10.300   3.020 -0.2444 -0.8700 -1.4002
   79MOL0     H10373   3.972  10.022   3.089 -0.8811  0.6778  1.2432
   79MOL0     H10374   3.909  10.078   2.928 -1.3932  0.8142 -1.1476
   79MOL0     H10375   3.701  10.161   3.039 -1.5471 -0.5790  0.2064
   79MOL0     H10376   3.747  10.077   3.185 -1.1846 -1.0403 -0.3967
   79MOL0     H10377   3.680   9.970   2.911 -0.2677 -1.0683 -0.0702
   79MOL0     H10378   3.785   9.874   3.012 -0.4795  0.7190  3.0681
   79MOL0     H10379   3.639   9.856   3.185 -2.8420 -2.0745  0.2858
   79MOL0     H10380   3.570   9.791   3.033 -0.3719  0.9815 -1.9244
   79MOL0     H10381   3.424   9.992   2.894  3.1736  2.2385 -0.9166
   79MOL0     H10382   3.235  10.150   2.867 -1.5814 -1.1906  0.0026
   79MOL0     H10383   3.313  10.292   2.932  0.4787 -0.8069 -1.5611
   79MOL0     H10384   3.064  10.300   2.968 -0.8133 -0.4852  0.5090
   79MOL0     H10385   3.149  10.299   3.121  1.1426 -0.0796  0.1415
   79MOL0     H10386   3.095  10.031   3.122 -2.1148  0.6831  1.1947
   79MOL0     H10387   2.971  10.154   3.151 -3.4931 -3.7041 -0.3039
   79MOL0     H10388   2.914   9.957   2.998 -2.2450  0.8024  0.3733
   79MOL0     H10389   3.027  10.027   2.884 -0.7465  0.4591 -0.3213
   79MOL0     H10390   2.673  10.246   2.778  2.0816  1.6085  1.5278
   79MOL0     H10391   2.441  10.260   2.834 -0.1279 -1.4713 -1.0672
   79MOL0     H10392   2.161  10.246   3.305  1.1363  0.7979 -2.0553
   79MOL0     H10393   1.910  10.275   3.349 -1.6264 -2.2794  2.0657
   79MOL0     H10394   1.681   9.923   3.259  1.9558 -0.6689  0.0941
   79MOL0     H10395   1.612  10.038   3.138  2.0567  1.6879  0.1168
   79MOL0     H10396   1.479  10.149   3.330 -0.8203 -0.0937 -2.7526
   79MOL0     H10397   1.524  10.011   3.424 -1.5079 -0.3191 -0.0613
   79MOL0     H10398   1.397   9.865   3.280 -1.8603  1.1383  4.2167
   79MOL0     H10399   1.391   9.976   3.144 -1.1450 -1.2013 -0.5904
   79MOL0     H10400   1.265  10.070   3.409  2.2877  0.2888 -0.0856
   79MOL0     H10401   1.236  10.126   3.241  1.4315 -0.6116 -1.2093
   79MOL0     H10402   1.176   9.850   3.343 -1.6420 -0.1099 -0.1350
   79MOL0     H10403   1.153   9.930   3.178 -3.2052  1.0641  0.2002
   79MOL0     H10404   0.976  10.066   3.281  0.8923  2.7349  3.6148
   79MOL0     H10405   1.032  10.019   3.447  0.2933 -0.5743  0.1347
   79MOL0     H10406   0.871   9.855   3.246 -0.6720 -0.3496  0.9571
   79MOL0     H10407   0.939   9.780   3.392  0.3085  1.5639  4.2401
   79MOL0     H10408   0.748  10.013   3.387  1.0323  0.3088  1.2967
   79MOL0     H10409   0.798   9.908   3.526  1.8460 -6.5547 -0.1477
   79MOL0     H10410   1.828   9.944   3.096 -1.7116  3.1958 -3.1748
   79MOL0     H10411   2.050   9.911   3.050  2.6577 -1.2540  0.8856
   79MOL0     H10412   2.518  10.020   3.193  0.1745 -0.5568 -0.0182
   79MOL0     H10413   2.757  10.024   3.134 -1.7864 -0.5355  1.2541
   79MOL0     H10414   4.610  10.443   2.910 -0.1760  0.0924  1.5597
   79MOL0     H10415   4.823  10.345   2.966  0.1867  1.1484  0.7443
   79MOL0     H10416   5.232  10.160   2.922  0.8428 -1.4234 -0.7850
   79MOL0     H10417   5.441  10.107   3.025 -1.3192 -2.3366 -1.6112
   79MOL0     H10418   5.626  10.055   3.167  2.5111  2.1020  2.4337
   79MOL0     H10419   5.544   9.893   3.197 -0.8119  0.6292  0.0451
   79MOL0     H10420   5.742  10.043   3.365 -0.8113  0.7550  1.2153
   79MOL0     H10421   5.640   9.912   3.428 -3.3793  0.6762 -1.0279
   79MOL0     H10422   5.853   9.881   3.210 -1.5836  0.7922  0.0864
   79MOL0     H10423   5.761   9.747   3.281 -1.1563 -0.0248 -0.6165
   79MOL0     H10424   5.946   9.935   3.425  1.1028 -0.3355  1.0330
   79MOL0     H10425   5.842   9.817   3.510  0.0073  0.0833 -1.1291
   79MOL0     H10426   6.182   9.614   3.370  0.5922 -0.2936 -0.3969
   79MOL0     H10427   5.242  10.035   3.407 -0.1642 -2.2288 -1.3816
   79MOL0     H10428   5.025  10.092   3.306  0.2410 -0.8296  0.1323
   80MOL0     O10429   9.644  10.708   1.190 -0.5995 -0.7497 -0.0197
   80MOL0     C10430   9.612  10.637   1.282  0.3639  0.1802 -0.1791
   80MOL0     O10431   9.495  10.569   1.276  0.5776 -0.1507 -0.5730
   80MOL0     C10432   9.398  10.587   1.178  0.9368  0.1895  0.9954
   80MOL0     C10433   9.261  10.616   1.207  0.2915  0.0726  0.5009
   80MOL0     C10434   9.167  10.632   1.107  0.6029  0.5842 -0.6703
   80MOL0     C10435   9.203  10.605   0.979  0.5176  0.2330  1.4892
   80MOL0     O10436   9.102  10.620   0.884 -0.3332 -0.3636  0.1148
   80MOL0     C10437   9.144  10.618   0.743  0.3884 -0.0626 -0.0519
   80MOL0     C10438   9.025  10.656   0.662 -0.4630  0.1934  1.1666
   80MOL0     C10439   9.045  10.648   0.508  1.1518  0.3032  1.0681
   80MOL0     C10440   9.107  10.511   0.470  0.5226  0.4216 -0.2050
   80MOL0     C10441   9.079  10.456   0.330  0.7627 -1.8186  0.2001
   80MOL0     C10442   9.136  10.550   0.227 -0.6638  0.2790 -0.7190
   80MOL0     C10443   9.286  10.544   0.225 -0.0135 -0.3406 -1.0077
   80MOL0     C10444   9.324  10.604   0.090 -0.1744  0.7764 -0.0862
   80MOL0     N10445   9.299  10.741   0.076  0.0745 -1.0585  0.1402
   80MOL0     C10446   9.341  10.838   0.158  0.2185 -1.2091 -0.4949
   80MOL0     C10447   9.311  10.956   0.103  0.5146  0.2030  1.1603
   80MOL0     C10448   9.314  11.098   0.160  0.3970  0.0662  0.1862
   80MOL0     C10449   9.303  11.093   0.315 -0.8384 -0.0388 -0.5840
   80MOL0     C10450   9.165  11.048   0.365  0.3242  0.6268 -0.5303
   80MOL0     C10451   9.154  11.054   0.520  0.4392 -0.2262  0.6915
   80MOL0     O10452   9.014  11.050   0.563 -0.4120 -0.8538 -0.4933
   80MOL0     C10453   8.992  11.017   0.703 -0.4319  0.0139  0.7447
   80MOL0     C10454   9.092  10.990   0.798 -0.7282  0.7384 -0.6881
   80MOL0     C10455   9.066  10.958   0.937  1.0675 -0.0802 -0.2091
   80MOL0     C10456   8.925  10.961   0.975 -0.8186  1.1688  0.5314
   80MOL0     C10457   8.874  10.930   1.112  0.5708  0.1462  0.1969
   80MOL0     O10458   8.970  10.910   1.207  0.1176 -0.1106 -0.2101
   80MOL0     C10459   8.924  10.879   1.338 -0.8095  0.6137  0.3504
   80MOL0     C10460   8.917  10.752   1.401 -0.5307  0.1576  0.3539
   80MOL0     C10461   8.869  10.739   1.534 -0.3606  0.2340 -0.8742
   80MOL0     C10462   8.818  10.852   1.612 -0.5940  0.4121 -0.0017
   80MOL0     O10463   8.779  10.850   1.746 -0.5814 -0.8035  0.7602
   80MOL0     C10464   8.739  10.723   1.803  0.1384  0.3472  0.3894
   80MOL0     C10465   8.599  10.738   1.868  0.2686 -0.1727  0.0863
   80MOL0     C10466   8.502  10.791   1.759  0.4545  0.2907 -0.2897
   80MOL0     C10467   8.361  10.795   1.803  0.4326 -0.3744  0.0976
   80MOL0     C10468   8.297  10.663   1.833 -0.0980 -0.1579 -0.1838
   80MOL0     C10469   8.296  10.559   1.721  0.0279 -0.5823  0.1990
   80MOL0     C10470   8.173  10.463   1.730 -0.6357  0.1531 -0.2443
   80MOL0     C10471   8.139  10.383   1.608 -0.6501  0.0933 -0.8290
   80MOL0    Cl10472   7.987  10.419   1.543  0.1249  0.6756  0.2417
   80MOL0     C10473   8.831  10.974   1.547 -0.0258 -0.1767 -0.3359
   80MOL0     C10474   8.884  10.987   1.421 -0.2110 -0.4350 -0.2336
   80MOL0     O10475   8.749  10.924   1.126  0.2669 -0.0946 -0.0416
   80MOL0     C10476   8.825  10.984   0.877 -0.2119 -0.0742 -0.0659
   80MOL0     C10477   8.858  10.997   0.740  0.4396 -0.4338 -0.4526
   80MOL0     N10478   9.260  10.927  -0.030  0.1070 -0.6422 -0.3266
   80MOL0     N10479   9.254  10.799  -0.035 -0.8328 -0.5619  0.4145
   80MOL0     C10480   9.341  10.577   0.948 -0.3353 -0.2482 -0.1425
   80MOL0     C10481   9.429  10.570   1.051  0.0934 -0.0355 -0.3425
   80MOL0     C10482   9.697  10.622   1.397 -0.5707 -0.4667 -0.0079
   80MOL0     C10483   9.722  10.492   1.441 -0.1350 -0.4958 -0.4232
   80MOL0     C10484   9.790  10.474   1.564 -0.3593  0.4858  0.2051
   80MOL0     C10485   9.841  10.582   1.634 -0.5747 -0.4494 -0.4060
   80MOL0     O10486   9.871  10.548   1.766  0.2923 -0.0356  0.3210
   80MOL0     C10487  10.013  10.569   1.777  0.5251 -0.6437  1.1461
   80MOL0     C10488  10.033  10.580   1.935  0.3312 -0.4072  0.2344
   80MOL0     C10489  10.165  10.653   1.978  0.6253  0.0405 -0.6512
   80MOL0     C10490  10.291  10.597   1.911 -0.1156 -0.6089  0.5083
   80MOL0     C10491  10.421  10.632   1.981 -0.4103  0.6438  0.7963
   80MOL0     C10492  10.534  10.652   2.019  0.6358  0.3200  0.4081
   80MOL0     C10493   9.837  10.714   1.580 -0.8040 -0.8033 -0.5397
   80MOL0     C10494   9.763  10.735   1.462  0.4578  0.5678 -0.1650
   80MOL0     H10495   9.226  10.634   1.309  1.7081  0.6127  0.9194
   80MOL0     H10496   9.067  10.665   1.130  0.0209 -2.1158  1.1258
   80MOL0     H10497   9.176  10.516   0.720 -0.8237 -0.8770  1.6900
   80MOL0     H10498   9.221  10.692   0.719 -2.0405  1.4010 -4.3044
   80MOL0     H10499   8.995  10.755   0.697 -2.1607 -0.5317  1.8981
   80MOL0     H10500   8.949  10.584   0.696  1.9269 -3.1522 -0.0656
   80MOL0     H10501   9.097  10.737   0.472 -2.9537  3.5261  2.2751
   80MOL0     H10502   8.946  10.662   0.463  0.8708  1.4033  1.9754
   80MOL0     H10503   9.213  10.525   0.493  0.4380  1.3621 -0.3147
   80MOL0     H10504   9.062  10.439   0.538  1.0155  1.5608  1.3769
   80MOL0     H10505   8.971  10.442   0.320  1.0311 -2.2850 -3.3448
   80MOL0     H10506   9.122  10.356   0.317  1.5178 -1.2300 -2.7505
   80MOL0     H10507   9.104  10.653   0.243 -2.2515 -0.1498 -0.9636
   80MOL0     H10508   9.091  10.529   0.129 -1.1750 -1.5283 -0.1259
   80MOL0     H10509   9.336  10.598   0.306 -1.1219  0.1427 -0.6246
   80MOL0     H10510   9.320  10.441   0.241  1.8746  0.3677 -0.1195
   80MOL0     H10511   9.279  10.552   0.006 -1.2781 -0.3350  1.1438
   80MOL0     H10512   9.431  10.579   0.085 -0.1048  0.8550  0.7951
   80MOL0     H10513   9.391  10.826   0.253  0.3778  1.8792 -0.0641
   80MOL0     H10514   9.248  11.167   0.106  0.6301 -0.9936 -1.5324
   80MOL0     H10515   9.416  11.133   0.144 -0.3988  1.8018 -1.5836
   80MOL0     H10516   9.316  11.197   0.347  0.8293  1.0879 -4.3238
   80MOL0     H10517   9.374  11.025   0.363 -2.2001 -1.6238 -0.6880
   80MOL0     H10518   9.084  11.110   0.326  0.1936  2.5436  2.5422
   80MOL0     H10519   9.151  10.946   0.329 -0.3580  1.4834 -2.8847
   80MOL0     H10520   9.203  11.145   0.557  2.6449 -1.6940  1.5814
   80MOL0     H10521   9.201  10.968   0.568 -0.8061 -0.9086  0.7259
   80MOL0     H10522   9.199  10.995   0.779 -0.1949 -0.5709  1.5780
   80MOL0     H10523   9.134  10.946   1.020 -0.4327  2.8713  1.6165
   80MOL0     H10524   8.954  10.664   1.349  0.4381 -0.2754  1.7211
   80MOL0     H10525   8.881  10.641   1.580 -1.3517  1.5595  2.6017
   80MOL0     H10526   8.807  10.696   1.885  0.5963 -1.5735 -0.5566
   80MOL0     H10527   8.731  10.637   1.736 -2.4038 -0.6741  1.8926
   80MOL0     H10528   8.610  10.808   1.952  2.1138 -3.2608  2.6600
   80MOL0     H10529   8.563  10.642   1.907 -1.9677  0.4440 -0.3152
   80MOL0     H10530   8.500  10.728   1.669 -2.6680  0.5476 -0.5224
   80MOL0     H10531   8.539  10.889   1.728  2.9993 -0.1836  1.0083
   80MOL0     H10532   8.366  10.855   1.894 -1.8472  0.2074 -0.1226
   80MOL0     H10533   8.307  10.846   1.723 -0.5549 -1.0639  0.3026
   80MOL0     H10534   8.194  10.683   1.862  0.0193 -0.1585  0.2334
   80MOL0     H10535   8.341  10.623   1.925  1.1185 -1.3416 -1.2270
   80MOL0     H10536   8.386  10.498   1.737  0.6953  1.2208  5.2902
   80MOL0     H10537   8.301  10.613   1.626  1.4112 -0.5436  0.2758
   80MOL0     H10538   8.178  10.399   1.819 -1.8297  0.1151 -0.1932
   80MOL0     H10539   8.083  10.523   1.748 -0.0887  0.7912  0.4640
   80MOL0     H10540   8.141  10.275   1.623  2.0316  0.0991 -0.7460
   80MOL0     H10541   8.221  10.411   1.541  0.6970  4.0153  2.0520
   80MOL0     H10542   8.816  11.062   1.610  0.7738 -0.3136  0.0634
   80MOL0     H10543   8.878  11.088   1.380  1.2441 -1.6975 -4.0239
   80MOL0     H10544   8.719  10.979   0.896 -0.2933 -2.9400 -0.8206
   80MOL0     H10545   8.776  11.015   0.672 -0.2848  0.7133  0.6790
   80MOL0     H10546   9.380  10.566   0.848 -0.4807  0.2066 -0.2535
   80MOL0     H10547   9.528  10.532   1.029 -0.0160  0.0086 -0.9239
   80MOL0     H10548   9.685  10.401   1.395  2.9537 -2.7760  1.1784
   80MOL0     H10549   9.785  10.376   1.612  3.3042  1.0115  1.9631
   80MOL0     H10550  10.040  10.664   1.729 -1.8097 -0.8665 -0.7846
   80MOL0     H10551  10.064  10.487   1.725  0.1376 -0.7025  0.8573
   80MOL0     H10552   9.945  10.629   1.978 -0.0123 -0.2084 -0.6714
   80MOL0     H10553  10.044  10.483   1.985  0.9657  0.8123  2.5864
   80MOL0     H10554  10.172  10.640   2.086  0.2551 -3.4873 -0.9403
   80MOL0     H10555  10.153  10.758   1.947 -0.8435 -0.6728 -2.6843
   80MOL0     H10556  10.279  10.488   1.915 -2.4448 -0.3963  0.5953
   80MOL0     H10557  10.291  10.631   1.808 -5.9733  0.8143  0.6254
   80MOL0     H10558  10.636  10.655   2.053  0.8882 -0.6387 -0.2058
   80MOL0     H10559   9.867  10.794   1.647 -2.9500 -0.2691 -0.1287
   80MOL0     H10560   9.730  10.833   1.431 -0.3531 -0.4670 -2.7843
   81MOL0     O10561   1.460   6.006   1.625  0.7358  0.4122 -0.3731
   81MOL0     C10562   1.433   5.885   1.638  0.0428 -0.3338 -1.1466
   81MOL0     O10563   1.524   5.786   1.673  0.1128 -0.2026  0.1278
   81MOL0     C10564   1.655   5.795   1.701  0.4848  0.3255 -0.2217
   81MOL0     C10565   1.700   5.672   1.755 -0.4185 -0.3001  0.5606
   81MOL0     C10566   1.837   5.657   1.776  0.4020 -0.5415 -0.9935
   81MOL0     C10567   1.930   5.763   1.757  1.0093  0.2082  0.2604
   81MOL0     O10568   2.066   5.729   1.795 -0.3366 -0.3256 -0.2343
   81MOL0     C10569   2.157   5.815   1.718 -0.5633 -0.3347 -0.6258
   81MOL0     C10570   2.299   5.772   1.747  0.4047 -0.9125 -1.0331
   81MOL0     C10571   2.391   5.851   1.647 -0.3457  0.3007 -0.6633
   81MOL0     C10572   2.539   5.815   1.664 -1.1404 -0.4278 -0.0335
   81MOL0     C10573   2.628   5.878   1.556  0.6248 -0.5409 -0.3215
   81MOL0     C10574   2.776   5.853   1.575 -0.2466  0.4144 -0.1638
   81MOL0     C10575   2.808   5.703   1.524  0.1708  0.1254 -0.9135
   81MOL0     C10576   2.844   5.706   1.376  0.5157  0.4281 -0.4532
   81MOL0     N10577   2.891   5.574   1.339 -0.4066 -0.2870 -0.0064
   81MOL0     C10578   3.009   5.520   1.396 -0.4829 -0.9921  0.9804
   81MOL0     C10579   3.037   5.403   1.331  0.4395 -0.5535  0.0281
   81MOL0     C10580   3.162   5.331   1.355 -0.0358  0.3259 -0.0974
   81MOL0     C10581   3.276   5.363   1.257 -0.1465 -0.1893  0.0880
   81MOL0     C10582   3.323   5.511   1.265  0.1943 -0.8964 -0.0000
   81MOL0     C10583   3.474   5.504   1.220 -0.1709  0.0049 -0.1350
   81MOL0     O10584   3.557   5.465   1.330 -0.7090 -0.5435  0.2628
   81MOL0     C10585   3.692   5.446   1.313  0.0221 -0.0029  0.1248
   81MOL0     C10586   3.772   5.402   1.425 -0.8773  0.4187  0.0303
   81MOL0     C10587   3.913   5.395   1.422  0.2278 -0.1690 -0.5687
   81MOL0     C10588   3.978   5.435   1.301  0.5993  0.9236 -0.0948
   81MOL0     C10589   4.123   5.450   1.306  0.9930 -0.5010 -0.4777
   81MOL0     O10590   4.203   5.376   1.392 -0.1472 -0.1025  0.3177
   81MOL0     C10591   4.323   5.430   1.430  0.1454 -0.6757 -0.3083
   81MOL0     C10592   4.425   5.343   1.439 -0.6144 -0.3267  0.2260
   81MOL0     C10593   4.551   5.408   1.468  0.2727  0.5013 -0.6978
   81MOL0     C10594   4.568   5.537   1.492  0.1860  0.6613  0.7761
   81MOL0     O10595   4.690   5.577   1.544 -0.2969  0.2224  0.1668
   81MOL0     C10596   4.800   5.551   1.470 -0.5268 -0.0826  1.3236
   81MOL0     C10597   4.903   5.465   1.561 -0.3097 -0.5756 -0.1996
   81MOL0     C10598   5.033   5.421   1.485  0.4585 -1.3626  0.5530
   81MOL0     C10599   5.148   5.357   1.571 -0.6147  0.5825  0.5930
   81MOL0     C10600   5.258   5.290   1.481 -0.3130 -0.2884  0.8163
   81MOL0     C10601   5.346   5.199   1.561 -0.1400  0.9868 -0.1808
   81MOL0     C10602   5.402   5.080   1.475  0.1667  0.3702  0.1969
   81MOL0     C10603   5.457   4.970   1.565  0.3296 -0.7151 -0.0706
   81MOL0    Cl10604   5.476   4.811   1.485 -0.1488 -0.3467  0.3452
   81MOL0     C10605   4.456   5.623   1.480 -0.3631 -0.0743 -0.0420
   81MOL0     C10606   4.334   5.569   1.458 -0.4119 -0.4873  0.0579
   81MOL0     O10607   4.166   5.546   1.240  0.4821  0.1783  0.8867
   81MOL0     C10608   3.907   5.477   1.188  0.0783  0.3583 -0.5476
   81MOL0     C10609   3.766   5.485   1.196 -0.1726  0.4737 -0.3072
   81MOL0     N10610   2.936   5.386   1.233 -0.4805  0.3643 -0.6481
   81MOL0     N10611   2.850   5.483   1.248  0.2761 -0.1077  0.0844
   81MOL0     C10612   1.888   5.893   1.724  0.7982 -0.7235  1.3766
   81MOL0     C10613   1.754   5.911   1.690  0.1423  1.4646 -0.3848
   81MOL0     C10614   1.300   5.827   1.634  0.0531 -0.2412  0.6215
   81MOL0     C10615   1.188   5.907   1.614  0.3439  0.2064  1.0102
   81MOL0     C10616   1.052   5.855   1.619  0.0294 -1.3758  0.4959
   81MOL0     C10617   1.033   5.718   1.624 -0.5335  0.3036  0.3700
   81MOL0     O10618   0.910   5.654   1.619 -0.7112 -0.6101 -0.0074
   81MOL0     C10619   0.812   5.756   1.646 -0.3644 -0.2246 -0.0286
   81MOL0     C10620   0.689   5.668   1.669 -0.2247 -0.1591 -0.3533
   81MOL0     C10621   0.564   5.757   1.647  0.2597 -1.0707  0.1678
   81MOL0     C10622   0.447   5.709   1.724  1.1048  0.2823 -0.4670
   81MOL0     C10623   0.329   5.794   1.685  0.4671  0.9527  0.7397
   81MOL0     C10624   0.256   5.863   1.624  0.2358 -0.4074 -0.7487
   81MOL0     C10625   1.151   5.638   1.625 -0.1310  0.0025 -0.7267
   81MOL0     C10626   1.279   5.688   1.641 -0.1213  0.4033  0.4719
   81MOL0     H10627   1.621   5.600   1.768 -0.5611 -0.1113  0.7273
   81MOL0     H10628   1.876   5.561   1.809 -2.8615 -1.8606 -0.6216
   81MOL0     H10629   2.153   5.918   1.756 -0.9956 -0.1134 -1.2579
   81MOL0     H10630   2.120   5.813   1.616 -2.6251  0.8587  0.0385
   81MOL0     H10631   2.301   5.662   1.741 -0.7212 -1.0452  0.5465
   81MOL0     H10632   2.328   5.797   1.850  0.5281  2.4418 -1.7859
   81MOL0     H10633   2.392   5.959   1.668  1.9424  0.3711 -0.7987
   81MOL0     H10634   2.356   5.845   1.544  1.4023  1.0068 -1.3511
   81MOL0     H10635   2.566   5.854   1.762 -1.8845 -1.0366  0.4311
   81MOL0     H10636   2.562   5.708   1.661  1.7000  0.0843 -3.5071
   81MOL0     H10637   2.616   5.986   1.560  1.3854 -0.4648  0.0888
   81MOL0     H10638   2.593   5.837   1.460  1.2402  2.0469 -1.7485
   81MOL0     H10639   2.814   5.863   1.677 -1.1686 -0.6495  0.3028
   81MOL0     H10640   2.831   5.916   1.505  1.3833 -3.6511 -2.9346
   81MOL0     H10641   2.901   5.678   1.575  0.7731  1.6552 -1.2163
   81MOL0     H10642   2.733   5.625   1.542  0.0241  0.4554 -0.0493
   81MOL0     H10643   2.920   5.782   1.354  1.8482 -1.0984 -1.4179
   81MOL0     H10644   2.759   5.735   1.314 -1.4562  0.6351  2.1790
   81MOL0     H10645   3.071   5.556   1.478 -0.5376  2.3233 -0.2680
   81MOL0     H10646   3.146   5.224   1.345 -1.2106  0.3038  1.5133
   81MOL0     H10647   3.180   5.339   1.463  0.6793 -2.2140  0.0375
   81MOL0     H10648   3.261   5.342   1.150  0.1035  4.3999 -1.0248
   81MOL0     H10649   3.364   5.302   1.281 -0.9350 -1.1443  0.6640
   81MOL0     H10650   3.258   5.566   1.196 -2.1789 -2.9466  0.4509
   81MOL0     H10651   3.312   5.549   1.367 -1.6805 -0.4359 -0.3445
   81MOL0     H10652   3.501   5.604   1.187  5.5334 -1.0265  0.4701
   81MOL0     H10653   3.484   5.458   1.121 -1.3644 -0.7651  0.0752
   81MOL0     H10654   3.719   5.390   1.519  0.8336 -1.5969  0.8206
   81MOL0     H10655   3.971   5.365   1.509  1.2015 -0.0096 -1.1362
   81MOL0     H10656   4.407   5.236   1.430 -1.7710 -0.2204  0.9853
   81MOL0     H10657   4.630   5.338   1.491 -1.8336 -0.8442  3.4774
   81MOL0     H10658   4.847   5.644   1.436  0.6413 -1.4726 -1.1531
   81MOL0     H10659   4.774   5.489   1.383  1.6454 -0.0283  0.5695
   81MOL0     H10660   4.862   5.377   1.612 -2.8131  0.0038 -1.0560
   81MOL0     H10661   4.945   5.526   1.641  3.9755 -3.3051 -0.0603
   81MOL0     H10662   5.090   5.497   1.432  0.5162 -2.3288 -0.8208
   81MOL0     H10663   5.010   5.347   1.408 -0.3185  1.5965 -2.2951
   81MOL0     H10664   5.189   5.425   1.647 -0.1235 -1.2800  2.0734
   81MOL0     H10665   5.105   5.271   1.622 -1.0715  0.3697 -0.1442
   81MOL0     H10666   5.312   5.365   1.423 -1.7487  0.3828  0.3143
   81MOL0     H10667   5.208   5.226   1.407 -0.1570 -0.3673  0.7774
   81MOL0     H10668   5.280   5.155   1.636 -1.3712 -0.4402 -1.9802
   81MOL0     H10669   5.430   5.250   1.608  1.4768 -1.7162  0.0896
   81MOL0     H10670   5.337   5.023   1.408  1.1047 -1.8246  1.0818
   81MOL0     H10671   5.485   5.110   1.411  1.2716 -1.4553  0.7066
   81MOL0     H10672   5.384   4.966   1.647  0.5586 -0.9638  0.1221
   81MOL0     H10673   5.557   5.004   1.592  0.3446 -1.2893  0.6304
   81MOL0     H10674   4.463   5.731   1.483  2.4645 -0.1844  1.3202
   81MOL0     H10675   4.240   5.623   1.454 -0.2079 -0.1878 -1.4238
   81MOL0     H10676   3.958   5.509   1.098 -2.3668  2.5236 -1.2853
   81MOL0     H10677   3.702   5.513   1.112 -0.6258  1.0624  0.2270
   81MOL0     H10678   1.956   5.976   1.708  0.2303  0.0809  2.9135
   81MOL0     H10679   1.709   6.007   1.665 -0.0350  1.7616  0.9897
   81MOL0     H10680   1.212   6.012   1.601 -0.7034  0.2004 -1.7234
   81MOL0     H10681   0.972   5.929   1.620  0.4589 -0.9019  1.2572
   81MOL0     H10682   0.810   5.825   1.561  0.1977 -2.5750 -2.0573
   81MOL0     H10683   0.835   5.807   1.741 -1.8148 -0.7561  0.6322
   81MOL0     H10684   0.696   5.582   1.601  2.5322  0.0716 -0.4673
   81MOL0     H10685   0.693   5.625   1.770 -1.0322 -0.8313 -0.5935
   81MOL0     H10686   0.540   5.753   1.540  0.2525 -0.9513  0.1650
   81MOL0     H10687   0.592   5.861   1.662 -0.4726 -1.0991  1.8726
   81MOL0     H10688   0.424   5.604   1.705  3.7245 -0.4779  0.1779
   81MOL0     H10689   0.462   5.726   1.831  0.1182  2.8237 -0.6639
   81MOL0     H10690   0.185   5.930   1.580  0.3949 -1.7266 -3.1937
   81MOL0     H10691   1.132   5.532   1.616  4.6047 -1.1030 -0.0746
   81MOL0     H10692   1.354   5.610   1.652 -1.0350 -0.3937  1.2401
   82MOL0     O10693  10.658   7.714   8.414  0.2863 -0.3535 -0.5534
   82MOL0     C10694  10.743   7.639   8.372  0.6584 -0.3624 -1.1851
   82MOL0     O10695  10.787   7.530   8.440 -0.0455 -0.9832  0.2181
   82MOL0     C10696  10.748   7.508   8.568  0.0400 -0.2487 -0.0255
   82MOL0     C10697  10.680   7.392   8.594  1.1628 -1.2535 -0.0420
   82MOL0     C10698  10.640   7.362   8.726  0.8262 -0.7215  0.3737
   82MOL0     C10699  10.652   7.458   8.835  1.0257  0.0545 -0.8966
   82MOL0     O10700  10.595   7.416   8.953  0.1533 -0.2924 -0.7887
   82MOL0     C10701  10.642   7.487   9.068 -0.4813  0.2902  1.4094
   82MOL0     C10702  10.571   7.447   9.186 -0.5951  0.1801 -0.1356
   82MOL0     C10703  10.586   7.307   9.227  0.0156 -0.6690  0.4345
   82MOL0     C10704  10.557   7.273   9.377  0.0070 -0.1987 -0.0676
   82MOL0     C10705  10.407   7.266   9.415 -0.3984  0.3392 -0.3028
   82MOL0     C10706  10.378   7.201   9.551  0.1672  0.6000  0.3050
   82MOL0     C10707  10.230   7.209   9.589 -0.2361 -0.7905  0.7708
   82MOL0     C10708  10.201   7.135   9.717  0.1964 -0.0613 -0.3895
   82MOL0     N10709  10.065   7.163   9.763  0.1537 -0.3692 -0.3750
   82MOL0     C10710   9.945   7.145   9.705  0.0705  0.6526  0.4173
   82MOL0     C10711   9.851   7.190   9.787  0.0622  0.1339 -0.9751
   82MOL0     C10712   9.708   7.186   9.755 -0.1229  0.0286  0.2173
   82MOL0     C10713   9.623   7.309   9.794  0.2274 -0.2662 -0.2063
   82MOL0     C10714   9.480   7.303   9.725  0.5703 -1.2827  0.5531
   82MOL0     C10715   9.382   7.419   9.764 -0.1771 -0.1859 -0.7903
   82MOL0     O10716   9.252   7.367   9.750  0.3624 -0.0900 -0.6136
   82MOL0     C10717   9.138   7.437   9.782  0.7630  0.2636 -0.0864
   82MOL0     C10718   9.138   7.556   9.859  0.7536 -0.0404 -0.1185
   82MOL0     C10719   9.016   7.623   9.897 -0.1043 -0.7326  0.3704
   82MOL0     C10720   8.894   7.573   9.853 -0.1718  0.4018 -0.1502
   82MOL0     C10721   8.770   7.657   9.866  1.1146  0.6724  0.1505
   82MOL0     O10722   8.655   7.587   9.825  0.0883 -0.7981  0.2830
   82MOL0     C10723   8.538   7.634   9.877 -0.6694  0.4682  0.0384
   82MOL0     C10724   8.457   7.546   9.957  0.2403 -0.2115 -0.1907
   82MOL0     C10725   8.332   7.585   9.999  0.8204 -0.5959  0.2693
   82MOL0     C10726   8.275   7.711   9.964  0.3561  0.7518  0.6764
   82MOL0     O10727   8.145   7.751   9.988  0.0090  0.0067  0.7905
   82MOL0     C10728   8.053   7.648   9.959  0.6562 -0.9299  0.7209
   82MOL0     C10729   7.906   7.689   9.967  0.2995 -0.3459  1.2070
   82MOL0     C10730   7.877   7.769  10.095  0.5823 -0.8406  0.5513
   82MOL0     C10731   7.723   7.799  10.078  0.0025 -0.2247  0.4000
   82MOL0     C10732   7.641   7.691  10.147  0.0438  0.7112  0.0719
   82MOL0     C10733   7.637   7.700  10.300  1.0101  0.5444 -0.2648
   82MOL0     C10734   7.519   7.636  10.362 -0.6546 -0.0934  0.5672
   82MOL0     C10735   7.514   7.672  10.517  0.2991 -0.6212  0.6625
   82MOL0    Cl10736   7.361   7.603  10.595  0.0612  0.5628  0.5837
   82MOL0     C10737   8.348   7.796   9.882  0.7979  0.2224 -0.0968
   82MOL0     C10738   8.484   7.757   9.843  0.3699 -0.0829 -0.1377
   82MOL0     O10739   8.775   7.760   9.932 -0.0698 -0.5568 -0.8020
   82MOL0     C10740   8.898   7.448   9.794  0.3071  0.6879 -0.3890
   82MOL0     C10741   9.015   7.381   9.753  0.3223  0.5817 -0.1157
   82MOL0     N10742   9.917   7.259   9.882  0.2492 -0.4873  0.3257
   82MOL0     N10743  10.047   7.224   9.881  0.1830  0.0726 -0.3333
   82MOL0     C10744  10.733   7.568   8.802 -1.2563  1.2108  0.7640
   82MOL0     C10745  10.782   7.593   8.669  0.3726 -0.6042  0.2882
   82MOL0     C10746  10.824   7.693   8.264 -0.5142  0.8619  0.3667
   82MOL0     C10747  10.773   7.794   8.187  0.7454 -0.1616 -1.2047
   82MOL0     C10748  10.842   7.826   8.066  0.5949  0.1291  0.4563
   82MOL0     C10749  10.946   7.745   8.013  0.5109 -1.0395  0.0533
   82MOL0     O10750  11.020   7.758   7.896 -0.3408 -1.0023  0.5697
   82MOL0     C10751  10.991   7.881   7.820 -0.2287 -0.8553 -0.1864
   82MOL0     C10752  10.858   7.867   7.742 -0.2855 -0.2254  0.0879
   82MOL0     C10753  10.829   8.005   7.686 -0.1157  0.0174 -0.2521
   82MOL0     C10754  10.685   8.046   7.659 -0.5188 -0.6786 -0.1940
   82MOL0     C10755  10.601   8.056   7.772 -0.2448  0.2995 -0.4671
   82MOL0     C10756  10.549   8.082   7.881  0.6452  0.0291  0.0564
   82MOL0     C10757  10.989   7.639   8.094 -0.0066 -0.2295  0.3203
   82MOL0     C10758  10.934   7.616   8.215 -0.3653 -0.7520 -0.1866
   82MOL0     H10759  10.649   7.326   8.514 -0.6819 -0.2544 -0.2284
   82MOL0     H10760  10.612   7.258   8.738  2.3275 -1.8808 -4.2154
   82MOL0     H10761  10.631   7.594   9.046 -0.9219  0.8611  4.1224
   82MOL0     H10762  10.750   7.475   9.076 -0.3428  0.3053 -0.0654
   82MOL0     H10763  10.462   7.456   9.176 -0.4310  3.0053 -0.0258
   82MOL0     H10764  10.596   7.513   9.269  2.1653  0.5120 -1.1372
   82MOL0     H10765  10.689   7.274   9.209  0.4562 -0.0781  1.7484
   82MOL0     H10766  10.531   7.243   9.158  2.4459 -1.4249 -0.9424
   82MOL0     H10767  10.600   7.175   9.396 -1.3854 -0.8302 -0.1022
   82MOL0     H10768  10.600   7.349   9.443 -2.1412  2.1618 -1.1740
   82MOL0     H10769  10.345   7.209   9.345 -0.7134 -0.6248  0.7352
   82MOL0     H10770  10.380   7.372   9.414  3.4936  1.5057  0.4059
   82MOL0     H10771  10.421   7.276   9.617  0.2502  3.1553 -2.4825
   82MOL0     H10772  10.422   7.102   9.565  0.2306  0.8476  2.1171
   82MOL0     H10773  10.192   7.311   9.601  1.5091  0.4965 -3.0134
   82MOL0     H10774  10.161   7.170   9.514 -0.2917  2.1886 -0.9098
   82MOL0     H10775  10.276   7.157   9.793  1.7226 -1.0220 -1.5495
   82MOL0     H10776  10.207   7.027   9.696 -2.9050 -0.7388  1.5761
   82MOL0     H10777   9.926   7.104   9.606  1.2304  1.6961 -0.2587
   82MOL0     H10778   9.661   7.095   9.794 -0.7159  1.9921  4.7021
   82MOL0     H10779   9.703   7.170   9.647 -0.3186  2.5422 -0.2071
   82MOL0     H10780   9.683   7.388   9.746 -0.5565  1.9041  2.1909
   82MOL0     H10781   9.623   7.320   9.902  2.8728 -0.7979 -0.0773
   82MOL0     H10782   9.501   7.308   9.617  0.0244  0.1815  0.4927
   82MOL0     H10783   9.427   7.211   9.749 -0.1068 -0.4845  2.2413
   82MOL0     H10784   9.398   7.511   9.706 -1.4690  1.1341  0.8275
   82MOL0     H10785   9.405   7.459   9.863 -0.6504 -0.6422 -0.4950
   82MOL0     H10786   9.230   7.607   9.884 -0.0827  2.1910 -1.2923
   82MOL0     H10787   9.015   7.722   9.941 -4.6293 -0.0851 -0.7071
   82MOL0     H10788   8.510   7.466  10.007  2.4392  1.9173  1.1332
   82MOL0     H10789   8.262   7.520  10.052  0.6445 -0.8078 -0.2225
   82MOL0     H10790   8.060   7.571  10.037 -1.3145  0.1512  2.0354
   82MOL0     H10791   8.076   7.619   9.856 -0.9649 -2.1588  0.6657
   82MOL0     H10792   7.837   7.606   9.952  0.4058 -0.1670 -0.4095
   82MOL0     H10793   7.890   7.761   9.886 -0.3475 -1.0687  0.6739
   82MOL0     H10794   7.938   7.859  10.090  1.4194 -1.4687 -3.0703
   82MOL0     H10795   7.896   7.699  10.178  0.5370 -0.8147  0.5833
   82MOL0     H10796   7.711   7.892  10.135  2.5185 -0.1442  0.9167
   82MOL0     H10797   7.690   7.814   9.975 -0.5616 -2.6479  0.1648
   82MOL0     H10798   7.660   7.589  10.113 -0.5012 -0.3814  2.7990
   82MOL0     H10799   7.536   7.714  10.125 -0.5776  0.3715  2.3707
   82MOL0     H10800   7.635   7.805  10.329  2.0716  0.5279 -0.0767
   82MOL0     H10801   7.722   7.640  10.335 -0.7249 -2.5674 -1.0346
   82MOL0     H10802   7.427   7.669  10.313  0.0087  0.6832 -0.1791
   82MOL0     H10803   7.523   7.529  10.340 -1.8003  0.3375 -2.0656
   82MOL0     H10804   7.511   7.782  10.514  2.0938 -0.5602 -0.4943
   82MOL0     H10805   7.602   7.635  10.570  2.1919  1.0425 -1.1219
   82MOL0     H10806   8.297   7.888   9.853  0.6089  0.8886  2.0897
   82MOL0     H10807   8.533   7.830   9.778  0.8684 -1.3565 -1.2397
   82MOL0     H10808   8.798   7.414   9.769 -0.5085 -1.3848  4.4769
   82MOL0     H10809   9.013   7.286   9.700 -0.9788  1.2025 -1.2309
   82MOL0     H10810  10.757   7.646   8.874 -0.4017 -0.0641  1.9297
   82MOL0     H10811  10.837   7.683   8.644  0.3202 -0.4069  0.8552
   82MOL0     H10812  10.683   7.849   8.212  0.5837 -0.0530 -2.0147
   82MOL0     H10813  10.807   7.911   8.008  0.1811 -2.7024 -3.9363
   82MOL0     H10814  11.070   7.889   7.745  0.6608 -2.4835  0.5192
   82MOL0     H10815  10.985   7.968   7.885 -3.5789 -0.4882 -0.8218
   82MOL0     H10816  10.858   7.787   7.668 -1.0392 -1.3999  1.3064
   82MOL0     H10817  10.779   7.835   7.811 -1.7828  1.7894 -0.6107
   82MOL0     H10818  10.886   8.007   7.592 -0.9684  0.2820 -0.7768
   82MOL0     H10819  10.876   8.075   7.755  2.6030 -0.0618 -1.8614
   82MOL0     H10820  10.684   8.139   7.601 -1.4968 -0.3788  0.2779
   82MOL0     H10821  10.648   7.972   7.587  0.9781 -0.2186 -1.4944
   82MOL0     H10822  10.519   8.109   7.980 -2.4420  0.1409 -0.7854
   82MOL0     H10823  11.075   7.578   8.069  1.7500  1.1458  2.5947
   82MOL0     H10824  10.965   7.522   8.260  0.6285 -0.5125 -0.3566
   83MOL0     O10825   3.335   0.059   1.933 -0.2288 -0.0097  0.0880
   83MOL0     C10826   3.420   0.133   1.877  0.7550 -0.0550 -0.9348
   83MOL0     O10827   3.426   0.156   1.737  0.0904  0.9044 -0.1924
   83MOL0     C10828   3.317   0.149   1.653  0.2552 -0.0756 -0.5821
   83MOL0     C10829   3.174   0.126   1.694 -1.2825 -0.6978  0.0241
   83MOL0     C10830   3.078   0.150   1.607  0.4964  0.0166  0.5178
   83MOL0     C10831   3.109   0.172   1.476  0.5966  0.1952  0.0109
   83MOL0     O10832   3.016   0.191   1.372 -0.3313 -0.0644  0.6668
   83MOL0     C10833   2.896   0.107   1.378  0.9506 -0.8374  1.1778
   83MOL0     C10834   2.772   0.188   1.423 -0.2256  0.2172  0.5829
   83MOL0     C10835   2.651   0.090   1.427 -0.0332 -0.7591  0.9003
   83MOL0     C10836   2.518   0.171   1.427  0.0597  1.5956  0.1561
   83MOL0     C10837   2.406   0.063   1.444  0.4357  0.4939  0.3871
   83MOL0     C10838   2.390  -0.044   1.326 -0.8990 -0.1844  0.4478
   83MOL0     C10839   2.241  -0.092   1.304 -0.3960 -1.0224  0.1129
   83MOL0     C10840   2.195  -0.173   1.421 -0.5935 -0.2073 -0.4760
   83MOL0     N10841   2.052  -0.209   1.424 -0.1456 -0.1236  0.3490
   83MOL0     C10842   1.943  -0.143   1.471  0.6885 -0.3699 -0.5366
   83MOL0     C10843   1.830  -0.217   1.437  0.4823 -0.5843  0.0666
   83MOL0     C10844   1.693  -0.188   1.484 -0.0298 -0.5122  0.2922
   83MOL0     C10845   1.583  -0.283   1.417 -0.5695  0.2485 -0.4893
   83MOL0     C10846   1.446  -0.266   1.465  0.1549  1.1781  0.2485
   83MOL0     C10847   1.352  -0.367   1.387 -0.4447 -0.5695  0.2186
   83MOL0     O10848   1.221  -0.329   1.416  0.7909  0.2078  0.2065
   83MOL0     C10849   1.114  -0.402   1.367 -0.2362 -0.6271 -0.0335
   83MOL0     C10850   0.981  -0.368   1.400  0.3589 -0.5416  0.3920
   83MOL0     C10851   0.873  -0.430   1.350  0.0954 -0.5976  0.4459
   83MOL0     C10852   0.879  -0.544   1.269 -0.4508 -0.1836 -0.2751
   83MOL0     C10853   0.755  -0.608   1.228 -0.4728 -0.6772 -0.7948
   83MOL0     O10854   0.630  -0.538   1.254  0.1057  0.1406 -0.3437
   83MOL0     C10855   0.501  -0.598   1.241 -0.9315 -1.1510 -0.1703
   83MOL0     C10856   0.403  -0.492   1.245 -0.5357  0.4721  0.1599
   83MOL0     C10857   0.268  -0.531   1.242 -0.2162 -0.1188  0.7679
   83MOL0     C10858   0.225  -0.661   1.245 -0.3431 -0.0571 -0.6663
   83MOL0     O10859   0.083  -0.691   1.239  0.2974 -0.3673 -0.0341
   83MOL0     C10860   0.038  -0.804   1.158 -0.1334 -0.8296  0.6809
   83MOL0     C10861  -0.115  -0.799   1.160  0.7958  0.3084 -0.2875
   83MOL0     C10862  -0.181  -0.910   1.090 -0.7478  0.3676 -0.5004
   83MOL0     C10863  -0.316  -0.953   1.149 -0.4145 -0.4368  0.4860
   83MOL0     C10864  -0.396  -1.057   1.067 -0.7537  0.4644 -0.5934
   83MOL0     C10865  -0.443  -0.987   0.935 -0.2348 -0.0141 -0.3300
   83MOL0     C10866  -0.496  -1.089   0.839  0.7586  0.1574  0.7768
   83MOL0     C10867  -0.592  -1.041   0.730 -0.3647 -0.1441 -0.3272
   83MOL0    Cl10868  -0.757  -0.979   0.800 -0.1456 -0.1375 -0.1499
   83MOL0     C10869   0.327  -0.764   1.243  0.6934 -0.1926 -0.3880
   83MOL0     C10870   0.463  -0.734   1.238 -0.8466 -0.7733  0.0158
   83MOL0     O10871   0.759  -0.709   1.165  0.0230  0.2129  0.3798
   83MOL0     C10872   1.009  -0.586   1.240 -0.1343 -0.8941  0.0788
   83MOL0     C10873   1.123  -0.512   1.281 -0.4251  0.0572  0.3858
   83MOL0     N10874   1.876  -0.328   1.368  0.3258  0.0666 -0.9665
   83MOL0     N10875   2.006  -0.318   1.363 -0.4869  0.3842  0.9539
   83MOL0     C10876   3.236   0.175   1.424 -0.7764  0.1541 -0.3327
   83MOL0     C10877   3.345   0.164   1.515 -0.0419  0.0967 -0.6832
   83MOL0     C10878   3.545   0.164   1.946 -0.2144 -0.2817  0.0385
   83MOL0     C10879   3.543   0.146   2.086 -0.0403 -0.8889 -0.2429
   83MOL0     C10880   3.660   0.164   2.165  0.3602  0.5892  0.0593
   83MOL0     C10881   3.780   0.193   2.099 -0.1679  0.5497  0.0663
   83MOL0     O10882   3.891   0.209   2.179  0.6494 -0.1528 -0.2788
   83MOL0     C10883   4.020   0.182   2.106 -0.4837  0.8078 -0.2395
   83MOL0     C10884   4.137   0.180   2.203 -0.4518  0.2929 -0.1595
   83MOL0     C10885   4.200   0.039   2.216 -0.7487 -0.7923  0.6642
   83MOL0     C10886   4.315   0.050   2.319  0.5902 -0.1431  0.2953
   83MOL0     C10887   4.273   0.046   2.464 -0.8190 -0.4672 -0.1578
   83MOL0     C10888   4.235   0.053   2.583  1.0061  0.2089  0.0069
   83MOL0     C10889   3.783   0.206   1.954 -1.0742  0.8651 -0.2026
   83MOL0     C10890   3.664   0.193   1.878  0.8483 -0.3748  0.0245
   83MOL0     H10891   3.146   0.119   1.799  0.5505 -1.9249  0.4720
   83MOL0     H10892   2.977   0.132   1.642  0.5722 -0.4780  0.4804
   83MOL0     H10893   2.909   0.017   1.440  3.6523 -2.2464 -1.2014
   83MOL0     H10894   2.879   0.078   1.274  1.4127 -0.4325  0.9841
   83MOL0     H10895   2.749   0.274   1.359  0.4390  1.5682  2.0946
   83MOL0     H10896   2.798   0.214   1.526 -0.6101  1.2163  0.4322
   83MOL0     H10897   2.664   0.037   1.522 -2.8046 -1.0516  1.2045
   83MOL0     H10898   2.657   0.019   1.344 -1.9682 -2.2690  1.9602
   83MOL0     H10899   2.507   0.240   1.510 -2.5557  1.0835  0.3041
   83MOL0     H10900   2.506   0.210   1.325 -0.2499 -1.4475 -1.0767
   83MOL0     H10901   2.304   0.102   1.458 -1.1230 -1.5101 -3.7562
   83MOL0     H10902   2.431   0.007   1.534 -0.5173 -0.3487  0.1471
   83MOL0     H10903   2.462  -0.127   1.328 -1.9066 -1.1530 -1.0294
   83MOL0     H10904   2.423   0.009   1.237  1.3657 -0.7747  0.8845
   83MOL0     H10905   2.182  -0.000   1.298 -0.3703 -0.9277  1.0999
   83MOL0     H10906   2.237  -0.156   1.215  4.5515 -0.8562 -0.5056
   83MOL0     H10907   2.216  -0.125   1.517  1.1828 -2.4769  0.3704
   83MOL0     H10908   2.259  -0.262   1.426 -2.4141 -1.5793 -0.8409
   83MOL0     H10909   1.935  -0.053   1.531 -0.3494  0.2841 -1.5942
   83MOL0     H10910   1.673  -0.084   1.456  0.9865 -0.7687 -1.5241
   83MOL0     H10911   1.693  -0.196   1.593  0.0227  5.2174  1.0012
   83MOL0     H10912   1.610  -0.388   1.427 -0.5667  0.4090  1.5678
   83MOL0     H10913   1.585  -0.264   1.309 -4.3309  1.2135 -0.5446
   83MOL0     H10914   1.445  -0.290   1.572 -0.3062  0.4703  0.0898
   83MOL0     H10915   1.412  -0.163   1.450 -1.1314  0.9685  1.4554
   83MOL0     H10916   1.368  -0.474   1.400 -2.9660 -1.3935 -2.3386
   83MOL0     H10917   1.371  -0.359   1.279  0.3362 -2.0927  0.2156
   83MOL0     H10918   0.971  -0.289   1.474 -0.9386 -1.8226  1.6317
   83MOL0     H10919   0.776  -0.400   1.390 -0.1849 -1.3827  0.3685
   83MOL0     H10920   0.435  -0.389   1.257 -1.5968  1.0527 -1.6393
   83MOL0     H10921   0.190  -0.455   1.238  2.0032  2.2578 -1.3235
   83MOL0     H10922   0.072  -0.901   1.195 -2.7390 -3.0819 -2.3553
   83MOL0     H10923   0.073  -0.792   1.055  1.0697  3.3531  1.3561
   83MOL0     H10924  -0.157  -0.712   1.109 -1.5650 -0.7430 -0.2414
   83MOL0     H10925  -0.142  -0.811   1.265 -0.3889  0.1962 -0.5891
   83MOL0     H10926  -0.128  -1.004   1.104 -1.8522 -0.2353 -0.2465
   83MOL0     H10927  -0.180  -0.895   0.982 -0.8634 -0.9069 -0.6866
   83MOL0     H10928  -0.311  -0.983   1.254 -0.3010  1.4616  1.0519
   83MOL0     H10929  -0.378  -0.863   1.148  0.5114  0.2326  1.3686
   83MOL0     H10930  -0.480  -1.088   1.130 -0.8918  0.6375 -0.6919
   83MOL0     H10931  -0.323  -1.136   1.046 -1.3523  0.4476 -2.8438
   83MOL0     H10932  -0.356  -0.942   0.886 -0.0914 -1.3781 -1.3790
   83MOL0     H10933  -0.523  -0.917   0.962 -1.9416 -2.6400  1.9720
   83MOL0     H10934  -0.410  -1.140   0.795  2.0832  0.7214  2.5669
   83MOL0     H10935  -0.560  -1.153   0.901 -1.9913  2.5346  0.5703
   83MOL0     H10936  -0.609  -1.126   0.663 -1.8235  1.3693 -1.9776
   83MOL0     H10937  -0.544  -0.959   0.675  1.5959 -1.2525 -0.3608
   83MOL0     H10938   0.298  -0.869   1.251 -0.6669  0.2612  1.1458
   83MOL0     H10939   0.529  -0.820   1.230  0.4201  0.0840  0.8486
   83MOL0     H10940   1.026  -0.678   1.184 -1.5641 -1.5533  0.6799
   83MOL0     H10941   1.222  -0.546   1.249  0.1702  0.8783  1.3038
   83MOL0     H10942   3.260   0.186   1.319  0.7413  0.7505  0.0540
   83MOL0     H10943   3.447   0.155   1.478  0.4198  0.3712  0.4843
   83MOL0     H10944   3.453   0.127   2.144  0.0248  3.5620  1.7398
   83MOL0     H10945   3.667   0.150   2.272  0.7872  2.7401  0.3483
   83MOL0     H10946   4.037   0.261   2.032 -1.4186  0.6128 -0.6725
   83MOL0     H10947   4.017   0.083   2.061  3.7734 -0.0448  0.8404
   83MOL0     H10948   4.208   0.257   2.173 -0.9841 -0.1576 -2.7636
   83MOL0     H10949   4.112   0.217   2.303  3.1941  2.7980  0.0289
   83MOL0     H10950   4.228  -0.003   2.118  3.0435 -2.9968  2.4342
   83MOL0     H10951   4.119  -0.029   2.243 -3.2947  0.9511 -2.0067
   83MOL0     H10952   4.378  -0.039   2.307 -0.8267 -1.0191 -0.9876
   83MOL0     H10953   4.380   0.133   2.289  1.8071 -0.4180  1.9928
   83MOL0     H10954   4.184   0.059   2.678  1.0848  1.6166 -0.0203
   83MOL0     H10955   3.878   0.235   1.910  0.4902 -2.8438  0.3703
   83MOL0     H10956   3.654   0.206   1.771  1.8576  1.8470  0.1516
   84MOL0     O10957   3.440   2.242   1.489  0.6785 -0.6866 -0.1400
   84MOL0     C10958   3.539   2.251   1.414  0.0681 -0.7137  0.3254
   84MOL0     O10959   3.559   2.353   1.329 -0.1410 -0.0885 -1.1916
   84MOL0     C10960   3.476   2.470   1.337 -0.0170  0.4426  0.1533
   84MOL0     C10961   3.341   2.470   1.381 -0.5254 -0.9960  0.0015
   84MOL0     C10962   3.277   2.599   1.394  1.1412  0.4060  0.2366
   84MOL0     C10963   3.348   2.714   1.358  0.4575  0.0685 -0.5015
   84MOL0     O10964   3.286   2.832   1.362  0.6041  0.5278  0.4498
   84MOL0     C10965   3.147   2.836   1.312  0.4210 -0.0996 -0.3416
   84MOL0     C10966   3.136   2.811   1.156 -0.7456  0.3169  0.4985
   84MOL0     C10967   2.990   2.812   1.099 -0.8107  0.7278 -0.2386
   84MOL0     C10968   2.921   2.953   1.097  0.8859  0.9030 -0.1761
   84MOL0     C10969   2.775   2.935   1.063 -0.4076 -0.5246  0.1275
   84MOL0     C10970   2.678   3.062   1.097 -0.5275  0.2813 -1.1467
   84MOL0     C10971   2.537   3.044   1.056  0.2243 -0.5061 -0.6523
   84MOL0     C10972   2.469   3.176   1.092  0.1744 -0.4744 -0.1845
   84MOL0     N10973   2.347   3.205   1.014  1.1723  0.7389 -0.3468
   84MOL0     C10974   2.224   3.225   1.067 -0.2592 -0.5851 -0.4311
   84MOL0     C10975   2.140   3.256   0.965 -1.3324  0.2702  0.7086
   84MOL0     C10976   1.989   3.273   0.988  0.2998 -0.9302 -0.0248
   84MOL0     C10977   1.909   3.156   0.927 -0.0456  1.2327  0.8958
   84MOL0     C10978   1.759   3.164   0.964 -0.0988 -0.7175  0.5330
   84MOL0     C10979   1.663   3.089   0.878 -0.0118  0.1223 -0.3580
   84MOL0     O10980   1.576   2.995   0.939  0.1553  0.8711  0.3488
   84MOL0     C10981   1.463   3.028   1.010  0.1694 -0.1118 -0.2855
   84MOL0     C10982   1.401   3.149   1.038  0.3696  0.0903  0.6513
   84MOL0     C10983   1.283   3.149   1.117  0.6005 -0.2209 -0.6541
   84MOL0     C10984   1.222   3.038   1.172 -0.2125 -0.6511 -0.4657
   84MOL0     C10985   1.096   3.048   1.259  0.0877 -0.0750  0.5218
   84MOL0     O10986   1.061   3.170   1.293  0.2739  0.0020 -0.7444
   84MOL0     C10987   0.995   3.166   1.415 -0.3212  0.0782  0.2187
   84MOL0     C10988   0.860   3.128   1.418  0.2646  0.8424 -0.6753
   84MOL0     C10989   0.800   3.136   1.554 -0.1730  0.1276 -0.3613
   84MOL0     C10990   0.868   3.180   1.672  0.0969 -0.3214 -0.1226
   84MOL0     O10991   0.809   3.195   1.800 -0.5600 -0.7809 -0.1593
   84MOL0     C10992   0.713   3.091   1.829 -0.3618 -0.4318 -0.2910
   84MOL0     C10993   0.589   3.159   1.905 -1.3471 -0.1138 -0.0743
   84MOL0     C10994   0.499   3.236   1.814 -0.7578 -0.8236 -0.6940
   84MOL0     C10995   0.423   3.133   1.729  0.2937 -0.1965 -1.0933
   84MOL0     C10996   0.293   3.197   1.672 -1.0024  0.2640 -0.0821
   84MOL0     C10997   0.217   3.093   1.598 -0.1563 -0.1222  0.4203
   84MOL0     C10998   0.290   3.028   1.469 -0.3972  0.6158  0.6846
   84MOL0     C10999   0.310   3.140   1.366 -0.6533 -0.5996  0.8427
   84MOL0    Cl11000   0.468   3.235   1.397 -0.2409 -0.1711 -0.4329
   84MOL0     C11001   0.998   3.232   1.655  0.4036 -0.2180  0.2234
   84MOL0     C11002   1.067   3.223   1.526  0.8492  0.1155 -0.8367
   84MOL0     O11003   1.054   2.942   1.313 -0.0349  0.3345  0.5768
   84MOL0     C11004   1.281   2.921   1.138  0.2494 -0.9251  0.2953
   84MOL0     C11005   1.403   2.921   1.065 -0.6125  1.0154  0.4503
   84MOL0     N11006   2.209   3.271   0.850 -0.4585 -0.0059  0.6940
   84MOL0     N11007   2.326   3.228   0.878 -1.6380  0.2895 -0.0141
   84MOL0     C11008   3.480   2.713   1.316  0.1324 -0.8135  0.4783
   84MOL0     C11009   3.537   2.589   1.306 -1.3292  0.0165 -0.3963
   84MOL0     C11010   3.641   2.139   1.430  0.0777  0.2584 -0.2536
   84MOL0     C11011   3.746   2.122   1.335  0.1935  0.6065  0.1485
   84MOL0     C11012   3.839   2.017   1.363 -0.3569 -0.1698  0.0692
   84MOL0     C11013   3.826   1.934   1.473 -0.0438  1.0998 -0.4933
   84MOL0     O11014   3.895   1.823   1.496 -0.1683  0.6332  0.2510
   84MOL0     C11015   3.970   1.768   1.383  0.1905 -0.6020 -0.0433
   84MOL0     C11016   4.026   1.628   1.411 -0.5846 -0.5925 -0.1113
   84MOL0     C11017   3.922   1.524   1.447 -0.0844  0.0258 -0.5922
   84MOL0     C11018   3.836   1.488   1.327  0.1917  0.5176 -0.3292
   84MOL0     C11019   3.746   1.375   1.351 -0.3877  0.4466 -0.4648
   84MOL0     C11020   3.658   1.297   1.362  0.2335  0.2243  0.0185
   84MOL0     C11021   3.729   1.959   1.563  0.0646  0.5841 -0.1788
   84MOL0     C11022   3.639   2.066   1.553 -0.4238 -0.3146 -0.0338
   84MOL0     H11023   3.287   2.383   1.417 -1.0054 -1.7738 -2.3899
   84MOL0     H11024   3.170   2.591   1.412  1.3576  0.2228  1.5919
   84MOL0     H11025   3.118   2.940   1.331  0.0262 -0.3737  0.5883
   84MOL0     H11026   3.089   2.765   1.372 -1.1100 -2.2784 -4.0483
   84MOL0     H11027   3.163   2.707   1.136 -3.5961 -0.4997  0.4152
   84MOL0     H11028   3.200   2.875   1.095  1.0974 -0.9225  1.0374
   84MOL0     H11029   2.922   2.740   1.146 -1.3061 -0.0781 -2.0849
   84MOL0     H11030   2.982   2.802   0.991 -3.3398  3.9635 -0.5241
   84MOL0     H11031   2.942   3.008   1.189 -0.7988  1.1471  0.1013
   84MOL0     H11032   2.959   3.018   1.018 -0.3681 -1.6527 -3.1238
   84MOL0     H11033   2.737   2.851   1.122  1.5818 -0.8575  1.0034
   84MOL0     H11034   2.767   2.916   0.955  0.8339 -1.0889  0.1150
   84MOL0     H11035   2.724   3.150   1.053 -1.8658  1.1068 -0.9526
   84MOL0     H11036   2.685   3.081   1.204  4.1260 -2.5026 -0.6656
   84MOL0     H11037   2.536   3.023   0.949  3.3800 -3.4311 -0.3025
   84MOL0     H11038   2.478   2.970   1.109  2.2755 -0.2376  2.2616
   84MOL0     H11039   2.531   3.259   1.059 -0.6288  0.7077  1.1536
   84MOL0     H11040   2.447   3.178   1.199  1.7408  0.0039  0.1597
   84MOL0     H11041   2.200   3.199   1.170  1.0134 -3.2671 -0.7176
   84MOL0     H11042   1.948   3.365   0.945 -2.3901 -0.7005  2.6713
   84MOL0     H11043   1.977   3.287   1.096 -0.3428  1.3878 -0.3360
   84MOL0     H11044   1.948   3.057   0.952 -1.9980 -0.3071 -1.6967
   84MOL0     H11045   1.922   3.151   0.818 -0.7518  0.6105  0.8341
   84MOL0     H11046   1.763   3.126   1.067  0.7821 -1.1334  0.3555
   84MOL0     H11047   1.728   3.269   0.970 -3.3486 -1.5761  0.5731
   84MOL0     H11048   1.730   3.036   0.809  0.2938 -3.2919  2.3130
   84MOL0     H11049   1.607   3.158   0.814  1.4005  0.2031 -1.5759
   84MOL0     H11050   1.427   3.241   0.988  0.7604 -0.5360 -0.3429
   84MOL0     H11051   1.241   3.245   1.144  1.8337 -0.2256  1.5258
   84MOL0     H11052   0.813   3.093   1.327  3.1181 -0.5714 -1.7199
   84MOL0     H11053   0.697   3.104   1.555 -0.5719  1.3077 -1.0389
   84MOL0     H11054   0.751   3.021   1.903 -1.9870 -2.0944 -0.9686
   84MOL0     H11055   0.677   3.022   1.753 -0.1954  0.7120 -1.4526
   84MOL0     H11056   0.626   3.237   1.973  3.6021 -0.7204 -1.6776
   84MOL0     H11057   0.536   3.085   1.964 -0.6858  1.2658  2.4216
   84MOL0     H11058   0.568   3.302   1.760  2.0572 -2.7362  0.3046
   84MOL0     H11059   0.426   3.287   1.878 -2.1186 -1.0016 -2.0458
   84MOL0     H11060   0.484   3.105   1.643 -1.2099 -0.0174 -2.2648
   84MOL0     H11061   0.404   3.041   1.786  0.2495  0.6488  0.3149
   84MOL0     H11062   0.312   3.281   1.605  0.6783 -0.4515 -0.5511
   84MOL0     H11063   0.227   3.229   1.753  0.0386  1.4161  0.3454
   84MOL0     H11064   0.132   3.152   1.560  1.1242  2.6801  1.6543
   84MOL0     H11065   0.172   3.019   1.665 -1.1832 -0.4220 -0.5512
   84MOL0     H11066   0.387   2.980   1.487 -0.2880  0.4994 -0.1573
   84MOL0     H11067   0.233   2.952   1.416 -0.6429  1.8566 -0.9235
   84MOL0     H11068   0.232   3.216   1.378  0.7020  0.8891  0.6038
   84MOL0     H11069   0.310   3.095   1.266  1.5844 -1.0240  0.9771
   84MOL0     H11070   1.067   3.263   1.734  2.1097  0.3665 -1.4131
   84MOL0     H11071   1.168   3.263   1.515  0.4715  1.3612 -0.0737
   84MOL0     H11072   1.230   2.826   1.152  1.2479 -1.5902 -0.4382
   84MOL0     H11073   1.460   2.829   1.059  0.4139  1.6633  0.0607
   84MOL0     H11074   3.539   2.789   1.264 -0.4701 -2.1144 -2.2891
   84MOL0     H11075   3.642   2.592   1.280 -0.7320  2.7507  1.8395
   84MOL0     H11076   3.750   2.181   1.244  0.7498 -1.0998 -0.9865
   84MOL0     H11077   3.913   1.995   1.287 -0.0948 -1.9641  0.8032
   84MOL0     H11078   4.054   1.837   1.369 -0.5582  0.7101  1.5987
   84MOL0     H11079   3.909   1.773   1.292 -0.7468  1.7903  0.6597
   84MOL0     H11080   4.083   1.595   1.323  0.5874 -0.7486  0.6863
   84MOL0     H11081   4.098   1.645   1.492 -0.4926  1.1826 -0.5295
   84MOL0     H11082   3.856   1.561   1.526  1.3850 -0.7872  1.0924
   84MOL0     H11083   3.960   1.425   1.478  0.0227 -0.2679 -1.6361
   84MOL0     H11084   3.772   1.573   1.300  2.0091  1.4555 -1.9586
   84MOL0     H11085   3.906   1.458   1.248 -0.4299 -0.7554 -0.4238
   84MOL0     H11086   3.580   1.229   1.387  1.0278 -1.0414 -0.7984
   84MOL0     H11087   3.731   1.901   1.654 -0.6852  0.6901 -0.0855
   84MOL0     H11088   3.557   2.072   1.623 -1.3244 -2.5037 -0.8191
   85MOL0     O11089   2.809   8.690   4.334 -0.4680  0.1691  0.3638
   85MOL0     C11090   2.900   8.637   4.393 -0.4975 -0.1810 -0.1751
   85MOL0     O11091   2.879   8.547   4.492  0.0867 -1.1742 -0.0013
   85MOL0     C11092   2.746   8.521   4.523  0.4826 -0.4828  0.0865
   85MOL0     C11093   2.687   8.415   4.465  0.2567  1.2276 -1.0643
   85MOL0     C11094   2.556   8.372   4.495  0.6196 -0.8521 -0.8096
   85MOL0     C11095   2.475   8.454   4.583  0.9990 -0.6669 -0.0657
   85MOL0     O11096   2.348   8.406   4.615 -0.3686  0.0542  0.2618
   85MOL0     C11097   2.287   8.420   4.740  0.1343  0.6422 -0.4546
   85MOL0     C11098   2.134   8.439   4.748 -0.4065  0.3688  0.7205
   85MOL0     C11099   2.063   8.313   4.697  0.3054  0.3249  0.3919
   85MOL0     C11100   1.907   8.326   4.698 -0.1677 -0.1588  0.6100
   85MOL0     C11101   1.841   8.200   4.639 -0.2988  0.7749  0.4279
   85MOL0     C11102   1.691   8.229   4.607 -0.3802  0.1377  0.3395
   85MOL0     C11103   1.639   8.122   4.502 -0.3439  0.2420 -0.0473
   85MOL0     C11104   1.536   8.171   4.405 -0.4353 -0.4084  0.5189
   85MOL0     N11105   1.427   8.219   4.485 -0.0627 -0.4042 -0.6500
   85MOL0     C11106   1.417   8.348   4.544 -0.8925 -0.1031  0.1393
   85MOL0     C11107   1.294   8.355   4.599  0.7433 -0.8260  0.0896
   85MOL0     C11108   1.236   8.482   4.663 -0.5573 -0.7373  0.8020
   85MOL0     C11109   1.177   8.472   4.798  0.0076  0.0890 -0.5540
   85MOL0     C11110   1.253   8.389   4.892 -0.9625  0.1696 -0.0596
   85MOL0     C11111   1.181   8.411   5.032  0.5232 -0.2397  0.2024
   85MOL0     O11112   1.264   8.387   5.146 -1.0718  0.4409 -0.2894
   85MOL0     C11113   1.221   8.457   5.255  0.2073 -1.1068  0.7904
   85MOL0     C11114   1.260   8.587   5.282  0.8248 -0.1250 -0.1067
   85MOL0     C11115   1.212   8.653   5.396 -0.0647 -0.5491 -0.3083
   85MOL0     C11116   1.125   8.589   5.493 -0.5254  0.8518 -0.1027
   85MOL0     C11117   1.078   8.647   5.619  0.5172  0.3245 -0.5958
   85MOL0     O11118   0.995   8.571   5.697 -0.1805 -0.2270 -0.1947
   85MOL0     C11119   0.949   8.632   5.806 -1.0772  0.0812  0.9430
   85MOL0     C11120   1.042   8.647   5.910  0.0417 -0.0721  0.1890
   85MOL0     C11121   1.007   8.692   6.037 -0.1397  0.4062 -0.5648
   85MOL0     C11122   0.868   8.734   6.046 -0.4666  0.1413  0.0822
   85MOL0     O11123   0.806   8.768   6.160 -0.3081  1.0068  0.2108
   85MOL0     C11124   0.895   8.793   6.278 -0.2783 -0.9287  0.1325
   85MOL0     C11125   0.813   8.858   6.391 -0.3796 -0.0731  1.0559
   85MOL0     C11126   0.730   8.978   6.353  0.2780 -0.0328 -0.3742
   85MOL0     C11127   0.581   8.967   6.404  0.3480  0.2146  0.0107
   85MOL0     C11128   0.504   9.091   6.414  0.2396 -0.2270  0.6941
   85MOL0     C11129   0.462   9.164   6.281 -0.8870  0.3134  0.3589
   85MOL0     C11130   0.419   9.076   6.159 -0.4734 -0.2274  0.3994
   85MOL0     C11131   0.271   9.061   6.132  0.2513 -0.6662  0.7951
   85MOL0    Cl11132   0.216   8.993   6.273 -0.6093  0.3424 -0.1256
   85MOL0     C11133   0.773   8.727   5.939 -1.1172  0.2254 -0.6922
   85MOL0     C11134   0.822   8.672   5.819  0.2050 -0.5470  0.2061
   85MOL0     O11135   1.124   8.758   5.649  0.6221 -0.0973  0.3531
   85MOL0     C11136   1.086   8.456   5.463  0.0172 -0.8100  1.0487
   85MOL0     C11137   1.134   8.397   5.347  0.3598 -0.0311 -0.3932
   85MOL0     N11138   1.231   8.237   4.569 -0.0896  0.1333 -0.3112
   85MOL0     N11139   1.312   8.153   4.506  1.1083  0.2500  0.5303
   85MOL0     C11140   2.539   8.568   4.644  0.0211 -0.0665 -0.0933
   85MOL0     C11141   2.670   8.596   4.602 -0.5472 -0.1045 -0.4447
   85MOL0     C11142   3.038   8.679   4.361  0.0205 -0.1939  0.1873
   85MOL0     C11143   3.143   8.630   4.440 -1.3675  1.2050  1.0569
   85MOL0     C11144   3.278   8.666   4.410  1.4146  0.1664 -0.3836
   85MOL0     C11145   3.304   8.740   4.293 -0.3213 -0.0471 -0.0665
   85MOL0     O11146   3.431   8.789   4.251  0.0302 -0.0606  0.3503
   85MOL0     C11147   3.539   8.725   4.311 -0.8096 -0.4606 -0.1547
   85MOL0     C11148   3.560   8.603   4.222 -0.4108  0.0373 -0.1795
   85MOL0     C11149   3.702   8.558   4.240  0.4353 -0.4783 -0.5164
   85MOL0     C11150   3.738   8.461   4.134  0.0407  0.5190 -0.0470
   85MOL0     C11151   3.747   8.508   3.992 -0.1639  0.0201  0.0638
   85MOL0     C11152   3.726   8.531   3.875 -0.5478 -0.2070 -0.5601
   85MOL0     C11153   3.192   8.798   4.217  0.8409  0.1003 -1.0851
   85MOL0     C11154   3.064   8.767   4.256  0.8197 -0.5248 -0.7982
   85MOL0     H11155   2.740   8.369   4.382  2.0525  2.6591 -0.7769
   85MOL0     H11156   2.508   8.289   4.443  3.1847 -3.4864  0.7731
   85MOL0     H11157   2.338   8.500   4.794  2.9817 -1.5524  0.3597
   85MOL0     H11158   2.307   8.327   4.794  1.1891  0.4034 -1.2262
   85MOL0     H11159   2.102   8.535   4.706  0.6254 -0.0592 -1.1225
   85MOL0     H11160   2.118   8.439   4.856  0.5215  2.1858  0.8909
   85MOL0     H11161   2.093   8.235   4.767 -0.3196 -0.4048 -0.1341
   85MOL0     H11162   2.101   8.279   4.600 -1.3940 -2.0675  0.4756
   85MOL0     H11163   1.861   8.346   4.796  0.5905 -3.1098  1.6580
   85MOL0     H11164   1.893   8.414   4.635 -0.9240 -1.4029 -1.0171
   85MOL0     H11165   1.850   8.128   4.721 -2.6694  1.2820  1.2127
   85MOL0     H11166   1.895   8.172   4.548 -0.7652  1.3417 -0.0326
   85MOL0     H11167   1.695   8.330   4.566  0.6236 -0.0894 -0.1492
   85MOL0     H11168   1.630   8.232   4.698 -0.7813  1.5066  0.0419
   85MOL0     H11169   1.724   8.083   4.445 -0.9111 -0.8849 -0.1543
   85MOL0     H11170   1.591   8.043   4.560  0.0552  2.0602  2.9906
   85MOL0     H11171   1.506   8.087   4.340 -0.6813 -0.3928  0.6105
   85MOL0     H11172   1.567   8.252   4.339 -1.3590  0.2528  0.8691
   85MOL0     H11173   1.495   8.423   4.531  0.8395 -1.5887  1.3673
   85MOL0     H11174   1.164   8.523   4.592  0.4569 -0.9552 -0.3874
   85MOL0     H11175   1.312   8.560   4.672 -2.8605  1.9182 -1.1074
   85MOL0     H11176   1.084   8.417   4.778  0.9092 -1.1642 -1.5123
   85MOL0     H11177   1.159   8.568   4.847  0.4075 -0.6697  1.1501
   85MOL0     H11178   1.249   8.284   4.862 -2.5978  0.0308  0.5710
   85MOL0     H11179   1.355   8.426   4.909  0.1135 -2.7574  0.5716
   85MOL0     H11180   1.086   8.357   5.035  0.5978 -0.3418  2.6243
   85MOL0     H11181   1.148   8.515   5.041 -0.0347 -0.5928  3.3016
   85MOL0     H11182   1.341   8.625   5.220  1.0592 -1.2230 -0.5090
   85MOL0     H11183   1.241   8.757   5.406 -0.6310 -0.1822 -2.1846
   85MOL0     H11184   1.140   8.607   5.889 -1.0395 -1.5516 -2.6191
   85MOL0     H11185   1.073   8.690   6.124 -1.4777  4.1336  0.7445
   85MOL0     H11186   0.978   8.856   6.245 -1.8373  0.6682 -0.9745
   85MOL0     H11187   0.930   8.697   6.317 -1.5783 -0.8268  1.6287
   85MOL0     H11188   0.885   8.893   6.466 -0.7959  1.6067  0.7223
   85MOL0     H11189   0.745   8.788   6.439 -1.8175  1.8361  1.9537
   85MOL0     H11190   0.730   8.991   6.244  1.0030 -1.2184 -0.5378
   85MOL0     H11191   0.770   9.068   6.400  1.3874  0.8225 -2.7828
   85MOL0     H11192   0.535   8.889   6.342  0.9147 -0.7519  0.7859
   85MOL0     H11193   0.583   8.915   6.500 -1.9565  0.4691  0.2626
   85MOL0     H11194   0.557   9.161   6.479 -2.1259 -0.2169  2.7758
   85MOL0     H11195   0.410   9.076   6.468  0.0399  0.7740  0.6383
   85MOL0     H11196   0.549   9.220   6.244  0.4108 -2.0041 -0.3202
   85MOL0     H11197   0.385   9.237   6.306 -1.9079 -1.1238  1.6356
   85MOL0     H11198   0.458   9.123   6.069 -3.4280 -1.9862 -2.0064
   85MOL0     H11199   0.470   8.979   6.165 -1.0284 -0.4523  2.2678
   85MOL0     H11200   0.263   8.995   6.045  0.6565 -0.5976  0.7038
   85MOL0     H11201   0.219   9.156   6.119 -2.5299 -2.1573  0.3178
   85MOL0     H11202   0.669   8.755   5.950 -1.7270  0.6444 -5.2724
   85MOL0     H11203   0.744   8.657   5.746 -0.6319  1.0200  0.7181
   85MOL0     H11204   1.024   8.398   5.530 -0.4848  0.3783  1.6531
   85MOL0     H11205   1.105   8.292   5.339 -0.9632  0.3386 -0.6268
   85MOL0     H11206   2.492   8.631   4.720  1.8197 -0.0122  1.0429
   85MOL0     H11207   2.718   8.687   4.636 -0.6291  1.1504 -3.4097
   85MOL0     H11208   3.117   8.573   4.529  0.9857  0.9122  1.6222
   85MOL0     H11209   3.343   8.643   4.493  1.2831  1.8035  0.1978
   85MOL0     H11210   3.531   8.708   4.418 -0.4176 -3.1911 -0.4858
   85MOL0     H11211   3.614   8.801   4.286  0.2050 -0.3466  2.8476
   85MOL0     H11212   3.496   8.519   4.251 -0.2835 -0.9411 -2.5463
   85MOL0     H11213   3.545   8.627   4.117  0.8516  0.2547 -0.3328
   85MOL0     H11214   3.716   8.507   4.336 -0.7832  0.5128  0.2161
   85MOL0     H11215   3.775   8.640   4.243 -0.0192 -0.0445  2.8656
   85MOL0     H11216   3.833   8.412   4.156  0.0352 -0.1237 -1.3440
   85MOL0     H11217   3.665   8.381   4.148  1.7497 -0.8135  1.7111
   85MOL0     H11218   3.718   8.559   3.772 -1.6711  1.2791 -0.0978
   85MOL0     H11219   3.225   8.864   4.137  1.2792  0.4221 -0.6448
   85MOL0     H11220   2.992   8.827   4.203 -0.8645  1.0141  2.8812
   86MOL0     O11221   7.177  10.722   9.674  0.1493 -0.6270  0.1098
   86MOL0     C11222   7.112  10.715   9.567 -0.3391  0.5780  0.8817
   86MOL0     O11223   7.015  10.798   9.522  0.4099 -0.1713 -0.5323
   86MOL0     C11224   6.923  10.874   9.600  0.7491  0.7852 -1.0183
   86MOL0     C11225   6.833  10.969   9.542  0.8893  1.1625 -0.8098
   86MOL0     C11226   6.740  11.043   9.621  0.7997 -0.0688  0.2728
   86MOL0     C11227   6.734  11.028   9.756  0.9626 -0.3708  0.0543
   86MOL0     O11228   6.654  11.102   9.845  0.4821  0.0402 -0.6859
   86MOL0     C11229   6.701  11.154   9.971  0.0004 -0.2413  0.4352
   86MOL0     C11230   6.618  11.078  10.085 -0.4001  0.8005  1.7464
   86MOL0     C11231   6.464  11.073  10.051  0.6936  0.0939  0.3190
   86MOL0     C11232   6.401  11.208  10.027 -0.6638 -0.1347  0.2758
   86MOL0     C11233   6.261  11.184   9.983  0.0197  0.0568 -0.8229
   86MOL0     C11234   6.184  11.298   9.912  0.0678 -0.1868 -0.0304
   86MOL0     C11235   6.063  11.233   9.849 -0.0683 -0.5606 -0.2377
   86MOL0     C11236   6.049  11.236   9.700 -0.2539 -0.1431  0.1001
   86MOL0     N11237   6.139  11.148   9.638 -0.8838 -0.5526 -0.0057
   86MOL0     C11238   6.183  11.023   9.676  0.2735 -0.4640 -0.3284
   86MOL0     C11239   6.250  10.987   9.571  0.1326  0.0921 -0.4362
   86MOL0     C11240   6.304  10.843   9.556  0.0720 -0.1463  0.4990
   86MOL0     C11241   6.438  10.815   9.631  0.0591 -0.1617 -0.0144
   86MOL0     C11242   6.488  10.672   9.624 -0.5209 -0.3337  0.0655
   86MOL0     C11243   6.626  10.658   9.707 -0.0946  0.7052 -0.2781
   86MOL0     O11244   6.611  10.677   9.847 -0.5652  0.3506 -0.2047
   86MOL0     C11245   6.707  10.630   9.935  0.1894 -0.3116  0.8124
   86MOL0     C11246   6.835  10.574   9.900  1.0969  0.1937 -0.8163
   86MOL0     C11247   6.913  10.525  10.006 -0.4294 -0.1588 -0.2660
   86MOL0     C11248   6.879  10.532  10.147  0.5581  0.5990  0.5237
   86MOL0     C11249   6.965  10.463  10.248  0.0901  0.1685  0.0171
   86MOL0     O11250   7.081  10.396  10.193  0.1046  0.6674 -0.2451
   86MOL0     C11251   7.181  10.349  10.277 -0.6550  0.2538  0.2935
   86MOL0     C11252   7.167  10.297  10.411  0.2715 -0.3013 -0.6574
   86MOL0     C11253   7.272  10.280  10.490 -0.1170 -0.4092  0.1306
   86MOL0     C11254   7.405  10.289  10.444  0.6873  0.9307 -0.3606
   86MOL0     O11255   7.509  10.262  10.538  0.6196 -0.6310 -0.4132
   86MOL0     C11256   7.634  10.327  10.516 -0.0478 -0.3750  0.4147
   86MOL0     C11257   7.722  10.339  10.638  0.0879 -0.0423  0.0997
   86MOL0     C11258   7.697  10.477  10.704  0.7121  0.6767  0.5809
   86MOL0     C11259   7.740  10.472  10.855 -0.5817 -0.0991  0.0515
   86MOL0     C11260   7.726  10.610  10.916  0.0421 -0.5546 -0.0927
   86MOL0     C11261   7.705  10.623  11.068 -1.0801  0.7639 -0.7525
   86MOL0     C11262   7.571  10.577  11.119  0.0123  0.5619 -0.4704
   86MOL0     C11263   7.478  10.694  11.136  0.5840  0.4190 -0.8003
   86MOL0    Cl11264   7.306  10.637  11.124 -0.1465  0.1543 -0.3356
   86MOL0     C11265   7.421  10.333  10.308 -0.9465  0.6269 -0.4542
   86MOL0     C11266   7.309  10.359  10.224 -0.9838  0.0653  0.4425
   86MOL0     O11267   6.946  10.485  10.368  0.6047 -0.2138 -0.2535
   86MOL0     C11268   6.753  10.589  10.171 -0.2048  0.7025 -0.3472
   86MOL0     C11269   6.675  10.643  10.066 -0.2743  1.4721 -0.5938
   86MOL0     N11270   6.260  11.079   9.467 -0.3421 -0.7257 -0.0968
   86MOL0     N11271   6.184  11.178   9.512 -0.6291  0.1460 -0.0301
   86MOL0     C11272   6.821  10.934   9.818  0.7737  0.2151  0.0296
   86MOL0     C11273   6.920  10.857   9.746  0.2739 -0.5435  0.7868
   86MOL0     C11274   7.155  10.619   9.467 -0.9437 -0.0636  0.0865
   86MOL0     C11275   7.058  10.585   9.374  1.1195  0.0537 -0.5737
   86MOL0     C11276   7.088  10.477   9.281  0.9805 -0.0174 -0.7584
   86MOL0     C11277   7.207  10.407   9.288  0.3954  0.4988 -0.2008
   86MOL0     O11278   7.213  10.315   9.190 -0.3479 -0.3250  0.7907
   86MOL0     C11279   7.326  10.225   9.175  0.0321  0.0996 -0.4752
   86MOL0     C11280   7.434  10.298   9.099  0.5663  0.0402  1.0313
   86MOL0     C11281   7.554  10.210   9.069  0.3471 -0.5280  0.4137
   86MOL0     C11282   7.678  10.300   9.043  0.7426 -0.4338  0.2744
   86MOL0     C11283   7.808  10.239   9.064  0.1462 -0.3723  0.9160
   86MOL0     C11284   7.901  10.154   9.078  0.3150 -0.0546 -0.6292
   86MOL0     C11285   7.301  10.443   9.384 -0.0550 -0.2601 -0.3006
   86MOL0     C11286   7.272  10.544   9.484 -0.5748  0.4459  0.0760
   86MOL0     H11287   6.835  10.965   9.434 -0.2833  1.5117 -0.8528
   86MOL0     H11288   6.666  11.111   9.581 -0.5670 -0.9736  1.1784
   86MOL0     H11289   6.665  11.257   9.971 -3.0116 -1.1447 -1.2573
   86MOL0     H11290   6.808  11.133   9.978 -0.1550 -1.6168 -0.7574
   86MOL0     H11291   6.620  11.137  10.177 -0.6640  1.2293  1.4767
   86MOL0     H11292   6.665  10.983  10.112 -1.4146  0.6687  3.1909
   86MOL0     H11293   6.411  11.022  10.131  2.7294 -0.0708  1.6372
   86MOL0     H11294   6.438  11.011   9.964 -1.4158  2.3199 -0.7663
   86MOL0     H11295   6.418  11.265  10.119 -3.0696 -1.4285  1.6185
   86MOL0     H11296   6.450  11.251   9.940  1.4146 -2.5068  0.1805
   86MOL0     H11297   6.207  11.155  10.074 -0.5863  0.2599 -1.1103
   86MOL0     H11298   6.256  11.102   9.911 -0.3400  1.7124 -2.7729
   86MOL0     H11299   6.251  11.323   9.830  0.0023 -1.4585 -0.4991
   86MOL0     H11300   6.150  11.372   9.985 -2.3831  0.1364 -1.3893
   86MOL0     H11301   6.050  11.132   9.888  0.1520 -0.7161 -0.5635
   86MOL0     H11302   5.982  11.289   9.896  0.5850  2.1693 -2.1166
   86MOL0     H11303   6.059  11.337   9.659 -2.0433 -0.3092 -0.8729
   86MOL0     H11304   5.949  11.195   9.680 -1.1811  1.3616  1.3899
   86MOL0     H11305   6.168  10.967   9.767 -0.2629 -2.2616 -1.4551
   86MOL0     H11306   6.319  10.817   9.451 -2.9851  1.1336 -0.3705
   86MOL0     H11307   6.237  10.771   9.603  1.4034 -1.0742  1.0489
   86MOL0     H11308   6.425  10.855   9.732 -1.8100 -1.2630  0.2270
   86MOL0     H11309   6.517  10.876   9.586  0.8755  0.3260  2.0015
   86MOL0     H11310   6.405  10.613   9.665 -0.4987  1.1689  2.4175
   86MOL0     H11311   6.503  10.637   9.521 -1.2513  1.2420 -0.6284
   86MOL0     H11312   6.706  10.730   9.684 -0.4616  1.7217  1.4314
   86MOL0     H11313   6.654  10.553   9.692 -1.8406  0.6009 -4.0261
   86MOL0     H11314   6.866  10.573   9.796 -0.0805 -1.8218 -1.2077
   86MOL0     H11315   7.003  10.482   9.963 -0.9811 -0.7833 -0.8352
   86MOL0     H11316   7.073  10.276  10.461  0.2090 -0.7869 -0.9680
   86MOL0     H11317   7.253  10.238  10.588 -2.0273  0.3714  0.1311
   86MOL0     H11318   7.623  10.426  10.471 -1.2749 -0.8857 -0.4794
   86MOL0     H11319   7.690  10.276  10.437 -1.7196  0.2868 -1.2889
   86MOL0     H11320   7.828  10.337  10.613 -0.1586  1.4424 -1.2700
   86MOL0     H11321   7.707  10.244  10.689  0.5726 -1.5372 -2.3840
   86MOL0     H11322   7.590  10.495  10.715  0.3054 -0.8101 -0.5635
   86MOL0     H11323   7.751  10.553  10.647  1.4222  1.6152  2.4205
   86MOL0     H11324   7.671  10.408  10.911  0.8694 -1.8403 -0.0532
   86MOL0     H11325   7.847  10.452  10.867 -0.6058 -0.6564 -0.6226
   86MOL0     H11326   7.651  10.668  10.862  1.2856  0.7222 -0.5157
   86MOL0     H11327   7.815  10.662  10.880 -0.3233 -0.4337 -0.8464
   86MOL0     H11328   7.728  10.726  11.092 -1.1133  0.3013  1.4219
   86MOL0     H11329   7.779  10.561  11.119 -1.1339  1.4796  0.2003
   86MOL0     H11330   7.519  10.516  11.044 -0.4415 -1.1008  1.1260
   86MOL0     H11331   7.589  10.527  11.215  1.6657  0.1783 -0.9520
   86MOL0     H11332   7.496  10.775  11.064  0.2339  1.3961  0.1904
   86MOL0     H11333   7.495  10.737  11.235  1.5213  2.2174 -1.6737
   86MOL0     H11334   7.524  10.330  10.275 -1.0302 -3.5973 -0.8412
   86MOL0     H11335   7.334  10.397  10.126  1.2443 -0.0519  0.9157
   86MOL0     H11336   6.717  10.589  10.274 -0.4290 -0.3067 -0.4156
   86MOL0     H11337   6.586  10.695  10.100 -0.8721  0.2125 -0.1493
   86MOL0     H11338   6.823  10.932   9.926 -0.1334  0.2127  0.0509
   86MOL0     H11339   6.985  10.781   9.789  2.2407  1.0792  0.8245
   86MOL0     H11340   6.963  10.637   9.372  0.6192 -0.8071  0.2004
   86MOL0     H11341   7.021  10.460   9.197  2.8164  1.6168 -2.6812
   86MOL0     H11342   7.304  10.136   9.115  3.2613  0.5221 -2.4950
   86MOL0     H11343   7.356  10.188   9.273  1.6291  0.9208 -0.6279
   86MOL0     H11344   7.385  10.332   9.007  1.0038  0.3058  0.8944
   86MOL0     H11345   7.466  10.381   9.162 -0.3970  0.4445  1.0099
   86MOL0     H11346   7.543  10.147   8.980 -1.3331  0.4032 -0.0682
   86MOL0     H11347   7.585  10.144   9.151 -0.3273 -0.3415  0.8243
   86MOL0     H11348   7.656  10.323   8.938 -1.3004  0.1634  0.7894
   86MOL0     H11349   7.661  10.379   9.117 -0.9552 -1.3795  0.9561
   86MOL0     H11350   7.983  10.086   9.084  0.5558  0.3886  2.7396
   86MOL0     H11351   7.390  10.382   9.396 -0.4814 -0.6763  0.9284
   86MOL0     H11352   7.340  10.568   9.566 -1.1666  1.1048  0.3824
   87MOL0     O11353   9.069   5.636   0.434  0.1064  0.6626  0.2912
   87MOL0     C11354   9.148   5.680   0.344 -0.0864  0.2883 -0.7981
   87MOL0     O11355   9.110   5.749   0.226  0.0786 -0.0415 -0.1243
   87MOL0     C11356   8.980   5.800   0.208 -0.8488 -0.7253  0.5883
   87MOL0     C11357   8.942   5.839   0.078 -0.1598  0.5868 -0.3638
   87MOL0     C11358   8.816   5.858   0.038  0.1940  0.3346  0.1661
   87MOL0     C11359   8.716   5.864   0.132  0.0890  0.1012 -0.2554
   87MOL0     O11360   8.586   5.895   0.085  0.4455 -0.2694 -0.2706
   87MOL0     C11361   8.562   6.031   0.038  0.3680  0.2713  0.4721
   87MOL0     C11362   8.440   6.027  -0.043 -0.3621  0.5771 -0.3928
   87MOL0     C11363   8.408   6.170  -0.087  0.0342 -0.0595  0.5515
   87MOL0     C11364   8.304   6.176  -0.201 -0.2199  1.0431  0.0695
   87MOL0     C11365   8.174   6.159  -0.135  0.8097  0.6213 -0.1411
   87MOL0     C11366   8.054   6.158  -0.226 -0.0908 -0.5515  0.0389
   87MOL0     C11367   7.929   6.113  -0.145 -0.2824  0.2018  0.4547
   87MOL0     C11368   7.784   6.174  -0.194  0.2384  1.6760 -0.5472
   87MOL0     N11369   7.725   6.098  -0.301  0.8215  0.6933 -0.5034
   87MOL0     C11370   7.776   6.103  -0.427  0.1015 -0.5289 -0.1660
   87MOL0     C11371   7.683   6.048  -0.505  0.4815  0.9299 -0.5780
   87MOL0     C11372   7.709   6.037  -0.655  0.3760  0.2727 -0.3135
   87MOL0     C11373   7.599   6.111  -0.739 -0.2224  0.0401 -0.6480
   87MOL0     C11374   7.453   6.076  -0.712 -0.0597  1.3867 -0.9266
   87MOL0     C11375   7.365   6.172  -0.796  0.0280 -0.5742 -0.3753
   87MOL0     O11376   7.240   6.101  -0.790 -0.1207  0.6782 -0.0104
   87MOL0     C11377   7.133   6.163  -0.840  0.6162  0.2819  0.0874
   87MOL0     C11378   7.119   6.304  -0.850 -0.4091  0.2256 -0.4269
   87MOL0     C11379   7.004   6.364  -0.913 -0.6775  0.4490  0.6318
   87MOL0     C11380   6.899   6.277  -0.957 -0.3035 -0.3330  0.8136
   87MOL0     C11381   6.774   6.335  -1.015 -0.2098  0.0316  1.0268
   87MOL0     O11382   6.689   6.244  -1.062  0.8497 -0.1967 -0.2950
   87MOL0     C11383   6.557   6.272  -1.088 -0.0243 -0.2543  0.1779
   87MOL0     C11384   6.516   6.240  -1.214  0.1559  0.0835 -0.3000
   87MOL0     C11385   6.378   6.259  -1.250 -0.9161  0.2201  0.8142
   87MOL0     C11386   6.284   6.296  -1.157  0.8803 -0.0992  0.1196
   87MOL0     O11387   6.151   6.309  -1.184 -0.1783  0.3801  0.4221
   87MOL0     C11388   6.078   6.288  -1.304 -0.1700  0.7289 -0.4782
   87MOL0     C11389   6.100   6.419  -1.386 -0.2290  0.5157 -1.2370
   87MOL0     C11390   6.011   6.422  -1.511 -0.0124 -0.1826  0.6554
   87MOL0     C11391   5.991   6.564  -1.572  0.1598 -0.1613 -0.1235
   87MOL0     C11392   6.122   6.616  -1.637 -0.1689  0.2884  0.7537
   87MOL0     C11393   6.119   6.769  -1.677  0.3052 -0.2195  0.6565
   87MOL0     C11394   6.242   6.811  -1.746  1.1704 -0.8190 -0.3138
   87MOL0     C11395   6.377   6.803  -1.681 -0.2918 -0.0172  0.7943
   87MOL0    Cl11396   6.386   6.955  -1.582 -0.1659  0.0806  0.2721
   87MOL0     C11397   6.328   6.339  -1.033 -0.2453  0.2850 -1.2115
   87MOL0     C11398   6.462   6.338  -1.003 -0.3972  0.0164 -0.5170
   87MOL0     O11399   6.757   6.455  -1.023 -0.0602 -0.3396  0.3414
   87MOL0     C11400   6.919   6.142  -0.941  0.1900 -0.2525  0.1304
   87MOL0     C11401   7.035   6.086  -0.886  0.0206 -0.2149 -0.2178
   87MOL0     N11402   7.577   5.997  -0.423  0.2822 -0.1388 -0.4873
   87MOL0     N11403   7.614   6.019  -0.296 -0.5370 -0.2166  0.3139
   87MOL0     C11404   8.747   5.847   0.268 -1.0216  0.2453 -0.6822
   87MOL0     C11405   8.874   5.808   0.301  0.2044  0.2234  0.2881
   87MOL0     C11406   9.294   5.648   0.359 -0.5693  0.2100 -0.5738
   87MOL0     C11407   9.394   5.674   0.265  0.7948 -0.3569  0.5043
   87MOL0     C11408   9.522   5.657   0.284  0.2016 -0.9449  0.1996
   87MOL0     C11409   9.573   5.607   0.406  0.8060 -0.8307 -0.3899
   87MOL0     O11410   9.698   5.573   0.432 -1.0664 -0.1840 -0.1435
   87MOL0     C11411   9.802   5.626   0.349 -0.4232 -1.0304 -0.0239
   87MOL0     C11412   9.936   5.587   0.415 -0.0371 -0.8546  0.0373
   87MOL0     C11413  10.052   5.573   0.320  0.3013 -0.0563  0.7206
   87MOL0     C11414  10.168   5.483   0.376  0.8386  0.0745  0.2074
   87MOL0     C11415  10.202   5.512   0.519  0.1546  0.1305 -0.7917
   87MOL0     C11416  10.235   5.504   0.634  0.3163 -1.3152 -0.2823
   87MOL0     C11417   9.475   5.583   0.504 -1.5732  0.6583  0.1795
   87MOL0     C11418   9.340   5.603   0.486  1.0429 -0.2287 -0.1751
   87MOL0     H11419   9.015   5.837  -0.002  0.3790  0.0245  0.1283
   87MOL0     H11420   8.806   5.878  -0.068  2.7981 -1.1784 -0.4790
   87MOL0     H11421   8.642   6.062  -0.030  1.3367 -1.2601  0.8557
   87MOL0     H11422   8.555   6.104   0.119 -3.0697 -0.6951  1.2124
   87MOL0     H11423   8.356   5.983   0.011 -0.4135  1.1511  0.0092
   87MOL0     H11424   8.455   5.965  -0.132 -1.0407 -0.9162  0.5129
   87MOL0     H11425   8.499   6.217  -0.126  0.6322 -0.5447  1.3483
   87MOL0     H11426   8.368   6.214   0.004 -1.2942 -0.2029  0.0544
   87MOL0     H11427   8.311   6.271  -0.255 -0.1238 -1.2056 -4.3219
   87MOL0     H11428   8.317   6.089  -0.265 -1.9551  0.4803  0.4229
   87MOL0     H11429   8.151   6.242  -0.067 -1.0537  0.5632 -0.6410
   87MOL0     H11430   8.177   6.065  -0.079  0.2857 -0.2680 -1.5626
   87MOL0     H11431   8.067   6.091  -0.312  1.3689 -2.0795  1.3635
   87MOL0     H11432   8.034   6.259  -0.262 -1.3986 -0.4695  0.9518
   87MOL0     H11433   7.926   6.003  -0.138 -0.6839  0.2955  2.1183
   87MOL0     H11434   7.941   6.154  -0.045  0.0622  0.8719  0.1413
   87MOL0     H11435   7.785   6.278  -0.228 -1.3179  1.6500 -0.7604
   87MOL0     H11436   7.729   6.167  -0.100 -0.3177  3.1897 -0.7312
   87MOL0     H11437   7.869   6.145  -0.463  1.2374 -1.6630  1.3073
   87MOL0     H11438   7.718   5.932  -0.685  0.1277  0.3738 -0.7652
   87MOL0     H11439   7.809   6.075  -0.675  1.1014 -1.7193 -0.7445
   87MOL0     H11440   7.631   6.083  -0.840  2.4156 -1.5466  0.5254
   87MOL0     H11441   7.599   6.220  -0.726 -1.5377  0.0404 -0.5384
   87MOL0     H11442   7.424   5.976  -0.746 -1.0208  0.9994  0.8917
   87MOL0     H11443   7.424   6.086  -0.607  2.4301  1.5922 -0.1920
   87MOL0     H11444   7.402   6.182  -0.898  1.7500  0.5231  0.3187
   87MOL0     H11445   7.371   6.269  -0.746  1.2548  0.1056 -1.7786
   87MOL0     H11446   7.192   6.365  -0.798 -0.7581 -1.8546  2.7856
   87MOL0     H11447   6.996   6.471  -0.926  1.8766  0.3716 -3.2198
   87MOL0     H11448   6.582   6.207  -1.293  0.6942  0.9492 -0.2281
   87MOL0     H11449   6.356   6.239  -1.354  1.1373  2.4748 -0.1515
   87MOL0     H11450   5.972   6.265  -1.291 -0.2284 -1.1732 -3.4610
   87MOL0     H11451   6.118   6.204  -1.360  1.2053  0.4295  0.8983
   87MOL0     H11452   6.207   6.434  -1.406 -0.1634  1.8284 -0.0629
   87MOL0     H11453   6.080   6.495  -1.310  2.2554  0.2340 -0.1796
   87MOL0     H11454   5.911   6.392  -1.476  0.8250  0.5391  4.0534
   87MOL0     H11455   6.044   6.359  -1.594  0.1070  2.8096 -1.7516
   87MOL0     H11456   5.925   6.544  -1.657  1.2221  0.0509 -1.0082
   87MOL0     H11457   5.949   6.630  -1.495 -2.0563 -0.7950 -0.6970
   87MOL0     H11458   6.136   6.566  -1.734 -0.7456  0.6881  0.4561
   87MOL0     H11459   6.203   6.593  -1.568  0.3199 -0.9193 -0.1994
   87MOL0     H11460   6.083   6.834  -1.596 -1.7262 -1.4805  0.8260
   87MOL0     H11461   6.045   6.782  -1.756  1.5817 -1.3947 -0.7969
   87MOL0     H11462   6.232   6.746  -1.833 -2.2656  0.4021 -1.0185
   87MOL0     H11463   6.237   6.912  -1.787 -0.7587 -1.1296 -0.9472
   87MOL0     H11464   6.460   6.794  -1.752 -0.3892  1.2852  0.5004
   87MOL0     H11465   6.367   6.704  -1.635 -3.3045 -0.4637 -0.5979
   87MOL0     H11466   6.264   6.396  -0.967  3.5422  1.7100  1.6127
   87MOL0     H11467   6.501   6.373  -0.908  0.7158  0.9851 -1.2979
   87MOL0     H11468   6.840   6.070  -0.959  1.2462 -1.1668 -1.0496
   87MOL0     H11469   7.043   5.978  -0.882  0.3794 -0.3866 -3.1516
   87MOL0     H11470   8.663   5.861   0.335 -0.8541 -3.1637  0.4197
   87MOL0     H11471   8.903   5.793   0.405  2.5612  1.5943 -0.0991
   87MOL0     H11472   9.364   5.719   0.171  0.2935  0.4479  1.0454
   87MOL0     H11473   9.601   5.671   0.210 -0.9011  0.7632 -0.7423
   87MOL0     H11474   9.794   5.734   0.337 -1.9763 -1.2546 -1.3492
   87MOL0     H11475   9.801   5.591   0.245 -1.2267  2.6683 -1.4215
   87MOL0     H11476   9.961   5.662   0.491  3.1485 -1.9006  0.1529
   87MOL0     H11477   9.926   5.494   0.472  0.4796  0.6726  2.8329
   87MOL0     H11478  10.084   5.678   0.308 -1.6864  0.8280  2.5260
   87MOL0     H11479  10.032   5.548   0.216  0.5938  1.9857  0.1315
   87MOL0     H11480  10.142   5.377   0.366  1.8040 -0.0567 -1.3020
   87MOL0     H11481  10.262   5.496   0.322  0.6115 -0.7329 -0.3980
   87MOL0     H11482  10.257   5.471   0.734 -2.6829 -2.2012  0.1888
   87MOL0     H11483   9.501   5.532   0.596 -3.4935 -1.6217 -0.4325
   87MOL0     H11484   9.264   5.585   0.561 -1.3781 -0.5428 -2.5381
   88MOL0     O11485   7.805   0.023  10.938 -0.3580  1.3482 -0.3710
   88MOL0     C11486   7.906  -0.052  10.938  0.0932 -0.3219  1.1487
   88MOL0     O11487   7.951  -0.110  11.046  0.0283 -0.8209  0.3202
   88MOL0     C11488   7.888  -0.088  11.174 -0.9099  0.1722  0.1649
   88MOL0     C11489   7.806  -0.192  11.210 -0.9173  0.2704  0.1605
   88MOL0     C11490   7.745  -0.204  11.332  1.0043 -0.4388 -0.3372
   88MOL0     C11491   7.763  -0.095  11.437 -0.1952 -0.1337 -0.2763
   88MOL0     O11492   7.704  -0.084  11.556  0.2201  0.5009 -0.6319
   88MOL0     C11493   7.575  -0.144  11.564  0.5858  0.3558 -0.5785
   88MOL0     C11494   7.515  -0.087  11.693 -0.5676 -0.1355  0.7775
   88MOL0     C11495   7.456   0.065  11.669  0.6781  0.0535 -0.6773
   88MOL0     C11496   7.403   0.145  11.783 -0.9840  0.6278 -0.2752
   88MOL0     C11497   7.254   0.140  11.796 -0.5468  0.0207 -0.8613
   88MOL0     C11498   7.219   0.252  11.903 -0.2169 -0.1257 -0.8875
   88MOL0     C11499   7.066   0.255  11.940  0.6987 -0.7456  0.0275
   88MOL0     C11500   6.997   0.367  11.863  0.2657 -0.3765  0.8008
   88MOL0     N11501   6.854   0.355  11.859  0.9149  0.4550  0.4501
   88MOL0     C11502   6.768   0.453  11.808  1.1912  0.0280  0.1758
   88MOL0     C11503   6.641   0.401  11.823  0.6843  0.5693  0.0558
   88MOL0     C11504   6.520   0.455  11.759  0.2167 -0.2493 -0.2606
   88MOL0     C11505   6.446   0.541  11.860 -0.3681 -0.5477  0.3230
   88MOL0     C11506   6.399   0.478  11.992  0.7483  0.3777 -0.2266
   88MOL0     C11507   6.324   0.346  11.980  0.1696 -0.4789  0.5419
   88MOL0     O11508   6.221   0.356  11.889  0.6704  0.4255 -0.0466
   88MOL0     C11509   6.100   0.392  11.936  0.5425 -0.4403 -0.6521
   88MOL0     C11510   6.026   0.318  12.028  0.2801 -1.1330 -0.2463
   88MOL0     C11511   5.905   0.357  12.077 -0.6152 -0.0229  0.1098
   88MOL0     C11512   5.850   0.471  12.019 -0.2063 -0.1006  0.3028
   88MOL0     C11513   5.725   0.510  12.058  0.1559 -0.5170  0.1329
   88MOL0     O11514   5.691   0.640  12.037  0.5573 -0.4702  0.1190
   88MOL0     C11515   5.558   0.678  12.044  0.2950 -0.5020 -0.5732
   88MOL0     C11516   5.481   0.684  12.155 -0.0927  0.0113  0.2462
   88MOL0     C11517   5.345   0.731  12.142 -0.0785 -0.2461 -0.0597
   88MOL0     C11518   5.299   0.785  12.024  0.9426  0.2016  0.7495
   88MOL0     O11519   5.175   0.845  12.017  0.0293 -0.2494 -0.1317
   88MOL0     C11520   5.129   0.913  12.130  0.3433 -0.0574 -0.3147
   88MOL0     C11521   5.010   1.009  12.094  0.6733  0.3787  0.2076
   88MOL0     C11522   4.885   0.930  12.097  0.1683 -0.2620 -1.2560
   88MOL0     C11523   4.774   1.026  12.146 -0.0147  0.1624  0.0581
   88MOL0     C11524   4.636   0.975  12.125  0.6699 -0.2941  0.1704
   88MOL0     C11525   4.538   1.079  12.193 -0.0311  0.4181  0.8814
   88MOL0     C11526   4.389   1.029  12.155 -0.0173  0.2961  0.8530
   88MOL0     C11527   4.290   1.068  12.269 -0.5302 -0.2794  1.0519
   88MOL0    Cl11528   4.286   1.244  12.301 -0.0200 -0.4223  0.0654
   88MOL0     C11529   5.382   0.785  11.911  0.4865 -0.0474  0.2611
   88MOL0     C11530   5.511   0.730  11.926  0.3659  0.4872 -0.3798
   88MOL0     O11531   5.649   0.429  12.099  0.0479 -0.6171  0.1794
   88MOL0     C11532   5.912   0.549  11.923 -0.9640 -0.2138  0.3000
   88MOL0     C11533   6.043   0.507  11.879 -0.0169 -0.7318 -0.7860
   88MOL0     N11534   6.653   0.287  11.903  0.6167  0.1723  0.9404
   88MOL0     N11535   6.777   0.262  11.922 -0.5643 -0.2937  0.3600
   88MOL0     C11536   7.854   0.009  11.403  0.1801 -0.0522  0.4467
   88MOL0     C11537   7.910   0.016  11.265 -0.2518  0.3636 -1.8585
   88MOL0     C11538   7.969  -0.076  10.803  0.1102 -0.2039  0.3466
   88MOL0     C11539   8.081  -0.157  10.785 -0.0635 -0.3555 -0.2759
   88MOL0     C11540   8.149  -0.160  10.662  0.6156  0.1899 -0.1272
   88MOL0     C11541   8.106  -0.083  10.549 -0.1507  0.0868 -0.2813
   88MOL0     O11542   8.161  -0.074  10.423 -0.1365  0.4272  0.0640
   88MOL0     C11543   8.288  -0.135  10.404 -0.2444 -0.3833  1.3908
   88MOL0     C11544   8.414  -0.059  10.460  0.9569  0.5996  0.4996
   88MOL0     C11545   8.423   0.077  10.392  0.4608  0.1050 -0.5514
   88MOL0     C11546   8.552   0.137  10.440  0.4660  0.2099 -0.6918
   88MOL0     C11547   8.532   0.192  10.577 -0.5661 -0.0390 -0.2321
   88MOL0     C11548   8.516   0.247  10.686  0.3191  0.3002  0.5068
   88MOL0     C11549   7.983  -0.006  10.571  0.9226 -0.3602  0.0903
   88MOL0     C11550   7.918  -0.007  10.690  0.5175  0.7073 -0.2702
   88MOL0     H11551   7.805  -0.272  11.136 -3.1211  0.9887 -0.6607
   88MOL0     H11552   7.688  -0.292  11.360  1.5132  0.0544  2.5748
   88MOL0     H11553   7.577  -0.251  11.585 -2.9136  0.5716  1.6480
   88MOL0     H11554   7.518  -0.118  11.475  2.9426  0.9713 -2.0065
   88MOL0     H11555   7.598  -0.088  11.763  3.4652 -2.3295 -3.4397
   88MOL0     H11556   7.432  -0.149  11.728 -0.6654  1.2054  3.1102
   88MOL0     H11557   7.385   0.071  11.587  0.0931 -0.9783 -0.2702
   88MOL0     H11558   7.545   0.118  11.635  0.7360  1.0437  0.8814
   88MOL0     H11559   7.445   0.105  11.876 -0.5123  1.6570 -0.0260
   88MOL0     H11560   7.436   0.247  11.763  2.1916 -0.1909  0.1749
   88MOL0     H11561   7.226   0.049  11.850 -3.1022  1.2429  0.0542
   88MOL0     H11562   7.194   0.137  11.705  0.7885  0.1699 -1.7657
   88MOL0     H11563   7.240   0.355  11.872  3.8711 -0.3035  0.6427
   88MOL0     H11564   7.279   0.230  11.991 -1.7429  1.9283  0.7490
   88MOL0     H11565   7.023   0.154  11.934 -2.2419  0.1470  2.8548
   88MOL0     H11566   7.063   0.282  12.046 -0.8880  0.1099 -0.1926
   88MOL0     H11567   7.037   0.380  11.762  0.2500  2.0461  1.0630
   88MOL0     H11568   7.025   0.463  11.908 -0.4333  1.5164 -2.4855
   88MOL0     H11569   6.792   0.534  11.740 -2.8196  0.7225 -0.6834
   88MOL0     H11570   6.455   0.372  11.731  2.6101 -2.3243 -0.0358
   88MOL0     H11571   6.552   0.514  11.672 -1.5802  1.4706  0.1883
   88MOL0     H11572   6.356   0.587  11.817 -0.9385  0.9234  2.8617
   88MOL0     H11573   6.511   0.621  11.896 -1.3185 -0.1140  1.1207
   88MOL0     H11574   6.478   0.473  12.068  0.1275  0.8328  0.4601
   88MOL0     H11575   6.325   0.551  12.026 -1.4108 -0.9208 -1.9301
   88MOL0     H11576   6.285   0.319  12.079 -0.5972 -0.2269  0.3197
   88MOL0     H11577   6.387   0.264  11.946  2.7066  0.8269  1.8246
   88MOL0     H11578   6.063   0.221  12.058  2.8270 -1.1846 -3.0734
   88MOL0     H11579   5.862   0.287  12.148  2.6594 -1.3508  0.9921
   88MOL0     H11580   5.526   0.646  12.246  1.3709  4.2702  1.5053
   88MOL0     H11581   5.288   0.737  12.234 -2.3404  2.2275 -1.4980
   88MOL0     H11582   5.209   0.982  12.159  0.9654 -0.6244 -0.6416
   88MOL0     H11583   5.103   0.841  12.208  0.1707  0.8953  0.5251
   88MOL0     H11584   5.031   1.055  11.997  1.3633  1.2343  0.7452
   88MOL0     H11585   5.004   1.088  12.169  0.0594  1.4775 -0.9490
   88MOL0     H11586   4.896   0.849  12.170 -0.0385  1.0985  0.3554
   88MOL0     H11587   4.867   0.890  11.997 -0.7961 -1.2430 -0.7008
   88MOL0     H11588   4.785   1.069  12.246 -2.1765  1.9956 -0.4065
   88MOL0     H11589   4.779   1.121  12.091 -2.5710  0.0229 -0.5297
   88MOL0     H11590   4.623   0.872  12.159  2.5181 -1.5751 -2.6562
   88MOL0     H11591   4.615   0.968  12.018 -2.2155 -2.9847  0.7615
   88MOL0     H11592   4.560   1.179  12.154 -0.3645 -0.1582 -0.9082
   88MOL0     H11593   4.561   1.073  12.299  2.4863  0.6611  0.4185
   88MOL0     H11594   4.358   1.086  12.067 -1.7358  0.6202  1.6384
   88MOL0     H11595   4.381   0.921  12.141 -2.3504  0.3920  1.0502
   88MOL0     H11596   4.326   1.021  12.362 -1.3796  0.4970  1.7888
   88MOL0     H11597   4.192   1.030  12.240 -0.0278  0.4136 -1.8807
   88MOL0     H11598   5.345   0.826  11.818 -1.1256 -0.3450  0.7507
   88MOL0     H11599   5.574   0.720  11.838 -0.5131  0.0028 -0.9760
   88MOL0     H11600   5.861   0.639  11.889 -0.4660  0.0636  0.2909
   88MOL0     H11601   6.099   0.565  11.806 -1.1945 -2.2702 -2.9962
   88MOL0     H11602   7.877   0.088  11.474  1.5521 -0.4618  0.4923
   88MOL0     H11603   7.974   0.095  11.226  0.3456  0.5943 -0.4746
   88MOL0     H11604   8.119  -0.209  10.873 -2.7922  0.2621  1.3992
   88MOL0     H11605   8.245  -0.209  10.674 -0.7762 -2.4096  1.2244
   88MOL0     H11606   8.317  -0.132  10.299 -1.6554  0.0101  0.9953
   88MOL0     H11607   8.293  -0.238  10.440 -1.5462 -0.6709  0.8031
   88MOL0     H11608   8.392  -0.052  10.567 -2.1389  0.5863 -0.0538
   88MOL0     H11609   8.512  -0.109  10.455  0.9585  0.3946  1.9009
   88MOL0     H11610   8.338   0.141  10.417 -0.8977  0.0379 -4.3725
   88MOL0     H11611   8.423   0.056  10.285 -0.6470  0.6632 -0.6704
   88MOL0     H11612   8.629   0.060  10.448 -0.4821 -1.0216 -2.6560
   88MOL0     H11613   8.586   0.215  10.372  0.7227  0.3191 -0.4391
   88MOL0     H11614   8.493   0.285  10.784 -1.5524 -3.7388  1.8692
   88MOL0     H11615   7.945   0.057  10.492  0.0888  0.8592  1.4115
   88MOL0     H11616   7.833   0.058  10.704 -1.4759 -1.1075 -2.9234
   89MOL0     O11617   1.032   4.289   0.587  0.0810  0.1620  0.6195
   89MOL0     C11618   0.983   4.272   0.699  0.3453  0.1894  0.0593
   89MOL0     O11619   0.846   4.268   0.729  0.5872 -0.7131  0.1237
   89MOL0     C11620   0.750   4.320   0.636  0.6734 -0.6547  0.1720
   89MOL0     C11621   0.777   4.418   0.537  0.1247  0.1461  0.6334
   89MOL0     C11622   0.682   4.444   0.435  0.2500 -1.0415  0.2502
   89MOL0     C11623   0.546   4.402   0.452  0.3042 -0.1122 -0.2481
   89MOL0     O11624   0.465   4.446   0.349  0.0816 -0.7835 -0.3890
   89MOL0     C11625   0.325   4.402   0.354  1.1384 -0.3022 -1.0614
   89MOL0     C11626   0.264   4.461   0.229  0.3914  0.9041  0.0729
   89MOL0     C11627   0.117   4.416   0.227  0.4548  0.2402  0.2212
   89MOL0     C11628   0.037   4.479   0.108 -0.3124 -0.2752  0.2093
   89MOL0     C11629   0.065   4.388  -0.015  0.2084 -0.3089 -0.3890
   89MOL0     C11630   0.014   4.457  -0.147 -0.3994 -1.3448  0.0993
   89MOL0     C11631  -0.132   4.480  -0.170 -0.2668  0.4557 -0.3354
   89MOL0     C11632  -0.197   4.335  -0.180  0.2923 -0.0471 -0.2470
   89MOL0     N11633  -0.342   4.343  -0.190 -1.1044 -0.3858  0.7214
   89MOL0     C11634  -0.423   4.240  -0.217  0.1086  0.5400  0.1320
   89MOL0     C11635  -0.555   4.284  -0.195 -0.1602 -0.0029  0.2907
   89MOL0     C11636  -0.678   4.202  -0.221  0.0883  0.7814  0.1543
   89MOL0     C11637  -0.809   4.275  -0.209 -0.4155 -0.3170 -0.5511
   89MOL0     C11638  -0.916   4.171  -0.194 -0.1162 -0.6856 -0.5720
   89MOL0     C11639  -1.044   4.237  -0.142 -0.1764  0.1862  0.0903
   89MOL0     O11640  -1.142   4.133  -0.107  1.3412  0.6694 -0.4877
   89MOL0     C11641  -1.271   4.170  -0.096 -0.0410  0.1995  0.8121
   89MOL0     C11642  -1.314   4.309  -0.094 -1.0245  0.1276  0.1375
   89MOL0     C11643  -1.442   4.346  -0.111  1.6786 -0.1164 -0.4074
   89MOL0     C11644  -1.552   4.246  -0.122 -0.1652 -1.2459  0.4008
   89MOL0     C11645  -1.694   4.277  -0.135  0.1339  0.0163 -0.1959
   89MOL0     O11646  -1.780   4.177  -0.106  0.3500  0.4174  0.3967
   89MOL0     C11647  -1.910   4.177  -0.155 -0.9175 -1.1526  0.4297
   89MOL0     C11648  -1.999   4.096  -0.088 -0.3979 -0.2376  0.2028
   89MOL0     C11649  -2.122   4.070  -0.145 -0.9453 -0.2027 -1.1203
   89MOL0     C11650  -2.163   4.143  -0.257 -0.1507  0.1883  0.6505
   89MOL0     O11651  -2.281   4.116  -0.324 -0.4121 -0.9830  0.1787
   89MOL0     C11652  -2.385   4.040  -0.252 -0.6744 -0.2745 -0.5965
   89MOL0     C11653  -2.513   4.039  -0.337  0.3881  0.0100  0.1743
   89MOL0     C11654  -2.593   4.170  -0.343 -1.0643 -0.1379 -0.4655
   89MOL0     C11655  -2.717   4.166  -0.437  0.4163 -0.0393  0.1685
   89MOL0     C11656  -2.780   4.304  -0.424 -0.2652 -0.3110 -0.5899
   89MOL0     C11657  -2.914   4.323  -0.497 -0.3102 -0.1735 -0.1014
   89MOL0     C11658  -2.921   4.240  -0.626 -0.1521 -0.2146 -0.2586
   89MOL0     C11659  -3.061   4.267  -0.689 -0.3460  0.1793  0.0846
   89MOL0    Cl11660  -3.143   4.102  -0.701  0.0817  0.0140  0.3265
   89MOL0     C11661  -2.086   4.245  -0.322 -0.6188  0.4746  0.0025
   89MOL0     C11662  -1.951   4.250  -0.276 -0.1128 -0.1251  0.0212
   89MOL0     O11663  -1.716   4.397  -0.144  0.1231  0.1336  0.6044
   89MOL0     C11664  -1.508   4.113  -0.122  0.3808  0.4251 -0.5397
   89MOL0     C11665  -1.375   4.078  -0.112 -1.3113  0.0466 -0.7047
   89MOL0     N11666  -0.552   4.419  -0.175 -0.1468 -0.3821 -0.4464
   89MOL0     N11667  -0.424   4.455  -0.164  0.8370 -0.7127 -0.0040
   89MOL0     C11668   0.512   4.329   0.556  0.1304 -0.0804 -0.4578
   89MOL0     C11669   0.610   4.285   0.647 -0.7847 -0.0175  0.3192
   89MOL0     C11670   1.080   4.236   0.807 -0.1695 -0.4686  0.2936
   89MOL0     C11671   1.047   4.142   0.909 -0.0828 -0.5625  0.0059
   89MOL0     C11672   1.141   4.101   1.011  1.1654 -0.3166  1.3234
   89MOL0     C11673   1.270   4.154   1.002  0.7970 -0.5963 -0.2689
   89MOL0     O11674   1.372   4.111   1.089  0.4713 -0.5008  0.1476
   89MOL0     C11675   1.459   4.013   1.029 -0.1629 -0.2938 -0.3443
   89MOL0     C11676   1.457   3.882   1.109 -0.3244  0.0493  0.5721
   89MOL0     C11677   1.336   3.807   1.145 -0.7684  0.0069 -0.5795
   89MOL0     C11678   1.373   3.676   1.222  0.6009 -0.5593  0.9163
   89MOL0     C11679   1.275   3.568   1.204 -0.6159 -1.0520 -0.2835
   89MOL0     C11680   1.186   3.487   1.184  0.3508  0.3630 -0.5060
   89MOL0     C11681   1.295   4.252   0.908 -0.2719  0.7470 -0.2501
   89MOL0     C11682   1.203   4.298   0.812  0.2942  0.1464  0.1574
   89MOL0     H11683   0.874   4.463   0.522 -0.0717  0.1758 -0.7063
   89MOL0     H11684   0.716   4.495   0.345  1.0099 -0.9513  0.5814
   89MOL0     H11685   0.269   4.438   0.441  1.7314  0.2046 -0.8809
   89MOL0     H11686   0.321   4.293   0.355  1.2289 -0.3601  2.1869
   89MOL0     H11687   0.309   4.418   0.139  1.0573  0.9042  0.3964
   89MOL0     H11688   0.272   4.570   0.220  0.4075  0.8129 -1.1853
   89MOL0     H11689   0.062   4.445   0.317 -3.3625 -3.9877 -0.4417
   89MOL0     H11690   0.117   4.307   0.231 -0.2864  0.1693 -1.2822
   89MOL0     H11691  -0.067   4.461   0.137  0.4892 -3.8785  1.3777
   89MOL0     H11692   0.065   4.584   0.093 -0.9650 -0.4707 -3.0114
   89MOL0     H11693   0.016   4.291   0.002 -1.5732  0.7065  0.6722
   89MOL0     H11694   0.173   4.377  -0.023  0.2102  0.5609 -1.9713
   89MOL0     H11695   0.062   4.396  -0.224  0.5396 -3.2446  2.0606
   89MOL0     H11696   0.070   4.550  -0.152 -1.5430 -0.6980 -2.4604
   89MOL0     H11697  -0.179   4.537  -0.090  0.6679  0.3945  0.2748
   89MOL0     H11698  -0.150   4.529  -0.266 -0.8045  0.7845 -0.0645
   89MOL0     H11699  -0.178   4.278  -0.089  0.5798  0.6617  0.1434
   89MOL0     H11700  -0.154   4.274  -0.260  0.3861  0.3615 -0.5102
   89MOL0     H11701  -0.398   4.142  -0.257 -1.7573 -0.0939  0.3857
   89MOL0     H11702  -0.670   4.121  -0.148 -2.1476  0.8182  0.5039
   89MOL0     H11703  -0.681   4.161  -0.322 -2.9330 -0.6445  0.7174
   89MOL0     H11704  -0.828   4.347  -0.289  1.4119  1.0752  0.2070
   89MOL0     H11705  -0.799   4.326  -0.114 -1.2081 -0.8999 -0.1387
   89MOL0     H11706  -0.939   4.120  -0.288  1.0034 -2.4081  0.0353
   89MOL0     H11707  -0.890   4.098  -0.116 -0.0232  1.1403  1.1841
   89MOL0     H11708  -1.082   4.301  -0.222  0.2308  1.0498  0.5758
   89MOL0     H11709  -1.020   4.303  -0.058 -0.7951 -2.2574  2.3009
   89MOL0     H11710  -1.239   4.387  -0.099  0.7942 -1.6166 -3.6624
   89MOL0     H11711  -1.468   4.452  -0.113  0.7893 -0.3263 -0.3964
   89MOL0     H11712  -1.953   4.048  -0.002  0.4889  0.8584  0.3719
   89MOL0     H11713  -2.187   3.992  -0.106 -1.4440 -0.8692 -3.1230
   89MOL0     H11714  -2.393   4.088  -0.154  1.0660  1.9649 -1.4798
   89MOL0     H11715  -2.360   3.935  -0.237 -0.7122 -0.2804 -0.5762
   89MOL0     H11716  -2.579   3.967  -0.286  0.4575  0.1360  0.4419
   89MOL0     H11717  -2.484   4.002  -0.436  0.5929 -1.9938  0.9206
   89MOL0     H11718  -2.514   4.234  -0.385 -0.0692  0.8660  2.6670
   89MOL0     H11719  -2.614   4.201  -0.241  1.6302 -0.5195  0.2981
   89MOL0     H11720  -2.693   4.150  -0.542  1.1772  0.7772  0.2050
   89MOL0     H11721  -2.793   4.093  -0.408  1.2737 -0.5102  1.2960
   89MOL0     H11722  -2.712   4.373  -0.475 -0.5986  0.1170 -0.4600
   89MOL0     H11723  -2.789   4.333  -0.319 -1.2504 -1.4484 -0.3331
   89MOL0     H11724  -2.932   4.430  -0.513 -0.6185 -0.0164  1.1741
   89MOL0     H11725  -2.996   4.291  -0.432 -0.4836  0.5680  0.0506
   89MOL0     H11726  -2.839   4.273  -0.690  0.0529 -1.4693 -0.6547
   89MOL0     H11727  -2.906   4.133  -0.611  1.1176 -0.2408 -1.4991
   89MOL0     H11728  -3.048   4.304  -0.791 -1.1918  3.6558  1.1028
   89MOL0     H11729  -3.118   4.346  -0.638  0.3536  0.8405 -0.1448
   89MOL0     H11730  -2.120   4.297  -0.411 -2.3262  0.5894  0.6767
   89MOL0     H11731  -1.884   4.311  -0.336 -1.8966  3.4918  1.4255
   89MOL0     H11732  -1.575   4.029  -0.132  0.4931 -0.1572  2.5476
   89MOL0     H11733  -1.349   3.978  -0.080  0.4204  1.2143  1.9270
   89MOL0     H11734   0.412   4.293   0.575  1.0322 -1.1583  2.9026
   89MOL0     H11735   0.583   4.221   0.731  2.6220 -0.2786  1.4019
   89MOL0     H11736   0.949   4.095   0.909 -1.1056  1.3941  1.8311
   89MOL0     H11737   1.098   4.032   1.082 -1.0411  1.4838  1.8241
   89MOL0     H11738   1.558   4.059   1.026 -0.7615  1.0749 -0.2608
   89MOL0     H11739   1.430   3.998   0.925 -1.1413  0.0811 -0.1399
   89MOL0     H11740   1.523   3.818   1.049  2.8241  1.5987  2.1070
   89MOL0     H11741   1.519   3.915   1.193  1.5925 -1.1028 -0.3056
   89MOL0     H11742   1.272   3.782   1.060 -5.3740  2.0535  1.8928
   89MOL0     H11743   1.274   3.874   1.205 -2.5317 -0.3778 -1.9029
   89MOL0     H11744   1.467   3.648   1.175  0.7444 -0.2523  1.0142
   89MOL0     H11745   1.375   3.706   1.328 -0.3305  1.7917  0.3446
   89MOL0     H11746   1.119   3.405   1.196  0.6429  0.3950  1.9319
   89MOL0     H11747   1.400   4.279   0.905 -0.2211  0.4776 -1.6176
   89MOL0     H11748   1.243   4.376   0.747  0.8290 -0.0761  0.2112
   90MOL0     O11749   0.605   5.640  10.420 -0.7526 -0.1470  0.3033
   90MOL0     C11750   0.687   5.693  10.500  0.1035  0.4048  0.7472
   90MOL0     O11751   0.660   5.737  10.626  0.7367 -0.1551 -0.2319
   90MOL0     C11752   0.538   5.732  10.687 -0.1331  0.5984 -0.9964
   90MOL0     C11753   0.512   5.818  10.789  0.1381 -0.1981 -1.0424
   90MOL0     C11754   0.386   5.806  10.860 -0.3495 -1.0667 -0.5260
   90MOL0     C11755   0.288   5.713  10.827 -0.4602 -1.2000 -0.1459
   90MOL0     O11756   0.169   5.716  10.889  0.3443 -0.6862  0.2313
   90MOL0     C11757   0.085   5.599  10.888 -0.2482 -0.7864 -0.1843
   90MOL0     C11758  -0.043   5.623  10.963 -0.2837  0.3033 -0.1220
   90MOL0     C11759  -0.098   5.756  10.936  0.9774  0.1392 -0.0066
   90MOL0     C11760  -0.238   5.765  10.988 -0.6344 -0.5676  0.2070
   90MOL0     C11761  -0.315   5.898  10.976 -0.3559 -0.6308 -0.1822
   90MOL0     C11762  -0.328   5.954  10.838  0.6392  0.7519  0.3649
   90MOL0     C11763  -0.420   6.082  10.830 -0.0804 -0.0649  0.7897
   90MOL0     C11764  -0.405   6.157  10.696  0.6044  0.9222  0.0660
   90MOL0     N11765  -0.439   6.292  10.713  0.1790  0.1080 -0.4485
   90MOL0     C11766  -0.362   6.392  10.768  0.3549  0.2539 -0.0997
   90MOL0     C11767  -0.414   6.502  10.723 -0.1234 -0.0833  0.5457
   90MOL0     C11768  -0.361   6.641  10.739 -0.0623  1.2593 -0.1374
   90MOL0     C11769  -0.477   6.742  10.733 -0.0154  0.7703 -0.0353
   90MOL0     C11770  -0.443   6.877  10.786  0.5212 -0.4415 -0.6115
   90MOL0     C11771  -0.544   6.988  10.760  0.1092 -0.0629  0.0809
   90MOL0     O11772  -0.595   6.975  10.621 -0.1060 -0.1730  0.4123
   90MOL0     C11773  -0.733   6.957  10.603  0.7968  0.4028  0.2549
   90MOL0     C11774  -0.773   6.994  10.480  0.6144 -0.3135  0.4872
   90MOL0     C11775  -0.910   6.991  10.441  0.3295 -0.0238  0.1650
   90MOL0     C11776  -1.014   6.961  10.534 -1.1629 -0.3452  1.5838
   90MOL0     C11777  -1.160   6.976  10.509 -0.0729  0.3271 -0.2920
   90MOL0     O11778  -1.199   7.031  10.393 -0.2035 -0.3001  0.0239
   90MOL0     C11779  -1.333   7.044  10.363 -0.6788  0.1826 -0.3958
   90MOL0     C11780  -1.373   7.138  10.273  0.3631 -0.5339 -1.0604
   90MOL0     C11781  -1.507   7.159  10.247 -0.4338 -0.0306 -0.2217
   90MOL0     C11782  -1.603   7.089  10.313  0.1644 -0.5401 -0.6518
   90MOL0     O11783  -1.737   7.093  10.288  0.2878  0.0969  0.2683
   90MOL0     C11784  -1.806   7.203  10.231 -0.1265  0.3103 -0.3050
   90MOL0     C11785  -1.943   7.155  10.199 -0.8355 -0.3918 -0.1313
   90MOL0     C11786  -2.043   7.174  10.316  0.0912  0.4212 -0.2586
   90MOL0     C11787  -2.000   7.090  10.433  0.2257 -0.5283 -0.4354
   90MOL0     C11788  -2.113   7.077  10.539  0.2260 -0.5167 -0.2313
   90MOL0     C11789  -2.048   7.042  10.675  0.4609  0.0820  0.5670
   90MOL0     C11790  -2.141   6.948  10.763 -0.6479  0.5576 -0.2638
   90MOL0     C11791  -2.240   7.046  10.826  0.2503 -0.2431 -0.0143
   90MOL0    Cl11792  -2.366   6.953  10.913 -0.2504  0.6439 -0.3572
   90MOL0     C11793  -1.566   6.985  10.397 -1.4011  0.4194  0.8139
   90MOL0     C11794  -1.431   6.959  10.424  0.7488 -0.1369 -1.1591
   90MOL0     O11795  -1.227   6.962  10.612 -0.1475  0.0122 -0.1916
   90MOL0     C11796  -0.968   6.919  10.664  0.0060  1.0889  0.7187
   90MOL0     C11797  -0.828   6.911  10.697  0.0272  0.1311  0.2787
   90MOL0     N11798  -0.529   6.476  10.648 -0.0603 -0.2271  0.4088
   90MOL0     N11799  -0.542   6.351  10.640 -0.7074 -0.1022 -0.2595
   90MOL0     C11800   0.319   5.624  10.723  0.8885  0.7493 -0.3524
   90MOL0     C11801   0.446   5.628  10.662  0.0105 -0.4947 -0.2029
   90MOL0     C11802   0.822   5.723  10.454 -0.0830 -0.4420 -0.2618
   90MOL0     C11803   0.885   5.631  10.361 -0.5903  0.1174 -0.3591
   90MOL0     C11804   1.014   5.661  10.316  0.6560 -0.5253 -1.0623
   90MOL0     C11805   1.073   5.787  10.352 -0.4742  0.5821 -0.1040
   90MOL0     O11806   1.194   5.826  10.300  0.0788 -0.0043 -0.7545
   90MOL0     C11807   1.307   5.772  10.362  0.7995 -0.0932 -0.2153
   90MOL0     C11808   1.418   5.880  10.328 -0.4757  0.4133 -0.3325
   90MOL0     C11809   1.563   5.805  10.330  0.2751 -0.6581 -0.0970
   90MOL0     C11810   1.666   5.904  10.275 -0.4781  0.5778 -0.1264
   90MOL0     C11811   1.801   5.835  10.269  1.0774  0.4579 -0.0139
   90MOL0     C11812   1.913   5.792  10.284 -0.0429 -0.4638  0.3509
   90MOL0     C11813   1.008   5.884  10.440 -0.0101 -0.2703 -0.9990
   90MOL0     C11814   0.884   5.844  10.489 -0.0949  0.3606  0.0711
   90MOL0     H11815   0.593   5.887  10.810  1.6520 -2.0430 -0.4901
   90MOL0     H11816   0.367   5.872  10.944 -1.5656 -1.0066 -0.8363
   90MOL0     H11817   0.124   5.508  10.935  0.3506  0.2058  1.3064
   90MOL0     H11818   0.048   5.578  10.787 -0.2660  3.3990 -1.2586
   90MOL0     H11819  -0.018   5.605  11.067 -1.5831  2.8792  0.7322
   90MOL0     H11820  -0.116   5.555  10.918 -1.1832  2.6245 -2.4467
   90MOL0     H11821  -0.106   5.779  10.830  1.5237 -2.0505 -0.5696
   90MOL0     H11822  -0.034   5.828  10.988 -0.3472  0.9789  0.5165
   90MOL0     H11823  -0.302   5.695  10.933 -0.8194  1.1979 -1.9256
   90MOL0     H11824  -0.234   5.731  11.092  2.4975 -1.2670 -0.0403
   90MOL0     H11825  -0.272   5.977  11.037  2.2327 -2.8559  1.0822
   90MOL0     H11826  -0.412   5.874  11.021 -0.0845 -0.8747  0.2736
   90MOL0     H11827  -0.374   5.876  10.777 -1.1353  1.4871  0.6890
   90MOL0     H11828  -0.226   5.970  10.803  1.2230  1.9699  2.4233
   90MOL0     H11829  -0.522   6.042  10.838  0.3104 -0.7091  3.3943
   90MOL0     H11830  -0.411   6.149  10.915  0.8763 -0.3838  0.9514
   90MOL0     H11831  -0.466   6.106  10.621  0.3443  1.1514  0.1210
   90MOL0     H11832  -0.303   6.162  10.657  0.4194 -1.4761 -0.8907
   90MOL0     H11833  -0.271   6.379  10.825  0.1670  1.5781  0.5428
   90MOL0     H11834  -0.282   6.666  10.668  1.2431 -1.1514  0.3715
   90MOL0     H11835  -0.321   6.644  10.840 -4.2351 -4.1660  2.2138
   90MOL0     H11836  -0.561   6.711  10.796 -0.9163  2.3202 -0.4294
   90MOL0     H11837  -0.511   6.750  10.630  2.4975  1.6591 -0.8878
   90MOL0     H11838  -0.424   6.872  10.894  0.1380  1.5060 -0.4269
   90MOL0     H11839  -0.352   6.916  10.739  0.9835  0.4631  0.9538
   90MOL0     H11840  -0.493   7.083  10.776  0.4634 -0.2724  0.2333
   90MOL0     H11841  -0.624   6.989  10.834  2.0996  1.7602  2.4030
   90MOL0     H11842  -0.695   7.001  10.405 -0.4553 -2.5449 -0.9677
   90MOL0     H11843  -0.934   7.005  10.336 -3.7722 -2.2045  0.5908
   90MOL0     H11844  -1.299   7.189  10.211  0.9795 -1.4533 -1.0956
   90MOL0     H11845  -1.528   7.230  10.167 -1.4790 -0.1246 -0.0525
   90MOL0     H11846  -1.753   7.238  10.142  0.8865  1.1849  0.6110
   90MOL0     H11847  -1.823   7.284  10.303  1.9796  0.3040  0.2731
   90MOL0     H11848  -1.937   7.051  10.166  1.4977  0.0495 -1.2526
   90MOL0     H11849  -1.972   7.216  10.113 -0.6660  2.0076  1.3909
   90MOL0     H11850  -2.137   7.130  10.281 -0.7805  0.8049  1.4889
   90MOL0     H11851  -2.061   7.277  10.345  0.6480  1.6255 -3.7095
   90MOL0     H11852  -1.971   6.990  10.397  1.1098  0.4202 -2.5431
   90MOL0     H11853  -1.906   7.135  10.465 -1.2155  1.4260  1.3071
   90MOL0     H11854  -2.186   7.004  10.504 -0.1144 -1.2649  1.8533
   90MOL0     H11855  -2.177   7.164  10.555 -1.5593 -1.4882 -1.7599
   90MOL0     H11856  -2.027   7.142  10.714 -1.0934  0.3110  0.8676
   90MOL0     H11857  -1.959   6.986  10.643 -0.6535 -0.2974 -2.1328
   90MOL0     H11858  -2.186   6.866  10.705  0.4445 -0.3588  0.1350
   90MOL0     H11859  -2.080   6.909  10.845  1.9134  1.6292 -1.5653
   90MOL0     H11860  -2.289   7.117  10.758 -1.1977 -1.2127 -0.0367
   90MOL0     H11861  -2.191   7.112  10.898  0.9305 -0.7747  0.0177
   90MOL0     H11862  -1.642   6.918  10.437 -2.3816 -1.4952 -3.6342
   90MOL0     H11863  -1.414   6.877  10.492 -1.0935  2.4579  2.7659
   90MOL0     H11864  -1.041   6.888  10.738 -1.4419  0.9049 -0.7046
   90MOL0     H11865  -0.812   6.877  10.799 -0.8973 -0.4393  0.2523
   90MOL0     H11866   0.248   5.548  10.694  0.9518 -0.5275  2.4358
   90MOL0     H11867   0.481   5.554  10.591  4.2738 -0.7244  1.8241
   90MOL0     H11868   0.833   5.540  10.335 -0.9913  0.9815 -2.8093
   90MOL0     H11869   1.061   5.596  10.243  0.8319 -1.3069 -0.2702
   90MOL0     H11870   1.336   5.684  10.304  3.4143  1.0636 -0.8288
   90MOL0     H11871   1.291   5.737  10.464  0.7665 -0.3048 -0.2938
   90MOL0     H11872   1.392   5.930  10.235 -0.0458  4.7541  1.6603
   90MOL0     H11873   1.424   5.953  10.410 -1.5549  1.5950 -1.2737
   90MOL0     H11874   1.560   5.715  10.268 -0.4752 -2.1082  1.9302
   90MOL0     H11875   1.578   5.778  10.435 -0.3638  5.7695  2.0859
   90MOL0     H11876   1.646   5.940  10.174 -0.7535 -3.2656 -1.6135
   90MOL0     H11877   1.665   5.987  10.347  1.7266 -0.2321  0.9154
   90MOL0     H11878   2.005   5.742  10.305 -0.0441 -1.9214 -2.6709
   90MOL0     H11879   1.046   5.982  10.467 -0.3175 -0.0813 -1.2480
   90MOL0     H11880   0.827   5.912  10.552 -0.2213  2.4215 -2.1151
   91MOL0     O11881   5.569   5.029   3.359 -0.1763 -0.4681  0.1653
   91MOL0     C11882   5.676   5.026   3.301 -0.1292 -0.3091  0.7142
   91MOL0     O11883   5.693   5.005   3.172  0.4689  0.7437  0.7576
   91MOL0     C11884   5.583   4.984   3.088 -0.4489  0.1999 -0.5811
   91MOL0     C11885   5.572   5.062   2.971 -0.3533  0.0081  0.8920
   91MOL0     C11886   5.459   5.049   2.886 -0.3364 -0.3469 -0.2698
   91MOL0     C11887   5.357   4.969   2.921  0.4424  0.1629  0.8427
   91MOL0     O11888   5.274   4.946   2.823 -0.2144 -0.0321  0.0470
   91MOL0     C11889   5.158   5.027   2.831  0.0074  0.5156  0.3018
   91MOL0     C11890   5.026   4.945   2.826 -1.1161  0.2213  0.3587
   91MOL0     C11891   4.912   5.036   2.778  0.5809  1.3904  0.6625
   91MOL0     C11892   4.787   4.961   2.713  0.3849  0.5415  0.7130
   91MOL0     C11893   4.677   5.056   2.678 -0.3823  0.4187 -0.0423
   91MOL0     C11894   4.582   5.085   2.794  0.5833 -1.3434 -0.3241
   91MOL0     C11895   4.450   5.148   2.746  0.3257 -0.1459 -0.5058
   91MOL0     C11896   4.350   5.035   2.692 -0.1043 -0.3667  0.2935
   91MOL0     N11897   4.206   5.071   2.699 -0.3659 -0.1833  0.7504
   91MOL0     C11898   4.139   5.113   2.587  0.5900 -0.2592  0.9905
   91MOL0     C11899   4.011   5.105   2.624 -0.0780 -0.4004 -0.4003
   91MOL0     C11900   3.902   5.136   2.521 -0.4880  0.2978 -0.7198
   91MOL0     C11901   3.770   5.203   2.582 -0.5551  0.1378  0.5114
   91MOL0     C11902   3.655   5.166   2.497 -0.2856 -0.6561 -0.4374
   91MOL0     C11903   3.518   5.242   2.524 -0.5072 -0.9540 -0.7339
   91MOL0     O11904   3.455   5.170   2.630  0.3741 -0.2405  0.1797
   91MOL0     C11905   3.322   5.198   2.639 -0.2967  1.0806  0.8701
   91MOL0     C11906   3.229   5.100   2.620  0.0370  0.4472  0.5448
   91MOL0     C11907   3.094   5.116   2.638 -0.8965  0.9762 -0.3409
   91MOL0     C11908   3.057   5.250   2.681 -0.5094  0.5012 -0.1282
   91MOL0     C11909   2.921   5.283   2.716  0.4660  0.2329  0.4094
   91MOL0     O11910   2.827   5.238   2.624 -0.4753 -0.3683  0.7944
   91MOL0     C11911   2.700   5.281   2.651  0.2705 -0.2988  0.1486
   91MOL0     C11912   2.647   5.403   2.614 -0.3214 -0.0768  0.1663
   91MOL0     C11913   2.514   5.430   2.622 -0.0501  0.3895 -0.0597
   91MOL0     C11914   2.422   5.334   2.689 -0.4706 -1.4743 -0.7641
   91MOL0     O11915   2.294   5.359   2.721  0.3100 -0.5426  0.0240
   91MOL0     C11916   2.221   5.480   2.682 -0.5674 -0.4632  0.6558
   91MOL0     C11917   2.078   5.452   2.699  0.2189 -0.2450  0.0146
   91MOL0     C11918   1.988   5.567   2.740  0.4818 -0.3532 -0.3257
   91MOL0     C11919   1.828   5.547   2.726  0.3157  0.2448 -0.4468
   91MOL0     C11920   1.757   5.682   2.731 -0.3886 -0.0004  0.4126
   91MOL0     C11921   1.614   5.680   2.766 -0.8771 -0.1860  0.2836
   91MOL0     C11922   1.508   5.613   2.663 -0.2300 -0.5599 -0.3328
   91MOL0     C11923   1.453   5.478   2.701  0.8633 -0.1221  0.2476
   91MOL0    Cl11924   1.312   5.411   2.603 -0.2824 -0.3198 -0.1522
   91MOL0     C11925   2.478   5.218   2.726  0.7184  0.4195  1.0181
   91MOL0     C11926   2.613   5.194   2.710  0.8614 -0.4590 -0.6251
   91MOL0     O11927   2.890   5.349   2.820  0.5276  0.1466 -0.1414
   91MOL0     C11928   3.157   5.348   2.706  0.4688 -0.4811  0.1431
   91MOL0     C11929   3.293   5.325   2.687  1.7102 -0.5485 -0.0547
   91MOL0     N11930   3.997   5.051   2.749  0.4649 -0.6786  0.1933
   91MOL0     N11931   4.118   5.023   2.791 -0.1450  0.6234  0.7145
   91MOL0     C11932   5.359   4.902   3.033 -0.5869 -0.3351 -0.2431
   91MOL0     C11933   5.475   4.894   3.114  0.2777 -0.2371 -0.4773
   91MOL0     C11934   5.789   5.052   3.383 -0.2365  0.8539 -0.2468
   91MOL0     C11935   5.802   5.000   3.513 -0.4057  0.0202  0.6685
   91MOL0     C11936   5.918   5.035   3.590 -0.4596  0.2555  0.0022
   91MOL0     C11937   6.014   5.131   3.544 -0.2161  0.2997  0.3928
   91MOL0     O11938   6.127   5.169   3.610  0.2895 -0.1384  0.3275
   91MOL0     C11939   6.154   5.094   3.730  0.6173 -0.3661  0.4088
   91MOL0     C11940   6.304   5.129   3.764  1.0257 -0.6211 -0.4680
   91MOL0     C11941   6.321   5.280   3.813  0.3478 -0.6778  0.1555
   91MOL0     C11942   6.466   5.317   3.850  0.1979  0.4808  0.0728
   91MOL0     C11943   6.483   5.453   3.903 -0.0520 -0.6683  0.5681
   91MOL0     C11944   6.521   5.552   3.964  0.1924 -0.0733 -0.1315
   91MOL0     C11945   6.000   5.180   3.411 -1.0018  0.5826 -0.5313
   91MOL0     C11946   5.890   5.140   3.337  0.7522 -0.6942  0.3428
   91MOL0     H11947   5.648   5.137   2.948 -0.3567  0.1330  1.2752
   91MOL0     H11948   5.441   5.112   2.799  0.5371 -0.0599 -0.2541
   91MOL0     H11949   5.167   5.080   2.736 -0.6213 -3.3385 -2.1373
   91MOL0     H11950   5.155   5.100   2.912  3.2233 -0.1346  1.1225
   91MOL0     H11951   5.011   4.917   2.931  0.0262  3.9909  1.6756
   91MOL0     H11952   5.037   4.864   2.753  0.5744  1.9317 -1.3682
   91MOL0     H11953   4.939   5.114   2.707 -1.2114  1.8163  0.3950
   91MOL0     H11954   4.864   5.080   2.867  1.0056 -2.0600  2.7714
   91MOL0     H11955   4.822   4.903   2.627 -0.1191  1.4480 -0.1221
   91MOL0     H11956   4.746   4.880   2.775  0.8389 -1.2044 -1.1496
   91MOL0     H11957   4.610   5.014   2.602  0.7644  2.0651 -2.0541
   91MOL0     H11958   4.711   5.153   2.639  0.1535  0.9371  1.6229
   91MOL0     H11959   4.633   5.150   2.867 -0.2392  0.9285 -1.6583
   91MOL0     H11960   4.555   4.990   2.839 -3.0606 -0.4221 -0.2783
   91MOL0     H11961   4.398   5.187   2.834  1.4071  1.8392 -0.7147
   91MOL0     H11962   4.461   5.231   2.676 -0.8954 -0.7383 -1.4600
   91MOL0     H11963   4.362   4.944   2.752 -1.5397 -0.2906  0.7433
   91MOL0     H11964   4.368   5.020   2.585 -0.0831 -1.0630  0.3871
   91MOL0     H11965   4.185   5.126   2.490  1.6294 -3.5612  0.8932
   91MOL0     H11966   3.883   5.040   2.472  0.0126  0.6892 -1.7224
   91MOL0     H11967   3.946   5.203   2.446  1.9890 -0.1559  0.2308
   91MOL0     H11968   3.798   5.308   2.577 -5.1259  1.5705  0.1494
   91MOL0     H11969   3.757   5.192   2.690  1.1889 -2.1317  0.5590
   91MOL0     H11970   3.683   5.188   2.394  0.1140 -0.9212 -0.3863
   91MOL0     H11971   3.624   5.061   2.504 -0.6109 -0.5183  0.2889
   91MOL0     H11972   3.465   5.234   2.429 -0.8177 -1.0111 -0.5553
   91MOL0     H11973   3.525   5.350   2.540  1.7734 -1.2353  0.5958
   91MOL0     H11974   3.275   5.004   2.599  1.6953  1.3372 -0.0848
   91MOL0     H11975   3.016   5.041   2.642 -3.0504  3.0683 -0.7126
   91MOL0     H11976   2.716   5.460   2.553 -1.9446  0.3982 -1.3214
   91MOL0     H11977   2.486   5.525   2.578  1.3608 -0.4077 -2.8835
   91MOL0     H11978   2.236   5.519   2.581  0.3548 -1.1491  0.5213
   91MOL0     H11979   2.244   5.558   2.756 -0.7347  3.3010 -2.8988
   91MOL0     H11980   2.070   5.368   2.769  0.6825  0.1282  0.5246
   91MOL0     H11981   2.030   5.429   2.603  0.1363 -1.4531  0.3240
   91MOL0     H11982   2.008   5.655   2.679  1.3149  0.5943  1.2565
   91MOL0     H11983   2.004   5.592   2.845 -2.7034  0.8436 -0.0316
   91MOL0     H11984   1.792   5.491   2.639 -1.1481  0.2543  0.1190
   91MOL0     H11985   1.799   5.477   2.806  0.1198 -1.8434 -2.2287
   91MOL0     H11986   1.774   5.727   2.633 -0.8183  0.0140  0.3431
   91MOL0     H11987   1.805   5.743   2.809 -1.4855  1.2392  0.1547
   91MOL0     H11988   1.583   5.779   2.799  0.3248 -0.7455  3.4153
   91MOL0     H11989   1.614   5.625   2.860 -1.1192  2.8190  2.1764
   91MOL0     H11990   1.425   5.683   2.657  0.0831  0.3918  3.5122
   91MOL0     H11991   1.562   5.606   2.568  0.9476  2.7778 -0.0487
   91MOL0     H11992   1.427   5.475   2.808  2.9247  2.2140  0.9056
   91MOL0     H11993   1.536   5.409   2.684  1.2228 -0.3111  2.4199
   91MOL0     H11994   2.426   5.138   2.777  0.9863 -0.5217 -0.1297
   91MOL0     H11995   2.652   5.096   2.737  0.2610 -0.8046 -0.9897
   91MOL0     H11996   3.131   5.447   2.743  1.2010 -0.3752  0.3952
   91MOL0     H11997   3.369   5.403   2.691  2.6398 -1.4732  1.2123
   91MOL0     H11998   5.284   4.825   3.046 -0.7728 -0.1099  0.0206
   91MOL0     H11999   5.484   4.824   3.196 -3.1383 -0.8601 -0.4559
   91MOL0     H12000   5.719   4.936   3.540  0.2873 -1.7780 -1.2429
   91MOL0     H12001   5.909   4.986   3.686 -3.0207  1.1903  0.3165
   91MOL0     H12002   6.165   4.987   3.713  1.5849 -0.2180  0.0274
   91MOL0     H12003   6.079   5.105   3.808  2.0481 -1.5727  2.0353
   91MOL0     H12004   6.330   5.062   3.847 -0.6307 -0.9777 -0.1846
   91MOL0     H12005   6.369   5.104   3.681  1.5738 -0.6346 -0.0414
   91MOL0     H12006   6.253   5.281   3.899 -2.1597 -2.3117 -1.6730
   91MOL0     H12007   6.283   5.351   3.739 -1.7462 -1.7320  0.1608
   91MOL0     H12008   6.492   5.250   3.931  0.3635 -0.8590 -1.0546
   91MOL0     H12009   6.528   5.298   3.762 -1.7933 -1.2878 -1.0259
   91MOL0     H12010   6.578   5.627   4.015  0.0955  0.2805 -0.5423
   91MOL0     H12011   6.070   5.244   3.359  1.3244 -2.7397 -1.8213
   91MOL0     H12012   5.875   5.191   3.242 -0.1825 -1.0733  0.2766
   92MOL0     O12013   3.891   7.446   3.102 -0.4278  0.5998  0.0448
   92MOL0     C12014   3.795   7.390   3.057  1.1240  0.0547  0.6642
   92MOL0     O12015   3.688   7.335   3.128 -0.9297  0.6180 -0.5626
   92MOL0     C12016   3.678   7.340   3.266 -0.3508 -0.2825  0.0102
   92MOL0     C12017   3.613   7.234   3.320  1.0280  0.0730 -0.6515
   92MOL0     C12018   3.594   7.224   3.455 -1.1141  0.1596 -0.4533
   92MOL0     C12019   3.650   7.321   3.537  0.0828  0.1505  0.2185
   92MOL0     O12020   3.639   7.314   3.667 -0.2605 -0.0714 -0.3737
   92MOL0     C12021   3.743   7.234   3.736 -0.2624 -0.9369  0.1883
   92MOL0     C12022   3.838   7.329   3.807 -0.2093 -0.1798 -0.1886
   92MOL0     C12023   3.948   7.260   3.884 -0.7481 -0.4351  0.9706
   92MOL0     C12024   4.048   7.362   3.949 -0.3222 -0.7469 -0.0887
   92MOL0     C12025   4.161   7.300   4.026 -0.1621 -0.0270 -0.3223
   92MOL0     C12026   4.126   7.239   4.157 -0.7013 -0.7189 -0.8274
   92MOL0     C12027   4.112   7.345   4.266  0.3355  0.9370  0.7696
   92MOL0     C12028   4.253   7.390   4.305 -0.0398  0.2107 -0.5454
   92MOL0     N12029   4.240   7.479   4.424  0.5387 -0.9189  0.3727
   92MOL0     C12030   4.190   7.609   4.439  0.3556  0.7549 -0.1096
   92MOL0     C12031   4.187   7.627   4.571  0.1589 -0.2020  0.8467
   92MOL0     C12032   4.155   7.755   4.634  0.7700 -0.5601 -0.7557
   92MOL0     C12033   4.266   7.806   4.728  0.5458  0.8567 -0.2873
   92MOL0     C12034   4.252   7.742   4.870  0.3673  0.5882 -0.1629
   92MOL0     C12035   4.366   7.763   4.970 -0.5680 -0.4647 -0.9541
   92MOL0     O12036   4.396   7.904   5.003  0.0774  0.2922  0.2272
   92MOL0     C12037   4.307   7.980   5.085  0.9344 -0.3081  0.3245
   92MOL0     C12038   4.228   7.929   5.189 -0.1627  0.1090  1.0065
   92MOL0     C12039   4.143   8.013   5.262  0.2436  0.6984 -0.2560
   92MOL0     C12040   4.128   8.150   5.231  0.1218  0.0257 -0.3090
   92MOL0     C12041   4.035   8.231   5.310 -0.4119 -0.5617  0.0099
   92MOL0     O12042   4.008   8.177   5.438 -0.5117 -0.4277 -0.2035
   92MOL0     C12043   3.917   8.238   5.533 -0.3740  0.4881  0.4577
   92MOL0     C12044   3.904   8.374   5.539 -0.1855  0.4751 -0.3592
   92MOL0     C12045   3.810   8.430   5.631 -0.3724  0.4852 -0.1272
   92MOL0     C12046   3.744   8.349   5.726  0.1305  1.0589 -0.6055
   92MOL0     O12047   3.642   8.408   5.799  0.4107  0.4082  0.7654
   92MOL0     C12048   3.590   8.336   5.906  1.1119 -0.1253 -1.0883
   92MOL0     C12049   3.473   8.418   5.964 -0.2160 -0.5471  0.2387
   92MOL0     C12050   3.401   8.338   6.069 -0.3283 -0.2888 -0.2487
   92MOL0     C12051   3.298   8.252   5.998  0.0025  0.1486  1.0150
   92MOL0     C12052   3.254   8.125   6.074  0.7203 -0.8718  0.7632
   92MOL0     C12053   3.145   8.037   6.018  0.6341 -0.6602  0.3757
   92MOL0     C12054   3.012   8.101   6.051  1.0317 -0.1118 -0.0628
   92MOL0     C12055   2.927   8.007   6.131 -0.6774 -0.1052 -0.7041
   92MOL0    Cl12056   2.856   7.874   6.030  0.2198  0.2824 -0.0042
   92MOL0     C12057   3.764   8.204   5.719 -0.1542 -0.0158  0.0001
   92MOL0     C12058   3.853   8.151   5.621  0.1021 -0.1461  0.1993
   92MOL0     O12059   3.989   8.334   5.261 -0.1434  0.0598  0.4487
   92MOL0     C12060   4.198   8.197   5.121 -0.4464  0.3194  0.2987
   92MOL0     C12061   4.297   8.115   5.056  0.3521  0.1782  0.2904
   92MOL0     N12062   4.225   7.521   4.636  0.9967  0.5306 -0.5627
   92MOL0     N12063   4.257   7.428   4.548  0.8362  0.6109 -0.6642
   92MOL0     C12064   3.726   7.424   3.486  0.4812  0.1838 -0.0297
   92MOL0     C12065   3.747   7.432   3.354  0.1596 -0.2903  0.7343
   92MOL0     C12066   3.781   7.377   2.914 -0.7053  0.1689 -0.0289
   92MOL0     C12067   3.653   7.353   2.855 -1.4450  0.0389 -1.0740
   92MOL0     C12068   3.630   7.358   2.725 -0.3588 -0.7396  0.3105
   92MOL0     C12069   3.741   7.390   2.642  0.1454 -0.3363  0.9268
   92MOL0     O12070   3.710   7.403   2.508  0.1431  0.1809 -0.2908
   92MOL0     C12071   3.810   7.444   2.420  0.6984  0.6392  0.2761
   92MOL0     C12072   3.768   7.464   2.272  0.9745 -0.2091  0.0543
   92MOL0     C12073   3.730   7.338   2.194  0.6968  0.8520  0.1525
   92MOL0     C12074   3.701   7.374   2.050  0.5604 -0.0622  0.0723
   92MOL0     C12075   3.723   7.246   1.977 -0.3031 -0.6248 -0.6402
   92MOL0     C12076   3.753   7.151   1.909  0.2595  0.3369  0.2474
   92MOL0     C12077   3.861   7.436   2.698  0.4015 -0.2389  0.5945
   92MOL0     C12078   3.876   7.431   2.828 -0.0273  0.8829  0.7063
   92MOL0     H12079   3.572   7.152   3.261  3.6941 -1.9035  0.0437
   92MOL0     H12080   3.544   7.140   3.504 -1.6059  0.7746  0.1155
   92MOL0     H12081   3.806   7.170   3.673  2.1208  0.1822  1.3199
   92MOL0     H12082   3.687   7.179   3.812 -0.1276 -0.8813  0.3286
   92MOL0     H12083   3.770   7.380   3.876 -1.8022 -0.8383 -1.1980
   92MOL0     H12084   3.882   7.407   3.745  1.7344 -0.8058  0.3470
   92MOL0     H12085   4.004   7.197   3.815 -0.8949  0.2701  0.1857
   92MOL0     H12086   3.900   7.192   3.955 -1.7798  0.3800  1.0750
   92MOL0     H12087   4.091   7.415   3.864 -0.6839 -0.3555 -0.0302
   92MOL0     H12088   4.005   7.440   4.012  0.8476 -1.4188  1.6215
   92MOL0     H12089   4.251   7.362   4.038 -2.0655  3.0582 -1.0598
   92MOL0     H12090   4.189   7.210   3.971 -1.7700 -2.0244  1.8996
   92MOL0     H12091   4.194   7.158   4.184  1.1028  0.8240 -0.5374
   92MOL0     H12092   4.025   7.199   4.145 -1.1768  0.5508 -1.3363
   92MOL0     H12093   4.050   7.427   4.229  0.1523  0.0055 -1.1427
   92MOL0     H12094   4.059   7.287   4.342  0.8291 -0.2731  0.2324
   92MOL0     H12095   4.297   7.446   4.222  1.1400  2.3024  1.3871
   92MOL0     H12096   4.313   7.305   4.341 -1.5742 -0.3428  0.8080
   92MOL0     H12097   4.153   7.672   4.359 -0.2583 -0.3176 -0.7065
   92MOL0     H12098   4.059   7.751   4.686  0.9791  1.9822 -0.0736
   92MOL0     H12099   4.150   7.823   4.549  0.1111 -0.5188 -0.6868
   92MOL0     H12100   4.258   7.915   4.739  0.5081  0.6507  2.6625
   92MOL0     H12101   4.361   7.789   4.676 -0.0875  0.8240 -1.4527
   92MOL0     H12102   4.167   7.778   4.929 -0.7477 -0.0433 -1.3328
   92MOL0     H12103   4.238   7.634   4.862 -1.9746  0.8325 -0.0376
   92MOL0     H12104   4.451   7.708   4.928 -0.1070  0.3719 -1.1507
   92MOL0     H12105   4.334   7.718   5.064  0.5799 -0.0964 -0.3692
   92MOL0     H12106   4.234   7.824   5.215  1.6530 -0.3725 -1.0218
   92MOL0     H12107   4.090   7.969   5.346  1.4759 -1.2839 -0.4431
   92MOL0     H12108   3.957   8.438   5.469  0.6402  0.0159 -0.1642
   92MOL0     H12109   3.780   8.534   5.616  0.7334  0.7463 -0.6515
   92MOL0     H12110   3.673   8.298   5.965  0.1176 -3.7846 -1.7833
   92MOL0     H12111   3.550   8.240   5.874 -1.1732 -0.0996  1.2871
   92MOL0     H12112   3.408   8.458   5.886 -0.0211  2.5059  1.4864
   92MOL0     H12113   3.516   8.505   6.014  1.6719 -2.2204  1.6954
   92MOL0     H12114   3.349   8.411   6.132 -0.8794  0.7861 -1.8591
   92MOL0     H12115   3.479   8.286   6.125  0.8292  0.6261 -0.9503
   92MOL0     H12116   3.216   8.319   5.973  0.5868 -0.1180 -1.9406
   92MOL0     H12117   3.340   8.220   5.902 -2.8242 -0.5512 -0.0630
   92MOL0     H12118   3.227   8.142   6.178  1.5786 -1.3637  1.0796
   92MOL0     H12119   3.352   8.076   6.078  1.2940 -0.5885 -3.9249
   92MOL0     H12120   3.147   7.937   6.064 -1.4075 -0.1170  1.7755
   92MOL0     H12121   3.157   8.034   5.910 -2.0179  0.7489 -0.0253
   92MOL0     H12122   3.016   8.196   6.105 -0.1282  2.5210 -4.1988
   92MOL0     H12123   2.959   8.127   5.959  2.1870  3.4700  0.1539
   92MOL0     H12124   2.853   8.071   6.179  0.8079  0.7868  0.4790
   92MOL0     H12125   2.993   7.967   6.208  2.2523  3.1375 -1.2533
   92MOL0     H12126   3.714   8.133   5.784  3.1391 -0.9264  1.7695
   92MOL0     H12127   3.869   8.045   5.608 -0.0883  0.1155 -2.8471
   92MOL0     H12128   4.186   8.295   5.076  1.3620  0.1463 -0.6326
   92MOL0     H12129   4.365   8.155   4.982 -3.4563  0.0033 -3.7675
   92MOL0     H12130   3.767   7.500   3.551  0.5842 -0.7301  0.9948
   92MOL0     H12131   3.809   7.509   3.308  0.1149 -1.4908 -1.4465
   92MOL0     H12132   3.573   7.317   2.918 -0.6403 -2.9835 -1.5941
   92MOL0     H12133   3.542   7.345   2.663  2.0784  0.1804 -3.7278
   92MOL0     H12134   3.894   7.374   2.420 -0.1997 -0.5064 -1.6159
   92MOL0     H12135   3.851   7.543   2.446 -0.3928  1.6102 -1.4740
   92MOL0     H12136   3.677   7.525   2.275  0.7728 -0.5394  1.0506
   92MOL0     H12137   3.847   7.527   2.232 -0.3328  1.8843  0.6026
   92MOL0     H12138   3.642   7.294   2.241 -0.8171  2.9098 -0.6392
   92MOL0     H12139   3.813   7.267   2.187  0.3429  0.4653 -0.1230
   92MOL0     H12140   3.599   7.407   2.031  0.0498 -1.0651  0.9913
   92MOL0     H12141   3.770   7.445   2.004  1.4445  0.6521  2.3962
   92MOL0     H12142   3.775   7.066   1.847  1.8187  2.0026 -1.6022
   92MOL0     H12143   3.938   7.483   2.637 -0.9655 -0.4846 -1.4183
   92MOL0     H12144   3.969   7.470   2.867  0.6916  2.6251 -2.3900
   93MOL0     O12145   7.381   6.835   1.002  0.3032  0.4208 -0.1628
   93MOL0     C12146   7.402   6.713   1.009 -0.3390 -0.3368  0.0390
   93MOL0     O12147   7.506   6.646   0.939 -0.0410 -0.8729 -0.7358
   93MOL0     C12148   7.609   6.712   0.883 -1.8594  0.1196  0.1359
   93MOL0     C12149   7.739   6.660   0.900  0.3202  0.2192  0.0268
   93MOL0     C12150   7.848   6.718   0.839 -0.1619 -0.4707 -1.3926
   93MOL0     C12151   7.832   6.836   0.768  0.5177  0.5047 -0.7186
   93MOL0     O12152   7.945   6.896   0.711  0.7527  0.6353  0.6285
   93MOL0     C12153   8.035   6.956   0.800  0.4496 -0.0883  0.6632
   93MOL0     C12154   8.173   6.891   0.771  0.9492  0.1313 -0.3054
   93MOL0     C12155   8.261   6.984   0.690 -0.3679 -0.1240  0.6609
   93MOL0     C12156   8.380   6.911   0.619 -1.1020 -0.2357  0.6810
   93MOL0     C12157   8.458   7.016   0.540  0.3996  0.7629  0.0602
   93MOL0     C12158   8.579   6.974   0.452 -0.3654  0.4463 -0.2529
   93MOL0     C12159   8.530   6.912   0.312 -0.3673  0.1347 -0.5308
   93MOL0     C12160   8.631   6.854   0.220  0.0980 -0.3654  0.1669
   93MOL0     N12161   8.565   6.816   0.090 -0.0311  0.3116  0.8640
   93MOL0     C12162   8.555   6.683   0.051 -0.5689  0.5207 -0.3042
   93MOL0     C12163   8.497   6.686  -0.076 -0.6034  0.7380  0.2557
   93MOL0     C12164   8.482   6.565  -0.161  0.8610  0.8114  0.2304
   93MOL0     C12165   8.380   6.592  -0.264 -0.3937 -0.7681 -0.3231
   93MOL0     C12166   8.237   6.597  -0.203  0.0123  0.6097  0.0508
   93MOL0     C12167   8.129   6.624  -0.315 -0.1172  0.0420  0.3591
   93MOL0     O12168   8.111   6.501  -0.387  0.5413 -0.0097  0.0678
   93MOL0     C12169   8.014   6.498  -0.488 -0.9170  0.0432 -0.1299
   93MOL0     C12170   7.937   6.602  -0.534  0.1160  0.1788 -0.2403
   93MOL0     C12171   7.866   6.583  -0.656  0.0008  0.0365 -0.2099
   93MOL0     C12172   7.873   6.461  -0.727 -0.9148  0.1484 -0.8126
   93MOL0     C12173   7.782   6.447  -0.843 -0.1342 -0.0459 -0.7008
   93MOL0     O12174   7.704   6.549  -0.873  0.0387  0.3442  0.1963
   93MOL0     C12175   7.605   6.550  -0.968 -0.0163 -1.1983  0.3025
   93MOL0     C12176   7.555   6.432  -1.028  0.0067  0.1762 -0.1927
   93MOL0     C12177   7.449   6.440  -1.125 -0.5012  0.1596 -0.4329
   93MOL0     C12178   7.414   6.559  -1.179 -0.1456  0.1955  0.3599
   93MOL0     O12179   7.308   6.565  -1.262  0.7624  0.0301  0.0010
   93MOL0     C12180   7.193   6.470  -1.260  0.0024  0.1172  0.2586
   93MOL0     C12181   7.075   6.522  -1.339 -0.3374 -0.1302 -0.0400
   93MOL0     C12182   6.986   6.404  -1.383  0.0444 -0.0529  0.6318
   93MOL0     C12183   6.857   6.459  -1.440  0.5574  0.3160  0.6439
   93MOL0     C12184   6.773   6.368  -1.528 -0.2005  0.1653  0.1003
   93MOL0     C12185   6.643   6.431  -1.563  0.3034 -0.8793  1.2517
   93MOL0     C12186   6.570   6.363  -1.676  0.4759  0.4417  0.0757
   93MOL0     C12187   6.449   6.435  -1.724  0.1379 -0.8497 -1.0816
   93MOL0    Cl12188   6.380   6.359  -1.866 -0.3200 -0.7293 -0.1275
   93MOL0     C12189   7.482   6.677  -1.143 -0.3270  0.0490  0.5508
   93MOL0     C12190   7.567   6.668  -1.029  0.0552 -0.4132  0.0205
   93MOL0     O12191   7.793   6.339  -0.907 -0.6443 -0.2718  0.8495
   93MOL0     C12192   7.949   6.359  -0.677  0.6213 -0.5155 -0.6044
   93MOL0     C12193   8.015   6.374  -0.557  0.6964 -0.3397  0.0259
   93MOL0     N12194   8.482   6.815  -0.119  0.4748 -0.0112  0.3465
   93MOL0     N12195   8.525   6.895  -0.018 -0.1554 -0.1302  0.0723
   93MOL0     C12196   7.707   6.894   0.753 -1.0735  0.4029 -0.7217
   93MOL0     C12197   7.601   6.837   0.817  0.1170  0.3972  0.5034
   93MOL0     C12198   7.315   6.635   1.091 -0.0010 -0.0588  0.5999
   93MOL0     C12199   7.356   6.506   1.127 -0.1804  0.5768  0.1323
   93MOL0     C12200   7.262   6.422   1.208 -0.3843 -0.4861  0.7780
   93MOL0     C12201   7.134   6.474   1.250  0.0098  0.6536 -0.0694
   93MOL0     O12202   7.047   6.398   1.319  0.1010  0.8362 -0.0023
   93MOL0     C12203   7.090   6.267   1.370 -0.1901 -1.0629 -0.2056
   93MOL0     C12204   6.980   6.215   1.459  0.0377  0.5279 -0.0844
   93MOL0     C12205   6.957   6.296   1.582  1.3036  0.4024 -0.7771
   93MOL0     C12206   6.843   6.393   1.555 -0.4925  0.3125  0.2479
   93MOL0     C12207   6.811   6.481   1.668 -0.6680  0.5429  0.3931
   93MOL0     C12208   6.773   6.544   1.770 -0.2845  0.4569  0.3152
   93MOL0     C12209   7.101   6.603   1.214  0.3717 -0.8615  0.1347
   93MOL0     C12210   7.182   6.682   1.132  0.4096 -0.5053  0.1163
   93MOL0     H12211   7.741   6.565   0.954 -1.0411 -0.0076 -0.2959
   93MOL0     H12212   7.943   6.667   0.847  0.3989  0.7378  0.5590
   93MOL0     H12213   8.000   6.948   0.903  1.7806  2.4975  1.4084
   93MOL0     H12214   8.038   7.061   0.769  2.5171 -1.1367 -3.5168
   93MOL0     H12215   8.155   6.804   0.706 -4.8892  3.0537 -3.3269
   93MOL0     H12216   8.226   6.862   0.862  0.5342  0.7276  0.1285
   93MOL0     H12217   8.294   7.070   0.749 -3.2648  2.4195 -1.0859
   93MOL0     H12218   8.196   7.020   0.609 -1.4184  1.3038  2.0560
   93MOL0     H12219   8.442   6.870   0.699 -0.3964 -1.4169 -0.4312
   93MOL0     H12220   8.346   6.828   0.556 -0.7551 -0.3940  0.7016
   93MOL0     H12221   8.488   7.088   0.617  4.6680 -0.4614 -0.2247
   93MOL0     H12222   8.390   7.058   0.465  0.4918 -0.6702 -0.8637
   93MOL0     H12223   8.644   6.899   0.497 -0.9159  0.5886  0.8071
   93MOL0     H12224   8.644   7.062   0.442  1.7755 -0.9522  0.7162
   93MOL0     H12225   8.448   6.841   0.330 -1.3135  0.9662 -1.3943
   93MOL0     H12226   8.478   6.994   0.261 -3.2474 -1.6766 -0.7282
   93MOL0     H12227   8.689   6.776   0.269  2.6139  0.8206 -0.7394
   93MOL0     H12228   8.699   6.938   0.199 -0.7712  0.6306  1.2153
   93MOL0     H12229   8.578   6.588   0.097 -1.6869  0.9126  1.1336
   93MOL0     H12230   8.441   6.477  -0.110  0.9463  0.3337 -0.5167
   93MOL0     H12231   8.581   6.541  -0.199  1.2313  0.9264  1.0908
   93MOL0     H12232   8.382   6.513  -0.339 -2.2410  1.5968 -3.1087
   93MOL0     H12233   8.390   6.687  -0.318 -2.7362 -0.2528  0.0471
   93MOL0     H12234   8.216   6.495  -0.170  0.8268 -0.5578 -2.6905
   93MOL0     H12235   8.221   6.669  -0.123  2.5890 -1.6051  2.8092
   93MOL0     H12236   8.159   6.709  -0.377 -0.0443  0.0069  0.3473
   93MOL0     H12237   8.035   6.650  -0.264 -0.2806 -0.5116  0.3466
   93MOL0     H12238   7.933   6.697  -0.481 -0.6949 -1.5722  3.1124
   93MOL0     H12239   7.811   6.663  -0.704 -0.9193 -1.8576 -2.4940
   93MOL0     H12240   7.589   6.333  -1.000  0.1328 -0.2041 -1.6020
   93MOL0     H12241   7.398   6.347  -1.145  0.5215 -0.9477  1.7355
   93MOL0     H12242   7.159   6.456  -1.157 -1.4756  0.7394 -0.1229
   93MOL0     H12243   7.223   6.373  -1.301 -1.6533 -0.4407  0.2623
   93MOL0     H12244   7.110   6.590  -1.417 -0.9376 -0.2953 -0.4559
   93MOL0     H12245   7.009   6.586  -1.279 -0.1688  2.1978 -2.1594
   93MOL0     H12246   6.975   6.329  -1.304 -2.2210  1.8891  2.2959
   93MOL0     H12247   7.041   6.364  -1.469  0.6670  2.2305 -0.0930
   93MOL0     H12248   6.780   6.475  -1.364 -0.8505  0.1561 -0.7090
   93MOL0     H12249   6.876   6.551  -1.496  0.6385  0.3705  0.7606
   93MOL0     H12250   6.749   6.275  -1.476  1.8985 -1.4504 -1.6392
   93MOL0     H12251   6.836   6.327  -1.608 -1.1051 -1.0723 -0.0118
   93MOL0     H12252   6.655   6.532  -1.603  1.3644 -0.6211  2.1934
   93MOL0     H12253   6.581   6.431  -1.473 -0.7458  0.1673  0.5549
   93MOL0     H12254   6.631   6.328  -1.760 -0.0862 -0.5070  0.0515
   93MOL0     H12255   6.539   6.264  -1.640  2.1606  0.1824  0.8886
   93MOL0     H12256   6.474   6.539  -1.747  2.9014 -0.7906  1.6609
   93MOL0     H12257   6.373   6.441  -1.645  0.1522  1.4566 -1.1686
   93MOL0     H12258   7.452   6.770  -1.191  2.8378  1.2790  0.6740
   93MOL0     H12259   7.611   6.756  -0.984 -0.0278  0.1853 -1.0467
   93MOL0     H12260   7.939   6.265  -0.731 -0.4401  0.5636 -2.3922
   93MOL0     H12261   8.067   6.290  -0.513  3.8695  1.1854 -0.5338
   93MOL0     H12262   7.709   6.982   0.689 -0.3755  0.1956 -1.0051
   93MOL0     H12263   7.505   6.889   0.818 -1.1885 -1.8444  2.1734
   93MOL0     H12264   7.453   6.471   1.095  0.2511  0.2844  1.6631
   93MOL0     H12265   7.292   6.325   1.247  0.1924 -0.5005  0.3152
   93MOL0     H12266   7.174   6.281   1.438 -0.3909  2.8894 -0.5722
   93MOL0     H12267   7.102   6.189   1.293 -0.9997 -0.2185 -1.2188
   93MOL0     H12268   6.887   6.210   1.400 -1.3069  0.1656  1.9694
   93MOL0     H12269   7.005   6.110   1.478  1.2930  0.6402 -0.9583
   93MOL0     H12270   7.047   6.350   1.614  2.0178 -1.6056  0.8144
   93MOL0     H12271   6.933   6.226   1.663  2.4691  1.1423  0.2358
   93MOL0     H12272   6.873   6.449   1.466  3.3557 -1.7903 -0.0002
   93MOL0     H12273   6.755   6.332   1.531  0.1040 -1.7817  2.9304
   93MOL0     H12274   6.761   6.615   1.849 -0.3570 -0.1155  0.8197
   93MOL0     H12275   7.004   6.647   1.233  1.3400  1.5534 -0.1149
   93MOL0     H12276   7.134   6.765   1.082 -0.0315 -2.2212 -2.5316
   94MOL0     O12277   7.013   5.578   4.605  0.2613 -0.0982 -0.3959
   94MOL0     C12278   6.991   5.671   4.689 -0.7898  0.2160  0.6906
   94MOL0     O12279   6.886   5.697   4.762  0.4006  0.3769 -0.1971
   94MOL0     C12280   6.764   5.637   4.745  0.1055  0.6625  0.3695
   94MOL0     C12281   6.706   5.601   4.621  0.6856 -0.3565  0.2003
   94MOL0     C12282   6.567   5.585   4.597  0.1395  0.3189 -0.2859
   94MOL0     C12283   6.483   5.596   4.709  0.5080  0.7043  0.0879
   94MOL0     O12284   6.353   5.566   4.687 -0.2340 -0.0655  0.0652
   94MOL0     C12285   6.303   5.670   4.605  0.1058 -0.6845 -0.4179
   94MOL0     C12286   6.161   5.633   4.569  0.2427 -0.3231  0.5286
   94MOL0     C12287   6.090   5.760   4.540  0.0667  0.8060  0.0293
   94MOL0     C12288   5.946   5.735   4.525 -1.0899 -0.1180  0.8617
   94MOL0     C12289   5.861   5.855   4.562 -0.4925 -0.8791 -0.5539
   94MOL0     C12290   5.872   5.977   4.467  0.3851  0.4894  0.3544
   94MOL0     C12291   5.814   5.943   4.331  0.7096  0.1708  0.0748
   94MOL0     C12292   5.666   5.943   4.319  0.1810  0.3585  0.4400
   94MOL0     N12293   5.630   5.841   4.217  0.2702  0.1871  1.0299
   94MOL0     C12294   5.562   5.866   4.096 -0.8358 -0.2006 -0.1733
   94MOL0     C12295   5.500   5.753   4.054 -0.2275  1.0182 -0.6832
   94MOL0     C12296   5.410   5.738   3.938 -0.1634  0.2433  0.4396
   94MOL0     C12297   5.325   5.601   3.941  0.1679 -0.1676  0.3008
   94MOL0     C12298   5.192   5.611   4.023  0.3562 -0.1116  0.9915
   94MOL0     C12299   5.072   5.705   3.972 -0.4912  0.5541  0.2783
   94MOL0     O12300   5.088   5.839   3.994 -0.3847 -1.1378  0.9328
   94MOL0     C12301   4.977   5.918   3.959 -0.3588 -0.1742  0.0260
   94MOL0     C12302   4.965   6.048   4.003  0.2731 -0.0960  0.5351
   94MOL0     C12303   4.862   6.134   3.964  0.0244  0.0058 -0.3573
   94MOL0     C12304   4.756   6.081   3.894 -0.7026 -0.6725 -0.0403
   94MOL0     C12305   4.643   6.166   3.875  0.2452 -1.0628 -0.2483
   94MOL0     O12306   4.519   6.118   3.920  0.1881  0.0327 -0.0342
   94MOL0     C12307   4.407   6.192   3.902  0.2601 -0.2392  0.2983
   94MOL0     C12308   4.297   6.156   3.981 -0.1628  0.0866  0.4308
   94MOL0     C12309   4.173   6.225   3.975 -0.0341 -0.1162  1.0575
   94MOL0     C12310   4.158   6.332   3.883 -0.8008 -0.9320 -0.3126
   94MOL0     O12311   4.042   6.407   3.866  0.8891  0.5344  0.5165
   94MOL0     C12312   3.917   6.327   3.858 -0.0300  0.3499  0.9140
   94MOL0     C12313   3.800   6.389   3.774 -0.2886  0.6969 -0.2821
   94MOL0     C12314   3.676   6.298   3.805 -0.7512  0.5055  0.6041
   94MOL0     C12315   3.571   6.330   3.694 -0.8751  0.1046 -0.0221
   94MOL0     C12316   3.439   6.262   3.722  0.4127 -0.5986 -0.0039
   94MOL0     C12317   3.348   6.306   3.602 -1.3171  0.7177 -0.7167
   94MOL0     C12318   3.205   6.286   3.624 -0.0827 -0.6807 -0.8553
   94MOL0     C12319   3.124   6.279   3.499  0.0807 -0.0453  0.6274
   94MOL0    Cl12320   2.961   6.234   3.558  0.6091 -0.2205  0.1310
   94MOL0     C12321   4.275   6.369   3.804  0.6930  0.1818  0.5042
   94MOL0     C12322   4.389   6.293   3.803 -0.2226 -0.3998  0.0086
   94MOL0     O12323   4.671   6.286   3.831 -0.0305  0.6185 -0.3010
   94MOL0     C12324   4.764   5.944   3.854 -0.1708  0.4697 -0.3406
   94MOL0     C12325   4.884   5.870   3.875  0.6507  0.1426  0.6023
   94MOL0     N12326   5.557   5.653   4.135  0.7427 -0.6396  0.4758
   94MOL0     N12327   5.624   5.706   4.235 -0.7203 -0.8023  0.5086
   94MOL0     C12328   6.528   5.622   4.836 -0.5758  1.6688 -0.1202
   94MOL0     C12329   6.671   5.644   4.849  0.3636 -0.3015  0.1290
   94MOL0     C12330   7.113   5.752   4.723 -0.1403  0.2960 -0.6003
   94MOL0     C12331   7.244   5.718   4.671 -0.4579 -0.6222  0.1159
   94MOL0     C12332   7.361   5.796   4.690  0.5068  0.8113 -0.5519
   94MOL0     C12333   7.354   5.913   4.763  0.1408  0.5651  0.5226
   94MOL0     O12334   7.456   5.999   4.788  0.4491 -0.1577  0.3374
   94MOL0     C12335   7.502   6.074   4.674  0.2304 -0.4901 -0.2320
   94MOL0     C12336   7.536   6.212   4.716  0.1819 -0.2275 -0.0142
   94MOL0     C12337   7.416   6.297   4.750 -0.3463 -0.8697  0.5939
   94MOL0     C12338   7.471   6.425   4.805 -0.0942  0.6380  0.8210
   94MOL0     C12339   7.361   6.514   4.855 -0.6774 -0.0890 -0.8361
   94MOL0     C12340   7.281   6.577   4.918  0.0826 -0.1232  0.3314
   94MOL0     C12341   7.239   5.943   4.830 -0.3682 -0.0708 -0.0149
   94MOL0     C12342   7.119   5.874   4.801 -0.1725  0.1962  0.0146
   94MOL0     H12343   6.775   5.613   4.538  0.1591 -1.8109 -0.4766
   94MOL0     H12344   6.526   5.564   4.499 -0.6991  1.5323 -0.2023
   94MOL0     H12345   6.353   5.686   4.509 -0.1752  1.6160 -0.2335
   94MOL0     H12346   6.303   5.758   4.670 -1.4181 -2.1758  1.7310
   94MOL0     H12347   6.110   5.566   4.639  0.0378 -1.6024 -0.8041
   94MOL0     H12348   6.160   5.582   4.472  2.4693 -0.8000  0.6932
   94MOL0     H12349   6.123   5.815   4.452 -2.5143  0.1440 -1.4583
   94MOL0     H12350   6.095   5.824   4.629 -2.0363 -0.6602  1.2991
   94MOL0     H12351   5.920   5.706   4.423 -2.4761  0.4152  1.0427
   94MOL0     H12352   5.914   5.650   4.587  0.1426  0.0665  1.7816
   94MOL0     H12353   5.892   5.882   4.663 -1.2545 -1.5021 -0.1432
   94MOL0     H12354   5.755   5.837   4.579 -0.8974  2.3881  1.0609
   94MOL0     H12355   5.973   6.018   4.466 -0.1033  1.7254 -0.2423
   94MOL0     H12356   5.814   6.058   4.512 -0.1547 -0.9187  2.3273
   94MOL0     H12357   5.852   6.023   4.267  1.0495 -0.4200 -0.4833
   94MOL0     H12358   5.839   5.840   4.301 -0.9503 -0.7203  1.5793
   94MOL0     H12359   5.628   6.039   4.285 -2.2087 -0.2799  1.1070
   94MOL0     H12360   5.625   5.920   4.417  0.0704 -2.8064 -0.2415
   94MOL0     H12361   5.554   5.961   4.045 -0.5540 -1.1008 -1.9437
   94MOL0     H12362   5.453   5.747   3.838 -2.0559  2.1076 -0.2729
   94MOL0     H12363   5.346   5.826   3.934 -0.0607  0.2787 -0.5941
   94MOL0     H12364   5.387   5.516   3.975 -0.1925 -1.4251 -2.0108
   94MOL0     H12365   5.308   5.556   3.843  3.7726  1.1160 -1.1135
   94MOL0     H12366   5.151   5.509   4.020  0.2681 -0.0570 -0.9045
   94MOL0     H12367   5.206   5.633   4.129 -0.9035  4.7074  0.3687
   94MOL0     H12368   4.983   5.683   4.031 -0.3895 -0.4707  0.0568
   94MOL0     H12369   5.062   5.675   3.868  1.1440 -0.9731  0.5117
   94MOL0     H12370   5.048   6.096   4.054 -0.6088  3.1901 -0.8697
   94MOL0     H12371   4.854   6.237   3.998 -0.4945  0.3180 -1.3760
   94MOL0     H12372   4.305   6.062   4.036  1.7093 -1.9146 -2.9456
   94MOL0     H12373   4.080   6.204   4.028 -1.3067 -0.8161 -1.2940
   94MOL0     H12374   3.867   6.294   3.950  0.0114 -0.0552  0.7949
   94MOL0     H12375   3.945   6.234   3.808 -1.1104  0.8638 -0.7273
   94MOL0     H12376   3.821   6.387   3.667 -1.1093 -1.8193 -0.4600
   94MOL0     H12377   3.779   6.493   3.801 -1.7767  0.5288 -0.7142
   94MOL0     H12378   3.631   6.329   3.900  2.0630 -1.4748  2.7364
   94MOL0     H12379   3.710   6.194   3.807  1.0590  0.9976  4.1289
   94MOL0     H12380   3.548   6.436   3.704 -0.5288  0.3512 -1.5278
   94MOL0     H12381   3.597   6.303   3.591 -0.3214  0.1540  0.1020
   94MOL0     H12382   3.400   6.302   3.816 -0.1712  3.2099 -1.6536
   94MOL0     H12383   3.442   6.154   3.741 -1.5354 -0.6871 -0.0492
   94MOL0     H12384   3.384   6.241   3.522  2.8294  2.7346 -0.7565
   94MOL0     H12385   3.373   6.406   3.565  1.4275  0.6837  0.8243
   94MOL0     H12386   3.182   6.201   3.689 -1.0248  0.0661 -0.1767
   94MOL0     H12387   3.175   6.371   3.687 -0.7523 -1.6405  0.1642
   94MOL0     H12388   3.172   6.195   3.449 -1.6764 -0.7449  0.0638
   94MOL0     H12389   3.126   6.378   3.451  0.6115 -0.3204  0.0729
   94MOL0     H12390   4.271   6.445   3.726  4.0705 -0.5266 -0.4749
   94MOL0     H12391   4.465   6.320   3.730  0.9118  3.8570  2.3908
   94MOL0     H12392   4.672   5.919   3.802 -1.3322 -1.2110  2.3074
   94MOL0     H12393   4.882   5.774   3.824  2.1830  1.1155 -1.4491
   94MOL0     H12394   6.462   5.634   4.921 -1.9133  1.4081 -1.0761
   94MOL0     H12395   6.694   5.676   4.950  1.0313 -0.9364  0.1884
   94MOL0     H12396   7.248   5.625   4.615  2.7516 -1.6214  1.7991
   94MOL0     H12397   7.456   5.782   4.639  1.7285 -0.5523  1.9378
   94MOL0     H12398   7.424   6.074   4.597  0.9765  1.8906 -1.0885
   94MOL0     H12399   7.585   6.018   4.628 -0.6684 -2.3890  0.3653
   94MOL0     H12400   7.606   6.206   4.800 -0.6931  1.2460  0.8595
   94MOL0     H12401   7.591   6.266   4.637 -0.6267 -1.4626 -1.4668
   94MOL0     H12402   7.355   6.253   4.830 -1.0619 -1.1006 -0.0663
   94MOL0     H12403   7.353   6.311   4.662  1.3083  1.2608 -0.3401
   94MOL0     H12404   7.534   6.401   4.891 -0.6305  0.1001  1.0696
   94MOL0     H12405   7.532   6.473   4.728  2.3589 -1.2351  1.4615
   94MOL0     H12406   7.211   6.635   4.975  0.5831 -0.4318  1.2910
   94MOL0     H12407   7.234   6.041   4.877  0.3444  0.6871 -1.4635
   94MOL0     H12408   7.027   5.905   4.850 -0.1405 -1.4524  1.1788
   95MOL0     O12409   5.566   0.226   6.057  0.3379 -0.0071 -0.2906
   95MOL0     C12410   5.678   0.196   6.020  0.0172 -0.3438  0.7235
   95MOL0     O12411   5.772   0.143   6.102  0.2482 -0.0649  0.1546
   95MOL0     C12412   5.732   0.096   6.225 -0.2743  0.9608 -0.0412
   95MOL0     C12413   5.783   0.163   6.346 -0.1376 -0.1710  0.1552
   95MOL0     C12414   5.729   0.136   6.465 -0.7706  0.2013  0.3387
   95MOL0     C12415   5.623   0.040   6.484  0.0945  0.2803  0.0452
   95MOL0     O12416   5.581   0.004   6.613  0.2783 -0.0550  0.2397
   95MOL0     C12417   5.448  -0.052   6.629 -0.1528 -0.2870 -0.4267
   95MOL0     C12418   5.357   0.065   6.590 -0.6579 -0.5455  0.1305
   95MOL0     C12419   5.338   0.176   6.703  0.0221 -0.4019 -0.1595
   95MOL0     C12420   5.301   0.125   6.843  0.1455  0.3175  0.6124
   95MOL0     C12421   5.349   0.220   6.949 -0.0976  0.3498 -0.6780
   95MOL0     C12422   5.301   0.165   7.088  0.0226  0.7081  0.3718
   95MOL0     C12423   5.364   0.243   7.200 -0.6149 -0.3392 -1.1065
   95MOL0     C12424   5.302   0.390   7.205  0.2694 -0.4735  0.6550
   95MOL0     N12425   5.159   0.386   7.248 -1.3615  0.2565 -0.3273
   95MOL0     C12426   5.052   0.379   7.174 -0.4886  0.1651 -0.1781
   95MOL0     C12427   4.951   0.365   7.255  0.8418 -0.6300  0.4727
   95MOL0     C12428   4.807   0.362   7.200  0.8027  0.6904 -0.4875
   95MOL0     C12429   4.739   0.487   7.158 -0.6212 -0.8576 -0.2139
   95MOL0     C12430   4.728   0.573   7.281  0.2216  0.8086  0.0721
   95MOL0     C12431   4.670   0.708   7.265  0.2647  0.1059  0.2748
   95MOL0     O12432   4.707   0.768   7.138 -0.0493 -0.6086 -1.0968
   95MOL0     C12433   4.637   0.865   7.073 -0.0222 -0.1175 -0.0913
   95MOL0     C12434   4.531   0.935   7.135  0.7240 -0.0337  0.1746
   95MOL0     C12435   4.466   1.040   7.070 -0.5344 -0.3732 -0.3553
   95MOL0     C12436   4.495   1.065   6.930  0.5265  0.5674 -1.3713
   95MOL0     C12437   4.409   1.154   6.853 -1.1493  0.3605  0.2008
   95MOL0     O12438   4.449   1.172   6.723 -0.0220 -0.0637  0.3014
   95MOL0     C12439   4.396   1.260   6.638 -1.1843 -0.2695  0.6155
   95MOL0     C12440   4.322   1.211   6.539  0.9365 -0.1100 -0.0759
   95MOL0     C12441   4.243   1.302   6.469  0.8225  0.6460  0.5548
   95MOL0     C12442   4.243   1.431   6.484 -0.9271  0.5417 -0.1647
   95MOL0     O12443   4.163   1.514   6.412  0.5810  0.2380  0.5271
   95MOL0     C12444   4.203   1.649   6.380 -0.1379  0.3125 -0.4907
   95MOL0     C12445   4.139   1.708   6.258 -0.0910  0.1421 -0.7189
   95MOL0     C12446   4.001   1.754   6.299 -0.5309 -0.2799 -0.8652
   95MOL0     C12447   3.937   1.838   6.189 -0.0529 -0.3485  0.2926
   95MOL0     C12448   3.834   1.937   6.238  0.6559  0.0477 -0.1332
   95MOL0     C12449   3.871   2.074   6.281 -0.6816  0.5538 -0.1002
   95MOL0     C12450   3.755   2.169   6.235  0.1749 -0.2053 -0.2596
   95MOL0     C12451   3.788   2.307   6.290  0.1711 -1.0670 -0.5503
   95MOL0    Cl12452   3.644   2.401   6.285  0.0110 -0.2644  0.2490
   95MOL0     C12453   4.321   1.487   6.587  0.5004 -0.1832  0.8926
   95MOL0     C12454   4.397   1.402   6.668 -0.1593 -0.1541  0.5023
   95MOL0     O12455   4.332   1.219   6.918  0.0364 -0.1243  0.3432
   95MOL0     C12456   4.614   1.001   6.878 -0.3062  0.3458 -0.4683
   95MOL0     C12457   4.686   0.905   6.952 -0.3445 -0.5861  0.9095
   95MOL0     N12458   4.995   0.352   7.388  0.3353  0.0438 -0.1597
   95MOL0     N12459   5.125   0.368   7.381 -1.1461 -0.1582 -0.3183
   95MOL0     C12460   5.576  -0.023   6.368 -0.4302  0.0807  0.1481
   95MOL0     C12461   5.639  -0.004   6.241  0.5117 -0.7542 -0.2486
   95MOL0     C12462   5.707   0.229   5.881 -0.4769 -0.3892 -0.5483
   95MOL0     C12463   5.609   0.252   5.784  0.4197  0.5233  0.1231
   95MOL0     C12464   5.646   0.299   5.649 -0.5733 -0.0806 -0.5449
   95MOL0     C12465   5.782   0.316   5.617 -0.0882 -0.0986 -0.1834
   95MOL0     O12466   5.830   0.343   5.487 -0.2582 -0.8862  0.2910
   95MOL0     C12467   5.732   0.378   5.388 -0.2718 -0.2289  0.5185
   95MOL0     C12468   5.790   0.399   5.248  0.0898 -0.2338 -0.8251
   95MOL0     C12469   5.835   0.267   5.198  0.5114 -1.3447 -0.2397
   95MOL0     C12470   5.918   0.286   5.064 -0.3278 -0.0702 -0.5641
   95MOL0     C12471   6.058   0.299   5.071 -0.0827  0.4649 -0.7321
   95MOL0     C12472   6.182   0.297   5.069  0.1436 -0.4014 -0.5164
   95MOL0     C12473   5.873   0.291   5.720 -0.0601 -0.7732 -0.3180
   95MOL0     C12474   5.837   0.250   5.846 -0.6880 -0.7084  0.7337
   95MOL0     H12475   5.838   0.257   6.334 -2.2421  1.3199  1.5366
   95MOL0     H12476   5.775   0.178   6.554  1.1020 -0.2716 -0.3611
   95MOL0     H12477   5.432  -0.082   6.733 -0.5243  1.0816 -0.0748
   95MOL0     H12478   5.441  -0.139   6.563 -0.8376 -0.2312 -0.4357
   95MOL0     H12479   5.260   0.018   6.573 -0.0426 -1.3497 -1.3686
   95MOL0     H12480   5.387   0.100   6.491  3.1513 -2.3840  0.4508
   95MOL0     H12481   5.249   0.231   6.671  2.1193  2.6828 -1.1267
   95MOL0     H12482   5.421   0.247   6.711  0.1239 -0.6733  1.4926
   95MOL0     H12483   5.193   0.109   6.847  0.2440 -0.2733  1.0893
   95MOL0     H12484   5.364   0.038   6.867  0.7242  0.3237 -0.7806
   95MOL0     H12485   5.319   0.321   6.921  2.0385  0.2448 -3.8758
   95MOL0     H12486   5.458   0.229   6.947  0.0981 -1.3460  0.8282
   95MOL0     H12487   5.322   0.058   7.103 -0.4387  0.7309  1.2354
   95MOL0     H12488   5.192   0.177   7.092 -0.1907 -1.0124  1.1203
   95MOL0     H12489   5.338   0.209   7.301 -1.2670  0.1453 -1.1047
   95MOL0     H12490   5.473   0.244   7.198 -0.5764  2.3134 -2.3855
   95MOL0     H12491   5.297   0.431   7.103  0.8390 -2.3185 -0.1554
   95MOL0     H12492   5.365   0.451   7.271 -0.4595 -1.5537  2.4198
   95MOL0     H12493   5.045   0.392   7.066 -1.4836 -1.4025 -0.3280
   95MOL0     H12494   4.734   0.315   7.266  1.6325 -0.7574 -0.5786
   95MOL0     H12495   4.815   0.286   7.122  2.6251 -0.2554  0.5551
   95MOL0     H12496   4.638   0.469   7.120 -2.3727 -0.6644  3.8110
   95MOL0     H12497   4.793   0.533   7.075 -2.2843 -1.0813 -1.4875
   95MOL0     H12498   4.661   0.532   7.358 -0.1358 -2.0709 -1.6148
   95MOL0     H12499   4.824   0.581   7.333 -1.7093 -1.3625  4.5237
   95MOL0     H12500   4.716   0.771   7.342  3.6814 -0.5331 -1.0266
   95MOL0     H12501   4.562   0.702   7.279  0.0296 -1.7339 -1.6457
   95MOL0     H12502   4.512   0.909   7.238 -0.6188  0.2157  0.0034
   95MOL0     H12503   4.388   1.099   7.119  0.9351 -0.7234  2.6369
   95MOL0     H12504   4.308   1.104   6.525 -1.0245 -0.3643  2.8415
   95MOL0     H12505   4.167   1.256   6.405  1.7781 -2.2927  1.3694
   95MOL0     H12506   4.310   1.646   6.357 -0.6844 -5.1997 -4.2102
   95MOL0     H12507   4.183   1.707   6.470 -1.4007 -2.3560  1.0478
   95MOL0     H12508   4.146   1.640   6.173  0.9456 -1.2547  0.4314
   95MOL0     H12509   4.201   1.796   6.237 -0.1722  0.6592  1.0297
   95MOL0     H12510   4.009   1.819   6.387 -0.1736  1.3048 -2.0121
   95MOL0     H12511   3.933   1.670   6.314 -1.6757  0.5341 -1.2941
   95MOL0     H12512   4.015   1.878   6.123  0.6753 -3.1033 -0.6554
   95MOL0     H12513   3.902   1.768   6.113  1.5108  2.4369 -3.3324
   95MOL0     H12514   3.775   1.884   6.314  3.0717 -4.7764 -1.2082
   95MOL0     H12515   3.771   1.949   6.150 -0.1680 -2.6699 -0.0150
   95MOL0     H12516   3.970   2.107   6.248 -0.0585  1.2489  2.2642
   95MOL0     H12517   3.870   2.078   6.390 -2.0612 -0.5445 -0.0480
   95MOL0     H12518   3.741   2.179   6.127  0.8440  2.8715 -0.1672
   95MOL0     H12519   3.658   2.133   6.270  0.7929 -1.2943  0.4011
   95MOL0     H12520   3.868   2.354   6.232 -2.2035  4.2005 -0.0647
   95MOL0     H12521   3.811   2.307   6.397 -2.0076  0.2815 -0.0383
   95MOL0     H12522   4.309   1.592   6.609 -1.0998 -0.0897 -0.2635
   95MOL0     H12523   4.457   1.445   6.747  0.1486  0.5246 -0.0840
   95MOL0     H12524   4.660   1.033   6.785  1.9121 -2.1665 -0.3638
   95MOL0     H12525   4.782   0.870   6.917 -1.2350  0.9016 -3.6612
   95MOL0     H12526   5.504  -0.104   6.368  0.3086 -0.6418 -1.6714
   95MOL0     H12527   5.597  -0.054   6.154 -0.2452  0.9327 -0.8948
   95MOL0     H12528   5.510   0.228   5.820  1.8437 -2.2154  2.6390
   95MOL0     H12529   5.560   0.304   5.584  0.6434  0.4389 -2.1831
   95MOL0     H12530   5.690   0.474   5.418 -0.8115  0.6332 -2.6208
   95MOL0     H12531   5.656   0.301   5.369  1.6055 -1.4556 -2.8596
   95MOL0     H12532   5.719   0.453   5.184 -0.7577 -0.5901 -0.2157
   95MOL0     H12533   5.887   0.446   5.267  1.4142 -3.6651  2.1751
   95MOL0     H12534   5.753   0.196   5.187  0.0232 -1.0698  1.3366
   95MOL0     H12535   5.905   0.221   5.268  1.3645  1.1883  0.6974
   95MOL0     H12536   5.907   0.197   5.001  3.6310 -0.2065 -1.2995
   95MOL0     H12537   5.886   0.370   5.001  1.2188  0.6463 -0.4310
   95MOL0     H12538   6.289   0.288   5.065  0.2904 -0.2096  1.7678
   95MOL0     H12539   5.976   0.317   5.698 -0.0304  2.5478  2.8244
   95MOL0     H12540   5.922   0.239   5.913  2.2089  0.2518 -2.4475
   96MOL0     O12541   0.233   0.064  10.037  0.2574  0.4343 -0.4405
   96MOL0     C12542   0.166   0.027   9.939  0.0861  0.0479  0.1401
   96MOL0     O12543   0.214   0.011   9.803 -0.0615  0.0508 -0.2304
   96MOL0     C12544   0.350  -0.004   9.783 -0.6210  0.0471 -0.1188
   96MOL0     C12545   0.454  -0.024   9.875 -0.1838 -0.4990 -0.4405
   96MOL0     C12546   0.588  -0.040   9.840 -0.9248 -1.0582 -0.1593
   96MOL0     C12547   0.628  -0.047   9.702  0.1619 -0.2541  0.1461
   96MOL0     O12548   0.763  -0.062   9.692  0.5355  0.2822  0.2740
   96MOL0     C12549   0.826  -0.073   9.566  0.0740 -0.6646 -0.5436
   96MOL0     C12550   0.915   0.041   9.519 -0.5321 -0.1645  0.4807
   96MOL0     C12551   1.041   0.082   9.606 -0.0072 -0.6004  0.0750
   96MOL0     C12552   1.117   0.203   9.549  0.5868 -0.2544  0.4651
   96MOL0     C12553   1.203   0.294   9.644 -0.6678 -0.7450 -1.0766
   96MOL0     C12554   1.300   0.220   9.729  0.3395  1.0269 -0.1937
   96MOL0     C12555   1.393   0.313   9.811  0.8870 -0.7502  0.7237
   96MOL0     C12556   1.461   0.245   9.926  0.1452 -0.9907  0.2157
   96MOL0     N12557   1.499   0.353  10.019 -0.3871 -0.1192  0.2124
   96MOL0     C12558   1.624   0.415  10.021 -0.2579 -0.6843  0.6946
   96MOL0     C12559   1.620   0.475  10.146  0.7864 -0.3598 -0.9137
   96MOL0     C12560   1.704   0.582  10.215 -0.0459  0.3837 -0.1791
   96MOL0     C12561   1.668   0.724  10.161 -0.0052  0.2045 -0.5141
   96MOL0     C12562   1.541   0.772  10.210  0.8006  0.3540  0.8140
   96MOL0     C12563   1.540   0.916  10.255 -0.3025  0.7646 -0.2856
   96MOL0     O12564   1.416   0.977  10.218 -0.1439  0.4266 -1.0845
   96MOL0     C12565   1.306   0.953  10.303  0.0098 -0.2747 -0.6868
   96MOL0     C12566   1.311   0.897  10.432  0.0615  0.4763  0.1276
   96MOL0     C12567   1.186   0.864  10.492 -0.2220 -0.0629 -0.3566
   96MOL0     C12568   1.067   0.910  10.436 -0.8055 -0.1959 -1.0927
   96MOL0     C12569   0.942   0.892  10.519  0.0371 -0.1890  0.3394
   96MOL0     O12570   0.833   0.836  10.460 -0.2600 -0.7034 -0.0731
   96MOL0     C12571   0.722   0.851  10.535  0.3430 -0.6453 -0.8757
   96MOL0     C12572   0.658   0.977  10.551  0.3587  0.3403  0.1054
   96MOL0     C12573   0.539   0.981  10.626  0.0031  0.3170  0.2799
   96MOL0     C12574   0.492   0.862  10.685  0.5492  0.4629  0.8869
   96MOL0     O12575   0.389   0.866  10.772  0.6328  0.0841  0.4938
   96MOL0     C12576   0.391   0.969  10.873 -0.1753 -0.2644  0.4199
   96MOL0     C12577   0.302   0.932  10.984 -0.2776 -0.2066  0.2770
   96MOL0     C12578   0.148   0.940  10.931  0.3427 -0.4742 -0.5456
   96MOL0     C12579   0.042   0.917  11.039 -0.0555 -0.0306 -0.3652
   96MOL0     C12580  -0.095   0.924  10.972 -0.4941  0.3885 -0.2930
   96MOL0     C12581  -0.195   0.905  11.085 -0.0067 -0.0600  0.2946
   96MOL0     C12582  -0.340   0.906  11.036  0.0949  0.5821  0.2925
   96MOL0     C12583  -0.428   0.934  11.156  0.1188 -0.6341  0.4139
   96MOL0    Cl12584  -0.398   1.090  11.237  0.0062  0.2812  0.0707
   96MOL0     C12585   0.549   0.738  10.663  0.0825 -0.6477  0.0327
   96MOL0     C12586   0.669   0.740  10.590  0.3825 -0.2595 -0.7644
   96MOL0     O12587   0.953   0.915  10.643  0.1865 -0.7632 -0.1212
   96MOL0     C12588   1.063   0.960  10.308 -0.5364 -0.5541 -0.1697
   96MOL0     C12589   1.183   0.980  10.246 -0.0829 -0.0667 -0.6140
   96MOL0     N12590   1.500   0.451  10.213  0.1618 -0.5991 -0.0391
   96MOL0     N12591   1.430   0.373  10.135  0.8314 -0.6575 -0.3818
   96MOL0     C12592   0.525  -0.030   9.604 -0.5647 -0.0577  0.4958
   96MOL0     C12593   0.389  -0.010   9.646  1.1233  0.3243  0.0740
   96MOL0     C12594   0.019   0.020   9.958  0.0825  0.3517  0.3667
   96MOL0     C12595  -0.075  -0.007   9.853 -0.1308  0.4422 -0.7593
   96MOL0     C12596  -0.217  -0.022   9.872  0.3721 -0.0897  0.2036
   96MOL0     C12597  -0.265  -0.040  10.005  0.1442 -0.4236 -0.1986
   96MOL0     O12598  -0.389  -0.085  10.014  0.5635 -0.5793 -0.9915
   96MOL0     C12599  -0.460  -0.073  10.137 -0.5100 -0.6836 -0.3321
   96MOL0     C12600  -0.592  -0.148  10.137  0.3288 -0.2560  0.1484
   96MOL0     C12601  -0.595  -0.299  10.163  0.9406  0.4960 -0.1065
   96MOL0     C12602  -0.740  -0.357  10.123 -0.3150 -0.7942 -0.1139
   96MOL0     C12603  -0.840  -0.300  10.214 -0.7759  0.0111 -0.6819
   96MOL0     C12604  -0.908  -0.261  10.302 -1.2944  0.2831 -0.2051
   96MOL0     C12605  -0.174  -0.020  10.110  0.0399  0.7353 -0.2467
   96MOL0     C12606  -0.038   0.006  10.081 -0.4036 -0.1301 -0.5826
   96MOL0     H12607   0.430  -0.022   9.981 -1.0129 -0.1388 -0.6257
   96MOL0     H12608   0.667  -0.045   9.915 -0.3762  0.0036 -0.6513
   96MOL0     H12609   0.750  -0.094   9.490 -0.3411 -0.5295 -0.1702
   96MOL0     H12610   0.889  -0.163   9.574  0.9498 -0.0945 -0.9282
   96MOL0     H12611   0.848   0.125   9.498  0.9440  0.6300 -1.3475
   96MOL0     H12612   0.950   0.005   9.422  1.3403 -0.8652  1.3735
   96MOL0     H12613   1.098  -0.009   9.628 -1.4719 -1.3268  1.0205
   96MOL0     H12614   1.000   0.118   9.701  2.5995 -0.5618  1.2604
   96MOL0     H12615   1.184   0.164   9.471 -0.4514 -1.2293  0.0310
   96MOL0     H12616   1.044   0.272   9.508 -2.4701 -1.6127  3.2111
   96MOL0     H12617   1.138   0.353   9.710  1.9522  0.7403  0.3276
   96MOL0     H12618   1.258   0.374   9.593 -0.9175  1.9700  2.4604
   96MOL0     H12619   1.357   0.155   9.662 -0.6940  0.6203 -0.6845
   96MOL0     H12620   1.241   0.155   9.794 -1.5036  0.1795 -2.5915
   96MOL0     H12621   1.466   0.359   9.743  0.4689 -0.2230  0.6266
   96MOL0     H12622   1.331   0.392   9.854  1.7020  1.1864 -1.4163
   96MOL0     H12623   1.541   0.176   9.898 -1.3367 -3.0680  0.8456
   96MOL0     H12624   1.390   0.193   9.990 -1.6044  3.5015  2.3935
   96MOL0     H12625   1.689   0.426   9.935 -1.3934  1.8655  0.0695
   96MOL0     H12626   1.806   0.557  10.184 -0.1543 -1.8963  1.0514
   96MOL0     H12627   1.680   0.555  10.318  0.3472 -1.1548 -0.4595
   96MOL0     H12628   1.652   0.716  10.053 -1.2801 -3.0366 -0.1786
   96MOL0     H12629   1.748   0.792  10.191 -1.1127  0.3528  2.4690
   96MOL0     H12630   1.478   0.773  10.121  2.7332  1.0274 -0.6034
   96MOL0     H12631   1.497   0.715  10.292 -2.2210  0.2378 -0.7687
   96MOL0     H12632   1.619   0.962  10.195  1.6830 -1.1736  0.7142
   96MOL0     H12633   1.561   0.920  10.362 -0.9940 -1.8441  0.0011
   96MOL0     H12634   1.407   0.880  10.480  2.2466  0.3373 -3.8784
   96MOL0     H12635   1.193   0.820  10.592 -0.1207 -0.9332 -0.7391
   96MOL0     H12636   0.693   1.067  10.501 -3.4327  1.6392 -0.5347
   96MOL0     H12637   0.481   1.073  10.626  1.9483  1.7234 -3.3750
   96MOL0     H12638   0.339   1.056  10.833  0.7861  0.6521  1.1331
   96MOL0     H12639   0.491   0.999  10.905  1.5347 -2.9917 -1.8568
   96MOL0     H12640   0.307   1.008  11.063  1.0170 -1.6100  1.6314
   96MOL0     H12641   0.325   0.837  11.033 -2.8603 -1.5987 -0.9984
   96MOL0     H12642   0.136   0.870  10.847 -1.0755 -1.6150  0.5509
   96MOL0     H12643   0.141   1.047  10.909  2.6145 -0.3417 -0.8933
   96MOL0     H12644   0.049   0.824  11.096 -0.8828  1.5067  2.4011
   96MOL0     H12645   0.047   0.996  11.114 -2.7445  0.6297 -0.7965
   96MOL0     H12646  -0.113   0.845  10.900 -1.6736  0.7414 -0.4084
   96MOL0     H12647  -0.108   1.015  10.912 -0.5959 -0.3205 -1.3640
   96MOL0     H12648  -0.182   0.985  11.159 -0.2243  1.6607 -1.4691
   96MOL0     H12649  -0.183   0.815  11.146 -1.2841  0.9440  2.1101
   96MOL0     H12650  -0.349   0.988  10.965  0.8252 -0.3571 -0.9196
   96MOL0     H12651  -0.379   0.811  10.996 -1.8120  0.3875  2.3772
   96MOL0     H12652  -0.424   0.852  11.228  0.6844 -1.8286 -0.9358
   96MOL0     H12653  -0.530   0.938  11.116  0.6128 -0.5792 -0.8713
   96MOL0     H12654   0.489   0.653  10.695  0.4814 -1.3668 -1.0803
   96MOL0     H12655   0.727   0.651  10.568 -2.1112 -1.1109 -4.7671
   96MOL0     H12656   0.974   0.981  10.249  0.6689  0.9985 -1.5384
   96MOL0     H12657   1.181   1.026  10.148 -1.7569  1.3139  0.0104
   96MOL0     H12658   0.555  -0.021   9.500 -0.0097  1.1769  0.7422
   96MOL0     H12659   0.323   0.008   9.561 -0.2175  0.1606  1.0433
   96MOL0     H12660  -0.044  -0.016   9.750  0.9467 -0.1351 -0.4048
   96MOL0     H12661  -0.278  -0.038   9.783  1.7315  0.0251 -0.7732
   96MOL0     H12662  -0.469   0.035  10.154  5.0646  0.3354 -1.7112
   96MOL0     H12663  -0.394  -0.110  10.216  1.1834 -1.6818 -2.1025
   96MOL0     H12664  -0.649  -0.104  10.220  0.0759  0.2984 -0.3076
   96MOL0     H12665  -0.647  -0.126  10.045 -0.1677 -0.2602  0.4390
   96MOL0     H12666  -0.572  -0.314  10.269 -2.5144  0.2690  0.7556
   96MOL0     H12667  -0.513  -0.345  10.109  3.2227  1.2848  2.4511
   96MOL0     H12668  -0.766  -0.337  10.019 -1.3653  2.1791  0.6320
   96MOL0     H12669  -0.755  -0.465  10.128 -1.7631 -0.5618  1.1072
   96MOL0     H12670  -0.958  -0.218  10.387 -1.2628  2.1039 -1.0506
   96MOL0     H12671  -0.203  -0.032  10.214 -0.6730 -1.1005 -0.6169
   96MOL0     H12672   0.027   0.008  10.167 -0.0451  1.0299 -0.8632
   97MOL0     O12673   3.826   6.284   5.711  0.3979  0.3337 -0.1958
   97MOL0     C12674   3.870   6.329   5.609 -0.6131 -0.2899  0.1117
   97MOL0     O12675   3.798   6.393   5.511  0.4621 -0.2645  0.4790
   97MOL0     C12676   3.660   6.413   5.512 -0.8577 -0.6552  0.3631
   97MOL0     C12677   3.604   6.392   5.385  0.2440  0.8028 -0.2978
   97MOL0     C12678   3.465   6.387   5.371 -0.5202 -0.4768  0.3861
   97MOL0     C12679   3.379   6.412   5.481 -0.0072  0.4284  0.0407
   97MOL0     O12680   3.241   6.383   5.459  0.0014 -0.3260 -0.7606
   97MOL0     C12681   3.146   6.457   5.538  0.6271  0.3464  0.5192
   97MOL0     C12682   3.004   6.413   5.498  0.0551  0.3815  0.5994
   97MOL0     C12683   2.890   6.460   5.580  0.2532 -0.2707 -0.5464
   97MOL0     C12684   2.750   6.450   5.516 -0.2239 -0.4360 -0.3479
   97MOL0     C12685   2.644   6.506   5.605 -0.3219 -0.5936  0.5652
   97MOL0     C12686   2.612   6.416   5.720  0.2161 -0.5843  0.4759
   97MOL0     C12687   2.488   6.481   5.786 -0.3493 -0.0214 -0.5023
   97MOL0     C12688   2.356   6.445   5.715  0.3491 -0.0013  0.6813
   97MOL0     N12689   2.242   6.493   5.803  0.1396  1.0254  0.1990
   97MOL0     C12690   2.155   6.599   5.768  0.7967  1.0395 -0.5995
   97MOL0     C12691   2.036   6.576   5.823 -0.3854  0.9410  0.3401
   97MOL0     C12692   1.910   6.652   5.795 -0.1666 -0.0129  1.0042
   97MOL0     C12693   1.782   6.601   5.860  0.4365 -0.3988  0.4656
   97MOL0     C12694   1.713   6.483   5.785  0.4983 -0.0941  0.1102
   97MOL0     C12695   1.561   6.484   5.805 -0.6608 -0.7455  0.1675
   97MOL0     O12696   1.514   6.590   5.716 -0.1676  0.6665  0.4667
   97MOL0     C12697   1.378   6.616   5.733  0.0842 -0.0571  0.3880
   97MOL0     C12698   1.324   6.694   5.632 -0.0868 -0.2786  0.5525
   97MOL0     C12699   1.187   6.720   5.630 -0.3892 -0.0844 -0.5259
   97MOL0     C12700   1.103   6.658   5.722 -0.4391 -0.8078  1.0105
   97MOL0     C12701   0.960   6.678   5.711 -0.6840  0.3602 -0.4193
   97MOL0     O12702   0.907   6.752   5.606  0.0914 -0.6708 -0.3222
   97MOL0     C12703   0.778   6.796   5.616  0.0381 -0.0468 -0.1068
   97MOL0     C12704   0.721   6.872   5.721 -1.3498 -0.1926 -1.1585
   97MOL0     C12705   0.589   6.923   5.713  0.2988  0.8517 -0.0880
   97MOL0     C12706   0.520   6.919   5.594  0.0347  0.1007 -0.0042
   97MOL0     O12707   0.399   6.990   5.587  0.2641 -0.0680  0.0836
   97MOL0     C12708   0.299   6.955   5.495 -0.7293 -0.6293 -0.6679
   97MOL0     C12709   0.201   6.863   5.572 -1.1732 -0.6572 -0.4731
   97MOL0     C12710   0.148   6.926   5.697 -0.5780 -0.1510 -1.1807
   97MOL0     C12711   0.054   6.816   5.761  0.4357  0.4849 -0.9070
   97MOL0     C12712  -0.014   6.858   5.889  0.8675  0.3085  0.0278
   97MOL0     C12713  -0.127   6.757   5.931 -0.4355  0.3443  0.4220
   97MOL0     C12714  -0.196   6.808   6.060  0.3404 -0.1724  0.1396
   97MOL0     C12715  -0.132   6.766   6.190  0.0085 -0.1763  0.2262
   97MOL0    Cl12716  -0.212   6.860   6.315 -0.3277  0.6866 -0.2108
   97MOL0     C12717   0.578   6.847   5.489  0.0538  1.1066  0.1766
   97MOL0     C12718   0.705   6.780   5.503 -0.0025 -0.6222 -0.7426
   97MOL0     O12719   0.893   6.616   5.795  0.3608  0.6834 -0.6195
   97MOL0     C12720   1.155   6.570   5.820  0.3008  1.2959 -1.1839
   97MOL0     C12721   1.290   6.553   5.831  0.1739  0.6538 -0.9357
   97MOL0     N12722   2.043   6.467   5.905 -0.5957 -0.1329 -0.1846
   97MOL0     N12723   2.162   6.417   5.880  0.4873 -0.0109  0.5374
   97MOL0     C12724   3.439   6.458   5.602  1.0905 -0.0386  0.3711
   97MOL0     C12725   3.580   6.459   5.612  0.4069 -0.8578 -0.0247
   97MOL0     C12726   4.014   6.320   5.598  0.5125 -0.5376 -0.8471
   97MOL0     C12727   4.102   6.429   5.591  0.6856 -0.2138  0.4164
   97MOL0     C12728   4.239   6.413   5.596 -0.2660  0.7855 -0.0775
   97MOL0     C12729   4.303   6.291   5.628 -0.5478 -0.6212 -0.5095
   97MOL0     O12730   4.444   6.274   5.625 -0.1943 -0.0238  0.3094
   97MOL0     C12731   4.532   6.365   5.544 -0.4551  0.3375 -0.1704
   97MOL0     C12732   4.685   6.347   5.574 -0.4466 -0.5242 -1.0540
   97MOL0     C12733   4.774   6.461   5.515  0.7311  0.3304  0.1236
   97MOL0     C12734   4.757   6.598   5.579  0.2306  0.0933 -0.0031
   97MOL0     C12735   4.816   6.590   5.720  0.1134  0.2238 -0.2743
   97MOL0     C12736   4.862   6.577   5.831 -0.4594  0.6220  0.6792
   97MOL0     C12737   4.217   6.181   5.637 -0.2075 -1.2113 -0.9325
   97MOL0     C12738   4.080   6.197   5.629 -0.0446 -0.6881 -0.1651
   97MOL0     H12739   3.669   6.372   5.300  3.0211 -2.3915  2.3297
   97MOL0     H12740   3.419   6.356   5.277  0.8141 -0.6122 -0.2432
   97MOL0     H12741   3.164   6.563   5.515  1.9707 -0.0564 -0.4608
   97MOL0     H12742   3.156   6.438   5.645 -1.3484 -1.6264  0.4229
   97MOL0     H12743   3.003   6.303   5.495  0.2830  0.3913 -1.4521
   97MOL0     H12744   2.994   6.448   5.395 -1.3031 -0.7351  0.3118
   97MOL0     H12745   2.913   6.562   5.615  1.4797 -0.7140 -0.0129
   97MOL0     H12746   2.893   6.407   5.676 -0.9533  0.4357 -0.0833
   97MOL0     H12747   2.750   6.513   5.427  2.0056 -1.6651 -1.3039
   97MOL0     H12748   2.720   6.346   5.496 -1.6951 -0.6174  2.2861
   97MOL0     H12749   2.559   6.520   5.539 -0.3352 -2.3580  0.1838
   97MOL0     H12750   2.673   6.606   5.641 -3.5094  0.3577  0.8210
   97MOL0     H12751   2.678   6.400   5.805  1.9109 -0.6449 -0.8015
   97MOL0     H12752   2.582   6.314   5.694  1.9774 -1.1727  0.6636
   97MOL0     H12753   2.484   6.454   5.892  2.1970  0.1351 -0.3128
   97MOL0     H12754   2.493   6.590   5.784  1.9883 -0.0979 -1.1290
   97MOL0     H12755   2.354   6.336   5.709  1.8496 -0.0194  0.2112
   97MOL0     H12756   2.358   6.498   5.619  1.0654  1.1980  1.3306
   97MOL0     H12757   2.177   6.680   5.698  2.5509  0.2722 -0.9794
   97MOL0     H12758   1.897   6.648   5.686  1.6189 -0.7530  0.7836
   97MOL0     H12759   1.928   6.759   5.805 -2.3255  0.8577 -2.4982
   97MOL0     H12760   1.705   6.678   5.870 -0.1434 -0.9628  0.4489
   97MOL0     H12761   1.803   6.574   5.964 -1.2648 -1.0340  0.6741
   97MOL0     H12762   1.753   6.474   5.684  0.9423  1.3539  0.1395
   97MOL0     H12763   1.755   6.391   5.826  3.0620  1.3551  0.9585
   97MOL0     H12764   1.558   6.493   5.914 -1.7202 -3.2273  0.4107
   97MOL0     H12765   1.518   6.387   5.780  0.8049 -0.8402 -2.3460
   97MOL0     H12766   1.388   6.728   5.552 -1.1974 -1.8855 -1.1112
   97MOL0     H12767   1.147   6.783   5.551 -0.4670  1.8683  0.9869
   97MOL0     H12768   0.778   6.903   5.808  0.0083  2.8517 -2.9415
   97MOL0     H12769   0.542   6.970   5.799  2.1627  1.2072  0.7900
   97MOL0     H12770   0.341   6.903   5.408  0.7867 -1.0217  0.2604
   97MOL0     H12771   0.245   7.041   5.455 -0.8178 -1.5950 -2.7683
   97MOL0     H12772   0.243   6.764   5.592  1.5679  0.3894 -0.4854
   97MOL0     H12773   0.124   6.842   5.497 -0.2663  1.2334 -2.0286
   97MOL0     H12774   0.101   7.022   5.676  2.5081  2.4110  2.3865
   97MOL0     H12775   0.228   6.937   5.771 -0.6598  1.9353 -1.3363
   97MOL0     H12776  -0.022   6.794   5.685 -0.7379 -1.9432  0.8444
   97MOL0     H12777   0.100   6.717   5.758  1.6160  1.0249 -2.7832
   97MOL0     H12778  -0.056   6.957   5.868 -2.1024 -1.3668 -2.7799
   97MOL0     H12779   0.065   6.877   5.962  2.9921  1.1709 -2.3472
   97MOL0     H12780  -0.079   6.660   5.951 -1.2144 -0.0838  0.2586
   97MOL0     H12781  -0.196   6.745   5.847  0.9930  0.8891 -0.8847
   97MOL0     H12782  -0.192   6.917   6.058 -1.2570 -0.0932 -0.2083
   97MOL0     H12783  -0.300   6.775   6.067 -0.0485  1.2057  1.4000
   97MOL0     H12784  -0.027   6.798   6.190  0.5706 -1.7918 -1.7153
   97MOL0     H12785  -0.127   6.657   6.203  0.2484 -0.6190 -2.8813
   97MOL0     H12786   0.531   6.839   5.392 -2.1421 -0.7762  1.2787
   97MOL0     H12787   0.755   6.740   5.415  0.5611 -1.4889 -0.0481
   97MOL0     H12788   1.097   6.523   5.899  2.7915  1.8383  1.0976
   97MOL0     H12789   1.319   6.501   5.922 -2.1469  0.1317 -0.4490
   97MOL0     H12790   3.379   6.481   5.690 -0.6868  2.5657 -1.3601
   97MOL0     H12791   3.620   6.454   5.713 -2.9738 -4.2964  1.3992
   97MOL0     H12792   4.071   6.532   5.578 -2.4842 -0.9029  1.7086
   97MOL0     H12793   4.302   6.499   5.575 -2.3502  2.1599 -0.9420
   97MOL0     H12794   4.513   6.471   5.559 -0.9577  0.4926 -1.7177
   97MOL0     H12795   4.518   6.339   5.438  1.9408  2.2869 -1.0771
   97MOL0     H12796   4.709   6.339   5.681  1.3044 -2.6517 -1.5276
   97MOL0     H12797   4.727   6.254   5.534 -0.1708 -1.2408  0.7759
   97MOL0     H12798   4.756   6.476   5.408 -1.3720  0.5880  0.4783
   97MOL0     H12799   4.877   6.424   5.527  0.1842 -1.4906 -0.4846
   97MOL0     H12800   4.800   6.670   5.508 -2.6140  0.6709 -1.2893
   97MOL0     H12801   4.654   6.636   5.578  0.3388  0.4300 -1.7189
   97MOL0     H12802   4.907   6.566   5.927  5.2273 -2.4602 -1.7981
   97MOL0     H12803   4.266   6.084   5.648  1.9484 -0.4684 -3.1258
   97MOL0     H12804   4.014   6.112   5.638 -0.4564 -0.3143  0.3641
   98MOL0     O12805  11.078   0.373   3.483 -0.4796  0.0831  0.3643
   98MOL0     C12806  11.155   0.369   3.578 -0.5604  0.6617  0.3223
   98MOL0     O12807  11.128   0.344   3.703 -0.2146  1.0448 -0.7125
   98MOL0     C12808  11.001   0.308   3.737 -0.2427  0.4797 -0.8823
   98MOL0     C12809  10.927   0.393   3.819  0.5895 -0.1164  0.1888
   98MOL0     C12810  10.791   0.373   3.847 -0.3960 -0.0478  0.0481
   98MOL0     C12811  10.721   0.269   3.787 -0.5056  0.2700 -0.5642
   98MOL0     O12812  10.590   0.245   3.818 -0.0550  0.3634  0.0315
   98MOL0     C12813  10.510   0.238   3.694 -0.1578  0.6824  0.3185
   98MOL0     C12814  10.358   0.208   3.725 -0.8966 -0.7185  0.4201
   98MOL0     C12815  10.348   0.077   3.806  0.0607  0.8889 -0.7372
   98MOL0     C12816  10.194   0.035   3.840 -0.6884 -0.5144 -0.1459
   98MOL0     C12817  10.095   0.020   3.721 -0.6077 -0.0352  0.7034
   98MOL0     C12818   9.972  -0.050   3.760  0.1306 -0.3798  0.5435
   98MOL0     C12819   9.885  -0.098   3.650  0.0337  0.4829 -0.4024
   98MOL0     C12820   9.775  -0.192   3.712  0.4072 -1.1201 -0.3618
   98MOL0     N12821   9.659  -0.232   3.631 -0.6211  0.3987 -0.0497
   98MOL0     C12822   9.574  -0.347   3.627 -0.3722  1.0575  0.3605
   98MOL0     C12823   9.477  -0.323   3.541 -0.1190  0.2122  0.7144
   98MOL0     C12824   9.388  -0.437   3.487 -0.1210 -0.1620  0.1806
   98MOL0     C12825   9.240  -0.405   3.497 -1.0820  0.2726 -0.5035
   98MOL0     C12826   9.192  -0.390   3.643  0.2806 -0.0371  0.5095
   98MOL0     C12827   9.168  -0.529   3.719 -0.2450  0.8854  0.6991
   98MOL0     O12828   9.112  -0.632   3.633 -0.2460  0.2149  0.1629
   98MOL0     C12829   8.982  -0.635   3.575 -0.4968 -0.3147  0.7251
   98MOL0     C12830   8.875  -0.564   3.627 -0.1140 -0.4620 -0.4096
   98MOL0     C12831   8.740  -0.586   3.572 -0.3213 -0.2566 -1.2809
   98MOL0     C12832   8.729  -0.646   3.453  0.0353 -0.1347 -0.2096
   98MOL0     C12833   8.590  -0.643   3.390  0.2065 -0.4723 -0.0885
   98MOL0     O12834   8.490  -0.583   3.462 -0.0551  0.6238  0.6451
   98MOL0     C12835   8.361  -0.574   3.410 -0.0846  0.3499 -0.4580
   98MOL0     C12836   8.252  -0.646   3.452 -0.9747 -0.2386  0.0244
   98MOL0     C12837   8.134  -0.638   3.388 -0.3411  0.6658 -0.6222
   98MOL0     C12838   8.114  -0.562   3.280  0.9264  0.2169  0.6524
   98MOL0     O12839   7.988  -0.564   3.212  0.0540  0.0512  0.0595
   98MOL0     C12840   7.982  -0.507   3.079  0.0339  0.4246  0.7676
   98MOL0     C12841   7.845  -0.523   3.005 -0.8498 -0.0139  0.0759
   98MOL0     C12842   7.727  -0.460   3.080  0.2995 -0.8574 -0.3473
   98MOL0     C12843   7.595  -0.444   3.000  0.6966  0.1675  0.7813
   98MOL0     C12844   7.472  -0.401   3.087 -0.0977  0.1009 -0.5849
   98MOL0     C12845   7.345  -0.395   2.998  0.7186  0.9700 -0.1473
   98MOL0     C12846   7.266  -0.525   3.000  0.8116 -0.0394 -0.3008
   98MOL0     C12847   7.145  -0.528   2.902  0.3208  0.2740  0.5802
   98MOL0    Cl12848   7.030  -0.413   2.958 -0.4018 -0.0212  0.0509
   98MOL0     C12849   8.202  -0.463   3.261  0.1355 -0.3149 -0.6113
   98MOL0     C12850   8.335  -0.474   3.319 -0.2338 -0.6416  0.1753
   98MOL0     O12851   8.570  -0.700   3.280  0.0191  0.9736 -0.1757
   98MOL0     C12852   8.840  -0.704   3.394  1.1516  0.2636 -0.1940
   98MOL0     C12853   8.966  -0.706   3.449 -0.6115  0.4512  0.1696
   98MOL0     N12854   9.500  -0.196   3.488  0.1307  0.3843  0.1717
   98MOL0     N12855   9.585  -0.140   3.559 -0.5142  0.5045 -0.5574
   98MOL0     C12856  10.802   0.176   3.716 -0.6536 -0.1291  0.3145
   98MOL0     C12857  10.937   0.192   3.689 -0.6243 -0.1353 -0.6116
   98MOL0     C12858  11.300   0.393   3.549 -1.1980 -0.9566  0.4233
   98MOL0     C12859  11.398   0.369   3.648 -0.6495  0.6509  0.3182
   98MOL0     C12860  11.533   0.398   3.632  0.2936 -0.1435 -0.1105
   98MOL0     C12861  11.580   0.440   3.503 -0.9482 -0.2646 -0.7523
   98MOL0     O12862  11.716   0.483   3.494 -0.2064  0.6191  0.3677
   98MOL0     C12863  11.821   0.444   3.591  0.2575  0.2484  0.4504
   98MOL0     C12864  11.961   0.496   3.541  0.6766 -0.2059 -0.1380
   98MOL0     C12865  11.987   0.455   3.397 -0.2556 -1.4603 -0.3135
   98MOL0     C12866  11.973   0.310   3.363  0.4108  0.2895  0.0078
   98MOL0     C12867  12.015   0.292   3.218  0.3330  0.0640  0.2972
   98MOL0     C12868  12.024   0.293   3.091  0.9375  0.6593  0.0971
   98MOL0     C12869  11.484   0.458   3.401 -0.1669  0.0691 -0.3757
   98MOL0     C12870  11.352   0.441   3.427  0.3273  0.3056  0.3195
   98MOL0     H12871  10.976   0.483   3.855 -0.6183  0.7394 -0.2451
   98MOL0     H12872  10.734   0.451   3.896  0.1789  1.8536 -2.1020
   98MOL0     H12873  10.544   0.151   3.637 -3.8142 -0.3520 -0.5622
   98MOL0     H12874  10.528   0.332   3.639  1.4134  0.0795 -0.2574
   98MOL0     H12875  10.315   0.182   3.628  2.8867 -0.6862 -1.4409
   98MOL0     H12876  10.304   0.291   3.772 -1.5178 -0.6725 -0.3613
   98MOL0     H12877  10.396   0.080   3.904 -2.0844 -0.1515  0.4259
   98MOL0     H12878  10.393  -0.004   3.747  1.4195  0.2021  1.1422
   98MOL0     H12879  10.184  -0.032   3.926  0.7262 -0.8291 -0.1981
   98MOL0     H12880  10.159   0.127   3.888 -0.9734  0.0388 -1.3714
   98MOL0     H12881  10.134  -0.046   3.643 -2.0423 -1.3566  1.0387
   98MOL0     H12882  10.072   0.117   3.676 -0.1266  0.1486  0.8524
   98MOL0     H12883   9.917   0.019   3.825 -0.7651 -3.2816  3.0977
   98MOL0     H12884   9.996  -0.143   3.813 -2.2420 -1.8835 -0.8730
   98MOL0     H12885   9.832  -0.010   3.612 -2.3666 -0.5806  0.2957
   98MOL0     H12886   9.939  -0.146   3.568 -1.8574 -1.6122 -0.5140
   98MOL0     H12887   9.728  -0.136   3.794  2.2869  0.1148 -0.0843
   98MOL0     H12888   9.821  -0.286   3.744 -1.6661 -1.6902  1.1659
   98MOL0     H12889   9.595  -0.442   3.676 -0.8807  0.7878  0.0645
   98MOL0     H12890   9.406  -0.533   3.537 -2.8200 -1.0895 -0.4620
   98MOL0     H12891   9.398  -0.454   3.379 -2.4344 -2.1850  0.2058
   98MOL0     H12892   9.188  -0.476   3.434 -2.7462  0.3296  0.7468
   98MOL0     H12893   9.230  -0.309   3.446 -3.0077 -0.6897 -2.0486
   98MOL0     H12894   9.252  -0.317   3.697 -4.9775  1.4793  5.1758
   98MOL0     H12895   9.098  -0.334   3.637 -0.6876 -1.7141 -0.9479
   98MOL0     H12896   9.101  -0.516   3.805 -3.0224 -0.7647 -1.0399
   98MOL0     H12897   9.257  -0.560   3.774 -0.6349  1.5057  1.7165
   98MOL0     H12898   8.890  -0.507   3.718 -0.1898  0.1074 -0.7493
   98MOL0     H12899   8.655  -0.555   3.631 -1.7026 -3.1276 -1.6118
   98MOL0     H12900   8.264  -0.718   3.532  3.9319  1.2604  1.0096
   98MOL0     H12901   8.048  -0.700   3.409 -1.6212  2.3046 -0.7750
   98MOL0     H12902   8.056  -0.549   3.011 -1.2106  1.5157 -1.3569
   98MOL0     H12903   7.986  -0.397   3.083 -2.2753  0.5980  0.0507
   98MOL0     H12904   7.831  -0.631   3.005  2.5536 -0.5491 -0.4961
   98MOL0     H12905   7.850  -0.491   2.901 -1.8126 -0.0086  0.0209
   98MOL0     H12906   7.765  -0.366   3.121 -1.0786 -1.6359  3.0914
   98MOL0     H12907   7.708  -0.525   3.167  0.8112 -2.4339 -1.3692
   98MOL0     H12908   7.600  -0.370   2.920  2.0212  1.0658  1.6613
   98MOL0     H12909   7.576  -0.544   2.960 -1.5993  1.1313 -0.7577
   98MOL0     H12910   7.489  -0.303   3.133  1.4316 -1.1605  1.7451
   98MOL0     H12911   7.455  -0.472   3.167  0.5291  0.4934 -0.0930
   98MOL0     H12912   7.366  -0.362   2.896 -1.1354  0.3932 -0.7676
   98MOL0     H12913   7.280  -0.320   3.044  1.3687  3.2321 -2.6629
   98MOL0     H12914   7.330  -0.612   2.981  3.7436  2.2245 -1.6476
   98MOL0     H12915   7.223  -0.554   3.096 -1.4789 -3.8480 -2.2434
   98MOL0     H12916   7.103  -0.628   2.894  1.8041 -0.3504  0.3015
   98MOL0     H12917   7.173  -0.496   2.801 -1.0858  0.1704  0.1327
   98MOL0     H12918   8.186  -0.382   3.192  3.5324 -1.2782 -2.8003
   98MOL0     H12919   8.412  -0.400   3.298  1.2416 -1.3348  2.6874
   98MOL0     H12920   8.809  -0.750   3.301 -1.0465  1.3525 -0.0697
   98MOL0     H12921   9.040  -0.764   3.394  0.2603 -1.8847  3.4663
   98MOL0     H12922  10.758   0.084   3.678 -1.3418  0.1350  0.4500
   98MOL0     H12923  10.997   0.119   3.636  1.9366  1.8053 -0.5903
   98MOL0     H12924  11.374   0.321   3.743 -1.3487 -1.9684 -1.0702
   98MOL0     H12925  11.603   0.383   3.713  0.1764  0.0511  0.0270
   98MOL0     H12926  11.832   0.336   3.598 -0.4456  0.0898 -0.5467
   98MOL0     H12927  11.805   0.487   3.690 -0.6116 -0.7666  0.7715
   98MOL0     H12928  11.952   0.605   3.536  0.6938 -0.2470 -1.4314
   98MOL0     H12929  12.046   0.467   3.603  1.6349  1.5519 -0.5430
   98MOL0     H12930  12.088   0.484   3.367  0.7649 -4.7076 -0.3818
   98MOL0     H12931  11.912   0.513   3.342 -2.0937  0.7412  3.9837
   98MOL0     H12932  12.043   0.252   3.424  0.7505  3.1141  2.5211
   98MOL0     H12933  11.869   0.280   3.374  0.6904 -0.6151  0.2670
   98MOL0     H12934  12.035   0.282   2.985  2.0048 -1.6270  0.3854
   98MOL0     H12935  11.521   0.490   3.304  0.4593  1.8538  0.4111
   98MOL0     H12936  11.289   0.459   3.341  1.7557 -0.7613 -1.0253
   99MOL0     O12937   8.556   4.910   2.087  0.3261  0.2677 -0.3604
   99MOL0     C12938   8.600   4.968   1.991 -0.1996 -0.2324  0.9725
   99MOL0     O12939   8.531   4.988   1.870 -0.4431  0.4457 -0.9257
   99MOL0     C12940   8.394   4.979   1.864 -0.0168 -0.5609 -0.0461
   99MOL0     C12941   8.308   5.040   1.963  0.8034  0.3626 -0.3166
   99MOL0     C12942   8.166   5.043   1.939  0.9895 -0.4558 -0.2445
   99MOL0     C12943   8.112   4.997   1.813  0.2828  0.2732 -0.6920
   99MOL0     O12944   7.976   4.993   1.780  0.0701  0.2184 -0.2320
   99MOL0     C12945   7.880   5.009   1.883  0.5629 -1.3530  0.0294
   99MOL0     C12946   7.744   4.949   1.823  0.0679  0.3976  0.3474
   99MOL0     C12947   7.625   4.965   1.916 -0.5251  0.7532 -1.0830
   99MOL0     C12948   7.627   4.868   2.036  0.3644  0.9040 -0.1336
   99MOL0     C12949   7.493   4.866   2.096 -0.8509 -0.8105  0.2479
   99MOL0     C12950   7.446   4.999   2.169  0.2480  0.4809 -1.1167
   99MOL0     C12951   7.290   5.029   2.165 -0.3200 -0.2392 -0.3738
   99MOL0     C12952   7.205   4.915   2.217  0.9210  0.4076  0.1459
   99MOL0     N12953   7.063   4.960   2.236 -0.4233  0.4019 -0.0012
   99MOL0     C12954   6.956   4.899   2.179  0.3337 -0.0301  0.8734
   99MOL0     C12955   6.847   4.960   2.239  0.5589  0.2207  0.5292
   99MOL0     C12956   6.696   4.927   2.218  0.1425 -0.5047  0.0487
   99MOL0     C12957   6.665   4.909   2.065 -0.2512  0.0480  0.0412
   99MOL0     C12958   6.536   4.831   2.025  0.9716  1.1554  0.2273
   99MOL0     C12959   6.419   4.920   2.007 -0.0520 -0.5778  0.1005
   99MOL0     O12960   6.297   4.858   1.954  0.4619  0.3320  0.2172
   99MOL0     C12961   6.178   4.936   1.951  0.1238 -0.8102  0.0996
   99MOL0     C12962   6.179   5.061   2.004 -0.1663  0.8637 -0.4136
   99MOL0     C12963   6.061   5.138   2.004 -1.3176 -0.0814 -0.1752
   99MOL0     C12964   5.945   5.094   1.945  0.7125  1.3262  0.5265
   99MOL0     C12965   5.821   5.170   1.942 -0.0663  1.0573  0.6994
   99MOL0     O12966   5.833   5.305   1.975 -0.5095  0.1878  0.0858
   99MOL0     C12967   5.720   5.384   1.961 -0.3534  0.5729  0.8964
   99MOL0     C12968   5.683   5.472   2.063 -0.6409 -0.7668  0.0336
   99MOL0     C12969   5.576   5.565   2.061 -0.7927  0.1024 -0.1269
   99MOL0     C12970   5.497   5.571   1.940  0.5555  0.5353 -0.6738
   99MOL0     O12971   5.391   5.662   1.929 -0.5708  0.2000  0.3003
   99MOL0     C12972   5.273   5.625   2.005  0.1207 -0.0360 -0.1230
   99MOL0     C12973   5.210   5.493   1.968  0.3014 -0.2897 -0.1254
   99MOL0     C12974   5.080   5.453   2.048  0.4725  0.2233 -0.4363
   99MOL0     C12975   4.975   5.561   2.040 -0.6806  0.4070  0.3767
   99MOL0     C12976   4.834   5.523   2.069  0.2453 -0.1382 -0.4741
   99MOL0     C12977   4.774   5.421   1.974  0.2955  0.5737  0.5612
   99MOL0     C12978   4.622   5.411   2.002  0.0984 -0.1964 -0.2791
   99MOL0     C12979   4.537   5.336   1.891  0.1305  0.6768 -0.2236
   99MOL0    Cl12980   4.584   5.156   1.920 -0.5438  0.2368 -0.0416
   99MOL0     C12981   5.537   5.490   1.832  0.2976  0.8534  0.4774
   99MOL0     C12982   5.639   5.393   1.847  0.1903  0.6653  0.0818
   99MOL0     O12983   5.716   5.113   1.909  0.6299 -0.5617  0.3148
   99MOL0     C12984   5.947   4.959   1.889  0.2095 -0.8950 -0.2489
   99MOL0     C12985   6.065   4.881   1.891 -0.6507  0.1586  0.6493
   99MOL0     N12986   6.902   5.031   2.343 -0.5183  0.1137  0.1266
   99MOL0     N12987   7.031   5.058   2.319 -0.2602  1.6556 -0.0752
   99MOL0     C12988   8.200   4.941   1.719  1.0932 -0.9631  0.3324
   99MOL0     C12989   8.339   4.938   1.740  0.6689  0.5248 -0.3155
   99MOL0     C12990   8.735   5.034   2.007  0.3729  0.0357  0.5630
   99MOL0     C12991   8.780   5.135   1.915  0.2549  0.4337 -0.5227
   99MOL0     C12992   8.904   5.193   1.925 -0.6635 -0.6112 -0.1274
   99MOL0     C12993   8.998   5.166   2.029 -0.0617 -0.1245 -0.4702
   99MOL0     O12994   9.118   5.230   2.017 -0.2558 -0.4866 -0.4593
   99MOL0     C12995   9.197   5.239   2.132  0.5529  0.1358 -0.0599
   99MOL0     C12996   9.287   5.364   2.104 -0.0234  0.4058  0.1814
   99MOL0     C12997   9.378   5.408   2.223 -0.0951  1.1284 -0.4197
   99MOL0     C12998   9.467   5.531   2.166  0.5333 -0.0301 -0.0330
   99MOL0     C12999   9.554   5.564   2.278  0.4650 -0.6024  0.7558
   99MOL0     C13000   9.622   5.594   2.369  0.0585  0.2228 -0.1455
   99MOL0     C13001   8.944   5.084   2.130 -0.7632  0.2589 -0.0259
   99MOL0     C13002   8.823   5.020   2.114  0.3745 -0.0294  0.2764
   99MOL0     H13003   8.359   5.081   2.050 -0.4375 -0.8757  1.0645
   99MOL0     H13004   8.109   5.095   2.015 -0.2217 -2.5326  0.3392
   99MOL0     H13005   7.863   5.114   1.907  1.2802 -1.2725  0.1910
   99MOL0     H13006   7.910   4.961   1.977 -0.4550 -0.9209  0.5867
   99MOL0     H13007   7.760   4.842   1.803 -0.7897  0.4913 -0.9818
   99MOL0     H13008   7.721   5.001   1.730 -1.7459 -2.5729 -1.0210
   99MOL0     H13009   7.533   4.942   1.863 -3.1554  2.8484  2.1776
   99MOL0     H13010   7.624   5.071   1.944  0.8085  0.8112 -1.1683
   99MOL0     H13011   7.649   4.769   1.994  1.3727 -0.5618  3.4234
   99MOL0     H13012   7.707   4.896   2.106 -1.1754  0.1344  2.0473
   99MOL0     H13013   7.492   4.787   2.172 -0.9715 -0.5480  0.5203
   99MOL0     H13014   7.419   4.836   2.021 -1.7022 -1.9678  1.4772
   99MOL0     H13015   7.500   5.091   2.142 -0.1913  0.7866 -0.9617
   99MOL0     H13016   7.475   4.983   2.273  3.2757 -0.2196 -1.9660
   99MOL0     H13017   7.275   5.105   2.243 -0.4669 -2.2934  1.7439
   99MOL0     H13018   7.252   5.057   2.067  0.5780  0.1610 -0.6193
   99MOL0     H13019   7.237   4.893   2.319 -1.5070  3.0496  1.6446
   99MOL0     H13020   7.201   4.820   2.163 -2.6159  1.2387 -1.3735
   99MOL0     H13021   6.945   4.814   2.112 -0.8724  1.5187 -1.0202
   99MOL0     H13022   6.641   5.009   2.264  3.2908  0.1507  3.1165
   99MOL0     H13023   6.682   4.835   2.276 -0.3007  1.1072  2.6275
   99MOL0     H13024   6.745   4.852   2.016 -0.5621 -0.6735  0.3541
   99MOL0     H13025   6.669   5.010   2.025 -3.5794 -0.5975 -2.3293
   99MOL0     H13026   6.562   4.792   1.926 -1.9003  0.0400 -0.1976
   99MOL0     H13027   6.515   4.746   2.090  1.5533  0.1259 -0.8820
   99MOL0     H13028   6.450   4.993   1.932 -1.6196  0.7250  0.6831
   99MOL0     H13029   6.412   4.974   2.102 -2.7509  2.5136 -1.6562
   99MOL0     H13030   6.254   5.086   2.078 -1.3735 -1.9526  1.9290
   99MOL0     H13031   6.072   5.232   2.058  1.4673  0.2728 -1.1684
   99MOL0     H13032   5.744   5.466   2.152 -0.9802 -3.2125  0.1606
   99MOL0     H13033   5.547   5.620   2.150 -0.3512 -3.0676  2.1627
   99MOL0     H13034   5.202   5.707   1.989 -1.8141 -1.4373  0.9318
   99MOL0     H13035   5.298   5.623   2.111 -0.9651 -0.6022  0.1342
   99MOL0     H13036   5.283   5.413   1.985 -0.1094 -1.6744 -3.8081
   99MOL0     H13037   5.185   5.496   1.861 -1.4864 -1.7585  0.1917
   99MOL0     H13038   5.101   5.437   2.154 -3.3467 -4.0096  0.0069
   99MOL0     H13039   5.049   5.356   2.006 -0.5581 -0.2363  1.2935
   99MOL0     H13040   4.995   5.632   2.121 -0.9818 -0.1529  0.9578
   99MOL0     H13041   4.985   5.606   1.941 -0.0923 -0.6641 -0.0657
   99MOL0     H13042   4.787   5.621   2.055  0.6518  0.3248  1.1600
   99MOL0     H13043   4.817   5.476   2.167  2.6571 -0.1754 -0.0304
   99MOL0     H13044   4.820   5.322   1.982 -0.9890 -0.0768  0.1525
   99MOL0     H13045   4.779   5.456   1.871  0.9402 -0.0862  0.3584
   99MOL0     H13046   4.603   5.354   2.094 -1.7945 -2.2039 -1.7779
   99MOL0     H13047   4.579   5.511   2.006  0.1377 -0.2162  1.3787
   99MOL0     H13048   4.566   5.366   1.790  1.7802  1.3687  0.4177
   99MOL0     H13049   4.430   5.357   1.889  0.3263  1.6196 -1.0722
   99MOL0     H13050   5.483   5.487   1.738  1.4691 -2.1707 -0.1975
   99MOL0     H13051   5.670   5.316   1.777 -0.7771 -2.3232  2.6999
   99MOL0     H13052   5.849   4.921   1.862 -0.0686 -0.2399 -0.1817
   99MOL0     H13053   6.077   4.780   1.854  2.1745  0.6155  0.0704
   99MOL0     H13054   8.155   4.903   1.628 -0.6669 -0.3045  0.8843
   99MOL0     H13055   8.418   4.921   1.669  2.3151 -0.8535  1.7386
   99MOL0     H13056   8.724   5.159   1.825 -0.9795 -0.0062  0.1005
   99MOL0     H13057   8.934   5.257   1.843  2.8463 -1.0094  0.6879
   99MOL0     H13058   9.262   5.153   2.151  0.4240  0.3275  1.3628
   99MOL0     H13059   9.136   5.252   2.222  0.2606 -2.9527  0.3216
   99MOL0     H13060   9.352   5.344   2.018 -0.2566  1.2625 -0.1968
   99MOL0     H13061   9.226   5.452   2.083 -0.3265  0.2899  0.5622
   99MOL0     H13062   9.440   5.322   2.251  0.2754  1.9274  1.3754
   99MOL0     H13063   9.326   5.436   2.316 -0.6081 -0.2068 -0.2820
   99MOL0     H13064   9.522   5.495   2.078 -0.4088 -3.8261  0.7357
   99MOL0     H13065   9.413   5.621   2.135  2.6199  0.4709 -2.5891
   99MOL0     H13066   9.665   5.632   2.460 -0.8705 -1.5516  1.0833
   99MOL0     H13067   8.989   5.049   2.223 -1.4217  1.0210  0.5923
   99MOL0     H13068   8.785   4.942   2.179 -0.3918 -0.3246 -0.5116
  100MOL0     O13069   7.773   9.845   3.304  0.0425  0.0678 -0.6774
  100MOL0     C13070   7.737   9.843   3.420 -0.5679 -0.2464  0.3786
  100MOL0     O13071   7.827   9.805   3.520  0.0417 -0.1327  0.0231
  100MOL0     C13072   7.960   9.770   3.490  0.1378  1.1386  1.2136
  100MOL0     C13073   8.000   9.640   3.427 -0.5751 -0.0550  0.2918
  100MOL0     C13074   8.129   9.602   3.406 -1.0779 -0.7893 -1.1096
  100MOL0     C13075   8.238   9.688   3.440  1.4368 -0.7091  0.0341
  100MOL0     O13076   8.362   9.633   3.425  0.0576 -0.1761  0.0463
  100MOL0     C13077   8.475   9.711   3.437  0.2673  0.6031  0.1983
  100MOL0     C13078   8.584   9.643   3.359 -0.0253  0.6363  0.0864
  100MOL0     C13079   8.712   9.726   3.383 -0.4132  1.0794 -0.1508
  100MOL0     C13080   8.795   9.693   3.518 -0.0683  0.4470  0.5442
  100MOL0     C13081   8.917   9.779   3.539 -0.1409 -0.5562 -0.4558
  100MOL0     C13082   9.047   9.753   3.458  0.6786  0.2357 -0.0353
  100MOL0     C13083   9.156   9.831   3.527 -0.3947  0.2562  0.0395
  100MOL0     C13084   9.285   9.784   3.468 -0.3394 -0.0564 -0.3965
  100MOL0     N13085   9.407   9.846   3.518 -0.4235 -0.3564  0.1918
  100MOL0     C13086   9.460   9.875   3.644  0.4472  0.3802  0.2667
  100MOL0     C13087   9.584   9.915   3.624 -0.7478  0.3461 -0.5728
  100MOL0     C13088   9.665   9.962   3.739 -1.2662 -0.0038 -0.0876
  100MOL0     C13089   9.711  10.107   3.719 -0.8999  0.0014  0.6485
  100MOL0     C13090   9.756  10.192   3.844  0.5231  0.0094 -0.0838
  100MOL0     C13091   9.879  10.136   3.908  0.7663  0.2606 -0.3425
  100MOL0     O13092   9.987  10.155   3.818  0.3019 -0.1256  0.6144
  100MOL0     C13093  10.108  10.091   3.840 -0.6120  0.8032 -0.6964
  100MOL0     C13094  10.137  10.016   3.954 -0.1649 -0.3053 -0.4276
  100MOL0     C13095  10.259   9.952   3.982  0.0524 -0.4921  0.5509
  100MOL0     C13096  10.360   9.962   3.883 -0.5137  1.0364  0.0495
  100MOL0     C13097  10.502   9.900   3.897  0.3374 -0.3902 -0.6122
  100MOL0     O13098  10.592   9.925   3.785  0.1067  1.1290 -0.2641
  100MOL0     C13099  10.703   9.833   3.758  0.8270 -0.7533 -0.5267
  100MOL0     C13100  10.799   9.795   3.859 -0.0449  0.0955  0.2045
  100MOL0     C13101  10.910   9.721   3.825  0.1452  0.4173  0.2577
  100MOL0     C13102  10.921   9.672   3.689  0.1554 -0.0140  1.1116
  100MOL0     O13103  11.013   9.587   3.634 -0.9700  0.0151 -0.8778
  100MOL0     C13104  11.115   9.531   3.717  0.0551 -0.4048 -0.0607
  100MOL0     C13105  11.186   9.414   3.641 -0.1796  0.2341 -0.4944
  100MOL0     C13106  11.322   9.386   3.709 -0.0830  0.4107 -0.6277
  100MOL0     C13107  11.390   9.270   3.645 -0.6011  0.2247  0.7137
  100MOL0     C13108  11.526   9.222   3.707 -0.1039 -0.1432 -0.6441
  100MOL0     C13109  11.640   9.321   3.726  0.7058  0.0206 -0.0848
  100MOL0     C13110  11.678   9.367   3.582 -0.0716 -0.1964  0.9860
  100MOL0     C13111  11.806   9.455   3.587 -0.1385  0.0920 -0.7642
  100MOL0    Cl13112  11.873   9.480   3.429  0.1025  0.3665 -0.3056
  100MOL0     C13113  10.825   9.719   3.594 -0.7925  0.8044 -0.2948
  100MOL0     C13114  10.715   9.794   3.628  0.3840  0.9499 -0.4453
  100MOL0     O13115  10.520   9.822   3.994 -0.2825  0.4579 -0.1950
  100MOL0     C13116  10.329  10.017   3.754  0.0523  0.3444 -0.6331
  100MOL0     C13117  10.210  10.082   3.743 -0.4972 -0.3666  0.0435
  100MOL0     N13118   9.611   9.911   3.495 -0.2181 -0.2672 -1.0870
  100MOL0     N13119   9.507   9.864   3.432 -0.0115 -0.2071 -0.5190
  100MOL0     C13120   8.204   9.816   3.487 -0.9995 -0.6482 -0.1317
  100MOL0     C13121   8.075   9.858   3.502  0.2985  0.1544 -0.2395
  100MOL0     C13122   7.601   9.889   3.442  0.4287  0.1432 -1.1623
  100MOL0     C13123   7.503   9.916   3.344  0.6952 -0.2738  0.2482
  100MOL0     C13124   7.369   9.951   3.387  0.6831 -0.3821  0.3251
  100MOL0     C13125   7.335   9.958   3.526  0.2265  0.4213 -0.8191
  100MOL0     O13126   7.206   9.979   3.575 -0.3210 -0.1760 -0.7991
  100MOL0     C13127   7.118  10.058   3.507 -0.1462 -0.5519 -0.4540
  100MOL0     C13128   6.993  10.088   3.586 -0.5945  0.4648  0.5299
  100MOL0     C13129   6.938  10.223   3.551 -0.4341  0.7232 -1.0589
  100MOL0     C13130   6.833  10.277   3.647 -0.4989 -0.2618 -1.4307
  100MOL0     C13131   6.779  10.396   3.590  0.3826 -0.0438 -0.1561
  100MOL0     C13132   6.729  10.491   3.544  0.5608  0.5550 -0.8019
  100MOL0     C13133   7.444   9.946   3.618 -0.3103 -0.2946 -0.0874
  100MOL0     C13134   7.574   9.922   3.575  0.9959 -0.1607  0.5225
  100MOL0     H13135   7.916   9.573   3.407 -0.3003 -1.2951  2.8992
  100MOL0     H13136   8.143   9.502   3.365  0.0682 -0.2109 -2.1783
  100MOL0     H13137   8.505   9.721   3.541  1.7504  0.1244 -0.1661
  100MOL0     H13138   8.459   9.809   3.389  0.0263  0.9462  0.9658
  100MOL0     H13139   8.551   9.641   3.255 -1.7307  2.2101  0.5514
  100MOL0     H13140   8.599   9.540   3.392 -0.6008 -0.0920 -1.8108
  100MOL0     H13141   8.708   9.835   3.372  2.1643  1.4903  1.9508
  100MOL0     H13142   8.780   9.694   3.303 -1.4083 -2.1047  0.1162
  100MOL0     H13143   8.734   9.723   3.604  1.8416  2.2743  1.3383
  100MOL0     H13144   8.824   9.588   3.531  1.3663  0.9621  1.7154
  100MOL0     H13145   8.949   9.775   3.643  0.4220  0.3565 -0.5817
  100MOL0     H13146   8.895   9.885   3.520  1.3600 -0.0388  0.5068
  100MOL0     H13147   9.039   9.792   3.356  3.3741  0.9906 -0.0317
  100MOL0     H13148   9.072   9.646   3.461  0.4800  0.0645 -2.4561
  100MOL0     H13149   9.145   9.939   3.515 -2.4012  0.3758  2.2433
  100MOL0     H13150   9.170   9.812   3.634  3.5259 -1.7776 -0.6315
  100MOL0     H13151   9.274   9.800   3.361  0.9440  2.3468 -0.2382
  100MOL0     H13152   9.296   9.678   3.494  2.4878  0.3335  0.3820
  100MOL0     H13153   9.399   9.880   3.734  0.0545  0.0841  0.0161
  100MOL0     H13154   9.759   9.906   3.739 -1.4975 -0.4155 -1.0964
  100MOL0     H13155   9.613   9.945   3.834 -2.1190 -0.1812 -0.5796
  100MOL0     H13156   9.630  10.158   3.665  0.2191  0.3794 -0.7163
  100MOL0     H13157   9.794  10.095   3.650 -0.6186  1.4389  0.6906
  100MOL0     H13158   9.780  10.295   3.814 -0.6969  0.3749  0.1380
  100MOL0     H13159   9.667  10.199   3.907  0.4687 -1.9029  0.1156
  100MOL0     H13160   9.853  10.034   3.936 -0.6835  0.3841 -1.1519
  100MOL0     H13161   9.913  10.197   3.992 -1.1541  2.8066 -1.2824
  100MOL0     H13162  10.054  10.012   4.025 -1.1963 -0.9360 -1.6339
  100MOL0     H13163  10.279   9.896   4.074  3.6918 -0.1163  0.1575
  100MOL0     H13164  10.788   9.818   3.964 -3.7193 -1.2431  0.2558
  100MOL0     H13165  10.979   9.689   3.903 -0.3785 -0.1234  0.5059
  100MOL0     H13166  11.066   9.492   3.807 -3.6042 -0.3682 -1.8704
  100MOL0     H13167  11.184   9.607   3.754  0.0613  0.0737 -1.0389
  100MOL0     H13168  11.212   9.440   3.538 -5.3401  3.2223 -1.4262
  100MOL0     H13169  11.126   9.324   3.626 -2.2136  1.9794 -4.0662
  100MOL0     H13170  11.308   9.364   3.815 -0.6515  2.4351 -0.2385
  100MOL0     H13171  11.384   9.476   3.706 -0.9250  1.0515  0.3225
  100MOL0     H13172  11.321   9.185   3.654 -0.9037  0.5558  1.6746
  100MOL0     H13173  11.404   9.291   3.539 -3.0699 -0.3412  0.1996
  100MOL0     H13174  11.559   9.131   3.657 -0.5310 -0.9093  0.4261
  100MOL0     H13175  11.507   9.192   3.811  1.9673 -1.3502 -0.5588
  100MOL0     H13176  11.720   9.274   3.784 -1.0557 -2.2412  0.6239
  100MOL0     H13177  11.607   9.409   3.782 -0.7531 -0.1526 -0.6302
  100MOL0     H13178  11.704   9.276   3.527 -1.3174 -0.7419  1.2427
  100MOL0     H13179  11.600   9.422   3.529  0.6031  0.6328  0.8392
  100MOL0     H13180  11.869   9.405   3.661 -2.8753 -2.0334  0.3223
  100MOL0     H13181  11.769   9.545   3.636 -1.2046 -1.0192  0.5652
  100MOL0     H13182  10.836   9.694   3.489  3.8439  0.6749  0.0351
  100MOL0     H13183  10.639   9.824   3.557 -1.8244 -1.7412  0.5755
  100MOL0     H13184  10.398  10.008   3.671  1.3042  0.5730  0.3399
  100MOL0     H13185  10.189  10.149   3.660  1.2901 -0.5259 -0.5710
  100MOL0     H13186   8.280   9.885   3.520  0.0060 -1.6067 -0.3644
  100MOL0     H13187   8.052   9.958   3.539 -1.1328  0.5358 -2.0019
  100MOL0     H13188   7.543   9.914   3.243 -0.5399  1.5408 -0.3101
  100MOL0     H13189   7.305   9.964   3.300  3.9293 -0.0967 -2.2176
  100MOL0     H13190   7.088  10.009   3.414  3.5492 -1.3010 -1.3896
  100MOL0     H13191   7.166  10.152   3.478 -1.2531  0.9994  2.3564
  100MOL0     H13192   6.929  10.003   3.563  1.2500 -0.8615  0.0360
  100MOL0     H13193   7.022  10.083   3.692  3.0655 -2.2640 -0.4197
  100MOL0     H13194   6.892  10.211   3.452 -2.3720  1.7971 -0.3336
  100MOL0     H13195   7.016  10.299   3.543 -1.2238  1.7226  0.2774
  100MOL0     H13196   6.752  10.204   3.655  2.4569 -3.6275  1.9616
  100MOL0     H13197   6.886  10.293   3.741  1.5279 -2.3566 -2.1179
  100MOL0     H13198   6.675  10.571   3.498 -1.5240 -0.3334 -0.0147
  100MOL0     H13199   7.432   9.962   3.724 -0.0066  3.4745 -0.4876
  100MOL0     H13200   7.645   9.903   3.655 -1.4483  0.8462  3.1312
  101MOL0     O13201   3.710   0.767   8.479 -0.1321 -1.0964 -0.1963
  101MOL0     C13202   3.624   0.845   8.454  0.1805 -0.1191 -0.6701
  101MOL0     O13203   3.643   0.952   8.369  0.3507 -0.9635 -0.0791
  101MOL0     C13204   3.769   0.971   8.302  0.5222  0.0978  0.1451
  101MOL0     C13205   3.780   1.103   8.252  0.3657  0.2699  0.5983
  101MOL0     C13206   3.892   1.134   8.176  0.4317  0.5064  0.2446
  101MOL0     C13207   3.994   1.046   8.142 -0.6974 -0.3794  0.4749
  101MOL0     O13208   4.088   1.103   8.062  0.7201  0.2760 -0.0990
  101MOL0     C13209   4.217   1.038   8.055  0.6310  0.0227 -0.4105
  101MOL0     C13210   4.295   1.114   7.950  0.7506  0.2102 -0.0857
  101MOL0     C13211   4.441   1.077   7.958 -0.7761  0.4111  0.7882
  101MOL0     C13212   4.530   1.120   8.080  0.2614 -0.1381 -0.2469
  101MOL0     C13213   4.687   1.109   8.047  0.0489  0.1028 -0.0893
  101MOL0     C13214   4.770   1.120   8.177 -0.7060  0.3287 -0.5600
  101MOL0     C13215   4.927   1.147   8.165  0.2598 -0.1361  0.2832
  101MOL0     C13216   4.963   1.278   8.082 -0.2171 -0.4606 -0.1539
  101MOL0     N13217   4.892   1.401   8.143  0.5106 -0.7775 -0.1999
  101MOL0     C13218   4.770   1.458   8.125  0.3549  0.0650  1.2416
  101MOL0     C13219   4.759   1.557   8.214  0.3680 -0.4567  0.5861
  101MOL0     C13220   4.652   1.662   8.237  0.4076 -0.3569 -0.5051
  101MOL0     C13221   4.559   1.616   8.351  0.1677 -0.0652 -0.7398
  101MOL0     C13222   4.444   1.706   8.376  0.7576 -0.7370 -0.7371
  101MOL0     C13223   4.476   1.833   8.450 -0.2149  0.6463 -0.2791
  101MOL0     O13224   4.362   1.920   8.446  0.0468  0.3526  1.1300
  101MOL0     C13225   4.252   1.901   8.520 -0.2111  0.3607 -0.1000
  101MOL0     C13226   4.241   1.795   8.616  0.2840 -0.5041  0.2169
  101MOL0     C13227   4.119   1.777   8.686  0.2352 -0.8541 -0.5592
  101MOL0     C13228   4.003   1.856   8.654  0.5767 -0.4176  0.2069
  101MOL0     C13229   3.862   1.833   8.696  0.7708 -0.3133  0.2009
  101MOL0     O13230   3.771   1.901   8.625  0.3022  0.0503 -0.0768
  101MOL0     C13231   3.632   1.869   8.638 -0.6298 -0.2121  0.1527
  101MOL0     C13232   3.584   1.736   8.626  0.6691  0.4801  0.0014
  101MOL0     C13233   3.446   1.706   8.625  0.0684 -0.2596  0.3549
  101MOL0     C13234   3.364   1.821   8.629  0.7401  0.1399 -0.0679
  101MOL0     O13235   3.226   1.812   8.603 -1.2050  0.3775  0.2733
  101MOL0     C13236   3.185   1.870   8.478 -0.2751 -0.3348  0.4987
  101MOL0     C13237   3.076   1.967   8.488 -0.8274 -0.6621  0.8455
  101MOL0     C13238   2.936   1.903   8.505  0.3550 -0.7181  0.2619
  101MOL0     C13239   2.827   2.016   8.506  0.2587 -0.3200  1.0740
  101MOL0     C13240   2.694   1.943   8.494  0.6187 -0.6806  0.4364
  101MOL0     C13241   2.643   1.891   8.621  0.1637 -0.8104  0.3532
  101MOL0     C13242   2.568   1.760   8.579 -0.2487 -0.4032 -0.3925
  101MOL0     C13243   2.523   1.692   8.696  0.9285 -0.0929 -0.8352
  101MOL0    Cl13244   2.393   1.781   8.788 -0.2295  0.1170 -0.0555
  101MOL0     C13245   3.412   1.957   8.637 -0.2611 -0.0746 -1.0986
  101MOL0     C13246   3.545   1.980   8.632 -0.5366 -0.0662  0.8604
  101MOL0     O13247   3.835   1.751   8.784 -0.3331  1.0244  0.1811
  101MOL0     C13248   4.021   1.953   8.559 -0.0616 -0.5991  0.2961
  101MOL0     C13249   4.137   1.967   8.484 -0.6605 -0.2751 -0.1286
  101MOL0     N13250   4.867   1.547   8.288 -0.1649  0.9510 -0.9407
  101MOL0     N13251   4.948   1.456   8.249  0.3801 -0.3968  0.7720
  101MOL0     C13252   3.978   0.911   8.188  1.2022 -0.3853 -0.2440
  101MOL0     C13253   3.860   0.871   8.262 -0.2090 -0.0012  0.1119
  101MOL0     C13254   3.494   0.812   8.513 -0.7901  0.2150 -0.4183
  101MOL0     C13255   3.469   0.686   8.570 -0.3152 -0.2437 -0.4863
  101MOL0     C13256   3.342   0.657   8.618 -0.1436  0.1789 -0.7866
  101MOL0     C13257   3.230   0.744   8.605 -0.7124  0.0929 -0.2476
  101MOL0     O13258   3.105   0.729   8.662  0.7868  0.5097  0.4404
  101MOL0     C13259   3.102   0.628   8.770  0.6761  0.2023 -0.1215
  101MOL0     C13260   2.955   0.620   8.818 -0.8233  0.5207 -0.4968
  101MOL0     C13261   2.922   0.750   8.894 -0.3569  0.3350 -0.3899
  101MOL0     C13262   2.832   0.722   9.015  0.5062  0.2624 -0.1301
  101MOL0     C13263   2.706   0.655   8.970 -0.1640  0.0132 -0.9981
  101MOL0     C13264   2.601   0.603   8.936 -0.2522  0.4069  0.0568
  101MOL0     C13265   3.258   0.870   8.536 -0.0817 -0.1250  0.0010
  101MOL0     C13266   3.393   0.899   8.499 -0.3963 -0.7156  0.2546
  101MOL0     H13267   3.705   1.178   8.272 -2.1555 -1.6148 -1.0312
  101MOL0     H13268   3.903   1.237   8.144 -0.1675  0.5784  0.2720
  101MOL0     H13269   4.206   0.936   8.017 -0.6514 -0.9250  2.2672
  101MOL0     H13270   4.270   1.045   8.150  2.3100  1.9080 -1.3977
  101MOL0     H13271   4.279   1.220   7.975 -0.3044  0.8025 -2.8924
  101MOL0     H13272   4.267   1.107   7.845  4.5910  3.3714 -1.5722
  101MOL0     H13273   4.477   1.135   7.872 -1.4578  1.1328  0.9831
  101MOL0     H13274   4.456   0.971   7.936 -1.9985  0.6312 -1.3917
  101MOL0     H13275   4.508   1.222   8.112 -1.6157 -1.2035  2.1147
  101MOL0     H13276   4.508   1.052   8.163 -0.6073 -1.3990 -1.4569
  101MOL0     H13277   4.716   1.186   7.974 -2.4510  0.5039 -0.7392
  101MOL0     H13278   4.705   1.017   7.991 -1.5921 -0.6088  0.4860
  101MOL0     H13279   4.756   1.038   8.248  3.7154  1.7969  2.4307
  101MOL0     H13280   4.724   1.199   8.237  0.2336 -1.0799  2.2303
  101MOL0     H13281   4.967   1.155   8.267 -2.9146  0.7245  1.5777
  101MOL0     H13282   4.965   1.062   8.107  3.5801 -0.6267  2.8303
  101MOL0     H13283   4.936   1.273   7.976  0.6507 -1.2709 -0.3587
  101MOL0     H13284   5.070   1.304   8.087  0.1733 -2.0815  0.4252
  101MOL0     H13285   4.702   1.424   8.047  1.9575  1.8385 -1.0584
  101MOL0     H13286   4.588   1.665   8.148 -2.3083  1.0072  1.3836
  101MOL0     H13287   4.680   1.766   8.252 -1.6371  0.1290  0.1622
  101MOL0     H13288   4.619   1.589   8.439 -1.5958 -2.2430 -0.1101
  101MOL0     H13289   4.518   1.522   8.312  2.2254 -0.4281 -2.2061
  101MOL0     H13290   4.411   1.737   8.276  0.5282  1.6041  0.0006
  101MOL0     H13291   4.368   1.650   8.430  0.1306  0.7787  0.0249
  101MOL0     H13292   4.560   1.887   8.406  0.0168 -0.7041 -1.5498
  101MOL0     H13293   4.516   1.805   8.548  0.2380 -1.4395 -1.0234
  101MOL0     H13294   4.322   1.729   8.646  0.4073 -2.0375 -3.0915
  101MOL0     H13295   4.107   1.692   8.752 -1.2619 -1.3737 -1.4364
  101MOL0     H13296   3.660   1.660   8.637 -0.7114 -0.5750  3.9645
  101MOL0     H13297   3.394   1.617   8.593 -3.0018  1.2077  0.8626
  101MOL0     H13298   3.148   1.784   8.420 -1.0281 -1.2687  2.2851
  101MOL0     H13299   3.269   1.903   8.417  0.5650 -4.1694 -0.6789
  101MOL0     H13300   3.075   2.014   8.389  1.1865 -1.6518  0.2960
  101MOL0     H13301   3.092   2.043   8.564 -1.5575 -0.8843  1.2240
  101MOL0     H13302   2.936   1.844   8.597  0.5441 -2.8550 -1.0376
  101MOL0     H13303   2.912   1.834   8.423 -0.7150  0.7720 -0.7306
  101MOL0     H13304   2.838   2.068   8.602 -0.2999  1.5674  0.1665
  101MOL0     H13305   2.845   2.081   8.420 -3.3196  2.5178  2.1774
  101MOL0     H13306   2.718   1.872   8.414 -0.2484 -0.2708 -0.1895
  101MOL0     H13307   2.626   2.024   8.469  2.6255  0.9350 -0.0810
  101MOL0     H13308   2.586   1.965   8.677  3.0480  1.8433  0.0366
  101MOL0     H13309   2.729   1.859   8.681  1.1184  1.1185  0.0863
  101MOL0     H13310   2.491   1.791   8.508 -0.8247  2.5805  1.3886
  101MOL0     H13311   2.636   1.691   8.528  1.0403  1.0114 -0.6690
  101MOL0     H13312   2.597   1.673   8.774  1.1308 -1.5989 -1.3470
  101MOL0     H13313   2.483   1.592   8.675 -0.1284 -1.1026  4.4676
  101MOL0     H13314   3.344   2.042   8.644  0.7446  0.7264 -0.7205
  101MOL0     H13315   3.592   2.077   8.647 -1.4127  0.3904  0.6711
  101MOL0     H13316   3.944   2.016   8.517  1.4359  0.4304 -1.0697
  101MOL0     H13317   4.148   2.050   8.416 -1.7102 -0.2937 -0.3434
  101MOL0     H13318   4.056   0.841   8.160  1.9831  0.4921 -0.3080
  101MOL0     H13319   3.854   0.765   8.287  1.1883  0.1712  1.3194
  101MOL0     H13320   3.554   0.621   8.587  2.2859  3.0319 -0.2320
  101MOL0     H13321   3.338   0.559   8.666 -0.7271 -0.0071 -1.2064
  101MOL0     H13322   3.162   0.651   8.858  0.9719 -1.4884  0.1507
  101MOL0     H13323   3.137   0.530   8.735  0.1713  0.5901 -1.8402
  101MOL0     H13324   2.881   0.611   8.737 -1.7919 -0.4433  0.4722
  101MOL0     H13325   2.944   0.533   8.883 -1.8730  0.3090 -0.9342
  101MOL0     H13326   2.890   0.829   8.826 -0.3569 -0.6343 -1.5690
  101MOL0     H13327   3.014   0.792   8.936 -1.5992  0.5831  2.3056
  101MOL0     H13328   2.875   0.654   9.089 -1.9353  1.3098  2.4608
  101MOL0     H13329   2.796   0.817   9.057 -1.4072  0.6490 -2.4153
  101MOL0     H13330   2.507   0.557   8.913 -0.1180 -0.8511  1.8025
  101MOL0     H13331   3.187   0.952   8.528 -0.1795 -0.0375  1.5103
  101MOL0     H13332   3.410   0.995   8.450  0.6652  0.0235  1.9553
  102MOL0     O13333   4.390   1.959   1.954  0.4875 -1.0405  0.0155
  102MOL0     C13334   4.502   1.958   1.894  0.3451  0.3362  0.0236
  102MOL0     O13335   4.521   2.012   1.776 -1.1527  0.6398  0.9342
  102MOL0     C13336   4.419   2.081   1.719 -0.1322 -0.0754 -0.2291
  102MOL0     C13337   4.336   2.022   1.626  0.0771  0.7382 -0.9152
  102MOL0     C13338   4.240   2.105   1.563  0.6446 -0.4206 -0.2078
  102MOL0     C13339   4.235   2.247   1.581 -1.1275 -0.0932 -1.3267
  102MOL0     O13340   4.144   2.325   1.511 -0.3297 -0.0292 -0.5513
  102MOL0     C13341   4.049   2.276   1.414  0.4394 -0.6034 -0.1740
  102MOL0     C13342   3.935   2.378   1.409  0.4368 -0.0852 -0.2827
  102MOL0     C13343   3.884   2.423   1.553 -0.6089 -0.2466  0.2845
  102MOL0     C13344   3.826   2.566   1.544 -0.7750  0.9417  0.1143
  102MOL0     C13345   3.753   2.606   1.666  0.4763 -1.3750  0.4016
  102MOL0     C13346   3.706   2.752   1.665  0.6201  0.2977 -0.4428
  102MOL0     C13347   3.635   2.800   1.788 -0.1414 -0.4357 -0.1407
  102MOL0     C13348   3.547   2.922   1.763 -0.1070  0.1013  0.0091
  102MOL0     N13349   3.622   3.035   1.704 -0.5427 -0.5028 -0.0928
  102MOL0     C13350   3.693   3.139   1.766 -0.4727  0.0130  0.5600
  102MOL0     C13351   3.725   3.226   1.662 -0.8462 -0.7914 -0.0591
  102MOL0     C13352   3.770   3.370   1.673 -0.3497 -0.7728  1.3701
  102MOL0     C13353   3.650   3.457   1.654 -0.0968  0.3868 -0.2199
  102MOL0     C13354   3.694   3.611   1.633  0.2487 -0.3904 -0.2495
  102MOL0     C13355   3.571   3.699   1.603  0.3393  0.4825 -0.1794
  102MOL0     O13356   3.502   3.670   1.480 -0.5295 -0.3692  0.0793
  102MOL0     C13357   3.366   3.665   1.495 -0.1328  0.0152 -0.0350
  102MOL0     C13358   3.294   3.785   1.523  0.3263  0.5856 -0.4328
  102MOL0     C13359   3.150   3.781   1.540  0.1971  0.4149 -0.2370
  102MOL0     C13360   3.086   3.658   1.527  0.7996  0.9019 -0.2596
  102MOL0     C13361   2.944   3.652   1.567 -0.1062 -0.1278  0.7760
  102MOL0     O13362   2.908   3.538   1.637  0.0568  0.0876  0.0531
  102MOL0     C13363   2.777   3.554   1.677  1.2343 -0.3312  0.1580
  102MOL0     C13364   2.676   3.522   1.586 -0.1794 -0.6980  1.0319
  102MOL0     C13365   2.545   3.567   1.601  0.0918 -0.0011  0.1033
  102MOL0     C13366   2.512   3.653   1.707  0.2413 -0.5540  0.1805
  102MOL0     O13367   2.386   3.709   1.707 -0.3008 -0.2984  0.5332
  102MOL0     C13368   2.352   3.816   1.794 -0.2248 -0.2793 -0.2172
  102MOL0     C13369   2.197   3.824   1.801 -0.6106  0.8061 -0.1269
  102MOL0     C13370   2.129   3.794   1.664 -0.1524  0.1092 -0.2032
  102MOL0     C13371   1.984   3.823   1.656  0.5870 -0.3845  0.0533
  102MOL0     C13372   1.879   3.754   1.741 -0.4048 -0.4547  0.0807
  102MOL0     C13373   1.743   3.825   1.739  0.7235 -0.1780  0.4544
  102MOL0     C13374   1.665   3.799   1.605  0.6665  0.3693 -0.7124
  102MOL0     C13375   1.524   3.843   1.625  0.3108  0.6826  0.6294
  102MOL0    Cl13376   1.496   4.015   1.645  0.4323  0.0280 -0.3458
  102MOL0     C13377   2.610   3.676   1.806 -0.1055 -0.9242  0.3899
  102MOL0     C13378   2.735   3.620   1.799  0.0394 -0.1649 -0.4079
  102MOL0     O13379   2.868   3.740   1.533 -0.7086 -0.6197 -0.2288
  102MOL0     C13380   3.159   3.541   1.489 -0.2248 -0.3494 -0.4533
  102MOL0     C13381   3.298   3.542   1.476 -0.3582 -0.9467 -0.8836
  102MOL0     N13382   3.668   3.177   1.548 -0.3962 -0.4620 -0.5176
  102MOL0     N13383   3.614   3.062   1.571  0.0743 -1.3994 -0.2585
  102MOL0     C13384   4.323   2.297   1.676  0.0047  0.5326 -0.1751
  102MOL0     C13385   4.414   2.212   1.745  0.6311 -1.4466 -0.0970
  102MOL0     C13386   4.600   1.862   1.950  0.4954 -0.0395 -0.8539
  102MOL0     C13387   4.574   1.782   2.059  1.2742 -0.6434  0.1781
  102MOL0     C13388   4.674   1.699   2.116 -0.0046 -0.5797 -0.1574
  102MOL0     C13389   4.804   1.697   2.068  0.8206 -0.0444  0.1113
  102MOL0     O13390   4.879   1.607   2.125 -0.2375 -0.0443  0.6670
  102MOL0     C13391   4.944   1.512   2.035 -0.4770  0.5084 -0.7260
  102MOL0     C13392   5.081   1.560   1.986  0.3708 -0.7716 -0.4385
  102MOL0     C13393   5.184   1.570   2.098 -0.5552  0.7276  0.0757
  102MOL0     C13394   5.195   1.690   2.185 -0.2157  0.3352  0.5435
  102MOL0     C13395   5.222   1.814   2.111 -0.6365 -0.0922  0.5751
  102MOL0     C13396   5.254   1.905   2.040 -0.1894  0.1945 -0.4887
  102MOL0     C13397   4.830   1.782   1.961 -1.0461  0.3727  0.3366
  102MOL0     C13398   4.733   1.859   1.891  0.3913  0.1926 -0.0499
  102MOL0     H13399   4.349   1.916   1.610  1.5723  0.5837  0.9831
  102MOL0     H13400   4.181   2.047   1.492  2.9066  0.0278 -2.5959
  102MOL0     H13401   4.010   2.182   1.452  0.6474 -0.3167  0.7702
  102MOL0     H13402   4.085   2.271   1.311  0.0136 -0.4203 -0.3352
  102MOL0     H13403   3.860   2.361   1.331  3.4805 -0.2289 -3.4383
  102MOL0     H13404   3.974   2.471   1.369 -1.9160 -1.0198 -5.6646
  102MOL0     H13405   3.963   2.417   1.629 -0.7323 -1.4169  0.3485
  102MOL0     H13406   3.811   2.352   1.594 -2.5861  0.2653 -2.1307
  102MOL0     H13407   3.912   2.633   1.533 -1.2418  1.6216  0.5623
  102MOL0     H13408   3.768   2.577   1.452  1.5750 -1.2202 -1.7923
  102MOL0     H13409   3.818   2.584   1.752  0.8948 -0.7846  0.2465
  102MOL0     H13410   3.670   2.536   1.674  0.5201 -1.9691 -2.8379
  102MOL0     H13411   3.640   2.761   1.578  1.9178 -0.9975 -1.6162
  102MOL0     H13412   3.793   2.816   1.648  0.0157  0.4554 -3.6652
  102MOL0     H13413   3.564   2.723   1.820 -2.7644  2.3960  1.3526
  102MOL0     H13414   3.710   2.820   1.865  1.2486 -2.4459 -0.8926
  102MOL0     H13415   3.487   2.957   1.848 -1.6023  0.3944 -1.1245
  102MOL0     H13416   3.471   2.887   1.693  1.3938 -0.3098 -1.4965
  102MOL0     H13417   3.711   3.155   1.871 -1.8216 -0.5157  0.9064
  102MOL0     H13418   3.852   3.408   1.611 -1.8815  1.0395  0.3522
  102MOL0     H13419   3.804   3.385   1.775 -0.8644 -2.1677  1.7753
  102MOL0     H13420   3.596   3.447   1.748  1.1448  3.7354  0.9910
  102MOL0     H13421   3.579   3.429   1.576  0.5670  0.2421 -0.7890
  102MOL0     H13422   3.735   3.648   1.727 -1.9203  0.1160  0.5609
  102MOL0     H13423   3.767   3.616   1.551 -1.5226 -0.8397 -1.9502
  102MOL0     H13424   3.589   3.806   1.594  3.4338  0.0536 -0.0348
  102MOL0     H13425   3.512   3.680   1.693 -1.1018  3.7211 -0.3101
  102MOL0     H13426   3.356   3.873   1.537  0.3758  0.5193 -0.2338
  102MOL0     H13427   3.098   3.867   1.580 -2.2036 -2.2075  2.8454
  102MOL0     H13428   2.698   3.475   1.490 -3.2664  0.3691 -0.3347
  102MOL0     H13429   2.473   3.547   1.522  0.4062 -0.3993 -0.0855
  102MOL0     H13430   2.387   3.904   1.739  1.0256 -0.8769 -0.4286
  102MOL0     H13431   2.395   3.801   1.894  0.0571  1.6442 -0.0187
  102MOL0     H13432   2.174   3.926   1.834 -1.3815  0.5557  0.1382
  102MOL0     H13433   2.163   3.754   1.878 -0.2941  1.4097  0.5742
  102MOL0     H13434   2.155   3.697   1.620 -2.2065 -0.0933 -1.0794
  102MOL0     H13435   2.177   3.865   1.596 -1.9206  1.2404 -0.3271
  102MOL0     H13436   1.974   3.932   1.661 -0.7876 -0.5558  1.9165
  102MOL0     H13437   1.957   3.796   1.553  2.2583  0.3042 -0.6091
  102MOL0     H13438   1.912   3.757   1.845  0.3754 -1.4670 -0.1256
  102MOL0     H13439   1.871   3.647   1.723 -0.2676 -0.9579  2.6301
  102MOL0     H13440   1.760   3.933   1.753  1.1478  0.1203 -1.9406
  102MOL0     H13441   1.677   3.799   1.822 -0.4819 -2.1444 -1.0443
  102MOL0     H13442   1.704   3.843   1.513  0.9023  3.6464  0.8174
  102MOL0     H13443   1.673   3.692   1.585  2.4228  0.3075  0.0932
  102MOL0     H13444   1.469   3.792   1.705 -2.5373  1.6159 -0.5767
  102MOL0     H13445   1.475   3.812   1.532 -0.3259 -1.1577  1.5229
  102MOL0     H13446   2.601   3.741   1.892  1.8411 -1.9474  1.4148
  102MOL0     H13447   2.807   3.644   1.876  1.8402 -4.1167 -0.6230
  102MOL0     H13448   3.104   3.448   1.486 -0.9571 -0.2036  3.3790
  102MOL0     H13449   3.373   3.466   1.459 -2.3629 -3.6912  1.6036
  102MOL0     H13450   4.325   2.403   1.697  1.1445  0.2080  1.6140
  102MOL0     H13451   4.471   2.263   1.822 -1.3073  2.0786 -0.7993
  102MOL0     H13452   4.476   1.768   2.103  0.0633 -0.8129 -2.3817
  102MOL0     H13453   4.655   1.631   2.199 -0.8682  2.5869  2.4992
  102MOL0     H13454   4.875   1.501   1.951 -0.2163  1.6619 -1.1148
  102MOL0     H13455   4.944   1.418   2.091 -0.7788  0.9898  0.0975
  102MOL0     H13456   5.120   1.483   1.919  4.0605  0.6378 -0.1757
  102MOL0     H13457   5.069   1.657   1.937 -0.9147  1.4015  3.6969
  102MOL0     H13458   5.283   1.557   2.053  0.4588  4.1471  1.0196
  102MOL0     H13459   5.161   1.491   2.170 -0.4345 -0.8527 -1.5696
  102MOL0     H13460   5.106   1.694   2.248 -0.0589  1.7904  0.6981
  102MOL0     H13461   5.284   1.683   2.248  1.3262  1.1276 -1.4310
  102MOL0     H13462   5.277   1.979   1.966 -1.5718  0.8306 -0.3198
  102MOL0     H13463   4.928   1.804   1.921 -0.3427 -1.0084  1.2630
  102MOL0     H13464   4.754   1.914   1.799 -0.0978  0.6403  0.0985
  103MOL0     O13465   4.366   8.703   0.134  0.3979  1.0007  1.0331
  103MOL0     C13466   4.440   8.631   0.198 -0.4602  0.3111 -1.5265
  103MOL0     O13467   4.388   8.544   0.290  0.2789  0.3871  0.5787
  103MOL0     C13468   4.255   8.530   0.337 -0.2729 -1.1174  0.2928
  103MOL0     C13469   4.220   8.409   0.410 -0.4902 -1.1165  0.4372
  103MOL0     C13470   4.095   8.393   0.467 -0.4727 -0.6185  0.0849
  103MOL0     C13471   3.998   8.497   0.463 -0.9010 -0.0014 -0.4239
  103MOL0     O13472   3.880   8.502   0.532  0.7824 -0.6664  0.0245
  103MOL0     C13473   3.899   8.474   0.667 -0.0031  0.6646  0.1257
  103MOL0     C13474   3.779   8.522   0.749  0.1062  0.0596  0.2908
  103MOL0     C13475   3.654   8.465   0.698 -0.6218 -0.0045 -0.3132
  103MOL0     C13476   3.528   8.500   0.778  0.3212 -0.0885 -0.4817
  103MOL0     C13477   3.432   8.382   0.795 -1.1324 -0.3957  1.1256
  103MOL0     C13478   3.335   8.424   0.900 -0.7836 -0.0183 -0.2098
  103MOL0     C13479   3.217   8.326   0.921 -0.9092  0.1867  0.3515
  103MOL0     C13480   3.116   8.385   1.016 -0.2824 -0.1135  0.2159
  103MOL0     N13481   3.039   8.297   1.101  0.5435 -0.6576 -0.7195
  103MOL0     C13482   2.907   8.277   1.085 -0.4205  0.2606  0.1535
  103MOL0     C13483   2.865   8.194   1.189  0.3600 -0.2595  0.0463
  103MOL0     C13484   2.724   8.151   1.219 -0.5435  0.1101 -0.2036
  103MOL0     C13485   2.687   8.165   1.372  0.2523 -0.3891  0.2304
  103MOL0     C13486   2.678   8.307   1.421  0.0339 -0.5040  0.2705
  103MOL0     C13487   2.648   8.313   1.569  0.5392  0.2535 -0.0004
  103MOL0     O13488   2.516   8.253   1.579  0.7913 -0.5346 -0.2000
  103MOL0     C13489   2.440   8.259   1.693  0.5346 -0.2944 -0.3251
  103MOL0     C13490   2.340   8.166   1.706  0.0475  0.5248 -0.7406
  103MOL0     C13491   2.272   8.147   1.827  0.1737  0.2936  0.1869
  103MOL0     C13492   2.310   8.222   1.942  0.0117  0.0723 -0.5089
  103MOL0     C13493   2.242   8.208   2.069  1.0672  0.1594 -0.7631
  103MOL0     O13494   2.141   8.107   2.082 -0.0381  0.1481 -0.8714
  103MOL0     C13495   2.077   8.100   2.203 -0.3165  1.0605 -0.7983
  103MOL0     C13496   2.003   8.211   2.259 -0.3342  0.4615 -0.8321
  103MOL0     C13497   1.958   8.200   2.388  0.5314  0.4041 -0.6984
  103MOL0     C13498   1.965   8.088   2.464  1.0408  0.7851 -0.7138
  103MOL0     O13499   1.925   8.098   2.594  0.0086 -0.0443  0.7526
  103MOL0     C13500   1.850   7.990   2.648 -0.3091 -0.0307 -0.1146
  103MOL0     C13501   1.769   8.018   2.769  0.5952  0.3306 -0.3668
  103MOL0     C13502   1.742   7.894   2.864 -0.2698 -0.4132  0.7686
  103MOL0     C13503   1.710   7.939   3.007  0.1375 -0.3140  0.2879
  103MOL0     C13504   1.620   7.837   3.076 -0.5428  0.3085 -0.0837
  103MOL0     C13505   1.589   7.878   3.219  0.7151  0.2226  0.2796
  103MOL0     C13506   1.470   7.982   3.212  0.5096 -0.6606 -0.2744
  103MOL0     C13507   1.411   8.018   3.349  0.5081  0.0137 -0.4105
  103MOL0    Cl13508   1.245   8.046   3.343  0.4158 -0.3732 -0.1854
  103MOL0     C13509   2.029   7.975   2.406  0.6279 -0.2038 -0.6676
  103MOL0     C13510   2.092   7.979   2.285  0.8312  0.6759  0.1005
  103MOL0     O13511   2.264   8.295   2.153  0.8547  0.8417  0.5767
  103MOL0     C13512   2.407   8.321   1.927  0.0828 -0.0159 -0.2829
  103MOL0     C13513   2.472   8.347   1.809  0.4009  0.1181 -0.0778
  103MOL0     N13514   2.982   8.153   1.253 -0.4044  0.3583  0.6562
  103MOL0     N13515   3.083   8.209   1.202  0.2284  0.3976  0.4513
  103MOL0     C13516   4.027   8.611   0.381 -0.1822 -0.3170 -0.9845
  103MOL0     C13517   4.152   8.626   0.326 -0.6596 -0.6009  0.6790
  103MOL0     C13518   4.584   8.654   0.193  0.5070  0.6617  0.1767
  103MOL0     C13519   4.666   8.579   0.281 -0.2207 -0.3427 -0.5682
  103MOL0     C13520   4.804   8.603   0.293  0.5627  0.2719 -0.1849
  103MOL0     C13521   4.863   8.687   0.206 -1.9574 -0.3051 -0.4242
  103MOL0     O13522   4.996   8.690   0.225  0.4482  0.0185  0.1579
  103MOL0     C13523   5.077   8.788   0.142 -0.0092  0.2991 -0.1631
  103MOL0     C13524   5.220   8.788   0.189 -0.8229  0.7569  1.4413
  103MOL0     C13525   5.317   8.847   0.083 -0.3303 -0.3950  0.2318
  103MOL0     C13526   5.464   8.816   0.121 -0.1277  0.0998 -0.5093
  103MOL0     C13527   5.511   8.880   0.243  1.5201  0.0095 -0.1660
  103MOL0     C13528   5.551   8.947   0.341  0.2614  0.3313 -0.3913
  103MOL0     C13529   4.787   8.748   0.100  0.6116 -0.7093  0.6184
  103MOL0     C13530   4.649   8.742   0.107  0.2635 -0.2217 -0.0466
  103MOL0     H13531   4.297   8.332   0.416  0.5918  0.0161  3.6925
  103MOL0     H13532   4.090   8.305   0.530  1.0111 -1.7406 -1.2782
  103MOL0     H13533   3.992   8.523   0.698 -1.4073  1.8519  2.7963
  103MOL0     H13534   3.917   8.366   0.668  0.2416  0.6182 -2.7108
  103MOL0     H13535   3.775   8.631   0.754 -1.2165 -0.0163  3.5446
  103MOL0     H13536   3.791   8.496   0.855  0.5952  2.0792  0.7723
  103MOL0     H13537   3.664   8.357   0.711 -1.9603  0.0612  1.6381
  103MOL0     H13538   3.636   8.488   0.593 -1.4085 -0.7438 -0.3474
  103MOL0     H13539   3.548   8.546   0.875 -0.2842 -0.0349 -0.3769
  103MOL0     H13540   3.483   8.582   0.722  1.7649 -0.6766 -2.6158
  103MOL0     H13541   3.484   8.291   0.826  1.9916 -0.4931 -3.4397
  103MOL0     H13542   3.383   8.366   0.698 -2.7953  0.1714  1.8413
  103MOL0     H13543   3.289   8.518   0.869  1.2841  1.0046 -0.3333
  103MOL0     H13544   3.378   8.447   0.997 -2.4599  1.1408  0.3125
  103MOL0     H13545   3.178   8.292   0.825 -0.7590 -1.4218  0.8212
  103MOL0     H13546   3.261   8.236   0.967 -0.4811  0.6565  0.8778
  103MOL0     H13547   3.053   8.450   0.954 -0.4870  1.5971  2.1007
  103MOL0     H13548   3.178   8.443   1.085  2.6591 -3.3161  0.5682
  103MOL0     H13549   2.846   8.318   1.005 -0.0090  1.1427  0.2766
  103MOL0     H13550   2.722   8.049   1.181  0.6824 -0.1336  0.3204
  103MOL0     H13551   2.662   8.221   1.162  1.1615  1.2642 -0.7508
  103MOL0     H13552   2.768   8.117   1.428 -1.7780 -1.9998  1.9427
  103MOL0     H13553   2.593   8.111   1.386 -0.4301  0.4907 -0.7894
  103MOL0     H13554   2.778   8.347   1.403  0.1188 -0.7157  0.2708
  103MOL0     H13555   2.606   8.371   1.368 -0.1440 -0.5750  0.4256
  103MOL0     H13556   2.673   8.411   1.609  2.1057 -0.5329  1.0760
  103MOL0     H13557   2.712   8.239   1.619  1.7407  2.4595  1.9151
  103MOL0     H13558   2.311   8.103   1.623 -1.3771  1.3964 -0.9423
  103MOL0     H13559   2.190   8.077   1.830  0.5964 -0.1824  0.8872
  103MOL0     H13560   2.003   8.302   2.200  0.9285 -0.4599 -2.3293
  103MOL0     H13561   1.927   8.297   2.425  2.8262  1.2138 -0.7383
  103MOL0     H13562   1.928   7.919   2.676 -1.0191 -0.4717  0.8007
  103MOL0     H13563   1.792   7.943   2.568 -0.2502  2.4099 -1.7016
  103MOL0     H13564   1.678   8.071   2.738 -0.1145 -0.9062 -0.4285
  103MOL0     H13565   1.831   8.086   2.829 -0.9173 -0.4812  2.2538
  103MOL0     H13566   1.835   7.836   2.866 -0.6235 -0.9498  2.5719
  103MOL0     H13567   1.658   7.834   2.828 -1.1429  0.1409  1.8160
  103MOL0     H13568   1.805   7.956   3.059 -0.6450  0.6080  1.4843
  103MOL0     H13569   1.662   8.037   3.001  0.9846  0.1907  1.2688
  103MOL0     H13570   1.665   7.737   3.080  1.8800  1.3704  1.9754
  103MOL0     H13571   1.532   7.825   3.013  0.3144 -0.6803 -1.1459
  103MOL0     H13572   1.667   7.914   3.287  1.9618 -0.1290 -0.9215
  103MOL0     H13573   1.536   7.795   3.266  0.4902 -2.4587 -4.2447
  103MOL0     H13574   1.514   8.074   3.173  3.7490 -1.9459  0.0548
  103MOL0     H13575   1.388   7.943   3.152 -0.2768 -0.9437  0.9426
  103MOL0     H13576   1.472   8.097   3.393  1.7016  0.3589 -2.5713
  103MOL0     H13577   1.430   7.939   3.422 -2.6767  0.1242  0.7410
  103MOL0     H13578   2.046   7.888   2.468  3.2415  0.0820 -0.9056
  103MOL0     H13579   2.145   7.890   2.252 -4.1399 -2.7094  0.1870
  103MOL0     H13580   2.431   8.390   2.007 -3.1870  0.6473  0.2625
  103MOL0     H13581   2.542   8.430   1.806  0.7706 -0.2135 -2.0222
  103MOL0     H13582   3.953   8.691   0.378  0.6594  0.5974  0.5382
  103MOL0     H13583   4.168   8.724   0.281 -2.0072 -1.1054 -0.9737
  103MOL0     H13584   4.606   8.512   0.342  3.2186 -2.0455  1.2173
  103MOL0     H13585   4.861   8.558   0.373 -0.1204 -1.5761 -0.6758
  103MOL0     H13586   5.048   8.891   0.165 -1.1741 -0.5193  2.4504
  103MOL0     H13587   5.065   8.767   0.035  0.4664  1.3134 -0.4185
  103MOL0     H13588   5.222   8.847   0.281 -1.3041 -0.6215  2.3853
  103MOL0     H13589   5.250   8.686   0.216 -0.9066  0.5504  0.7773
  103MOL0     H13590   5.303   8.956   0.079  1.0992 -0.1661  0.9352
  103MOL0     H13591   5.312   8.803  -0.017  0.6149  2.0685 -0.9856
  103MOL0     H13592   5.488   8.710   0.123 -2.7156 -0.6036 -2.0498
  103MOL0     H13593   5.524   8.852   0.037  0.2341 -3.2001 -1.8220
  103MOL0     H13594   5.585   8.992   0.432 -1.2498  0.5194  0.1079
  103MOL0     H13595   4.833   8.810   0.024 -2.1178 -1.8440 -2.1717
  103MOL0     H13596   4.596   8.819   0.052  1.3076  1.2974  1.0167
  104MOL0     O13597   3.447   2.921   2.947 -0.3878  0.2612 -0.0881
  104MOL0     C13598   3.458   2.843   2.855  0.0608  0.2015  0.6309
  104MOL0     O13599   3.383   2.842   2.742  0.5261  0.1387  0.0780
  104MOL0     C13600   3.290   2.942   2.728  1.2402  0.3886 -0.6594
  104MOL0     C13601   3.181   2.952   2.828  0.4508 -0.2429  1.0778
  104MOL0     C13602   3.083   3.049   2.805 -1.1716  0.4051 -0.8579
  104MOL0     C13603   3.091   3.137   2.694 -0.9127  0.1604  0.2444
  104MOL0     O13604   2.994   3.237   2.697  0.1013 -0.0977  0.1385
  104MOL0     C13605   2.987   3.329   2.579 -0.7842  0.0340  0.2766
  104MOL0     C13606   2.890   3.438   2.615  0.1828 -0.3392  0.1527
  104MOL0     C13607   2.774   3.406   2.706 -0.7900  0.1570 -0.2669
  104MOL0     C13608   2.678   3.528   2.720  0.0166  0.0671 -0.8979
  104MOL0     C13609   2.551   3.506   2.629  0.3056  0.0860  0.8009
  104MOL0     C13610   2.468   3.622   2.584 -0.7048 -0.4431  0.0869
  104MOL0     C13611   2.442   3.725   2.690 -0.0045  1.0511 -0.3443
  104MOL0     C13612   2.393   3.855   2.632  0.6392  0.0360 -0.0331
  104MOL0     N13613   2.253   3.849   2.571 -0.5654 -0.7734 -0.6036
  104MOL0     C13614   2.216   3.796   2.448  0.3124 -0.9155 -0.8777
  104MOL0     C13615   2.086   3.795   2.437 -0.1958 -0.1148 -1.7636
  104MOL0     C13616   2.005   3.750   2.312 -0.4259  0.9688 -0.2259
  104MOL0     C13617   1.857   3.735   2.334  0.9228  0.0245  0.8738
  104MOL0     C13618   1.785   3.874   2.335 -0.9056 -0.3658  0.6031
  104MOL0     C13619   1.781   3.924   2.197  0.8879 -0.5595  0.6697
  104MOL0     O13620   1.698   4.048   2.188  0.8459  0.3000  0.2616
  104MOL0     C13621   1.569   4.039   2.236  0.6132 -0.0256  0.7937
  104MOL0     C13622   1.457   3.990   2.153 -0.9596  0.0231 -0.3641
  104MOL0     C13623   1.327   3.976   2.197 -0.4160  0.3889  0.1145
  104MOL0     C13624   1.296   4.004   2.328  0.9044 -0.0314  0.2731
  104MOL0     C13625   1.156   3.994   2.380  0.2175 -0.1244  0.3948
  104MOL0     O13626   1.074   3.903   2.318 -0.5845  0.4996  0.1767
  104MOL0     C13627   0.948   3.871   2.362 -0.2618 -0.3713  0.0742
  104MOL0     C13628   0.844   3.967   2.391 -0.6495 -0.1547  0.3034
  104MOL0     C13629   0.732   3.924   2.458  0.2705 -0.0429  0.5322
  104MOL0     C13630   0.712   3.780   2.464 -0.2347  0.7104 -1.1492
  104MOL0     O13631   0.587   3.724   2.518 -0.1810  0.1491 -0.2243
  104MOL0     C13632   0.483   3.754   2.437  0.2136 -0.0042  0.4804
  104MOL0     C13633   0.359   3.669   2.477  0.4635  0.2128  0.5154
  104MOL0     C13634   0.247   3.707   2.385  0.2247  0.5567  0.3228
  104MOL0     C13635   0.129   3.615   2.429 -0.4485 -0.4423  0.3472
  104MOL0     C13636  -0.004   3.661   2.373  0.3776  0.4700 -0.3755
  104MOL0     C13637  -0.121   3.567   2.403  1.1762  0.7233 -0.3275
  104MOL0     C13638  -0.257   3.628   2.350 -0.2060 -0.1214  0.1305
  104MOL0     C13639  -0.365   3.525   2.380 -0.1697 -0.4806  0.5446
  104MOL0    Cl13640  -0.511   3.575   2.279  0.2244  0.3995  0.0222
  104MOL0     C13641   0.812   3.686   2.437  0.2904 -0.5932  0.4243
  104MOL0     C13642   0.928   3.739   2.387  0.7958 -0.1322  0.3771
  104MOL0     O13643   1.130   4.054   2.484  1.1339 -0.5353  0.0942
  104MOL0     C13644   1.403   4.071   2.407 -0.0073  0.3326 -0.1910
  104MOL0     C13645   1.540   4.070   2.367 -1.1256 -0.4188 -0.2719
  104MOL0     N13646   2.042   3.836   2.571  0.1236  0.8775  0.9430
  104MOL0     N13647   2.141   3.880   2.638  0.1271  0.0259 -0.4375
  104MOL0     C13648   3.198   3.123   2.601 -0.9395 -0.1717 -0.0767
  104MOL0     C13649   3.294   3.027   2.621  0.0787 -0.2951  0.3282
  104MOL0     C13650   3.564   2.744   2.865 -0.3516 -0.3353  0.2321
  104MOL0     C13651   3.639   2.734   2.985  0.2763  0.0151 -0.5213
  104MOL0     C13652   3.757   2.659   3.004 -0.2892  0.0885 -0.2903
  104MOL0     C13653   3.798   2.575   2.900  0.4349 -0.8914 -0.2424
  104MOL0     O13654   3.898   2.488   2.910 -0.8438  1.0031  0.3638
  104MOL0     C13655   3.925   2.428   3.038 -0.3118  0.1192 -0.3076
  104MOL0     C13656   4.055   2.491   3.094 -0.7062 -1.4425  0.6202
  104MOL0     C13657   4.184   2.445   3.034  0.4477  0.0088  0.2345
  104MOL0     C13658   4.297   2.521   3.090 -1.6449 -0.7546 -0.7159
  104MOL0     C13659   4.426   2.501   3.021  0.1017 -0.4462 -0.0372
  104MOL0     C13660   4.520   2.501   2.944 -0.1098 -0.2986 -0.7505
  104MOL0     C13661   3.735   2.584   2.781 -0.3238  0.1356  0.6898
  104MOL0     C13662   3.625   2.680   2.752 -0.4901  0.4011  0.2699
  104MOL0     H13663   3.174   2.870   2.898  3.2466  0.4861  2.3695
  104MOL0     H13664   2.998   3.043   2.872 -0.0601 -1.5544  0.4905
  104MOL0     H13665   2.952   3.274   2.491  4.2369  0.2509 -2.1949
  104MOL0     H13666   3.087   3.362   2.550 -0.3545 -3.9550 -3.8503
  104MOL0     H13667   2.865   3.486   2.520  2.6072 -0.8602 -0.8200
  104MOL0     H13668   2.956   3.506   2.668  1.8370 -1.5600 -0.2715
  104MOL0     H13669   2.807   3.378   2.806 -1.1285 -1.1058 -0.4985
  104MOL0     H13670   2.718   3.320   2.668  1.9800 -0.9132 -2.2801
  104MOL0     H13671   2.660   3.535   2.828 -0.9049 -3.4519 -0.7228
  104MOL0     H13672   2.723   3.620   2.682  0.0673 -0.3747 -1.9417
  104MOL0     H13673   2.490   3.423   2.663  0.8188 -1.2909 -1.4097
  104MOL0     H13674   2.587   3.475   2.530  1.9463  2.5791  0.5366
  104MOL0     H13675   2.375   3.591   2.534 -0.9489  0.1809  0.1400
  104MOL0     H13676   2.531   3.663   2.505  1.9921 -0.2582  2.1998
  104MOL0     H13677   2.375   3.678   2.762  2.2919 -0.7546  0.7729
  104MOL0     H13678   2.538   3.746   2.740  0.0079  1.7424 -0.6524
  104MOL0     H13679   2.463   3.883   2.552 -1.6491  1.4523 -1.6690
  104MOL0     H13680   2.405   3.936   2.705  0.7504  1.2067 -1.3114
  104MOL0     H13681   2.294   3.747   2.390  0.1912 -1.2661 -0.7482
  104MOL0     H13682   2.044   3.654   2.275  2.9662  2.0974  0.0669
  104MOL0     H13683   2.020   3.823   2.233 -0.6439  1.7519  0.4509
  104MOL0     H13684   1.848   3.682   2.430 -0.7525 -0.5221  0.4507
  104MOL0     H13685   1.797   3.678   2.263  0.6800  0.0446  1.0598
  104MOL0     H13686   1.685   3.845   2.368 -1.0199 -1.0788 -0.3235
  104MOL0     H13687   1.827   3.942   2.409  0.0660 -1.1445  0.7827
  104MOL0     H13688   1.738   3.848   2.131  0.2727 -1.4701  2.0823
  104MOL0     H13689   1.881   3.956   2.166  0.2482  1.7022  0.7611
  104MOL0     H13690   1.481   3.958   2.052 -3.0339 -0.2494 -0.8189
  104MOL0     H13691   1.252   3.931   2.133  1.7901 -2.9483 -0.3570
  104MOL0     H13692   0.853   4.075   2.380  0.3932  0.1270  3.0321
  104MOL0     H13693   0.656   3.986   2.504 -1.6366 -0.6622 -1.6015
  104MOL0     H13694   0.508   3.748   2.331 -1.1053 -0.9469  0.2032
  104MOL0     H13695   0.452   3.857   2.458  2.1653  1.1902 -1.8935
  104MOL0     H13696   0.325   3.694   2.578  0.8759 -2.2589  1.3390
  104MOL0     H13697   0.370   3.561   2.461  1.9649  0.0517  2.3981
  104MOL0     H13698   0.283   3.697   2.282 -0.9759 -1.5662  0.0396
  104MOL0     H13699   0.226   3.814   2.390 -1.3976  0.4605 -2.5527
  104MOL0     H13700   0.140   3.509   2.405 -0.6796 -0.3854 -0.0154
  104MOL0     H13701   0.133   3.613   2.538 -1.4839  0.9232  0.4364
  104MOL0     H13702   0.004   3.681   2.266 -0.6850  0.1826 -0.5179
  104MOL0     H13703  -0.021   3.759   2.418  0.2518  1.0315 -1.5940
  104MOL0     H13704  -0.133   3.542   2.509  0.3186 -2.5498 -1.0953
  104MOL0     H13705  -0.098   3.474   2.350  1.8479  0.6889  0.0076
  104MOL0     H13706  -0.280   3.716   2.411  2.3783  1.0504 -0.4513
  104MOL0     H13707  -0.257   3.666   2.247  0.9581  1.5011  0.6868
  104MOL0     H13708  -0.392   3.537   2.486 -2.1782  0.1519  0.0017
  104MOL0     H13709  -0.334   3.424   2.354 -0.3468 -0.1716 -0.9769
  104MOL0     H13710   0.803   3.578   2.428  1.5496 -0.5620 -2.2142
  104MOL0     H13711   0.999   3.665   2.352  2.0943  1.4127 -0.3562
  104MOL0     H13712   1.375   4.112   2.503 -1.5141 -0.2694 -0.3517
  104MOL0     H13713   1.621   4.105   2.431 -2.9732  0.4091  1.7548
  104MOL0     H13714   3.213   3.186   2.514  1.3488  0.5992  0.8068
  104MOL0     H13715   3.369   3.029   2.543 -0.7234  0.0788 -0.4523
  104MOL0     H13716   3.608   2.785   3.076  0.8843  2.4777 -1.5998
  104MOL0     H13717   3.806   2.654   3.100  1.4406 -0.1638 -1.1589
  104MOL0     H13718   3.941   2.320   3.031  1.5318  0.3446 -0.1636
  104MOL0     H13719   3.845   2.449   3.109  0.2680 -0.9033  0.6806
  104MOL0     H13720   4.050   2.599   3.077 -0.0065 -1.5019  0.0245
  104MOL0     H13721   4.059   2.474   3.202 -1.8112  1.4493  1.2223
  104MOL0     H13722   4.164   2.472   2.930 -3.4197  0.6117  0.9802
  104MOL0     H13723   4.204   2.338   3.046  3.2965 -0.1793 -3.8827
  104MOL0     H13724   4.283   2.628   3.071  0.6720 -0.2784 -0.0496
  104MOL0     H13725   4.308   2.505   3.198 -1.4733 -0.4421 -0.6853
  104MOL0     H13726   4.618   2.496   2.900  1.0411  2.0006  1.3006
  104MOL0     H13727   3.774   2.516   2.706 -3.8986 -4.2835  2.3484
  104MOL0     H13728   3.577   2.694   2.655  0.0419 -0.0535 -0.0605
  105MOL0     O13729  11.165   4.805   6.657 -0.0598  0.3579 -0.1563
  105MOL0     C13730  11.252   4.891   6.641  0.5729  0.3984  0.8443
  105MOL0     O13731  11.227   5.029   6.612 -0.0019  0.3177  0.1237
  105MOL0     C13732  11.101   5.073   6.583  1.1151 -0.9149 -0.6831
  105MOL0     C13733  11.012   4.998   6.507 -0.7822 -0.4370 -0.2026
  105MOL0     C13734  10.879   5.041   6.474 -0.4215 -0.6443  0.2603
  105MOL0     C13735  10.842   5.178   6.512 -0.3542 -0.4629  1.0280
  105MOL0     O13736  10.723   5.239   6.486  0.5121 -0.2786 -0.2671
  105MOL0     C13737  10.633   5.257   6.598  0.2914 -1.1847 -0.0280
  105MOL0     C13738  10.485   5.232   6.554  0.0447 -0.0044  0.1921
  105MOL0     C13739  10.444   5.320   6.443  0.5846  0.8589  0.7791
  105MOL0     C13740  10.312   5.259   6.371  0.0263 -0.8245 -0.3199
  105MOL0     C13741  10.254   5.364   6.274 -0.4522 -0.1700  0.6365
  105MOL0     C13742  10.144   5.457   6.333 -0.2498 -0.7479 -0.0322
  105MOL0     C13743  10.039   5.491   6.226 -0.3154 -0.5990 -0.6446
  105MOL0     C13744  10.003   5.645   6.222  0.5893 -0.1110  0.0159
  105MOL0     N13745   9.896   5.660   6.128  0.8051 -0.7430 -0.0185
  105MOL0     C13746   9.767   5.625   6.143 -0.3633  1.0133  0.6149
  105MOL0     C13747   9.715   5.655   6.022 -0.2065  0.2629 -0.5518
  105MOL0     C13748   9.582   5.608   5.977  0.7236  0.6023 -1.0216
  105MOL0     C13749   9.467   5.683   6.056 -0.3785 -0.3027  0.1204
  105MOL0     C13750   9.336   5.701   5.984 -0.3455  0.7294  0.2468
  105MOL0     C13751   9.259   5.567   5.964 -0.3282  0.4309  0.1389
  105MOL0     O13752   9.154   5.617   5.878  0.3987 -0.2117  0.4916
  105MOL0     C13753   9.027   5.633   5.925  0.2494  0.5137 -0.2469
  105MOL0     C13754   8.986   5.615   6.055 -0.0185  0.0085 -1.5436
  105MOL0     C13755   8.849   5.638   6.081  0.1703 -0.5092 -0.2308
  105MOL0     C13756   8.758   5.692   5.987 -0.5310  1.1034  0.6901
  105MOL0     C13757   8.624   5.718   6.023  0.6690 -0.7768  0.1981
  105MOL0     O13758   8.551   5.777   5.930 -0.0146  0.4173  0.1056
  105MOL0     C13759   8.413   5.775   5.941  0.0277  0.3450 -0.0937
  105MOL0     C13760   8.342   5.891   5.912  0.7210 -0.0618  0.6070
  105MOL0     C13761   8.199   5.895   5.918 -0.2225  0.3208 -1.2506
  105MOL0     C13762   8.132   5.778   5.963  0.2051  0.0595 -0.2661
  105MOL0     O13763   8.001   5.794   6.004 -0.5791  0.5673  0.0076
  105MOL0     C13764   7.932   5.680   6.055  0.9901  0.4589 -0.0915
  105MOL0     C13765   7.786   5.716   6.078  0.7363 -0.5744  1.0291
  105MOL0     C13766   7.689   5.600   6.046 -0.5717  0.7378  0.0068
  105MOL0     C13767   7.550   5.647   6.063  0.1966  0.2119  0.4712
  105MOL0     C13768   7.444   5.540   6.055 -0.7378  0.1123  0.3402
  105MOL0     C13769   7.309   5.600   6.092 -0.7538  1.5119  0.3681
  105MOL0     C13770   7.214   5.477   6.087  0.5877  0.2078 -0.5597
  105MOL0     C13771   7.104   5.504   6.185 -0.0921 -0.0360  0.3363
  105MOL0    Cl13772   7.017   5.664   6.148  0.0378 -0.2576 -0.4864
  105MOL0     C13773   8.211   5.665   5.991  0.6487  1.6013 -0.8300
  105MOL0     C13774   8.350   5.657   5.974 -0.4384 -0.2863 -0.1808
  105MOL0     O13775   8.593   5.694   6.136  0.5587 -0.4035 -0.0808
  105MOL0     C13776   8.807   5.703   5.857 -0.0090 -0.2645 -0.6240
  105MOL0     C13777   8.935   5.667   5.829 -0.5591 -0.4006  0.8805
  105MOL0     N13778   9.802   5.732   5.946 -0.1600 -0.1222  0.3094
  105MOL0     N13779   9.911   5.727   6.012  0.4247  0.0942  0.6630
  105MOL0     C13780  10.935   5.263   6.577 -0.8075 -0.4156 -0.0132
  105MOL0     C13781  11.051   5.197   6.632  0.8021 -0.5578 -0.0322
  105MOL0     C13782  11.397   4.850   6.659  0.3771  0.1006  0.1484
  105MOL0     C13783  11.507   4.917   6.607  0.0824 -0.4586 -0.8907
  105MOL0     C13784  11.634   4.883   6.626  0.3338  0.2148 -0.0385
  105MOL0     C13785  11.672   4.773   6.701 -0.0839 -0.5008  0.0520
  105MOL0     O13786  11.803   4.732   6.686  1.0322 -0.2144 -0.1920
  105MOL0     C13787  11.817   4.614   6.610 -0.5962 -0.0573  0.0959
  105MOL0     C13788  11.966   4.573   6.632 -0.3626 -0.1830 -0.6027
  105MOL0     C13789  11.995   4.534   6.779  0.0803 -0.4483  0.0574
  105MOL0     C13790  12.126   4.479   6.812  0.0763 -0.5646 -0.8877
  105MOL0     C13791  12.230   4.585   6.835 -0.7447 -0.0842  0.0256
  105MOL0     C13792  12.315   4.673   6.830 -0.8325  0.0541  0.2019
  105MOL0     C13793  11.569   4.690   6.757  0.3575 -0.5468  0.3220
  105MOL0     C13794  11.428   4.737   6.738 -0.8808 -0.0103 -0.7119
  105MOL0     H13795  11.038   4.903   6.459  0.1236  1.0630 -2.8882
  105MOL0     H13796  10.799   4.990   6.421 -2.5194 -1.5013  3.8955
  105MOL0     H13797  10.651   5.361   6.626 -3.0346 -0.7583  0.8896
  105MOL0     H13798  10.675   5.189   6.673 -1.4395 -1.9853  0.2672
  105MOL0     H13799  10.413   5.250   6.635 -1.6957 -2.8812 -0.5537
  105MOL0     H13800  10.473   5.126   6.530  2.1354  0.4145 -3.4257
  105MOL0     H13801  10.526   5.330   6.371  1.1460  1.7662  1.5201
  105MOL0     H13802  10.408   5.418   6.477 -2.3402  0.7031 -1.5033
  105MOL0     H13803  10.333   5.176   6.304  2.3494 -1.1804  0.7832
  105MOL0     H13804  10.245   5.224   6.450  1.1206 -2.5918 -0.1241
  105MOL0     H13805  10.196   5.305   6.203 -0.6337 -1.9896  2.2010
  105MOL0     H13806  10.324   5.420   6.211 -0.4448 -0.4487  0.3952
  105MOL0     H13807  10.187   5.542   6.387  3.9484  0.2724 -4.2711
  105MOL0     H13808  10.083   5.393   6.398 -3.9076  0.0647 -2.4181
  105MOL0     H13809  10.076   5.463   6.127  2.7169  2.1530 -0.4425
  105MOL0     H13810   9.943   5.446   6.253  1.1165 -2.5711  1.5541
  105MOL0     H13811  10.089   5.706   6.193 -0.1329  1.0431  0.2389
  105MOL0     H13812   9.972   5.676   6.322 -1.8354 -0.6095 -0.5004
  105MOL0     H13813   9.712   5.573   6.220  0.7067 -2.2045 -0.6201
  105MOL0     H13814   9.572   5.499   5.988  3.0907  0.3998 -0.2368
  105MOL0     H13815   9.573   5.627   5.870 -1.6607 -0.1977 -1.0164
  105MOL0     H13816   9.510   5.783   6.064 -0.5470 -0.3770  3.1006
  105MOL0     H13817   9.447   5.641   6.155  0.0021 -1.9677 -0.4739
  105MOL0     H13818   9.270   5.769   6.039 -0.9885 -0.7027  1.3074
  105MOL0     H13819   9.368   5.743   5.888  2.7276  2.6041  1.8932
  105MOL0     H13820   9.233   5.516   6.057 -0.1430  1.3539  0.7197
  105MOL0     H13821   9.324   5.495   5.913 -3.6260 -2.4102 -0.3699
  105MOL0     H13822   9.046   5.584   6.140  0.6926 -0.0961 -2.0751
  105MOL0     H13823   8.812   5.630   6.182  1.1102 -1.8278  0.0390
  105MOL0     H13824   8.386   5.987   5.889 -2.6364  0.9854 -2.3865
  105MOL0     H13825   8.132   5.981   5.911 -1.0509 -0.3612 -1.9629
  105MOL0     H13826   7.987   5.654   6.145  4.0072  0.7210 -1.7161
  105MOL0     H13827   7.937   5.598   5.983  0.6251  1.2007 -0.9885
  105MOL0     H13828   7.761   5.804   6.018  0.4801 -0.7685  0.8474
  105MOL0     H13829   7.783   5.738   6.185 -0.4354 -0.2488  0.9418
  105MOL0     H13830   7.699   5.514   6.113  2.6203  0.8600 -0.1828
  105MOL0     H13831   7.700   5.558   5.946  0.4579 -2.0275  1.1797
  105MOL0     H13832   7.532   5.695   6.159  0.8591  0.3296  0.5417
  105MOL0     H13833   7.514   5.712   5.983 -2.4707 -1.7844 -0.0755
  105MOL0     H13834   7.471   5.461   6.125  2.2189  3.0832  2.9011
  105MOL0     H13835   7.442   5.504   5.952  0.8961 -0.2240  0.4044
  105MOL0     H13836   7.289   5.679   6.019  2.7396  1.4719 -0.8207
  105MOL0     H13837   7.319   5.643   6.193 -0.4662  1.8551  0.1951
  105MOL0     H13838   7.182   5.477   5.982  1.4334 -0.1667 -0.8274
  105MOL0     H13839   7.261   5.382   6.110  2.3283  1.1434 -0.0521
  105MOL0     H13840   7.137   5.512   6.289  1.8338  3.3187 -0.3632
  105MOL0     H13841   7.036   5.419   6.176  1.9161 -1.5141 -4.5491
  105MOL0     H13842   8.161   5.576   6.028  2.8551  1.1804  1.3647
  105MOL0     H13843   8.406   5.566   5.989 -1.5910 -1.0923 -0.6286
  105MOL0     H13844   8.762   5.759   5.776 -0.9519  0.3395  0.2836
  105MOL0     H13845   8.966   5.679   5.726  2.7385 -1.5098  1.6245
  105MOL0     H13846  10.902   5.363   6.605  0.3723  0.2523 -0.8824
  105MOL0     H13847  11.111   5.249   6.705  1.2175  0.6028 -1.1612
  105MOL0     H13848  11.474   5.002   6.547 -3.9482 -0.0346  1.5179
  105MOL0     H13849  11.700   4.949   6.572 -0.2250 -1.7521 -3.4014
  105MOL0     H13850  11.799   4.638   6.505  1.4630 -2.7628 -0.9944
  105MOL0     H13851  11.758   4.530   6.647 -1.0510 -0.9509 -2.4330
  105MOL0     H13852  11.984   4.497   6.556  1.1335  0.2568 -0.7005
  105MOL0     H13853  12.035   4.651   6.598  1.2838  0.0673  2.8863
  105MOL0     H13854  11.923   4.456   6.806 -0.6681  0.4861  0.7951
  105MOL0     H13855  11.974   4.625   6.835  0.1555  0.6758 -1.6530
  105MOL0     H13856  12.122   4.420   6.904  1.2550  0.6084 -0.0478
  105MOL0     H13857  12.159   4.411   6.733 -0.0311 -1.2954 -0.3073
  105MOL0     H13858  12.396   4.743   6.834  0.1711 -1.0356 -0.3952
  105MOL0     H13859  11.579   4.600   6.817 -1.3121  0.3503  2.0289
  105MOL0     H13860  11.342   4.682   6.774  0.1400 -0.1710  1.6607
  106MOL0     O13861   1.742   2.795  11.297 -0.1180  0.1105 -0.2087
  106MOL0     C13862   1.720   2.812  11.416  0.4182  0.0591 -0.3394
  106MOL0     O13863   1.602   2.777  11.479 -0.2341  0.1415  0.0013
  106MOL0     C13864   1.510   2.702  11.408 -0.5829  0.2857 -0.5479
  106MOL0     C13865   1.379   2.736  11.420  1.2048  0.8697  0.6091
  106MOL0     C13866   1.266   2.677  11.352  0.0378  0.4884 -0.5142
  106MOL0     C13867   1.299   2.560  11.267 -0.9262 -0.1006  0.1487
  106MOL0     O13868   1.212   2.488  11.192 -0.1745 -0.4488  0.0886
  106MOL0     C13869   1.075   2.523  11.183 -0.4563  0.5076  0.0862
  106MOL0     C13870   1.006   2.464  11.308 -0.2288  0.0732 -0.2009
  106MOL0     C13871   0.860   2.484  11.300 -1.0152 -1.0974 -0.5038
  106MOL0     C13872   0.799   2.437  11.437 -0.6420 -0.7778  1.3228
  106MOL0     C13873   0.651   2.403  11.417  0.2567 -0.3304 -0.0992
  106MOL0     C13874   0.601   2.422  11.561  0.8142 -0.0666 -0.1564
  106MOL0     C13875   0.448   2.407  11.558  0.6834  0.3570 -0.8703
  106MOL0     C13876   0.376   2.533  11.613  0.5540 -0.2148 -0.5449
  106MOL0     N13877   0.236   2.528  11.647  0.5422  0.3986 -0.7097
  106MOL0     C13878   0.139   2.450  11.595  0.0706  0.5179  0.2720
  106MOL0     C13879   0.023   2.477  11.659  0.3036  0.5371  0.0384
  106MOL0     C13880  -0.113   2.416  11.646  0.1819  0.0009  0.2609
  106MOL0     C13881  -0.206   2.516  11.580  0.3411 -0.4827  0.4887
  106MOL0     C13882  -0.345   2.465  11.542  0.0475  0.4714  0.3141
  106MOL0     C13883  -0.438   2.473  11.658 -0.6826  0.0975  1.2637
  106MOL0     O13884  -0.402   2.386  11.773  0.0879  0.1650  0.0710
  106MOL0     C13885  -0.496   2.295  11.820  0.5447  0.0010 -0.4599
  106MOL0     C13886  -0.445   2.176  11.862  0.3205 -0.2012 -0.4586
  106MOL0     C13887  -0.528   2.074  11.922 -1.1301  0.4284 -0.6617
  106MOL0     C13888  -0.661   2.097  11.961  0.0323 -0.3168  0.1067
  106MOL0     C13889  -0.743   1.999  12.034 -0.5080  0.7446  0.2211
  106MOL0     O13890  -0.863   2.022  12.072 -0.3039 -0.5591  0.1670
  106MOL0     C13891  -0.920   1.962  12.182  0.6983  0.2978 -0.0793
  106MOL0     C13892  -0.852   1.917  12.289  0.0371  0.9850  0.3061
  106MOL0     C13893  -0.925   1.852  12.403 -0.7406 -0.3670  0.4552
  106MOL0     C13894  -1.067   1.858  12.403 -0.2225  0.1952  0.4701
  106MOL0     O13895  -1.142   1.791  12.496 -0.2994 -0.3738 -0.6534
  106MOL0     C13896  -1.084   1.777  12.622  0.3772 -0.6822  0.8719
  106MOL0     C13897  -1.175   1.691  12.722  0.0801 -0.3185  0.8342
  106MOL0     C13898  -1.317   1.740  12.733  0.1238 -0.1109 -0.0374
  106MOL0     C13899  -1.405   1.652  12.836 -1.0928  0.1291 -0.8821
  106MOL0     C13900  -1.547   1.678  12.808  0.5056  0.4101 -0.5444
  106MOL0     C13901  -1.606   1.546  12.743 -0.8394 -0.3745  0.3978
  106MOL0     C13902  -1.756   1.572  12.710  0.1937  0.4535 -0.3165
  106MOL0     C13903  -1.762   1.580  12.553 -0.1498  1.6388 -0.6633
  106MOL0    Cl13904  -1.915   1.653  12.510 -0.0010 -0.2754  0.1730
  106MOL0     C13905  -1.127   1.908  12.290  0.6098  0.4944  0.2566
  106MOL0     C13906  -1.053   1.965  12.179 -0.1407 -0.3167 -0.2316
  106MOL0     O13907  -0.689   1.889  12.039 -0.5825  0.3780  0.0926
  106MOL0     C13908  -0.712   2.220  11.916 -0.1435 -0.1337  0.3420
  106MOL0     C13909  -0.635   2.316  11.850  0.7169  0.8780 -0.3315
  106MOL0     N13910   0.052   2.565  11.763 -0.6560  0.7141  0.3277
  106MOL0     N13911   0.176   2.595  11.757  0.3354  0.0274 -0.1705
  106MOL0     C13912   1.440   2.517  11.255 -0.2870 -0.1751 -0.1998
  106MOL0     C13913   1.539   2.591  11.318 -0.1818  0.3189  0.1685
  106MOL0     C13914   1.826   2.862  11.501  0.0346  0.1127 -0.4963
  106MOL0     C13915   1.800   2.944  11.611  0.4979 -0.3265  0.7454
  106MOL0     C13916   1.904   3.004  11.685 -0.1568 -0.8925  0.5224
  106MOL0     C13917   2.033   2.987  11.640 -0.5078  0.5382 -0.0823
  106MOL0     O13918   2.138   3.059  11.698 -0.2356 -0.2667 -0.6261
  106MOL0     C13919   2.112   3.195  11.711 -0.1687 -0.2187  0.2995
  106MOL0     C13920   2.084   3.247  11.570 -0.3210 -0.7001 -0.4814
  106MOL0     C13921   2.120   3.396  11.543  0.8478  0.2183 -0.4338
  106MOL0     C13922   2.056   3.490  11.644  0.8702 -0.7377 -0.2008
  106MOL0     C13923   2.130   3.499  11.768  0.0552 -0.9657  0.1063
  106MOL0     C13924   2.179   3.497  11.880  0.6191 -0.5077  0.4999
  106MOL0     C13925   2.059   2.897  11.541 -0.8424 -0.1782 -0.1334
  106MOL0     C13926   1.955   2.836  11.471 -0.8961  0.5955  0.7932
  106MOL0     H13927   1.356   2.812  11.493  2.0889 -1.2357  3.2678
  106MOL0     H13928   1.166   2.718  11.356  0.2358  0.8981  1.1047
  106MOL0     H13929   1.041   2.477  11.090  0.9235 -0.7821  0.1748
  106MOL0     H13930   1.064   2.631  11.170 -0.3794  0.2737 -2.4003
  106MOL0     H13931   1.049   2.510  11.397 -2.7988  1.7336  0.3099
  106MOL0     H13932   1.032   2.358  11.303 -3.4235 -0.9665  1.8342
  106MOL0     H13933   0.826   2.416  11.222 -1.6309 -2.0032  0.5357
  106MOL0     H13934   0.828   2.589  11.291  0.0594 -0.8243 -1.4385
  106MOL0     H13935   0.862   2.352  11.466 -0.6349 -0.3900  2.4830
  106MOL0     H13936   0.818   2.522  11.502 -0.9201 -1.1113  1.8483
  106MOL0     H13937   0.636   2.298  11.389  2.8857 -0.7966  0.0516
  106MOL0     H13938   0.604   2.486  11.362 -0.8497  0.8500  2.4733
  106MOL0     H13939   0.621   2.525  11.593  1.4028 -0.1190 -0.3468
  106MOL0     H13940   0.652   2.361  11.636  3.4911  1.7447 -0.3503
  106MOL0     H13941   0.409   2.380  11.459  0.2760  1.8892 -1.1564
  106MOL0     H13942   0.420   2.326  11.626 -2.6532  0.3895 -2.0232
  106MOL0     H13943   0.376   2.598  11.524  1.5060 -0.1212 -0.4818
  106MOL0     H13944   0.418   2.595  11.693 -0.6513 -2.0362  1.6100
  106MOL0     H13945   0.161   2.369  11.526 -2.1135 -0.4419  0.6337
  106MOL0     H13946  -0.145   2.412  11.751  3.5024 -3.7009  1.3823
  106MOL0     H13947  -0.113   2.319  11.596 -2.7015  0.4700 -0.8663
  106MOL0     H13948  -0.169   2.556  11.485  0.2960  2.9904  1.7696
  106MOL0     H13949  -0.208   2.606  11.642  2.7734 -0.3170  0.4430
  106MOL0     H13950  -0.378   2.520  11.453  3.0387 -0.0374 -1.2194
  106MOL0     H13951  -0.338   2.359  11.516 -1.2314  1.0464 -2.8239
  106MOL0     H13952  -0.541   2.454  11.627 -0.4903  0.4189  0.3906
  106MOL0     H13953  -0.429   2.575  11.697  3.5508  0.6563 -0.6346
  106MOL0     H13954  -0.339   2.155  11.874  0.0676 -0.9405  0.6487
  106MOL0     H13955  -0.476   1.985  11.956  0.1638  1.4169  0.0754
  106MOL0     H13956  -0.744   1.907  12.283  0.1456 -0.3070  2.9896
  106MOL0     H13957  -0.863   1.818  12.485 -0.6050 -1.7495 -0.1893
  106MOL0     H13958  -1.053   1.870  12.670  0.5360 -1.0211  1.4451
  106MOL0     H13959  -0.999   1.710  12.606  0.4702  0.2002 -3.6183
  106MOL0     H13960  -1.127   1.680  12.819  0.1148  3.7873  1.4660
  106MOL0     H13961  -1.169   1.590  12.682  1.4646 -0.2300  0.7580
  106MOL0     H13962  -1.377   1.731  12.642 -4.6983  0.6263  2.7101
  106MOL0     H13963  -1.309   1.845  12.762 -0.8576 -0.1263  0.3329
  106MOL0     H13964  -1.381   1.547  12.822 -2.3781 -0.3857  0.4486
  106MOL0     H13965  -1.365   1.685  12.932  0.1959 -0.2853 -1.2658
  106MOL0     H13966  -1.560   1.766  12.744  0.0705  0.3710 -0.5150
  106MOL0     H13967  -1.591   1.700  12.906  0.3678 -0.6628 -0.3548
  106MOL0     H13968  -1.592   1.478  12.827  1.3861  0.3653  0.7115
  106MOL0     H13969  -1.555   1.506  12.654 -0.4210  1.3339 -0.1778
  106MOL0     H13970  -1.815   1.490  12.752 -0.1646 -0.1883 -1.9947
  106MOL0     H13971  -1.793   1.657  12.768  1.9380  2.6016 -2.1164
  106MOL0     H13972  -1.743   1.486  12.500  2.4801 -0.4530  3.4297
  106MOL0     H13973  -1.679   1.641  12.518  1.1239  0.3989  0.0700
  106MOL0     H13974  -1.235   1.919  12.285  0.3989 -1.3332  0.1873
  106MOL0     H13975  -1.111   1.987  12.090 -0.8135 -0.2776  0.2029
  106MOL0     H13976  -0.808   2.254  11.953 -0.6000 -0.1990 -0.7417
  106MOL0     H13977  -0.704   2.395  11.821 -1.6432 -1.6159 -1.9349
  106MOL0     H13978   1.466   2.439  11.185  0.2511  0.2978 -0.5415
  106MOL0     H13979   1.639   2.563  11.285  0.3236 -0.2127  1.9922
  106MOL0     H13980   1.696   2.963  11.634  0.1409 -2.0203  0.6542
  106MOL0     H13981   1.889   3.058  11.779  2.0480  0.3894  0.2072
  106MOL0     H13982   2.197   3.249  11.754 -1.4969  0.9957  1.5184
  106MOL0     H13983   2.029   3.214  11.779  3.1385 -1.6816  5.2757
  106MOL0     H13984   2.135   3.191  11.491  2.7056  2.3084 -0.8931
  106MOL0     H13985   1.976   3.244  11.557 -0.2227  0.5434 -1.7916
  106MOL0     H13986   2.092   3.429  11.442  1.8069  0.3728 -0.6531
  106MOL0     H13987   2.229   3.402  11.542  1.0265 -1.9498 -0.1209
  106MOL0     H13988   2.052   3.592  11.608 -0.7688  0.4774  3.0072
  106MOL0     H13989   1.952   3.463  11.663  0.8614 -2.4221 -2.2729
  106MOL0     H13990   2.212   3.505  11.982 -0.3227 -0.8484  0.8500
  106MOL0     H13991   2.160   2.861  11.524 -0.9065  0.1656 -1.2844
  106MOL0     H13992   1.985   2.767  11.393 -1.6206  0.8258  0.3014
  107MOL0     O13993   6.445   5.322   5.154  0.6024 -1.0511  0.0861
  107MOL0     C13994   6.537   5.262   5.206  1.0654  0.0298 -0.9478
  107MOL0     O13995   6.542   5.126   5.228 -0.0763  0.3733  0.0028
  107MOL0     C13996   6.433   5.052   5.188 -0.3093  0.7005  0.8591
  107MOL0     C13997   6.447   4.971   5.079  0.4484  0.6126 -0.0182
  107MOL0     C13998   6.345   4.886   5.038  0.3041 -0.4808 -0.0476
  107MOL0     C13999   6.221   4.882   5.107  0.6941 -0.9339 -0.0814
  107MOL0     O14000   6.119   4.802   5.067  0.6379 -0.5262 -0.6349
  107MOL0     C14001   6.157   4.667   5.063 -0.2248 -0.7681 -0.0269
  107MOL0     C14002   6.030   4.575   5.071  0.2254  0.2959  0.0585
  107MOL0     C14003   5.913   4.639   5.159  0.7705  0.3409 -0.2796
  107MOL0     C14004   5.778   4.550   5.147 -1.2844 -1.1456  0.1869
  107MOL0     C14005   5.794   4.409   5.200 -0.2729  0.3461 -0.5023
  107MOL0     C14006   5.662   4.335   5.215  0.7521 -0.3444  0.0749
  107MOL0     C14007   5.689   4.199   5.269 -0.2115 -0.2991 -0.5788
  107MOL0     C14008   5.555   4.117   5.275  0.1272  0.6219 -0.3507
  107MOL0     N14009   5.527   4.049   5.150 -0.0608  0.0640  0.0052
  107MOL0     C14010   5.436   4.084   5.044 -0.1332 -0.2640  1.6070
  107MOL0     C14011   5.441   3.977   4.960  0.7765 -0.6180 -0.6798
  107MOL0     C14012   5.361   3.970   4.824 -0.6943  0.1993 -0.4957
  107MOL0     C14013   5.243   4.073   4.816  0.5027  0.6811  1.1126
  107MOL0     C14014   5.142   4.065   4.930 -0.1387  0.0307  0.1021
  107MOL0     C14015   5.002   4.106   4.881  0.4252  0.7568 -0.9829
  107MOL0     O14016   4.931   4.098   4.994  0.5487 -0.1264  0.1340
  107MOL0     C14017   4.795   4.085   4.986 -1.0034 -0.4313  0.3098
  107MOL0     C14018   4.726   4.077   4.863  0.0008 -1.3508  0.1151
  107MOL0     C14019   4.589   4.064   4.860 -0.1974 -0.1386 -0.4185
  107MOL0     C14020   4.515   4.046   4.984  0.4875  0.5438  0.4393
  107MOL0     C14021   4.377   4.009   4.975  0.9590  0.4815 -0.7457
  107MOL0     O14022   4.289   4.051   4.885 -0.1925  0.0958 -0.5375
  107MOL0     C14023   4.157   4.027   4.871  0.4289 -0.9269 -0.0425
  107MOL0     C14024   4.087   4.145   4.850  0.6895  0.3804 -0.2362
  107MOL0     C14025   3.945   4.144   4.836  0.2993 -0.1825 -0.1400
  107MOL0     C14026   3.877   4.020   4.840 -0.2919 -0.3613  0.1707
  107MOL0     O14027   3.743   4.020   4.811 -0.3905 -0.2573 -0.3779
  107MOL0     C14028   3.716   3.930   4.691  0.1545 -0.3580 -0.3229
  107MOL0     C14029   3.569   3.890   4.687  0.3738  0.1722 -0.4789
  107MOL0     C14030   3.562   3.792   4.571 -0.7663 -0.8460 -0.0687
  107MOL0     C14031   3.410   3.767   4.532  0.0771  0.1424 -0.5189
  107MOL0     C14032   3.380   3.706   4.396  0.3478 -0.4394  0.4872
  107MOL0     C14033   3.421   3.561   4.383  0.4489 -0.3315 -0.2375
  107MOL0     C14034   3.389   3.517   4.237 -0.0315 -0.2078 -1.1883
  107MOL0     C14035   3.401   3.357   4.232 -0.2451  0.2169 -0.2296
  107MOL0    Cl14036   3.355   3.281   4.085 -0.4673 -0.0183  0.1893
  107MOL0     C14037   3.945   3.903   4.872  0.2995 -0.5967  0.6483
  107MOL0     C14038   4.086   3.918   4.902  0.5697  1.0156 -0.2381
  107MOL0     O14039   4.339   3.940   5.072 -0.2573 -0.7008 -0.2335
  107MOL0     C14040   4.583   4.053   5.105 -0.6329 -0.1128 -0.4602
  107MOL0     C14041   4.724   4.071   5.105  0.3840 -0.4914  0.1763
  107MOL0     N14042   5.517   3.886   5.016  0.0840  0.9981 -0.1659
  107MOL0     N14043   5.566   3.923   5.130 -0.4816 -0.1676  0.5842
  107MOL0     C14044   6.205   4.973   5.214 -0.2097 -0.2443  0.8139
  107MOL0     C14045   6.314   5.061   5.250 -0.0695  0.6052  0.5385
  107MOL0     C14046   6.667   5.332   5.224 -0.8157 -0.1559 -0.0901
  107MOL0     C14047   6.683   5.454   5.158  0.5275 -0.7536 -0.3434
  107MOL0     C14048   6.802   5.532   5.161 -0.3779 -0.0412 -0.6762
  107MOL0     C14049   6.917   5.488   5.234  0.2221  0.5395 -0.1938
  107MOL0     O14050   7.022   5.564   5.257  0.2023  0.0816  0.1534
  107MOL0     C14051   7.140   5.504   5.298 -0.6178  0.0360 -0.9574
  107MOL0     C14052   7.253   5.607   5.263  0.0671  0.8900 -0.0544
  107MOL0     C14053   7.273   5.635   5.122  0.5588  0.1933 -0.7945
  107MOL0     C14054   7.381   5.746   5.108 -0.0777 -0.6552  0.1789
  107MOL0     C14055   7.513   5.700   5.125 -0.9133  0.8023  0.0547
  107MOL0     C14056   7.629   5.660   5.130 -0.4592 -0.1695  0.2601
  107MOL0     C14057   6.898   5.361   5.299 -0.3469 -0.3351  0.3782
  107MOL0     C14058   6.781   5.286   5.291 -1.0637 -0.3392  0.0959
  107MOL0     H14059   6.539   4.970   5.021 -0.1222  0.6410 -0.9538
  107MOL0     H14060   6.366   4.819   4.956 -0.1231  0.3889 -0.8823
  107MOL0     H14061   6.225   4.645   5.145  2.4897 -1.1464 -2.2482
  107MOL0     H14062   6.202   4.648   4.965 -0.9751 -1.4992 -0.2403
  107MOL0     H14063   6.067   4.482   5.115 -1.0984  0.1013  0.8414
  107MOL0     H14064   5.991   4.553   4.971  0.8850  0.4912 -0.2464
  107MOL0     H14065   5.884   4.739   5.126  1.0250  1.6571  3.1092
  107MOL0     H14066   5.937   4.641   5.266  2.5321  0.7068 -0.6466
  107MOL0     H14067   5.702   4.601   5.206  0.6946  0.0516  1.8383
  107MOL0     H14068   5.742   4.538   5.044 -2.4777 -1.4759  0.6274
  107MOL0     H14069   5.835   4.420   5.300  2.3858  1.8905 -1.6404
  107MOL0     H14070   5.859   4.345   5.139  1.6202 -0.0254  1.7630
  107MOL0     H14071   5.612   4.335   5.117 -2.9752 -0.5484  1.7885
  107MOL0     H14072   5.590   4.387   5.280 -2.0367 -1.6075 -1.8016
  107MOL0     H14073   5.756   4.146   5.200 -0.7874 -3.6651  1.2473
  107MOL0     H14074   5.735   4.198   5.368  1.2937  1.9697 -1.1722
  107MOL0     H14075   5.470   4.182   5.298 -0.2279  0.0562 -0.0454
  107MOL0     H14076   5.557   4.036   5.349 -1.4155  1.2152  0.3891
  107MOL0     H14077   5.379   4.175   5.030  0.2548 -0.2031  0.3644
  107MOL0     H14078   5.321   3.869   4.813  2.0554 -1.3915  2.4894
  107MOL0     H14079   5.426   3.992   4.738 -1.8868 -0.3378 -1.5726
  107MOL0     H14080   5.208   4.056   4.714 -0.6250 -1.5102  1.8104
  107MOL0     H14081   5.291   4.171   4.821  4.0892 -0.6133 -2.4758
  107MOL0     H14082   5.139   3.961   4.964 -1.3140 -0.4779 -1.4791
  107MOL0     H14083   5.173   4.128   5.014  0.0465 -0.1176  0.1459
  107MOL0     H14084   4.975   4.055   4.788 -1.6921  1.5208 -0.8211
  107MOL0     H14085   5.001   4.213   4.857 -0.7307  1.0312  0.2058
  107MOL0     H14086   4.778   4.081   4.768  1.3945 -1.8275  0.8206
  107MOL0     H14087   4.542   4.069   4.762 -0.9223  2.0760 -0.0147
  107MOL0     H14088   4.138   4.241   4.851 -1.6167  1.7143 -1.9443
  107MOL0     H14089   3.891   4.235   4.812  2.6003  1.0718 -0.7620
  107MOL0     H14090   3.781   3.842   4.682  2.8046  1.6131 -1.5684
  107MOL0     H14091   3.730   3.990   4.601  0.9113  0.1811  0.1472
  107MOL0     H14092   3.505   3.976   4.665 -0.3350 -0.4158 -0.7963
  107MOL0     H14093   3.533   3.838   4.776 -0.2593  1.2927 -0.0580
  107MOL0     H14094   3.613   3.698   4.594  1.0065 -0.1593 -0.9584
  107MOL0     H14095   3.611   3.842   4.486  0.8713 -0.1338  1.2383
  107MOL0     H14096   3.366   3.709   4.613 -1.9373  1.2437 -0.7421
  107MOL0     H14097   3.350   3.859   4.538 -2.3688 -1.4702  2.4198
  107MOL0     H14098   3.438   3.762   4.322 -1.5073  0.5462 -0.2826
  107MOL0     H14099   3.274   3.707   4.371  0.0420 -0.1107  1.7812
  107MOL0     H14100   3.359   3.511   4.458  0.7019 -0.3501 -0.0424
  107MOL0     H14101   3.528   3.550   4.399  0.3796 -2.7231 -1.0778
  107MOL0     H14102   3.284   3.540   4.221 -0.3249 -0.3625  0.3615
  107MOL0     H14103   3.455   3.554   4.158  0.6163 -0.5170 -0.8046
  107MOL0     H14104   3.344   3.314   4.315  1.2363 -0.6597  0.3968
  107MOL0     H14105   3.505   3.327   4.251  0.5541  3.5461  1.3302
  107MOL0     H14106   3.903   3.805   4.887 -2.0806  0.0982 -0.8763
  107MOL0     H14107   4.129   3.831   4.951 -1.0903  0.2431 -0.0835
  107MOL0     H14108   4.532   4.048   5.200 -1.4305  2.0113 -0.7307
  107MOL0     H14109   4.779   4.078   5.198 -0.0896 -3.0527  0.7070
  107MOL0     H14110   6.112   4.974   5.270 -1.0198 -0.6819 -0.4803
  107MOL0     H14111   6.301   5.119   5.341 -1.9275 -0.1280  0.7775
  107MOL0     H14112   6.604   5.499   5.100 -0.1783 -2.6016 -0.8630
  107MOL0     H14113   6.806   5.627   5.110 -2.6267  1.3987  1.5507
  107MOL0     H14114   7.162   5.413   5.242  0.1064 -0.6741  0.4302
  107MOL0     H14115   7.138   5.488   5.406 -2.4741  1.8262 -0.6722
  107MOL0     H14116   7.243   5.699   5.321  3.5420  0.6370  1.1811
  107MOL0     H14117   7.339   5.550   5.301 -2.1311 -1.3111  1.9649
  107MOL0     H14118   7.182   5.678   5.079 -0.8665  0.2409  2.0287
  107MOL0     H14119   7.306   5.544   5.071 -2.8462 -3.9784  3.4784
  107MOL0     H14120   7.361   5.760   5.002 -0.5838 -0.6145  0.2764
  107MOL0     H14121   7.354   5.838   5.161 -0.7650  0.9447 -2.7612
  107MOL0     H14122   7.725   5.613   5.132 -0.7305 -0.8390  3.1908
  107MOL0     H14123   6.976   5.326   5.365 -0.1934  2.7142  1.9940
  107MOL0     H14124   6.774   5.189   5.338 -0.8048  0.6462  2.2906
  108MOL0     O14125   9.800  10.425   5.286 -0.5473  0.1461 -0.1663
  108MOL0     C14126   9.831  10.544   5.303 -0.0215 -0.2824  0.8013
  108MOL0     O14127   9.738  10.650   5.307 -0.0912  0.4348 -0.1211
  108MOL0     C14128   9.607  10.618   5.296 -0.1796  0.1804 -1.2372
  108MOL0     C14129   9.520  10.685   5.203  0.4017  0.1086 -0.6328
  108MOL0     C14130   9.384  10.681   5.212  0.0825  0.3461 -0.2705
  108MOL0     C14131   9.324  10.590   5.307  0.5821 -0.1667 -0.1583
  108MOL0     O14132   9.190  10.557   5.293 -0.3435 -0.0097  0.0094
  108MOL0     C14133   9.101  10.638   5.209  0.2094  0.5127  0.5949
  108MOL0     C14134   9.077  10.781   5.267 -0.0299  0.2357 -0.0828
  108MOL0     C14135   8.992  10.790   5.399 -0.0002 -0.4644 -0.3198
  108MOL0     C14136   8.851  10.821   5.352  0.1229  0.8930  0.6119
  108MOL0     C14137   8.758  10.790   5.476  0.7384 -0.1501  0.7940
  108MOL0     C14138   8.614  10.779   5.431 -0.1418  0.7417  0.1738
  108MOL0     C14139   8.567  10.913   5.390 -0.2444  0.5617 -0.2590
  108MOL0     C14140   8.418  10.922   5.366 -0.1690  0.1855  0.1878
  108MOL0     N14141   8.341  10.939   5.489 -0.3523  0.9077 -0.0617
  108MOL0     C14142   8.307  10.835   5.578 -0.1417 -0.0383 -0.1417
  108MOL0     C14143   8.233  10.899   5.676 -0.7049  0.0592 -0.4200
  108MOL0     C14144   8.176  10.857   5.806  0.6791 -0.0736  0.4760
  108MOL0     C14145   8.018  10.853   5.806  0.8519 -0.6326  0.4369
  108MOL0     C14146   7.945  10.843   5.932 -0.2765  0.4505 -0.7293
  108MOL0     C14147   7.798  10.849   5.922 -0.1939  0.3472  0.4775
  108MOL0     O14148   7.738  10.852   6.050  0.0509 -0.3490  0.5479
  108MOL0     C14149   7.603  10.857   6.044 -0.1333  0.4259  0.6907
  108MOL0     C14150   7.527  10.979   6.026 -0.1065  0.1530 -0.0791
  108MOL0     C14151   7.377  10.973   6.045 -0.7264  0.4652 -0.9994
  108MOL0     C14152   7.318  10.854   6.090 -0.0691  0.4017  1.1312
  108MOL0     C14153   7.169  10.854   6.102 -0.7442 -0.6215 -0.7080
  108MOL0     O14154   7.118  10.735   6.147 -0.0686 -0.6631 -0.1972
  108MOL0     C14155   6.983  10.716   6.179 -0.4366 -1.2260  0.1703
  108MOL0     C14156   6.877  10.772   6.110  0.4283 -0.3551  0.1329
  108MOL0     C14157   6.744  10.740   6.152  0.2875  0.5915  0.4667
  108MOL0     C14158   6.722  10.639   6.246  0.3502 -0.1245 -0.3312
  108MOL0     O14159   6.593  10.599   6.277 -0.5096 -0.7926 -0.3916
  108MOL0     C14160   6.478  10.623   6.188  0.4272  0.4243 -0.1191
  108MOL0     C14161   6.359  10.521   6.219 -0.6188  0.4304  0.4650
  108MOL0     C14162   6.342  10.521   6.371  0.0612  0.2620  0.3410
  108MOL0     C14163   6.229  10.424   6.411 -0.5467  0.3305 -0.6581
  108MOL0     C14164   6.103  10.428   6.341  0.6177  0.3995 -0.1191
  108MOL0     C14165   5.999  10.337   6.412 -0.3498  0.1389  0.4788
  108MOL0     C14166   5.917  10.416   6.505  0.1347 -1.4572 -0.8468
  108MOL0     C14167   5.823  10.324   6.588 -0.5555 -0.4395 -1.0331
  108MOL0    Cl14168   5.710  10.247   6.476 -0.3017  0.1820  0.2175
  108MOL0     C14169   6.833  10.583   6.308 -0.2640  0.0703  0.7117
  108MOL0     C14170   6.961  10.625   6.274  0.4177  0.1639 -1.0820
  108MOL0     O14171   7.109  10.955   6.070  0.3490 -0.3500 -0.2752
  108MOL0     C14172   7.400  10.737   6.095  0.3705 -0.3777 -0.4122
  108MOL0     C14173   7.537  10.738   6.079  1.1644 -0.6323 -0.1462
  108MOL0     N14174   8.224  11.033   5.629 -0.4926  0.1323 -1.0335
  108MOL0     N14175   8.294  11.056   5.527 -0.5199  0.1145 -0.5401
  108MOL0     C14176   9.406  10.516   5.390  0.3526 -0.7288  0.8126
  108MOL0     C14177   9.546  10.524   5.382 -0.0559 -0.2168 -0.5982
  108MOL0     C14178   9.976  10.569   5.306  0.1171  0.0355 -0.0276
  108MOL0     C14179  10.071  10.465   5.296  0.7484 -0.7772 -0.5085
  108MOL0     C14180  10.208  10.481   5.301  0.0871 -0.2287 -0.4915
  108MOL0     C14181  10.259  10.610   5.336  0.0336  0.1972 -0.8334
  108MOL0     O14182  10.397  10.609   5.345 -0.1523  0.5599  0.7331
  108MOL0     C14183  10.457  10.734   5.307  0.0710  0.0646  0.3372
  108MOL0     C14184  10.605  10.748   5.340 -1.1634 -0.1667  0.0269
  108MOL0     C14185  10.685  10.650   5.253  0.5343  1.1386  0.2203
  108MOL0     C14186  10.816  10.613   5.321  0.3716  0.3493 -0.3556
  108MOL0     C14187  10.927  10.714   5.290 -0.1222  0.5591  0.1468
  108MOL0     C14188  11.018  10.793   5.255  1.0529  0.2855  0.6893
  108MOL0     C14189  10.169  10.709   5.354  0.2886 -0.3829 -0.0142
  108MOL0     C14190  10.031  10.692   5.343  0.6410 -0.6538  0.6129
  108MOL0     H14191   9.567  10.760   5.140  1.7474 -0.3293 -0.1829
  108MOL0     H14192   9.333  10.735   5.132  3.2684  3.2364 -0.5674
  108MOL0     H14193   8.997  10.604   5.205 -0.9017  3.6571 -1.5715
  108MOL0     H14194   9.132  10.650   5.104  1.5241 -0.6376  0.8220
  108MOL0     H14195   9.027  10.848   5.196 -1.3356  1.4510  1.8654
  108MOL0     H14196   9.177  10.817   5.291 -0.1002  0.3376  0.0617
  108MOL0     H14197   9.032  10.867   5.466 -0.8323 -1.4083  1.3111
  108MOL0     H14198   9.000  10.690   5.444 -1.0909 -0.2486  0.3860
  108MOL0     H14199   8.854  10.920   5.307  0.9737 -1.1967 -4.6418
  108MOL0     H14200   8.819  10.758   5.269 -0.5901  0.4739  1.1843
  108MOL0     H14201   8.769  10.868   5.552 -0.6443  1.1610 -0.2742
  108MOL0     H14202   8.793  10.693   5.513  1.5088 -1.0210 -1.9345
  108MOL0     H14203   8.553  10.733   5.509  2.2068 -0.0080  1.6661
  108MOL0     H14204   8.616  10.717   5.341  2.6983  1.1039 -0.0926
  108MOL0     H14205   8.584  10.984   5.472  0.0395 -1.4676  1.5626
  108MOL0     H14206   8.616  10.946   5.298  1.2170  0.3747  0.4082
  108MOL0     H14207   8.376  10.837   5.311 -1.4075  1.8829 -1.6395
  108MOL0     H14208   8.400  11.007   5.300 -5.0965 -0.0018  0.8916
  108MOL0     H14209   8.339  10.731   5.571 -0.4961 -0.0322 -3.8846
  108MOL0     H14210   8.203  10.922   5.890  0.8440 -2.2207  2.2130
  108MOL0     H14211   8.207  10.755   5.832  0.3695 -0.4488 -0.5779
  108MOL0     H14212   7.972  10.776   5.744 -1.0068  1.6929 -1.2732
  108MOL0     H14213   7.980  10.948   5.768  2.3847  0.1757  0.8714
  108MOL0     H14214   7.966  10.744   5.973 -2.5884 -0.4436 -1.5665
  108MOL0     H14215   7.967  10.924   6.002  1.3671 -1.1954  0.7917
  108MOL0     H14216   7.756  10.775   5.853  1.3237 -0.0987 -0.0069
  108MOL0     H14217   7.770  10.945   5.879 -0.6684  0.1265  0.2735
  108MOL0     H14218   7.569  11.075   6.001 -3.1075  1.0727 -2.2368
  108MOL0     H14219   7.314  11.061   6.032  2.7727  2.9000 -3.2788
  108MOL0     H14220   6.886  10.834   6.021  0.2595 -0.7487 -0.1637
  108MOL0     H14221   6.660  10.783   6.098  0.0422 -0.8001 -0.2949
  108MOL0     H14222   6.489  10.600   6.081 -1.2138 -2.6917  0.2827
  108MOL0     H14223   6.441  10.725   6.206  0.0132  0.1846  0.3763
  108MOL0     H14224   6.372  10.428   6.163  2.0995  0.8912  0.1643
  108MOL0     H14225   6.275  10.574   6.173  1.2092  1.4074 -1.9889
  108MOL0     H14226   6.311  10.624   6.394 -0.3931  0.4975 -1.2390
  108MOL0     H14227   6.427  10.486   6.430 -0.9999  0.0550  1.8075
  108MOL0     H14228   6.273  10.324   6.405 -2.8480 -0.6956 -1.3759
  108MOL0     H14229   6.205  10.452   6.514  0.3481  1.0927 -0.6447
  108MOL0     H14230   6.117  10.401   6.236  1.8786  0.0470  0.1243
  108MOL0     H14231   6.062  10.529   6.346 -0.1312  0.0509  1.6964
  108MOL0     H14232   6.050  10.261   6.472  0.6734  0.0196 -0.5031
  108MOL0     H14233   5.933  10.293   6.337 -0.5768 -2.5239  2.1210
  108MOL0     H14234   5.984  10.468   6.575  0.3259 -0.0932 -2.0023
  108MOL0     H14235   5.870  10.495   6.446 -2.6685 -2.3635  0.0299
  108MOL0     H14236   5.766  10.372   6.668  1.3840 -0.7770  0.6557
  108MOL0     H14237   5.880  10.248   6.641  0.7707  1.3690  0.2787
  108MOL0     H14238   6.817  10.514   6.391 -2.9837 -0.7184 -0.3499
  108MOL0     H14239   7.043  10.582   6.331 -1.6485 -2.6904 -0.0125
  108MOL0     H14240   7.357  10.642   6.124 -2.2185  0.4647 -1.2169
  108MOL0     H14241   7.601  10.652   6.098  1.2990 -0.6899 -0.8492
  108MOL0     H14242   9.363  10.456   5.470 -1.8310  0.5584  0.6580
  108MOL0     H14243   9.608  10.490   5.465  0.4671 -0.3776 -1.0470
  108MOL0     H14244  10.033  10.364   5.287 -2.6521  0.3647 -0.4473
  108MOL0     H14245  10.264  10.390   5.283  1.5279  0.1319  1.7821
  108MOL0     H14246  10.413  10.824   5.349 -0.8422 -0.5521  0.7341
  108MOL0     H14247  10.448  10.750   5.199  1.9261 -0.1152  0.1219
  108MOL0     H14248  10.628  10.852   5.313  2.2677 -0.8976 -0.2921
  108MOL0     H14249  10.626  10.727   5.445 -0.6508 -1.9493 -0.4105
  108MOL0     H14250  10.696  10.703   5.158 -0.1392  5.5766  2.3582
  108MOL0     H14251  10.627  10.558   5.239  0.6191  1.1039  0.0926
  108MOL0     H14252  10.797  10.594   5.427 -2.6275  2.3864 -0.4078
  108MOL0     H14253  10.849  10.522   5.270 -1.7471  0.9392 -3.0542
  108MOL0     H14254  11.100  10.849   5.217 -1.4478  4.0161  0.2847
  108MOL0     H14255  10.206  10.810   5.372  1.5333 -0.3490 -2.3978
  108MOL0     H14256   9.967  10.780   5.345  0.0589 -1.0271 -0.4594
  109MOL0     O14257   1.876   6.196   8.518  0.0960 -0.2954  0.5850
  109MOL0     C14258   1.911   6.249   8.625  0.3112  0.5556  0.4417
  109MOL0     O14259   1.825   6.292   8.723 -1.1835  0.3989 -0.3411
  109MOL0     C14260   1.690   6.287   8.706 -0.1366  0.3018 -0.2510
  109MOL0     C14261   1.625   6.331   8.588 -0.3627  1.0938  0.3336
  109MOL0     C14262   1.486   6.350   8.574 -0.1890 -0.0815 -0.6721
  109MOL0     C14263   1.406   6.323   8.687 -0.2997  0.3757  0.0464
  109MOL0     O14264   1.282   6.370   8.687 -0.1222 -0.3662  0.1012
  109MOL0     C14265   1.198   6.365   8.566 -0.1574 -0.0826 -0.3719
  109MOL0     C14266   1.184   6.214   8.534 -0.0564 -1.2728 -0.3096
  109MOL0     C14267   1.096   6.186   8.403 -0.3347 -0.4330 -0.4526
  109MOL0     C14268   1.175   6.202   8.263 -0.3251 -0.9988 -0.1691
  109MOL0     C14269   1.092   6.165   8.131  0.1371  0.2922 -0.5917
  109MOL0     C14270   0.967   6.240   8.115 -0.1518 -1.6661 -1.0244
  109MOL0     C14271   0.889   6.226   7.986  0.4595  0.3422  0.1685
  109MOL0     C14272   0.829   6.085   7.959  0.8879  0.0130  0.1799
  109MOL0     N14273   0.706   6.092   7.867  0.1258 -0.0791  0.3161
  109MOL0     C14274   0.714   6.111   7.729  0.0406  0.2483  0.3313
  109MOL0     C14275   0.588   6.154   7.697  0.2515 -0.6256 -0.2221
  109MOL0     C14276   0.523   6.164   7.561  1.1788 -0.6755 -0.5073
  109MOL0     C14277   0.438   6.045   7.544  0.0252 -0.2342  0.3280
  109MOL0     C14278   0.371   6.051   7.400 -0.6284  0.2308 -0.3191
  109MOL0     C14279   0.246   6.132   7.403 -0.9624  0.8097  1.1099
  109MOL0     O14280   0.199   6.150   7.267  0.2259  0.1582  0.6401
  109MOL0     C14281   0.076   6.208   7.261 -0.3976 -0.2454  0.0499
  109MOL0     C14282   0.028   6.230   7.134  0.1628 -0.0291 -0.3935
  109MOL0     C14283  -0.097   6.287   7.108  0.7564 -0.3418 -0.4471
  109MOL0     C14284  -0.188   6.316   7.214 -0.2034  0.0275 -0.0218
  109MOL0     C14285  -0.323   6.357   7.191 -0.1360  0.1833  0.6959
  109MOL0     O14286  -0.337   6.448   7.090 -1.5639 -0.4838 -0.1923
  109MOL0     C14287  -0.467   6.487   7.088  0.7768  0.0785  0.4452
  109MOL0     C14288  -0.558   6.438   6.989  0.7495  0.2246 -0.0188
  109MOL0     C14289  -0.694   6.468   6.978  0.1515 -0.4960 -0.2339
  109MOL0     C14290  -0.745   6.544   7.072  0.3021 -0.3376  0.1664
  109MOL0     O14291  -0.873   6.591   7.071 -1.1037 -0.4292 -0.1591
  109MOL0     C14292  -0.960   6.561   6.958  0.3426 -0.1476 -0.7660
  109MOL0     C14293  -1.090   6.644   6.971 -0.6537  0.0271 -0.5079
  109MOL0     C14294  -1.186   6.584   7.070 -0.1260 -0.7965  0.0639
  109MOL0     C14295  -1.304   6.680   7.092 -0.0865 -0.0258  0.5292
  109MOL0     C14296  -1.414   6.706   6.984  0.6068  0.2201 -0.3569
  109MOL0     C14297  -1.545   6.770   7.034 -1.0911  0.0855 -0.1474
  109MOL0     C14298  -1.649   6.789   6.926  0.4249 -0.3494 -0.8753
  109MOL0     C14299  -1.727   6.672   6.865  0.0980  0.3312 -0.6137
  109MOL0    Cl14300  -1.830   6.590   6.983 -0.1033  0.1423  0.0367
  109MOL0     C14301  -0.665   6.611   7.168 -1.2078 -0.4114 -0.4035
  109MOL0     C14302  -0.525   6.582   7.165  0.1211  0.2796  0.0391
  109MOL0     O14303  -0.410   6.319   7.271 -0.2398  0.4280 -0.1625
  109MOL0     C14304  -0.135   6.312   7.340  0.1501  0.8967  0.8989
  109MOL0     C14305   0.002   6.263   7.372 -0.0122 -0.5013  0.2443
  109MOL0     N14306   0.521   6.173   7.816 -0.8294  0.1196  0.3411
  109MOL0     N14307   0.585   6.129   7.918  0.6011 -0.4494 -0.8778
  109MOL0     C14308   1.469   6.269   8.798  0.4393  0.1942  0.6829
  109MOL0     C14309   1.607   6.260   8.809  0.0947  0.3528  0.1793
  109MOL0     C14310   2.053   6.236   8.656 -0.2278 -0.0376  0.3124
  109MOL0     C14311   2.131   6.144   8.582 -0.4680  0.2548  0.1224
  109MOL0     C14312   2.265   6.136   8.608  0.0123  0.6970 -0.2515
  109MOL0     C14313   2.325   6.209   8.704  0.4846  0.1664 -0.0162
  109MOL0     O14314   2.464   6.205   8.696  0.2301  0.0544  0.3615
  109MOL0     C14315   2.532   6.256   8.808 -0.5319 -0.1356  0.2316
  109MOL0     C14316   2.682   6.227   8.800  1.1986  0.0814 -0.3990
  109MOL0     C14317   2.757   6.343   8.863 -0.0151  0.3679  0.2102
  109MOL0     C14318   2.913   6.320   8.876  1.3175  0.1453 -0.8448
  109MOL0     C14319   3.003   6.429   8.921  0.6642  0.0602 -0.5453
  109MOL0     C14320   3.070   6.526   8.948  0.1520 -0.5298  0.4937
  109MOL0     C14321   2.247   6.295   8.777  0.0555  0.1348  0.2030
  109MOL0     C14322   2.107   6.305   8.765 -0.3115  1.1910  0.2838
  109MOL0     H14323   1.690   6.358   8.505 -1.2599  2.1317 -0.0641
  109MOL0     H14324   1.461   6.404   8.483  1.3355 -0.6721 -1.4805
  109MOL0     H14325   1.239   6.414   8.477  0.0744  1.6434  0.6323
  109MOL0     H14326   1.098   6.403   8.590 -0.9687 -1.6115 -1.2485
  109MOL0     H14327   1.144   6.161   8.621  2.8953 -0.6144  1.5627
  109MOL0     H14328   1.282   6.165   8.531 -0.7780 -2.7775 -0.3484
  109MOL0     H14329   1.005   6.246   8.408  1.2389  2.0767  0.0407
  109MOL0     H14330   1.062   6.082   8.412  0.8257 -0.7563  0.3799
  109MOL0     H14331   1.204   6.307   8.259 -3.5280  0.0679  1.4334
  109MOL0     H14332   1.262   6.136   8.276 -0.0379 -0.7074 -0.5764
  109MOL0     H14333   1.063   6.060   8.141 -0.5214  0.5296  0.1582
  109MOL0     H14334   1.160   6.174   8.046  1.5687 -0.1814  0.4589
  109MOL0     H14335   0.984   6.345   8.139 -0.3980 -1.5670 -1.2812
  109MOL0     H14336   0.896   6.214   8.193  0.3396 -1.2408 -0.4277
  109MOL0     H14337   0.805   6.295   7.996  0.4712  0.3408  0.2742
  109MOL0     H14338   0.954   6.250   7.902 -0.3428 -1.1374 -0.9305
  109MOL0     H14339   0.790   6.039   8.050 -0.6238 -0.3493 -0.6277
  109MOL0     H14340   0.907   6.025   7.910 -1.0404 -0.1939 -2.8904
  109MOL0     H14341   0.792   6.103   7.653 -0.0966  0.7169  0.1331
  109MOL0     H14342   0.586   6.187   7.475 -0.1098  0.7490 -1.1256
  109MOL0     H14343   0.454   6.249   7.568 -0.0545 -1.7357  0.9925
  109MOL0     H14344   0.369   6.030   7.628  1.1145  1.5182  1.5907
  109MOL0     H14345   0.500   5.955   7.544  0.4117 -0.0467 -2.3635
  109MOL0     H14346   0.448   6.089   7.331  1.0866 -3.1560 -0.4599
  109MOL0     H14347   0.346   5.958   7.349  0.7795 -0.7170  0.6547
  109MOL0     H14348   0.263   6.219   7.467  3.1455 -0.5225  2.1473
  109MOL0     H14349   0.172   6.073   7.458  0.6783 -0.0056  2.5635
  109MOL0     H14350   0.090   6.201   7.050  0.4589  0.2679 -0.2778
  109MOL0     H14351  -0.136   6.291   7.006  0.9536 -2.3393 -0.6485
  109MOL0     H14352  -0.520   6.375   6.909 -1.3752  1.7605 -2.3788
  109MOL0     H14353  -0.742   6.437   6.886 -2.1479  0.0180  0.7319
  109MOL0     H14354  -0.986   6.455   6.957 -0.9723  0.0874  1.5080
  109MOL0     H14355  -0.906   6.583   6.866  2.3545 -1.6117  0.0051
  109MOL0     H14356  -1.138   6.639   6.872 -0.4772  0.9422 -0.6460
  109MOL0     H14357  -1.066   6.744   7.006 -3.3598 -0.0854  2.0921
  109MOL0     H14358  -1.143   6.572   7.170 -1.7357  1.6594  1.1727
  109MOL0     H14359  -1.228   6.486   7.044 -1.5192  0.0598 -1.0667
  109MOL0     H14360  -1.358   6.635   7.175 -1.1701  0.5921  0.1848
  109MOL0     H14361  -1.268   6.779   7.123 -1.5458  0.8078 -0.3037
  109MOL0     H14362  -1.434   6.609   6.937  2.3465 -1.2857  1.7563
  109MOL0     H14363  -1.383   6.773   6.904 -1.9334  0.5231 -1.1599
  109MOL0     H14364  -1.503   6.860   7.080 -1.0412  0.7148 -1.3804
  109MOL0     H14365  -1.583   6.715   7.121  2.0742  0.6192  1.7610
  109MOL0     H14366  -1.725   6.861   6.958 -1.9922 -3.0389 -0.1628
  109MOL0     H14367  -1.598   6.841   6.844 -0.1524 -0.3274 -1.2286
  109MOL0     H14368  -1.651   6.599   6.833 -0.3704 -0.9448  1.0112
  109MOL0     H14369  -1.780   6.696   6.772  0.3384 -1.8269 -1.3909
  109MOL0     H14370  -0.709   6.691   7.225  0.3134  1.4319 -1.6944
  109MOL0     H14371  -0.451   6.627   7.231 -1.4874  0.5480  1.7579
  109MOL0     H14372  -0.182   6.354   7.429 -0.6496 -2.0401  1.9869
  109MOL0     H14373   0.028   6.277   7.476  1.4101 -1.8665  0.1189
  109MOL0     H14374   1.408   6.251   8.886 -2.1768 -0.1784 -1.0955
  109MOL0     H14375   1.653   6.233   8.903  0.2095  1.1085  0.3478
  109MOL0     H14376   2.098   6.084   8.498  1.3760 -0.5711 -0.0529
  109MOL0     H14377   2.327   6.068   8.551  2.7633  0.6126  2.6009
  109MOL0     H14378   2.495   6.224   8.906  0.3822 -1.2882  0.2235
  109MOL0     H14379   2.511   6.363   8.796 -1.0958 -0.5076 -2.9226
  109MOL0     H14380   2.702   6.132   8.851  1.1027  0.3779  0.2001
  109MOL0     H14381   2.705   6.222   8.694 -1.8808  1.4454 -1.2644
  109MOL0     H14382   2.723   6.366   8.965  0.4340 -1.9052  0.9329
  109MOL0     H14383   2.741   6.427   8.795  0.5007 -1.8896 -2.8971
  109MOL0     H14384   2.923   6.239   8.949 -1.2431  2.7906  2.8545
  109MOL0     H14385   2.942   6.290   8.775 -0.0107 -0.0511 -1.1949
  109MOL0     H14386   3.141   6.601   8.978  2.8863 -3.0683  0.7800
  109MOL0     H14387   2.295   6.366   8.845  0.4844  2.5026 -2.4048
  109MOL0     H14388   2.044   6.368   8.828  1.4217  2.4540  0.8252
  110MOL0     O14389   7.984   6.414   4.273  0.4447 -0.5155 -0.2735
  110MOL0     C14390   7.980   6.538   4.274 -0.2283  0.6438  0.0044
  110MOL0     O14391   7.867   6.619   4.263 -0.1055 -0.0687  0.0031
  110MOL0     C14392   7.741   6.562   4.269  0.2149  0.6588  0.8041
  110MOL0     C14393   7.650   6.577   4.163 -0.8398  0.7611  0.3602
  110MOL0     C14394   7.513   6.552   4.172 -1.2590 -0.7736  0.2148
  110MOL0     C14395   7.458   6.504   4.294 -0.6231 -0.1550 -0.3035
  110MOL0     O14396   7.317   6.501   4.302  0.6413  0.4479 -0.5782
  110MOL0     C14397   7.251   6.474   4.430  0.9098 -0.0364 -0.0004
  110MOL0     C14398   7.257   6.587   4.530  0.0456 -0.4367 -0.2706
  110MOL0     C14399   7.192   6.720   4.483  0.3593  0.5758  0.2561
  110MOL0     C14400   7.229   6.845   4.568  0.1110 -0.1782  0.2089
  110MOL0     C14401   7.155   6.977   4.514 -0.2664  0.6228 -0.5277
  110MOL0     C14402   7.212   7.032   4.391 -0.2595  0.2267 -0.1426
  110MOL0     C14403   7.101   7.081   4.287  0.2018 -0.2170  0.1316
  110MOL0     C14404   7.167   7.159   4.166 -0.2345 -0.1245  0.5337
  110MOL0     N14405   7.072   7.168   4.053 -0.2651  0.7341  0.2528
  110MOL0     C14406   6.980   7.271   4.058 -0.7137  0.8100 -0.0023
  110MOL0     C14407   6.915   7.262   3.942  0.1245 -0.4669  0.3139
  110MOL0     C14408   6.801   7.362   3.902  0.7380  0.2909 -0.2877
  110MOL0     C14409   6.820   7.428   3.771 -0.2828 -0.9684 -0.3372
  110MOL0     C14410   6.709   7.536   3.742  1.5201  1.0502  0.1315
  110MOL0     C14411   6.583   7.460   3.706 -0.6295  0.5737 -0.3174
  110MOL0     O14412   6.485   7.556   3.675  1.1250  0.4286  0.6688
  110MOL0     C14413   6.380   7.556   3.768  0.3065 -1.1883  0.2644
  110MOL0     C14414   6.253   7.513   3.720  0.3747 -0.0543  0.0181
  110MOL0     C14415   6.146   7.511   3.814  0.2191 -0.1531  0.8416
  110MOL0     C14416   6.160   7.548   3.946  0.4200 -0.4015  0.4247
  110MOL0     C14417   6.044   7.559   4.038 -0.2018  0.2270  1.2300
  110MOL0     O14418   6.082   7.526   4.162 -0.1734 -0.2136  0.6568
  110MOL0     C14419   5.978   7.528   4.246  1.0436  0.0957 -0.1598
  110MOL0     C14420   5.881   7.433   4.227  0.6338  0.4933 -0.0059
  110MOL0     C14421   5.770   7.414   4.316  0.1463 -0.2017  0.8287
  110MOL0     C14422   5.767   7.496   4.439  0.0482  0.3608  0.2415
  110MOL0     O14423   5.654   7.484   4.514 -0.0673  0.2777 -0.0377
  110MOL0     C14424   5.627   7.610   4.595 -0.4262  0.4543  0.4563
  110MOL0     C14425   5.485   7.630   4.626  0.0057  0.4073  0.3627
  110MOL0     C14426   5.446   7.526   4.739 -0.8412 -0.3161  0.1929
  110MOL0     C14427   5.311   7.554   4.792 -0.2598  0.0637  0.2101
  110MOL0     C14428   5.281   7.474   4.911  0.4323 -0.1303 -0.5087
  110MOL0     C14429   5.145   7.526   4.963  0.5278 -0.2114 -1.1840
  110MOL0     C14430   5.029   7.485   4.878  0.5285 -0.1179  0.8085
  110MOL0     C14431   4.903   7.506   4.952 -0.6684  0.2554  0.2063
  110MOL0    Cl14432   4.853   7.679   4.971  0.0538  0.0666 -0.1329
  110MOL0     C14433   5.874   7.585   4.466  0.1322  0.7795  0.9869
  110MOL0     C14434   5.982   7.593   4.374  0.9940  0.2782  0.8834
  110MOL0     O14435   5.937   7.570   3.985  0.6080  0.2772  0.0342
  110MOL0     C14436   6.288   7.596   3.986  0.1934  0.0998 -0.2802
  110MOL0     C14437   6.394   7.603   3.897 -1.0883  0.1522 -0.4768
  110MOL0     N14438   6.974   7.159   3.861 -0.0544 -0.8261 -0.3945
  110MOL0     N14439   7.062   7.104   3.936  0.8395  0.3708  0.2547
  110MOL0     C14440   7.540   6.465   4.395 -0.8142  0.5339 -0.2484
  110MOL0     C14441   7.680   6.495   4.383 -0.7059 -0.3067  0.3951
  110MOL0     C14442   8.113   6.611   4.273  0.4263 -0.0428 -0.0824
  110MOL0     C14443   8.129   6.749   4.296  0.1160  0.1023  0.3491
  110MOL0     C14444   8.252   6.818   4.287  0.2967 -0.4740  0.7413
  110MOL0     C14445   8.367   6.747   4.255  0.3429  0.5161  0.0844
  110MOL0     O14446   8.477   6.823   4.223  0.0655 -0.3072 -0.1257
  110MOL0     C14447   8.609   6.797   4.275  0.2007 -1.2798  0.9269
  110MOL0     C14448   8.709   6.914   4.252  1.0327  0.5149 -0.7847
  110MOL0     C14449   8.849   6.864   4.208  0.3253  0.5282  0.4358
  110MOL0     C14450   8.930   6.991   4.171  0.3233 -0.6234 -0.8977
  110MOL0     C14451   9.066   6.963   4.127 -0.4297 -0.3311 -0.5188
  110MOL0     C14452   9.183   6.948   4.102 -0.6992 -0.7789 -0.3089
  110MOL0     C14453   8.356   6.607   4.237  0.6186 -0.4366  0.3125
  110MOL0     C14454   8.229   6.543   4.249 -0.4682 -0.1917 -0.9462
  110MOL0     H14455   7.700   6.628   4.082 -0.5486 -0.7338 -0.4375
  110MOL0     H14456   7.450   6.555   4.084 -2.9787 -0.9659  1.3797
  110MOL0     H14457   7.292   6.381   4.471 -1.7087 -1.0514  0.5767
  110MOL0     H14458   7.147   6.442   4.417  0.3086  1.6502  0.2945
  110MOL0     H14459   7.365   6.593   4.546  0.0761  2.1099 -0.9504
  110MOL0     H14460   7.215   6.545   4.622 -1.0606 -2.5519 -1.6493
  110MOL0     H14461   7.086   6.695   4.494 -0.1472  2.2862 -0.4505
  110MOL0     H14462   7.208   6.739   4.377  1.0113  1.5555  0.5210
  110MOL0     H14463   7.202   6.829   4.673 -1.5372 -1.4077 -0.3706
  110MOL0     H14464   7.338   6.851   4.566  0.2568 -2.2582 -1.9340
  110MOL0     H14465   7.151   7.051   4.595 -1.1944 -1.9622  1.9669
  110MOL0     H14466   7.053   6.946   4.488 -0.6607 -0.3277  1.8957
  110MOL0     H14467   7.282   6.959   4.348  0.6943  0.9568  0.1520
  110MOL0     H14468   7.276   7.117   4.416 -1.1865  0.4798  1.4935
  110MOL0     H14469   7.051   6.996   4.239 -0.3700  1.0439 -1.6207
  110MOL0     H14470   7.031   7.143   4.344 -1.0210 -1.8786  0.5330
  110MOL0     H14471   7.257   7.105   4.134 -0.1013  1.1938 -1.5604
  110MOL0     H14472   7.194   7.261   4.196  4.8919 -1.8423  3.0448
  110MOL0     H14473   6.961   7.341   4.138  1.2853  2.1872 -0.6403
  110MOL0     H14474   6.791   7.441   3.978 -2.6567  1.3387 -1.6752
  110MOL0     H14475   6.710   7.303   3.891  0.0420  1.4495 -0.9520
  110MOL0     H14476   6.843   7.368   3.682  0.6759  0.2454 -0.9407
  110MOL0     H14477   6.906   7.495   3.776 -0.2652 -0.9327 -1.0069
  110MOL0     H14478   6.700   7.597   3.833 -1.3101  0.9793 -0.0174
  110MOL0     H14479   6.744   7.601   3.661 -1.3381  0.3557 -1.7961
  110MOL0     H14480   6.562   7.391   3.789 -0.4085  0.0406 -0.6952
  110MOL0     H14481   6.611   7.392   3.625  2.1255 -0.0981  1.0779
  110MOL0     H14482   6.229   7.475   3.621  2.7104  1.8715 -1.3786
  110MOL0     H14483   6.047   7.479   3.784  0.2577 -1.0605  1.6424
  110MOL0     H14484   5.883   7.377   4.133  2.3813 -1.6850  1.2140
  110MOL0     H14485   5.689   7.344   4.296 -1.0109  1.3141 -0.0501
  110MOL0     H14486   5.665   7.699   4.544  0.4529  0.1026  0.4726
  110MOL0     H14487   5.683   7.599   4.688  1.8765 -0.5515 -0.9588
  110MOL0     H14488   5.425   7.621   4.535 -0.2192  0.5183  0.5007
  110MOL0     H14489   5.483   7.730   4.669  1.3644  0.1567  1.0740
  110MOL0     H14490   5.515   7.527   4.824 -0.7275  0.1500  0.0971
  110MOL0     H14491   5.441   7.418   4.719 -0.4446  0.1291 -2.8143
  110MOL0     H14492   5.316   7.662   4.813  2.0108  0.8744 -3.4319
  110MOL0     H14493   5.241   7.532   4.711 -1.4360  2.5754  0.4435
  110MOL0     H14494   5.353   7.501   4.989 -1.8456  0.1656  1.6125
  110MOL0     H14495   5.276   7.366   4.892 -0.1290  0.0638 -1.5607
  110MOL0     H14496   5.141   7.634   4.980  2.1855 -0.1140 -1.2415
  110MOL0     H14497   5.124   7.481   5.060 -1.3413  1.8532 -0.5551
  110MOL0     H14498   5.029   7.533   4.780 -1.1164 -0.3566  0.6720
  110MOL0     H14499   5.039   7.379   4.850 -0.3654  0.4518 -2.0367
  110MOL0     H14500   4.910   7.453   5.047 -0.3043  0.4017  0.2628
  110MOL0     H14501   4.826   7.465   4.885 -0.0923 -2.0907  0.8654
  110MOL0     H14502   5.876   7.647   4.555  1.0330  2.9605 -0.4533
  110MOL0     H14503   6.059   7.665   4.399  0.8020  0.8866 -0.1830
  110MOL0     H14504   6.275   7.647   4.081 -6.3267  0.8674 -1.1382
  110MOL0     H14505   6.483   7.657   3.928 -0.6703 -1.6320  1.7424
  110MOL0     H14506   7.509   6.418   4.488  0.6420 -1.1712 -0.5683
  110MOL0     H14507   7.733   6.476   4.476 -2.1000 -2.5167  0.8121
  110MOL0     H14508   8.046   6.812   4.329  2.0314  2.1515  1.5204
  110MOL0     H14509   8.260   6.926   4.295  1.9730 -0.5207  0.2260
  110MOL0     H14510   8.649   6.709   4.223 -3.5568 -2.2780 -0.6107
  110MOL0     H14511   8.586   6.785   4.382 -1.2997  0.6616  0.8814
  110MOL0     H14512   8.676   6.977   4.169 -1.1771 -1.5628 -1.5783
  110MOL0     H14513   8.708   6.981   4.339  1.2491  0.0417 -0.4132
  110MOL0     H14514   8.846   6.811   4.112  1.5090  0.1008  0.6120
  110MOL0     H14515   8.896   6.799   4.282 -1.7805 -0.6035  0.8355
  110MOL0     H14516   8.873   7.048   4.097  1.4414  1.6900 -0.0719
  110MOL0     H14517   8.926   7.055   4.260 -1.9834 -0.1186 -1.2969
  110MOL0     H14518   9.289   6.964   4.099 -0.9084  0.6070 -1.1544
  110MOL0     H14519   8.431   6.540   4.197 -1.0481 -1.6947 -0.8668
  110MOL0     H14520   8.210   6.436   4.241 -2.9814  0.1754 -0.8565
  111MOL0     O14521   5.719   9.330   3.012 -0.3864 -0.0344 -0.4472
  111MOL0     C14522   5.745   9.371   3.128  0.5971  0.2229  1.0634
  111MOL0     O14523   5.660   9.438   3.207  0.0568 -0.4155  0.4533
  111MOL0     C14524   5.544   9.498   3.150  0.3279  0.2703  0.7594
  111MOL0     C14525   5.484   9.597   3.231  0.3919  1.0162  0.6059
  111MOL0     C14526   5.362   9.661   3.184  0.4905  0.3937 -0.2455
  111MOL0     C14527   5.306   9.644   3.058  0.7834  0.2218  0.3313
  111MOL0     O14528   5.222   9.727   2.999 -0.3265  0.2269  1.1306
  111MOL0     C14529   5.105   9.776   3.065 -0.0500  0.5352  0.8162
  111MOL0     C14530   5.002   9.659   3.080 -0.6935  0.3666 -0.0761
  111MOL0     C14531   4.876   9.704   3.145 -0.6380 -0.4283  0.5126
  111MOL0     C14532   4.786   9.593   3.183 -0.9585  0.3595  0.2186
  111MOL0     C14533   4.652   9.626   3.250  1.2968  0.8698  0.6222
  111MOL0     C14534   4.562   9.510   3.298 -0.4780 -0.1524  0.5374
  111MOL0     C14535   4.445   9.560   3.391  0.3907 -0.8751  0.0603
  111MOL0     C14536   4.328   9.612   3.305  0.4952 -0.0756 -0.3170
  111MOL0     N14537   4.213   9.650   3.396 -0.1351  0.9442  0.1621
  111MOL0     C14538   4.095   9.581   3.415 -0.1070  0.5299 -0.8890
  111MOL0     C14539   4.031   9.667   3.503 -1.3689  0.1834  0.3361
  111MOL0     C14540   3.889   9.650   3.548  0.1247 -0.3185  0.2496
  111MOL0     C14541   3.788   9.670   3.435 -0.1101 -0.6811 -0.4244
  111MOL0     C14542   3.635   9.669   3.472 -0.3866  1.0605  0.4449
  111MOL0     C14543   3.602   9.763   3.580  0.0813 -0.6354 -0.0496
  111MOL0     O14544   3.459   9.778   3.588  0.1612 -0.7666  0.4197
  111MOL0     C14545   3.423   9.872   3.678 -1.2471  0.5264 -1.1191
  111MOL0     C14546   3.436   9.844   3.815 -0.4478  0.2381 -0.1536
  111MOL0     C14547   3.402   9.947   3.903 -0.2216  0.5869 -0.8231
  111MOL0     C14548   3.356  10.079   3.870 -0.6609  0.2121 -0.5200
  111MOL0     C14549   3.313  10.170   3.975 -0.6770 -0.9339 -1.1485
  111MOL0     O14550   3.242  10.284   3.938  0.0331 -0.4287  0.4593
  111MOL0     C14551   3.215  10.380   4.038 -0.2646  0.6956 -0.0726
  111MOL0     C14552   3.100  10.362   4.118  0.0636 -0.4129 -0.3291
  111MOL0     C14553   3.080  10.430   4.240  0.0266 -0.1979  0.5193
  111MOL0     C14554   3.166  10.532   4.276 -0.2782 -0.4031 -1.1532
  111MOL0     O14555   3.173  10.605   4.387  0.3446  0.4046  0.4136
  111MOL0     C14556   3.172  10.536   4.509  0.0673  0.9660 -0.8333
  111MOL0     C14557   3.281  10.590   4.613 -0.6211 -1.0537 -0.7590
  111MOL0     C14558   3.248  10.562   4.763  0.4429 -0.7589 -0.9452
  111MOL0     C14559   3.345  10.642   4.853 -0.4589  0.1174 -0.2182
  111MOL0     C14560   3.312  10.604   4.997  0.5751  0.3316 -0.3358
  111MOL0     C14561   3.375  10.704   5.104  0.3754 -0.9463 -0.1681
  111MOL0     C14562   3.392  10.629   5.243 -0.0506  0.0938 -0.1563
  111MOL0     C14563   3.382  10.724   5.363  0.3368 -0.5486 -0.4387
  111MOL0    Cl14564   3.363  10.651   5.527  0.0512  0.3889 -0.4770
  111MOL0     C14565   3.268  10.570   4.185 -0.6441  0.1836 -0.4583
  111MOL0     C14566   3.292  10.490   4.072  0.3893 -1.6169 -0.3323
  111MOL0     O14567   3.353  10.143   4.087 -0.3488 -0.3336 -0.6038
  111MOL0     C14568   3.346  10.105   3.737 -1.0657  0.7045  0.2532
  111MOL0     C14569   3.384  10.002   3.643  0.5654  0.2822  0.1893
  111MOL0     N14570   4.107   9.776   3.532 -0.1818 -0.7015  0.0234
  111MOL0     N14571   4.217   9.759   3.472  0.7883 -0.1739 -0.0540
  111MOL0     C14572   5.362   9.541   2.976 -0.5593  0.2361  0.5143
  111MOL0     C14573   5.474   9.464   3.020  0.0018  0.3008 -1.1805
  111MOL0     C14574   5.876   9.332   3.180 -0.9596  0.7081 -0.5497
  111MOL0     C14575   5.967   9.271   3.097  0.3007  1.3530  0.3313
  111MOL0     C14576   6.091   9.232   3.148 -0.3751 -0.8262  0.2496
  111MOL0     C14577   6.127   9.257   3.284  0.8021  0.2958  0.8434
  111MOL0     O14578   6.257   9.249   3.322 -0.0025 -0.1801 -0.0523
  111MOL0     C14579   6.287   9.119   3.376  0.1271  0.2131  0.2977
  111MOL0     C14580   6.429   9.087   3.436  0.4029 -0.6338 -0.0794
  111MOL0     C14581   6.547   9.162   3.367  0.4450  0.0541  0.2617
  111MOL0     C14582   6.580   9.118   3.226 -0.6855 -0.1753  0.2880
  111MOL0     C14583   6.637   8.980   3.238 -0.4427  1.1619 -0.3894
  111MOL0     C14584   6.696   8.875   3.239  0.3982 -0.0497 -0.4490
  111MOL0     C14585   6.028   9.305   3.374 -1.2833 -0.0917 -0.4567
  111MOL0     C14586   5.904   9.352   3.319  0.0720 -0.8301 -0.1558
  111MOL0     H14587   5.532   9.620   3.326 -0.5300  0.4036  1.2282
  111MOL0     H14588   5.317   9.743   3.240 -2.8593 -0.3055 -1.6873
  111MOL0     H14589   5.047   9.853   3.014  0.6360  2.2423  2.4840
  111MOL0     H14590   5.125   9.810   3.167  0.3991 -1.7599  1.5508
  111MOL0     H14591   5.053   9.593   3.151  0.0496  1.9414  0.8982
  111MOL0     H14592   4.991   9.608   2.983 -2.4058  1.9355 -0.7661
  111MOL0     H14593   4.814   9.760   3.075 -0.0085  0.8971  0.9879
  111MOL0     H14594   4.906   9.760   3.233  2.1685  3.0875 -2.3873
  111MOL0     H14595   4.763   9.525   3.100 -3.0637 -0.3430  1.3075
  111MOL0     H14596   4.856   9.545   3.252  1.0004  1.8226 -0.6392
  111MOL0     H14597   4.589   9.683   3.180  0.1684 -0.3662  0.5996
  111MOL0     H14598   4.678   9.697   3.329 -0.1602  0.0892  1.8446
  111MOL0     H14599   4.621   9.449   3.367  2.0638  3.2347  1.6625
  111MOL0     H14600   4.529   9.457   3.209  0.3584 -0.9507  0.6798
  111MOL0     H14601   4.405   9.469   3.436  2.7344 -1.7605  0.4900
  111MOL0     H14602   4.482   9.636   3.460  1.4013 -0.5445 -0.8232
  111MOL0     H14603   4.282   9.543   3.234 -0.3447 -0.4861  0.5986
  111MOL0     H14604   4.369   9.697   3.249 -0.7799 -0.4621 -1.9240
  111MOL0     H14605   4.079   9.478   3.386  0.7824  0.8877 -2.8105
  111MOL0     H14606   3.869   9.723   3.628 -1.2831  0.5746 -0.8559
  111MOL0     H14607   3.875   9.551   3.591  0.2206 -0.2387  0.4691
  111MOL0     H14608   3.815   9.587   3.369  1.5406  0.0971 -0.7738
  111MOL0     H14609   3.810   9.759   3.376 -0.5699 -0.8942 -0.9181
  111MOL0     H14610   3.587   9.710   3.383 -1.1414 -0.5159  0.0752
  111MOL0     H14611   3.602   9.566   3.488  3.6276 -0.1146  2.6775
  111MOL0     H14612   3.649   9.857   3.549  1.0181 -1.8182 -2.5644
  111MOL0     H14613   3.646   9.739   3.677 -1.5920  3.2322  1.8714
  111MOL0     H14614   3.458   9.741   3.841  2.9140  0.0464 -3.0155
  111MOL0     H14615   3.406   9.918   4.007  0.8816 -1.9225 -1.4952
  111MOL0     H14616   3.035  10.279   4.092 -1.0914  0.0254  1.0354
  111MOL0     H14617   3.001  10.402   4.308  0.0487 -3.4059 -0.5910
  111MOL0     H14618   3.200  10.431   4.496 -0.8796  0.2249  2.2510
  111MOL0     H14619   3.073  10.555   4.553 -0.5968 -1.1829 -1.2772
  111MOL0     H14620   3.284  10.699   4.600  0.7945  0.0466  5.3813
  111MOL0     H14621   3.380  10.544   4.605 -0.4196 -1.2493  1.9095
  111MOL0     H14622   3.247  10.460   4.801 -2.6437  0.6709  3.6941
  111MOL0     H14623   3.147  10.599   4.786  0.1033 -2.3944  0.3401
  111MOL0     H14624   3.452  10.625   4.835 -0.1336  1.1437  0.5985
  111MOL0     H14625   3.325  10.747   4.829 -0.4819  0.8623  2.6979
  111MOL0     H14626   3.352  10.503   5.011 -2.8471 -1.1774 -0.4410
  111MOL0     H14627   3.206  10.605   5.022  0.7088  0.4919  0.2564
  111MOL0     H14628   3.308  10.790   5.116 -0.7878 -1.7138 -0.9665
  111MOL0     H14629   3.466  10.753   5.069  0.0131  0.2508  0.4951
  111MOL0     H14630   3.323  10.544   5.249  0.7879 -0.6504 -0.8958
  111MOL0     H14631   3.484  10.571   5.238  1.2240  1.8582  1.4500
  111MOL0     H14632   3.292  10.786   5.362  1.5817  1.3748 -0.9606
  111MOL0     H14633   3.468  10.792   5.371  2.4974 -2.9029 -2.2046
  111MOL0     H14634   3.302  10.672   4.198 -0.1320 -0.1999  1.5749
  111MOL0     H14635   3.379  10.518   4.013  0.4961  2.1937  1.3404
  111MOL0     H14636   3.295  10.192   3.698 -0.5692  1.6431  1.5917
  111MOL0     H14637   3.382  10.026   3.537  2.3390  2.9541  0.6736
  111MOL0     H14638   5.326   9.521   2.876  1.6933 -1.2980 -0.0572
  111MOL0     H14639   5.506   9.391   2.947  1.3911  0.8453 -1.1438
  111MOL0     H14640   5.948   9.244   2.994  0.7365  1.7082  0.1536
  111MOL0     H14641   6.159   9.192   3.074 -0.4417 -1.9242  0.7594
  111MOL0     H14642   6.284   9.044   3.296 -3.5069  1.1816 -0.6756
  111MOL0     H14643   6.213   9.084   3.447 -0.0091  0.5807  0.3420
  111MOL0     H14644   6.423   9.114   3.542 -1.4738 -1.3643  0.0472
  111MOL0     H14645   6.462   8.983   3.428  0.0725 -1.2702  4.4798
  111MOL0     H14646   6.626   9.138   3.439  0.7898  1.3023  0.3190
  111MOL0     H14647   6.526   9.269   3.371  0.4934  0.0631  0.2456
  111MOL0     H14648   6.489   9.120   3.165 -1.9418  0.0677  2.0836
  111MOL0     H14649   6.639   9.197   3.179  0.3040 -0.0132  1.7534
  111MOL0     H14650   6.751   8.783   3.234 -0.7692 -0.7198 -1.5228
  111MOL0     H14651   6.045   9.309   3.481  2.4078 -1.5249 -0.8719
  111MOL0     H14652   5.833   9.408   3.380 -1.3115 -0.8441 -1.6698
  112MOL0     O14653   1.535   4.476   0.203  0.6197 -0.4702 -0.8817
  112MOL0     C14654   1.611   4.430   0.287 -0.2507 -0.3238  0.5441
  112MOL0     O14655   1.597   4.450   0.420 -0.4345 -0.0737  0.2217
  112MOL0     C14656   1.489   4.504   0.488 -0.3703  0.6263 -0.5589
  112MOL0     C14657   1.362   4.496   0.439  0.8573  0.5301 -0.5485
  112MOL0     C14658   1.247   4.550   0.504 -0.0722 -0.4482  0.5234
  112MOL0     C14659   1.261   4.602   0.637 -0.1147 -0.0492  0.0269
  112MOL0     O14660   1.140   4.630   0.703 -0.1405  0.0668 -0.1933
  112MOL0     C14661   1.131   4.626   0.851 -1.3802 -0.1765  1.4311
  112MOL0     C14662   0.980   4.605   0.896 -0.3360  0.9749  0.1560
  112MOL0     C14663   0.887   4.704   0.825  0.2475  0.3394  0.0419
  112MOL0     C14664   0.742   4.701   0.872 -0.1400  0.3446  0.4258
  112MOL0     C14665   0.661   4.808   0.792  0.3655  0.6578  0.8555
  112MOL0     C14666   0.631   4.770   0.645  0.8877  0.2431 -0.0618
  112MOL0     C14667   0.514   4.849   0.593 -0.8170 -1.0122  0.4957
  112MOL0     C14668   0.509   4.807   0.444  0.3972  1.1427  0.1725
  112MOL0     N14669   0.402   4.890   0.387 -0.8143  0.5960 -0.1075
  112MOL0     C14670   0.421   5.018   0.343 -0.4378 -0.6834 -0.2793
  112MOL0     C14671   0.293   5.065   0.327  0.5693 -0.0842  1.0537
  112MOL0     C14672   0.263   5.196   0.279 -0.3383  0.4623  0.4943
  112MOL0     C14673   0.116   5.206   0.240  0.2629  0.1462 -0.0845
  112MOL0     C14674   0.084   5.352   0.209  0.7566 -0.5610 -0.0441
  112MOL0     C14675  -0.056   5.379   0.160 -0.7691 -0.0840  0.7945
  112MOL0     O14676  -0.065   5.368   0.017 -0.2105  0.1512  0.1001
  112MOL0     C14677  -0.175   5.421  -0.047 -0.1294  0.3718 -0.5156
  112MOL0     C14678  -0.273   5.495   0.018 -0.4599  0.3377  0.0383
  112MOL0     C14679  -0.379   5.546  -0.051 -0.1562 -0.5473  0.0808
  112MOL0     C14680  -0.407   5.503  -0.184 -0.5507 -0.2636  0.2608
  112MOL0     C14681  -0.524   5.545  -0.265 -0.1922  0.3308  0.5306
  112MOL0     O14682  -0.596   5.654  -0.218 -0.4572  0.0055 -0.1455
  112MOL0     C14683  -0.688   5.715  -0.311 -0.1183  0.2095  0.7038
  112MOL0     C14684  -0.804   5.763  -0.261  0.0748  0.3041 -0.5068
  112MOL0     C14685  -0.890   5.836  -0.330 -0.0037 -0.1553 -0.9710
  112MOL0     C14686  -0.858   5.875  -0.456  0.1640 -0.0770  0.3218
  112MOL0     O14687  -0.947   5.958  -0.525  0.0733  0.2822 -0.0934
  112MOL0     C14688  -1.090   5.958  -0.495  0.4414  0.6928 -0.2007
  112MOL0     C14689  -1.159   6.015  -0.625 -0.8334 -0.9154  0.1856
  112MOL0     C14690  -1.313   5.983  -0.634 -0.8572  0.3519  1.0610
  112MOL0     C14691  -1.369   6.063  -0.750 -0.2234  1.8668  0.4363
  112MOL0     C14692  -1.514   6.032  -0.758  0.3210 -0.7191  0.6411
  112MOL0     C14693  -1.590   6.136  -0.850  0.1320  1.0706  0.1180
  112MOL0     C14694  -1.710   6.069  -0.906 -0.1440  0.9162 -0.5968
  112MOL0     C14695  -1.818   6.166  -0.937 -0.4321 -0.1944 -0.5431
  112MOL0    Cl14696  -1.974   6.061  -0.962  0.0530 -0.0266 -0.0626
  112MOL0     C14697  -0.742   5.828  -0.515 -0.1179  0.4827  0.6570
  112MOL0     C14698  -0.651   5.751  -0.439  0.7816  0.1690 -0.1009
  112MOL0     O14699  -0.540   5.487  -0.369  0.6024  0.7842  0.8321
  112MOL0     C14700  -0.308   5.423  -0.245  1.0491  0.7497  0.0542
  112MOL0     C14701  -0.201   5.381  -0.176  0.5361 -0.4575 -0.6794
  112MOL0     N14702   0.209   4.963   0.369  0.1133  0.5787 -0.1126
  112MOL0     N14703   0.275   4.853   0.406  0.8605 -0.3063  0.8331
  112MOL0     C14704   1.392   4.618   0.681  0.7022 -0.2543 -0.8604
  112MOL0     C14705   1.503   4.578   0.613 -0.6788 -0.1399 -0.4008
  112MOL0     C14706   1.738   4.367   0.246  0.0064  0.4229  0.6657
  112MOL0     C14707   1.840   4.341   0.350  1.6705 -0.5334 -0.0787
  112MOL0     C14708   1.959   4.277   0.324 -0.0965 -0.0108  0.2587
  112MOL0     C14709   1.991   4.242   0.194 -0.8292 -0.3731 -0.6571
  112MOL0     O14710   2.088   4.152   0.168  0.2990  0.4767  0.0175
  112MOL0     C14711   2.223   4.198   0.160 -0.0891 -0.2267  0.2187
  112MOL0     C14712   2.243   4.293   0.032  0.4141 -0.5656 -0.6330
  112MOL0     C14713   2.209   4.217  -0.094 -0.0751 -0.0229 -0.2137
  112MOL0     C14714   2.231   4.305  -0.211  0.4236 -1.3675  0.0327
  112MOL0     C14715   2.142   4.280  -0.325  0.9361  0.5325 -0.3563
  112MOL0     C14716   2.076   4.271  -0.426  0.4608 -0.4979  0.4889
  112MOL0     C14717   1.901   4.278   0.091 -0.4461 -0.0939 -1.3744
  112MOL0     C14718   1.781   4.342   0.111  0.4060  0.0994  1.0707
  112MOL0     H14719   1.346   4.471   0.335  0.6874  1.4785 -0.7610
  112MOL0     H14720   1.152   4.556   0.450  1.2332 -1.3161 -2.0417
  112MOL0     H14721   1.166   4.718   0.897  0.3893 -0.9053  1.6101
  112MOL0     H14722   1.200   4.551   0.892  0.1248  1.3216  1.7100
  112MOL0     H14723   0.976   4.629   1.002 -1.4187  2.9219 -0.2787
  112MOL0     H14724   0.950   4.502   0.874 -0.0584  1.0117 -0.4089
  112MOL0     H14725   0.883   4.691   0.717  0.4942 -0.3871  0.1100
  112MOL0     H14726   0.921   4.805   0.850 -2.3033  1.8337 -2.1342
  112MOL0     H14727   0.705   4.599   0.856  3.3974 -0.9509 -0.4054
  112MOL0     H14728   0.720   4.714   0.978  0.4593  5.9209  0.1571
  112MOL0     H14729   0.701   4.910   0.798 -2.3983  1.8539  0.3770
  112MOL0     H14730   0.561   4.813   0.836 -1.4949 -0.3722 -2.8858
  112MOL0     H14731   0.608   4.663   0.647 -1.2013  0.5636 -2.2931
  112MOL0     H14732   0.714   4.790   0.578  1.6905 -1.1190  0.4842
  112MOL0     H14733   0.417   4.835   0.643 -1.9069  3.9346  0.2602
  112MOL0     H14734   0.539   4.955   0.602 -1.3450 -0.7574 -0.7948
  112MOL0     H14735   0.486   4.703   0.421  0.6342  0.6259  2.1663
  112MOL0     H14736   0.599   4.822   0.384 -0.7457  1.7830 -1.4676
  112MOL0     H14737   0.517   5.061   0.316 -0.1875 -0.4991  0.8797
  112MOL0     H14738   0.333   5.231   0.202 -0.9807  1.1829  0.2298
  112MOL0     H14739   0.279   5.262   0.365  1.1202 -0.4839  0.9961
  112MOL0     H14740   0.043   5.184   0.319 -2.6390 -2.1275 -3.1255
  112MOL0     H14741   0.101   5.135   0.159  0.0368  0.4435 -0.3058
  112MOL0     H14742   0.120   5.418   0.288  1.3884  0.3764 -1.0737
  112MOL0     H14743   0.156   5.386   0.133  0.4451  0.9821  0.3156
  112MOL0     H14744  -0.067   5.486   0.177 -0.1364  0.7011 -2.8718
  112MOL0     H14745  -0.133   5.320   0.212 -0.7482 -0.4487  0.4187
  112MOL0     H14746  -0.260   5.526   0.122 -1.1830  2.5874 -0.4968
  112MOL0     H14747  -0.442   5.617   0.001  0.5140  1.5142 -1.7648
  112MOL0     H14748  -0.831   5.739  -0.159 -0.6877  0.0524 -0.7655
  112MOL0     H14749  -0.981   5.876  -0.288 -0.4672 -0.8082 -1.3490
  112MOL0     H14750  -1.108   6.027  -0.412  0.2904  0.4047  0.0091
  112MOL0     H14751  -1.127   5.862  -0.459 -0.0895  2.1489  3.5849
  112MOL0     H14752  -1.110   5.991  -0.720  0.2545  0.1016  0.4720
  112MOL0     H14753  -1.142   6.122  -0.617 -0.5578 -0.8253 -1.3564
  112MOL0     H14754  -1.363   6.020  -0.544 -3.4835 -1.4952  0.5011
  112MOL0     H14755  -1.345   5.883  -0.665  3.2760 -0.7154 -0.3540
  112MOL0     H14756  -1.343   6.164  -0.716  1.5406  0.9645  1.9564
  112MOL0     H14757  -1.317   6.049  -0.845 -0.2035  1.0872  0.5626
  112MOL0     H14758  -1.555   6.039  -0.657  1.3598  0.6053  0.9869
  112MOL0     H14759  -1.536   5.930  -0.793  0.4724 -1.4127  2.4499
  112MOL0     H14760  -1.519   6.161  -0.930 -0.9506 -0.8567 -1.5663
  112MOL0     H14761  -1.613   6.219  -0.783 -0.5486  0.1170  1.0925
  112MOL0     H14762  -1.701   6.004  -0.994 -0.5525  1.3020 -0.9276
  112MOL0     H14763  -1.748   6.000  -0.831 -1.2119 -1.3266 -3.0421
  112MOL0     H14764  -1.776   6.220  -1.022  1.6651  1.1529  1.2212
  112MOL0     H14765  -1.838   6.239  -0.857 -0.3933  0.7189 -1.3510
  112MOL0     H14766  -0.733   5.847  -0.622 -3.0753 -2.8998 -0.4093
  112MOL0     H14767  -0.556   5.716  -0.477  0.8269 -1.6631  1.5214
  112MOL0     H14768  -0.321   5.383  -0.345  3.3348  1.3871 -0.5553
  112MOL0     H14769  -0.137   5.308  -0.224  0.7529 -3.3140  3.4621
  112MOL0     H14770   1.401   4.671   0.775 -4.7992  0.3429 -0.3320
  112MOL0     H14771   1.601   4.595   0.655 -1.5411  0.7771  1.3775
  112MOL0     H14772   1.825   4.370   0.454  0.1553  0.9741 -0.6680
  112MOL0     H14773   2.032   4.254   0.402 -0.6826 -1.9519  0.2774
  112MOL0     H14774   2.279   4.104   0.151  1.2333  0.6111 -0.6981
  112MOL0     H14775   2.249   4.258   0.247 -1.5656  3.7601 -1.8474
  112MOL0     H14776   2.174   4.378   0.035 -0.2209 -1.0691 -0.9302
  112MOL0     H14777   2.344   4.335   0.035 -0.1420  0.7756  1.3547
  112MOL0     H14778   2.108   4.179  -0.081 -0.1037  0.5190  1.2539
  112MOL0     H14779   2.279   4.133  -0.099 -0.7147 -0.5380 -0.7723
  112MOL0     H14780   2.214   4.404  -0.166 -0.3463 -2.0974  1.4455
  112MOL0     H14781   2.330   4.299  -0.257  0.2386  1.3497 -0.9094
  112MOL0     H14782   2.023   4.269  -0.519 -0.4991  0.0423  1.0097
  112MOL0     H14783   1.917   4.252  -0.013  2.1906 -0.2034 -0.9965
  112MOL0     H14784   1.717   4.382   0.033  0.4040  0.0168  1.0299
  113MOL0     O14785   0.730   0.285   6.302  0.3706  0.0584 -0.2472
  113MOL0     C14786   0.753   0.162   6.294  1.0453 -1.0696  0.2530
  113MOL0     O14787   0.666   0.062   6.316  0.3521 -0.2997  1.0380
  113MOL0     C14788   0.541   0.069   6.374  0.9346 -0.7953 -0.2461
  113MOL0     C14789   0.492   0.176   6.454  0.1653 -0.0001 -0.5307
  113MOL0     C14790   0.358   0.169   6.503 -0.8336  0.1343 -0.2915
  113MOL0     C14791   0.272   0.067   6.461 -0.1787  0.0943  0.7358
  113MOL0     O14792   0.142   0.092   6.512 -0.3128  1.1095 -0.3332
  113MOL0     C14793   0.033   0.020   6.448  0.4734  0.0118  0.0164
  113MOL0     C14794  -0.003  -0.121   6.491 -0.0611  0.2367  0.3710
  113MOL0     C14795  -0.125  -0.144   6.574 -0.2543 -1.2987 -0.7356
  113MOL0     C14796  -0.236  -0.080   6.498 -0.0930  0.0682 -0.3383
  113MOL0     C14797  -0.373  -0.107   6.555 -0.5405  0.5142 -0.5495
  113MOL0     C14798  -0.486  -0.034   6.483  0.7088  0.1114  0.4795
  113MOL0     C14799  -0.618  -0.065   6.545  0.0385 -0.1415 -0.3448
  113MOL0     C14800  -0.727   0.033   6.481  0.9821  0.3752 -0.1803
  113MOL0     N14801  -0.862  -0.023   6.504 -0.2476 -0.0531 -0.1713
  113MOL0     C14802  -0.923  -0.073   6.617 -0.4145  0.0145 -0.1250
  113MOL0     C14803  -1.048  -0.113   6.579 -0.8403 -0.6947 -0.1760
  113MOL0     C14804  -1.141  -0.187   6.671  0.6338 -0.0781 -0.0294
  113MOL0     C14805  -1.280  -0.103   6.679  0.4185 -0.3272 -0.0421
  113MOL0     C14806  -1.368  -0.152   6.785 -0.2854  0.1015 -0.6838
  113MOL0     C14807  -1.512  -0.136   6.751  1.1018  0.3477  0.5773
  113MOL0     O14808  -1.582  -0.201   6.868 -0.7771  0.4141  0.5185
  113MOL0     C14809  -1.711  -0.244   6.856 -0.1842 -0.1343  0.1670
  113MOL0     C14810  -1.787  -0.231   6.744 -0.3400  0.1510 -0.5980
  113MOL0     C14811  -1.918  -0.275   6.744  0.1272  0.4141  0.6170
  113MOL0     C14812  -1.988  -0.317   6.861 -0.1157  0.0006 -0.2704
  113MOL0     C14813  -2.132  -0.348   6.854 -0.0807 -0.3091 -0.3572
  113MOL0     O14814  -2.188  -0.408   6.963 -0.2916 -0.2320  0.2711
  113MOL0     C14815  -2.319  -0.440   6.968  0.3821  0.3696 -0.5196
  113MOL0     C14816  -2.430  -0.352   6.943  0.4336  0.6069 -0.7319
  113MOL0     C14817  -2.560  -0.402   6.941 -0.8152 -0.1099 -0.0203
  113MOL0     C14818  -2.588  -0.546   6.961  0.2998 -0.8058  0.6250
  113MOL0     O14819  -2.718  -0.589   6.958  0.0646  1.0496 -0.0535
  113MOL0     C14820  -2.822  -0.510   7.021  0.3723  0.5172  0.2671
  113MOL0     C14821  -2.928  -0.597   7.087  0.6185  0.6048  0.2832
  113MOL0     C14822  -2.862  -0.662   7.207  0.2380  0.2324 -0.3512
  113MOL0     C14823  -2.966  -0.746   7.276 -0.6309  0.6805  0.3026
  113MOL0     C14824  -2.921  -0.816   7.406  0.0166 -0.0202  0.2538
  113MOL0     C14825  -3.040  -0.841   7.493  0.6265 -0.1358 -0.0691
  113MOL0     C14826  -3.000  -0.907   7.623  0.4239 -0.2051  0.3824
  113MOL0     C14827  -3.123  -0.927   7.720 -0.2058 -0.8806  0.5572
  113MOL0    Cl14828  -3.244  -1.033   7.651  0.2680 -0.1235  0.0961
  113MOL0     C14829  -2.481  -0.628   6.987  0.6690  0.4057  0.1889
  113MOL0     C14830  -2.353  -0.575   6.989 -0.0399 -0.4525  0.0354
  113MOL0     O14831  -2.191  -0.322   6.754 -0.0282  0.1520 -0.3857
  113MOL0     C14832  -1.912  -0.319   6.978 -0.0144  0.6046 -0.3950
  113MOL0     C14833  -1.773  -0.285   6.969 -0.0357  0.0469 -0.5082
  113MOL0     N14834  -1.060  -0.096   6.442  0.4652  0.4570  0.3607
  113MOL0     N14835  -0.950  -0.038   6.402  0.6060 -0.4340 -0.3746
  113MOL0     C14836   0.317  -0.034   6.376 -0.0052 -1.0373  0.5905
  113MOL0     C14837   0.449  -0.035   6.327  0.0944  0.1654 -0.5482
  113MOL0     C14838   0.882   0.132   6.240 -0.1177 -0.1838 -0.1116
  113MOL0     C14839   0.990   0.214   6.268 -1.0047  0.5547  0.5608
  113MOL0     C14840   1.106   0.180   6.200  0.4021  0.2385  0.3486
  113MOL0     C14841   1.119   0.072   6.112  0.5618 -0.7289  0.2521
  113MOL0     O14842   1.234   0.035   6.044 -0.4772  0.3337 -0.2981
  113MOL0     C14843   1.346   0.124   6.054  0.2296  0.3497 -0.0587
  113MOL0     C14844   1.477   0.063   6.005  0.2508 -0.0797 -0.0312
  113MOL0     C14845   1.464   0.023   5.850  0.3997  0.2069  0.0822
  113MOL0     C14846   1.593  -0.040   5.806  0.4429  0.2499 -0.0572
  113MOL0     C14847   1.700   0.058   5.776  0.2261  0.0515 -0.8259
  113MOL0     C14848   1.801   0.121   5.745  0.3516  0.3864  1.5737
  113MOL0     C14849   1.009  -0.017   6.095  1.0541  0.2452 -0.4104
  113MOL0     C14850   0.891   0.017   6.168 -0.8636 -0.6281  0.1153
  113MOL0     H14851   0.558   0.257   6.483  1.5504 -1.2815 -0.0168
  113MOL0     H14852   0.331   0.251   6.569  3.0194 -0.8901  2.9772
  113MOL0     H14853   0.040   0.025   6.339 -2.1912  0.4877 -0.1988
  113MOL0     H14854  -0.051   0.085   6.470 -0.8857 -2.3944  2.5742
  113MOL0     H14855   0.077  -0.172   6.545  0.6828 -1.3129 -2.0516
  113MOL0     H14856  -0.014  -0.187   6.404 -1.4717 -1.5083  1.7859
  113MOL0     H14857  -0.111  -0.105   6.675  1.7212 -1.7053 -0.8160
  113MOL0     H14858  -0.147  -0.251   6.583 -1.4795 -0.8670  3.0979
  113MOL0     H14859  -0.239   0.029   6.486  3.8785  0.1569 -1.8397
  113MOL0     H14860  -0.225  -0.126   6.400  2.3613  0.1497 -0.1669
  113MOL0     H14861  -0.374  -0.083   6.661  1.2456  0.2442 -0.4406
  113MOL0     H14862  -0.383  -0.216   6.548  0.6798  0.3689 -0.1490
  113MOL0     H14863  -0.487  -0.076   6.382 -0.5250  4.0623 -1.3346
  113MOL0     H14864  -0.468   0.073   6.479  0.8373  0.0608 -0.6636
  113MOL0     H14865  -0.648  -0.168   6.524 -1.3308 -0.0783  1.1248
  113MOL0     H14866  -0.615  -0.066   6.654 -1.9247 -1.8365 -0.2469
  113MOL0     H14867  -0.712   0.039   6.373 -2.3870  1.1609 -0.6989
  113MOL0     H14868  -0.718   0.137   6.515 -0.3199  0.4141  0.0937
  113MOL0     H14869  -0.894  -0.075   6.722 -2.2168 -0.3460  0.4010
  113MOL0     H14870  -1.101  -0.191   6.773 -1.1055  1.2777  0.7691
  113MOL0     H14871  -1.172  -0.282   6.627 -0.0197 -0.1974  0.6652
  113MOL0     H14872  -1.340  -0.119   6.589 -1.4694 -1.3108  1.3093
  113MOL0     H14873  -1.261   0.001   6.708 -0.9858 -0.5643  1.9425
  113MOL0     H14874  -1.348  -0.258   6.802  1.6274  0.3219 -1.3126
  113MOL0     H14875  -1.342  -0.099   6.877  0.3734 -0.7314 -0.3841
  113MOL0     H14876  -1.548  -0.172   6.655  1.2730  2.7184 -0.4486
  113MOL0     H14877  -1.543  -0.031   6.755 -1.1565 -0.2751  1.0134
  113MOL0     H14878  -1.742  -0.191   6.653  1.8466 -1.2836 -0.2026
  113MOL0     H14879  -1.967  -0.273   6.647 -1.6018 -3.7745  1.2114
  113MOL0     H14880  -2.409  -0.245   6.936 -1.0098  0.8974 -0.9499
  113MOL0     H14881  -2.643  -0.334   6.926 -0.9505 -0.1276  0.6188
  113MOL0     H14882  -2.877  -0.432   6.967 -2.9518  1.2850  4.2639
  113MOL0     H14883  -2.782  -0.460   7.110  1.8772 -2.7403  1.5817
  113MOL0     H14884  -2.956  -0.665   7.007 -1.1436  1.6929 -0.0924
  113MOL0     H14885  -3.010  -0.533   7.123 -0.9041 -0.9065 -0.3526
  113MOL0     H14886  -2.829  -0.583   7.275 -2.2788  1.3523 -0.2944
  113MOL0     H14887  -2.772  -0.718   7.182  0.7145  0.6667  0.3520
  113MOL0     H14888  -3.056  -0.691   7.304 -2.3511 -2.3573  1.2636
  113MOL0     H14889  -2.992  -0.831   7.212  2.2677  0.8838 -1.3449
  113MOL0     H14890  -2.865  -0.742   7.465 -1.5144 -1.4085  3.7067
  113MOL0     H14891  -2.857  -0.903   7.389  0.5939 -0.0840  2.3986
  113MOL0     H14892  -3.110  -0.910   7.445  0.4823  0.8513 -1.3490
  113MOL0     H14893  -3.100  -0.751   7.514  1.5671 -0.4210  5.2537
  113MOL0     H14894  -2.957  -1.004   7.597  1.0350  0.2241 -0.2531
  113MOL0     H14895  -2.925  -0.841   7.668 -0.3088  0.8003  0.1818
  113MOL0     H14896  -3.163  -0.829   7.749  1.1535  0.3542 -1.4745
  113MOL0     H14897  -3.073  -0.961   7.811  2.6377 -0.3080 -0.6737
  113MOL0     H14898  -2.504  -0.734   6.988  1.0313  0.3262  2.0441
  113MOL0     H14899  -2.272  -0.647   6.981 -0.4082 -0.8804  0.0790
  113MOL0     H14900  -1.952  -0.347   7.075 -1.0191  2.2450 -0.3034
  113MOL0     H14901  -1.713  -0.295   7.059 -1.3098  2.5161  0.7386
  113MOL0     H14902   0.257  -0.121   6.352 -2.0938  0.7052 -0.9524
  113MOL0     H14903   0.464  -0.109   6.249 -0.0345 -1.2731  0.7415
  113MOL0     H14904   0.978   0.307   6.323 -1.1570  1.2299 -0.5782
  113MOL0     H14905   1.183   0.256   6.199 -1.7525  2.5674 -2.1372
  113MOL0     H14906   1.358   0.127   6.163 -1.2433 -2.2002  0.2363
  113MOL0     H14907   1.327   0.227   6.023 -1.1065  0.7731  1.9442
  113MOL0     H14908   1.552   0.140   6.023  0.5096 -0.6359  1.3873
  113MOL0     H14909   1.498  -0.020   6.072 -3.4190 -0.0899  1.3372
  113MOL0     H14910   1.442   0.107   5.784 -2.6543 -1.9907 -2.0014
  113MOL0     H14911   1.379  -0.044   5.831  1.2372 -0.4410 -1.5573
  113MOL0     H14912   1.620  -0.103   5.891 -1.3143  0.7788  0.9245
  113MOL0     H14913   1.568  -0.099   5.717 -1.3217  0.7970  0.0348
  113MOL0     H14914   1.900   0.155   5.722 -0.3136  1.5983  0.3522
  113MOL0     H14915   0.998  -0.112   6.044 -0.3152  0.5672 -0.7330
  113MOL0     H14916   0.806  -0.051   6.163 -3.6226  2.2218  3.0038
  114MOL0     O14917   1.705   0.461   9.705  0.0949 -0.6747 -0.0964
  114MOL0     C14918   1.767   0.392   9.620  1.1485  0.3809  0.3736
  114MOL0     O14919   1.858   0.303   9.654 -0.3064  0.5959 -0.5924
  114MOL0     C14920   1.891   0.293   9.784 -1.7690 -0.1151  0.0043
  114MOL0     C14921   1.895   0.165   9.845 -0.5019 -0.4102 -0.4797
  114MOL0     C14922   1.959   0.150   9.974 -0.0241 -0.3330  1.0338
  114MOL0     C14923   2.010   0.256  10.048  0.5395  0.0293  0.0130
  114MOL0     O14924   2.073   0.267  10.168 -0.6432 -0.4799  0.7239
  114MOL0     C14925   2.058   0.159  10.267 -0.9500 -0.2534  0.1197
  114MOL0     C14926   1.938   0.191  10.358  0.4838 -0.7717 -0.0272
  114MOL0     C14927   1.823   0.093  10.313 -0.3131  0.2597  0.3320
  114MOL0     C14928   1.695   0.145  10.371  0.4062  0.7108 -1.5167
  114MOL0     C14929   1.579   0.066  10.298  0.1798  0.3442 -0.2960
  114MOL0     C14930   1.440   0.078  10.370 -0.7821  0.0359  0.5082
  114MOL0     C14931   1.340   0.007  10.285 -0.2360 -0.0935 -0.8899
  114MOL0     C14932   1.204  -0.033  10.370 -0.4000  0.0410  0.5985
  114MOL0     N14933   1.119   0.077  10.419  0.6301  0.2853  0.3759
  114MOL0     C14934   1.112   0.208  10.375 -0.2751 -0.1367 -0.1106
  114MOL0     C14935   1.009   0.257  10.452 -0.6079 -0.5051 -0.0733
  114MOL0     C14936   0.955   0.394  10.446 -0.2405 -0.2879  0.6873
  114MOL0     C14937   0.954   0.461  10.305  0.5860  0.4573 -0.6122
  114MOL0     C14938   1.072   0.557  10.301 -0.1778  0.0273  0.9298
  114MOL0     C14939   1.114   0.611  10.166  0.0148 -0.4184  0.5459
  114MOL0     O14940   0.997   0.625  10.080  0.3294 -0.8660  0.6301
  114MOL0     C14941   1.028   0.638   9.943  0.0715 -0.8985 -0.2588
  114MOL0     C14942   1.152   0.653   9.878 -0.6416  0.4063 -0.1375
  114MOL0     C14943   1.162   0.657   9.735  0.4331 -0.4964  0.3210
  114MOL0     C14944   1.045   0.645   9.656 -0.6383 -0.1013  0.4561
  114MOL0     C14945   1.056   0.625   9.509 -0.4455  0.6237 -0.3224
  114MOL0     O14946   1.186   0.591   9.470 -0.6541 -0.2132 -0.3761
  114MOL0     C14947   1.217   0.591   9.342 -0.5777 -0.8154  0.2602
  114MOL0     C14948   1.275   0.476   9.279 -0.9054 -0.5966 -0.5597
  114MOL0     C14949   1.294   0.478   9.136  0.3937  0.1574  0.1987
  114MOL0     C14950   1.251   0.582   9.054 -0.3901 -0.3057  0.3708
  114MOL0     O14951   1.223   0.575   8.918 -0.1723  0.1355  0.3923
  114MOL0     C14952   1.177   0.453   8.868 -0.1099  0.5848 -0.8136
  114MOL0     C14953   1.154   0.452   8.714 -0.4682  0.1318  0.2189
  114MOL0     C14954   1.151   0.315   8.655 -1.1584 -0.0079 -0.4215
  114MOL0     C14955   1.100   0.323   8.507  0.4103 -0.0043 -0.0882
  114MOL0     C14956   1.074   0.195   8.430  0.5755  0.7051  0.2426
  114MOL0     C14957   1.189   0.102   8.416  0.8336 -0.7544  0.4190
  114MOL0     C14958   1.170   0.008   8.288 -0.7099  0.0577  0.6977
  114MOL0     C14959   1.290  -0.082   8.277 -0.0941  0.0031  1.4270
  114MOL0    Cl14960   1.444   0.000   8.214  0.0887 -0.0735  0.0808
  114MOL0     C14961   1.200   0.696   9.125  0.5658 -0.0801  0.3438
  114MOL0     C14962   1.182   0.701   9.260 -0.3620 -0.0406 -0.9548
  114MOL0     O14963   0.963   0.652   9.439  0.4432  1.0142  0.6614
  114MOL0     C14964   0.922   0.645   9.720  0.4918 -0.1142  0.2639
  114MOL0     C14965   0.914   0.644   9.860  0.0422 -0.5327  0.2354
  114MOL0     N14966   0.959   0.163  10.536 -0.9528 -0.5414  0.6434
  114MOL0     N14967   1.025   0.054  10.509  0.0346 -0.3151  0.3104
  114MOL0     C14968   2.005   0.385   9.989  0.1565 -0.4685  0.4593
  114MOL0     C14969   1.946   0.397   9.859 -1.1342  0.4606 -0.1105
  114MOL0     C14970   1.729   0.412   9.476 -0.0612 -0.0985  1.0419
  114MOL0     C14971   1.639   0.509   9.430 -1.2445 -0.6059  0.3445
  114MOL0     C14972   1.620   0.530   9.295 -0.0366 -1.3114  0.2075
  114MOL0     C14973   1.695   0.463   9.194  0.2716  0.2220  0.8450
  114MOL0     O14974   1.665   0.476   9.063  0.0361 -0.4547 -0.1674
  114MOL0     C14975   1.760   0.419   8.969  0.0889 -1.3522 -0.7677
  114MOL0     C14976   1.754   0.477   8.827 -0.1841 -0.5131 -0.9494
  114MOL0     C14977   1.603   0.512   8.787 -0.6936  0.3440  0.9525
  114MOL0     C14978   1.581   0.498   8.630 -0.3270 -0.2750 -0.2199
  114MOL0     C14979   1.573   0.356   8.593 -0.8199 -0.2226 -0.0160
  114MOL0     C14980   1.538   0.241   8.576  0.6824 -0.4790  0.8986
  114MOL0     C14981   1.792   0.365   9.242 -0.0025 -0.0470  0.5639
  114MOL0     C14982   1.813   0.350   9.374 -0.5450 -0.3745 -0.7228
  114MOL0     H14983   1.851   0.080   9.796 -0.5486 -0.3767 -0.4958
  114MOL0     H14984   1.940   0.054  10.021 -0.2006 -1.4407 -1.1533
  114MOL0     H14985   2.154   0.157  10.320 -0.0692 -1.4021 -1.4149
  114MOL0     H14986   2.062   0.056  10.231  0.6194 -1.0039  2.1994
  114MOL0     H14987   1.916   0.296  10.337  3.0444 -0.0834  0.4795
  114MOL0     H14988   1.956   0.181  10.465 -0.7927 -0.8276  0.1971
  114MOL0     H14989   1.840  -0.013  10.333  0.1461  0.5443  1.5488
  114MOL0     H14990   1.806   0.086  10.205 -2.4191  2.1057  0.4492
  114MOL0     H14991   1.701   0.113  10.475  1.6380 -3.1835 -2.6041
  114MOL0     H14992   1.679   0.253  10.375  0.4115  0.7054  2.5944
  114MOL0     H14993   1.603  -0.040  10.296  1.5396  0.6394 -0.7991
  114MOL0     H14994   1.561   0.111  10.200 -1.3093  3.3686  1.2104
  114MOL0     H14995   1.410   0.179  10.401  2.3432  1.5171 -0.7838
  114MOL0     H14996   1.450   0.016  10.460 -1.5187 -0.4747  0.2440
  114MOL0     H14997   1.318   0.066  10.196 -5.0161  1.3658  0.9286
  114MOL0     H14998   1.375  -0.091  10.251 -0.5029 -1.5042  2.5426
  114MOL0     H14999   1.240  -0.097  10.451  1.3785 -1.6253 -1.3698
  114MOL0     H15000   1.135  -0.090  10.307 -0.3502  0.3776  0.2337
  114MOL0     H15001   1.175   0.256  10.301 -0.2859  0.2617  0.1340
  114MOL0     H15002   0.997   0.454  10.527  1.5491  0.1841 -0.5318
  114MOL0     H15003   0.848   0.387  10.468 -0.3009  1.3310  1.0279
  114MOL0     H15004   0.859   0.504  10.273 -0.6560 -2.0894 -0.5502
  114MOL0     H15005   0.979   0.389  10.226 -1.0986 -0.2362 -0.5397
  114MOL0     H15006   1.050   0.644  10.363 -2.3189 -0.9227  1.6210
  114MOL0     H15007   1.160   0.508  10.342  3.1307  4.1485 -0.4670
  114MOL0     H15008   1.193   0.551  10.120  1.0047  0.4645  1.0670
  114MOL0     H15009   1.171   0.704  10.174  1.3682 -1.2731  1.0439
  114MOL0     H15010   1.242   0.649   9.939 -1.1758 -3.0165  0.6464
  114MOL0     H15011   1.266   0.659   9.701  0.4464 -1.6002  0.2708
  114MOL0     H15012   1.303   0.387   9.335  0.5970 -0.1096 -0.4756
  114MOL0     H15013   1.315   0.378   9.098 -2.2176  0.3586 -2.1151
  114MOL0     H15014   1.090   0.428   8.929 -0.4625 -3.2322 -2.6444
  114MOL0     H15015   1.262   0.386   8.882  0.6458  1.7307  0.4551
  114MOL0     H15016   1.229   0.511   8.660  0.0488  1.9531  2.7166
  114MOL0     H15017   1.058   0.499   8.692 -1.0844 -0.3104  1.8206
  114MOL0     H15018   1.085   0.249   8.713  0.7754 -0.8755  0.8860
  114MOL0     H15019   1.248   0.267   8.670 -1.4643 -0.1500  1.3794
  114MOL0     H15020   1.007   0.381   8.511 -0.0114 -0.5581 -1.4467
  114MOL0     H15021   1.164   0.378   8.438  0.7636 -0.6708 -0.2968
  114MOL0     H15022   1.040   0.223   8.330  0.8372  2.5579  0.6463
  114MOL0     H15023   0.989   0.155   8.486  0.4069  1.3110  0.4268
  114MOL0     H15024   1.182   0.051   8.513 -3.4761 -1.7691 -0.2109
  114MOL0     H15025   1.278   0.164   8.407  1.3883 -1.3220  1.7759
  114MOL0     H15026   1.090  -0.062   8.313  0.6716 -1.1055  2.0768
  114MOL0     H15027   1.147   0.051   8.190  3.0309 -1.8190 -1.2195
  114MOL0     H15028   1.264  -0.153   8.198  0.6592  1.2909 -0.0466
  114MOL0     H15029   1.303  -0.140   8.369  2.7391 -0.7696  0.6546
  114MOL0     H15030   1.180   0.783   9.063 -0.0972 -0.1752  0.4231
  114MOL0     H15031   1.121   0.785   9.293 -2.9813 -1.6828 -1.3261
  114MOL0     H15032   0.845   0.660   9.646 -0.1286 -3.3617  0.1312
  114MOL0     H15033   0.819   0.656   9.911  1.5763 -2.2513  3.8486
  114MOL0     H15034   2.047   0.471  10.041  1.3744 -0.6920 -0.1235
  114MOL0     H15035   1.955   0.491   9.807  0.7344  0.0126 -0.6853
  114MOL0     H15036   1.593   0.579   9.499  1.6549  1.2999  0.5524
  114MOL0     H15037   1.567   0.618   9.260  2.8212  0.1795 -0.6734
  114MOL0     H15038   1.744   0.311   8.967 -0.0370 -1.3400 -0.4367
  114MOL0     H15039   1.863   0.435   9.003 -0.6164 -1.2680  1.5001
  114MOL0     H15040   1.805   0.571   8.805 -3.6952  2.2117  1.4166
  114MOL0     H15041   1.796   0.405   8.757 -1.5990 -1.0901 -1.2422
  114MOL0     H15042   1.585   0.619   8.799 -0.4392  0.9812 -2.8845
  114MOL0     H15043   1.528   0.453   8.839 -3.0255  1.6813 -0.7342
  114MOL0     H15044   1.485   0.538   8.597  0.3602  3.5728  1.8486
  114MOL0     H15045   1.671   0.545   8.589  0.0434 -0.6632  0.1228
  114MOL0     H15046   1.520   0.137   8.558  0.4251 -0.7119  2.4086
  114MOL0     H15047   1.853   0.310   9.171 -2.3501  0.8490 -2.3873
  114MOL0     H15048   1.906   0.296   9.389 -1.4303 -1.5778  0.8409
  115MOL0     O15049   6.770   9.116   9.026  0.0798  0.0252 -0.0762
  115MOL0     C15050   6.788   9.115   9.148  0.3430 -0.0761  1.1514
  115MOL0     O15051   6.697   9.157   9.237  0.7192 -0.0512 -0.2029
  115MOL0     C15052   6.574   9.182   9.198  0.7166 -1.0647 -0.7966
  115MOL0     C15053   6.541   9.295   9.121 -0.9617  0.2730  0.3498
  115MOL0     C15054   6.405   9.329   9.093  0.4263 -0.2458 -0.0955
  115MOL0     C15055   6.305   9.252   9.146 -0.2081 -0.5927 -0.3268
  115MOL0     O15056   6.174   9.288   9.126  0.5855 -0.4770  0.7827
  115MOL0     C15057   6.068   9.192   9.147 -0.3778  0.1785 -0.0586
  115MOL0     C15058   5.936   9.252   9.118  0.1537  0.1597 -0.2757
  115MOL0     C15059   5.807   9.160   9.105  0.3892  0.7026 -0.0838
  115MOL0     C15060   5.790   9.057   9.217 -0.5714 -0.5388  0.3526
  115MOL0     C15061   5.660   8.985   9.230  0.2078 -0.6674 -0.8279
  115MOL0     C15062   5.557   9.092   9.259  0.4958 -0.2174  0.9008
  115MOL0     C15063   5.423   9.021   9.302  0.0979 -0.9012 -0.4691
  115MOL0     C15064   5.377   8.892   9.232  0.3230 -0.3091 -0.1489
  115MOL0     N15065   5.245   8.868   9.281  0.1169 -0.1272 -0.7185
  115MOL0     C15066   5.194   8.854   9.416 -0.0305  0.2000  0.5883
  115MOL0     C15067   5.058   8.839   9.414  0.0927 -0.5156  0.4144
  115MOL0     C15068   4.955   8.824   9.527 -0.8320 -0.6812  0.1370
  115MOL0     C15069   4.934   8.944   9.622 -0.8405  0.3106  0.1494
  115MOL0     C15070   4.867   9.073   9.571  0.2082  0.0856 -0.4045
  115MOL0     C15071   4.717   9.045   9.557 -0.1514 -0.4852 -0.0796
  115MOL0     O15072   4.640   9.040   9.678  0.3093  0.2088  0.2881
  115MOL0     C15073   4.520   8.970   9.683  0.0911 -0.4174  0.9742
  115MOL0     C15074   4.511   8.828   9.691 -0.6102  0.3582  0.2324
  115MOL0     C15075   4.388   8.770   9.716 -0.9203 -0.2712  0.4642
  115MOL0     C15076   4.261   8.840   9.732  1.0897  0.5114  0.6779
  115MOL0     C15077   4.124   8.783   9.770 -0.1621  0.9961  0.4449
  115MOL0     O15078   4.025   8.871   9.770 -0.5004  0.3834  0.1287
  115MOL0     C15079   3.898   8.824   9.794  0.1080 -0.4044 -0.1726
  115MOL0     C15080   3.816   8.779   9.693 -0.0188  0.2588  0.6437
  115MOL0     C15081   3.690   8.728   9.716  1.5213 -0.7037 -0.5273
  115MOL0     C15082   3.635   8.740   9.842  1.2281  0.0086 -0.5336
  115MOL0     O15083   3.503   8.699   9.882  0.4016  0.3347 -0.1184
  115MOL0     C15084   3.399   8.756   9.795 -0.5101 -0.4157 -0.4870
  115MOL0     C15085   3.251   8.739   9.845  0.2486 -0.2278  0.0136
  115MOL0     C15086   3.221   8.588   9.888  0.6672  0.3331  0.0146
  115MOL0     C15087   3.093   8.571   9.957  1.4170 -0.3360 -0.6218
  115MOL0     C15088   3.075   8.424   9.993 -1.0979  0.5870  0.0630
  115MOL0     C15089   2.943   8.400  10.064  0.4988  0.2144 -0.9166
  115MOL0     C15090   2.933   8.250  10.090  0.0031 -0.3097  0.0076
  115MOL0     C15091   2.806   8.213  10.172 -0.5697  0.1330  0.2953
  115MOL0    Cl15092   2.798   8.031  10.188 -0.3055 -0.1604  0.4277
  115MOL0     C15093   3.706   8.801   9.950  0.2162 -0.0658 -0.3258
  115MOL0     C15094   3.842   8.828   9.922  0.5295 -0.2889 -0.6370
  115MOL0     O15095   4.119   8.662   9.802 -0.0518 -0.8459 -0.0700
  115MOL0     C15096   4.265   8.978   9.723 -0.8145  0.2451 -0.3046
  115MOL0     C15097   4.392   9.037   9.696 -0.0245  0.0184 -0.1396
  115MOL0     N15098   5.030   8.847   9.278 -0.4211 -0.3057 -0.2815
  115MOL0     N15099   5.139   8.859   9.199  0.3747  0.4581  0.2219
  115MOL0     C15100   6.338   9.134   9.215 -0.4296 -0.0657 -0.4641
  115MOL0     C15101   6.471   9.101   9.242 -0.5990 -0.1540  0.0521
  115MOL0     C15102   6.921   9.064   9.188 -0.4795  0.3362 -0.2232
  115MOL0     C15103   6.928   8.999   9.312  0.2973  0.2889 -0.0236
  115MOL0     C15104   7.054   8.955   9.350  0.2414  0.7143 -0.2093
  115MOL0     C15105   7.166   8.987   9.281 -0.4660  1.6631 -0.3469
  115MOL0     O15106   7.277   8.933   9.350  0.1186  0.0594  0.4761
  115MOL0     C15107   7.408   8.948   9.295 -0.5935 -0.1843 -0.4194
  115MOL0     C15108   7.444   8.839   9.207  0.3337  0.4600  0.1331
  115MOL0     C15109   7.567   8.869   9.121  0.5077 -0.2075 -0.9221
  115MOL0     C15110   7.628   8.743   9.079  0.4458  0.8147 -0.2278
  115MOL0     C15111   7.724   8.767   8.976  0.5631  0.2458 -0.7643
  115MOL0     C15112   7.790   8.802   8.882 -0.0298 -0.4893  0.2298
  115MOL0     C15113   7.158   9.048   9.163 -0.1529  0.0682 -0.4459
  115MOL0     C15114   7.034   9.082   9.103 -0.0881 -0.5816 -0.5756
  115MOL0     H15115   6.626   9.355   9.090  0.1447  0.0123  2.6787
  115MOL0     H15116   6.385   9.422   9.040  2.5640  0.9060  1.0068
  115MOL0     H15117   6.056   9.169   9.254 -1.9458 -0.2566 -0.3065
  115MOL0     H15118   6.061   9.112   9.073 -0.1968  2.5734 -2.8411
  115MOL0     H15119   5.934   9.315   9.028 -2.0362 -0.7394 -0.9214
  115MOL0     H15120   5.901   9.301   9.210 -2.6128 -3.9358  1.1303
  115MOL0     H15121   5.791   9.103   9.012 -0.2972 -1.4331  1.2592
  115MOL0     H15122   5.718   9.224   9.110 -1.8129 -2.2541  2.9236
  115MOL0     H15123   5.872   8.985   9.209 -0.3490 -0.5963  2.4197
  115MOL0     H15124   5.824   9.102   9.311 -1.3156  0.1078  0.3182
  115MOL0     H15125   5.672   8.909   9.307  0.4208  0.6619  0.4978
  115MOL0     H15126   5.629   8.932   9.139 -2.0089  0.0175 -0.5139
  115MOL0     H15127   5.534   9.151   9.170 -0.2086 -0.0586  1.1822
  115MOL0     H15128   5.582   9.153   9.347 -0.3436 -0.0472  1.0280
  115MOL0     H15129   5.433   8.988   9.406 -1.3405 -3.7389 -1.1246
  115MOL0     H15130   5.334   9.085   9.300 -1.1070 -2.5297 -1.4057
  115MOL0     H15131   5.446   8.807   9.234  2.0022  0.8622 -2.7146
  115MOL0     H15132   5.377   8.907   9.124  0.9805 -0.9233 -0.2480
  115MOL0     H15133   5.242   8.848   9.513  1.3610  1.9214  0.0557
  115MOL0     H15134   4.996   8.738   9.581  1.9378  1.0318  0.9649
  115MOL0     H15135   4.865   8.796   9.472 -1.8847  1.5849  0.5919
  115MOL0     H15136   5.026   8.983   9.667 -1.8497  2.8643  0.1157
  115MOL0     H15137   4.874   8.910   9.707 -1.6436  0.8211 -0.2148
  115MOL0     H15138   4.868   9.153   9.646 -1.3798 -1.4947  1.3981
  115MOL0     H15139   4.926   9.113   9.488  3.4473 -3.3027 -0.0196
  115MOL0     H15140   4.692   8.952   9.504 -2.4310 -1.1805  2.0397
  115MOL0     H15141   4.681   9.134   9.505 -1.2369  0.1022  1.6047
  115MOL0     H15142   4.604   8.772   9.688  0.9973  2.7554  1.8874
  115MOL0     H15143   4.402   8.663   9.725 -0.0193 -0.0136  2.4889
  115MOL0     H15144   3.852   8.784   9.591 -2.0961 -1.4203 -0.2513
  115MOL0     H15145   3.650   8.675   9.630  1.9056 -2.1520  0.1524
  115MOL0     H15146   3.407   8.706   9.698 -2.1884 -3.5967  0.8635
  115MOL0     H15147   3.404   8.865   9.793 -4.3230 -0.0602 -3.6685
  115MOL0     H15148   3.184   8.758   9.761  0.4706 -1.1331 -0.3812
  115MOL0     H15149   3.233   8.810   9.926 -3.1838 -1.0212  0.0914
  115MOL0     H15150   3.299   8.543   9.950  1.2871 -0.0832 -1.0400
  115MOL0     H15151   3.237   8.527   9.798 -1.5536 -0.1981 -0.0878
  115MOL0     H15152   3.096   8.631  10.048  1.4055  0.3781 -1.0817
  115MOL0     H15153   3.013   8.605   9.891  0.3470  0.1579  0.8835
  115MOL0     H15154   3.152   8.378  10.055 -0.5444  1.5326  0.1082
  115MOL0     H15155   3.082   8.357   9.906  1.6360 -2.0755  2.1222
  115MOL0     H15156   2.853   8.431  10.011 -1.5499 -1.6188  1.2374
  115MOL0     H15157   2.938   8.455  10.159  0.4037  2.7054 -2.2802
  115MOL0     H15158   2.935   8.196   9.995 -2.0294 -0.9927  0.3006
  115MOL0     H15159   3.014   8.222  10.157  0.0531  2.0949  1.0595
  115MOL0     H15160   2.716   8.250  10.122 -0.0102  0.6515 -0.3474
  115MOL0     H15161   2.820   8.257  10.271 -0.5138  1.0966 -0.1328
  115MOL0     H15162   3.663   8.812  10.049  0.8829 -1.0112  0.0878
  115MOL0     H15163   3.907   8.860  10.003 -0.6252  0.6922 -0.0483
  115MOL0     H15164   4.181   9.045   9.732  0.4701  1.6299  2.5069
  115MOL0     H15165   4.395   9.145   9.688 -0.8910 -0.0862 -2.9502
  115MOL0     H15166   6.265   9.063   9.254  0.4717  0.3145  2.0723
  115MOL0     H15167   6.493   9.019   9.310  1.4518  1.2420  1.1774
  115MOL0     H15168   6.842   8.989   9.377  0.7570  1.5259  0.8088
  115MOL0     H15169   7.075   8.897   9.439 -1.8013 -0.1456 -0.2222
  115MOL0     H15170   7.477   8.950   9.380 -0.6752 -2.2672 -0.2386
  115MOL0     H15171   7.412   9.039   9.235  2.0848 -1.5426 -2.5354
  115MOL0     H15172   7.464   8.748   9.265 -0.9742 -0.4191 -0.7321
  115MOL0     H15173   7.355   8.830   9.144  2.4556  0.4530 -3.1127
  115MOL0     H15174   7.635   8.915   9.193 -0.2039 -0.7216  0.1092
  115MOL0     H15175   7.538   8.925   9.031  0.9605 -1.8999 -2.1774
  115MOL0     H15176   7.663   8.674   9.155 -3.6230 -0.6704  0.5507
  115MOL0     H15177   7.545   8.702   9.021  0.9766  1.1702 -1.2670
  115MOL0     H15178   7.847   8.842   8.800 -2.7019 -1.0471 -2.0480
  115MOL0     H15179   7.246   9.060   9.100  1.6138 -1.0671  1.6679
  115MOL0     H15180   7.035   9.128   9.005 -1.2220  2.8171  0.8263
  116MOL0     O15181   9.796   6.248  10.117  0.0646  0.9782  0.2899
  116MOL0     C15182   9.723   6.177  10.044  0.7421  0.6350 -0.3419
  116MOL0     O15183   9.759   6.064   9.986  0.2072 -0.4186  0.6343
  116MOL0     C15184   9.883   6.015   9.996  0.2265 -0.9651 -0.8361
  116MOL0     C15185   9.910   5.952  10.121  0.2144 -0.3641  0.0783
  116MOL0     C15186  10.042   5.903  10.152 -0.0927 -0.1771 -0.0755
  116MOL0     C15187  10.135   5.907  10.052 -0.5940  0.2559 -0.1022
  116MOL0     O15188  10.265   5.866  10.059  0.7649 -0.1902  0.1805
  116MOL0     C15189  10.310   5.802  10.179 -0.3885 -0.1819  0.3473
  116MOL0     C15190  10.371   5.906  10.275  0.3279 -0.0240 -0.5538
  116MOL0     C15191  10.488   5.980  10.205 -0.4623  0.0975 -0.2770
  116MOL0     C15192  10.576   6.053  10.297 -0.1341 -0.4826  0.6518
  116MOL0     C15193  10.716   6.086  10.231  0.1716 -0.4340  0.1651
  116MOL0     C15194  10.781   6.199  10.311 -0.2832  0.3820 -0.5558
  116MOL0     C15195  10.931   6.238  10.284  1.1530 -0.3849  0.3844
  116MOL0     C15196  10.938   6.308  10.150  0.8610  0.2509  0.3185
  116MOL0     N15197  11.082   6.358  10.118  0.0804  1.1178 -0.1209
  116MOL0     C15198  11.166   6.295  10.037  0.3749  0.6598  0.1464
  116MOL0     C15199  11.264   6.383  10.012 -0.0899 -0.4762  0.3169
  116MOL0     C15200  11.402   6.344   9.943  0.5455  0.0648  0.2821
  116MOL0     C15201  11.508   6.447   9.953 -0.1006  0.1314  0.6269
  116MOL0     C15202  11.644   6.404   9.890  0.0029 -0.1901  0.3613
  116MOL0     C15203  11.753   6.513   9.902 -0.3459  0.1701  0.8324
  116MOL0     O15204  11.851   6.504   9.795 -0.5025  0.0254  0.3515
  116MOL0     C15205  11.939   6.400   9.793 -0.5157 -0.6282 -0.9778
  116MOL0     C15206  11.980   6.319   9.896 -0.0073  0.2988 -0.5982
  116MOL0     C15207  12.095   6.249   9.899 -0.3054  0.3409 -0.4087
  116MOL0     C15208  12.183   6.246   9.796 -1.1294  0.6271  0.4507
  116MOL0     C15209  12.297   6.154   9.795 -0.5638  0.0097 -0.3889
  116MOL0     O15210  12.345   6.096   9.908  1.2849 -1.0383  0.0206
  116MOL0     C15211  12.457   6.021   9.912 -0.8950 -0.7297  0.6382
  116MOL0     C15212  12.568   6.076   9.852  0.3420  0.4604  0.0178
  116MOL0     C15213  12.681   5.993   9.847 -0.7239  0.3347  0.8911
  116MOL0     C15214  12.677   5.860   9.877 -0.5839  1.1243 -0.4499
  116MOL0     O15215  12.794   5.791   9.863 -0.3329 -0.3431  0.4022
  116MOL0     C15216  12.861   5.714   9.968  0.2398  0.1627 -0.1031
  116MOL0     C15217  12.960   5.612   9.897 -0.1482 -0.4536 -0.5380
  116MOL0     C15218  13.078   5.680   9.817 -0.4016  0.0111  0.5182
  116MOL0     C15219  13.158   5.778   9.903  0.0222 -0.2639  0.2415
  116MOL0     C15220  13.283   5.829   9.833 -0.1157  0.3431  0.1071
  116MOL0     C15221  13.363   5.934   9.910 -0.9153  0.8321 -0.7892
  116MOL0     C15222  13.444   6.023   9.815 -0.0986 -0.9452 -0.2731
  116MOL0     C15223  13.382   6.159   9.787  0.7378 -0.3405  0.3278
  116MOL0    Cl15224  13.370   6.246   9.945 -0.3456 -0.3759  0.2849
  116MOL0     C15225  12.559   5.806   9.924  0.1173  0.2447 -0.4315
  116MOL0     C15226  12.449   5.895   9.954 -0.1317  0.4148 -0.2642
  116MOL0     O15227  12.350   6.142   9.682  0.3021  0.4415 -0.1833
  116MOL0     C15228  12.141   6.317   9.676  0.4893 -0.5271 -0.6137
  116MOL0     C15229  12.028   6.398   9.679 -0.1600 -0.8848  0.9836
  116MOL0     N15230  11.222   6.508  10.055 -0.0390  0.7244  0.4977
  116MOL0     N15231  11.121   6.489  10.131  0.4618 -0.7725 -0.1583
  116MOL0     C15232  10.102   5.967   9.928  0.9497 -1.2930  0.6406
  116MOL0     C15233   9.974   6.012   9.898 -0.7164  0.1535 -0.8432
  116MOL0     C15234   9.580   6.231  10.022  0.0188  0.0846 -0.0397
  116MOL0     C15235   9.542   6.350  10.083  0.2285  0.5265 -0.5041
  116MOL0     C15236   9.414   6.399  10.058 -1.0471  0.0883  1.1554
  116MOL0     C15237   9.332   6.339   9.972  0.1181 -0.3925  0.3013
  116MOL0     O15238   9.201   6.382   9.933  0.2927 -0.4931 -0.2250
  116MOL0     C15239   9.151   6.507   9.990  0.1664 -0.0402 -0.0615
  116MOL0     C15240   9.208   6.633   9.913  0.6366 -0.1020 -0.2977
  116MOL0     C15241   9.118   6.757   9.936 -0.5545 -0.1901  0.3042
  116MOL0     C15242   9.178   6.883   9.873 -0.9158 -0.5660 -0.0299
  116MOL0     C15243   9.120   7.010   9.934  1.2271  0.5873  0.0537
  116MOL0     C15244   9.066   7.106   9.985 -0.1543  0.3673 -0.5531
  116MOL0     C15245   9.371   6.223   9.906 -0.2058 -0.0665 -1.1183
  116MOL0     C15246   9.499   6.169   9.931  0.0279  0.2606  0.1686
  116MOL0     H15247   9.827   5.958  10.192  0.5274  2.9252  0.3318
  116MOL0     H15248  10.072   5.857  10.246 -0.8140 -2.1791 -0.7689
  116MOL0     H15249  10.393   5.737  10.150 -0.0258  1.5252 -2.7898
  116MOL0     H15250  10.229   5.752  10.234 -1.6403  1.2810 -0.1113
  116MOL0     H15251  10.414   5.846  10.356 -2.0000 -4.7706 -2.4614
  116MOL0     H15252  10.296   5.977  10.311  0.8948  0.6393 -0.6536
  116MOL0     H15253  10.454   6.047  10.126  4.3510  0.0715 -2.6987
  116MOL0     H15254  10.544   5.908  10.144  0.3961  1.2051 -0.8223
  116MOL0     H15255  10.531   6.144  10.338  0.9120 -0.6921  2.3833
  116MOL0     H15256  10.590   5.995  10.389  0.0316 -1.9449 -0.2640
  116MOL0     H15257  10.692   6.123  10.131  0.0634 -0.6134  0.1223
  116MOL0     H15258  10.778   5.996  10.234  0.4411 -0.2269  1.3555
  116MOL0     H15259  10.778   6.167  10.415  1.3108 -0.0982 -0.6330
  116MOL0     H15260  10.719   6.288  10.296  0.4330  0.6367 -2.2209
  116MOL0     H15261  10.948   6.321  10.353  1.7722  1.9675 -2.3955
  116MOL0     H15262  10.999   6.153  10.294 -0.9658 -2.2025  0.1901
  116MOL0     H15263  10.878   6.399  10.149  0.8123  0.2168 -0.3113
  116MOL0     H15264  10.909   6.239  10.071  4.1436 -0.2647 -0.5853
  116MOL0     H15265  11.153   6.198   9.990 -0.3939 -0.0635  1.7421
  116MOL0     H15266  11.366   6.336   9.840  0.1747  1.9562  0.2142
  116MOL0     H15267  11.439   6.246   9.975  0.3691 -0.3328 -0.6993
  116MOL0     H15268  11.527   6.472  10.058 -2.6664 -0.9141  1.3955
  116MOL0     H15269  11.470   6.544   9.919  1.3915 -0.1567 -2.2109
  116MOL0     H15270  11.685   6.309   9.925  1.6249 -0.6203 -2.4401
  116MOL0     H15271  11.633   6.391   9.782  4.2903 -1.0030 -0.1372
  116MOL0     H15272  11.801   6.518  10.000  1.6471  2.0570 -0.1596
  116MOL0     H15273  11.699   6.608   9.899  0.4466  0.6155  0.0322
  116MOL0     H15274  11.933   6.315   9.994 -1.4723  0.6371 -1.2616
  116MOL0     H15275  12.108   6.209   9.999  1.2465  3.3120  0.7058
  116MOL0     H15276  12.576   6.179   9.819 -1.2205  0.7846  0.5755
  116MOL0     H15277  12.775   6.033   9.807 -0.7700  0.7357  1.1789
  116MOL0     H15278  12.776   5.665  10.016 -0.5261  0.0227 -1.5557
  116MOL0     H15279  12.917   5.772  10.042 -0.9427 -0.5088  1.3636
  116MOL0     H15280  12.899   5.550   9.832  0.4514 -0.2182 -1.3414
  116MOL0     H15281  13.012   5.558   9.977  0.1689  1.1199  0.3600
  116MOL0     H15282  13.038   5.733   9.731  2.2868  0.0865 -0.7841
  116MOL0     H15283  13.142   5.603   9.773  1.3317  0.8940  1.3850
  116MOL0     H15284  13.098   5.868   9.922  0.2964 -0.1085  0.3774
  116MOL0     H15285  13.181   5.735  10.001  1.5366  0.7671  0.3731
  116MOL0     H15286  13.255   5.868   9.735 -0.7100 -1.8180 -0.6358
  116MOL0     H15287  13.356   5.750   9.814 -1.2327 -0.5045 -0.7702
  116MOL0     H15288  13.430   5.878   9.976 -1.4127 -0.3164 -1.2208
  116MOL0     H15289  13.299   5.988   9.980  0.0641 -1.2899  1.9275
  116MOL0     H15290  13.540   6.035   9.866 -0.6132  1.3664  0.3229
  116MOL0     H15291  13.469   5.981   9.718  1.2557  0.8284 -0.7430
  116MOL0     H15292  13.288   6.146   9.732  0.7480  0.7222  0.0354
  116MOL0     H15293  13.442   6.222   9.721 -1.4216  2.1754  0.6002
  116MOL0     H15294  12.549   5.707   9.968  2.9768  0.3575  0.7139
  116MOL0     H15295  12.358   5.863  10.004  0.2587 -1.2859 -0.5639
  116MOL0     H15296  12.201   6.310   9.586  1.9925 -3.4336  0.4808
  116MOL0     H15297  12.019   6.462   9.592 -1.0578  1.3375  2.6351
  116MOL0     H15298  10.175   5.987   9.851  0.0238 -0.7404 -0.1062
  116MOL0     H15299   9.945   6.044   9.798 -3.1262 -0.9909 -0.5812
  116MOL0     H15300   9.611   6.407  10.144  0.9547 -2.4787  1.7146
  116MOL0     H15301   9.383   6.495  10.097  1.9738  1.5197  0.3272
  116MOL0     H15302   9.169   6.516  10.098  1.6819  3.3076 -0.4739
  116MOL0     H15303   9.044   6.500   9.969  0.4308 -5.2024 -0.8346
  116MOL0     H15304   9.311   6.647   9.947  0.1317 -0.8015  1.6019
  116MOL0     H15305   9.211   6.607   9.806 -1.4216 -0.9630 -0.1858
  116MOL0     H15306   9.112   6.772  10.045 -1.3696  2.3460 -0.0148
  116MOL0     H15307   9.024   6.735   9.885  0.2561  2.3026 -2.4955
  116MOL0     H15308   9.285   6.881   9.897 -1.0149  0.1575  0.5058
  116MOL0     H15309   9.153   6.870   9.768 -0.6024 -2.5576  0.1154
  116MOL0     H15310   9.000   7.178  10.030 -0.9668 -0.3109 -0.6455
  116MOL0     H15311   9.296   6.183   9.838 -0.9655  1.0329 -0.9473
  116MOL0     H15312   9.535   6.077   9.887  1.3236 -0.1039  1.8451
  117MOL0     O15313   5.180  10.702   5.979 -0.6195 -0.1951 -0.7645
  117MOL0     C15314   5.228  10.587   5.972  0.4745  1.4022 -0.1398
  117MOL0     O15315   5.162  10.478   5.930 -0.3716  0.2447 -0.1603
  117MOL0     C15316   5.032  10.487   5.909  0.4661  0.4727 -0.6299
  117MOL0     C15317   4.942  10.415   5.991  0.0953 -0.8899 -0.5160
  117MOL0     C15318   4.806  10.421   5.978 -0.4892 -0.8780 -0.2342
  117MOL0     C15319   4.748  10.500   5.876  0.1883  0.0683 -0.4912
  117MOL0     O15320   4.611  10.518   5.837  0.3519 -0.1034  0.3425
  117MOL0     C15321   4.519  10.413   5.887 -0.5539  0.2006 -0.9990
  117MOL0     C15322   4.381  10.465   5.848 -0.3416  0.2280  0.4685
  117MOL0     C15323   4.267  10.359   5.884 -0.1780 -0.0606 -0.0148
  117MOL0     C15324   4.139  10.382   5.819  0.1866 -0.1849 -0.1380
  117MOL0     C15325   4.028  10.277   5.834 -0.4520 -0.1866 -0.8304
  117MOL0     C15326   3.902  10.322   5.757  0.1606 -0.4326  0.6384
  117MOL0     C15327   3.798  10.206   5.760  0.0353  0.8304  0.0366
  117MOL0     C15328   3.838  10.079   5.677 -0.2036  0.3384  0.7660
  117MOL0     N15329   3.867  10.121   5.542  0.5344 -0.3789 -0.1629
  117MOL0     C15330   3.991  10.137   5.495 -0.0818 -0.0882  0.8255
  117MOL0     C15331   3.982  10.163   5.367 -0.1528 -0.2969  1.1295
  117MOL0     C15332   4.092  10.202   5.269  0.2822  0.2308 -0.2378
  117MOL0     C15333   4.080  10.348   5.217  0.2053  0.8658 -0.4230
  117MOL0     C15334   4.131  10.452   5.315 -0.0866 -0.1028  0.0140
  117MOL0     C15335   4.089  10.591   5.248 -0.1936 -0.0760 -0.3294
  117MOL0     O15336   4.187  10.681   5.310  0.2166 -0.7690  0.3277
  117MOL0     C15337   4.140  10.748   5.424 -0.2001  0.7269  0.2534
  117MOL0     C15338   4.176  10.704   5.554 -0.4612  0.1376  0.7055
  117MOL0     C15339   4.139  10.776   5.660 -0.0434 -0.2632  0.4194
  117MOL0     C15340   4.058  10.900   5.655  0.2650  1.1084  1.3093
  117MOL0     C15341   4.034  10.989   5.773 -0.0542  0.9973 -1.0026
  117MOL0     O15342   3.986  11.122   5.758  0.2472 -0.0419  0.3980
  117MOL0     C15343   3.947  11.180   5.871  0.0517  0.9972 -0.1192
  117MOL0     C15344   4.044  11.260   5.946  0.0856 -0.2340  0.0736
  117MOL0     C15345   3.997  11.329   6.058 -0.4357  0.0543  0.1178
  117MOL0     C15346   3.863  11.320   6.108 -0.9054  0.2445  0.4421
  117MOL0     O15347   3.815  11.392   6.208  0.1329  0.8558  0.5370
  117MOL0     C15348   3.906  11.431   6.315 -0.3437  1.0559  0.8413
  117MOL0     C15349   3.824  11.451   6.437  0.4010 -0.0562 -0.5351
  117MOL0     C15350   3.723  11.559   6.425 -0.2086 -0.5011  0.8124
  117MOL0     C15351   3.684  11.619   6.562  0.2315 -0.6046  0.6024
  117MOL0     C15352   3.563  11.712   6.542 -0.1243 -0.2659  0.5650
  117MOL0     C15353   3.545  11.810   6.661  0.1343 -0.2829  0.3856
  117MOL0     C15354   3.424  11.900   6.635  0.5455 -0.7434  0.0618
  117MOL0     C15355   3.441  12.000   6.528 -0.0646 -1.0477  0.8380
  117MOL0    Cl15356   3.554  12.137   6.587  0.1103 -0.1307  0.3451
  117MOL0     C15357   3.772  11.244   6.024 -0.5699  1.0239 -0.1881
  117MOL0     C15358   3.813  11.171   5.909  0.0839 -0.6022  0.3652
  117MOL0     O15359   4.043  10.931   5.883  0.8567  0.0553 -0.5752
  117MOL0     C15360   4.016  10.937   5.524 -0.5245  0.0577  0.7130
  117MOL0     C15361   4.054  10.858   5.412 -0.0790 -0.6782  0.6723
  117MOL0     N15362   3.844  10.148   5.336 -0.4131 -1.4371 -0.6630
  117MOL0     N15363   3.775  10.128   5.446 -0.1805 -1.2842  0.0133
  117MOL0     C15364   4.837  10.561   5.789  0.1877 -0.7376  0.3175
  117MOL0     C15365   4.976  10.555   5.801 -0.5219 -0.2282 -0.7160
  117MOL0     C15366   5.374  10.563   5.989  0.3211 -1.1534 -0.1042
  117MOL0     C15367   5.436  10.437   5.973  0.7463 -0.4252 -1.0628
  117MOL0     C15368   5.577  10.427   5.979  1.2266 -0.0495 -0.0387
  117MOL0     C15369   5.652  10.541   6.008  0.4571 -0.1278 -0.8692
  117MOL0     O15370   5.782  10.523   6.030  0.2188  0.0368  0.2650
  117MOL0     C15371   5.860  10.535   5.908 -0.0896  0.4430 -0.1710
  117MOL0     C15372   5.917  10.392   5.874 -0.1619 -0.2078 -0.6364
  117MOL0     C15373   6.057  10.349   5.944  0.1976 -1.6044 -0.1041
  117MOL0     C15374   6.171  10.348   5.845  0.0010  0.0715  0.7574
  117MOL0     C15375   6.164  10.225   5.764  0.4237 -0.7257  0.5150
  117MOL0     C15376   6.167  10.141   5.676  0.2341 -0.4299  0.0600
  117MOL0     C15377   5.600  10.663   6.016  0.8605  0.4178 -0.0143
  117MOL0     C15378   5.458  10.675   6.003  0.0067 -0.1718  0.2120
  117MOL0     H15379   4.994  10.355   6.066 -1.1938  0.0582  1.2113
  117MOL0     H15380   4.757  10.358   6.051  0.0623 -0.5423  0.4244
  117MOL0     H15381   4.525  10.394   5.994 -2.4467 -0.4446 -0.9707
  117MOL0     H15382   4.533  10.314   5.843 -1.6219 -1.1517  1.5213
  117MOL0     H15383   4.395  10.483   5.741  2.2975 -0.4791  0.6281
  117MOL0     H15384   4.373  10.564   5.892  2.0501  0.2180  1.0633
  117MOL0     H15385   4.242  10.360   5.990 -0.5018 -1.6525 -0.0418
  117MOL0     H15386   4.307  10.262   5.852 -0.3512  0.1343 -0.8446
  117MOL0     H15387   4.104  10.473   5.868  2.9111  0.9780 -0.1284
  117MOL0     H15388   4.149  10.398   5.711 -1.6692 -0.4263 -0.3799
  117MOL0     H15389   3.995  10.258   5.937 -1.1486 -3.0302 -1.5214
  117MOL0     H15390   4.075  10.187   5.794 -0.9707 -0.1370 -1.5494
  117MOL0     H15391   3.923  10.342   5.652  1.4577  0.3444  1.0167
  117MOL0     H15392   3.866  10.410   5.811 -1.2363 -1.9042  2.2255
  117MOL0     H15393   3.771  10.175   5.861 -1.0584 -0.0468 -0.4932
  117MOL0     H15394   3.707  10.245   5.713  0.4744  2.3645  0.3995
  117MOL0     H15395   3.763   9.999   5.680  2.0586 -1.9619  0.2114
  117MOL0     H15396   3.930  10.031   5.713  0.9651 -1.2639 -3.6718
  117MOL0     H15397   4.083  10.149   5.552 -0.4742 -1.9056  1.9367
  117MOL0     H15398   4.088  10.135   5.182  2.1627  0.0659 -0.2318
  117MOL0     H15399   4.185  10.192   5.326  0.3796 -1.2743 -0.6189
  117MOL0     H15400   3.979  10.369   5.183 -0.3350 -2.9475 -1.7554
  117MOL0     H15401   4.141  10.357   5.127  0.2534  0.6242 -0.4150
  117MOL0     H15402   4.086  10.441   5.415 -3.5673 -0.1484 -1.4044
  117MOL0     H15403   4.240  10.450   5.318 -0.0405  1.0638 -0.4547
  117MOL0     H15404   3.988  10.611   5.283 -0.2373 -2.1292  0.9497
  117MOL0     H15405   4.100  10.585   5.140  2.5589 -2.3687 -0.0600
  117MOL0     H15406   4.241  10.619   5.572 -0.4608  0.2602  1.2969
  117MOL0     H15407   4.163  10.742   5.760 -0.8194  2.1082  1.5060
  117MOL0     H15408   4.147  11.272   5.915 -0.0614 -0.3232 -0.4671
  117MOL0     H15409   4.064  11.395   6.112 -0.6979  1.5170 -1.2522
  117MOL0     H15410   3.964  11.518   6.282 -0.9161  1.7062  1.5087
  117MOL0     H15411   3.978  11.351   6.333  2.5972  3.1622 -0.7311
  117MOL0     H15412   3.878  11.486   6.525 -1.5305  1.1360  0.2449
  117MOL0     H15413   3.767  11.359   6.455  0.4845  0.7062  5.3320
  117MOL0     H15414   3.639  11.525   6.363 -0.5697 -1.0882  1.6106
  117MOL0     H15415   3.754  11.639   6.358 -0.1518  1.0509  2.6184
  117MOL0     H15416   3.663  11.534   6.627  0.9100 -0.1368  1.4447
  117MOL0     H15417   3.770  11.679   6.595 -0.2134 -1.4238  3.4331
  117MOL0     H15418   3.470  11.658   6.523 -0.0086  0.0399 -0.9784
  117MOL0     H15419   3.568  11.766   6.447 -3.1125 -4.4083 -2.3103
  117MOL0     H15420   3.631  11.877   6.670 -1.0411  1.8458 -2.7007
  117MOL0     H15421   3.532  11.748   6.750 -0.8298  1.4622  1.5189
  117MOL0     H15422   3.347  11.834   6.594  2.6394 -3.9904  0.9169
  117MOL0     H15423   3.390  11.958   6.721 -0.3342  0.5824 -1.1347
  117MOL0     H15424   3.340  12.032   6.502  0.9530 -0.4139 -2.8377
  117MOL0     H15425   3.487  11.964   6.436 -0.0891  1.2141 -0.1084
  117MOL0     H15426   3.668  11.243   6.055 -0.3977  0.5256  0.4169
  117MOL0     H15427   3.745  11.110   5.851  1.1755 -2.4646  0.9548
  117MOL0     H15428   3.952  11.021   5.501 -0.1388 -0.0161 -0.7326
  117MOL0     H15429   4.026  10.883   5.310  1.8466 -0.4781  0.1488
  117MOL0     H15430   4.786  10.620   5.713 -1.3288 -0.4292  1.5234
  117MOL0     H15431   5.034  10.575   5.712 -1.9397 -0.1389 -1.6491
  117MOL0     H15432   5.363  10.357   5.966 -0.2754  0.5565 -2.2527
  117MOL0     H15433   5.611  10.324   5.981  0.9837 -0.2727 -3.1398
  117MOL0     H15434   5.940  10.609   5.924 -0.5615  0.6747  1.2716
  117MOL0     H15435   5.801  10.581   5.829 -3.0878  0.0576  1.6961
  117MOL0     H15436   5.841  10.321   5.909 -0.4228  0.4210  0.1155
  117MOL0     H15437   5.935  10.379   5.767 -1.7899 -0.5209 -0.8983
  117MOL0     H15438   6.033  10.254   5.992  0.7076 -0.6875  2.0835
  117MOL0     H15439   6.079  10.416   6.028 -0.1732  1.1983 -2.1064
  117MOL0     H15440   6.165  10.434   5.778 -3.0221  1.7003  2.8873
  117MOL0     H15441   6.273  10.348   5.885  1.0303 -0.1708 -1.6501
  117MOL0     H15442   6.185  10.071   5.597 -0.1647 -0.3504 -0.0990
  117MOL0     H15443   5.654  10.754   6.041 -1.0889  1.1634  1.8701
  117MOL0     H15444   5.411  10.773   6.008  4.1953  2.1412 -0.6559
  118MOL0     O15445   0.138   4.338   6.654  0.3532 -0.5467 -0.0437
  118MOL0     C15446   0.113   4.312   6.776 -0.0047  0.0028  0.3960
  118MOL0     O15447   0.198   4.250   6.869 -0.0262  0.7020  0.2612
  118MOL0     C15448   0.309   4.182   6.829 -0.1585  0.2792  0.0004
  118MOL0     C15449   0.350   4.079   6.918 -0.3112  0.2679  0.9975
  118MOL0     C15450   0.459   4.005   6.874 -0.1913  0.6931 -0.1587
  118MOL0     C15451   0.535   4.021   6.755  0.5048 -0.4345 -0.1726
  118MOL0     O15452   0.649   3.957   6.721 -0.2692 -0.1654  0.0059
  118MOL0     C15453   0.646   3.812   6.735  0.0705  0.1798 -0.7102
  118MOL0     C15454   0.768   3.728   6.691  0.5249 -1.0618  0.1229
  118MOL0     C15455   0.889   3.764   6.778 -0.4959 -0.4541 -0.3875
  118MOL0     C15456   1.019   3.736   6.707 -0.0211  1.3000 -0.5698
  118MOL0     C15457   1.037   3.592   6.641  0.0763 -0.4778 -0.5961
  118MOL0     C15458   1.008   3.480   6.736 -0.5214 -0.2420  0.1111
  118MOL0     C15459   0.996   3.351   6.657 -0.2123 -0.9721 -0.1131
  118MOL0     C15460   0.865   3.342   6.579  0.5870  0.7956 -0.5845
  118MOL0     N15461   0.851   3.202   6.514 -0.1500  0.2869  0.3332
  118MOL0     C15462   0.760   3.163   6.422 -0.0358  0.2151  0.5372
  118MOL0     C15463   0.782   3.033   6.403 -0.3946  0.3913  1.5984
  118MOL0     C15464   0.725   2.948   6.294 -0.1949  1.0159  0.9663
  118MOL0     C15465   0.571   2.965   6.291 -1.1242  0.7515  0.2407
  118MOL0     C15466   0.500   2.943   6.426  0.1656  0.3346 -0.2517
  118MOL0     C15467   0.344   2.941   6.413  1.4678  0.2050  0.1840
  118MOL0     O15468   0.260   2.911   6.521  0.0178 -0.5673  0.4181
  118MOL0     C15469   0.149   2.845   6.486  0.7336 -0.4504  0.1315
  118MOL0     C15470   0.094   2.760   6.588 -1.1535  0.1568 -0.0442
  118MOL0     C15471  -0.026   2.690   6.568  0.3780  0.2832 -0.0138
  118MOL0     C15472  -0.108   2.711   6.453  0.5274  0.2671  0.4066
  118MOL0     C15473  -0.245   2.655   6.429  0.3067  0.3361  0.2800
  118MOL0     O15474  -0.303   2.680   6.312 -0.2696  0.8792 -0.1495
  118MOL0     C15475  -0.435   2.657   6.278  0.6491 -0.2182  0.1316
  118MOL0     C15476  -0.529   2.593   6.364  0.1835  0.2458 -0.2920
  118MOL0     C15477  -0.658   2.563   6.313  0.3981 -0.1265 -0.2921
  118MOL0     C15478  -0.694   2.593   6.182  0.0216 -0.9469 -0.0545
  118MOL0     O15479  -0.823   2.562   6.147 -0.3914  0.1090  0.1622
  118MOL0     C15480  -0.883   2.632   6.036 -0.3683  0.0582  0.6379
  118MOL0     C15481  -1.036   2.636   6.046 -1.0314 -0.3420 -0.6942
  118MOL0     C15482  -1.074   2.738   6.158  0.4929  0.6681  1.0522
  118MOL0     C15483  -1.221   2.767   6.124 -0.7893  0.6368  0.6137
  118MOL0     C15484  -1.312   2.653   6.178 -0.0970 -0.1233 -0.0482
  118MOL0     C15485  -1.453   2.706   6.180  0.1126 -0.5028 -0.8171
  118MOL0     C15486  -1.575   2.611   6.210  0.3967 -0.7006  1.0054
  118MOL0     C15487  -1.566   2.515   6.330 -0.3176 -0.4506 -0.3577
  118MOL0    Cl15488  -1.495   2.360   6.272  0.1611  0.0344 -0.2134
  118MOL0     C15489  -0.597   2.650   6.102 -0.0237  0.0064  1.0947
  118MOL0     C15490  -0.474   2.683   6.149  0.7547  0.1058 -0.5814
  118MOL0     O15491  -0.287   2.588   6.528 -0.7474  0.2256 -0.7653
  118MOL0     C15492  -0.052   2.797   6.349 -1.0404  0.8256  0.1134
  118MOL0     C15493   0.077   2.851   6.364  0.2621  0.5685  0.0128
  118MOL0     N15494   0.893   2.991   6.480  0.7826  1.2129  0.7269
  118MOL0     N15495   0.939   3.097   6.538  0.0409 -0.3304  0.0091
  118MOL0     C15496   0.488   4.115   6.671 -0.3493  0.4909 -0.6364
  118MOL0     C15497   0.385   4.201   6.712 -0.5893  0.3711 -0.1670
  118MOL0     C15498  -0.015   4.364   6.830  0.1118  0.3432 -0.0885
  118MOL0     C15499  -0.096   4.447   6.751 -0.1569  0.0224  0.1340
  118MOL0     C15500  -0.210   4.509   6.799 -0.7230 -0.5464  0.8934
  118MOL0     C15501  -0.250   4.489   6.925 -0.4376 -0.6092 -0.1404
  118MOL0     O15502  -0.359   4.545   6.983  0.1579 -0.0347  0.6024
  118MOL0     C15503  -0.447   4.643   6.922  0.5781  0.6271 -0.3244
  118MOL0     C15504  -0.517   4.727   7.029  0.3151  0.3364 -0.4757
  118MOL0     C15505  -0.638   4.802   6.966  0.2524 -0.4036 -0.1400
  118MOL0     C15506  -0.611   4.892   6.847 -0.9411 -0.0583  0.1992
  118MOL0     C15507  -0.529   5.000   6.901 -0.3763 -0.0777 -0.1216
  118MOL0     C15508  -0.464   5.092   6.945 -0.0684  0.4101  0.2387
  118MOL0     C15509  -0.176   4.400   7.011 -0.5363  0.3149  0.2504
  118MOL0     C15510  -0.060   4.338   6.965  0.7032  0.0477 -0.0657
  118MOL0     H15511   0.296   4.071   7.012  1.4466  0.7909  2.0857
  118MOL0     H15512   0.478   3.918   6.936 -0.5274  1.9095  1.7146
  118MOL0     H15513   0.566   3.784   6.666 -1.0784 -0.0220  0.6569
  118MOL0     H15514   0.632   3.765   6.833  2.2826  0.8854  0.0255
  118MOL0     H15515   0.792   3.743   6.585  0.9907 -0.0942  0.3498
  118MOL0     H15516   0.751   3.621   6.705 -0.3356 -1.5451 -3.5268
  118MOL0     H15517   0.894   3.722   6.879  0.5504  3.8404  1.5482
  118MOL0     H15518   0.887   3.870   6.804 -0.0437 -0.9813  2.0573
  118MOL0     H15519   1.044   3.806   6.628  1.0949  1.9415  0.3197
  118MOL0     H15520   1.099   3.745   6.781  0.6097 -0.0929 -1.0576
  118MOL0     H15521   1.141   3.584   6.608  0.8416  4.0801  0.0450
  118MOL0     H15522   0.973   3.594   6.552 -0.3757  3.0433 -0.3508
  118MOL0     H15523   0.925   3.496   6.805 -0.8464  0.7400 -0.4720
  118MOL0     H15524   1.102   3.477   6.792  0.3623 -0.1720 -1.3224
  118MOL0     H15525   1.079   3.349   6.585  0.8550  0.8392  0.9900
  118MOL0     H15526   1.006   3.273   6.733 -0.4792 -3.5067 -2.5159
  118MOL0     H15527   0.863   3.431   6.515  0.7211  0.4427 -1.0848
  118MOL0     H15528   0.789   3.350   6.657  2.3490  0.6771  1.2193
  118MOL0     H15529   0.696   3.240   6.380  0.9801  1.4640  1.1994
  118MOL0     H15530   0.763   2.847   6.314  0.5064  1.4746  2.0783
  118MOL0     H15531   0.761   2.985   6.198 -0.6335 -1.1530 -0.0990
  118MOL0     H15532   0.524   2.897   6.220 -2.6635 -2.8299  4.2414
  118MOL0     H15533   0.552   3.067   6.259  3.7117  1.8095 -0.0778
  118MOL0     H15534   0.525   2.848   6.473 -2.6280  0.1602  1.1071
  118MOL0     H15535   0.507   3.020   6.504 -1.0404 -3.3971  3.9706
  118MOL0     H15536   0.331   2.859   6.342 -1.5697  0.2504  0.5549
  118MOL0     H15537   0.315   3.041   6.378  1.3384  0.4732  1.0450
  118MOL0     H15538   0.149   2.763   6.682 -0.5979 -0.2992 -0.3418
  118MOL0     H15539  -0.065   2.630   6.650  0.8439  0.3534  0.2630
  118MOL0     H15540  -0.499   2.567   6.465  0.1661 -0.5266 -0.4773
  118MOL0     H15541  -0.732   2.526   6.383  1.8611 -1.3445  0.6760
  118MOL0     H15542  -0.855   2.582   5.942 -0.8804 -0.1320  0.5823
  118MOL0     H15543  -0.833   2.727   6.015  0.5606 -1.2042 -4.1143
  118MOL0     H15544  -1.075   2.536   6.068 -0.8754 -0.6482 -1.7626
  118MOL0     H15545  -1.087   2.653   5.951 -2.2967 -0.0326  0.0291
  118MOL0     H15546  -1.022   2.834   6.148 -1.9078  1.8263 -1.5822
  118MOL0     H15547  -1.054   2.690   6.255 -0.3521 -2.8602 -0.3676
  118MOL0     H15548  -1.256   2.862   6.164 -0.7021  1.1108 -0.4072
  118MOL0     H15549  -1.235   2.789   6.018 -0.9032 -1.6753  0.0909
  118MOL0     H15550  -1.291   2.604   6.273 -3.6600 -4.5143 -1.1707
  118MOL0     H15551  -1.316   2.563   6.115 -2.6297 -0.7672  0.8942
  118MOL0     H15552  -1.480   2.753   6.084 -0.4886  3.0879  0.9151
  118MOL0     H15553  -1.446   2.785   6.255  1.9630 -0.0039 -1.4631
  118MOL0     H15554  -1.659   2.674   6.239 -0.5629  0.0761 -2.9070
  118MOL0     H15555  -1.602   2.557   6.119 -0.1776  0.5331  0.4322
  118MOL0     H15556  -1.670   2.504   6.363  0.1568 -2.3014  0.6200
  118MOL0     H15557  -1.512   2.552   6.418  0.6136  0.0182 -1.1074
  118MOL0     H15558  -0.615   2.675   5.997  2.8835 -2.3651 -0.1096
  118MOL0     H15559  -0.413   2.719   6.068 -1.2179  2.9720 -0.9451
  118MOL0     H15560  -0.112   2.817   6.261 -1.0611  3.1446  0.5763
  118MOL0     H15561   0.110   2.904   6.275 -0.4923 -1.6802 -1.6886
  118MOL0     H15562   0.532   4.134   6.574 -0.8716  2.2627 -0.5733
  118MOL0     H15563   0.365   4.287   6.648 -0.9751  1.2180  1.0628
  118MOL0     H15564  -0.065   4.478   6.652  1.1116  1.1167  0.8339
  118MOL0     H15565  -0.269   4.569   6.731  2.0541  0.0943 -1.1324
  118MOL0     H15566  -0.519   4.587   6.862  2.2838 -1.1664 -0.7974
  118MOL0     H15567  -0.385   4.716   6.868 -2.9958  1.8390 -3.1794
  118MOL0     H15568  -0.551   4.664   7.111 -0.1978 -1.4561 -1.9779
  118MOL0     H15569  -0.447   4.803   7.066  0.0030  0.8338 -0.8850
  118MOL0     H15570  -0.689   4.858   7.045 -3.8823 -1.2024 -2.0140
  118MOL0     H15571  -0.717   4.741   6.922 -0.6517  2.0390 -2.1150
  118MOL0     H15572  -0.562   4.850   6.758 -0.1902  1.1197  0.0405
  118MOL0     H15573  -0.710   4.933   6.823  0.4952  4.1474  0.7962
  118MOL0     H15574  -0.409   5.169   6.995 -0.3875 -1.0599  3.0793
  118MOL0     H15575  -0.212   4.387   7.113  0.9701  1.6964  1.0120
  118MOL0     H15576  -0.007   4.282   7.040  1.6802 -1.2540 -1.6655
  119MOL0     O15577   9.046   4.517   1.063 -0.1337 -0.2071  0.1311
  119MOL0     C15578   9.083   4.432   1.149 -0.2585 -1.0811  0.7445
  119MOL0     O15579   9.032   4.308   1.168 -0.7902 -0.0415  0.1276
  119MOL0     C15580   8.938   4.276   1.070 -1.3312 -0.0877 -0.8244
  119MOL0     C15581   8.806   4.309   1.084  0.2387 -0.3886 -0.0321
  119MOL0     C15582   8.709   4.263   0.992 -0.2616  1.4294  0.1427
  119MOL0     C15583   8.745   4.178   0.886 -0.0433 -0.4957  1.2097
  119MOL0     O15584   8.660   4.114   0.798  0.4903  1.2124  0.3826
  119MOL0     C15585   8.519   4.092   0.833  0.5255 -0.3243  0.5939
  119MOL0     C15586   8.493   3.979   0.931 -0.1826  0.1198  0.0627
  119MOL0     C15587   8.342   3.946   0.927 -0.0887  0.9223 -0.7264
  119MOL0     C15588   8.297   3.832   1.015  0.0300 -0.3055  0.7937
  119MOL0     C15589   8.146   3.815   1.007  0.2162 -0.5954  0.1637
  119MOL0     C15590   8.119   3.676   1.051  0.2742 -0.9234  0.1677
  119MOL0     C15591   7.973   3.661   1.094 -0.2425 -1.3760  0.3041
  119MOL0     C15592   7.946   3.516   1.124 -0.8929 -0.4862  0.8276
  119MOL0     N15593   7.800   3.501   1.141 -0.0276 -0.4540 -0.3675
  119MOL0     C15594   7.713   3.495   1.031 -1.0139  0.1454  0.7064
  119MOL0     C15595   7.594   3.472   1.077  0.3713  0.0766  0.1140
  119MOL0     C15596   7.472   3.449   0.984  0.0654 -0.2009 -0.2469
  119MOL0     C15597   7.449   3.552   0.872  0.1665  0.6507 -0.2520
  119MOL0     C15598   7.347   3.659   0.907  0.0176 -0.1872  0.2107
  119MOL0     C15599   7.336   3.757   0.796  0.5401 -1.0957 -0.1050
  119MOL0     O15600   7.236   3.860   0.834  0.2810  0.1769  0.0598
  119MOL0     C15601   7.162   3.926   0.735 -0.1433  0.6276  0.2774
  119MOL0     C15602   7.098   4.044   0.778  0.8278 -0.1339  0.5072
  119MOL0     C15603   7.044   4.132   0.683 -0.1380 -0.2292 -0.5289
  119MOL0     C15604   7.049   4.105   0.545  0.8510  0.3818  0.5346
  119MOL0     C15605   6.970   4.183   0.449 -0.6986 -0.3738  0.2079
  119MOL0     O15606   6.874   4.252   0.511  0.2996 -0.3104 -0.1129
  119MOL0     C15607   6.818   4.360   0.449 -0.4450 -0.5575 -0.2690
  119MOL0     C15608   6.877   4.443   0.356  0.0512 -1.1732  0.0103
  119MOL0     C15609   6.809   4.555   0.299  0.4116  0.3105 -0.3181
  119MOL0     C15610   6.681   4.582   0.346 -1.6949 -0.2903 -0.4757
  119MOL0     O15611   6.621   4.698   0.310  0.4598 -0.3366 -0.2980
  119MOL0     C15612   6.640   4.745   0.176  0.6501  0.4622 -0.1273
  119MOL0     C15613   6.526   4.843   0.139 -0.2527 -0.3918 -0.4727
  119MOL0     C15614   6.496   4.964   0.229 -0.1439  0.2884  0.2175
  119MOL0     C15615   6.596   5.070   0.198 -0.3602 -0.0520 -0.3121
  119MOL0     C15616   6.601   5.161   0.310  0.2943  0.1331 -0.0696
  119MOL0     C15617   6.499   5.272   0.272 -0.0352 -0.0585 -0.6631
  119MOL0     C15618   6.506   5.384   0.380  0.0855 -0.2126  0.0302
  119MOL0     C15619   6.422   5.512   0.349 -0.2174 -0.3238 -0.0190
  119MOL0    Cl15620   6.240   5.442   0.346 -0.0957 -0.4227 -0.0771
  119MOL0     C15621   6.620   4.498   0.441  0.0305 -0.1250  0.3753
  119MOL0     C15622   6.692   4.391   0.501 -0.4698  0.0877 -0.1627
  119MOL0     O15623   6.992   4.177   0.326  0.1312 -0.4861  0.2286
  119MOL0     C15624   7.117   3.987   0.509 -0.7461  0.1557 -0.1370
  119MOL0     C15625   7.179   3.899   0.599  0.1530  0.4321  0.6531
  119MOL0     N15626   7.607   3.466   1.223  1.0462  0.2897  0.3869
  119MOL0     N15627   7.722   3.487   1.261 -0.8029  0.3885  0.8775
  119MOL0     C15628   8.881   4.146   0.871 -0.3094  0.1891 -0.0561
  119MOL0     C15629   8.979   4.193   0.968 -0.4359  0.8361  0.3190
  119MOL0     C15630   9.208   4.471   1.225 -0.3080  0.9090  0.1537
  119MOL0     C15631   9.289   4.576   1.184 -0.2917  0.1243 -0.3600
  119MOL0     C15632   9.419   4.597   1.247 -0.5254 -0.2294  0.7224
  119MOL0     C15633   9.453   4.522   1.355  0.5529 -0.1627  0.3787
  119MOL0     O15634   9.571   4.548   1.424 -0.1602  0.0576  0.3469
  119MOL0     C15635   9.608   4.465   1.544 -0.9838  0.0196  0.6446
  119MOL0     C15636   9.740   4.532   1.593  0.0594  0.1648 -0.1092
  119MOL0     C15637   9.847   4.563   1.482  0.7722 -0.8421  0.4609
  119MOL0     C15638   9.979   4.543   1.554  0.2583  0.7226 -1.0606
  119MOL0     C15639  10.096   4.597   1.490 -0.2896 -0.4986  0.0508
  119MOL0     C15640  10.195   4.639   1.434  0.0883  0.0557 -0.2674
  119MOL0     C15641   9.353   4.442   1.409  0.0245  0.5824  0.1692
  119MOL0     C15642   9.239   4.407   1.342  0.3973 -0.0177 -0.7320
  119MOL0     H15643   8.773   4.372   1.165  3.7893  4.1856 -1.6486
  119MOL0     H15644   8.611   4.308   0.978 -1.3684 -1.3906 -2.1632
  119MOL0     H15645   8.480   4.049   0.740  1.2341 -1.6342  0.8676
  119MOL0     H15646   8.473   4.188   0.858 -0.3845 -1.2385  2.6416
  119MOL0     H15647   8.525   4.005   1.032 -0.5134 -4.4194  1.5287
  119MOL0     H15648   8.550   3.886   0.924 -4.6979 -3.2864  3.2688
  119MOL0     H15649   8.316   3.927   0.822  1.5087 -0.9678 -0.8456
  119MOL0     H15650   8.276   4.029   0.953 -2.0346 -0.8029  0.2201
  119MOL0     H15651   8.346   3.741   0.977  0.6365  0.9774 -1.7216
  119MOL0     H15652   8.338   3.845   1.115  0.7351 -0.8826  0.5999
  119MOL0     H15653   8.103   3.842   0.910 -3.3069 -1.3363  1.3604
  119MOL0     H15654   8.101   3.891   1.073 -1.3507 -1.5101  0.1976
  119MOL0     H15655   8.185   3.644   1.132  1.0818 -0.5757 -0.3481
  119MOL0     H15656   8.136   3.610   0.965 -2.8633  0.7967 -1.9729
  119MOL0     H15657   7.975   3.730   1.178  1.4234 -0.8850 -0.0868
  119MOL0     H15658   7.898   3.698   1.023 -3.0170 -2.1237  2.6893
  119MOL0     H15659   8.001   3.492   1.216  3.7092  2.6283 -0.7847
  119MOL0     H15660   7.980   3.441   1.052 -0.7709 -2.5048  2.8439
  119MOL0     H15661   7.743   3.498   0.927  1.4720  1.0263  1.3997
  119MOL0     H15662   7.385   3.419   1.044 -0.8250 -1.1474 -1.9137
  119MOL0     H15663   7.501   3.355   0.935  1.3774 -0.6604  1.3304
  119MOL0     H15664   7.405   3.497   0.789 -0.5024 -0.3107  0.7089
  119MOL0     H15665   7.545   3.594   0.843  0.2483 -0.5625 -1.8396
  119MOL0     H15666   7.248   3.613   0.907  0.0941 -0.6814 -3.6541
  119MOL0     H15667   7.382   3.691   1.006  1.3850 -2.5587  0.5807
  119MOL0     H15668   7.312   3.703   0.704 -1.8392 -1.6855  0.8014
  119MOL0     H15669   7.435   3.801   0.781  0.2071 -0.0098  0.7372
  119MOL0     H15670   7.109   4.073   0.882 -3.0796  0.7912  0.8175
  119MOL0     H15671   7.007   4.228   0.715 -1.5332 -0.3451 -1.6775
  119MOL0     H15672   6.971   4.409   0.314 -0.8327  1.3545 -4.6749
  119MOL0     H15673   6.851   4.614   0.218 -4.2933  5.2916  0.1966
  119MOL0     H15674   6.634   4.656   0.113 -0.0756  0.1740  0.3317
  119MOL0     H15675   6.741   4.784   0.159  0.1461  2.2084  0.6182
  119MOL0     H15676   6.435   4.783   0.137 -0.5358  0.0249 -3.1841
  119MOL0     H15677   6.543   4.871   0.035 -2.3736  0.3878 -0.6610
  119MOL0     H15678   6.492   4.928   0.332  0.6457 -0.7464 -0.0855
  119MOL0     H15679   6.399   5.005   0.201  0.1194  1.2274  0.6387
  119MOL0     H15680   6.697   5.029   0.189 -0.9024 -1.7324  0.7486
  119MOL0     H15681   6.578   5.116   0.101 -0.9233 -0.5569 -0.4546
  119MOL0     H15682   6.699   5.209   0.307  2.0256 -3.0756 -4.5242
  119MOL0     H15683   6.576   5.122   0.410 -0.1930  0.1915 -0.1651
  119MOL0     H15684   6.398   5.233   0.256  0.7905 -2.7100 -0.0032
  119MOL0     H15685   6.525   5.323   0.179  0.1769 -2.0217 -1.7465
  119MOL0     H15686   6.483   5.339   0.477 -1.2653  0.2371 -0.0516
  119MOL0     H15687   6.608   5.423   0.383 -0.5287  1.4035  1.5170
  119MOL0     H15688   6.463   5.558   0.259  0.2676 -0.7408 -0.0133
  119MOL0     H15689   6.436   5.581   0.432 -1.2193  0.1498 -0.2227
  119MOL0     H15690   6.525   4.525   0.486  0.5712  5.4744 -1.1488
  119MOL0     H15691   6.645   4.330   0.577  0.6440 -0.5711  0.0114
  119MOL0     H15692   7.112   3.952   0.407 -2.6640  2.0024 -0.7277
  119MOL0     H15693   7.231   3.810   0.565  1.3535 -0.1802  3.7800
  119MOL0     H15694   8.910   4.071   0.798 -2.7122 -2.5714  1.5860
  119MOL0     H15695   9.083   4.166   0.957 -0.0542  1.7330  1.4735
  119MOL0     H15696   9.248   4.644   1.110  0.3795  0.1776 -0.6866
  119MOL0     H15697   9.482   4.671   1.198  1.6057 -3.4322 -1.8065
  119MOL0     H15698   9.621   4.366   1.500 -2.1191  1.0886 -2.3985
  119MOL0     H15699   9.536   4.451   1.625  1.0748 -2.7745  2.1570
  119MOL0     H15700   9.720   4.622   1.652 -3.3684  1.3074 -2.6876
  119MOL0     H15701   9.771   4.457   1.667 -3.1312 -0.8443  0.3623
  119MOL0     H15702   9.852   4.665   1.444  0.6587 -1.6749 -1.9355
  119MOL0     H15703   9.831   4.491   1.402  0.5773  0.5723 -0.8163
  119MOL0     H15704   9.973   4.566   1.661 -0.1759  1.8818 -1.3225
  119MOL0     H15705   9.980   4.434   1.544 -0.4457  0.7301 -1.2755
  119MOL0     H15706  10.287   4.678   1.396  2.2547 -1.9537  2.5173
  119MOL0     H15707   9.343   4.395   1.506 -3.7526  0.7664  0.0209
  119MOL0     H15708   9.164   4.339   1.381  2.5114 -2.8915 -1.2702
  120MOL0     O15709   1.495   2.988   6.528  0.3861 -0.2849  0.2222
  120MOL0     C15710   1.520   2.966   6.410 -0.4132 -0.0289 -0.4115
  120MOL0     O15711   1.650   2.976   6.350  0.1372  0.1694  0.9283
  120MOL0     C15712   1.750   3.024   6.421 -1.4810  0.8465  0.0295
  120MOL0     C15713   1.783   2.972   6.547 -0.2090  0.4802  0.0991
  120MOL0     C15714   1.893   3.028   6.617  0.4129  0.1044  0.0716
  120MOL0     C15715   1.973   3.127   6.560 -0.1825 -0.7360 -0.5091
  120MOL0     O15716   2.088   3.187   6.612  0.3196  0.0292  0.2082
  120MOL0     C15717   2.133   3.149   6.745  0.1124 -0.5269  0.0204
  120MOL0     C15718   2.028   3.220   6.848 -0.0437 -0.0510 -0.5324
  120MOL0     C15719   2.073   3.256   6.991 -0.1790  0.2876 -0.3178
  120MOL0     C15720   2.123   3.127   7.063 -0.4334  0.9416  0.1345
  120MOL0     C15721   2.078   3.131   7.208  0.1192  0.1584 -0.6184
  120MOL0     C15722   1.941   3.060   7.229 -0.6343  0.7662 -0.7864
  120MOL0     C15723   1.887   3.075   7.370 -0.3278 -0.1385 -1.2003
  120MOL0     C15724   1.743   3.051   7.384  0.3610 -0.1280  0.1386
  120MOL0     N15725   1.671   3.173   7.344  0.9640 -0.5398  0.3346
  120MOL0     C15726   1.665   3.293   7.415 -0.8257 -1.2078  0.4841
  120MOL0     C15727   1.572   3.363   7.347 -0.0527 -0.0835  0.2197
  120MOL0     C15728   1.512   3.495   7.409 -1.3385  0.4246 -0.4834
  120MOL0     C15729   1.363   3.514   7.391 -0.5532 -0.7227  0.1656
  120MOL0     C15730   1.269   3.395   7.436 -0.4087 -0.6202  1.0568
  120MOL0     C15731   1.299   3.319   7.562  0.0470 -0.0690 -0.6634
  120MOL0     O15732   1.244   3.386   7.680 -0.0932  0.1375 -0.4571
  120MOL0     C15733   1.107   3.383   7.706  0.2456 -0.3441 -1.5036
  120MOL0     C15734   1.016   3.303   7.635  0.3968  0.2520 -0.5523
  120MOL0     C15735   0.893   3.284   7.684 -0.0459  0.2204 -0.8196
  120MOL0     C15736   0.854   3.330   7.808  0.6976  0.9151  0.5028
  120MOL0     C15737   0.711   3.303   7.851  0.0324  0.6132 -0.0300
  120MOL0     O15738   0.628   3.249   7.757 -0.6019 -0.5845 -0.2557
  120MOL0     C15739   0.492   3.233   7.760  0.4606 -0.4990  0.5418
  120MOL0     C15740   0.431   3.208   7.636  0.5435 -0.4426 -0.5027
  120MOL0     C15741   0.296   3.180   7.632  0.2364 -0.4161  0.0915
  120MOL0     C15742   0.217   3.173   7.754 -0.1407 -0.1729 -0.0405
  120MOL0     O15743   0.078   3.154   7.767  0.1104 -0.6767  0.2908
  120MOL0     C15744  -0.012   3.171   7.648 -0.3858  0.6490 -1.3491
  120MOL0     C15745  -0.158   3.176   7.689 -0.4968  0.2773 -0.6859
  120MOL0     C15746  -0.259   3.161   7.578  0.0607  1.5791 -0.4552
  120MOL0     C15747  -0.403   3.154   7.625  0.1655 -0.1295 -0.5408
  120MOL0     C15748  -0.506   3.163   7.501 -0.8130 -0.1843  0.4947
  120MOL0     C15749  -0.645   3.108   7.540  0.6650  0.2444 -0.0947
  120MOL0     C15750  -0.691   2.980   7.479 -0.4381 -0.4975 -0.8295
  120MOL0     C15751  -0.828   2.936   7.532  0.6176 -0.6118 -1.3002
  120MOL0    Cl15752  -0.803   2.928   7.715 -0.7710  0.2103  0.2967
  120MOL0     C15753   0.276   3.187   7.876 -0.0270  0.0765 -0.4552
  120MOL0     C15754   0.416   3.229   7.873 -0.1452 -0.9798 -0.8565
  120MOL0     O15755   0.683   3.343   7.957 -0.4880 -0.7919 -0.5152
  120MOL0     C15756   0.935   3.425   7.869 -0.6374 -0.5230  0.0665
  120MOL0     C15757   1.067   3.451   7.819 -0.0377  0.1492 -0.2173
  120MOL0     N15758   1.535   3.295   7.229 -0.4692  0.7877 -0.8610
  120MOL0     N15759   1.584   3.178   7.226 -0.8165 -0.2876 -0.3584
  120MOL0     C15760   1.951   3.174   6.432  0.1737  0.9714 -0.2895
  120MOL0     C15761   1.843   3.116   6.362  0.2347  0.3058 -0.9745
  120MOL0     C15762   1.402   2.941   6.313  0.2031 -0.2732  0.6146
  120MOL0     C15763   1.426   2.882   6.186  0.4921  0.0033  0.9002
  120MOL0     C15764   1.309   2.859   6.106 -0.1190  0.0952 -0.4073
  120MOL0     C15765   1.181   2.877   6.157 -0.1103  0.5445  0.1186
  120MOL0     O15766   1.067   2.840   6.096  0.2097  0.4238  0.9387
  120MOL0     C15767   1.071   2.776   5.965  0.0556 -0.8743 -0.4790
  120MOL0     C15768   0.932   2.736   5.933 -0.4878  0.0380 -0.9753
  120MOL0     C15769   0.862   2.655   6.044 -0.0803 -0.1728  0.2563
  120MOL0     C15770   0.717   2.668   6.040  0.0970 -0.1652  0.8824
  120MOL0     C15771   0.651   2.602   5.925 -0.1339  1.1397  1.3591
  120MOL0     C15772   0.583   2.538   5.851 -0.2912  0.2128  0.4965
  120MOL0     C15773   1.170   2.940   6.282 -0.2610 -0.4260  0.3212
  120MOL0     C15774   1.277   2.979   6.351 -0.9234 -0.1103  0.0501
  120MOL0     H15775   1.723   2.893   6.590  0.2967  0.2965  0.4718
  120MOL0     H15776   1.910   2.991   6.718 -2.6280 -0.9627  0.2966
  120MOL0     H15777   2.237   3.179   6.757  0.3615 -1.9029  1.6883
  120MOL0     H15778   2.127   3.040   6.750 -1.8721 -0.5928 -1.9624
  120MOL0     H15779   1.928   3.174   6.850 -0.6288  1.0901 -1.6738
  120MOL0     H15780   1.998   3.319   6.812 -5.0796 -0.4424  1.7156
  120MOL0     H15781   1.992   3.300   7.050  2.8553  2.6839  2.4303
  120MOL0     H15782   2.153   3.331   6.993 -1.7778  2.0646  0.6414
  120MOL0     H15783   2.083   3.037   7.014 -2.4142  0.8232  1.8641
  120MOL0     H15784   2.232   3.114   7.068 -0.8108 -3.2652  1.0878
  120MOL0     H15785   2.072   3.236   7.238 -0.0920 -0.7172  2.8348
  120MOL0     H15786   2.154   3.082   7.269 -0.7005 -0.0601  0.2576
  120MOL0     H15787   1.961   2.954   7.211 -3.0054 -0.2323  1.8259
  120MOL0     H15788   1.868   3.099   7.158 -2.3512 -1.0506 -0.1222
  120MOL0     H15789   1.943   3.011   7.439  0.3162  0.6447 -0.9734
  120MOL0     H15790   1.912   3.177   7.399 -1.8784  0.4598 -1.8513
  120MOL0     H15791   1.718   3.040   7.490 -1.6353  2.8399  0.1248
  120MOL0     H15792   1.720   2.960   7.328  0.3984  0.7250 -1.3421
  120MOL0     H15793   1.709   3.316   7.511 -0.5140  0.7486 -0.0674
  120MOL0     H15794   1.568   3.577   7.361  0.5890  0.3813  1.4978
  120MOL0     H15795   1.530   3.496   7.517 -0.6437  3.6247 -0.5229
  120MOL0     H15796   1.347   3.522   7.283  0.7636 -1.4995 -0.1090
  120MOL0     H15797   1.336   3.611   7.435  1.4518  0.6303 -1.3619
  120MOL0     H15798   1.167   3.435   7.432 -1.1298 -2.4222 -1.8268
  120MOL0     H15799   1.255   3.330   7.348  1.4290 -0.9294  0.9443
  120MOL0     H15800   1.405   3.297   7.570  0.3223  0.9369 -1.3605
  120MOL0     H15801   1.249   3.223   7.545  0.8767 -0.2250 -2.4465
  120MOL0     H15802   1.037   3.250   7.542 -1.3238 -2.2718  0.3894
  120MOL0     H15803   0.824   3.236   7.614  1.6578  1.0484 -3.1788
  120MOL0     H15804   0.479   3.220   7.540 -2.0767 -3.3810 -2.3977
  120MOL0     H15805   0.262   3.166   7.530  2.4686 -1.5249 -0.5406
  120MOL0     H15806   0.005   3.080   7.591 -0.6291 -1.1198  1.2299
  120MOL0     H15807   0.016   3.267   7.604  1.6074  1.1415  0.7814
  120MOL0     H15808  -0.161   3.272   7.741  0.1490  0.9371 -1.8409
  120MOL0     H15809  -0.184   3.093   7.756 -0.9122  2.1369  1.6208
  120MOL0     H15810  -0.240   3.065   7.530 -1.5422 -0.8717  3.3498
  120MOL0     H15811  -0.266   3.243   7.505  0.8013  0.6678 -1.5839
  120MOL0     H15812  -0.416   3.059   7.678  1.6765 -0.5738 -0.9180
  120MOL0     H15813  -0.422   3.235   7.696  0.5132 -1.4036  1.0746
  120MOL0     H15814  -0.466   3.112   7.413  1.8623  2.1370  0.2176
  120MOL0     H15815  -0.507   3.266   7.465  4.8712 -0.6759 -2.2206
  120MOL0     H15816  -0.712   3.183   7.500  0.8173 -0.1246 -1.0630
  120MOL0     H15817  -0.658   3.119   7.648  0.1142  0.7148 -0.2032
  120MOL0     H15818  -0.706   2.983   7.371 -1.2423  2.5132 -0.7212
  120MOL0     H15819  -0.620   2.905   7.513 -1.7253 -0.9521  1.0336
  120MOL0     H15820  -0.876   2.844   7.497 -1.2244 -0.6011  0.9068
  120MOL0     H15821  -0.894   3.019   7.506 -0.8255 -1.9942 -2.1980
  120MOL0     H15822   0.218   3.186   7.968 -2.2174 -1.1898 -1.7539
  120MOL0     H15823   0.472   3.255   7.962  2.0851 -1.9186 -1.9106
  120MOL0     H15824   0.917   3.470   7.966 -1.2938 -1.9571  0.6351
  120MOL0     H15825   1.145   3.512   7.864  1.6779 -0.8752 -1.6475
  120MOL0     H15826   2.009   3.245   6.374  0.3716  0.1355 -1.1248
  120MOL0     H15827   1.826   3.151   6.261 -1.3536  0.2077 -0.7673
  120MOL0     H15828   1.528   2.864   6.154 -0.1277 -2.4573  0.1059
  120MOL0     H15829   1.323   2.807   6.011 -0.2038  1.9802 -1.5199
  120MOL0     H15830   1.134   2.687   5.963  1.6022  0.0958 -4.0107
  120MOL0     H15831   1.109   2.847   5.890  2.4002 -1.3163  0.1833
  120MOL0     H15832   0.865   2.822   5.925 -0.4757  0.4368  2.0649
  120MOL0     H15833   0.946   2.683   5.839 -0.3541 -1.4988 -0.1254
  120MOL0     H15834   0.898   2.659   6.147 -1.8372  1.4214  0.8623
  120MOL0     H15835   0.885   2.558   5.999  0.2450  0.8605 -1.9620
  120MOL0     H15836   0.680   2.629   6.136 -0.5126 -0.2135  0.6341
  120MOL0     H15837   0.694   2.774   6.033 -3.4915 -0.8690 -0.2216
  120MOL0     H15838   0.526   2.476   5.784  1.1018  0.5705 -1.0915
  120MOL0     H15839   1.067   2.955   6.312 -1.2091 -3.8836 -0.7082
  120MOL0     H15840   1.271   3.029   6.447 -1.4161  0.3957 -0.2438
  121MOL0     O15841  10.328  10.668   9.907  0.5736  0.3905  0.8028
  121MOL0     C15842  10.346  10.756   9.825 -0.3098  0.3170 -0.0800
  121MOL0     O15843  10.250  10.833   9.776  0.6244  0.1290  0.2015
  121MOL0     C15844  10.117  10.818   9.810  0.9906 -0.9884  0.2389
  121MOL0     C15845  10.022  10.867   9.710  0.3558  0.6500  0.9524
  121MOL0     C15846   9.883  10.853   9.728  0.7904 -0.2070 -0.0908
  121MOL0     C15847   9.835  10.813   9.851 -0.4110  0.1518 -0.2642
  121MOL0     O15848   9.700  10.806   9.885 -0.4463  0.8508 -0.5987
  121MOL0     C15849   9.631  10.704   9.815 -0.0768  0.4018  0.3282
  121MOL0     C15850   9.496  10.766   9.786  0.9204 -0.1879 -0.4260
  121MOL0     C15851   9.398  10.719   9.890  0.0698  0.0079 -0.4038
  121MOL0     C15852   9.428  10.756  10.032  0.6491  0.1829  0.0005
  121MOL0     C15853   9.431  10.915  10.069 -0.4396  0.0316 -0.1210
  121MOL0     C15854   9.509  10.944  10.195  0.1045  0.0568  0.2059
  121MOL0     C15855   9.517  11.092  10.228 -0.4466  0.5864  0.6309
  121MOL0     C15856   9.615  11.111  10.350  0.6660 -0.4518  0.4391
  121MOL0     N15857   9.756  11.117  10.322  0.2895 -0.0869 -0.1844
  121MOL0     C15858   9.821  11.234  10.315  0.1658 -0.4606  0.1816
  121MOL0     C15859   9.948  11.207  10.280  0.3244 -0.1895 -0.1930
  121MOL0     C15860  10.071  11.291  10.265 -0.4802 -0.3404 -0.3509
  121MOL0     C15861  10.113  11.368  10.394  1.0860 -0.2450 -0.0324
  121MOL0     C15862  10.218  11.475  10.374  0.6323  0.4946 -0.1480
  121MOL0     C15863  10.269  11.531  10.508  0.4214  0.4472 -0.0891
  121MOL0     O15864  10.357  11.444  10.584 -0.7947 -1.0196  0.9049
  121MOL0     C15865  10.482  11.425  10.532 -1.2981 -0.4931  0.9365
  121MOL0     C15866  10.551  11.508  10.453  0.0970 -0.3110  0.9762
  121MOL0     C15867  10.681  11.479  10.429 -0.2201 -1.0696  0.9732
  121MOL0     C15868  10.749  11.367  10.483  0.1259 -0.3729 -0.4509
  121MOL0     C15869  10.898  11.360  10.489  0.5178  0.3178 -0.1463
  121MOL0     O15870  10.965  11.474  10.438 -0.5309  0.4180 -0.3023
  121MOL0     C15871  11.101  11.483  10.454 -0.0225  0.0913  0.6725
  121MOL0     C15872  11.181  11.424  10.550  0.8854  0.5437 -0.0779
  121MOL0     C15873  11.316  11.422  10.545 -0.8346 -0.1756  0.0572
  121MOL0     C15874  11.382  11.508  10.457  0.2110  0.1196 -0.1122
  121MOL0     O15875  11.513  11.520  10.474  0.6305  0.9185  0.0331
  121MOL0     C15876  11.601  11.541  10.362 -0.0612 -0.5763  0.4440
  121MOL0     C15877  11.645  11.682  10.370  0.1050  0.1114 -0.1123
  121MOL0     C15878  11.741  11.731  10.264  0.4831 -0.4275  0.2575
  121MOL0     C15879  11.842  11.630  10.206  0.3751 -1.5599 -0.1659
  121MOL0     C15880  11.953  11.704  10.133 -0.4475  0.0437  0.1830
  121MOL0     C15881  12.051  11.589  10.091  0.1116 -0.1885  0.2359
  121MOL0     C15882  12.169  11.623  10.012 -0.0320  0.3229  0.5546
  121MOL0     C15883  12.289  11.528  10.017  0.1664 -0.2293 -0.2608
  121MOL0    Cl15884  12.454  11.606   9.998  0.6208  0.2348  0.3009
  121MOL0     C15885  11.302  11.572  10.355  0.0503 -0.1293  0.0497
  121MOL0     C15886  11.171  11.564  10.350  0.7907  0.4004  0.7522
  121MOL0     O15887  10.946  11.254  10.520  0.4038  0.0197  0.4109
  121MOL0     C15888  10.677  11.270  10.553 -0.0312 -0.6768 -0.1139
  121MOL0     C15889  10.543  11.307  10.573  1.1160  0.4624  0.0773
  121MOL0     N15890   9.955  11.065  10.275 -0.7132  0.1305 -0.9507
  121MOL0     N15891   9.837  11.014  10.291  0.5950  0.2925 -0.1147
  121MOL0     C15892   9.929  10.783   9.957  0.0638 -0.0774  1.1791
  121MOL0     C15893  10.065  10.795   9.935  0.4193  0.4473 -0.8707
  121MOL0     C15894  10.479  10.792   9.772 -0.3388 -0.7890 -0.0384
  121MOL0     C15895  10.498  10.904   9.678  0.7904  0.4577 -0.1587
  121MOL0     C15896  10.626  10.949   9.648  0.5558 -0.5722  0.1715
  121MOL0     C15897  10.735  10.901   9.722  0.0391 -0.2632 -0.2504
  121MOL0     O15898  10.852  10.965   9.704 -0.1491  0.0071 -0.0877
  121MOL0     C15899  10.969  10.884   9.708 -0.5151  0.5442 -0.5209
  121MOL0     C15900  11.051  10.926   9.843  0.2182 -1.2236  0.8368
  121MOL0     C15901  11.198  10.951   9.818  0.5218 -0.2603  0.3336
  121MOL0     C15902  11.270  10.951   9.954 -0.2188 -0.0233  0.3794
  121MOL0     C15903  11.407  10.938   9.923 -0.6878 -0.5238  0.4536
  121MOL0     C15904  11.530  10.908   9.915 -0.0600  0.1541 -1.2514
  121MOL0     C15905  10.730  10.792   9.807 -0.3108 -0.1851 -0.7576
  121MOL0     C15906  10.599  10.743   9.832  0.0412 -1.2299 -0.6434
  121MOL0     H15907  10.061  10.890   9.611 -3.1586  0.5658 -0.5814
  121MOL0     H15908   9.815  10.881   9.648  1.7820  1.0314 -0.5402
  121MOL0     H15909   9.620  10.622   9.887 -1.6483  0.8091  0.6035
  121MOL0     H15910   9.690  10.671   9.729  0.7762  0.2770  0.9478
  121MOL0     H15911   9.464  10.727   9.689 -2.0705 -0.2926  0.5201
  121MOL0     H15912   9.507  10.874   9.775  2.5765 -0.2683  0.0468
  121MOL0     H15913   9.379  10.612   9.902 -3.7994  0.8128  3.3073
  121MOL0     H15914   9.303  10.762   9.855  0.8619  0.4348 -2.1440
  121MOL0     H15915   9.354  10.713  10.100  0.1235  1.5493  0.3302
  121MOL0     H15916   9.523  10.715  10.068 -0.9840 -1.4372  2.8656
  121MOL0     H15917   9.329  10.953  10.069 -1.2156 -1.9028  0.6205
  121MOL0     H15918   9.489  10.966   9.992 -0.8797 -0.7930 -1.0278
  121MOL0     H15919   9.607  10.899  10.174  0.8641  1.5084  0.5352
  121MOL0     H15920   9.473  10.895  10.285 -0.2357 -0.1221 -0.0238
  121MOL0     H15921   9.558  11.151  10.146 -0.6164  3.1864  2.3026
  121MOL0     H15922   9.419  11.130  10.259 -0.5049 -0.0329  1.2460
  121MOL0     H15923   9.595  11.032  10.422 -1.6415  1.0434  1.5509
  121MOL0     H15924   9.584  11.203  10.401 -0.9981 -0.0582 -1.1791
  121MOL0     H15925   9.786  11.332  10.348 -0.8363 -1.6282  2.8859
  121MOL0     H15926  10.066  11.361  10.181 -2.0442  0.4639  0.3725
  121MOL0     H15927  10.153  11.227  10.232 -1.0379  0.5252 -3.7853
  121MOL0     H15928  10.160  11.292  10.458 -0.7913 -0.6469  0.9171
  121MOL0     H15929  10.020  11.402  10.441  0.4530 -3.8078  1.6291
  121MOL0     H15930  10.293  11.422  10.314 -2.1129 -5.1249  0.7486
  121MOL0     H15931  10.176  11.555  10.312  3.8508  1.0676 -1.8114
  121MOL0     H15932  10.186  11.551  10.577 -1.1484  0.7457 -1.9920
  121MOL0     H15933  10.330  11.620  10.494  1.4559 -0.0533  1.0218
  121MOL0     H15934  10.514  11.602  10.415  0.1492 -2.0058 -3.9893
  121MOL0     H15935  10.744  11.554  10.383 -1.9627 -0.5028 -0.6087
  121MOL0     H15936  11.126  11.372  10.627 -1.1650 -0.8119 -2.2981
  121MOL0     H15937  11.369  11.369  10.623 -2.1957  0.2634  1.3225
  121MOL0     H15938  11.555  11.504  10.270 -0.3461  0.0269  0.3365
  121MOL0     H15939  11.692  11.482  10.377 -0.9560 -2.2186 -0.2628
  121MOL0     H15940  11.688  11.692  10.470  2.6404 -0.3243 -1.0826
  121MOL0     H15941  11.552  11.740  10.365  0.9706  1.4434 -4.0016
  121MOL0     H15942  11.794  11.818  10.304 -2.2731  1.4585  0.0757
  121MOL0     H15943  11.675  11.756  10.180  1.0494 -0.5929 -0.2394
  121MOL0     H15944  11.890  11.584  10.293  1.2308  0.2392  0.3649
  121MOL0     H15945  11.795  11.558  10.139 -0.6996  0.5844 -1.8475
  121MOL0     H15946  11.999  11.779  10.198 -0.0250  1.3760 -1.5672
  121MOL0     H15947  11.907  11.752  10.046  0.6392 -3.2103 -2.3909
  121MOL0     H15948  12.006  11.509  10.031  4.5278 -0.0108 -3.9575
  121MOL0     H15949  12.094  11.535  10.176  2.2714  1.2083  0.1137
  121MOL0     H15950  12.151  11.633   9.904  5.1561  0.5476 -0.5554
  121MOL0     H15951  12.208  11.717  10.051 -0.0482  0.3697  0.4575
  121MOL0     H15952  12.283  11.444   9.948 -2.1179 -0.6061  0.3135
  121MOL0     H15953  12.293  11.475  10.112 -1.4987 -0.6563 -0.3940
  121MOL0     H15954  11.346  11.634  10.277 -3.5728  1.4956 -0.9348
  121MOL0     H15955  11.113  11.610  10.271  0.1163 -1.8022 -0.1202
  121MOL0     H15956  10.707  11.185  10.613  0.7127  0.7329  1.5864
  121MOL0     H15957  10.484  11.244  10.638  0.4288  3.9095  3.1447
  121MOL0     H15958   9.881  10.762  10.052  0.1322 -3.4608  0.5683
  121MOL0     H15959  10.132  10.770  10.017  0.8650  0.7878 -1.1279
  121MOL0     H15960  10.413  10.960   9.639  2.1281  0.9268 -2.5802
  121MOL0     H15961  10.638  11.038   9.587  1.9597 -0.3443  0.7484
  121MOL0     H15962  11.030  10.906   9.620  1.7586  0.5116  0.9598
  121MOL0     H15963  10.951  10.776   9.704  0.7411  0.3491 -2.0824
  121MOL0     H15964  11.007  11.017   9.885  0.0143  0.7014 -3.0054
  121MOL0     H15965  11.038  10.846   9.916 -1.0558 -2.0427 -0.2404
  121MOL0     H15966  11.217  11.045   9.767 -0.3696 -0.6787 -0.8141
  121MOL0     H15967  11.238  10.867   9.761 -0.3521 -0.3767 -0.1279
  121MOL0     H15968  11.248  11.037  10.019  1.0333  0.1654  0.5849
  121MOL0     H15969  11.254  10.856  10.006  1.8724 -1.8865 -2.1046
  121MOL0     H15970  11.631  10.895   9.948 -0.6484  1.6134  1.4248
  121MOL0     H15971  10.816  10.761   9.864 -1.8931 -0.1619  1.7695
  121MOL0     H15972  10.591  10.675   9.916 -0.6718 -0.6677 -0.2417
  122MOL0     O15973   0.478   3.934   5.894  0.4347  0.9359 -0.2861
  122MOL0     C15974   0.526   3.827   5.867  0.0149  0.5127  0.0861
  122MOL0     O15975   0.460   3.712   5.817 -1.0255  0.0225  0.8348
  122MOL0     C15976   0.326   3.708   5.803 -0.0082 -0.0341 -0.3772
  122MOL0     C15977   0.226   3.812   5.823 -0.3357 -0.0951 -0.2912
  122MOL0     C15978   0.083   3.788   5.842 -0.0439 -0.4522  0.2900
  122MOL0     C15979   0.036   3.656   5.843 -0.1871 -0.5671 -0.0402
  122MOL0     O15980  -0.096   3.615   5.872  0.1627 -0.0745 -0.2370
  122MOL0     C15981  -0.163   3.667   5.988  0.1720  0.8153  0.1053
  122MOL0     C15982  -0.288   3.590   6.027 -0.4410  0.1725 -0.3068
  122MOL0     C15983  -0.389   3.682   6.089 -0.2016 -0.6802  0.5242
  122MOL0     C15984  -0.497   3.611   6.156  0.0329 -0.4395 -0.6228
  122MOL0     C15985  -0.607   3.714   6.190 -0.5184 -0.2790 -0.2586
  122MOL0     C15986  -0.681   3.661   6.310  0.0001  0.3276 -0.1445
  122MOL0     C15987  -0.802   3.752   6.338  0.3285 -0.5854 -0.0912
  122MOL0     C15988  -0.899   3.703   6.446  0.0814  0.8179 -0.0820
  122MOL0     N15989  -0.941   3.560   6.437 -0.4978  1.1884  0.8514
  122MOL0     C15990  -0.931   3.457   6.531 -0.8124 -0.2277 -0.0347
  122MOL0     C15991  -0.968   3.351   6.466 -0.3060  0.8921 -0.4803
  122MOL0     C15992  -0.964   3.210   6.518 -0.0989 -0.7964 -0.3415
  122MOL0     C15993  -1.090   3.157   6.608  0.4074  0.5420 -0.3970
  122MOL0     C15994  -1.232   3.172   6.546 -0.3858 -0.5428 -0.6007
  122MOL0     C15995  -1.250   3.105   6.408 -0.0235 -0.1617 -0.0759
  122MOL0     O15996  -1.381   3.141   6.366 -0.1012  0.0040 -0.0997
  122MOL0     C15997  -1.486   3.069   6.421 -0.0939  0.8068  0.6482
  122MOL0     C15998  -1.472   2.938   6.471 -0.5381  0.0568 -0.3036
  122MOL0     C15999  -1.579   2.849   6.503 -0.1417  0.5249  0.1036
  122MOL0     C16000  -1.714   2.882   6.465 -0.9469 -0.0398 -0.0028
  122MOL0     C16001  -1.828   2.791   6.492 -0.4672  0.3197 -0.2302
  122MOL0     O16002  -1.954   2.853   6.496 -0.7634 -0.6485 -0.1262
  122MOL0     C16003  -2.060   2.785   6.560  0.4920  0.1193  0.4739
  122MOL0     C16004  -2.050   2.732   6.685 -0.1275  0.8985  0.3011
  122MOL0     C16005  -2.152   2.667   6.745 -0.1201  0.5270  0.1960
  122MOL0     C16006  -2.275   2.665   6.683 -0.0491  0.7915  0.5992
  122MOL0     O16007  -2.393   2.609   6.740 -0.8224 -0.5432 -0.0295
  122MOL0     C16008  -2.372   2.482   6.804  0.4505 -0.0952 -0.7471
  122MOL0     C16009  -2.504   2.409   6.828 -0.5171 -0.1670 -1.0753
  122MOL0     C16010  -2.576   2.381   6.697 -0.5176 -0.0809 -0.3085
  122MOL0     C16011  -2.710   2.313   6.712  0.4656 -0.6231  0.5579
  122MOL0     C16012  -2.695   2.178   6.773  0.6215  0.4691 -0.5707
  122MOL0     C16013  -2.827   2.110   6.792  1.1730  1.3252  0.4237
  122MOL0     C16014  -2.812   1.958   6.766  0.7574  0.3103 -0.2363
  122MOL0     C16015  -2.941   1.874   6.803  0.2213 -0.1317 -0.5073
  122MOL0    Cl16016  -3.066   1.862   6.670 -0.5384  0.3746 -0.1060
  122MOL0     C16017  -2.290   2.725   6.553  0.2900 -0.7050  0.2999
  122MOL0     C16018  -2.182   2.784   6.500  0.1873  0.0481  0.1040
  122MOL0     O16019  -1.804   2.669   6.502 -0.6139  0.2904  0.2099
  122MOL0     C16020  -1.733   3.007   6.403 -0.2539  0.5122 -0.2123
  122MOL0     C16021  -1.616   3.096   6.382  1.2042  0.7861  0.6304
  122MOL0     N16022  -0.993   3.369   6.336 -0.7913  0.5486  0.5088
  122MOL0     N16023  -0.978   3.498   6.312 -0.4400 -0.3057  0.1248
  122MOL0     C16024   0.134   3.557   5.803 -0.1020  0.1043  0.4497
  122MOL0     C16025   0.271   3.575   5.791 -0.1748 -0.6083  0.1152
  122MOL0     C16026   0.672   3.804   5.884 -0.2949 -0.8344  1.1331
  122MOL0     C16027   0.757   3.905   5.928 -0.0410  0.9397  0.1435
  122MOL0     C16028   0.884   3.894   5.978  0.1044  0.0150  1.0308
  122MOL0     C16029   0.933   3.762   5.990  0.2531 -0.3092 -0.4224
  122MOL0     O16030   1.055   3.729   6.044  0.2774 -0.2634 -0.5425
  122MOL0     C16031   1.122   3.835   6.111 -0.2318  0.2041 -0.6271
  122MOL0     C16032   1.235   3.781   6.194 -0.2339 -0.0793 -0.6585
  122MOL0     C16033   1.272   3.852   6.320 -0.6922 -0.0416 -0.2366
  122MOL0     C16034   1.404   3.806   6.386 -0.5602 -0.3657  0.1416
  122MOL0     C16035   1.371   3.748   6.516 -0.1128 -0.6272  0.1934
  122MOL0     C16036   1.353   3.693   6.618 -0.4016  0.9385 -0.4461
  122MOL0     C16037   0.857   3.655   5.940 -0.7512  0.2364 -0.2063
  122MOL0     C16038   0.730   3.673   5.887  0.6348  0.7658  0.4864
  122MOL0     H16039   0.265   3.912   5.841  0.1023 -0.6320  2.1551
  122MOL0     H16040   0.020   3.873   5.865 -1.6402 -1.4495 -0.1788
  122MOL0     H16041  -0.179   3.775   5.982  0.7165  0.8859 -0.1257
  122MOL0     H16042  -0.084   3.661   6.062 -0.8089  2.4309  1.3380
  122MOL0     H16043  -0.274   3.504   6.093  3.0191 -0.2906 -1.4585
  122MOL0     H16044  -0.334   3.559   5.933 -1.1689 -1.5437  0.5758
  122MOL0     H16045  -0.428   3.746   6.009 -0.9102 -2.4635 -0.6220
  122MOL0     H16046  -0.336   3.735   6.168  2.6424  0.1093 -1.7572
  122MOL0     H16047  -0.537   3.530   6.094 -3.6279  1.2490 -0.7039
  122MOL0     H16048  -0.454   3.561   6.244 -1.1827 -0.2272  0.1124
  122MOL0     H16049  -0.678   3.727   6.108 -1.3047 -0.7585  0.3291
  122MOL0     H16050  -0.550   3.805   6.208 -1.3557  0.3903 -0.8988
  122MOL0     H16051  -0.622   3.657   6.402  0.0674 -0.0509 -0.2014
  122MOL0     H16052  -0.712   3.558   6.294  0.7919  0.2397 -1.2600
  122MOL0     H16053  -0.774   3.850   6.377 -2.0693  0.6569 -1.2595
  122MOL0     H16054  -0.859   3.765   6.246 -0.3762 -2.5839  0.0033
  122MOL0     H16055  -0.987   3.765   6.459  0.7742  1.4652  1.8424
  122MOL0     H16056  -0.845   3.708   6.541  1.3556 -1.8590 -0.5632
  122MOL0     H16057  -0.912   3.471   6.637  0.8732 -0.5174 -0.2619
  122MOL0     H16058  -0.878   3.210   6.585 -0.2594  0.6079 -0.1069
  122MOL0     H16059  -0.952   3.142   6.433  0.4398  0.0915 -0.9980
  122MOL0     H16060  -1.086   3.204   6.707  1.2064  0.3416 -0.3293
  122MOL0     H16061  -1.070   3.050   6.622 -2.3005  0.0232  0.0540
  122MOL0     H16062  -1.289   3.127   6.627 -1.3990  0.3848 -0.7760
  122MOL0     H16063  -1.261   3.277   6.543 -1.2886 -0.7782 -0.5559
  122MOL0     H16064  -1.231   2.997   6.416  0.8193 -0.0521 -0.5136
  122MOL0     H16065  -1.166   3.146   6.352 -0.1277  3.2507  1.9919
  122MOL0     H16066  -1.376   2.896   6.500 -1.1919 -2.5680 -1.6113
  122MOL0     H16067  -1.563   2.756   6.558 -2.0856 -0.5113 -0.9725
  122MOL0     H16068  -1.953   2.741   6.732  0.0663 -0.5440  0.2154
  122MOL0     H16069  -2.129   2.623   6.842  2.0539  1.1487 -0.0051
  122MOL0     H16070  -2.326   2.493   6.903 -0.3084 -1.1152 -0.2670
  122MOL0     H16071  -2.309   2.418   6.742  1.8480  3.0917 -2.8455
  122MOL0     H16072  -2.569   2.474   6.886 -0.5754  1.2079 -2.5922
  122MOL0     H16073  -2.486   2.319   6.888  0.5493  2.5548  3.0940
  122MOL0     H16074  -2.508   2.321   6.636  0.1395  0.0469  0.2815
  122MOL0     H16075  -2.589   2.471   6.636 -1.1932 -0.0536 -0.1267
  122MOL0     H16076  -2.771   2.380   6.773  1.0976  2.5558 -2.0430
  122MOL0     H16077  -2.757   2.318   6.614  1.5892 -1.4964 -0.0471
  122MOL0     H16078  -2.655   2.191   6.874 -0.3441  0.2697 -0.1575
  122MOL0     H16079  -2.635   2.118   6.704  1.0031  1.9034 -1.5150
  122MOL0     H16080  -2.898   2.148   6.717 -0.4650 -1.2274  0.5597
  122MOL0     H16081  -2.873   2.116   6.891  2.0216  2.2689  0.7814
  122MOL0     H16082  -2.788   1.952   6.660  2.4429  1.4668  0.0440
  122MOL0     H16083  -2.735   1.917   6.832 -0.1316  0.8722  1.1949
  122MOL0     H16084  -2.996   1.908   6.891  3.9123  3.0444  0.8548
  122MOL0     H16085  -2.904   1.773   6.820 -0.4170 -0.6075 -1.7619
  122MOL0     H16086  -2.388   2.725   6.506  1.0756 -1.4596 -1.4023
  122MOL0     H16087  -2.207   2.831   6.405  0.2760 -1.0575 -0.4846
  122MOL0     H16088  -1.830   3.045   6.371 -0.4821  1.5380  1.5422
  122MOL0     H16089  -1.633   3.188   6.327 -1.9362 -1.0611 -1.8781
  122MOL0     H16090   0.097   3.456   5.815  0.1000  0.1284  1.4382
  122MOL0     H16091   0.341   3.493   5.779 -0.4126 -0.9169  0.7827
  122MOL0     H16092   0.727   4.009   5.916  4.3655  2.3962 -0.1522
  122MOL0     H16093   0.951   3.978   5.995 -1.1108  1.6219 -1.5070
  122MOL0     H16094   1.061   3.888   6.184 -0.4219  0.6724 -1.1232
  122MOL0     H16095   1.157   3.902   6.033 -0.9998  0.4355 -0.7787
  122MOL0     H16096   1.214   3.677   6.222  1.9120 -0.3987 -0.0650
  122MOL0     H16097   1.320   3.770   6.126 -1.3632  0.3586 -2.1985
  122MOL0     H16098   1.186   3.840   6.386 -2.0790 -4.1364 -2.4263
  122MOL0     H16099   1.281   3.959   6.299  0.1402 -0.4017 -1.8993
  122MOL0     H16100   1.459   3.735   6.324  1.2937  1.7102 -0.7409
  122MOL0     H16101   1.468   3.895   6.395 -1.0931  0.4040 -2.7222
  122MOL0     H16102   1.335   3.647   6.714  1.1579 -1.3174 -1.1604
  122MOL0     H16103   0.893   3.554   5.928 -1.3074 -0.1413  1.0916
  122MOL0     H16104   0.679   3.590   5.839 -1.6001  1.6077  1.2894
  123MOL0     O16105  10.746  10.723   8.694  0.3041 -0.1236  0.3891
  123MOL0     C16106  10.770  10.793   8.789  0.2687  0.5062  0.6009
  123MOL0     O16107  10.687  10.819   8.890 -0.1274  0.0087  0.6970
  123MOL0     C16108  10.545  10.812   8.881 -0.4860  0.9461 -0.6318
  123MOL0     C16109  10.481  10.832   8.761  0.9145  0.1089  0.2435
  123MOL0     C16110  10.342  10.839   8.751 -0.3114  0.7482  0.8285
  123MOL0     C16111  10.265  10.840   8.871  0.3777  0.1316  0.3103
  123MOL0     O16112  10.126  10.841   8.867  0.4960  0.5103  0.7623
  123MOL0     C16113  10.059  10.784   8.759  0.4087 -0.3977 -0.1745
  123MOL0     C16114   9.919  10.813   8.774 -0.0582  0.1703 -1.3545
  123MOL0     C16115   9.852  10.706   8.861 -0.3177  0.9070  0.3556
  123MOL0     C16116   9.706  10.739   8.887  0.0130  0.8424  0.0825
  123MOL0     C16117   9.646  10.625   8.971  0.0969  0.1526 -0.3605
  123MOL0     C16118   9.493  10.644   9.000 -0.9218  0.5612 -0.0948
  123MOL0     C16119   9.440  10.513   9.060  0.0368 -0.4641 -1.2976
  123MOL0     C16120   9.291  10.528   9.086 -0.5120 -0.2437  0.6279
  123MOL0     N16121   9.253  10.393   9.143  0.4587  0.2071  0.7981
  123MOL0     C16122   9.239  10.274   9.078  0.6319 -0.2800 -0.6236
  123MOL0     C16123   9.182  10.188   9.165  0.6115  0.2217  0.1616
  123MOL0     C16124   9.130  10.054   9.146 -0.0797 -0.0536  0.2147
  123MOL0     C16125   9.235   9.951   9.171 -0.6859  0.1384  0.4436
  123MOL0     C16126   9.356   9.983   9.073 -0.7466 -0.3681 -0.8221
  123MOL0     C16127   9.454   9.858   9.056  0.3076  0.4013 -0.6629
  123MOL0     O16128   9.503   9.857   8.919  0.4097 -0.0160 -0.0093
  123MOL0     C16129   9.454   9.785   8.813 -0.2678 -0.3339  0.7827
  123MOL0     C16130   9.323   9.737   8.808  1.3931  0.2187 -0.1579
  123MOL0     C16131   9.287   9.658   8.703  0.7017 -0.2537  0.8495
  123MOL0     C16132   9.376   9.620   8.601  0.2087  0.7909 -1.1056
  123MOL0     C16133   9.323   9.525   8.500 -0.5290  0.0402  0.2316
  123MOL0     O16134   9.199   9.481   8.518 -0.0642 -0.1965  0.3652
  123MOL0     C16135   9.122   9.424   8.418 -0.9656  0.1959  0.7644
  123MOL0     C16136   9.022   9.334   8.454  0.1390  0.0178 -0.8025
  123MOL0     C16137   8.939   9.280   8.360 -1.1072  0.7026 -0.2271
  123MOL0     C16138   8.959   9.310   8.224  0.0883  0.2718 -2.1159
  123MOL0     O16139   8.869   9.284   8.134 -0.2367  0.1665 -0.7111
  123MOL0     C16140   8.729   9.285   8.167  0.1298 -0.7882 -0.2770
  123MOL0     C16141   8.639   9.277   8.045  0.3727  0.2840 -0.5532
  123MOL0     C16142   8.493   9.298   8.084 -0.2709  0.2566  0.3481
  123MOL0     C16143   8.403   9.312   7.961 -0.3853  0.8400  0.1755
  123MOL0     C16144   8.261   9.322   8.012 -0.7526  0.8017 -0.1178
  123MOL0     C16145   8.151   9.384   7.916  0.6436  0.7747 -1.1350
  123MOL0     C16146   8.142   9.282   7.797  0.0802 -1.1292  0.4195
  123MOL0     C16147   8.016   9.318   7.715  0.9750 -0.9119 -0.0886
  123MOL0    Cl16148   7.857   9.268   7.787 -0.1769 -0.0551 -0.0753
  123MOL0     C16149   9.070   9.382   8.185 -0.0128  0.0428  0.9060
  123MOL0     C16150   9.153   9.444   8.276  1.3041  0.3703 -0.8152
  123MOL0     O16151   9.397   9.502   8.412 -0.3754 -0.4392  0.3241
  123MOL0     C16152   9.499   9.670   8.604  0.6270  0.4663 -0.1995
  123MOL0     C16153   9.537   9.758   8.706 -0.4634  0.4906 -0.2736
  123MOL0     N16154   9.173  10.256   9.284  0.8008 -0.2158  0.3405
  123MOL0     N16155   9.210  10.379   9.263  0.2101 -0.7138 -0.0779
  123MOL0     C16156  10.325  10.817   9.001  1.2944 -0.1328  0.3383
  123MOL0     C16157  10.461  10.803   8.997  0.0504 -0.3353  0.3294
  123MOL0     C16158  10.906  10.839   8.805 -0.3091 -0.7714  0.2262
  123MOL0     C16159  11.007  10.836   8.704 -0.5888 -0.2921  0.1612
  123MOL0     C16160  11.138  10.882   8.737  0.3213  0.4053  0.3461
  123MOL0     C16161  11.169  10.941   8.856 -1.0853 -0.9474 -0.2948
  123MOL0     O16162  11.298  10.978   8.871 -0.2990 -0.1445  0.0185
  123MOL0     C16163  11.361  10.961   8.999  0.6122  1.1585 -0.1965
  123MOL0     C16164  11.375  11.093   9.068 -0.3920 -0.9939 -1.0154
  123MOL0     C16165  11.481  11.089   9.170 -0.0397 -0.1230  0.3939
  123MOL0     C16166  11.499  11.210   9.252  0.0673 -0.8499 -0.4217
  123MOL0     C16167  11.587  11.308   9.188  0.5279  0.7448  0.4344
  123MOL0     C16168  11.653  11.399   9.143  0.5550 -0.3061 -0.2967
  123MOL0     C16169  11.074  10.947   8.954  0.4148 -0.0931  0.0727
  123MOL0     C16170  10.948  10.887   8.940 -0.1754 -0.3543  0.5070
  123MOL0     H16171  10.542  10.833   8.671  1.4874 -2.7331  0.4802
  123MOL0     H16172  10.295  10.839   8.653  4.3726 -2.1166 -1.8262
  123MOL0     H16173  10.073  10.676   8.755 -0.7297 -0.5293 -1.1332
  123MOL0     H16174  10.089  10.834   8.666 -1.5069  1.4755  0.1322
  123MOL0     H16175   9.872  10.807   8.675  1.8022  2.5007 -2.4731
  123MOL0     H16176   9.893  10.911   8.816  1.5965  0.4569 -0.9278
  123MOL0     H16177   9.905  10.688   8.956  0.4066  2.0109  0.1869
  123MOL0     H16178   9.841  10.615   8.802  0.7409  0.2078  1.1819
  123MOL0     H16179   9.699  10.839   8.930  0.1179  0.1700  1.7520
  123MOL0     H16180   9.657  10.751   8.791 -0.2964 -1.4563 -0.1030
  123MOL0     H16181   9.704  10.632   9.064 -1.3052  0.6354  0.4999
  123MOL0     H16182   9.659  10.526   8.925 -0.1669 -0.9665  1.8220
  123MOL0     H16183   9.438  10.683   8.914  0.1399  0.6013 -0.7797
  123MOL0     H16184   9.481  10.723   9.075 -0.7812 -1.3529  2.0884
  123MOL0     H16185   9.455  10.430   8.990  1.6604  0.5170 -2.1970
  123MOL0     H16186   9.493  10.477   9.148 -0.3500  2.4982  0.2565
  123MOL0     H16187   9.230  10.549   8.997 -0.3661  3.5311  1.2685
  123MOL0     H16188   9.271  10.599   9.166  0.5915  0.1838  0.5405
  123MOL0     H16189   9.260  10.254   8.973 -0.8861 -1.1895 -0.7892
  123MOL0     H16190   9.097  10.040   9.042 -2.8344  2.9557  0.4978
  123MOL0     H16191   9.035  10.036   9.198  0.3609 -2.0421  0.3980
  123MOL0     H16192   9.202   9.848   9.154  0.9751 -0.4594  0.6612
  123MOL0     H16193   9.266   9.968   9.275  1.9552  4.1497 -0.7915
  123MOL0     H16194   9.316  10.031   8.983 -1.5715  2.1399  0.7885
  123MOL0     H16195   9.417  10.053   9.131 -0.3999 -2.2225  1.2163
  123MOL0     H16196   9.401   9.762   9.060  1.1664 -0.0489  1.8810
  123MOL0     H16197   9.523   9.857   9.141 -0.4050 -1.4792 -0.0427
  123MOL0     H16198   9.257   9.746   8.893  1.2769 -1.5458 -0.0175
  123MOL0     H16199   9.184   9.625   8.694  1.4631 -2.2739 -2.5810
  123MOL0     H16200   9.016   9.306   8.559  1.3876 -1.1580 -1.0157
  123MOL0     H16201   8.862   9.216   8.402  0.1097 -0.4689  0.2940
  123MOL0     H16202   8.716   9.380   8.219  4.2666  0.6883 -1.5345
  123MOL0     H16203   8.707   9.200   8.233  3.1206 -0.4143  1.4014
  123MOL0     H16204   8.653   9.177   8.004  2.3249  1.0337 -1.8887
  123MOL0     H16205   8.682   9.351   7.976  2.9101 -0.8362 -0.3080
  123MOL0     H16206   8.487   9.392   8.139 -3.6196  0.3560 -0.0061
  123MOL0     H16207   8.462   9.211   8.143  0.0550 -1.0197 -1.2800
  123MOL0     H16208   8.443   9.396   7.903  0.0276  0.0779 -0.6749
  123MOL0     H16209   8.425   9.225   7.898 -0.6051 -0.8579  2.3383
  123MOL0     H16210   8.262   9.391   8.097 -2.4565  4.7493 -2.9819
  123MOL0     H16211   8.218   9.234   8.062  1.4836 -1.2754 -1.6352
  123MOL0     H16212   8.177   9.483   7.877  0.6516  0.1978 -2.6862
  123MOL0     H16213   8.062   9.396   7.977  1.1598  0.1631 -0.2362
  123MOL0     H16214   8.229   9.287   7.731  0.5004 -1.3143  0.9550
  123MOL0     H16215   8.126   9.181   7.834 -0.4357 -0.1676  3.0525
  123MOL0     H16216   8.012   9.274   7.615 -2.4766 -0.0022 -0.4990
  123MOL0     H16217   8.016   9.427   7.709  0.8138 -0.8706  0.5517
  123MOL0     H16218   9.073   9.407   8.079 -0.9365 -0.1062  0.8387
  123MOL0     H16219   9.216   9.519   8.229  2.3724 -0.9690 -1.6009
  123MOL0     H16220   9.581   9.644   8.537 -0.2299  0.8919 -1.4422
  123MOL0     H16221   9.633   9.804   8.724  0.1615 -1.0268  0.4930
  123MOL0     H16222  10.268  10.785   9.087  3.3002 -0.6273  1.5580
  123MOL0     H16223  10.501  10.770   9.092 -1.0242 -0.0629  0.8949
  123MOL0     H16224  10.973  10.796   8.609 -3.9394  3.5120 -0.5042
  123MOL0     H16225  11.227  10.884   8.674  0.3076 -2.2468  0.0933
  123MOL0     H16226  11.447  10.896   8.982  0.6119  1.4330 -1.3368
  123MOL0     H16227  11.307  10.892   9.065  0.6115  0.5781 -0.7946
  123MOL0     H16228  11.393  11.173   8.996  0.4246  0.4624  0.7179
  123MOL0     H16229  11.274  11.105   9.107 -0.4197 -1.3327 -0.9850
  123MOL0     H16230  11.580  11.069   9.128 -1.2571 -0.3282 -2.6098
  123MOL0     H16231  11.456  11.008   9.239 -0.7368  0.3609  0.7293
  123MOL0     H16232  11.401  11.256   9.267  0.2826 -0.6059  0.2642
  123MOL0     H16233  11.549  11.198   9.349 -1.0650  0.4780  0.3655
  123MOL0     H16234  11.721  11.477   9.115 -0.2159  0.1569 -0.9248
  123MOL0     H16235  11.088  10.977   9.057 -3.4428  0.3534  0.6459
  123MOL0     H16236  10.877  10.897   9.022 -1.8732  3.1904 -1.1468
  124MOL0     O16237   5.677   2.265  10.426 -0.8224 -0.5317 -0.3741
  124MOL0     C16238   5.693   2.362  10.351 -0.0732  0.9851 -0.7361
  124MOL0     O16239   5.612   2.470  10.342 -0.1792  0.3130 -0.4511
  124MOL0     C16240   5.479   2.457  10.379 -0.5793 -0.3140 -0.1323
  124MOL0     C16241   5.375   2.442  10.287 -0.0587  0.2707 -0.2841
  124MOL0     C16242   5.246   2.418  10.335 -0.6941  0.6833  0.1671
  124MOL0     C16243   5.221   2.403  10.470 -0.0709  0.2557  0.5625
  124MOL0     O16244   5.091   2.368  10.497 -0.2581  0.0208  1.4059
  124MOL0     C16245   5.018   2.408  10.613  0.6981  0.1205  0.0756
  124MOL0     C16246   4.964   2.551  10.592  0.8975 -0.1168 -0.2356
  124MOL0     C16247   4.858   2.545  10.483  1.3682  0.4189  0.2640
  124MOL0     C16248   4.787   2.678  10.443 -1.0816  0.0022 -0.3923
  124MOL0     C16249   4.670   2.661  10.347 -0.7616  0.0067 -0.6324
  124MOL0     C16250   4.537   2.616  10.408  0.3756  0.5834 -1.1770
  124MOL0     C16251   4.431   2.630  10.304 -0.0329  0.8156 -0.6773
  124MOL0     C16252   4.294   2.586  10.349 -0.9554  0.3377  0.2880
  124MOL0     N16253   4.197   2.636  10.257 -0.2945 -0.2534  0.5463
  124MOL0     C16254   4.084   2.697  10.292 -0.4843  0.1456  0.2619
  124MOL0     C16255   4.018   2.712  10.176  0.0450 -0.1483 -1.0119
  124MOL0     C16256   3.885   2.787  10.165 -0.9442  0.6676  0.5704
  124MOL0     C16257   3.816   2.725  10.041  0.0114  0.4283 -0.0121
  124MOL0     C16258   3.678   2.796  10.015 -0.3268 -0.2293 -0.3514
  124MOL0     C16259   3.606   2.727   9.907  0.5998 -0.1772 -0.3828
  124MOL0     O16260   3.486   2.791   9.874  0.2182 -1.3570  0.4188
  124MOL0     C16261   3.377   2.773   9.952  0.9646 -0.3199 -0.4779
  124MOL0     C16262   3.272   2.844   9.905  0.4707 -0.4577  0.0769
  124MOL0     C16263   3.140   2.819   9.957 -0.4941 -0.2151 -0.1048
  124MOL0     C16264   3.115   2.736  10.071 -0.6985 -0.1360 -0.2484
  124MOL0     C16265   2.974   2.699  10.121  0.2974  0.0786  0.2299
  124MOL0     O16266   2.866   2.766  10.065 -0.4172 -0.3386  0.6547
  124MOL0     C16267   2.737   2.751  10.119  0.0005  0.0719  0.0724
  124MOL0     C16268   2.640   2.749  10.022  0.1807 -0.1755 -0.9662
  124MOL0     C16269   2.511   2.718  10.053 -0.4299 -0.5249  0.1867
  124MOL0     C16270   2.478   2.693  10.191 -0.7903 -0.0165  0.0868
  124MOL0     O16271   2.353   2.669  10.235 -0.1674 -0.0085  1.0154
  124MOL0     C16272   2.259   2.629  10.136  0.2993 -0.3193 -0.2060
  124MOL0     C16273   2.125   2.618  10.203 -0.3148  0.1148  0.0896
  124MOL0     C16274   2.017   2.603  10.099 -0.6623  0.2594  0.4450
  124MOL0     C16275   1.875   2.582  10.152  0.6400 -0.5662  0.0488
  124MOL0     C16276   1.776   2.536  10.032 -0.3246  0.5001 -0.1429
  124MOL0     C16277   1.639   2.518  10.094 -0.5704  0.5500 -0.0961
  124MOL0     C16278   1.537   2.464   9.990  0.5082 -0.9990  0.3299
  124MOL0     C16279   1.400   2.512  10.023 -0.6105  0.1699 -0.4021
  124MOL0    Cl16280   1.299   2.455   9.880 -0.0999 -0.3471  0.4133
  124MOL0     C16281   2.571   2.712  10.298  0.8717 -0.5591  0.3099
  124MOL0     C16282   2.703   2.748  10.255 -0.5574  0.1085 -0.7577
  124MOL0     O16283   2.971   2.605  10.201  0.2580 -1.2652 -0.5771
  124MOL0     C16284   3.233   2.683  10.132  0.2305  0.7010 -0.1501
  124MOL0     C16285   3.357   2.699  10.071 -0.2325  0.4521 -0.8532
  124MOL0     N16286   4.092   2.657  10.079  0.1028 -0.4504  1.2402
  124MOL0     N16287   4.202   2.612  10.122 -0.2883 -0.1044  0.0423
  124MOL0     C16288   5.326   2.410  10.559  0.3001  0.1855  0.1141
  124MOL0     C16289   5.456   2.440  10.514  0.0935 -0.1882 -0.9883
  124MOL0     C16290   5.820   2.347  10.272 -0.1094  0.2986 -1.1760
  124MOL0     C16291   5.865   2.459  10.197 -0.2383  0.2463  0.4801
  124MOL0     C16292   5.995   2.451  10.140 -0.8782 -0.2797 -0.3379
  124MOL0     C16293   6.073   2.336  10.136 -0.2592  0.0181 -0.1813
  124MOL0     O16294   6.194   2.320  10.071 -0.4266 -0.8123  0.3419
  124MOL0     C16295   6.270   2.431  10.011 -0.2535 -0.0824 -0.5735
  124MOL0     C16296   6.406   2.374   9.977  0.4331  0.2889  1.4072
  124MOL0     C16297   6.482   2.482   9.905  0.2802 -0.2757  0.2460
  124MOL0     C16298   6.632   2.446   9.912  0.0034 -0.4318  0.3728
  124MOL0     C16299   6.662   2.315   9.859  0.1624 -0.4015 -0.4580
  124MOL0     C16300   6.663   2.209   9.806  0.1846  0.3066 -0.0403
  124MOL0     C16301   6.019   2.224  10.197 -0.2414 -0.1563 -0.4482
  124MOL0     C16302   5.900   2.231  10.272  0.2217 -0.5372  0.8865
  124MOL0     H16303   5.391   2.459  10.181  0.6130 -2.9741 -0.8157
  124MOL0     H16304   5.173   2.401  10.257  2.0201 -2.1507 -1.9930
  124MOL0     H16305   5.066   2.414  10.711  1.9065 -1.4735 -0.3824
  124MOL0     H16306   4.934   2.339  10.626  2.4886 -2.2490 -0.3201
  124MOL0     H16307   5.046   2.615  10.560  0.6066  0.0063 -0.7562
  124MOL0     H16308   4.913   2.589  10.681 -1.4832  0.8311 -1.8811
  124MOL0     H16309   4.773   2.480  10.506 -1.0564  4.0031  2.5464
  124MOL0     H16310   4.882   2.497  10.388 -1.1222 -2.3913  0.9071
  124MOL0     H16311   4.762   2.739  10.530  1.3564  0.7070 -0.1186
  124MOL0     H16312   4.873   2.727  10.396 -1.9107  1.4755 -0.4498
  124MOL0     H16313   4.702   2.595  10.265 -0.5077 -1.0166  0.2662
  124MOL0     H16314   4.653   2.760  10.304  0.4099 -0.5252 -2.4630
  124MOL0     H16315   4.521   2.667  10.504  0.8497 -3.7857  1.4788
  124MOL0     H16316   4.528   2.510  10.430 -2.8804  1.1079  0.6918
  124MOL0     H16317   4.430   2.734  10.269  0.3650  1.6250  1.5686
  124MOL0     H16318   4.459   2.557  10.227  4.3687 -0.6411  1.9414
  124MOL0     H16319   4.284   2.628  10.450  0.6714  1.4591  0.0283
  124MOL0     H16320   4.300   2.478  10.360  1.7933  0.3045 -0.5920
  124MOL0     H16321   4.061   2.732  10.392  1.1746 -5.0560  2.8527
  124MOL0     H16322   3.908   2.893  10.152  2.2850  0.2709  2.0022
  124MOL0     H16323   3.841   2.757  10.260 -3.3842  0.2789 -0.6134
  124MOL0     H16324   3.805   2.617  10.052 -0.2456  0.1619 -2.3431
  124MOL0     H16325   3.879   2.733   9.952 -1.0787 -0.2774 -0.8714
  124MOL0     H16326   3.610   2.810  10.099 -1.1864  1.9225 -1.3216
  124MOL0     H16327   3.713   2.898   9.993  1.8330 -0.1202  2.9495
  124MOL0     H16328   3.591   2.629   9.953  0.7768  2.3275  5.8926
  124MOL0     H16329   3.674   2.718   9.821  1.2019  1.8539 -0.1801
  124MOL0     H16330   3.296   2.902   9.816 -0.8562  0.0224  0.0113
  124MOL0     H16331   3.048   2.846   9.907 -1.5106 -3.5045 -0.2316
  124MOL0     H16332   2.670   2.774   9.920  0.9599  2.7352 -0.1233
  124MOL0     H16333   2.433   2.717   9.976  0.0258 -1.0408 -0.2745
  124MOL0     H16334   2.289   2.536  10.086 -1.5229 -2.7803  2.8641
  124MOL0     H16335   2.238   2.716  10.073 -2.1311 -0.1551  0.7154
  124MOL0     H16336   2.110   2.707  10.265  1.4872  0.1130  0.5868
  124MOL0     H16337   2.123   2.525  10.261 -1.8706 -1.6982 -2.6305
  124MOL0     H16338   2.052   2.524  10.032  2.0296  2.7088 -1.2863
  124MOL0     H16339   2.025   2.683  10.025  2.6397 -1.8258 -1.7249
  124MOL0     H16340   1.880   2.498  10.221  1.3823 -1.6996 -1.3291
  124MOL0     H16341   1.858   2.675  10.206 -1.6325 -0.0349 -1.4473
  124MOL0     H16342   1.809   2.440   9.993  1.6068  1.1446 -0.2213
  124MOL0     H16343   1.784   2.603   9.946  1.5630 -0.3106 -0.6504
  124MOL0     H16344   1.605   2.616  10.127 -2.5008  0.4223 -1.5558
  124MOL0     H16345   1.642   2.450  10.180 -0.4960  1.9636  1.0684
  124MOL0     H16346   1.559   2.503   9.890 -0.0689  0.7456  0.8345
  124MOL0     H16347   1.536   2.355   9.993  0.0360 -0.9995  0.3369
  124MOL0     H16348   1.395   2.621  10.031 -1.4489  0.1794 -0.9332
  124MOL0     H16349   1.366   2.474  10.120 -0.9564  0.2214 -0.5020
  124MOL0     H16350   2.535   2.709  10.400 -2.1997 -2.1948 -0.6821
  124MOL0     H16351   2.783   2.758  10.328 -2.4158 -1.1216  1.5814
  124MOL0     H16352   3.221   2.619  10.218  1.5711  1.5602  0.7131
  124MOL0     H16353   3.435   2.645  10.124 -0.3216  0.8208 -0.3407
  124MOL0     H16354   5.327   2.374  10.661 -1.0624  0.9899  0.4439
  124MOL0     H16355   5.540   2.452  10.581 -0.2848 -3.4518  0.2691
  124MOL0     H16356   5.809   2.549  10.176 -2.3212 -0.9725  0.5059
  124MOL0     H16357   6.027   2.538  10.084  1.4654 -0.0441  1.1986
  124MOL0     H16358   6.271   2.513  10.084 -2.6414 -1.5485  1.2884
  124MOL0     H16359   6.224   2.474   9.922 -0.0415 -1.1444 -1.2076
  124MOL0     H16360   6.449   2.328  10.067 -2.3417 -0.9415  2.2322
  124MOL0     H16361   6.388   2.287   9.913 -0.9708  1.9815 -0.6041
  124MOL0     H16362   6.478   2.575   9.963  0.5953 -1.1264  1.6773
  124MOL0     H16363   6.450   2.493   9.801 -0.0689 -2.1597  0.1182
  124MOL0     H16364   6.690   2.525   9.863  0.9415 -0.3990  1.4877
  124MOL0     H16365   6.650   2.450  10.020  0.1559 -0.2703  0.3428
  124MOL0     H16366   6.654   2.116   9.754 -1.0128 -0.0809  0.7999
  124MOL0     H16367   6.070   2.130  10.181  1.2504  0.5521 -0.0681
  124MOL0     H16368   5.881   2.143  10.332  1.3116 -2.0988 -0.9447
  125MOL0     O16369   7.768  10.775   1.334  0.2183 -0.6919  0.2811
  125MOL0     C16370   7.804  10.686   1.259  0.2635  0.4292 -0.2129
  125MOL0     O16371   7.750  10.568   1.252  0.3118  0.7225  0.4549
  125MOL0     C16372   7.631  10.546   1.326 -0.8658 -0.6100 -0.0899
  125MOL0     C16373   7.523  10.513   1.253 -0.2170 -0.1962 -0.9633
  125MOL0     C16374   7.399  10.490   1.303  0.0258  0.7219  0.3169
  125MOL0     C16375   7.381  10.478   1.443  1.0116  0.3786 -0.2955
  125MOL0     O16376   7.257  10.458   1.499  0.0254 -0.1041 -0.4382
  125MOL0     C16377   7.206  10.552   1.599  0.6589  0.1832  0.1663
  125MOL0     C16378   7.061  10.527   1.638  0.3019 -0.3344 -1.1870
  125MOL0     C16379   6.973  10.564   1.520  0.1273 -0.7837  0.3555
  125MOL0     C16380   6.828  10.567   1.565  0.1675  0.0664  0.1680
  125MOL0     C16381   6.723  10.625   1.462 -0.1203  0.1288  0.6193
  125MOL0     C16382   6.745  10.780   1.473  0.6731  0.1630  1.1403
  125MOL0     C16383   6.724  10.842   1.337 -0.0345  0.3785  0.2006
  125MOL0     C16384   6.778  10.986   1.322  0.2399  0.6247 -0.1045
  125MOL0     N16385   6.919  10.974   1.292  0.4653  0.5992  0.1829
  125MOL0     C16386   7.035  10.967   1.374 -0.4521 -0.1054 -0.2934
  125MOL0     C16387   7.136  10.946   1.292  0.3043  0.0669 -0.0674
  125MOL0     C16388   7.282  10.948   1.314 -0.8215  0.3913 -0.5351
  125MOL0     C16389   7.357  10.842   1.231  0.0656 -0.7025  0.2251
  125MOL0     C16390   7.377  10.901   1.089 -0.0179 -0.6423  0.3153
  125MOL0     C16391   7.515  10.843   1.034  0.3565 -0.9266  0.3191
  125MOL0     O16392   7.518  10.871   0.892  1.6334  0.2217 -0.5520
  125MOL0     C16393   7.632  10.925   0.840  0.5731 -0.5539 -0.2264
  125MOL0     C16394   7.625  11.026   0.743 -0.3467  0.2032 -0.0086
  125MOL0     C16395   7.745  11.069   0.673 -0.2118  0.1362 -0.4715
  125MOL0     C16396   7.876  11.014   0.702  0.4535 -0.8908 -0.5298
  125MOL0     C16397   8.005  11.049   0.633  0.9298 -0.5569  0.7290
  125MOL0     O16398   7.979  11.061   0.492  0.1316  0.4026 -0.4092
  125MOL0     C16399   8.081  11.076   0.410 -0.8709  0.6541  1.1305
  125MOL0     C16400   8.217  11.026   0.416  1.0844  0.2825  0.1870
  125MOL0     C16401   8.312  11.053   0.311 -0.1452  0.8361 -0.3071
  125MOL0     C16402   8.276  11.140   0.200 -0.5330  0.0388 -0.1499
  125MOL0     O16403   8.365  11.160   0.098  1.1952  0.2259  0.3350
  125MOL0     C16404   8.354  11.286   0.016 -0.7817 -0.0357 -0.4040
  125MOL0     C16405   8.273  11.252  -0.104 -0.6030  0.1518 -0.3005
  125MOL0     C16406   8.345  11.165  -0.211  0.0647  0.4418  0.6643
  125MOL0     C16407   8.448  11.238  -0.302  0.4942 -0.3791 -0.1149
  125MOL0     C16408   8.530  11.145  -0.394  0.0425  0.8063 -1.2206
  125MOL0     C16409   8.606  11.217  -0.503 -0.6346  1.0106  0.3222
  125MOL0     C16410   8.703  11.119  -0.575 -0.4152  0.7186  0.3010
  125MOL0     C16411   8.826  11.194  -0.639  0.1314 -0.2848  0.3608
  125MOL0    Cl16412   8.936  11.244  -0.508 -0.9471 -0.1067  0.0213
  125MOL0     C16413   8.145  11.192   0.201  0.9362  0.5226 -0.0225
  125MOL0     C16414   8.056  11.166   0.310  0.0942  0.2528 -0.4675
  125MOL0     O16415   8.111  11.066   0.689  0.8516 -0.8336  0.6227
  125MOL0     C16416   7.873  10.924   0.807 -0.4463 -0.1858  0.3561
  125MOL0     C16417   7.758  10.880   0.869  0.3827 -0.8083  0.3315
  125MOL0     N16418   7.089  10.949   1.161 -0.8510  0.1206 -0.1155
  125MOL0     N16419   6.957  10.967   1.161 -0.0971 -0.5080 -0.8829
  125MOL0     C16420   7.497  10.491   1.522  0.7168  0.1512 -0.0663
  125MOL0     C16421   7.620  10.534   1.465  0.3345  1.2506 -0.6979
  125MOL0     C16422   7.915  10.707   1.172 -0.5737 -0.2965 -0.3618
  125MOL0     C16423   7.965  10.596   1.105  0.7431  0.0575  0.0311
  125MOL0     C16424   8.076  10.623   1.018  0.3058  0.4166 -0.3925
  125MOL0     C16425   8.144  10.743   1.015 -0.0805  1.0099  0.1922
  125MOL0     O16426   8.257  10.762   0.936 -0.1232  0.6470  0.4146
  125MOL0     C16427   8.284  10.887   0.871  0.0237  0.9213 -0.0166
  125MOL0     C16428   8.403  10.963   0.939 -0.3222 -0.0124 -0.3748
  125MOL0     C16429   8.450  11.077   0.849 -1.1171 -0.1088  0.2014
  125MOL0     C16430   8.509  11.195   0.919  1.4234 -0.8470 -0.2506
  125MOL0     C16431   8.411  11.275   0.992  0.1778 -0.4389  0.1660
  125MOL0     C16432   8.326  11.348   1.047 -0.6211 -0.9026 -0.2647
  125MOL0     C16433   8.095  10.846   1.099 -0.2741 -0.1657  0.0768
  125MOL0     C16434   7.987  10.828   1.176 -1.4916 -0.1754  0.5848
  125MOL0     H16435   7.542  10.498   1.147  1.8437  1.5736 -0.9169
  125MOL0     H16436   7.309  10.483   1.243  1.4891  1.4033 -2.1147
  125MOL0     H16437   7.219  10.649   1.550 -2.5584 -0.1523 -1.6491
  125MOL0     H16438   7.268  10.562   1.689  1.5455 -1.2531 -0.2545
  125MOL0     H16439   7.040  10.601   1.715 -1.6570  1.6653 -3.5003
  125MOL0     H16440   7.050  10.423   1.669  1.5576 -0.6123 -1.5715
  125MOL0     H16441   6.987  10.478   1.454  0.8540 -0.6956  0.3915
  125MOL0     H16442   7.004  10.655   1.469 -0.3479 -0.1024  1.2552
  125MOL0     H16443   6.780  10.469   1.571 -1.6168  0.5308 -3.5435
  125MOL0     H16444   6.821  10.616   1.663 -0.9289 -1.1062  0.6965
  125MOL0     H16445   6.620  10.602   1.490 -0.0726  2.6141  3.2324
  125MOL0     H16446   6.748  10.590   1.361  2.5143  1.9975  0.5128
  125MOL0     H16447   6.847  10.808   1.500  1.3795  0.5388 -1.6185
  125MOL0     H16448   6.659  10.812   1.533 -0.1247 -1.8763  1.1743
  125MOL0     H16449   6.773  10.782   1.261 -0.6718  1.3193 -0.9833
  125MOL0     H16450   6.617  10.840   1.314  0.0566  2.1022 -0.4852
  125MOL0     H16451   6.754  11.051   1.406 -0.8572  1.9587 -1.3797
  125MOL0     H16452   6.725  11.027   1.235  1.3211  2.0441 -0.1204
  125MOL0     H16453   7.055  10.990   1.478  2.7738  0.5757 -0.9408
  125MOL0     H16454   7.296  10.913   1.417 -2.3853 -1.2920 -0.8555
  125MOL0     H16455   7.326  11.045   1.289  0.0499 -0.0196 -0.6329
  125MOL0     H16456   7.305  10.746   1.230 -0.2213 -0.5538 -0.6594
  125MOL0     H16457   7.453  10.832   1.281 -0.0059 -0.5860  0.3843
  125MOL0     H16458   7.299  10.865   1.020 -0.0124  0.2034 -0.1514
  125MOL0     H16459   7.377  11.010   1.083  3.9800 -0.5095 -0.0740
  125MOL0     H16460   7.515  10.736   1.055 -1.5267 -1.0796 -0.2638
  125MOL0     H16461   7.597  10.895   1.085  2.0524 -1.9607 -1.2697
  125MOL0     H16462   7.528  11.063   0.711 -0.5397 -1.0390 -0.9232
  125MOL0     H16463   7.737  11.155   0.608 -0.0719  1.0315  0.6521
  125MOL0     H16464   8.250  10.962   0.497  2.9283  0.9368  0.0100
  125MOL0     H16465   8.410  11.008   0.301 -1.3283 -1.4918 -2.7943
  125MOL0     H16466   8.450  11.321  -0.020 -1.3096  0.6094 -1.2052
  125MOL0     H16467   8.308  11.372   0.066 -1.9850 -0.3279 -0.9665
  125MOL0     H16468   8.241  11.342  -0.158  0.5330 -0.5709 -2.2888
  125MOL0     H16469   8.182  11.200  -0.073  0.3797 -0.5606  1.4955
  125MOL0     H16470   8.260  11.120  -0.263  1.2730 -1.2486  0.0587
  125MOL0     H16471   8.394  11.087  -0.152  1.3577  2.5241  2.5101
  125MOL0     H16472   8.397  11.310  -0.366  1.9623  1.2956  0.5297
  125MOL0     H16473   8.515  11.299  -0.242 -1.2560 -0.0116  1.5518
  125MOL0     H16474   8.454  11.091  -0.453 -1.0482 -0.7131  1.3918
  125MOL0     H16475   8.593  11.079  -0.334 -0.4858  1.5824  0.2256
  125MOL0     H16476   8.669  11.297  -0.464 -1.3836  1.9943 -0.4568
  125MOL0     H16477   8.542  11.267  -0.576  2.7216  0.8049 -3.0512
  125MOL0     H16478   8.722  11.034  -0.509  1.3851  1.4236  0.7532
  125MOL0     H16479   8.659  11.067  -0.661  1.8824 -0.8823  0.0152
  125MOL0     H16480   8.787  11.282  -0.693 -1.5619 -0.7247  0.8015
  125MOL0     H16481   8.885  11.134  -0.709  0.1779 -2.3913  2.0878
  125MOL0     H16482   8.110  11.250   0.117  1.4384  0.8145 -0.0355
  125MOL0     H16483   7.955  11.205   0.305 -0.5756 -1.4988 -1.9147
  125MOL0     H16484   7.970  10.877   0.820 -0.2174  0.5890  1.5493
  125MOL0     H16485   7.770  10.821   0.959  0.3402 -0.2992  0.6810
  125MOL0     H16486   7.495  10.482   1.631  1.9327  1.2084  0.0626
  125MOL0     H16487   7.707  10.559   1.526 -0.1905  1.9008 -0.2047
  125MOL0     H16488   7.901  10.509   1.097 -0.0625  0.6365  0.0422
  125MOL0     H16489   8.111  10.552   0.944  0.0857  0.8178 -0.8815
  125MOL0     H16490   8.201  10.955   0.896  0.1743  0.6447  1.3071
  125MOL0     H16491   8.300  10.861   0.766 -1.2334 -1.8114  0.3940
  125MOL0     H16492   8.371  11.005   1.035 -0.1674 -0.7119 -0.0047
  125MOL0     H16493   8.480  10.891   0.968 -0.1284  0.8464  1.3919
  125MOL0     H16494   8.363  11.114   0.795 -0.4723  0.1857 -0.6431
  125MOL0     H16495   8.521  11.030   0.780 -0.1333  0.4285  0.8253
  125MOL0     H16496   8.587  11.150   0.982  1.3730  1.3059  1.4822
  125MOL0     H16497   8.553  11.259   0.842  0.5513 -0.5045 -0.4762
  125MOL0     H16498   8.269  11.418   1.105  1.1370 -0.2030  0.7010
  125MOL0     H16499   8.155  10.933   1.118 -0.1741 -0.5095  1.4208
  125MOL0     H16500   7.968  10.911   1.244  0.1360 -0.0657  0.9421
  126MOL0     O16501   6.447   4.416   0.798  0.2409  0.7110 -0.0469
  126MOL0     C16502   6.390   4.303   0.795 -0.4817  0.2511  0.1868
  126MOL0     O16503   6.262   4.284   0.818  0.3590 -0.3370 -0.1554
  126MOL0     C16504   6.166   4.376   0.814  1.1982 -0.1692  0.9623
  126MOL0     C16505   6.167   4.491   0.732 -0.2142 -0.4089  0.5375
  126MOL0     C16506   6.046   4.572   0.730 -0.4617 -0.0724  0.1150
  126MOL0     C16507   5.935   4.535   0.800 -0.1379 -0.4834 -0.3770
  126MOL0     O16508   5.842   4.632   0.800 -0.1543  0.1999  0.1912
  126MOL0     C16509   5.792   4.673   0.928  1.3759 -0.0682  0.1115
  126MOL0     C16510   5.713   4.808   0.903 -0.8295 -0.2743 -0.8704
  126MOL0     C16511   5.675   4.877   1.036  0.4104 -0.2485 -0.1024
  126MOL0     C16512   5.632   5.025   1.009  0.2169  0.6340 -0.0766
  126MOL0     C16513   5.615   5.106   1.143  0.3596  0.1885 -0.1188
  126MOL0     C16514   5.614   5.262   1.128  0.9377 -0.5128  0.2532
  126MOL0     C16515   5.659   5.317   1.265  0.3710  0.2912  0.9557
  126MOL0     C16516   5.694   5.464   1.262  0.5586  0.4107 -0.5326
  126MOL0     N16517   5.826   5.490   1.213  0.6191 -0.2025  0.5852
  126MOL0     C16518   5.863   5.600   1.146 -0.8134  0.3576  0.8421
  126MOL0     C16519   5.988   5.573   1.101 -0.6403 -0.9262 -0.3437
  126MOL0     C16520   6.089   5.658   1.023  0.5415 -0.0753  0.1404
  126MOL0     C16521   6.200   5.706   1.113 -1.0293 -0.1275  1.0266
  126MOL0     C16522   6.318   5.761   1.030 -0.7291  0.9754  0.6966
  126MOL0     C16523   6.404   5.849   1.121  0.1460  0.8144 -0.1734
  126MOL0     O16524   6.476   5.941   1.033  0.8714  0.2494 -0.0115
  126MOL0     C16525   6.592   5.907   0.962  1.0537 -0.0311 -0.1673
  126MOL0     C16526   6.623   5.993   0.862  0.2561  0.2018  0.3020
  126MOL0     C16527   6.736   5.971   0.786 -0.3039 -0.0217 -0.3128
  126MOL0     C16528   6.820   5.867   0.810 -0.2961 -0.6264  0.0982
  126MOL0     C16529   6.944   5.851   0.741  0.0337 -0.5571 -0.3893
  126MOL0     O16530   7.001   5.973   0.700 -0.8786  0.2695 -0.1704
  126MOL0     C16531   7.110   5.958   0.620  0.3192 -0.9638 -0.3840
  126MOL0     C16532   7.106   6.011   0.490 -0.7402 -0.6620 -0.5450
  126MOL0     C16533   7.215   5.992   0.401  0.0587 -0.6041  0.2582
  126MOL0     C16534   7.329   5.927   0.430 -0.9611  0.0436 -0.1213
  126MOL0     O16535   7.433   5.928   0.337  0.3857 -0.2131 -0.2442
  126MOL0     C16536   7.525   6.037   0.351 -0.4198 -0.1643 -0.1649
  126MOL0     C16537   7.642   6.032   0.457  0.0471 -1.0574  1.0303
  126MOL0     C16538   7.753   5.927   0.422 -0.5665 -0.1119  0.3563
  126MOL0     C16539   7.835   5.896   0.545 -0.0246  0.2580 -0.8654
  126MOL0     C16540   7.929   5.783   0.511 -0.4889 -0.5007  0.2850
  126MOL0     C16541   8.043   5.763   0.615  0.1847  0.0011 -0.4960
  126MOL0     C16542   8.099   5.624   0.614  0.2431 -0.9375  0.5156
  126MOL0     C16543   8.220   5.618   0.716 -0.5375  0.4619  0.2187
  126MOL0    Cl16544   8.195   5.615   0.886 -0.2755 -0.1105  0.0800
  126MOL0     C16545   7.331   5.865   0.560  1.2590 -0.7441 -1.0748
  126MOL0     C16546   7.224   5.880   0.652  0.5347 -0.3620  0.6222
  126MOL0     O16547   6.984   5.743   0.723  0.4985  0.3059  0.4893
  126MOL0     C16548   6.790   5.787   0.918 -0.5980  0.1365  0.1906
  126MOL0     C16549   6.672   5.796   0.991 -0.6960  0.0332  0.6387
  126MOL0     N16550   6.026   5.447   1.151 -0.1022 -0.4983 -0.2626
  126MOL0     N16551   5.923   5.394   1.210  0.5454 -0.1848  0.0936
  126MOL0     C16552   5.934   4.425   0.885 -0.0797  0.5108  0.1011
  126MOL0     C16553   6.047   4.343   0.888  0.4940 -1.0426 -0.7675
  126MOL0     C16554   6.477   4.180   0.799 -0.3238 -0.0007  0.1550
  126MOL0     C16555   6.615   4.186   0.808 -0.4449 -0.9892 -0.8983
  126MOL0     C16556   6.690   4.068   0.802  0.7421  0.2955  0.2242
  126MOL0     C16557   6.627   3.948   0.772 -0.6654 -0.9567 -0.4800
  126MOL0     O16558   6.692   3.828   0.762  0.2439  0.5645 -0.3474
  126MOL0     C16559   6.830   3.826   0.749  0.5112 -0.3564  0.0429
  126MOL0     C16560   6.885   3.681   0.736 -0.3929  0.0223 -0.3674
  126MOL0     C16561   6.908   3.632   0.589 -0.3222  0.4350  0.0064
  126MOL0     C16562   6.976   3.493   0.593  0.5153 -0.7210 -0.2624
  126MOL0     C16563   6.979   3.424   0.462 -0.2287 -0.2033 -0.5203
  126MOL0     C16564   6.985   3.371   0.356 -0.6841 -0.0040  0.1574
  126MOL0     C16565   6.487   3.932   0.771  0.1604 -0.5407 -0.1924
  126MOL0     C16566   6.416   4.054   0.782 -0.0727 -0.1895  1.2677
  126MOL0     H16567   6.251   4.521   0.670  1.1402 -2.7671  1.0962
  126MOL0     H16568   6.048   4.665   0.673  4.3318  0.3295  0.4762
  126MOL0     H16569   5.871   4.685   1.002  3.1789 -1.2807 -1.5187
  126MOL0     H16570   5.717   4.602   0.963  0.2735 -0.5923 -3.0114
  126MOL0     H16571   5.636   4.793   0.827  1.6760 -0.7804 -3.4960
  126MOL0     H16572   5.786   4.880   0.863 -2.3381  1.9369  0.1612
  126MOL0     H16573   5.755   4.875   1.110  0.4214 -0.8780 -0.1259
  126MOL0     H16574   5.587   4.825   1.075 -1.7619  1.8026 -1.9938
  126MOL0     H16575   5.716   5.067   0.952  0.0183 -0.8875 -1.5748
  126MOL0     H16576   5.551   5.032   0.936  2.0272  2.9988 -2.0598
  126MOL0     H16577   5.695   5.073   1.210 -0.4730 -1.7861 -0.0307
  126MOL0     H16578   5.523   5.058   1.176  0.2796 -0.3670 -1.0958
  126MOL0     H16579   5.515   5.298   1.099  0.8033 -0.5712  0.6427
  126MOL0     H16580   5.685   5.302   1.054 -2.2168  2.8655 -1.2874
  126MOL0     H16581   5.575   5.311   1.335 -2.0410 -0.4109 -1.7969
  126MOL0     H16582   5.735   5.252   1.309 -1.6790 -1.4942  2.0854
  126MOL0     H16583   5.678   5.498   1.364  0.4889 -0.8004 -0.1306
  126MOL0     H16584   5.621   5.521   1.203 -0.1386  0.0648 -0.0169
  126MOL0     H16585   5.794   5.683   1.145 -1.3375 -0.0441  1.8999
  126MOL0     H16586   6.030   5.742   0.983 -1.5211 -2.0227 -1.1437
  126MOL0     H16587   6.126   5.598   0.940 -0.2179 -2.2941  1.3324
  126MOL0     H16588   6.226   5.625   1.182 -0.1259 -0.1615  0.6572
  126MOL0     H16589   6.159   5.790   1.169 -1.9249  0.3803 -0.3180
  126MOL0     H16590   6.382   5.681   0.992  0.3025  1.1169  2.0242
  126MOL0     H16591   6.282   5.818   0.944 -3.4058 -0.6576  0.6417
  126MOL0     H16592   6.469   5.794   1.190  2.6831  1.5159 -1.8792
  126MOL0     H16593   6.337   5.908   1.185 -0.2369  0.1669  0.0322
  126MOL0     H16594   6.553   6.073   0.842 -3.4985 -2.9066 -0.2441
  126MOL0     H16595   6.760   6.042   0.708  1.7646 -0.5904 -0.2402
  126MOL0     H16596   7.029   6.084   0.467 -0.1324  0.5246  0.9960
  126MOL0     H16597   7.198   6.025   0.299 -1.0363  0.3152  0.7246
  126MOL0     H16598   7.470   6.130   0.364  1.3427  0.6733  2.0420
  126MOL0     H16599   7.580   6.046   0.257 -1.1270 -3.0730 -0.9680
  126MOL0     H16600   7.593   6.008   0.552 -1.5388  0.6370  0.6876
  126MOL0     H16601   7.689   6.129   0.476 -2.9680  0.4779  1.3073
  126MOL0     H16602   7.812   5.967   0.339 -1.1381  2.5913  1.1462
  126MOL0     H16603   7.697   5.841   0.384  1.5959 -0.4625 -2.2549
  126MOL0     H16604   7.895   5.983   0.573  2.1033 -1.4130  0.0170
  126MOL0     H16605   7.776   5.864   0.631  2.4724 -0.2290  0.7786
  126MOL0     H16606   7.973   5.796   0.411  1.9085 -0.4752  1.2819
  126MOL0     H16607   7.872   5.690   0.519  0.2859 -1.0116  0.0597
  126MOL0     H16608   8.006   5.784   0.716 -2.2819  0.3272 -1.4087
  126MOL0     H16609   8.120   5.839   0.597 -0.1766  0.5314  0.1428
  126MOL0     H16610   8.021   5.551   0.633  0.7144 -2.1506 -1.7523
  126MOL0     H16611   8.133   5.602   0.512  0.8977 -1.6337  0.8707
  126MOL0     H16612   8.298   5.691   0.691  0.2792 -0.4681  0.0071
  126MOL0     H16613   8.271   5.522   0.703 -0.2805  0.6564 -0.2355
  126MOL0     H16614   7.423   5.816   0.589  0.9766 -0.2320  0.8028
  126MOL0     H16615   7.232   5.828   0.746  2.2654 -0.2447  0.5700
  126MOL0     H16616   6.866   5.719   0.955 -3.2171 -3.4403 -0.4116
  126MOL0     H16617   6.651   5.720   1.066  0.4753 -1.6949 -0.7112
  126MOL0     H16618   5.847   4.405   0.947 -1.3042  3.6376 -0.4149
  126MOL0     H16619   6.043   4.251   0.945 -1.4363 -1.7456 -1.9512
  126MOL0     H16620   6.666   4.281   0.824 -0.4728 -1.3637  1.9658
  126MOL0     H16621   6.798   4.077   0.797  0.8171  0.1887  1.3941
  126MOL0     H16622   6.875   3.882   0.831 -0.0815 -1.0551  0.8569
  126MOL0     H16623   6.844   3.882   0.656 -0.4601  0.0435  0.1266
  126MOL0     H16624   6.983   3.680   0.783  0.7692 -3.1583 -2.5921
  126MOL0     H16625   6.816   3.617   0.792  0.0590  0.3712  0.6104
  126MOL0     H16626   6.979   3.696   0.535  1.4388 -1.4742 -0.0429
  126MOL0     H16627   6.820   3.624   0.524 -1.8148  0.8156  1.8980
  126MOL0     H16628   7.082   3.507   0.619  0.0809  2.7059  0.1702
  126MOL0     H16629   6.923   3.429   0.663 -0.0328 -1.6230 -1.4632
  126MOL0     H16630   6.982   3.330   0.257  0.4929  2.1998 -0.8765
  126MOL0     H16631   6.446   3.838   0.735  0.3671 -0.6912 -0.0341
  126MOL0     H16632   6.308   4.048   0.769 -0.0776  1.3109  0.4939
  127MOL0     O16633   6.986   9.646   0.546  0.6615 -0.0363 -0.3712
  127MOL0     C16634   6.984   9.718   0.444  0.3756 -0.3506 -0.2655
  127MOL0     O16635   6.880   9.794   0.410  0.0655  0.5696  0.4015
  127MOL0     C16636   6.767   9.810   0.487 -0.3544  0.3470  0.2130
  127MOL0     C16637   6.768   9.855   0.617  0.1489 -0.4691  0.5043
  127MOL0     C16638   6.648   9.876   0.690 -0.7138 -1.6352  0.5681
  127MOL0     C16639   6.527   9.830   0.634  1.6069  0.3914  0.0704
  127MOL0     O16640   6.398   9.837   0.696  0.6762  0.3876  0.3300
  127MOL0     C16641   6.378   9.971   0.757 -0.4168 -0.1043 -0.0693
  127MOL0     C16642   6.240  10.029   0.736  0.8761  0.2184  0.0108
  127MOL0     C16643   6.168  10.014   0.598 -0.3935  0.6175 -1.5369
  127MOL0     C16644   6.025  10.074   0.584  0.2770 -0.7683 -0.5304
  127MOL0     C16645   6.000  10.085   0.432  0.4796  0.1551 -1.4674
  127MOL0     C16646   5.887  10.192   0.421 -0.4909  0.1491  0.4831
  127MOL0     C16647   5.829  10.171   0.281  0.1092  0.2328 -0.8548
  127MOL0     C16648   5.727  10.275   0.243 -0.4735  0.3986  0.4499
  127MOL0     N16649   5.609  10.218   0.312  0.6261 -0.0902 -0.6016
  127MOL0     C16650   5.535  10.099   0.297  0.3190  0.2433 -0.2760
  127MOL0     C16651   5.439  10.100   0.395  0.0094  1.1865 -0.0736
  127MOL0     C16652   5.342   9.980   0.410 -0.6960 -0.3457 -0.9827
  127MOL0     C16653   5.278   9.954   0.275  0.1331  0.5234  0.4884
  127MOL0     C16654   5.142   9.887   0.283  0.1288 -0.7116  0.3890
  127MOL0     C16655   5.140   9.750   0.349 -0.2492 -0.1390 -0.4517
  127MOL0     O16656   5.010   9.689   0.346 -0.1511 -0.1521  0.6605
  127MOL0     C16657   4.960   9.623   0.453  0.6350 -0.3094 -0.1685
  127MOL0     C16658   5.036   9.568   0.553  0.0228  0.8877 -0.1847
  127MOL0     C16659   4.979   9.485   0.650  0.1274  0.6303 -0.2695
  127MOL0     C16660   4.840   9.451   0.642 -0.6023 -0.0624 -0.1420
  127MOL0     C16661   4.791   9.354   0.741 -0.0369 -0.1295  0.1423
  127MOL0     O16662   4.657   9.348   0.761  0.4510  0.0804 -0.0376
  127MOL0     C16663   4.593   9.267   0.854 -0.1942 -0.0552  0.6713
  127MOL0     C16664   4.507   9.311   0.948  0.3003 -0.0365 -0.7625
  127MOL0     C16665   4.443   9.226   1.039 -0.2218  0.0559 -0.1379
  127MOL0     C16666   4.487   9.087   1.032 -0.0026 -0.6010  0.0199
  127MOL0     O16667   4.421   8.996   1.109 -0.8787 -0.3299 -0.5864
  127MOL0     C16668   4.352   9.045   1.228  0.1686 -0.8826 -0.3397
  127MOL0     C16669   4.378   8.928   1.319  0.1318 -0.7258 -1.0600
  127MOL0     C16670   4.317   8.958   1.458 -0.4049 -0.8005  0.2263
  127MOL0     C16671   4.305   8.834   1.549 -0.4032  0.0201  0.4199
  127MOL0     C16672   4.225   8.879   1.681  0.0713  0.5263 -0.8128
  127MOL0     C16673   4.189   8.765   1.765 -0.1453  0.6496  0.5548
  127MOL0     C16674   4.286   8.736   1.873  0.0356  0.6749  0.5568
  127MOL0     C16675   4.222   8.632   1.966  0.3504 -0.3028  0.1191
  127MOL0    Cl16676   4.125   8.722   2.069 -0.2816  0.0938  0.3601
  127MOL0     C16677   4.567   9.033   0.928  0.4345 -0.1636 -0.0836
  127MOL0     C16678   4.618   9.128   0.835 -0.0698  1.0963  0.9380
  127MOL0     O16679   4.875   9.293   0.807  0.3154 -0.3126 -0.0814
  127MOL0     C16680   4.761   9.517   0.543  0.6514  0.6582 -0.4082
  127MOL0     C16681   4.827   9.595   0.454  0.8389 -0.3727  0.6737
  127MOL0     N16682   5.454  10.212   0.473  0.2058  0.3810  0.1878
  127MOL0     N16683   5.553  10.281   0.425  0.2075 -1.2124  0.2049
  127MOL0     C16684   6.526   9.768   0.519 -1.2498  0.0415  0.8764
  127MOL0     C16685   6.641   9.759   0.442  0.1818 -0.0286  0.1213
  127MOL0     C16686   7.115   9.732   0.379  1.2677 -0.0243 -1.7011
  127MOL0     C16687   7.240   9.701   0.444  0.5073  0.1537  0.0956
  127MOL0     C16688   7.358   9.715   0.367 -0.4482 -0.7577  0.4310
  127MOL0     C16689   7.357   9.752   0.232 -0.1351 -0.0058 -0.1720
  127MOL0     O16690   7.476   9.748   0.157  0.0738 -0.3195  0.3209
  127MOL0     C16691   7.587   9.676   0.189 -0.3234 -0.1116 -0.6971
  127MOL0     C16692   7.580   9.519   0.185  1.2257  1.2115  1.2827
  127MOL0     C16693   7.536   9.453   0.060 -0.1211  0.6829  0.6657
  127MOL0     C16694   7.483   9.305   0.087  0.3461 -0.2460 -0.8032
  127MOL0     C16695   7.335   9.298   0.087  0.8296 -0.4727  0.2389
  127MOL0     C16696   7.205   9.312   0.074 -0.5778  0.3703  0.2089
  127MOL0     C16697   7.238   9.791   0.175 -0.4394  1.3462 -0.0146
  127MOL0     C16698   7.117   9.767   0.241  0.3050  0.5034  0.3798
  127MOL0     H16699   6.868   9.887   0.647 -1.0644  0.3416  4.2655
  127MOL0     H16700   6.656   9.919   0.789 -0.2848  0.8084 -0.4482
  127MOL0     H16701   6.452  10.041   0.719  0.1507 -0.5966  0.1067
  127MOL0     H16702   6.398   9.963   0.865  2.2456 -0.8051 -0.5403
  127MOL0     H16703   6.254  10.136   0.753  2.8968  0.0425 -0.1928
  127MOL0     H16704   6.174   9.998   0.817  1.0858 -1.1622 -0.3211
  127MOL0     H16705   6.164   9.905   0.601  1.6208  0.3935  3.5494
  127MOL0     H16706   6.238  10.035   0.517  1.7674 -3.6782 -1.0489
  127MOL0     H16707   5.946  10.009   0.623 -0.6290  0.9410  0.6217
  127MOL0     H16708   6.024  10.170   0.636 -0.8122 -0.8804 -0.3077
  127MOL0     H16709   5.966   9.984   0.407  0.4882 -0.1185 -0.4269
  127MOL0     H16710   6.080  10.119   0.366 -0.1271  4.0859 -0.4153
  127MOL0     H16711   5.918  10.296   0.435 -4.5408  1.8666 -1.4462
  127MOL0     H16712   5.807  10.176   0.494 -2.1280 -0.5291 -1.3564
  127MOL0     H16713   5.910  10.184   0.209  0.6970 -0.3377 -0.3070
  127MOL0     H16714   5.800  10.066   0.276 -1.7045  0.6909 -0.9245
  127MOL0     H16715   5.713  10.287   0.135 -2.2196 -1.5762  0.3915
  127MOL0     H16716   5.749  10.377   0.276  0.3491  0.5040 -0.4115
  127MOL0     H16717   5.549  10.022   0.223  0.4282  1.7276 -1.8739
  127MOL0     H16718   5.266  10.000   0.485 -1.9906 -0.7746 -2.1245
  127MOL0     H16719   5.393   9.893   0.452  0.1231  1.3946  1.8880
  127MOL0     H16720   5.338   9.892   0.207 -0.9000 -1.9254  1.6968
  127MOL0     H16721   5.273  10.045   0.215  0.9537 -0.9680 -1.9853
  127MOL0     H16722   5.079   9.958   0.338 -1.6293 -1.4724 -0.5552
  127MOL0     H16723   5.121   9.880   0.176 -0.0833 -1.1007  0.4564
  127MOL0     H16724   5.166   9.767   0.454 -2.5001 -1.5442  0.4153
  127MOL0     H16725   5.211   9.679   0.305  0.6987  0.9046 -0.6456
  127MOL0     H16726   5.144   9.580   0.554 -0.1488  2.6165  0.8072
  127MOL0     H16727   5.042   9.437   0.725  0.3379  2.6965  0.9635
  127MOL0     H16728   4.487   9.418   0.948 -0.6443 -0.0957  2.5135
  127MOL0     H16729   4.373   9.264   1.113 -0.5102 -2.1358  0.8002
  127MOL0     H16730   4.249   9.062   1.197 -0.4258 -1.5601  1.1694
  127MOL0     H16731   4.385   9.141   1.269 -2.6462 -0.0249  0.1020
  127MOL0     H16732   4.484   8.909   1.339 -0.5096 -1.5805  2.0898
  127MOL0     H16733   4.330   8.838   1.280 -0.9395  0.0081 -1.4892
  127MOL0     H16734   4.214   8.992   1.444  0.4684  1.2022 -1.8984
  127MOL0     H16735   4.377   9.036   1.505 -0.1612  0.2785 -1.7598
  127MOL0     H16736   4.236   8.759   1.510 -1.2920  0.1249  1.7182
  127MOL0     H16737   4.403   8.787   1.561 -1.7295 -2.9557  0.3975
  127MOL0     H16738   4.135   8.933   1.650  1.4224  1.0705 -4.2620
  127MOL0     H16739   4.288   8.943   1.743  0.9251 -2.4826  1.6306
  127MOL0     H16740   4.162   8.674   1.709 -2.9082 -0.2991  3.1847
  127MOL0     H16741   4.093   8.796   1.806  0.9571  3.2025  1.4182
  127MOL0     H16742   4.377   8.685   1.840 -2.6582 -1.6581 -4.3122
  127MOL0     H16743   4.313   8.828   1.926 -0.5096  1.0461  0.1985
  127MOL0     H16744   4.304   8.589   2.023  0.8883 -3.1865 -2.5455
  127MOL0     H16745   4.165   8.550   1.921  1.1036 -0.3795 -0.7310
  127MOL0     H16746   4.558   8.928   0.899  0.6170  0.5482 -3.0417
  127MOL0     H16747   4.683   9.083   0.762 -2.6571 -2.1542  0.3999
  127MOL0     H16748   4.657   9.487   0.536  0.1727  2.2007 -0.1509
  127MOL0     H16749   4.759   9.635   0.380  2.8281  1.0766 -0.4725
  127MOL0     H16750   6.440   9.723   0.471 -0.6087 -0.9113  0.5755
  127MOL0     H16751   6.634   9.712   0.344 -3.0243 -1.4781  0.8906
  127MOL0     H16752   7.246   9.669   0.547 -1.8668  0.7801  0.4988
  127MOL0     H16753   7.457   9.695   0.408  0.7266  2.0260 -0.7933
  127MOL0     H16754   7.625   9.706   0.287  0.5985 -0.5390 -0.9172
  127MOL0     H16755   7.672   9.707   0.128  1.0809 -0.5574  0.9671
  127MOL0     H16756   7.678   9.474   0.206  0.4724 -0.4150  1.4313
  127MOL0     H16757   7.514   9.491   0.268  0.9294 -1.2727  0.2832
  127MOL0     H16758   7.625   9.447  -0.004 -0.5416  2.4567 -0.1470
  127MOL0     H16759   7.465   9.507  -0.003  2.6338 -0.8300 -4.3622
  127MOL0     H16760   7.523   9.236   0.012  3.2721  0.9910 -0.5258
  127MOL0     H16761   7.517   9.265   0.183 -1.5263  2.4718  1.1458
  127MOL0     H16762   7.102   9.330   0.050 -0.7077  0.5929  0.9195
  127MOL0     H16763   7.239   9.815   0.069  0.0837 -2.0899 -0.9000
  127MOL0     H16764   7.038   9.777   0.168  1.8662 -1.1523 -1.6784
  128MOL0     O16765   6.435   4.501   6.599 -0.1909 -0.2022 -0.8203
  128MOL0     C16766   6.445   4.618   6.551  0.1352  0.3513  0.7327
  128MOL0     O16767   6.346   4.690   6.495 -0.3750 -0.5571 -0.9376
  128MOL0     C16768   6.209   4.664   6.519  0.2520  0.8518 -0.4377
  128MOL0     C16769   6.144   4.548   6.564 -0.0078 -0.6650 -0.2021
  128MOL0     C16770   6.009   4.540   6.581 -0.3557  0.3186 -1.1678
  128MOL0     C16771   5.927   4.649   6.556 -0.4339  0.0234  0.2183
  128MOL0     O16772   5.794   4.657   6.580  0.3123 -0.1696  0.1286
  128MOL0     C16773   5.727   4.532   6.542  0.0010  0.4920  0.5735
  128MOL0     C16774   5.574   4.561   6.555  0.2889 -0.2355  0.1696
  128MOL0     C16775   5.519   4.613   6.687  0.9558 -0.5658  0.4882
  128MOL0     C16776   5.364   4.638   6.680  0.4102  0.4553  1.0074
  128MOL0     C16777   5.303   4.686   6.818  0.1037 -0.0770  0.7037
  128MOL0     C16778   5.152   4.680   6.826  0.1459 -0.4380 -0.3519
  128MOL0     C16779   5.102   4.539   6.833 -0.6582 -0.0363  0.5682
  128MOL0     C16780   4.958   4.531   6.877  0.2701  0.1915  0.1007
  128MOL0     N16781   4.865   4.608   6.791 -0.0349 -0.2785 -0.6333
  128MOL0     C16782   4.847   4.567   6.658  0.0566 -0.1304  0.2217
  128MOL0     C16783   4.732   4.630   6.617  0.4467 -0.7117  0.3471
  128MOL0     C16784   4.647   4.622   6.491  0.6332  1.1985 -0.3328
  128MOL0     C16785   4.571   4.489   6.490  0.7882 -0.9011  0.1530
  128MOL0     C16786   4.418   4.508   6.540 -0.3451 -0.3208  0.6457
  128MOL0     C16787   4.424   4.528   6.694 -0.3720  0.4139  0.6789
  128MOL0     O16788   4.301   4.475   6.749 -0.8142 -0.3164 -0.2749
  128MOL0     C16789   4.200   4.557   6.715 -0.4130  0.3098  0.6509
  128MOL0     C16790   4.090   4.494   6.639 -0.6262  0.1263  0.3645
  128MOL0     C16791   3.994   4.587   6.592 -0.1566 -1.0713 -0.1240
  128MOL0     C16792   3.982   4.721   6.636 -0.7970 -0.6434 -0.2226
  128MOL0     C16793   3.865   4.805   6.592 -0.3078  0.5696  0.4592
  128MOL0     O16794   3.868   4.929   6.634  0.0785 -0.2205  0.1692
  128MOL0     C16795   3.751   5.007   6.618 -0.0930 -0.7230  0.8444
  128MOL0     C16796   3.765   5.133   6.558  0.4472  0.2852  0.3379
  128MOL0     C16797   3.652   5.214   6.529  0.2888  0.5220  0.5484
  128MOL0     C16798   3.530   5.177   6.579  0.4741 -0.5086  0.3376
  128MOL0     O16799   3.425   5.263   6.557 -0.5679 -0.2513  0.7467
  128MOL0     C16800   3.295   5.216   6.579 -0.3723  0.6546  0.1438
  128MOL0     C16801   3.184   5.311   6.558 -0.1468  0.2419 -0.6692
  128MOL0     C16802   3.203   5.379   6.422 -0.5089  0.1665 -0.1851
  128MOL0     C16803   3.070   5.456   6.388 -0.3917  0.1428 -1.2959
  128MOL0     C16804   3.065   5.489   6.244 -0.6737 -0.6157 -0.6853
  128MOL0     C16805   2.943   5.582   6.208  1.2773 -1.2610  0.6048
  128MOL0     C16806   2.946   5.605   6.056 -0.2850 -0.2430  0.1733
  128MOL0     C16807   2.841   5.700   6.011  0.5022 -0.0626 -0.3341
  128MOL0    Cl16808   2.817   5.679   5.840 -0.1701  0.1837 -0.2024
  128MOL0     C16809   3.514   5.049   6.644  0.2255 -0.0044  0.3104
  128MOL0     C16810   3.621   4.959   6.651  0.2879  0.7335 -0.1242
  128MOL0     O16811   3.777   4.748   6.526 -0.3545  0.4279 -0.2146
  128MOL0     C16812   4.082   4.773   6.710 -0.3772  0.2004 -0.8387
  128MOL0     C16813   4.183   4.687   6.750  0.0851 -0.5666 -0.0689
  128MOL0     N16814   4.686   4.714   6.726 -0.0642 -0.2316  1.1569
  128MOL0     N16815   4.769   4.703   6.824 -0.0838 -0.2146  0.0991
  128MOL0     C16816   5.989   4.774   6.522  0.6400 -0.3052 -0.6208
  128MOL0     C16817   6.129   4.774   6.495  0.0237 -0.4633  0.4168
  128MOL0     C16818   6.582   4.684   6.554  0.3721 -0.2185 -0.9009
  128MOL0     C16819   6.701   4.603   6.574 -0.0587 -0.0270 -0.8951
  128MOL0     C16820   6.827   4.658   6.573 -0.1299 -0.7675  0.2371
  128MOL0     C16821   6.845   4.797   6.562 -0.4729  0.6138 -0.0677
  128MOL0     O16822   6.975   4.846   6.574  0.0055  0.0297  0.1902
  128MOL0     C16823   7.085   4.776   6.508  0.3642 -0.6367  0.6320
  128MOL0     C16824   7.208   4.863   6.517  0.6785 -0.0166  0.0108
  128MOL0     C16825   7.262   4.894   6.655  0.7314 -0.2887 -0.5386
  128MOL0     C16826   7.274   4.765   6.738 -0.2482  0.1794  0.0056
  128MOL0     C16827   7.382   4.673   6.682  0.2517  0.5347  0.2279
  128MOL0     C16828   7.477   4.618   6.623 -0.0079 -0.5925 -1.5541
  128MOL0     C16829   6.733   4.870   6.555  1.1372  0.3067  1.2470
  128MOL0     C16830   6.607   4.817   6.542  1.4286  0.4324  0.1598
  128MOL0     H16831   6.195   4.453   6.578 -0.0790 -0.6510  0.1517
  128MOL0     H16832   5.966   4.451   6.625 -1.4582  1.5472  0.3746
  128MOL0     H16833   5.736   4.454   6.618 -2.4005 -0.5954 -0.1511
  128MOL0     H16834   5.744   4.498   6.439 -2.1716 -1.3709  0.7333
  128MOL0     H16835   5.519   4.470   6.527  0.8238 -1.0455  1.6394
  128MOL0     H16836   5.550   4.634   6.478 -1.6785 -0.1289  0.8406
  128MOL0     H16837   5.576   4.703   6.711 -0.6742  2.1434 -4.3628
  128MOL0     H16838   5.546   4.536   6.760 -5.3886 -2.5413  1.4151
  128MOL0     H16839   5.335   4.711   6.604 -2.9150 -1.7680 -0.0686
  128MOL0     H16840   5.323   4.540   6.656  1.7377  0.5229 -1.8882
  128MOL0     H16841   5.333   4.791   6.828 -1.9211  0.6822 -0.5501
  128MOL0     H16842   5.356   4.627   6.893  0.3812 -1.5021 -0.5759
  128MOL0     H16843   5.109   4.716   6.732 -2.6923  1.4690  1.5407
  128MOL0     H16844   5.111   4.729   6.915 -0.5615 -3.4999  1.1386
  128MOL0     H16845   5.121   4.491   6.737 -2.4352  2.3614 -1.0739
  128MOL0     H16846   5.166   4.488   6.906  1.7076  2.1107  0.1228
  128MOL0     H16847   4.942   4.566   6.979  0.0667  2.0328 -0.5279
  128MOL0     H16848   4.937   4.424   6.868 -1.1840  0.4807 -0.2495
  128MOL0     H16849   4.913   4.504   6.598  1.2262  0.5091  0.7935
  128MOL0     H16850   4.721   4.617   6.411 -1.7799  2.6562 -2.8171
  128MOL0     H16851   4.578   4.705   6.475 -1.5030 -0.3217  0.5826
  128MOL0     H16852   4.623   4.413   6.550  0.2161  1.7477  4.4572
  128MOL0     H16853   4.560   4.460   6.385 -2.2398  2.7034 -0.7562
  128MOL0     H16854   4.361   4.585   6.487  1.1063 -1.0145 -2.1372
  128MOL0     H16855   4.368   4.413   6.517  2.8256 -2.7099  2.7442
  128MOL0     H16856   4.448   4.632   6.717  0.5536 -0.1132  2.2081
  128MOL0     H16857   4.507   4.481   6.747  2.2079  2.7856 -1.0152
  128MOL0     H16858   4.091   4.389   6.615  1.8554  0.5329 -1.6799
  128MOL0     H16859   3.914   4.543   6.533 -1.6776  0.5636  0.6205
  128MOL0     H16860   3.868   5.146   6.528  0.8428 -1.7023  0.7350
  128MOL0     H16861   3.661   5.309   6.477  2.7437  1.4833  2.5498
  128MOL0     H16862   3.281   5.199   6.686 -0.1717 -1.7700 -0.1604
  128MOL0     H16863   3.281   5.127   6.518  0.0241 -0.3033  1.3913
  128MOL0     H16864   3.184   5.382   6.641  1.8634 -1.3745  0.8031
  128MOL0     H16865   3.093   5.251   6.552  1.6333 -2.4750 -2.3301
  128MOL0     H16866   3.217   5.304   6.343 -1.2530  0.5768 -0.7142
  128MOL0     H16867   3.293   5.441   6.417 -0.9487  0.7121 -2.6395
  128MOL0     H16868   2.984   5.392   6.411  0.5862 -0.8304 -0.1688
  128MOL0     H16869   3.064   5.546   6.450  1.6915 -0.0795 -0.6947
  128MOL0     H16870   3.054   5.390   6.198  0.9448 -2.0811  1.8474
  128MOL0     H16871   3.157   5.529   6.202 -2.1585  0.4748 -3.1061
  128MOL0     H16872   2.945   5.677   6.263 -0.8961 -0.7054 -0.1821
  128MOL0     H16873   2.842   5.547   6.231  0.0111  0.6031 -1.6136
  128MOL0     H16874   3.043   5.643   6.024 -0.4502 -1.7654 -2.3917
  128MOL0     H16875   2.934   5.510   6.002  1.0965 -1.3470  1.6792
  128MOL0     H16876   2.853   5.802   6.050 -0.4898 -0.2649  0.5607
  128MOL0     H16877   2.750   5.660   6.056  1.1419 -0.0624  1.0132
  128MOL0     H16878   3.423   5.033   6.701 -0.6736  1.2271 -0.7327
  128MOL0     H16879   3.621   4.863   6.701 -0.6076  0.8304  0.0884
  128MOL0     H16880   4.075   4.879   6.732  0.1552  0.0187  0.2860
  128MOL0     H16881   4.261   4.728   6.813  0.0540 -2.2301  1.1148
  128MOL0     H16882   5.927   4.863   6.525 -0.7046 -1.1892  3.0729
  128MOL0     H16883   6.188   4.860   6.465  0.2345 -0.8419 -0.2700
  128MOL0     H16884   6.690   4.499   6.605 -1.8352 -0.1158 -1.6929
  128MOL0     H16885   6.909   4.587   6.585  0.4671  0.1649  1.8023
  128MOL0     H16886   7.064   4.759   6.402  0.4729 -2.4244  0.8581
  128MOL0     H16887   7.102   4.680   6.559  1.5240 -1.9464 -2.0117
  128MOL0     H16888   7.284   4.817   6.453 -0.0295  0.2054 -1.0074
  128MOL0     H16889   7.182   4.957   6.469 -2.7560  0.8712  3.1409
  128MOL0     H16890   7.193   4.957   6.714  1.9183  0.2065  0.3571
  128MOL0     H16891   7.358   4.945   6.654  0.9345 -0.4908  1.9364
  128MOL0     H16892   7.307   4.777   6.842 -1.3857 -0.0695  0.4042
  128MOL0     H16893   7.176   4.719   6.753 -0.3567 -0.2021 -1.7383
  128MOL0     H16894   7.556   4.583   6.560  0.5223  0.0547 -1.2692
  128MOL0     H16895   6.743   4.978   6.556  0.4255  0.5638 -2.7580
  128MOL0     H16896   6.519   4.878   6.523  0.6458 -0.6700  0.1250
  129MOL0     O16897   9.814   9.976   1.554 -0.2824 -0.4633 -1.4235
  129MOL0     C16898   9.752   9.890   1.620 -0.3182  0.2589  1.2846
  129MOL0     O16899   9.645   9.912   1.694 -0.2084  0.4394 -0.4721
  129MOL0     C16900   9.624  10.035   1.746 -0.8443  0.4955 -0.7569
  129MOL0     C16901   9.490  10.070   1.760  0.4571 -0.2385 -0.1400
  129MOL0     C16902   9.445  10.189   1.816 -0.0377  0.4638  0.1803
  129MOL0     C16903   9.541  10.285   1.839  0.4659 -0.6290  0.5131
  129MOL0     O16904   9.501  10.401   1.884  1.0841 -0.5159  0.5352
  129MOL0     C16905   9.579  10.480   1.975  0.2424 -0.1767  0.5646
  129MOL0     C16906   9.481  10.562   2.058  0.3468  0.0327 -0.4326
  129MOL0     C16907   9.562  10.678   2.122  0.0870  0.1950 -0.0266
  129MOL0     C16908   9.480  10.758   2.221 -0.7088 -0.1983 -0.3771
  129MOL0     C16909   9.555  10.866   2.288  0.1804  0.1326 -0.4802
  129MOL0     C16910   9.464  10.933   2.395  0.2679  0.1263 -0.0894
  129MOL0     C16911   9.532  11.044   2.466 -0.9133  0.3566  0.6832
  129MOL0     C16912   9.549  11.173   2.378 -0.3663 -0.1903  0.4224
  129MOL0     N16913   9.428  11.234   2.333 -0.3923  0.2805 -0.5549
  129MOL0     C16914   9.409  11.290   2.213 -0.3477  0.3197 -0.6823
  129MOL0     C16915   9.285  11.341   2.217  0.1431  0.2551 -0.5733
  129MOL0     C16916   9.213  11.415   2.102  0.4046  0.2620  0.1234
  129MOL0     C16917   9.081  11.362   2.047  1.1750 -0.6814 -0.1847
  129MOL0     C16918   9.077  11.220   1.982 -0.5415 -0.0320  0.0515
  129MOL0     C16919   8.955  11.189   1.911  0.3571  0.2540  0.3593
  129MOL0     O16920   8.843  11.201   1.998  0.5939  0.6862  0.0538
  129MOL0     C16921   8.805  11.093   2.075  0.4072 -0.2711  0.5567
  129MOL0     C16922   8.868  10.976   2.080  0.0568  0.9243  0.3985
  129MOL0     C16923   8.818  10.863   2.156  0.0449 -0.4191  0.0372
  129MOL0     C16924   8.690  10.886   2.219  0.7499  0.1843  0.3222
  129MOL0     C16925   8.621  10.780   2.291  0.1471  0.0379  0.4270
  129MOL0     O16926   8.640  10.666   2.226  0.6274  0.4451  0.6059
  129MOL0     C16927   8.545  10.570   2.219  0.5107  0.0515  0.1546
  129MOL0     C16928   8.581  10.435   2.252 -1.5989  0.3454  0.4480
  129MOL0     C16929   8.502  10.328   2.223  0.3017  0.2102 -0.1218
  129MOL0     C16930   8.377  10.351   2.162 -1.1570  0.8480  0.3952
  129MOL0     O16931   8.313  10.233   2.142  0.2430  0.6250 -0.0553
  129MOL0     C16932   8.172  10.255   2.123  0.6370 -0.6157  0.6802
  129MOL0     C16933   8.112  10.115   2.099 -0.1806  0.0165  0.6391
  129MOL0     C16934   7.965  10.122   2.062  0.1560  0.5747  0.4833
  129MOL0     C16935   7.914   9.975   2.038  0.0815 -0.4463  1.0054
  129MOL0     C16936   7.762   9.967   2.032 -0.4324 -0.4798  0.3199
  129MOL0     C16937   7.683  10.068   1.950 -0.3314 -0.0319  0.1889
  129MOL0     C16938   7.716  10.068   1.797 -0.0545  0.4264 -0.2607
  129MOL0     C16939   7.661   9.949   1.711  0.3498 -0.6055 -0.3817
  129MOL0    Cl16940   7.614  10.010   1.550  0.2425 -0.0919 -0.3903
  129MOL0     C16941   8.329  10.481   2.152  0.4127  0.0001 -0.1799
  129MOL0     C16942   8.415  10.592   2.173  0.4940  1.2601 -0.6875
  129MOL0     O16943   8.543  10.794   2.387 -0.0836 -0.1599 -0.6422
  129MOL0     C16944   8.633  11.014   2.212  0.0567  0.9004  0.3717
  129MOL0     C16945   8.700  11.119   2.151  0.2229 -0.0987  0.4307
  129MOL0     N16946   9.230  11.323   2.345 -0.4079 -0.6600 -0.0873
  129MOL0     N16947   9.317  11.257   2.411 -0.1369  0.1500  0.2726
  129MOL0     C16948   9.680  10.259   1.821 -0.3153 -0.0347  0.6930
  129MOL0     C16949   9.720  10.128   1.792  0.1231  0.1651 -1.0265
  129MOL0     C16950   9.805   9.751   1.615  0.5837  0.0116  0.1869
  129MOL0     C16951   9.720   9.637   1.621 -0.9066  1.2753  0.5581
  129MOL0     C16952   9.763   9.507   1.579 -1.0122 -0.2828  0.0394
  129MOL0     C16953   9.901   9.488   1.554 -0.0886  0.4570 -0.0167
  129MOL0     O16954   9.946   9.363   1.511  0.1003  0.1669  0.9316
  129MOL0     C16955  10.088   9.334   1.496  0.2289  0.1204  0.0733
  129MOL0     C16956  10.105   9.193   1.427  0.6015  0.2030  0.4844
  129MOL0     C16957   9.998   9.158   1.324 -0.4446 -0.4762 -0.3206
  129MOL0     C16958   9.985   9.252   1.201 -0.5588 -0.7438 -0.1153
  129MOL0     C16959   9.953   9.185   1.075  0.7525  0.1050 -0.6101
  129MOL0     C16960   9.913   9.127   0.983 -0.4515  0.9515 -0.9615
  129MOL0     C16961   9.985   9.606   1.548  0.2829  0.2921  0.6727
  129MOL0     C16962   9.936   9.731   1.586 -0.0618  0.1653 -0.2346
  129MOL0     H16963   9.421   9.998   1.718  0.6601 -0.7999  0.4671
  129MOL0     H16964   9.339  10.212   1.818 -0.4795 -1.4589  0.5144
  129MOL0     H16965   9.640  10.549   1.915 -1.7688  0.1079 -1.3188
  129MOL0     H16966   9.646  10.427   2.043 -0.8217 -1.5100  0.5970
  129MOL0     H16967   9.436  10.499   2.135  2.1418 -1.3553 -0.4423
  129MOL0     H16968   9.402  10.602   1.994  2.0430  1.0477 -1.9753
  129MOL0     H16969   9.596  10.741   2.039 -2.3852  0.5823 -0.8209
  129MOL0     H16970   9.652  10.634   2.167 -0.4801  0.2873  1.2555
  129MOL0     H16971   9.394  10.789   2.161 -0.4314 -0.0183 -0.6760
  129MOL0     H16972   9.444  10.693   2.302 -2.1173 -3.0921 -3.1437
  129MOL0     H16973   9.587  10.938   2.212  1.4149  1.8531  1.5477
  129MOL0     H16974   9.643  10.826   2.339 -0.4893  1.8600  2.2607
  129MOL0     H16975   9.437  10.854   2.466  0.2369 -2.4673 -2.7620
  129MOL0     H16976   9.378  10.980   2.348 -1.0118 -0.8328  1.2003
  129MOL0     H16977   9.466  11.064   2.551  1.0386  1.3221  2.0380
  129MOL0     H16978   9.626  11.008   2.509 -1.5166 -2.2164  0.0388
  129MOL0     H16979   9.606  11.140   2.291 -0.4175  1.0289 -0.0976
  129MOL0     H16980   9.605  11.245   2.439  0.7760  0.4311 -1.2766
  129MOL0     H16981   9.490  11.279   2.141 -0.6389 -0.9950 -0.8377
  129MOL0     H16982   9.276  11.422   2.012 -0.7657  1.8150 -0.6331
  129MOL0     H16983   9.199  11.514   2.148 -0.1604  0.6464 -0.8432
  129MOL0     H16984   9.059  11.439   1.972  2.3317 -0.6948 -0.5568
  129MOL0     H16985   8.999  11.380   2.117  2.1033 -1.0244  1.0259
  129MOL0     H16986   9.165  11.207   1.918 -0.9696 -0.7474 -0.4164
  129MOL0     H16987   9.092  11.155   2.069  0.9586 -0.3851 -0.4344
  129MOL0     H16988   8.954  11.095   1.855 -1.6874 -1.0644  2.4290
  129MOL0     H16989   8.940  11.265   1.833  1.5676  0.4415  0.2969
  129MOL0     H16990   8.956  10.971   2.017 -1.0240 -1.2521 -1.0556
  129MOL0     H16991   8.875  10.771   2.160 -0.6223 -0.8353  0.2701
  129MOL0     H16992   8.675  10.400   2.293 -1.6041 -2.9596 -1.9678
  129MOL0     H16993   8.527  10.224   2.239  2.0071  0.9355  2.6822
  129MOL0     H16994   8.149  10.316   2.035  0.0918 -0.8815  0.6327
  129MOL0     H16995   8.127  10.299   2.212 -1.2954  2.3626 -1.5816
  129MOL0     H16996   8.128  10.054   2.189 -2.2809 -1.1084  0.3158
  129MOL0     H16997   8.155  10.050   2.022 -0.6406  0.0346  0.3628
  129MOL0     H16998   7.941  10.185   1.976 -5.2773  0.9453  1.8782
  129MOL0     H16999   7.909  10.162   2.147  0.5837  0.2276  0.9394
  129MOL0     H17000   7.969   9.931   1.954  0.8660 -1.1814  1.8897
  129MOL0     H17001   7.946   9.916   2.124  1.7009 -0.1477  0.6344
  129MOL0     H17002   7.731   9.982   2.136 -1.2985 -0.1000  0.0147
  129MOL0     H17003   7.737   9.866   1.998  2.0111 -0.5053 -1.6709
  129MOL0     H17004   7.699  10.167   1.993  1.6335  0.8715 -2.3861
  129MOL0     H17005   7.578  10.038   1.960 -0.0414 -1.4709 -0.7515
  129MOL0     H17006   7.687  10.164   1.755  2.8143  1.5179  0.0214
  129MOL0     H17007   7.825  10.077   1.792 -0.1852  1.4221 -2.0845
  129MOL0     H17008   7.566   9.907   1.746 -0.5205  0.7167 -1.0930
  129MOL0     H17009   7.743   9.876   1.709  0.8833 -0.0273  0.2011
  129MOL0     H17010   8.241  10.506   2.094  0.2032 -1.6591 -0.6147
  129MOL0     H17011   8.388  10.694   2.150 -2.5011  0.8304  0.4608
  129MOL0     H17012   8.529  11.029   2.236 -1.5987 -3.3079 -2.8172
  129MOL0     H17013   8.649  11.215   2.153 -0.4447 -0.4486  0.3275
  129MOL0     H17014   9.748  10.338   1.853 -2.0108  1.3260  1.0883
  129MOL0     H17015   9.827  10.115   1.779 -0.1143 -2.9224 -0.6199
  129MOL0     H17016   9.620   9.655   1.660 -0.8660  1.3615  0.6245
  129MOL0     H17017   9.691   9.427   1.576 -2.9921  1.4527 -1.1032
  129MOL0     H17018  10.152   9.337   1.585  1.1183  0.9979 -0.5677
  129MOL0     H17019  10.133   9.399   1.420  0.6623 -0.4418 -0.1549
  129MOL0     H17020  10.204   9.173   1.386  0.3496 -2.8054  1.0723
  129MOL0     H17021  10.094   9.124   1.511  4.2911  0.3218  1.2010
  129MOL0     H17022   9.908   9.156   1.386  0.3881 -1.8064  0.9102
  129MOL0     H17023  10.013   9.054   1.293 -0.0664 -0.4135 -0.3618
  129MOL0     H17024   9.910   9.329   1.223  0.6464 -0.1130  2.1883
  129MOL0     H17025  10.076   9.311   1.188 -0.2793 -1.0032  0.5678
  129MOL0     H17026   9.857   9.081   0.904 -0.4130 -0.9435  0.0640
  129MOL0     H17027  10.087   9.601   1.511  1.7133  0.2445  4.1813
  129MOL0     H17028  10.019   9.801   1.591  0.1742 -0.1187 -0.1509
  130MOL0     O17029   7.337   3.584   7.532 -0.3043  0.1514  0.1676
  130MOL0     C17030   7.262   3.507   7.466  0.2885 -0.0165  0.0670
  130MOL0     O17031   7.164   3.559   7.377  0.4265 -0.3382  0.3715
  130MOL0     C17032   7.122   3.693   7.374  0.1769  0.7847 -0.1846
  130MOL0     C17033   7.178   3.799   7.440  0.0862  0.5585  0.4979
  130MOL0     C17034   7.121   3.930   7.426 -0.8957 -0.1127 -0.2002
  130MOL0     C17035   7.013   3.958   7.347 -0.2051 -0.3915 -0.2959
  130MOL0     O17036   6.970   4.092   7.339 -0.3610 -0.1907  0.4700
  130MOL0     C17037   7.037   4.201   7.408 -0.0776  0.0090 -0.1621
  130MOL0     C17038   6.962   4.334   7.370  0.2910 -0.0260  0.9369
  130MOL0     C17039   6.811   4.330   7.399 -0.0129  0.7109  0.6165
  130MOL0     C17040   6.737   4.454   7.372 -0.2009 -0.4307  0.5026
  130MOL0     C17041   6.598   4.478   7.435 -0.6512 -0.8901 -0.4778
  130MOL0     C17042   6.520   4.578   7.356  0.3322  0.2215  0.6355
  130MOL0     C17043   6.380   4.596   7.423 -0.3990  0.2756  0.5385
  130MOL0     C17044   6.278   4.508   7.348 -0.3372  0.1695 -0.0079
  130MOL0     N17045   6.143   4.532   7.386  0.3920 -0.8299  0.2300
  130MOL0     C17046   6.060   4.616   7.316  0.8012 -0.0581 -0.2310
  130MOL0     C17047   5.935   4.597   7.363 -0.3413  0.4140  0.8505
  130MOL0     C17048   5.814   4.666   7.315  0.8589 -0.7022 -0.3789
  130MOL0     C17049   5.809   4.803   7.373  0.6180 -0.1945  0.1442
  130MOL0     C17050   5.665   4.872   7.364  0.0441 -0.2980  0.0141
  130MOL0     C17051   5.670   5.007   7.422  0.3628 -0.0789  0.0204
  130MOL0     O17052   5.579   5.020   7.529 -0.3439  0.1315 -0.0583
  130MOL0     C17053   5.443   5.057   7.507  0.4254 -0.4757  0.8225
  130MOL0     C17054   5.414   5.171   7.421  0.7170 -0.1354  0.1518
  130MOL0     C17055   5.277   5.194   7.390 -0.1078  0.7354  0.2976
  130MOL0     C17056   5.181   5.123   7.460 -0.0318  0.4212  0.4763
  130MOL0     C17057   5.036   5.160   7.435  0.0276  0.5681 -0.0326
  130MOL0     O17058   5.021   5.270   7.362  0.2077 -0.1654  0.1758
  130MOL0     C17059   4.911   5.341   7.340  0.9584 -0.4972  0.4376
  130MOL0     C17060   4.788   5.330   7.404  0.0684 -0.1096  0.1624
  130MOL0     C17061   4.673   5.397   7.370  0.2654 -0.1453 -0.1661
  130MOL0     C17062   4.672   5.481   7.253  0.4473 -0.2491  0.9922
  130MOL0     O17063   4.557   5.543   7.226 -0.4512 -0.0684 -0.7233
  130MOL0     C17064   4.573   5.669   7.166 -0.0046 -0.5105 -0.0907
  130MOL0     C17065   4.435   5.740   7.165 -0.1879 -0.0601 -0.3149
  130MOL0     C17066   4.418   5.846   7.060 -0.2517 -0.4751 -0.6969
  130MOL0     C17067   4.288   5.920   7.108 -0.1909  0.4523 -0.8399
  130MOL0     C17068   4.252   6.036   7.013  0.1211  0.5123 -0.1192
  130MOL0     C17069   4.106   6.094   7.027  0.2036 -0.7885 -0.2702
  130MOL0     C17070   4.104   6.195   7.144  0.0817  0.0478 -0.3418
  130MOL0     C17071   3.957   6.239   7.190  0.5279 -0.2061 -0.2751
  130MOL0    Cl17072   3.857   6.318   7.059 -0.0524 -0.2656  0.0126
  130MOL0     C17073   4.791   5.488   7.179  0.0979  0.2229 -0.1328
  130MOL0     C17074   4.907   5.422   7.220 -0.0743  1.3915 -0.3804
  130MOL0     O17075   4.950   5.100   7.500  0.2073  0.4333  0.4449
  130MOL0     C17076   5.214   5.020   7.541 -0.3208 -0.0107 -0.5815
  130MOL0     C17077   5.346   4.985   7.565  0.1111 -0.3971 -0.3029
  130MOL0     N17078   5.943   4.495   7.458  0.7333 -0.7103 -0.1228
  130MOL0     N17079   6.066   4.454   7.470 -0.1597 -0.0633  0.4990
  130MOL0     C17080   6.969   3.852   7.265  0.2031 -0.2250 -1.1011
  130MOL0     C17081   7.014   3.718   7.286 -0.7673 -1.0170  0.8699
  130MOL0     C17082   7.258   3.354   7.500 -1.2984 -0.3899 -0.1835
  130MOL0     C17083   7.154   3.274   7.459 -0.1791  0.1995 -0.2877
  130MOL0     C17084   7.154   3.138   7.506 -0.8766 -0.6034  0.4881
  130MOL0     C17085   7.239   3.089   7.605  0.1736 -1.0593 -0.1832
  130MOL0     O17086   7.202   2.967   7.657 -0.4889  0.9839  1.0538
  130MOL0     C17087   7.282   2.909   7.763 -0.4467 -0.2479  0.5434
  130MOL0     C17088   7.196   2.791   7.825  0.0112 -0.0081 -0.2273
  130MOL0     C17089   7.155   2.685   7.722  0.7231  0.2408  0.5500
  130MOL0     C17090   7.254   2.567   7.723 -0.0824 -0.0108 -0.3569
  130MOL0     C17091   7.194   2.463   7.637 -0.3359  1.0176  0.2084
  130MOL0     C17092   7.151   2.375   7.571  0.5707  0.2985  0.8554
  130MOL0     C17093   7.336   3.174   7.639  0.2662 -0.2023  0.2261
  130MOL0     C17094   7.355   3.308   7.589 -0.4648  0.2730 -0.4755
  130MOL0     H17095   7.260   3.796   7.512  0.2121 -1.5352  0.3180
  130MOL0     H17096   7.171   4.009   7.479 -0.9168 -0.0571 -0.2628
  130MOL0     H17097   7.144   4.217   7.398 -0.3453  1.1979 -1.3293
  130MOL0     H17098   7.032   4.183   7.516 -1.1467 -0.9486 -0.3477
  130MOL0     H17099   6.972   4.358   7.264 -1.2857  0.3829  0.8466
  130MOL0     H17100   7.003   4.416   7.430 -1.8658 -0.7304  3.5872
  130MOL0     H17101   6.812   4.299   7.504 -0.0328 -1.7839 -0.0468
  130MOL0     H17102   6.762   4.241   7.358 -2.6770  0.7641  3.3196
  130MOL0     H17103   6.797   4.533   7.419  0.7873 -1.8527  1.7387
  130MOL0     H17104   6.733   4.478   7.266  0.4368 -2.9287 -0.1452
  130MOL0     H17105   6.621   4.517   7.535 -1.6198 -0.6686 -0.3268
  130MOL0     H17106   6.549   4.381   7.443 -0.3141 -1.0108  0.2768
  130MOL0     H17107   6.510   4.549   7.251 -1.7328 -0.4676  0.9598
  130MOL0     H17108   6.569   4.675   7.367 -0.0074  0.4713 -0.0310
  130MOL0     H17109   6.382   4.574   7.530 -1.1757 -4.4810 -0.1902
  130MOL0     H17110   6.331   4.693   7.406  0.1276  0.9543  2.6518
  130MOL0     H17111   6.287   4.399   7.347  0.4258  0.2030  1.0747
  130MOL0     H17112   6.283   4.542   7.244 -1.6334  1.8337  0.4313
  130MOL0     H17113   6.070   4.671   7.222  0.2590  0.6494  0.1149
  130MOL0     H17114   5.721   4.611   7.334  0.6124  0.0083  0.5240
  130MOL0     H17115   5.827   4.670   7.206 -0.5237  0.4874 -0.5310
  130MOL0     H17116   5.884   4.863   7.319 -0.2014  2.5507  1.8363
  130MOL0     H17117   5.845   4.805   7.476  1.2152 -1.2956 -0.0286
  130MOL0     H17118   5.626   4.857   7.262  1.4542 -1.9514 -0.3242
  130MOL0     H17119   5.598   4.812   7.425  0.1405 -2.1068 -1.5708
  130MOL0     H17120   5.653   5.078   7.341  2.0435  1.1251  0.6701
  130MOL0     H17121   5.767   5.028   7.467  0.7761 -4.0459  1.3535
  130MOL0     H17122   5.490   5.226   7.366  2.1832 -2.3510 -0.1704
  130MOL0     H17123   5.244   5.258   7.309 -1.0433  0.3754  0.3878
  130MOL0     H17124   4.775   5.268   7.492 -0.0431  1.9695  1.7006
  130MOL0     H17125   4.584   5.399   7.431  0.2323  1.8686 -0.2176
  130MOL0     H17126   4.600   5.655   7.061  2.9685  0.2816  0.4550
  130MOL0     H17127   4.644   5.732   7.220 -0.8936 -1.1768  1.9561
  130MOL0     H17128   4.426   5.790   7.262  0.7476  0.0977 -0.3015
  130MOL0     H17129   4.353   5.671   7.143 -0.3574  0.2168 -0.5657
  130MOL0     H17130   4.398   5.809   6.959  1.5303 -2.1087 -0.5071
  130MOL0     H17131   4.508   5.908   7.068 -1.1756  0.6440  2.7955
  130MOL0     H17132   4.212   5.842   7.096  1.0206 -0.6423 -1.7505
  130MOL0     H17133   4.296   5.956   7.211  0.2008 -0.0826 -0.6816
  130MOL0     H17134   4.251   5.990   6.914 -1.7000  1.4786 -0.5956
  130MOL0     H17135   4.328   6.114   7.005  2.6426 -1.9873 -2.2647
  130MOL0     H17136   4.028   6.017   7.028  0.2904 -0.9020  1.9118
  130MOL0     H17137   4.096   6.155   6.936  2.3812  0.4822  0.2722
  130MOL0     H17138   4.153   6.152   7.232  0.7180  1.3968 -0.0043
  130MOL0     H17139   4.172   6.279   7.123  2.5827 -1.3442  1.5832
  130MOL0     H17140   3.968   6.308   7.274  1.6807  0.6068 -1.0604
  130MOL0     H17141   3.918   6.142   7.223  4.3134 -0.3744  4.8996
  130MOL0     H17142   4.797   5.544   7.086 -3.9461  3.5302  1.2714
  130MOL0     H17143   5.003   5.431   7.170  0.3707  0.0755  0.2116
  130MOL0     H17144   5.142   4.953   7.587  0.8361 -1.0441 -0.1962
  130MOL0     H17145   5.377   4.892   7.611  1.8041  1.1902  2.0018
  130MOL0     H17146   6.878   3.868   7.208 -1.9669  2.2023  2.5903
  130MOL0     H17147   6.972   3.637   7.228 -2.4366  0.3666  0.0488
  130MOL0     H17148   7.072   3.314   7.401 -2.1034 -1.5949  1.0453
  130MOL0     H17149   7.072   3.075   7.473 -0.2171 -0.8324 -0.7556
  130MOL0     H17150   7.307   2.980   7.842 -3.2094  2.1768 -0.5803
  130MOL0     H17151   7.376   2.866   7.725 -1.5751 -1.0068 -1.5711
  130MOL0     H17152   7.243   2.753   7.917  0.9372  0.6379 -0.4178
  130MOL0     H17153   7.101   2.841   7.845  0.9299  1.0109  1.9257
  130MOL0     H17154   7.154   2.717   7.617  1.7574 -1.8768 -0.1505
  130MOL0     H17155   7.051   2.658   7.745  0.1038  1.4688 -0.6093
  130MOL0     H17156   7.357   2.597   7.701 -0.2333  2.2898  1.6591
  130MOL0     H17157   7.263   2.526   7.824  2.7564  0.5489 -0.2785
  130MOL0     H17158   7.106   2.300   7.509  1.5587  1.7196 -1.7001
  130MOL0     H17159   7.400   3.138   7.719 -1.1396 -1.1025  0.9932
  130MOL0     H17160   7.421   3.384   7.630 -1.4813  1.3321 -0.7400
  131MOL0     O17161  11.102   5.156   1.564  0.2145  0.3475  0.1085
  131MOL0     C17162  11.065   5.258   1.503  0.0671  0.2401 -0.1163
  131MOL0     O17163  10.938   5.310   1.516 -0.6373  0.2804  0.2464
  131MOL0     C17164  10.853   5.242   1.599 -0.1402 -0.0250  0.4248
  131MOL0     C17165  10.781   5.126   1.562 -0.5727 -0.5475 -0.8519
  131MOL0     C17166  10.681   5.079   1.659 -0.0048 -0.6959 -0.3291
  131MOL0     C17167  10.657   5.155   1.771  1.3873 -0.3450 -0.1932
  131MOL0     O17168  10.553   5.113   1.860  0.4029  0.4740 -0.1533
  131MOL0     C17169  10.494   5.210   1.953 -0.8841  0.5225 -0.5346
  131MOL0     C17170  10.378   5.145   2.022  0.5981  0.1299  0.5280
  131MOL0     C17171  10.291   5.061   1.917 -0.0241  0.5248  0.2972
  131MOL0     C17172  10.162   5.008   1.977 -0.8505 -1.1396  0.3716
  131MOL0     C17173  10.047   5.017   1.886 -0.4414  0.4905  0.9259
  131MOL0     C17174   9.933   4.929   1.941 -0.7695  0.1296 -0.5338
  131MOL0     C17175   9.790   4.937   1.882  0.3195 -0.2848 -0.0282
  131MOL0     C17176   9.787   4.927   1.725 -0.1126  0.4823 -0.7649
  131MOL0     N17177   9.649   4.901   1.678 -0.5241 -0.4387 -0.2211
  131MOL0     C17178   9.589   4.965   1.571  0.3868  0.1099 -0.3791
  131MOL0     C17179   9.478   4.896   1.539 -0.2245 -0.4670 -0.4125
  131MOL0     C17180   9.378   4.906   1.423  0.2410 -0.1873 -0.7383
  131MOL0     C17181   9.241   4.905   1.485  0.2155 -0.0389 -0.2936
  131MOL0     C17182   9.132   4.973   1.398  0.4114 -0.2264  0.3689
  131MOL0     C17183   9.110   4.882   1.275  1.4902 -0.5390 -0.3188
  131MOL0     O17184   9.031   4.777   1.326 -0.2848  0.3512  0.1000
  131MOL0     C17185   8.897   4.783   1.295  0.2455  0.1637 -0.5512
  131MOL0     C17186   8.831   4.896   1.248  0.4110  0.4579 -0.7793
  131MOL0     C17187   8.702   4.885   1.199  0.2515  0.5987  0.0405
  131MOL0     C17188   8.631   4.764   1.201  0.7351 -0.4538 -0.8502
  131MOL0     C17189   8.487   4.777   1.158  0.4635 -0.0704 -0.2136
  131MOL0     O17190   8.404   4.673   1.178 -0.3347 -0.1065  0.4423
  131MOL0     C17191   8.280   4.708   1.202  0.9491 -0.4948 -0.0981
  131MOL0     C17192   8.236   4.732   1.331  0.5440  0.6107  0.2308
  131MOL0     C17193   8.103   4.776   1.362  0.2425  0.3074 -0.1439
  131MOL0     C17194   8.002   4.783   1.267 -0.2448  0.3009  0.0842
  131MOL0     O17195   7.874   4.801   1.302  0.5048 -0.3568  0.1476
  131MOL0     C17196   7.834   4.801   1.440 -0.7244  0.5645  0.7322
  131MOL0     C17197   7.680   4.797   1.449  0.0449  0.0715 -0.0586
  131MOL0     C17198   7.622   4.939   1.434 -0.4607 -1.0560 -0.3844
  131MOL0     C17199   7.466   4.956   1.439  1.0559  0.7792 -0.4572
  131MOL0     C17200   7.400   4.925   1.569 -0.7793  0.5481  0.6695
  131MOL0     C17201   7.270   5.011   1.562  0.0545 -0.4414 -0.0519
  131MOL0     C17202   7.182   4.981   1.687 -0.2937  0.1213  0.6511
  131MOL0     C17203   7.048   5.056   1.680 -0.6561  0.7208  0.5307
  131MOL0    Cl17204   6.948   5.039   1.835 -0.5711  0.0542 -0.2115
  131MOL0     C17205   8.045   4.738   1.138  0.7059  0.4057 -0.2164
  131MOL0     C17206   8.182   4.705   1.105  0.1980  1.0396 -0.1731
  131MOL0     O17207   8.448   4.887   1.121 -0.0272  0.0214  1.7017
  131MOL0     C17208   8.697   4.650   1.247 -0.2735  1.2069 -0.4290
  131MOL0     C17209   8.829   4.664   1.304 -0.0804 -0.2621  0.3966
  131MOL0     N17210   9.471   4.798   1.633  0.1782  0.2201 -0.0951
  131MOL0     N17211   9.567   4.803   1.719 -0.3900  0.3612  1.2192
  131MOL0     C17212  10.737   5.267   1.804 -0.0671  0.3410 -0.3845
  131MOL0     C17213  10.824   5.320   1.712  0.9296 -0.3627  0.1117
  131MOL0     C17214  11.154   5.338   1.424  0.0011 -0.3372  0.0022
  131MOL0     C17215  11.115   5.468   1.393  0.2483 -0.2861 -0.3887
  131MOL0     C17216  11.188   5.555   1.312  0.2142  0.3777  0.4274
  131MOL0     C17217  11.311   5.503   1.270 -0.1985  0.0623  0.0132
  131MOL0     O17218  11.396   5.566   1.188 -0.2334  0.4581 -0.4362
  131MOL0     C17219  11.364   5.698   1.137 -0.0639  1.0113 -0.4089
  131MOL0     C17220  11.473   5.757   1.051 -0.3667  0.2844 -0.5739
  131MOL0     C17221  11.587   5.827   1.140 -0.6585 -0.2139  0.0561
  131MOL0     C17222  11.712   5.859   1.051  0.7397  0.4113 -0.7810
  131MOL0     C17223  11.789   5.730   1.037  1.0952 -0.7008  0.5433
  131MOL0     C17224  11.850   5.625   1.011  0.2264  0.0046 -0.6533
  131MOL0     C17225  11.361   5.377   1.313 -0.2170 -0.4696  0.1270
  131MOL0     C17226  11.274   5.292   1.374  0.1474  0.3473 -1.0392
  131MOL0     H17227  10.809   5.087   1.465 -1.2618 -0.1819 -1.2137
  131MOL0     H17228  10.614   4.994   1.649  0.4967 -1.4463  1.9824
  131MOL0     H17229  10.472   5.304   1.902 -1.1957  1.2017  0.8148
  131MOL0     H17230  10.563   5.232   2.035 -1.0534  1.3111 -0.5960
  131MOL0     H17231  10.318   5.227   2.061  1.1830  0.9533 -0.2554
  131MOL0     H17232  10.416   5.078   2.099  0.8191  2.2476  2.3564
  131MOL0     H17233  10.340   4.979   1.864  0.2962  1.6702 -1.2438
  131MOL0     H17234  10.265   5.133   1.840  2.0521  1.8770  0.7978
  131MOL0     H17235  10.173   4.908   2.020  0.5248 -1.6103 -0.9947
  131MOL0     H17236  10.147   5.084   2.054 -2.6969  3.0390 -3.6496
  131MOL0     H17237  10.075   4.970   1.792  0.3289  0.7928  0.9961
  131MOL0     H17238  10.017   5.121   1.867 -0.2790  0.9837  3.0886
  131MOL0     H17239   9.914   4.969   2.042 -1.7286 -1.7618  0.0881
  131MOL0     H17240   9.959   4.824   1.950 -1.1694 -0.1201 -2.0726
  131MOL0     H17241   9.734   4.856   1.929 -0.7816  1.9437  2.8344
  131MOL0     H17242   9.746   5.027   1.925  1.9557  1.4320 -1.6902
  131MOL0     H17243   9.860   4.853   1.691  1.9391  2.5347 -1.0719
  131MOL0     H17244   9.821   5.022   1.683  2.3286  0.5106  1.0063
  131MOL0     H17245   9.639   5.023   1.494  0.7067 -1.7227 -1.6298
  131MOL0     H17246   9.384   4.816   1.361 -3.0685 -1.2064  0.2292
  131MOL0     H17247   9.389   4.996   1.361  0.2910 -0.6014 -1.3370
  131MOL0     H17248   9.250   4.965   1.575 -3.7443  0.3346  0.0036
  131MOL0     H17249   9.212   4.807   1.525  1.1072 -0.3153 -0.2961
  131MOL0     H17250   9.052   5.000   1.468 -0.0091 -3.2506  1.2092
  131MOL0     H17251   9.168   5.071   1.366 -0.7679 -0.0638 -0.5534
  131MOL0     H17252   9.211   4.861   1.240  2.0332  0.2386  0.6999
  131MOL0     H17253   9.066   4.943   1.195  1.6499 -1.2255 -0.9327
  131MOL0     H17254   8.877   4.994   1.247  0.7175  0.3128 -1.4702
  131MOL0     H17255   8.657   4.976   1.161 -1.1208 -0.2133 -0.3852
  131MOL0     H17256   8.315   4.711   1.403  2.3826 -2.6463 -2.4822
  131MOL0     H17257   8.073   4.795   1.465 -2.0842 -0.8305 -0.5552
  131MOL0     H17258   7.880   4.887   1.490  0.6432  0.7284 -0.7313
  131MOL0     H17259   7.868   4.710   1.490 -0.8773 -0.4590 -0.9629
  131MOL0     H17260   7.648   4.750   1.543 -2.6246  0.7585 -0.5684
  131MOL0     H17261   7.644   4.729   1.372  0.0618 -1.6076  1.3490
  131MOL0     H17262   7.650   4.984   1.338  0.9515 -0.0759  0.4482
  131MOL0     H17263   7.670   5.008   1.504 -0.0931  0.7680 -2.3056
  131MOL0     H17264   7.445   5.063   1.425 -0.8720  0.3117 -1.3758
  131MOL0     H17265   7.418   4.905   1.355  0.7751  1.3930 -0.6765
  131MOL0     H17266   7.468   4.965   1.645 -0.5069 -1.6691  1.6639
  131MOL0     H17267   7.384   4.819   1.588  1.0933 -0.4427 -2.4900
  131MOL0     H17268   7.206   5.000   1.474 -1.4264  2.3648  0.5848
  131MOL0     H17269   7.294   5.117   1.562 -0.3403 -0.3499  0.7906
  131MOL0     H17270   7.169   4.872   1.682 -1.0688  0.2628 -1.3142
  131MOL0     H17271   7.221   5.008   1.785 -1.2453 -0.1228  1.1038
  131MOL0     H17272   6.990   5.013   1.597 -0.6581 -4.2405  2.7389
  131MOL0     H17273   7.066   5.163   1.666  1.8827  0.1776 -1.1824
  131MOL0     H17274   7.975   4.720   1.058  1.0707  0.1233 -0.4788
  131MOL0     H17275   8.224   4.668   1.012  1.9733  2.2084  0.0981
  131MOL0     H17276   8.650   4.552   1.244  0.2516  0.8378  1.7476
  131MOL0     H17277   8.878   4.577   1.347 -1.1239 -1.5675 -0.9770
  131MOL0     H17278  10.720   5.313   1.901 -3.1140 -1.3724  0.0305
  131MOL0     H17279  10.881   5.407   1.741 -1.2642  1.0429  0.4028
  131MOL0     H17280  11.026   5.517   1.431  0.4723 -0.7131  0.7107
  131MOL0     H17281  11.145   5.652   1.289 -1.3816 -0.6771 -1.3951
  131MOL0     H17282  11.340   5.769   1.217  0.8033  2.1175 -1.1021
  131MOL0     H17283  11.270   5.680   1.085 -0.3766  0.0487  0.4736
  131MOL0     H17284  11.524   5.675   0.999 -1.4628 -1.3199  0.7362
  131MOL0     H17285  11.426   5.824   0.978 -0.5085 -0.9880 -1.7093
  131MOL0     H17286  11.622   5.754   1.214  2.6928  1.1354 -0.0555
  131MOL0     H17287  11.538   5.914   1.186  2.0682  1.4089  0.1037
  131MOL0     H17288  11.676   5.894   0.955 -0.5414 -0.1719 -0.5378
  131MOL0     H17289  11.771   5.939   1.097 -1.5423  1.8140 -0.1309
  131MOL0     H17290  11.917   5.545   0.985  0.6688 -0.2629  1.1579
  131MOL0     H17291  11.459   5.345   1.278  0.2419 -2.5070  2.9502
  131MOL0     H17292  11.305   5.189   1.392 -3.9450 -0.7593  1.2491
  132MOL0     O17293   9.614   9.352   2.751  0.5093  0.8840  0.3405
  132MOL0     C17294   9.663   9.247   2.708  0.8488 -0.5456  0.7019
  132MOL0     O17295   9.627   9.196   2.589 -0.2143  0.3703 -0.0849
  132MOL0     C17296   9.527   9.264   2.512 -0.7787  0.2730 -0.1075
  132MOL0     C17297   9.558   9.380   2.448 -0.3707  0.0158  0.1306
  132MOL0     C17298   9.456   9.449   2.382  0.6478  0.1883 -0.0393
  132MOL0     C17299   9.322   9.396   2.369 -1.1566  0.0810  0.5741
  132MOL0     O17300   9.232   9.471   2.297  0.3142  0.3785 -0.7751
  132MOL0     C17301   9.094   9.416   2.270 -0.2135 -1.1008  0.5006
  132MOL0     C17302   9.023   9.521   2.186  0.1890 -0.3014 -0.3962
  132MOL0     C17303   9.078   9.582   2.058  0.3356 -0.8003 -0.6156
  132MOL0     C17304   9.097   9.470   1.959 -0.2842  0.1487 -0.6520
  132MOL0     C17305   9.105   9.527   1.820 -1.0099 -0.3176  1.3644
  132MOL0     C17306   9.107   9.400   1.724  0.2525 -0.3388  0.6004
  132MOL0     C17307   9.111   9.438   1.581 -0.7044  0.6121  0.4011
  132MOL0     C17308   9.136   9.321   1.486  0.3985  0.2138  1.6292
  132MOL0     N17309   9.088   9.357   1.348  1.2886  0.3862 -0.0410
  132MOL0     C17310   8.962   9.411   1.309 -0.1215 -0.4894 -0.5702
  132MOL0     C17311   8.977   9.472   1.191 -0.3609  0.6084  0.4199
  132MOL0     C17312   8.872   9.552   1.115 -0.4968  0.5421 -0.4169
  132MOL0     C17313   8.894   9.693   1.168  0.1645 -0.2126  0.1667
  132MOL0     C17314   8.824   9.802   1.092 -0.1921 -0.3204 -0.7303
  132MOL0     C17315   8.868   9.808   0.941  0.8907 -0.3867 -0.3294
  132MOL0     O17316   8.774   9.889   0.865 -0.0293  0.2942  0.0809
  132MOL0     C17317   8.646   9.845   0.829 -0.0042  0.6219 -0.1749
  132MOL0     C17318   8.581   9.909   0.725  0.1660  0.1041  0.1890
  132MOL0     C17319   8.483   9.840   0.650  0.7505 -0.5114 -0.2745
  132MOL0     C17320   8.441   9.705   0.687  0.0829 -0.0122  0.5561
  132MOL0     C17321   8.344   9.634   0.589 -0.2217 -1.2427  0.4871
  132MOL0     O17322   8.297   9.712   0.482 -0.2360  0.2560  0.3193
  132MOL0     C17323   8.223   9.655   0.381 -0.8312 -0.1358 -0.7735
  132MOL0     C17324   8.253   9.530   0.325 -0.6344  0.2440  0.4091
  132MOL0     C17325   8.184   9.494   0.211  0.2351 -0.5411  0.5575
  132MOL0     C17326   8.087   9.584   0.141 -0.0527  0.4015  0.1447
  132MOL0     O17327   8.038   9.557   0.013  0.8509 -0.9166  0.0762
  132MOL0     C17328   8.028   9.411  -0.020 -0.8615  0.3597 -0.2534
  132MOL0     C17329   7.974   9.400  -0.157  0.1896  0.4902  0.3931
  132MOL0     C17330   7.947   9.255  -0.210  0.0808  0.6704  0.1458
  132MOL0     C17331   7.827   9.199  -0.137 -0.0433  0.0596  0.1397
  132MOL0     C17332   7.821   9.051  -0.184 -0.3893 -0.0463 -0.4325
  132MOL0     C17333   7.700   8.988  -0.121 -0.4111 -0.1861 -0.1922
  132MOL0     C17334   7.577   9.025  -0.201 -0.3134 -0.1519 -0.4585
  132MOL0     C17335   7.448   8.947  -0.140  0.0736 -0.3370 -0.2347
  132MOL0    Cl17336   7.310   8.982  -0.247 -0.2899 -0.3422  0.2714
  132MOL0     C17337   8.069   9.706   0.200 -0.2118  0.1941 -0.3348
  132MOL0     C17338   8.126   9.733   0.323 -0.4491  0.8010  0.1438
  132MOL0     O17339   8.314   9.519   0.606 -0.3968  0.1386  0.1377
  132MOL0     C17340   8.497   9.647   0.804 -0.2287 -0.9213  0.1264
  132MOL0     C17341   8.591   9.721   0.875 -0.2622  0.1786 -0.3340
  132MOL0     N17342   9.104   9.444   1.143 -0.6903 -0.0110 -0.6996
  132MOL0     N17343   9.167   9.380   1.236  0.0129 -0.5420 -0.4866
  132MOL0     C17344   9.293   9.274   2.432  0.2911  0.2184 -0.4329
  132MOL0     C17345   9.401   9.202   2.495 -0.7125 -0.1582  0.0526
  132MOL0     C17346   9.772   9.181   2.788 -0.6272  0.1477  0.7026
  132MOL0     C17347   9.808   9.055   2.751 -1.3464  0.3759 -0.4104
  132MOL0     C17348   9.908   8.981   2.825 -0.6722 -0.1478  0.3341
  132MOL0     C17349   9.974   9.047   2.923  0.1766  0.0812 -0.3039
  132MOL0     O17350  10.071   8.995   3.000 -0.2581  0.5248  0.2206
  132MOL0     C17351  10.100   8.856   2.996  0.2096 -0.0347  0.6132
  132MOL0     C17352  10.017   8.793   3.105 -0.0270 -0.0016  0.0743
  132MOL0     C17353  10.031   8.850   3.248  0.6337  0.6920 -0.5983
  132MOL0     C17354  10.144   8.791   3.326  0.4149 -0.3013  0.2381
  132MOL0     C17355  10.116   8.665   3.382  0.2367  0.8715 -0.0883
  132MOL0     C17356  10.107   8.567   3.449  0.1203  1.1699  0.1326
  132MOL0     C17357   9.946   9.186   2.952 -0.2013  0.2362 -0.2886
  132MOL0     C17358   9.842   9.247   2.884 -0.5249 -0.3402 -0.9376
  132MOL0     H17359   9.658   9.421   2.456 -0.0280 -0.9904  1.3653
  132MOL0     H17360   9.488   9.541   2.334 -0.1398  0.4438 -0.0895
  132MOL0     H17361   9.044   9.377   2.359  2.1004 -0.8871  1.9835
  132MOL0     H17362   9.110   9.330   2.204 -2.4263 -0.2253 -1.2772
  132MOL0     H17363   9.017   9.613   2.246 -1.9732  1.3551 -2.9249
  132MOL0     H17364   8.918   9.494   2.177 -0.0931  0.2421  0.9119
  132MOL0     H17365   9.163   9.648   2.076 -0.9478  0.2083  2.4806
  132MOL0     H17366   8.997   9.641   2.014  0.5954 -0.7646 -1.0508
  132MOL0     H17367   9.185   9.407   1.976  1.5625  2.5633 -0.7445
  132MOL0     H17368   9.005   9.411   1.970 -0.2484  0.5193  2.3270
  132MOL0     H17369   9.202   9.578   1.813 -0.9679 -0.5002  0.4186
  132MOL0     H17370   9.035   9.603   1.785 -0.8699 -0.0951  1.5605
  132MOL0     H17371   9.010   9.352   1.740  0.1809 -0.8743 -1.2377
  132MOL0     H17372   9.184   9.330   1.757  0.2782 -1.5876 -1.8828
  132MOL0     H17373   9.017   9.484   1.550 -0.4956 -0.9214 -3.0416
  132MOL0     H17374   9.198   9.502   1.561 -0.7741  1.0418  1.4050
  132MOL0     H17375   9.088   9.226   1.509 -2.4954  0.5466 -2.0427
  132MOL0     H17376   9.240   9.290   1.485 -0.0476 -2.1441 -3.4761
  132MOL0     H17377   8.871   9.432   1.364  0.0759 -1.3267  0.0790
  132MOL0     H17378   8.769   9.526   1.140 -0.3870  1.7812  1.6060
  132MOL0     H17379   8.888   9.541   1.008 -2.3977  0.7502 -0.7558
  132MOL0     H17380   8.995   9.730   1.190  1.1238 -0.8572 -2.7603
  132MOL0     H17381   8.844   9.690   1.265  0.3732  1.5210  0.3574
  132MOL0     H17382   8.717   9.782   1.099 -0.0447 -1.2020 -0.9418
  132MOL0     H17383   8.841   9.897   1.145  2.0077  0.8602 -3.3183
  132MOL0     H17384   8.874   9.708   0.896 -1.2651 -0.9541  0.4784
  132MOL0     H17385   8.965   9.857   0.949  0.8068 -0.4668  1.9071
  132MOL0     H17386   8.620  10.007   0.697  3.0805 -0.8071  0.7028
  132MOL0     H17387   8.445   9.902   0.570 -3.6329  1.7090  3.0592
  132MOL0     H17388   8.347   9.481   0.349 -0.8124 -0.2300  0.1529
  132MOL0     H17389   8.206   9.396   0.171  0.5929 -0.0393 -0.5478
  132MOL0     H17390   7.969   9.365   0.060 -1.2866  1.3988  0.0413
  132MOL0     H17391   8.132   9.377  -0.031 -1.0390  0.0278 -0.9727
  132MOL0     H17392   8.050   9.441  -0.224  1.7602  0.0335  1.8548
  132MOL0     H17393   7.876   9.449  -0.166  1.2211  2.3367 -1.9458
  132MOL0     H17394   8.029   9.186  -0.189  0.0749  1.0649  1.5250
  132MOL0     H17395   7.933   9.247  -0.319  1.9196 -0.3698 -0.0582
  132MOL0     H17396   7.828   9.206  -0.028 -2.9576 -0.1638  0.2584
  132MOL0     H17397   7.735   9.250  -0.167 -1.4718 -1.7801  1.2212
  132MOL0     H17398   7.909   8.996  -0.150 -0.7645 -1.3321 -1.4650
  132MOL0     H17399   7.808   9.048  -0.292  1.3572  0.2496 -0.6880
  132MOL0     H17400   7.699   9.024  -0.017 -0.8146  0.1824 -0.3162
  132MOL0     H17401   7.698   8.879  -0.118  0.5457 -0.2192 -0.5334
  132MOL0     H17402   7.553   9.131  -0.199 -1.4114 -0.3986 -0.1991
  132MOL0     H17403   7.591   9.001  -0.307 -0.0215  1.0726 -0.7060
  132MOL0     H17404   7.442   8.988  -0.039  1.5339 -0.7985  0.0674
  132MOL0     H17405   7.472   8.841  -0.125 -0.3301 -0.7736 -2.3610
  132MOL0     H17406   7.984   9.764   0.166 -1.5877  0.0535  2.5409
  132MOL0     H17407   8.102   9.833   0.357  0.4843  1.3493 -0.7646
  132MOL0     H17408   8.483   9.544   0.834 -0.0229 -0.7850  0.7101
  132MOL0     H17409   8.647   9.658   0.944  1.3167  1.1942 -0.6221
  132MOL0     H17410   9.191   9.237   2.440 -0.0770  0.4600 -3.2146
  132MOL0     H17411   9.382   9.101   2.531  1.0731 -1.6670 -2.8289
  132MOL0     H17412   9.765   8.992   2.674  2.5276  0.2851 -2.7613
  132MOL0     H17413   9.924   8.876   2.802  2.4795 -0.1889  2.1114
  132MOL0     H17414  10.206   8.839   3.016  0.6944  1.8887 -0.1150
  132MOL0     H17415  10.089   8.798   2.903  1.9123  0.2358  0.1990
  132MOL0     H17416   9.915   8.818   3.074  0.6055  0.8524 -1.4148
  132MOL0     H17417  10.023   8.684   3.114  4.6122  0.0876  0.8536
  132MOL0     H17418   9.936   8.829   3.299  1.1412 -0.0448  0.0637
  132MOL0     H17419  10.025   8.959   3.238  0.9099  0.7036 -0.6396
  132MOL0     H17420  10.228   8.778   3.257 -1.0764 -0.2974 -1.6632
  132MOL0     H17421  10.173   8.865   3.401  2.0603 -0.4030 -0.2611
  132MOL0     H17422  10.108   8.491   3.524  1.8008 -2.1703 -2.9395
  132MOL0     H17423   9.997   9.249   3.024  1.5942 -0.8750 -0.5171
  132MOL0     H17424   9.820   9.350   2.907  2.0881 -0.0468  0.8102
  133MOL0     O17425  10.877   8.752   5.720 -0.4300 -0.5503  0.3778
  133MOL0     C17426  10.928   8.738   5.609  0.6447  0.7885 -1.1433
  133MOL0     O17427  10.865   8.685   5.497 -0.0432 -0.5074  0.2090
  133MOL0     C17428  10.729   8.669   5.489  0.3590 -0.0811 -0.2082
  133MOL0     C17429  10.680   8.553   5.434  0.3914 -0.7913  0.6699
  133MOL0     C17430  10.538   8.533   5.436  1.1541  0.7374 -0.0547
  133MOL0     C17431  10.454   8.627   5.481 -1.5716 -0.0053  0.1036
  133MOL0     O17432  10.320   8.580   5.481 -1.1114  0.2222 -0.2484
  133MOL0     C17433  10.220   8.642   5.560  0.1711 -0.1375 -1.0788
  133MOL0     C17434  10.198   8.594   5.706 -0.4044 -0.1956 -0.4117
  133MOL0     C17435  10.332   8.597   5.783  0.5842 -0.6291  0.1244
  133MOL0     C17436  10.313   8.555   5.929 -0.2048 -0.1323  1.2942
  133MOL0     C17437  10.445   8.562   6.015 -0.5199  0.2873  0.6463
  133MOL0     C17438  10.563   8.491   5.963 -1.0388 -0.0692 -0.0300
  133MOL0     C17439  10.667   8.456   6.067  0.7421 -0.1813 -0.3494
  133MOL0     C17440  10.763   8.361   5.996  0.6984  0.0840 -1.2870
  133MOL0     N17441  10.903   8.395   6.023  0.0796  0.6602 -0.3422
  133MOL0     C17442  10.988   8.473   5.950 -0.7825  0.1699  0.0422
  133MOL0     C17443  11.109   8.454   6.003 -0.8281  0.6697  0.2741
  133MOL0     C17444  11.249   8.509   5.963  0.0815  0.9266 -0.1374
  133MOL0     C17445  11.329   8.565   6.085 -0.8607  0.0574  0.2778
  133MOL0     C17446  11.320   8.724   6.115 -0.4890  0.5429  0.7317
  133MOL0     C17447  11.183   8.775   6.129  0.0669  0.5224  0.2380
  133MOL0     O17448  11.123   8.731   6.251  0.7007  1.1307  0.6561
  133MOL0     C17449  10.989   8.745   6.287  0.1582 -0.5930  0.1466
  133MOL0     C17450  10.894   8.818   6.213  0.4638 -0.6898 -0.4542
  133MOL0     C17451  10.759   8.833   6.269 -0.1926 -0.1330  0.1170
  133MOL0     C17452  10.729   8.772   6.393 -0.2902 -0.9421 -0.1873
  133MOL0     C17453  10.608   8.801   6.462 -0.8480 -0.0231  0.1955
  133MOL0     O17454  10.605   8.783   6.602 -0.2600  0.1110  0.4162
  133MOL0     C17455  10.480   8.788   6.657  0.6125  0.1273 -0.6153
  133MOL0     C17456  10.455   8.690   6.752  0.4064 -0.8353  0.3169
  133MOL0     C17457  10.339   8.688   6.830 -0.3282 -0.0652  0.3239
  133MOL0     C17458  10.243   8.786   6.808  0.4326 -0.0680 -0.3546
  133MOL0     O17459  10.140   8.802   6.900 -0.5210  0.4355 -0.8271
  133MOL0     C17460  10.082   8.928   6.925  0.6196 -1.6111  0.0987
  133MOL0     C17461  10.187   9.037   6.973 -0.0757  0.5303  0.3600
  133MOL0     C17462  10.131   9.167   7.030 -0.6737  0.2188 -0.5192
  133MOL0     C17463  10.061   9.254   6.929 -0.6790 -0.3816  0.0575
  133MOL0     C17464   9.996   9.376   6.986  0.2327  0.0184 -0.8106
  133MOL0     C17465  10.092   9.476   7.052 -0.0284 -0.1343  0.5030
  133MOL0     C17466   9.993   9.571   7.117  0.3909 -0.9322 -0.8380
  133MOL0     C17467  10.063   9.692   7.196 -0.3794 -0.6699  0.1754
  133MOL0    Cl17468  10.186   9.766   7.081  0.2164 -0.3200  0.1674
  133MOL0     C17469  10.257   8.872   6.694 -0.5832  0.0892 -0.1354
  133MOL0     C17470  10.381   8.881   6.635 -0.5148 -0.9390  0.6062
  133MOL0     O17471  10.515   8.831   6.389 -0.2661  0.7914  0.0370
  133MOL0     C17472  10.832   8.703   6.464  0.9239  0.5341  0.8482
  133MOL0     C17473  10.957   8.684   6.405 -0.2677  0.5500  0.1026
  133MOL0     N17474  11.100   8.360   6.105  1.1039 -0.4625  0.1670
  133MOL0     N17475  10.978   8.320   6.110 -0.0971 -1.1764  0.2138
  133MOL0     C17476  10.506   8.741   5.545  0.8491 -0.6286  0.4004
  133MOL0     C17477  10.641   8.771   5.539  0.9738  1.1797 -0.6637
  133MOL0     C17478  11.071   8.757   5.607 -0.1515  0.2929 -0.2163
  133MOL0     C17479  11.156   8.678   5.518  0.3218  0.4632 -0.0424
  133MOL0     C17480  11.294   8.701   5.515  0.3745  0.4055 -0.2447
  133MOL0     C17481  11.356   8.797   5.603 -0.3254 -0.1870 -0.5008
  133MOL0     O17482  11.487   8.835   5.597  0.1595  0.2275  0.4554
  133MOL0     C17483  11.586   8.732   5.584  0.1122 -0.4730 -0.4946
  133MOL0     C17484  11.599   8.663   5.716  0.1722 -0.1463 -0.2875
  133MOL0     C17485  11.682   8.745   5.817 -0.0015 -0.3108 -0.0008
  133MOL0     C17486  11.705   8.675   5.958  0.2289 -0.5288  0.1563
  133MOL0     C17487  11.804   8.569   5.951 -0.2366  0.3561 -0.3326
  133MOL0     C17488  11.877   8.481   5.940  0.7096  1.0559 -0.0183
  133MOL0     C17489  11.274   8.863   5.701 -0.5325  1.0350  0.5359
  133MOL0     C17490  11.140   8.857   5.684 -0.0006  0.2057  0.2542
  133MOL0     H17491  10.755   8.484   5.397 -0.1439  0.3153 -2.8531
  133MOL0     H17492  10.493   8.441   5.399  0.7746  1.2933 -1.0192
  133MOL0     H17493  10.128   8.611   5.509 -0.1000  0.6654 -1.0875
  133MOL0     H17494  10.238   8.750   5.560 -0.3654  0.3042 -7.5237
  133MOL0     H17495  10.145   8.498   5.708  0.5188 -0.7086  0.6677
  133MOL0     H17496  10.119   8.652   5.755  0.1512 -2.2048  3.2006
  133MOL0     H17497  10.374   8.697   5.797 -0.5022  0.1294 -1.6427
  133MOL0     H17498  10.411   8.532   5.743  2.0247  1.1240 -0.0118
  133MOL0     H17499  10.237   8.620   5.972 -0.2506  1.1366 -0.5590
  133MOL0     H17500  10.270   8.455   5.930 -0.6145  0.0229  0.4898
  133MOL0     H17501  10.429   8.526   6.117 -3.2160 -1.1289 -0.1922
  133MOL0     H17502  10.468   8.668   6.026  2.4318  0.0553 -1.8774
  133MOL0     H17503  10.622   8.549   5.892  2.4647 -1.6862  1.3196
  133MOL0     H17504  10.525   8.403   5.912  1.2229 -1.0752 -0.1132
  133MOL0     H17505  10.709   8.551   6.101  2.0560  0.1338 -2.6674
  133MOL0     H17506  10.614   8.414   6.153  0.6673  2.5145  1.0219
  133MOL0     H17507  10.752   8.350   5.888  1.1028  1.5786 -1.4986
  133MOL0     H17508  10.749   8.260   6.037  0.3166  1.8729  3.6077
  133MOL0     H17509  10.965   8.527   5.858  1.9185 -0.1427 -0.9034
  133MOL0     H17510  11.232   8.589   5.890 -0.0593  2.2360  1.2800
  133MOL0     H17511  11.302   8.425   5.917  1.0110  1.6588 -0.4433
  133MOL0     H17512  11.434   8.536   6.079 -1.2913 -1.9397  1.3512
  133MOL0     H17513  11.298   8.508   6.173  2.1057 -3.9948 -1.0032
  133MOL0     H17514  11.381   8.750   6.202 -1.9249  2.5615  1.2188
  133MOL0     H17515  11.372   8.774   6.034 -2.0291 -0.1768 -0.7774
  133MOL0     H17516  11.134   8.759   6.032  5.6430 -1.3655 -2.7180
  133MOL0     H17517  11.191   8.884   6.126  1.3909  0.4294 -0.8492
  133MOL0     H17518  10.911   8.877   6.123 -0.4498 -0.8599 -0.7450
  133MOL0     H17519  10.690   8.907   6.229 -1.1162 -1.7619 -1.4591
  133MOL0     H17520  10.526   8.613   6.777  0.4293 -0.7966  0.3730
  133MOL0     H17521  10.335   8.617   6.912 -1.0366  0.7510  1.0189
  133MOL0     H17522  10.008   8.928   7.005  1.1749  0.8546  0.6961
  133MOL0     H17523  10.038   8.965   6.832  0.2125 -1.1156  0.4838
  133MOL0     H17524  10.245   9.062   6.884  0.0454 -0.7608  0.0575
  133MOL0     H17525  10.253   8.990   7.047 -0.2600  1.5408  1.1944
  133MOL0     H17526  10.218   9.207   7.082  0.3458 -1.8521 -0.5326
  133MOL0     H17527  10.057   9.147   7.108 -1.2036  1.3678 -0.6947
  133MOL0     H17528  10.137   9.290   6.858 -0.3228  0.7442  0.9811
  133MOL0     H17529   9.985   9.199   6.873  0.2982 -0.2794 -1.4457
  133MOL0     H17530   9.926   9.328   7.056  0.9247  1.8432  1.2516
  133MOL0     H17531   9.924   9.419   6.915 -1.7812  1.5510  1.9488
  133MOL0     H17532  10.141   9.524   6.968 -0.5063 -1.5011 -0.5837
  133MOL0     H17533  10.164   9.421   7.114  1.8723 -0.9746 -2.2977
  133MOL0     H17534   9.933   9.612   7.035  1.1320  0.6918 -0.5965
  133MOL0     H17535   9.920   9.515   7.177 -3.6972  3.4693 -1.1361
  133MOL0     H17536  10.114   9.645   7.281 -0.9926  2.0936  2.2122
  133MOL0     H17537   9.990   9.771   7.216 -0.6345 -0.8871  0.0935
  133MOL0     H17538  10.179   8.940   6.659  1.6699  1.8589 -2.0683
  133MOL0     H17539  10.376   8.942   6.546  1.1558 -1.8789 -0.1717
  133MOL0     H17540  10.820   8.672   6.567  0.8643  0.8881  0.9494
  133MOL0     H17541  11.023   8.628   6.469 -0.2497  0.4810  0.0244
  133MOL0     H17542  10.441   8.815   5.592 -0.5298 -0.9599 -0.8948
  133MOL0     H17543  10.678   8.865   5.577  1.4268  1.5518 -1.9746
  133MOL0     H17544  11.111   8.608   5.448 -1.0446  0.3162  0.9259
  133MOL0     H17545  11.361   8.639   5.455 -0.1298  0.0165 -0.4123
  133MOL0     H17546  11.681   8.779   5.556 -0.8830  0.4997 -2.4257
  133MOL0     H17547  11.561   8.660   5.506 -3.1893  0.5426 -0.5476
  133MOL0     H17548  11.502   8.645   5.763 -0.2723 -2.5611 -1.9307
  133MOL0     H17549  11.645   8.563   5.715  1.5015  0.2476  3.4298
  133MOL0     H17550  11.635   8.843   5.828  2.6412  1.0571 -0.2598
  133MOL0     H17551  11.782   8.747   5.773 -0.6568 -1.3208 -1.6000
  133MOL0     H17552  11.734   8.756   6.026 -0.9450  1.8207 -1.9784
  133MOL0     H17553  11.611   8.637   5.999  0.5558 -0.1440  1.3035
  133MOL0     H17554  11.942   8.396   5.938 -1.8749 -1.0443 -0.7160
  133MOL0     H17555  11.313   8.929   5.777 -1.3643  0.2205  1.7065
  133MOL0     H17556  11.075   8.909   5.753 -1.3727 -3.1672  1.7549
  134MOL0     O17557   6.438   5.527   5.948 -0.4112  0.5863 -0.2252
  134MOL0     C17558   6.428   5.620   6.031  0.6680  0.3822 -0.1429
  134MOL0     O17559   6.327   5.628   6.117 -0.3200 -0.0097 -0.1371
  134MOL0     C17560   6.208   5.557   6.099 -0.9076  0.3056 -0.0020
  134MOL0     C17561   6.174   5.465   6.201  0.6880 -0.4134  0.4474
  134MOL0     C17562   6.059   5.383   6.186  0.2835 -0.1206  0.2293
  134MOL0     C17563   5.977   5.385   6.077 -0.2606 -0.4919  0.8210
  134MOL0     O17564   5.864   5.300   6.062 -0.6899 -0.3727  0.8080
  134MOL0     C17565   5.740   5.364   6.016 -0.6975 -0.3036 -0.7362
  134MOL0     C17566   5.708   5.338   5.872  0.2686  0.6907 -0.1386
  134MOL0     C17567   5.737   5.192   5.831 -0.1208  0.1304 -0.0666
  134MOL0     C17568   5.737   5.167   5.676  0.0173  0.6634 -0.6930
  134MOL0     C17569   5.724   5.016   5.639 -0.1964  0.1935 -0.8473
  134MOL0     C17570   5.582   4.957   5.660 -0.3229 -0.6543 -0.6847
  134MOL0     C17571   5.565   4.821   5.599 -0.2937  0.0360 -0.5140
  134MOL0     C17572   5.426   4.762   5.607  0.3869  1.0505 -0.5941
  134MOL0     N17573   5.424   4.648   5.502  0.5457 -0.4553 -0.0673
  134MOL0     C17574   5.415   4.666   5.368  0.7498 -0.8878  0.8121
  134MOL0     C17575   5.353   4.553   5.323 -0.7147 -1.0924 -0.7173
  134MOL0     C17576   5.306   4.524   5.176 -0.3795 -0.1286  0.6877
  134MOL0     C17577   5.251   4.376   5.160  0.0677 -0.1953  1.3065
  134MOL0     C17578   5.110   4.359   5.222 -0.3657  1.1583 -0.7311
  134MOL0     C17579   4.993   4.429   5.152  0.1900 -0.1457 -0.4034
  134MOL0     O17580   4.887   4.433   5.262 -0.0402  0.4549  0.3202
  134MOL0     C17581   4.762   4.444   5.205 -0.8392  1.1436 -0.9377
  134MOL0     C17582   4.743   4.512   5.089  0.0116 -1.2244  0.0909
  134MOL0     C17583   4.611   4.537   5.049  0.5361 -0.7071  0.8996
  134MOL0     C17584   4.496   4.487   5.107  0.3978  0.1223  0.2671
  134MOL0     C17585   4.357   4.516   5.057 -0.8257  0.2116  0.3830
  134MOL0     O17586   4.253   4.448   5.125  0.4373  0.1190  0.1791
  134MOL0     C17587   4.115   4.447   5.097 -0.2814 -0.2552 -0.7796
  134MOL0     C17588   4.039   4.351   5.151 -0.0072  0.6772  0.4583
  134MOL0     C17589   3.905   4.329   5.131  0.0180 -0.4831  0.1044
  134MOL0     C17590   3.836   4.418   5.040  0.3163  0.5854 -0.4276
  134MOL0     O17591   3.704   4.417   5.009  0.2234 -0.5035  0.0047
  134MOL0     C17592   3.635   4.293   5.015  0.2000  0.3909  0.3563
  134MOL0     C17593   3.489   4.300   4.975 -0.7945 -0.5106  0.1292
  134MOL0     C17594   3.482   4.361   4.831  1.2461 -0.5696  0.3650
  134MOL0     C17595   3.341   4.381   4.797 -0.0811 -0.5100 -0.3339
  134MOL0     C17596   3.247   4.265   4.811  0.3624  0.0117 -0.5020
  134MOL0     C17597   3.112   4.293   4.748 -0.0364 -0.0234 -0.8715
  134MOL0     C17598   3.029   4.411   4.813 -0.7385  0.3516  1.0954
  134MOL0     C17599   2.887   4.442   4.747  0.3237 -0.5930  0.3540
  134MOL0    Cl17600   2.926   4.461   4.572 -0.0054  0.3898 -0.1382
  134MOL0     C17601   3.906   4.519   4.988 -0.6094 -0.6206  1.2951
  134MOL0     C17602   4.049   4.536   5.005  0.1925  0.5102 -0.0197
  134MOL0     O17603   4.349   4.579   4.949 -1.1372 -0.4475  0.2369
  134MOL0     C17604   4.511   4.429   5.230 -0.5949  0.0648  0.1110
  134MOL0     C17605   4.644   4.409   5.278  0.8535 -0.9893  0.5521
  134MOL0     N17606   5.350   4.458   5.425 -0.1537 -0.1085 -0.8965
  134MOL0     N17607   5.401   4.514   5.528 -0.4433  0.1115  0.0331
  134MOL0     C17608   6.020   5.476   5.976  0.5742  0.2581 -0.2825
  134MOL0     C17609   6.135   5.546   5.978 -0.7401 -0.8807 -1.7777
  134MOL0     C17610   6.531   5.726   6.028  0.3822 -0.4486 -0.0451
  134MOL0     C17611   6.653   5.711   5.961  0.5837  0.8890 -0.9836
  134MOL0     C17612   6.748   5.813   5.965  0.4150  0.1747 -0.6189
  134MOL0     C17613   6.728   5.930   6.034 -0.1587 -0.0015  0.6731
  134MOL0     O17614   6.822   6.028   6.040 -0.4259 -0.1569 -0.0554
  134MOL0     C17615   6.953   5.982   6.078 -0.7111 -0.0358 -0.3575
  134MOL0     C17616   7.030   6.099   6.149  0.7276  0.9148  0.6291
  134MOL0     C17617   7.170   6.058   6.144  0.5660  0.0438 -1.1390
  134MOL0     C17618   7.235   6.086   6.010 -0.0542 -0.0433  0.3677
  134MOL0     C17619   7.380   6.079   6.006 -0.2753 -0.3557  0.1117
  134MOL0     C17620   7.497   6.057   5.996 -0.0698 -0.5241  0.1359
  134MOL0     C17621   6.607   5.941   6.107 -0.4950 -0.0411  0.5911
  134MOL0     C17622   6.516   5.839   6.111  0.5899 -0.4044  0.7998
  134MOL0     H17623   6.229   5.455   6.294  1.1572 -2.8385 -0.0247
  134MOL0     H17624   6.019   5.328   6.271  0.0003 -2.2819 -1.2191
  134MOL0     H17625   5.739   5.472   6.030 -3.2381 -0.3496  0.0879
  134MOL0     H17626   5.665   5.334   6.090  0.8908  0.8342  1.4447
  134MOL0     H17627   5.763   5.404   5.804  0.4809  0.2006 -0.4433
  134MOL0     H17628   5.601   5.359   5.861  0.3602  1.6283  0.6217
  134MOL0     H17629   5.683   5.114   5.886 -1.0612 -0.4370 -1.6875
  134MOL0     H17630   5.839   5.161   5.853 -1.0166 -2.0885  1.3056
  134MOL0     H17631   5.659   5.234   5.639 -1.5030 -0.9491 -0.5974
  134MOL0     H17632   5.830   5.189   5.624  0.2649 -0.2265 -0.6528
  134MOL0     H17633   5.800   4.965   5.699 -0.7144 -0.7322 -0.9650
  134MOL0     H17634   5.748   4.998   5.535  1.4560 -3.1536 -0.0006
  134MOL0     H17635   5.509   5.025   5.615 -0.3990 -0.5792 -0.4487
  134MOL0     H17636   5.554   4.962   5.766 -1.7047  1.4060 -1.0739
  134MOL0     H17637   5.606   4.825   5.498  3.1018  1.0941  0.7612
  134MOL0     H17638   5.639   4.753   5.641  0.0958  0.8425  0.1362
  134MOL0     H17639   5.340   4.829   5.599  2.3082  3.8083  0.3919
  134MOL0     H17640   5.407   4.719   5.706 -1.8589 -2.6500 -2.4116
  134MOL0     H17641   5.440   4.756   5.312 -3.1021 -0.0849  0.1461
  134MOL0     H17642   5.389   4.548   5.110 -0.4333  1.1531  1.0522
  134MOL0     H17643   5.233   4.604   5.158  0.9895  0.8283 -0.7921
  134MOL0     H17644   5.323   4.310   5.207  2.2746  0.3486 -1.0909
  134MOL0     H17645   5.247   4.357   5.052  2.9348 -0.1634  1.1228
  134MOL0     H17646   5.089   4.252   5.227 -2.1072  1.4502 -0.9329
  134MOL0     H17647   5.117   4.389   5.327 -0.8710 -0.5875 -0.1677
  134MOL0     H17648   4.970   4.384   5.055  4.8309 -3.1069 -0.4623
  134MOL0     H17649   5.021   4.532   5.132  0.8301  0.2785  2.2378
  134MOL0     H17650   4.828   4.545   5.029  2.6356 -2.5364  2.7735
  134MOL0     H17651   4.607   4.602   4.963 -0.3121 -0.7322  0.9147
  134MOL0     H17652   4.089   4.292   5.226  0.1692 -0.3542 -0.4362
  134MOL0     H17653   3.859   4.253   5.193  0.8589 -0.7280  0.4463
  134MOL0     H17654   3.626   4.259   5.119  0.2026  1.9590  0.8888
  134MOL0     H17655   3.704   4.236   4.952 -0.1991  0.4311 -0.1199
  134MOL0     H17656   3.444   4.357   5.058  2.9795 -0.8317  2.6839
  134MOL0     H17657   3.446   4.200   4.975 -0.4369 -0.6680 -0.6660
  134MOL0     H17658   3.544   4.304   4.760  0.0918  2.0113 -2.9915
  134MOL0     H17659   3.518   4.464   4.830 -0.3640  0.0821  2.6521
  134MOL0     H17660   3.311   4.463   4.863  2.9568  1.6657 -1.4060
  134MOL0     H17661   3.345   4.413   4.692 -0.5317  1.2274  0.1422
  134MOL0     H17662   3.239   4.257   4.920  1.9696 -0.1480 -0.3661
  134MOL0     H17663   3.301   4.180   4.768  2.6154  1.1812 -0.1330
  134MOL0     H17664   3.045   4.207   4.762 -1.6008  0.9985 -1.7395
  134MOL0     H17665   3.132   4.325   4.646 -2.2664  2.0829 -0.7482
  134MOL0     H17666   3.016   4.378   4.916  2.7736  0.8144  1.8357
  134MOL0     H17667   3.084   4.506   4.813 -0.2811  0.1206 -0.8239
  134MOL0     H17668   2.845   4.524   4.805  0.6353 -1.3854  1.7446
  134MOL0     H17669   2.825   4.353   4.760 -2.0235  0.9612  0.3859
  134MOL0     H17670   3.849   4.594   4.934 -1.1832 -0.6798  1.7984
  134MOL0     H17671   4.111   4.614   4.963 -1.8596  1.6082 -1.0997
  134MOL0     H17672   4.427   4.388   5.285  0.4493 -3.4237 -0.6388
  134MOL0     H17673   4.645   4.344   5.365 -0.0045 -1.4266  0.2380
  134MOL0     H17674   5.966   5.468   5.882 -3.6498  0.4752  1.8819
  134MOL0     H17675   6.158   5.592   5.883 -2.6410  0.1639 -1.7682
  134MOL0     H17676   6.667   5.624   5.898 -0.8792  0.3548 -0.6107
  134MOL0     H17677   6.842   5.803   5.913  2.1979  0.5654  2.2576
  134MOL0     H17678   7.011   5.941   5.994 -0.8155 -2.9542  0.8660
  134MOL0     H17679   6.942   5.900   6.150 -1.3913  0.5681  0.2275
  134MOL0     H17680   7.016   6.195   6.099  2.8892  0.1281 -1.6742
  134MOL0     H17681   6.995   6.107   6.252 -1.5022  0.8496 -0.0775
  134MOL0     H17682   7.183   5.955   6.179  0.5369 -0.1056 -1.5575
  134MOL0     H17683   7.218   6.117   6.222 -1.0093  0.1970 -0.2342
  134MOL0     H17684   7.220   6.005   5.938  1.2269  1.0601 -1.2290
  134MOL0     H17685   7.205   6.183   5.970 -0.7947  0.2250  1.5547
  134MOL0     H17686   7.598   6.025   5.975  0.3989  0.9800 -0.0263
  134MOL0     H17687   6.591   6.037   6.156 -2.7398  1.1660 -2.1962
  134MOL0     H17688   6.429   5.838   6.177  1.1494  1.6278  1.6409
  135MOL0     O17689   9.177   1.183   7.650 -0.2052 -0.4006 -0.8161
  135MOL0     C17690   9.152   1.302   7.634  0.1305 -1.1047 -0.6302
  135MOL0     O17691   9.036   1.369   7.659  0.7157  0.8872 -0.2366
  135MOL0     C17692   8.953   1.281   7.730  0.6539 -0.1946 -0.5077
  135MOL0     C17693   8.833   1.251   7.672 -0.1848  0.2917  0.2133
  135MOL0     C17694   8.728   1.201   7.747  0.4565  0.8794 -0.0365
  135MOL0     C17695   8.743   1.161   7.893 -1.1121  0.0612  0.1087
  135MOL0     O17696   8.659   1.100   7.984 -0.1274 -0.2245  0.2744
  135MOL0     C17697   8.522   1.079   7.938  0.8815  0.1419 -0.5412
  135MOL0     C17698   8.460   0.986   8.043  0.6609  1.3610  1.2257
  135MOL0     C17699   8.432   1.047   8.191  0.7634 -0.3274  0.3580
  135MOL0     C17700   8.299   1.125   8.189 -0.4088  0.3190 -0.0273
  135MOL0     C17701   8.286   1.195   8.327 -0.9369  0.9016  0.0471
  135MOL0     C17702   8.282   1.103   8.452 -0.9196  0.0176 -0.1122
  135MOL0     C17703   8.231   1.165   8.586  0.1886  0.2536  0.5328
  135MOL0     C17704   8.172   1.050   8.684 -0.0049  0.8533 -0.7282
  135MOL0     N17705   8.123   1.118   8.799 -0.7905  0.6570 -0.2265
  135MOL0     C17706   8.189   1.160   8.918  0.2214 -0.3401  0.4128
  135MOL0     C17707   8.080   1.206   8.991  0.2740 -0.3756 -0.4008
  135MOL0     C17708   8.079   1.230   9.139  0.4031  0.6186  0.6079
  135MOL0     C17709   8.137   1.365   9.173  0.0675 -0.3306 -0.0615
  135MOL0     C17710   8.143   1.405   9.326 -0.7315 -0.4216  1.0180
  135MOL0     C17711   8.010   1.416   9.399  0.0656 -0.9650 -0.5375
  135MOL0     O17712   8.027   1.485   9.528 -0.0796  0.1642 -0.3155
  135MOL0     C17713   7.910   1.512   9.601 -0.1939 -0.3108 -0.0719
  135MOL0     C17714   7.932   1.600   9.705  0.9533 -0.0840 -0.7392
  135MOL0     C17715   7.823   1.643   9.786  0.0020 -0.3574  0.3399
  135MOL0     C17716   7.692   1.602   9.752  1.0036  0.3912 -0.3315
  135MOL0     C17717   7.580   1.639   9.850  0.2710 -0.4882 -0.6228
  135MOL0     O17718   7.455   1.624   9.801  0.1822  0.8403 -0.6009
  135MOL0     C17719   7.346   1.655   9.882 -0.3234 -0.1902 -0.0873
  135MOL0     C17720   7.344   1.765   9.983 -0.4955  1.0134  0.0947
  135MOL0     C17721   7.230   1.800  10.048  0.3429  0.2548 -0.8867
  135MOL0     C17722   7.108   1.737  10.018 -0.1103 -0.2269 -0.6773
  135MOL0     O17723   6.989   1.767  10.097  0.5391  0.1703 -0.0583
  135MOL0     C17724   6.862   1.795  10.033  0.0685  0.2992  1.2603
  135MOL0     C17725   6.765   1.812  10.147 -1.0372  0.4080 -0.3902
  135MOL0     C17726   6.639   1.871  10.100  0.4208  0.2483  0.9527
  135MOL0     C17727   6.572   1.918  10.230  0.4500 -0.5298 -0.5162
  135MOL0     C17728   6.448   2.010  10.206  0.0022 -0.8271 -0.7711
  135MOL0     C17729   6.392   2.069  10.340  0.1441 -0.4217  0.3309
  135MOL0     C17730   6.341   1.968  10.433  0.2188 -0.1754  0.3954
  135MOL0     C17731   6.305   2.037  10.567 -0.0797  0.3080 -1.0211
  135MOL0    Cl17732   6.133   2.080  10.561 -0.1935 -0.2627 -0.1605
  135MOL0     C17733   7.115   1.622   9.932 -0.5051  0.2815  1.1118
  135MOL0     C17734   7.223   1.587   9.853 -0.5569 -0.1045 -0.9077
  135MOL0     O17735   7.607   1.678   9.962  0.5516  0.2464 -0.2242
  135MOL0     C17736   7.669   1.533   9.627  0.3744 -0.7355 -0.1289
  135MOL0     C17737   7.775   1.484   9.559  0.1454 -0.6085  0.6255
  135MOL0     N17738   7.964   1.195   8.911 -0.2526 -1.3659 -0.6202
  135MOL0     N17739   7.994   1.147   8.793 -0.4616 -1.0273 -0.4228
  135MOL0     C17740   8.873   1.187   7.951  1.1531 -0.0405 -1.2584
  135MOL0     C17741   8.978   1.242   7.871  0.3909  0.4008  0.4940
  135MOL0     C17742   9.266   1.380   7.577 -0.3953 -0.4057 -0.3197
  135MOL0     C17743   9.393   1.316   7.553  0.0205  1.2681  0.1170
  135MOL0     C17744   9.504   1.390   7.506  0.5957  0.2443 -0.4738
  135MOL0     C17745   9.492   1.524   7.479 -0.3498  0.0111 -0.1290
  135MOL0     O17746   9.593   1.596   7.427 -0.2612 -0.6176 -0.3215
  135MOL0     C17747   9.653   1.550   7.307 -0.2893 -0.4753  0.7794
  135MOL0     C17748   9.797   1.510   7.349  0.4967  0.4926 -0.0452
  135MOL0     C17749   9.894   1.623   7.341  0.2632 -0.7052 -0.1379
  135MOL0     C17750  10.041   1.602   7.379 -0.7117  0.3629  0.5249
  135MOL0     C17751  10.123   1.568   7.255 -0.2360 -1.0000  0.0552
  135MOL0     C17752  10.205   1.549   7.165 -0.1742 -0.1625 -0.5220
  135MOL0     C17753   9.378   1.594   7.503  0.4455 -0.2850 -0.0119
  135MOL0     C17754   9.267   1.518   7.557 -0.0481  0.0553 -0.5801
  135MOL0     H17755   8.820   1.283   7.570  2.7628 -0.1163 -0.3774
  135MOL0     H17756   8.628   1.203   7.706  0.5571 -4.2084 -1.1559
  135MOL0     H17757   8.511   1.027   7.843  1.8818  1.4786 -1.4068
  135MOL0     H17758   8.466   1.172   7.920 -0.3417 -0.4112  0.2524
  135MOL0     H17759   8.531   0.906   8.063 -2.3514 -1.8484  0.1201
  135MOL0     H17760   8.369   0.933   8.013  1.3185  0.3804  0.9447
  135MOL0     H17761   8.505   1.126   8.210 -0.5002  0.9838 -0.0295
  135MOL0     H17762   8.433   0.962   8.261  1.1405 -2.4138 -2.0388
  135MOL0     H17763   8.310   1.190   8.102 -2.0864 -0.9277 -1.2288
  135MOL0     H17764   8.216   1.056   8.174 -1.3909  1.7513 -1.5486
  135MOL0     H17765   8.186   1.239   8.337 -0.3178  3.1106 -2.4524
  135MOL0     H17766   8.359   1.276   8.330 -0.2281  0.2826 -0.2653
  135MOL0     H17767   8.384   1.068   8.465  0.3796  3.2594 -0.6269
  135MOL0     H17768   8.219   1.017   8.429 -0.5031 -0.7924  1.6651
  135MOL0     H17769   8.311   1.220   8.637 -0.7946  1.9521  0.2742
  135MOL0     H17770   8.158   1.243   8.568 -1.3110 -1.2251 -0.0560
  135MOL0     H17771   8.261   0.990   8.706  1.5840  2.9004 -1.2648
  135MOL0     H17772   8.094   0.990   8.635 -1.4663  2.2063 -0.1398
  135MOL0     H17773   8.291   1.129   8.941  0.5262 -1.3373 -1.9555
  135MOL0     H17774   8.146   1.160   9.190 -2.4167 -2.6651  0.0906
  135MOL0     H17775   7.974   1.227   9.167  0.3760  0.0810  0.4535
  135MOL0     H17776   8.078   1.440   9.119  1.9390  1.7368  0.5834
  135MOL0     H17777   8.238   1.371   9.132  1.0606 -2.0295  1.9580
  135MOL0     H17778   8.205   1.333   9.380 -2.0934 -1.8566  0.7467
  135MOL0     H17779   8.186   1.505   9.317 -3.1565  0.4724 -2.5723
  135MOL0     H17780   7.964   1.318   9.412 -0.9392 -0.3740  0.4897
  135MOL0     H17781   7.935   1.473   9.343  0.0277 -2.0977 -1.6718
  135MOL0     H17782   8.035   1.611   9.739  1.4297 -1.3456 -1.7069
  135MOL0     H17783   7.858   1.709   9.864 -0.5172  0.6480 -0.2612
  135MOL0     H17784   7.435   1.820  10.003  2.1488 -3.2175  1.0042
  135MOL0     H17785   7.224   1.883  10.117 -1.1225 -2.0610  1.9958
  135MOL0     H17786   6.815   1.718   9.970 -1.0282  1.2421  0.8948
  135MOL0     H17787   6.862   1.884   9.970 -0.1452  0.4670  1.4953
  135MOL0     H17788   6.815   1.883  10.213 -0.0863 -1.3162  0.8299
  135MOL0     H17789   6.750   1.722  10.207  1.9371 -0.8904 -1.3836
  135MOL0     H17790   6.587   1.800  10.035  1.6550  2.4605 -2.7771
  135MOL0     H17791   6.658   1.953  10.030  3.6508 -1.6411 -0.5944
  135MOL0     H17792   6.542   1.831  10.288  1.4271 -0.3466  0.2887
  135MOL0     H17793   6.647   1.979  10.281  3.1312 -1.2629 -3.2787
  135MOL0     H17794   6.369   1.951  10.159  1.2726 -2.2006 -1.2442
  135MOL0     H17795   6.474   2.085  10.130 -1.8510  1.0228  0.2985
  135MOL0     H17796   6.317   2.148  10.328 -1.1258 -1.8188 -1.5476
  135MOL0     H17797   6.478   2.115  10.389 -0.8973 -0.8780  2.7187
  135MOL0     H17798   6.243   1.931  10.404 -0.2047  0.9388  0.3374
  135MOL0     H17799   6.416   1.893  10.460 -0.1526 -0.2142  1.3541
  135MOL0     H17800   6.375   2.116  10.598 -0.8590  0.6489 -0.0895
  135MOL0     H17801   6.323   1.957  10.641  1.5316  0.1291 -1.5581
  135MOL0     H17802   7.024   1.562   9.936  0.5215 -1.3765  0.6011
  135MOL0     H17803   7.221   1.498   9.790  4.8974 -0.7512 -0.6916
  135MOL0     H17804   7.572   1.509   9.585  0.6150 -1.4527 -0.2958
  135MOL0     H17805   7.768   1.422   9.471  2.0234 -1.4736  1.0248
  135MOL0     H17806   8.905   1.161   8.052  1.8880 -1.4640 -1.8415
  135MOL0     H17807   9.062   1.285   7.924  2.2161  0.7830 -2.4791
  135MOL0     H17808   9.401   1.212   7.580 -1.5827  0.8211 -0.9854
  135MOL0     H17809   9.600   1.339   7.500  1.9032  2.5229 -0.1564
  135MOL0     H17810   9.655   1.636   7.240 -0.9266 -1.3854 -0.4438
  135MOL0     H17811   9.596   1.466   7.267 -3.0758  1.6617 -0.0942
  135MOL0     H17812   9.792   1.476   7.453  0.4928 -4.8468 -1.5202
  135MOL0     H17813   9.823   1.427   7.282 -1.0499 -1.2039  1.3612
  135MOL0     H17814   9.857   1.696   7.414 -0.1099 -1.6891  0.6891
  135MOL0     H17815   9.890   1.666   7.241  3.0428  1.9975  0.7726
  135MOL0     H17816  10.085   1.685   7.436  0.5109 -0.4176  0.7689
  135MOL0     H17817  10.058   1.514   7.442  0.6646 -0.6854 -1.2199
  135MOL0     H17818  10.280   1.540   7.089  1.6184  1.3777  0.9526
  135MOL0     H17819   9.359   1.696   7.470 -2.1934 -0.4683  0.6727
  135MOL0     H17820   9.178   1.574   7.583  0.0002  0.6123 -1.5486
  136MOL0     O17821   0.217   8.628   3.498 -0.1472 -0.2445 -0.7290
  136MOL0     C17822   0.168   8.642   3.387  0.7819  1.5243  0.2887
  136MOL0     O17823   0.235   8.673   3.274 -0.0222 -0.0066  0.5598
  136MOL0     C17824   0.373   8.662   3.277 -1.0780 -0.1955 -0.4705
  136MOL0     C17825   0.450   8.561   3.339 -0.0370 -0.7799 -0.6444
  136MOL0     C17826   0.588   8.558   3.332 -0.7998  0.5615 -0.4116
  136MOL0     C17827   0.658   8.656   3.272  0.4547 -0.1301 -0.3486
  136MOL0     O17828   0.797   8.668   3.269 -0.4774 -1.3181  0.0907
  136MOL0     C17829   0.887   8.564   3.294 -0.4638  0.7904 -0.4534
  136MOL0     C17830   1.002   8.560   3.204 -0.1397  1.2960  0.3825
  136MOL0     C17831   1.098   8.677   3.235 -1.1241  0.6897 -1.3807
  136MOL0     C17832   1.222   8.649   3.157  0.2677 -0.5560  0.5141
  136MOL0     C17833   1.320   8.763   3.179 -0.5103  0.0109  0.4452
  136MOL0     C17834   1.409   8.760   3.309  0.5696 -0.7661  0.8687
  136MOL0     C17835   1.491   8.885   3.312 -0.3331  0.1888  0.2385
  136MOL0     C17836   1.595   8.867   3.419  0.5978  0.4339  0.3949
  136MOL0     N17837   1.660   8.989   3.441 -1.3859 -0.8733 -0.0136
  136MOL0     C17838   1.598   9.099   3.504 -0.6819  0.1726 -0.0198
  136MOL0     C17839   1.692   9.197   3.496  0.5116  0.5167 -0.4635
  136MOL0     C17840   1.673   9.339   3.534  0.3845 -0.1499 -0.4673
  136MOL0     C17841   1.743   9.372   3.665 -0.0644 -0.7851  0.3159
  136MOL0     C17842   1.674   9.335   3.796  0.0628 -0.0190 -0.5709
  136MOL0     C17843   1.788   9.301   3.907 -0.5606  0.0247 -0.6692
  136MOL0     O17844   1.859   9.191   3.858 -0.8868  0.5750  0.2523
  136MOL0     C17845   1.993   9.185   3.881  0.0463  0.1377 -0.2083
  136MOL0     C17846   2.057   9.256   3.990 -0.0158  0.4015  0.0293
  136MOL0     C17847   2.200   9.241   4.020 -0.1776 -0.0133 -1.3074
  136MOL0     C17848   2.277   9.149   3.938  0.2217  0.3546 -0.1530
  136MOL0     C17849   2.423   9.116   3.963 -0.0680  0.8913  0.4357
  136MOL0     O17850   2.479   9.171   4.082 -0.4009 -0.1617  0.3756
  136MOL0     C17851   2.611   9.167   4.118  0.2375 -0.1751 -1.1146
  136MOL0     C17852   2.676   9.290   4.151  0.3063 -0.1807  0.8591
  136MOL0     C17853   2.822   9.298   4.150 -0.5304  0.4654 -0.2123
  136MOL0     C17854   2.908   9.184   4.130 -0.6793 -0.4604 -0.8778
  136MOL0     O17855   3.042   9.178   4.142  0.0386  0.5681  0.5432
  136MOL0     C17856   3.109   9.301   4.119 -0.6529  0.3381  0.1956
  136MOL0     C17857   3.260   9.293   4.120 -0.1880  0.3444 -0.9357
  136MOL0     C17858   3.327   9.178   4.063 -0.8960  1.0303 -0.2378
  136MOL0     C17859   3.476   9.164   4.103 -0.9951 -0.1442  0.0103
  136MOL0     C17860   3.537   9.057   4.013  0.3038 -0.5010 -0.6255
  136MOL0     C17861   3.677   9.013   4.047  0.5512 -0.6854  0.3331
  136MOL0     C17862   3.725   8.877   4.005  0.5685 -0.9327  0.2957
  136MOL0     C17863   3.863   8.847   4.046  0.7035 -0.2333 -0.0092
  136MOL0    Cl17864   3.970   8.983   3.979  0.0618 -0.0335  0.4889
  136MOL0     C17865   2.837   9.069   4.109  0.1909  0.1412  0.1148
  136MOL0     C17866   2.697   9.052   4.108 -0.0846 -0.0991  0.2670
  136MOL0     O17867   2.484   9.022   3.903  0.1824  0.0442 -0.3168
  136MOL0     C17868   2.214   9.101   3.824 -0.2296  0.8060 -0.4500
  136MOL0     C17869   2.079   9.099   3.802  0.2113  0.6043 -0.2589
  136MOL0     N17870   1.807   9.142   3.443  0.1119 -0.3351  0.3668
  136MOL0     N17871   1.791   9.019   3.415  0.6677 -0.6839  0.1592
  136MOL0     C17872   0.588   8.753   3.200  0.5498 -0.0179  0.5915
  136MOL0     C17873   0.449   8.752   3.196  0.4794 -0.0917  0.6397
  136MOL0     C17874   0.021   8.615   3.379 -1.3582  0.3423  0.0538
  136MOL0     C17875  -0.063   8.644   3.480 -0.4014  0.4260  0.4671
  136MOL0     C17876  -0.202   8.650   3.460  0.0119  0.7159  0.1847
  136MOL0     C17877  -0.251   8.616   3.338 -0.0619  0.5284 -0.2694
  136MOL0     O17878  -0.388   8.590   3.332 -0.9237  0.0899  0.1465
  136MOL0     C17879  -0.448   8.561   3.206  0.5652 -0.4051  0.3660
  136MOL0     C17880  -0.474   8.403   3.224  0.7203 -0.4387  0.4414
  136MOL0     C17881  -0.357   8.327   3.161 -0.0141  0.4288 -0.3393
  136MOL0     C17882  -0.397   8.183   3.116 -0.2728  0.2082  0.4953
  136MOL0     C17883  -0.460   8.187   2.987  0.0101  0.4316 -0.2713
  136MOL0     C17884  -0.505   8.196   2.877  0.0785  0.8417 -0.5579
  136MOL0     C17885  -0.166   8.606   3.226 -0.5291  0.2714 -0.0893
  136MOL0     C17886  -0.028   8.602   3.251 -0.3012  0.6677  0.7240
  136MOL0     H17887   0.401   8.481   3.395 -0.5116 -0.1717 -0.1837
  136MOL0     H17888   0.642   8.476   3.378  2.3896  2.8574  0.2632
  136MOL0     H17889   0.831   8.475   3.262 -3.7871  2.6891 -0.3908
  136MOL0     H17890   0.905   8.554   3.402 -2.0484  2.7261  0.0544
  136MOL0     H17891   0.977   8.550   3.098 -0.7091  1.4323  0.4977
  136MOL0     H17892   1.044   8.464   3.234 -1.3761  0.9170  0.9692
  136MOL0     H17893   1.124   8.691   3.340 -0.0253 -2.0847 -1.1995
  136MOL0     H17894   1.051   8.770   3.201 -1.2442  0.6284 -1.3822
  136MOL0     H17895   1.276   8.562   3.192  2.2640  0.4273  0.0216
  136MOL0     H17896   1.193   8.644   3.052  1.6026 -3.2281  0.2035
  136MOL0     H17897   1.280   8.864   3.165  0.1130  0.4266  1.4770
  136MOL0     H17898   1.391   8.742   3.099 -0.0810 -2.0414  1.3080
  136MOL0     H17899   1.469   8.669   3.296  1.4704 -0.0358 -0.2167
  136MOL0     H17900   1.350   8.749   3.401  1.2323 -1.3764  1.2399
  136MOL0     H17901   1.539   8.900   3.215 -0.3610 -0.2678  0.1547
  136MOL0     H17902   1.423   8.966   3.339 -0.1954 -0.5290  3.1167
  136MOL0     H17903   1.665   8.785   3.400 -0.6734  0.1122 -4.0916
  136MOL0     H17904   1.550   8.841   3.515 -0.4159 -0.9942 -0.4183
  136MOL0     H17905   1.501   9.106   3.552 -0.1973 -0.8321  1.1403
  136MOL0     H17906   1.568   9.369   3.538 -0.4780 -2.9938  0.1728
  136MOL0     H17907   1.724   9.391   3.452 -0.7776 -0.4266 -1.3848
  136MOL0     H17908   1.754   9.481   3.672  0.5942 -0.9566  2.5745
  136MOL0     H17909   1.838   9.318   3.657 -0.0333 -0.4836 -3.2766
  136MOL0     H17910   1.611   9.411   3.843  0.6306 -0.4239  0.9179
  136MOL0     H17911   1.617   9.242   3.781 -0.0920  0.2715 -1.9214
  136MOL0     H17912   1.737   9.262   3.996  3.0466 -0.5607  1.3313
  136MOL0     H17913   1.850   9.389   3.923  0.4085 -0.8645  0.7115
  136MOL0     H17914   2.010   9.326   4.058  0.7686 -0.7785  1.8458
  136MOL0     H17915   2.237   9.301   4.102 -2.2029 -0.7063  0.1949
  136MOL0     H17916   2.620   9.380   4.174 -2.4211 -1.6414  0.4061
  136MOL0     H17917   2.867   9.396   4.166  0.5285 -0.2566  1.5587
  136MOL0     H17918   3.079   9.379   4.189 -0.8125  0.7482 -0.3195
  136MOL0     H17919   3.072   9.333   4.021 -5.8446 -1.0667  1.3762
  136MOL0     H17920   3.277   9.304   4.228 -1.6768  1.7033 -0.8058
  136MOL0     H17921   3.312   9.384   4.086 -0.4201 -0.4193 -3.4776
  136MOL0     H17922   3.315   9.171   3.955 -2.2397 -1.7146 -0.0246
  136MOL0     H17923   3.275   9.087   4.097  0.1545  1.2940  2.2859
  136MOL0     H17924   3.523   9.262   4.089 -3.0317  1.2023  2.0771
  136MOL0     H17925   3.486   9.145   4.210  1.1793  0.9156  0.0578
  136MOL0     H17926   3.540   9.097   3.911 -2.3977 -0.8664 -0.9217
  136MOL0     H17927   3.468   8.972   4.006 -3.1428  2.1254 -1.0777
  136MOL0     H17928   3.683   9.021   4.156  0.9540  3.7959  0.1582
  136MOL0     H17929   3.748   9.087   4.011  0.3926  0.2151  1.8059
  136MOL0     H17930   3.647   8.805   4.032 -2.8678  2.1147 -0.6432
  136MOL0     H17931   3.731   8.878   3.896 -3.2819 -0.3694 -0.0540
  136MOL0     H17932   3.900   8.754   4.003 -0.6827 -0.1989 -1.3400
  136MOL0     H17933   3.866   8.841   4.156  1.6628 -2.5065 -0.0882
  136MOL0     H17934   2.905   8.990   4.081 -0.9211  0.2269 -3.3026
  136MOL0     H17935   2.647   8.956   4.098  0.9052 -0.5911 -0.0597
  136MOL0     H17936   2.286   9.047   3.763  1.9791  1.5327  1.3701
  136MOL0     H17937   2.039   9.038   3.721  1.1840  0.7211 -0.8523
  136MOL0     H17938   0.645   8.832   3.151 -3.1355  0.7934 -3.0555
  136MOL0     H17939   0.402   8.828   3.136  0.4542  0.1123  0.9183
  136MOL0     H17940  -0.018   8.678   3.573 -1.7116 -3.7402  2.8983
  136MOL0     H17941  -0.283   8.666   3.531 -1.5128 -3.5306 -0.3306
  136MOL0     H17942  -0.393   8.578   3.113 -2.3639 -3.6745 -2.2143
  136MOL0     H17943  -0.541   8.618   3.203  0.2922 -0.8480  0.3849
  136MOL0     H17944  -0.484   8.373   3.328  0.0913 -2.4422 -0.1539
  136MOL0     H17945  -0.569   8.391   3.172  1.2081  1.0344 -0.8927
  136MOL0     H17946  -0.270   8.322   3.227 -1.1911  0.3863  1.2856
  136MOL0     H17947  -0.322   8.384   3.074  0.0557  0.0310 -0.5731
  136MOL0     H17948  -0.304   8.124   3.121 -0.6402 -0.2905  4.0170
  136MOL0     H17949  -0.460   8.129   3.187 -0.1191  1.0335  1.2708
  136MOL0     H17950  -0.552   8.206   2.782 -0.3842  0.1352 -0.4083
  136MOL0     H17951  -0.192   8.587   3.122 -0.8692 -3.6098  0.5650
  136MOL0     H17952   0.041   8.601   3.167 -0.1470 -1.2789  0.8280
  137MOL0     O17953   0.302   4.249   5.321 -0.4874  0.2591  0.0047
  137MOL0     C17954   0.319   4.221   5.438 -0.2057  0.1654 -0.5366
  137MOL0     O17955   0.437   4.216   5.505  0.3019 -0.5794 -0.0383
  137MOL0     C17956   0.553   4.278   5.465 -0.0730  0.1313  0.2484
  137MOL0     C17957   0.566   4.369   5.359 -0.5065  0.0122 -0.0309
  137MOL0     C17958   0.687   4.435   5.335 -0.8747  0.2548  0.0291
  137MOL0     C17959   0.805   4.415   5.421 -0.7276  0.5842  0.3387
  137MOL0     O17960   0.930   4.474   5.398 -0.2992 -0.1065  0.0098
  137MOL0     C17961   0.958   4.504   5.262  0.0506  0.8130 -0.3727
  137MOL0     C17962   1.105   4.560   5.248 -0.3462  1.1484 -0.1030
  137MOL0     C17963   1.140   4.667   5.346  0.0950 -0.1237  0.1486
  137MOL0     C17964   1.270   4.742   5.300  0.1135  1.0167  0.3443
  137MOL0     C17965   1.234   4.816   5.173  0.0506 -0.2391 -0.2583
  137MOL0     C17966   1.309   4.945   5.138 -0.0585  1.0140  1.0754
  137MOL0     C17967   1.261   5.007   4.997  1.1738  0.5503 -0.0811
  137MOL0     C17968   1.265   5.162   4.994  0.1357 -0.1060 -1.7031
  137MOL0     N17969   1.402   5.208   5.003  0.5959 -1.1788  0.1122
  137MOL0     C17970   1.512   5.158   4.936 -0.0685  0.0478 -0.9339
  137MOL0     C17971   1.612   5.237   4.968  0.1457  0.3633 -0.3289
  137MOL0     C17972   1.750   5.236   4.896 -0.1248 -0.0338  0.5112
  137MOL0     C17973   1.835   5.120   4.959  0.2193  1.0526 -1.1219
  137MOL0     C17974   1.840   5.145   5.110  0.2292 -0.1181  0.5921
  137MOL0     C17975   1.970   5.117   5.191 -1.1238  0.1922 -0.8331
  137MOL0     O17976   2.018   5.248   5.213 -0.4741 -0.3577 -0.9426
  137MOL0     C17977   2.145   5.263   5.271  0.1563  0.1586 -0.2470
  137MOL0     C17978   2.197   5.182   5.369  0.1827  0.0646 -0.2364
  137MOL0     C17979   2.310   5.231   5.441  0.7790 -0.5818  0.2756
  137MOL0     C17980   2.389   5.330   5.391 -0.6956  0.0308  0.0548
  137MOL0     C17981   2.527   5.361   5.451 -0.6749  0.9411  0.4677
  137MOL0     O17982   2.593   5.478   5.424 -0.3313 -0.0624 -0.0375
  137MOL0     C17983   2.730   5.473   5.438 -0.5865  0.2457  0.3326
  137MOL0     C17984   2.801   5.562   5.526  0.7528  0.1242  0.4193
  137MOL0     C17985   2.935   5.534   5.550 -0.7039  0.2943  0.4702
  137MOL0     C17986   3.013   5.450   5.469 -0.0504  0.2584  1.0551
  137MOL0     O17987   3.146   5.442   5.487  0.3632  0.9692  0.0145
  137MOL0     C17988   3.193   5.337   5.584 -0.3467 -0.1514  0.0935
  137MOL0     C17989   3.344   5.304   5.572 -0.0736 -0.4041 -0.7567
  137MOL0     C17990   3.429   5.394   5.660 -0.2215 -0.3485  0.5538
  137MOL0     C17991   3.583   5.369   5.656 -1.0221 -0.5111  0.8903
  137MOL0     C17992   3.624   5.236   5.731  0.3008  0.2890  0.4526
  137MOL0     C17993   3.651   5.272   5.882  0.7609 -0.2315 -0.1134
  137MOL0     C17994   3.654   5.150   5.982 -0.4591  0.6099 -0.1310
  137MOL0     C17995   3.519   5.090   6.022 -0.0393 -0.1340 -0.0246
  137MOL0    Cl17996   3.516   5.061   6.212 -0.5294 -0.0348 -0.1972
  137MOL0     C17997   2.948   5.361   5.382 -0.8626  0.9206 -1.5795
  137MOL0     C17998   2.810   5.378   5.363 -0.1060  0.2007  0.4762
  137MOL0     O17999   2.575   5.267   5.516  0.1810 -0.3474  0.2989
  137MOL0     C18000   2.350   5.394   5.286 -0.1285 -0.2028  0.5231
  137MOL0     C18001   2.228   5.369   5.224 -0.1269 -0.0093 -0.0289
  137MOL0     N18002   1.564   5.333   5.049  0.3254 -0.3125 -0.3738
  137MOL0     N18003   1.441   5.316   5.075  0.0060  0.2393 -0.2570
  137MOL0     C18004   0.792   4.319   5.522  1.4578 -0.2911 -0.2239
  137MOL0     C18005   0.668   4.260   5.543  0.8095  0.2884  0.5765
  137MOL0     C18006   0.209   4.180   5.530 -0.3104 -0.7384  0.6664
  137MOL0     C18007   0.213   4.154   5.663 -0.2516  0.0509  0.9245
  137MOL0     C18008   0.099   4.133   5.741  0.5670  0.2892 -0.0994
  137MOL0     C18009  -0.023   4.122   5.681 -1.1023  0.8046  0.3054
  137MOL0     O18010  -0.122   4.112   5.769  0.3525  0.1892 -0.1625
  137MOL0     C18011  -0.254   4.091   5.720 -0.1836 -0.2878  0.1152
  137MOL0     C18012  -0.339   4.034   5.832  0.0866 -0.3501 -0.3127
  137MOL0     C18013  -0.334   4.127   5.958  0.3056 -0.4251 -0.0626
  137MOL0     C18014  -0.426   4.065   6.068  0.2045  0.3027 -0.8957
  137MOL0     C18015  -0.567   4.057   6.030  0.0084  0.2356  0.1943
  137MOL0     C18016  -0.683   4.051   6.001  0.7195  0.6933 -0.4714
  137MOL0     C18017  -0.038   4.155   5.550  0.3590 -0.0964  0.5302
  137MOL0     C18018   0.075   4.183   5.473 -0.2086 -0.9533 -0.5845
  137MOL0     H18019   0.487   4.390   5.288 -0.6525 -3.1678 -0.9557
  137MOL0     H18020   0.713   4.505   5.256  6.8265 -0.0312  1.5813
  137MOL0     H18021   0.893   4.584   5.227 -3.1878 -2.3073 -2.2296
  137MOL0     H18022   0.932   4.418   5.199 -0.9843  2.5832 -2.5142
  137MOL0     H18023   1.125   4.605   5.150 -1.6035  0.7461 -0.5689
  137MOL0     H18024   1.165   4.471   5.267 -2.9016 -0.6223  0.1570
  137MOL0     H18025   1.160   4.617   5.441 -3.3089 -4.2489 -0.9822
  137MOL0     H18026   1.055   4.734   5.332  1.1842  0.8662 -2.4117
  137MOL0     H18027   1.306   4.812   5.377  0.5170  0.0192  1.0764
  137MOL0     H18028   1.353   4.673   5.283 -2.6746 -2.6437  0.4284
  137MOL0     H18029   1.130   4.850   5.173  0.3502  0.7133  0.0208
  137MOL0     H18030   1.259   4.752   5.088  0.9952  2.4123 -2.1374
  137MOL0     H18031   1.418   4.935   5.148 -0.2350  0.8134  3.4332
  137MOL0     H18032   1.276   5.020   5.210 -0.6195  2.3516 -0.4968
  137MOL0     H18033   1.311   4.970   4.908  1.1050 -0.2078  0.1887
  137MOL0     H18034   1.158   4.976   4.977  0.6693  3.2466 -2.2049
  137MOL0     H18035   1.209   5.196   5.081  1.2061 -0.6380 -0.7926
  137MOL0     H18036   1.214   5.196   4.903 -2.3705 -2.8424 -1.4638
  137MOL0     H18037   1.525   5.083   4.858 -2.5230 -1.7556  0.2146
  137MOL0     H18038   1.800   5.331   4.917  1.0317 -0.8104  1.3931
  137MOL0     H18039   1.721   5.224   4.792 -1.5525  2.2966  0.5630
  137MOL0     H18040   1.932   5.124   4.909  1.3762 -1.3317  0.7456
  137MOL0     H18041   1.784   5.023   4.948  1.8510 -0.1410  1.1004
  137MOL0     H18042   1.809   5.247   5.135 -2.8814 -0.4342 -1.4692
  137MOL0     H18043   1.772   5.075   5.160 -0.6022  1.1330  1.2735
  137MOL0     H18044   2.033   5.048   5.135  0.8053  0.5214  0.8047
  137MOL0     H18045   1.962   5.060   5.284  3.0732 -0.0050 -0.3976
  137MOL0     H18046   2.142   5.096   5.405  0.5190 -0.0775 -0.0567
  137MOL0     H18047   2.343   5.176   5.529 -1.8567  0.1342  1.8469
  137MOL0     H18048   2.740   5.637   5.575  1.1042  0.2574  0.6491
  137MOL0     H18049   2.990   5.601   5.615  1.3738 -1.1892  0.3145
  137MOL0     H18050   3.136   5.245   5.569 -0.0800 -0.5305  1.2893
  137MOL0     H18051   3.168   5.364   5.686 -0.7826 -2.7095  0.7311
  137MOL0     H18052   3.365   5.318   5.466  2.6661 -1.5619 -0.4510
  137MOL0     H18053   3.373   5.201   5.595  2.9717  0.7159  1.0522
  137MOL0     H18054   3.401   5.379   5.765 -0.1455 -0.8420  0.5040
  137MOL0     H18055   3.413   5.497   5.626 -1.0875 -0.3641  0.8776
  137MOL0     H18056   3.601   5.360   5.549 -0.4202  0.7196  0.8684
  137MOL0     H18057   3.639   5.456   5.692 -1.0703  0.9118 -2.1685
  137MOL0     H18058   3.712   5.185   5.692  1.3512  1.3947  1.2981
  137MOL0     H18059   3.538   5.169   5.719 -0.6516  1.7433 -1.4098
  137MOL0     H18060   3.572   5.339   5.914 -0.1425 -1.4755  0.3436
  137MOL0     H18061   3.754   5.309   5.883  2.2622 -3.7715  3.3785
  137MOL0     H18062   3.724   5.082   5.932  2.5567  1.0618  3.0851
  137MOL0     H18063   3.699   5.181   6.076  3.2356 -1.8489 -0.8599
  137MOL0     H18064   3.494   4.998   5.968 -3.6823  0.8970 -0.3974
  137MOL0     H18065   3.426   5.140   5.991 -2.0195 -4.7376 -2.5667
  137MOL0     H18066   3.003   5.286   5.326  0.7104 -0.1187  1.1434
  137MOL0     H18067   2.754   5.320   5.290  1.6544  1.3712 -1.9454
  137MOL0     H18068   2.405   5.474   5.238  1.2498 -0.8704  0.9484
  137MOL0     H18069   2.203   5.428   5.136  0.8035 -1.0905 -1.0414
  137MOL0     H18070   0.876   4.290   5.585  2.5611  0.8460 -1.1201
  137MOL0     H18071   0.645   4.189   5.621 -2.1421 -0.5878 -0.9443
  137MOL0     H18072   0.313   4.161   5.705  0.2647  4.1056 -0.5440
  137MOL0     H18073   0.110   4.122   5.849  2.2063 -2.4823 -0.4388
  137MOL0     H18074  -0.252   4.014   5.642 -0.5094 -1.3216  1.1139
  137MOL0     H18075  -0.289   4.185   5.678 -2.1738 -0.9851  0.1237
  137MOL0     H18076  -0.441   4.031   5.791 -1.1825  2.3270  2.2523
  137MOL0     H18077  -0.308   3.934   5.861 -1.6289 -0.1814  2.5135
  137MOL0     H18078  -0.373   4.227   5.936 -1.6660 -0.7527  1.6047
  137MOL0     H18079  -0.232   4.133   5.998 -0.3605  2.9024  1.5074
  137MOL0     H18080  -0.383   3.966   6.088 -0.2580  0.0714 -1.0566
  137MOL0     H18081  -0.414   4.115   6.165  1.0136 -1.5445  0.0194
  137MOL0     H18082  -0.775   4.051   5.947  1.9719 -0.0796 -2.7195
  137MOL0     H18083  -0.129   4.144   5.491  1.9719 -3.2504 -1.6777
  137MOL0     H18084   0.049   4.224   5.376  1.3981  1.3845 -0.1089
  138MOL0     O18085   2.972   8.113   0.048 -0.3651 -0.3396  0.8963
  138MOL0     C18086   2.950   7.994   0.044  0.3038  0.5654  0.3415
  138MOL0     O18087   3.036   7.890   0.006  0.0331  0.0063 -0.2751
  138MOL0     C18088   3.166   7.898  -0.035 -0.1059 -0.3384 -0.7086
  138MOL0     C18089   3.225   7.780  -0.068 -0.6525  0.6723  0.3536
  138MOL0     C18090   3.360   7.768  -0.118  0.3184 -0.5877 -0.9207
  138MOL0     C18091   3.429   7.888  -0.145  0.1653 -0.0303 -0.0080
  138MOL0     O18092   3.551   7.891  -0.223 -0.5685 -0.0723  0.1208
  138MOL0     C18093   3.525   7.855  -0.350  0.3445 -0.1711  1.0179
  138MOL0     C18094   3.621   7.907  -0.452 -0.5522  0.0014  0.5154
  138MOL0     C18095   3.768   7.859  -0.424 -0.5171  0.1346 -0.4594
  138MOL0     C18096   3.846   7.899  -0.301 -0.8947  0.7505 -0.0908
  138MOL0     C18097   3.994   7.872  -0.329  0.4200  0.5672  0.6035
  138MOL0     C18098   4.086   7.882  -0.207 -0.0699  0.4630 -0.3178
  138MOL0     C18099   4.231   7.905  -0.245 -0.1990  0.2555  0.1932
  138MOL0     C18100   4.300   7.783  -0.315 -0.5686 -0.3141  1.3861
  138MOL0     N18101   4.431   7.818  -0.379  0.7333  0.2380 -1.1334
  138MOL0     C18102   4.510   7.918  -0.338 -0.5312 -0.8748 -0.3407
  138MOL0     C18103   4.619   7.905  -0.415  0.1216  0.0043  0.0488
  138MOL0     C18104   4.733   7.997  -0.431 -0.8522  0.2513 -1.3775
  138MOL0     C18105   4.859   7.929  -0.399  0.0185  0.7190  0.8615
  138MOL0     C18106   4.870   7.897  -0.255  0.8673  0.3112  0.2868
  138MOL0     C18107   5.005   7.846  -0.219 -0.5476  0.0041  0.0155
  138MOL0     O18108   5.109   7.952  -0.211 -1.1632  0.3606  0.1751
  138MOL0     C18109   5.236   7.925  -0.162 -0.1556  0.4426  0.0415
  138MOL0     C18110   5.304   7.815  -0.213 -0.2135 -0.0792  0.0708
  138MOL0     C18111   5.432   7.795  -0.163 -0.5264 -0.6496 -0.2331
  138MOL0     C18112   5.504   7.882  -0.083 -0.0149 -0.0641 -0.3751
  138MOL0     C18113   5.646   7.868  -0.050 -0.2899  0.4909  0.8786
  138MOL0     O18114   5.709   7.766  -0.117 -0.6364  0.6214 -0.1590
  138MOL0     C18115   5.843   7.742  -0.089 -0.0563  0.0949 -0.6202
  138MOL0     C18116   5.931   7.705  -0.192 -0.9044 -0.4846  0.8828
  138MOL0     C18117   6.063   7.666  -0.165  0.2988  0.0033  0.1751
  138MOL0     C18118   6.115   7.680  -0.034 -0.7774 -0.7020 -0.5482
  138MOL0     O18119   6.247   7.657  -0.011 -0.0346  0.2500 -0.3022
  138MOL0     C18120   6.329   7.769  -0.042 -0.6702 -0.7988  0.4713
  138MOL0     C18121   6.475   7.729  -0.085 -0.8125  0.2361 -0.3806
  138MOL0     C18122   6.471   7.620  -0.191  0.3534  0.5724  0.7395
  138MOL0     C18123   6.614   7.568  -0.213  0.1362  0.1023  0.7540
  138MOL0     C18124   6.666   7.619  -0.358  0.0783  0.2790  0.5614
  138MOL0     C18125   6.779   7.523  -0.410  0.3591  0.5256 -0.2227
  138MOL0     C18126   6.912   7.541  -0.341  0.2749  0.0669  0.0364
  138MOL0     C18127   6.967   7.405  -0.299  0.9284 -0.1941 -1.4236
  138MOL0    Cl18128   6.976   7.305  -0.450 -0.1715 -0.2301  0.1465
  138MOL0     C18129   6.028   7.731   0.066 -0.7529 -0.2815 -1.0595
  138MOL0     C18130   5.891   7.746   0.040 -0.2630  0.1090  0.7385
  138MOL0     O18131   5.702   7.951   0.032  0.0547  0.3351  0.4189
  138MOL0     C18132   5.434   7.992  -0.035 -0.1684  0.5839 -0.4449
  138MOL0     C18133   5.300   8.015  -0.076 -0.2870  0.7121  0.7441
  138MOL0     N18134   4.606   7.799  -0.502 -0.9133  0.3726  0.2037
  138MOL0     N18135   4.486   7.753  -0.481  0.3217  0.2822 -0.3060
  138MOL0     C18136   3.366   8.014  -0.106  0.0640  0.5283 -0.5666
  138MOL0     C18137   3.240   8.018  -0.057  1.0630 -0.4950 -0.1684
  138MOL0     C18138   2.813   7.944   0.077 -1.1653  0.4369 -1.4201
  138MOL0     C18139   2.791   7.805   0.102 -0.3591 -0.5657  0.3625
  138MOL0     C18140   2.663   7.773   0.138 -0.1942  1.0004  0.0578
  138MOL0     C18141   2.557   7.860   0.146 -0.5516 -0.6626  0.3937
  138MOL0     O18142   2.423   7.841   0.170  0.0843 -0.0692  0.4757
  138MOL0     C18143   2.389   7.716   0.222  0.2583  1.2958 -0.4985
  138MOL0     C18144   2.302   7.732   0.351  0.3563 -0.9551 -0.8876
  138MOL0     C18145   2.180   7.818   0.330 -0.5611 -0.5127 -0.3351
  138MOL0     C18146   2.060   7.759   0.415 -0.1095 -0.0250  0.4120
  138MOL0     C18147   2.073   7.789   0.556  1.0042 -0.5170 -0.4252
  138MOL0     C18148   2.101   7.800   0.672 -0.2190  1.0338 -0.7699
  138MOL0     C18149   2.585   7.996   0.117  0.1603  0.3623 -0.0505
  138MOL0     C18150   2.718   8.041   0.093  0.8273 -0.2712 -0.2019
  138MOL0     H18151   3.174   7.688  -0.041 -1.0574  0.8683  0.2564
  138MOL0     H18152   3.409   7.675  -0.145 -0.0994 -0.7089 -1.2658
  138MOL0     H18153   3.435   7.908  -0.384  0.7275  0.3143  0.7468
  138MOL0     H18154   3.513   7.747  -0.361 -1.8897 -0.0608  1.8631
  138MOL0     H18155   3.621   8.016  -0.441 -1.2808 -0.1686  2.5319
  138MOL0     H18156   3.597   7.886  -0.557 -2.4454  0.3719  0.8489
  138MOL0     H18157   3.822   7.897  -0.511 -0.6412  4.1649  1.0032
  138MOL0     H18158   3.771   7.750  -0.415 -2.3074  0.2008  1.7092
  138MOL0     H18159   3.837   8.007  -0.285 -1.0482  1.1924 -2.7457
  138MOL0     H18160   3.819   7.849  -0.207  0.5752 -1.4599 -0.7642
  138MOL0     H18161   4.027   7.936  -0.411  2.6973 -0.3334  0.7540
  138MOL0     H18162   3.997   7.766  -0.359 -1.4881  1.1393 -2.0016
  138MOL0     H18163   4.071   7.798  -0.138 -1.4128  3.5338  3.4620
  138MOL0     H18164   4.056   7.968  -0.148 -3.8724  0.3341 -1.7424
  138MOL0     H18165   4.235   7.994  -0.308 -0.1039 -0.9063 -1.5195
  138MOL0     H18166   4.289   7.924  -0.155  0.8930 -0.7529 -0.2760
  138MOL0     H18167   4.236   7.744  -0.394  1.0632  1.5799 -1.0264
  138MOL0     H18168   4.307   7.701  -0.244 -3.7094 -1.2585  0.7553
  138MOL0     H18169   4.491   7.983  -0.253 -0.0595 -0.9281 -0.1880
  138MOL0     H18170   4.711   8.082  -0.365  2.2148  0.1315 -0.0486
  138MOL0     H18171   4.741   8.046  -0.528  2.3491  4.1419  0.5395
  138MOL0     H18172   4.943   7.994  -0.422 -0.6917  1.0029 -1.1408
  138MOL0     H18173   4.873   7.835  -0.454  1.1394  2.2607 -1.6325
  138MOL0     H18174   4.855   7.991  -0.200  0.8734 -0.5555  1.8071
  138MOL0     H18175   4.784   7.833  -0.233  1.9514 -1.3925 -0.2791
  138MOL0     H18176   5.033   7.771  -0.294 -1.4391  0.2664 -0.5942
  138MOL0     H18177   4.986   7.820  -0.115 -2.0740  1.2701  0.0946
  138MOL0     H18178   5.261   7.754  -0.292 -0.7234 -1.2008  1.1887
  138MOL0     H18179   5.479   7.711  -0.214  1.7106 -1.4264  2.8570
  138MOL0     H18180   5.897   7.697  -0.294  1.3922  0.7914 -0.0522
  138MOL0     H18181   6.128   7.617  -0.237 -1.2272 -0.7575 -0.7383
  138MOL0     H18182   6.334   7.825   0.052 -0.0132  0.1399 -0.1025
  138MOL0     H18183   6.287   7.835  -0.118 -0.8612 -0.2301  1.0559
  138MOL0     H18184   6.526   7.682  -0.001  0.4599 -0.1510 -1.3395
  138MOL0     H18185   6.534   7.811  -0.128 -1.7526  0.8317 -0.5715
  138MOL0     H18186   6.432   7.662  -0.284  1.0915  3.4719  1.6363
  138MOL0     H18187   6.406   7.534  -0.169  2.4274 -1.6862 -1.3462
  138MOL0     H18188   6.681   7.601  -0.133  1.6966 -3.5258  1.0933
  138MOL0     H18189   6.611   7.459  -0.212 -0.4431  0.0709 -0.7594
  138MOL0     H18190   6.719   7.714  -0.348  0.7278 -0.1694  1.6292
  138MOL0     H18191   6.579   7.628  -0.422 -2.0054  0.3667  3.2309
  138MOL0     H18192   6.797   7.548  -0.515 -1.1712  2.4686 -0.0706
  138MOL0     H18193   6.754   7.416  -0.410  2.6374 -0.0917  1.6344
  138MOL0     H18194   6.979   7.589  -0.412 -0.9111  3.2658  0.9129
  138MOL0     H18195   6.910   7.600  -0.249  1.2117 -1.8249  1.3527
  138MOL0     H18196   6.895   7.355  -0.234  1.3356  2.6250  1.4054
  138MOL0     H18197   7.062   7.421  -0.248 -0.1616 -1.6144  1.2925
  138MOL0     H18198   6.074   7.762   0.159 -1.0423  2.3800 -1.7111
  138MOL0     H18199   5.827   7.766   0.125  1.2499  2.0273  1.4862
  138MOL0     H18200   5.477   8.049   0.046  0.2931  0.5657 -0.6757
  138MOL0     H18201   5.249   8.095  -0.025 -0.8352  0.1798  1.0420
  138MOL0     H18202   3.417   8.107  -0.128  0.5312  0.8336  1.6127
  138MOL0     H18203   3.197   8.111  -0.022 -0.6652 -2.0049  1.9837
  138MOL0     H18204   2.875   7.737   0.088  1.8435  2.0159  0.3675
  138MOL0     H18205   2.658   7.666   0.156 -1.1579  1.2247  1.2293
  138MOL0     H18206   2.470   7.645   0.238  0.6720  1.6513 -0.9884
  138MOL0     H18207   2.327   7.660   0.151  2.8847 -1.7362 -0.6400
  138MOL0     H18208   2.264   7.633   0.379 -3.0537  0.0805 -1.4537
  138MOL0     H18209   2.369   7.786   0.419 -2.3584  1.3105  0.1466
  138MOL0     H18210   2.153   7.825   0.225 -0.1844  0.8225 -0.3676
  138MOL0     H18211   2.203   7.922   0.355  0.2293 -0.0554 -2.7411
  138MOL0     H18212   1.957   7.775   0.379 -0.0829 -4.4966 -2.3390
  138MOL0     H18213   2.073   7.651   0.406 -0.1189  0.0654 -0.8985
  138MOL0     H18214   2.123   7.805   0.777  1.3748  1.3501 -1.1022
  138MOL0     H18215   2.498   8.060   0.115 -1.0876 -1.2752 -1.2564
  138MOL0     H18216   2.736   8.148   0.093  3.8569 -0.5632  3.3822
  139MOL0     O18217   0.072   9.885   7.331 -0.0424 -0.9695 -0.6958
  139MOL0     C18218   0.113   9.768   7.322 -0.5508  1.0050 -0.9382
  139MOL0     O18219   0.051   9.665   7.261  0.0502  0.9802 -0.0008
  139MOL0     C18220  -0.067   9.692   7.195  0.3434 -0.1195  0.9301
  139MOL0     C18221  -0.190   9.702   7.257 -0.2652  0.2306 -0.2253
  139MOL0     C18222  -0.311   9.717   7.188  0.5139  0.2262  0.3237
  139MOL0     C18223  -0.313   9.702   7.053  1.3199 -0.0054 -0.4624
  139MOL0     O18224  -0.423   9.720   6.967 -0.5334  0.2235  0.1233
  139MOL0     C18225  -0.544   9.773   7.020  0.2937 -0.3937  0.7385
  139MOL0     C18226  -0.652   9.790   6.906  0.4718 -0.3098 -0.7932
  139MOL0     C18227  -0.696   9.650   6.847  0.3809  0.0645  0.8269
  139MOL0     C18228  -0.792   9.565   6.935 -0.3994 -0.2524 -0.0937
  139MOL0     C18229  -0.897   9.481   6.862 -0.1065 -0.7287  0.7843
  139MOL0     C18230  -0.844   9.361   6.799 -0.0538 -0.7660  0.7004
  139MOL0     C18231  -0.795   9.259   6.895  0.4567  0.5397  0.3422
  139MOL0     C18232  -0.769   9.118   6.817  0.3342 -0.0815 -0.7306
  139MOL0     N18233  -0.687   9.127   6.701 -0.7149  0.3109  0.1031
  139MOL0     C18234  -0.556   9.081   6.698  0.2666 -0.6602  0.3279
  139MOL0     C18235  -0.524   9.094   6.566 -0.1658 -1.1577 -0.4123
  139MOL0     C18236  -0.392   9.045   6.507  0.3485 -0.5678  0.1845
  139MOL0     C18237  -0.332   9.165   6.425 -0.7159  1.8124  0.7467
  139MOL0     C18238  -0.192   9.111   6.372  0.0891 -0.4908 -0.3537
  139MOL0     C18239  -0.091   9.126   6.481  0.6718 -0.3289 -0.6764
  139MOL0     O18240  -0.053   9.258   6.521 -0.0074  0.2802 -0.0752
  139MOL0     C18241   0.080   9.280   6.537 -0.6132 -0.7124 -0.0675
  139MOL0     C18242   0.151   9.201   6.621 -0.4904 -0.0959  0.3761
  139MOL0     C18243   0.268   9.248   6.664  0.0479 -0.0135  0.4735
  139MOL0     C18244   0.330   9.363   6.604  0.6297  0.0360  0.3088
  139MOL0     C18245   0.451   9.432   6.646  0.7869  0.1508  1.1949
  139MOL0     O18246   0.514   9.521   6.563 -0.0448 -0.2583 -0.2597
  139MOL0     C18247   0.638   9.568   6.595  0.0268  0.3988 -0.2780
  139MOL0     C18248   0.658   9.686   6.670 -0.5643  0.7843  0.5613
  139MOL0     C18249   0.787   9.741   6.680  1.3303  0.0489 -0.8679
  139MOL0     C18250   0.897   9.664   6.638  0.0363  0.0551  0.2721
  139MOL0     O18251   1.017   9.720   6.669  0.4160 -0.3690  0.2323
  139MOL0     C18252   1.099   9.735   6.552  1.0116 -0.1014 -0.5764
  139MOL0     C18253   1.203   9.850   6.584 -0.2545  0.7415  0.1559
  139MOL0     C18254   1.324   9.842   6.492 -0.0944  0.2790 -0.1219
  139MOL0     C18255   1.436   9.940   6.531  0.0423  0.5216  0.0408
  139MOL0     C18256   1.575   9.910   6.466 -0.0139 -1.2888 -0.4404
  139MOL0     C18257   1.582   9.931   6.322  0.1426 -0.1041 -0.4276
  139MOL0     C18258   1.717   9.965   6.268  0.6445  0.2355  0.7643
  139MOL0     C18259   1.773  10.101   6.315 -0.7565  0.1976 -0.0338
  139MOL0    Cl18260   1.654  10.229   6.314 -0.2698  0.6470 -0.0581
  139MOL0     C18261   0.883   9.542   6.572 -0.3382 -0.0031 -0.4669
  139MOL0     C18262   0.756   9.501   6.547 -0.7230  0.9338  0.2244
  139MOL0     O18263   0.489   9.398   6.756 -0.0351 -0.3665 -0.0855
  139MOL0     C18264   0.257   9.430   6.505 -0.3066  0.4064 -0.5151
  139MOL0     C18265   0.131   9.389   6.473  1.4349 -0.8671  0.1246
  139MOL0     N18266  -0.638   9.135   6.494 -0.5628 -0.7547 -1.0523
  139MOL0     N18267  -0.732   9.156   6.577 -0.2620 -0.0288  0.6587
  139MOL0     C18268  -0.185   9.684   6.983  0.4853  0.5906 -0.1821
  139MOL0     C18269  -0.068   9.675   7.049  0.0985  0.5849 -0.3054
  139MOL0     C18270   0.242   9.731   7.392 -0.6191  0.1250 -0.2570
  139MOL0     C18271   0.297   9.606   7.376  0.5097 -0.8962 -0.3413
  139MOL0     C18272   0.416   9.566   7.441 -0.3033  0.3680 -0.2281
  139MOL0     C18273   0.478   9.660   7.528 -0.2169  0.8555  0.8072
  139MOL0     O18274   0.586   9.625   7.611 -0.2228 -0.5211 -0.2002
  139MOL0     C18275   0.703   9.705   7.603  0.5419  0.9478  0.3636
  139MOL0     C18276   0.795   9.659   7.713 -0.5442  0.9675 -0.5665
  139MOL0     C18277   0.744   9.674   7.857  0.2156 -0.6124 -0.7882
  139MOL0     C18278   0.831   9.610   7.974  0.7574  0.5687  0.5346
  139MOL0     C18279   0.775   9.482   8.013 -0.6900 -0.4161 -0.5358
  139MOL0     C18280   0.724   9.389   8.073 -0.1201  0.2107  0.1150
  139MOL0     C18281   0.421   9.785   7.539 -0.1835 -0.1128 -0.1764
  139MOL0     C18282   0.304   9.826   7.475  0.1408 -0.0377  1.0613
  139MOL0     H18283  -0.182   9.696   7.365  3.7834  0.1572 -0.4103
  139MOL0     H18284  -0.407   9.724   7.239 -1.2218  0.1627 -2.6718
  139MOL0     H18285  -0.523   9.871   7.064  0.4147 -0.9252  1.8957
  139MOL0     H18286  -0.586   9.704   7.094 -1.2294  0.3016  0.5691
  139MOL0     H18287  -0.619   9.853   6.822 -2.0559 -2.3511 -3.5632
  139MOL0     H18288  -0.735   9.839   6.959  2.2845  1.0687  0.9257
  139MOL0     H18289  -0.606   9.593   6.824 -0.1788 -0.5632  0.1273
  139MOL0     H18290  -0.750   9.669   6.753 -0.3621 -0.9925  1.0320
  139MOL0     H18291  -0.722   9.503   6.992 -3.5418 -2.9507  1.1671
  139MOL0     H18292  -0.841   9.642   6.995  0.2887  3.3651 -3.7588
  139MOL0     H18293  -0.946   9.542   6.786  0.2344 -0.3582  0.8565
  139MOL0     H18294  -0.980   9.461   6.931 -2.1184  0.5482 -1.1292
  139MOL0     H18295  -0.762   9.385   6.730 -0.7443  3.7809  1.1332
  139MOL0     H18296  -0.920   9.314   6.737  1.1947 -2.5454  0.4341
  139MOL0     H18297  -0.703   9.292   6.946  1.4108 -3.2039  1.3823
  139MOL0     H18298  -0.869   9.232   6.971  1.0503  1.2156  1.1841
  139MOL0     H18299  -0.868   9.095   6.776 -0.5302  1.4784  0.3717
  139MOL0     H18300  -0.735   9.035   6.879  2.6795  0.9283 -0.5684
  139MOL0     H18301  -0.499   9.055   6.787  1.9537  0.2537 -0.4318
  139MOL0     H18302  -0.405   8.952   6.450 -0.9676  0.0191 -0.5063
  139MOL0     H18303  -0.324   9.018   6.588 -2.3863 -0.6626  2.5685
  139MOL0     H18304  -0.339   9.256   6.486  1.2576  2.4599  0.0887
  139MOL0     H18305  -0.401   9.175   6.341 -0.8164  0.4621  0.6480
  139MOL0     H18306  -0.211   9.005   6.349 -4.7010 -0.3879  1.9612
  139MOL0     H18307  -0.154   9.172   6.290 -0.3524 -0.1872 -0.3340
  139MOL0     H18308  -0.001   9.075   6.445  2.3272  0.2770  2.1944
  139MOL0     H18309  -0.112   9.057   6.563  2.1847 -0.2205 -0.1586
  139MOL0     H18310   0.117   9.108   6.666  0.5898 -2.1275 -2.6752
  139MOL0     H18311   0.329   9.196   6.737  0.7792  2.5488  1.8110
  139MOL0     H18312   0.566   9.740   6.694 -0.9245 -0.3534  1.8519
  139MOL0     H18313   0.785   9.830   6.742  2.5523 -0.9220  0.6598
  139MOL0     H18314   1.045   9.771   6.464 -2.9333 -1.4390  1.0713
  139MOL0     H18315   1.154   9.645   6.524  4.6026  1.4859  0.7767
  139MOL0     H18316   1.235   9.846   6.689  0.3837 -0.3169 -0.0587
  139MOL0     H18317   1.150   9.943   6.562  0.4854  0.7261 -1.8731
  139MOL0     H18318   1.298   9.856   6.386  2.2841 -2.5875 -1.2283
  139MOL0     H18319   1.364   9.740   6.491 -2.0644 -0.6102  2.5351
  139MOL0     H18320   1.404  10.037   6.492 -1.1476  0.1096 -0.0348
  139MOL0     H18321   1.431   9.946   6.640 -0.3224 -1.2858  0.1482
  139MOL0     H18322   1.604   9.809   6.495 -0.9131 -1.6311 -0.6810
  139MOL0     H18323   1.647   9.974   6.518 -3.6788  1.2055  2.1014
  139MOL0     H18324   1.506   9.996   6.277 -1.4550 -1.8398 -0.3883
  139MOL0     H18325   1.555   9.840   6.266 -0.8020 -0.0594 -0.0691
  139MOL0     H18326   1.791   9.894   6.306  0.4363 -1.4798 -1.7833
  139MOL0     H18327   1.720   9.961   6.159  1.1677 -0.6220  0.8057
  139MOL0     H18328   1.855  10.139   6.254 -0.6448 -2.2855 -1.5711
  139MOL0     H18329   1.805  10.101   6.420 -2.1295  0.6154  0.4109
  139MOL0     H18330   0.966   9.483   6.537 -0.8271 -0.5137 -0.7851
  139MOL0     H18331   0.744   9.403   6.502 -3.5457  0.0372  2.5729
  139MOL0     H18332   0.292   9.526   6.470  0.5440 -0.1865 -1.3292
  139MOL0     H18333   0.060   9.443   6.411  1.4025 -2.6955 -1.5170
  139MOL0     H18334  -0.189   9.671   6.875  0.7938 -2.4520  0.0794
  139MOL0     H18335   0.028   9.666   6.999  1.2983 -0.9439  2.1082
  139MOL0     H18336   0.263   9.529   7.307  2.0056 -0.3947 -1.7042
  139MOL0     H18337   0.458   9.468   7.424 -0.1345  0.4640 -0.3642
  139MOL0     H18338   0.693   9.811   7.625  2.2268  1.3169 -0.4927
  139MOL0     H18339   0.740   9.705   7.500  0.2083 -3.7016  0.0242
  139MOL0     H18340   0.831   9.557   7.699 -1.8948  0.5283 -1.0593
  139MOL0     H18341   0.884   9.719   7.696  1.3134 -1.8630 -1.5196
  139MOL0     H18342   0.640   9.641   7.868 -0.0099  0.6288  1.2317
  139MOL0     H18343   0.746   9.781   7.879 -0.6141  0.0005 -3.3457
  139MOL0     H18344   0.938   9.610   7.955  0.7887 -0.7912  0.6175
  139MOL0     H18345   0.827   9.671   8.065  1.9728 -0.3356  1.2149
  139MOL0     H18346   0.683   9.311   8.134 -2.5199  3.1249  2.5859
  139MOL0     H18347   0.455   9.848   7.621 -2.9761  3.1086 -1.2760
  139MOL0     H18348   0.256   9.923   7.490  0.0603  0.1538 -0.3109
  140MOL0     O18349   9.995   8.304   0.228 -0.3344  0.4298 -0.2838
  140MOL0     C18350   9.956   8.397   0.293  0.2553  0.1205 -0.6987
  140MOL0     O18351   9.827   8.415   0.341  1.1587  0.3788  0.1570
  140MOL0     C18352   9.737   8.306   0.336  0.0576  0.0152 -0.8062
  140MOL0     C18353   9.599   8.345   0.313 -0.5098  0.7713  0.1256
  140MOL0     C18354   9.502   8.248   0.306  0.3497 -0.0911  0.4186
  140MOL0     C18355   9.540   8.109   0.308 -0.3419 -0.6118 -0.6021
  140MOL0     O18356   9.453   7.997   0.286  0.3901 -0.3167 -0.3953
  140MOL0     C18357   9.321   8.028   0.229  0.0158 -0.0031  0.5258
  140MOL0     C18358   9.238   7.903   0.221  0.3665 -0.4617 -0.2278
  140MOL0     C18359   9.186   7.876   0.361 -0.3656 -0.2034  0.1072
  140MOL0     C18360   9.095   7.752   0.351  0.2070  0.0540 -0.2294
  140MOL0     C18361   9.020   7.736   0.483  0.7594 -0.2098 -0.7820
  140MOL0     C18362   8.931   7.609   0.484  0.2602  0.6784  0.0476
  140MOL0     C18363   8.857   7.597   0.614  0.2752 -0.2215  0.2505
  140MOL0     C18364   8.810   7.447   0.656 -0.3994  0.3101  0.2699
  140MOL0     N18365   8.672   7.420   0.594 -0.3854 -0.0552  0.0883
  140MOL0     C18366   8.628   7.434   0.461  0.4811  0.0047 -0.5542
  140MOL0     C18367   8.495   7.439   0.472 -0.1992 -0.1910  0.1769
  140MOL0     C18368   8.399   7.427   0.354 -0.4046  0.7710 -0.9208
  140MOL0     C18369   8.411   7.545   0.249 -0.0772  0.9956  0.4648
  140MOL0     C18370   8.506   7.522   0.128 -1.0258  0.1301 -0.0162
  140MOL0     C18371   8.573   7.642   0.078  0.5289 -0.6303 -0.3241
  140MOL0     O18372   8.674   7.685   0.168  0.0382 -0.8541 -0.1213
  140MOL0     C18373   8.747   7.806   0.122 -0.1107  0.1929 -0.0746
  140MOL0     C18374   8.749   7.847  -0.010 -1.0696 -1.0829  0.1319
  140MOL0     C18375   8.824   7.961  -0.044 -0.4777 -0.3847  0.0335
  140MOL0     C18376   8.898   8.035   0.052  0.7761  0.0936  0.9105
  140MOL0     C18377   8.988   8.149   0.014 -0.1975 -0.3131 -0.4075
  140MOL0     O18378   9.048   8.215   0.116  0.5065  0.4897 -0.1035
  140MOL0     C18379   9.114   8.330   0.095  0.5959 -0.4338  0.3069
  140MOL0     C18380   9.249   8.343   0.045 -0.6401 -0.1797  0.2246
  140MOL0     C18381   9.303   8.472   0.034  0.0784 -0.2470  0.2689
  140MOL0     C18382   9.226   8.589   0.045  0.5351 -1.0989  0.8772
  140MOL0     O18383   9.275   8.712   0.026 -0.0118  0.1604  0.1515
  140MOL0     C18384   9.405   8.729  -0.028 -0.4702  0.2957 -0.3130
  140MOL0     C18385   9.444   8.871   0.002  1.4214 -0.4235  0.0849
  140MOL0     C18386   9.365   8.976  -0.085  0.1131  0.2259 -0.2123
  140MOL0     C18387   9.423   9.124  -0.079  1.0157  0.3467  0.2515
  140MOL0     C18388   9.374   9.212  -0.186  0.5781 -0.8289 -0.3840
  140MOL0     C18389   9.471   9.312  -0.254 -0.6146 -0.4039 -0.4870
  140MOL0     C18390   9.555   9.387  -0.150 -0.0854  0.5362  0.3224
  140MOL0     C18391   9.658   9.481  -0.219  0.2489 -0.0016  0.5818
  140MOL0    Cl18392   9.791   9.404  -0.300 -0.1029  0.3790  0.2139
  140MOL0     C18393   9.089   8.579   0.084 -0.4491  0.3279 -0.5682
  140MOL0     C18394   9.035   8.442   0.109 -0.6614 -0.4522 -0.3553
  140MOL0     O18395   8.986   8.194  -0.098  0.2120 -0.3900 -0.1375
  140MOL0     C18396   8.882   7.999   0.188 -0.2847  0.7749  0.7014
  140MOL0     C18397   8.804   7.889   0.226 -0.2420  0.6931 -0.3317
  140MOL0     N18398   8.459   7.423   0.607 -0.6218 -0.1264 -0.1624
  140MOL0     N18399   8.567   7.433   0.679  0.1648  0.3055  0.8362
  140MOL0     C18400   9.666   8.078   0.328  0.5063  0.3280 -0.6399
  140MOL0     C18401   9.764   8.167   0.338  0.3187 -0.5815  0.4737
  140MOL0     C18402  10.055   8.498   0.316 -0.1775  0.2813  0.0011
  140MOL0     C18403  10.186   8.497   0.267  0.8249  0.2620 -0.3842
  140MOL0     C18404  10.286   8.587   0.306  0.0936  0.1062 -0.9166
  140MOL0     C18405  10.246   8.700   0.383  0.3992 -0.1862 -0.1971
  140MOL0     O18406  10.329   8.803   0.423  0.0398 -0.7735  1.1251
  140MOL0     C18407  10.458   8.818   0.363 -0.5522 -0.3775  1.3356
  140MOL0     C18408  10.525   8.940   0.437 -0.1747  0.1790 -0.4987
  140MOL0     C18409  10.678   8.943   0.417  0.0588 -0.3925  0.3014
  140MOL0     C18410  10.736   9.078   0.463  0.6781 -0.0531 -0.7843
  140MOL0     C18411  10.871   9.076   0.508  0.2174  0.3919 -0.4466
  140MOL0     C18412  10.985   9.078   0.547  0.8300  0.1314 -0.0605
  140MOL0     C18413  10.115   8.715   0.418  0.0408  0.7944 -0.2906
  140MOL0     C18414  10.022   8.609   0.396  0.2524 -0.2779 -0.1860
  140MOL0     H18415   9.563   8.445   0.291 -0.3881  0.5250 -1.2851
  140MOL0     H18416   9.400   8.276   0.286 -0.1283  0.4194  3.2098
  140MOL0     H18417   9.336   8.066   0.127  0.7472 -2.4174 -0.3173
  140MOL0     H18418   9.261   8.105   0.279 -0.0240  0.8157 -0.7236
  140MOL0     H18419   9.293   7.811   0.196  0.7841 -0.7391  1.5839
  140MOL0     H18420   9.162   7.928   0.147  1.8746  0.8750 -1.4114
  140MOL0     H18421   9.137   7.960   0.410  2.2344  2.6831 -1.8776
  140MOL0     H18422   9.275   7.855   0.422  0.0768  0.7869 -0.1888
  140MOL0     H18423   9.027   7.776   0.268  0.8043  1.4007 -0.3511
  140MOL0     H18424   9.145   7.658   0.327 -0.3794 -0.0025 -1.3403
  140MOL0     H18425   8.954   7.822   0.500  1.2643  0.5586 -2.5621
  140MOL0     H18426   9.090   7.731   0.567  1.2779  3.1367 -0.9008
  140MOL0     H18427   8.988   7.517   0.468 -1.7350 -0.0739 -3.9584
  140MOL0     H18428   8.861   7.622   0.401 -1.3188  0.4450  1.3017
  140MOL0     H18429   8.922   7.616   0.700  0.1690 -0.0092  0.2869
  140MOL0     H18430   8.774   7.669   0.613  0.5966  0.1440 -0.1835
  140MOL0     H18431   8.824   7.452   0.765  0.0117  2.4117  0.1626
  140MOL0     H18432   8.884   7.383   0.608 -3.3647 -0.2258 -4.1529
  140MOL0     H18433   8.687   7.440   0.369  1.3374  0.1174 -0.0080
  140MOL0     H18434   8.296   7.421   0.390 -1.8683  0.9876 -4.6025
  140MOL0     H18435   8.419   7.328   0.313  0.1197  0.3980  0.2102
  140MOL0     H18436   8.441   7.623   0.319  2.5379 -2.4706  3.5700
  140MOL0     H18437   8.311   7.556   0.205 -0.4014 -2.3145  0.1390
  140MOL0     H18438   8.582   7.447   0.154 -0.8001  0.9250  1.7280
  140MOL0     H18439   8.449   7.474   0.047 -1.7066  0.1498  0.4439
  140MOL0     H18440   8.499   7.717   0.049  1.4055  1.0970  1.6295
  140MOL0     H18441   8.624   7.618  -0.016  1.6146 -0.2881  0.1598
  140MOL0     H18442   8.691   7.809  -0.094 -3.0404  2.9889 -0.5613
  140MOL0     H18443   8.822   7.996  -0.147 -1.5692 -4.8973 -1.6944
  140MOL0     H18444   9.319   8.263   0.022 -0.3456  0.2599 -0.4611
  140MOL0     H18445   9.410   8.472   0.019  0.4569  1.1186  2.6309
  140MOL0     H18446   9.401   8.705  -0.134  1.6311  0.8508 -0.5496
  140MOL0     H18447   9.477   8.664   0.021 -0.6156  1.1313  1.0748
  140MOL0     H18448   9.548   8.882  -0.031  0.9443  1.1871 -1.0034
  140MOL0     H18449   9.443   8.886   0.110 -1.6472  2.2085 -0.1712
  140MOL0     H18450   9.263   8.985  -0.048 -0.7077  1.3697 -2.5528
  140MOL0     H18451   9.364   8.941  -0.188  2.2781 -0.7627  0.0431
  140MOL0     H18452   9.405   9.171   0.018 -0.1521 -0.8711  0.6596
  140MOL0     H18453   9.524   9.096  -0.109  0.2532 -0.8404 -1.3788
  140MOL0     H18454   9.294   9.270  -0.139  1.8042 -1.3213  2.5318
  140MOL0     H18455   9.332   9.152  -0.267  0.8313 -0.4936 -0.7707
  140MOL0     H18456   9.409   9.389  -0.299  0.1904  0.7066  0.2289
  140MOL0     H18457   9.541   9.262  -0.321 -0.6109 -1.6118  0.3787
  140MOL0     H18458   9.488   9.448  -0.088 -1.1892 -1.5203  1.2753
  140MOL0     H18459   9.611   9.313  -0.092  3.6611  0.8158 -2.5572
  140MOL0     H18460   9.710   9.529  -0.136 -1.6052  2.3906  0.4865
  140MOL0     H18461   9.603   9.555  -0.279 -0.2434  1.4183  2.6584
  140MOL0     H18462   9.036   8.671   0.107 -2.0628 -1.0555  1.5854
  140MOL0     H18463   8.932   8.445   0.142 -0.6402 -0.2598 -0.3011
  140MOL0     H18464   8.940   8.050   0.264  0.1455  0.3947  0.6296
  140MOL0     H18465   8.794   7.857   0.329  1.5180  0.3511 -0.2391
  140MOL0     H18466   9.697   7.974   0.335  1.0247  0.5726  0.9224
  140MOL0     H18467   9.866   8.133   0.356  0.9176  1.2644  0.7687
  140MOL0     H18468  10.222   8.416   0.205  0.6679 -1.1005  1.2275
  140MOL0     H18469  10.390   8.569   0.278 -0.0836 -0.9049 -0.9619
  140MOL0     H18470  10.449   8.846   0.257 -2.5438 -1.6020  1.1406
  140MOL0     H18471  10.518   8.728   0.377 -0.9401 -1.2168 -1.7295
  140MOL0     H18472  10.475   9.031   0.404 -4.5250 -2.2915 -1.4909
  140MOL0     H18473  10.500   8.929   0.543 -0.9986 -0.2174 -0.7264
  140MOL0     H18474  10.704   8.932   0.311  2.6302  1.1007  0.6952
  140MOL0     H18475  10.714   8.859   0.477  0.7794  0.4178  1.0267
  140MOL0     H18476  10.723   9.139   0.373  2.5118  0.5011 -0.7078
  140MOL0     H18477  10.670   9.112   0.542  1.2925 -2.4943  0.8911
  140MOL0     H18478  11.092   9.074   0.556  0.7631  0.3380  0.9254
  140MOL0     H18479  10.086   8.802   0.475 -1.4238  0.1588 -0.0227
  140MOL0     H18480   9.927   8.636   0.442  0.8399  2.8213 -0.5671
  141MOL0     O18481   6.100   4.602   5.810  0.1081 -0.3525 -0.3355
  141MOL0     C18482   6.139   4.644   5.704 -0.4576 -0.0595 -0.2666
  141MOL0     O18483   6.097   4.593   5.581  1.5207 -0.5564  0.0130
  141MOL0     C18484   5.986   4.514   5.590 -0.7303  0.6477 -0.8122
  141MOL0     C18485   5.857   4.542   5.535 -0.5748  0.3112  0.3661
  141MOL0     C18486   5.750   4.448   5.535 -0.7311  0.2855 -0.1846
  141MOL0     C18487   5.753   4.338   5.613  0.4226  0.5572  0.0602
  141MOL0     O18488   5.646   4.251   5.624  0.0274 -0.4397 -0.0293
  141MOL0     C18489   5.615   4.199   5.748 -0.3229 -0.4352  0.7535
  141MOL0     C18490   5.511   4.099   5.715 -0.2045  0.7827  0.2824
  141MOL0     C18491   5.382   4.183   5.694  0.7729  0.1023 -0.6544
  141MOL0     C18492   5.269   4.095   5.625 -0.1183 -0.8472  0.1821
  141MOL0     C18493   5.134   4.170   5.629 -0.6545 -0.1616  0.6049
  141MOL0     C18494   5.016   4.077   5.570 -0.1572 -0.2347 -0.7889
  141MOL0     C18495   4.959   3.962   5.658 -0.4747  0.4569 -0.1985
  141MOL0     C18496   4.854   3.884   5.587 -0.5402 -0.0174  0.4398
  141MOL0     N18497   4.725   3.962   5.562 -0.8485 -0.2464  0.8841
  141MOL0     C18498   4.617   3.975   5.644 -0.3295  0.7223 -0.1021
  141MOL0     C18499   4.531   4.052   5.579  0.3147 -0.3432  0.1675
  141MOL0     C18500   4.412   4.123   5.632 -0.2502  0.7662  0.3645
  141MOL0     C18501   4.294   4.069   5.563  0.8120 -0.5378 -0.4323
  141MOL0     C18502   4.268   4.135   5.426 -0.3691 -0.3227  0.8775
  141MOL0     C18503   4.157   4.060   5.345  0.4652  0.0296  0.2368
  141MOL0     O18504   4.035   4.091   5.410 -0.0014 -1.1019 -0.9085
  141MOL0     C18505   3.918   4.046   5.357 -0.4654  0.3900 -0.9920
  141MOL0     C18506   3.908   3.982   5.228 -0.1228  1.1884 -0.0607
  141MOL0     C18507   3.782   3.967   5.170 -0.8068  0.1675  0.5001
  141MOL0     C18508   3.669   4.011   5.238 -0.2530 -0.2074 -0.4589
  141MOL0     C18509   3.534   3.988   5.189 -0.3428 -0.7920 -0.1712
  141MOL0     O18510   3.525   3.896   5.089  0.1444 -0.1624 -0.9971
  141MOL0     C18511   3.394   3.853   5.067  0.0699  0.2165 -0.6569
  141MOL0     C18512   3.333   3.764   5.159  0.5735  0.4989 -1.1137
  141MOL0     C18513   3.204   3.725   5.139  0.0584  0.2306 -0.0878
  141MOL0     C18514   3.129   3.784   5.037  0.3361  0.0412 -0.3715
  141MOL0     O18515   2.993   3.752   5.047 -0.5701  0.2783 -0.4534
  141MOL0     C18516   2.916   3.719   4.925 -0.9786  0.1691 -0.7328
  141MOL0     C18517   2.837   3.839   4.886  0.1778 -0.4509  0.0446
  141MOL0     C18518   2.747   3.795   4.777 -0.1090  0.1730 -0.0130
  141MOL0     C18519   2.705   3.902   4.686 -0.2773  0.1139  0.1444
  141MOL0     C18520   2.608   3.998   4.756 -0.0712 -0.5288 -0.4991
  141MOL0     C18521   2.473   3.934   4.804  0.4212  0.6232 -0.4528
  141MOL0     C18522   2.395   4.041   4.886 -0.2810  0.0194  0.4123
  141MOL0     C18523   2.264   3.993   4.963  0.3194  0.9757  0.5103
  141MOL0    Cl18524   2.143   3.921   4.840 -0.5950  0.0055 -0.4059
  141MOL0     C18525   3.186   3.874   4.949  0.7888  0.7526  0.0043
  141MOL0     C18526   3.315   3.913   4.971 -0.3214  0.8328 -0.3779
  141MOL0     O18527   3.433   4.039   5.247  0.7765  0.4774 -0.2921
  141MOL0     C18528   3.668   4.083   5.358 -0.6676  0.0847  1.2176
  141MOL0     C18529   3.796   4.100   5.414 -0.0683 -0.6251 -0.8167
  141MOL0     N18530   4.572   4.078   5.454  0.6728  1.1798 -0.6537
  141MOL0     N18531   4.695   4.033   5.450  0.5195 -0.3642 -0.5501
  141MOL0     C18532   5.875   4.301   5.666 -0.5618 -0.0925 -0.0235
  141MOL0     C18533   5.993   4.383   5.644  0.0696 -0.5830 -0.4584
  141MOL0     C18534   6.253   4.739   5.703 -0.2422 -0.7691  0.7160
  141MOL0     C18535   6.287   4.808   5.820 -0.1220  0.1744  0.7572
  141MOL0     C18536   6.400   4.892   5.815 -0.4107  0.3451  0.3186
  141MOL0     C18537   6.480   4.911   5.705  0.6309  0.0821  0.0351
  141MOL0     O18538   6.591   4.988   5.698  0.5302  0.1179 -0.7559
  141MOL0     C18539   6.622   5.056   5.821 -0.6430  0.8554 -1.0065
  141MOL0     C18540   6.754   5.133   5.805 -0.1064  0.1456 -0.4230
  141MOL0     C18541   6.791   5.210   5.934 -0.0254  0.4512 -0.6140
  141MOL0     C18542   6.901   5.309   5.909 -0.5083 -0.3310  0.3597
  141MOL0     C18543   7.027   5.232   5.890 -1.0304  0.0213  0.8321
  141MOL0     C18544   7.125   5.163   5.859 -0.3585 -0.4286 -1.2133
  141MOL0     C18545   6.443   4.837   5.591 -0.5960 -0.5174  0.3773
  141MOL0     C18546   6.340   4.744   5.594  1.1591 -0.0602 -0.2704
  141MOL0     H18547   5.831   4.639   5.494 -3.3036 -0.0824  0.9721
  141MOL0     H18548   5.652   4.465   5.492 -0.7380 -0.7432 -0.5882
  141MOL0     H18549   5.585   4.272   5.824  1.3521  0.0183  0.9979
  141MOL0     H18550   5.692   4.136   5.793 -0.2776 -1.7451 -1.0550
  141MOL0     H18551   5.492   4.024   5.791 -3.4280  2.4297  1.2955
  141MOL0     H18552   5.543   4.039   5.629  0.3654  0.4182  0.7434
  141MOL0     H18553   5.390   4.269   5.628 -3.0407  0.0060 -1.5185
  141MOL0     H18554   5.348   4.213   5.794 -3.2771  0.7422 -2.0134
  141MOL0     H18555   5.287   4.078   5.519 -0.9589  3.0508 -0.7651
  141MOL0     H18556   5.250   4.003   5.681 -0.4876 -0.5128  0.6163
  141MOL0     H18557   5.153   4.257   5.566  1.5947 -1.5171 -0.7537
  141MOL0     H18558   5.103   4.212   5.725 -0.2604  0.8933  0.2903
  141MOL0     H18559   5.050   4.021   5.483 -0.2169 -0.9707 -0.3476
  141MOL0     H18560   4.935   4.137   5.527  1.2015  0.6105 -2.2815
  141MOL0     H18561   5.046   3.895   5.659 -1.3408 -0.7022  0.5142
  141MOL0     H18562   4.916   3.984   5.756 -2.2213 -2.4594 -0.2064
  141MOL0     H18563   4.843   3.790   5.642  2.1859  0.0923  1.3288
  141MOL0     H18564   4.904   3.866   5.492  1.3226  1.8327  0.9727
  141MOL0     H18565   4.608   3.940   5.746 -0.5742 -3.3491 -1.3187
  141MOL0     H18566   4.416   4.232   5.634 -2.7006  0.9033  1.3221
  141MOL0     H18567   4.410   4.097   5.738  1.9668 -2.5668 -0.2770
  141MOL0     H18568   4.210   4.085   5.631  1.2171  3.9430 -0.7213
  141MOL0     H18569   4.295   3.959   5.565  2.7281 -0.5697  1.5195
  141MOL0     H18570   4.226   4.232   5.456  0.0078  0.2539 -0.3947
  141MOL0     H18571   4.350   4.151   5.356 -1.8541  0.5265 -0.7490
  141MOL0     H18572   4.168   3.951   5.347  0.9541  0.0505 -0.7116
  141MOL0     H18573   4.151   4.073   5.237  1.6062 -2.1961 -0.1546
  141MOL0     H18574   3.997   3.933   5.190 -1.0174 -1.2314  0.8351
  141MOL0     H18575   3.765   3.911   5.079 -0.6852 -0.3732  0.8063
  141MOL0     H18576   3.382   3.727   5.248  0.9599  1.3652 -0.9541
  141MOL0     H18577   3.140   3.662   5.201  0.4376 -0.7769 -0.6909
  141MOL0     H18578   2.843   3.644   4.957 -1.7842  1.3246  0.2123
  141MOL0     H18579   2.988   3.683   4.851  0.0598 -2.4630  1.3993
  141MOL0     H18580   2.900   3.916   4.841  0.8632 -1.3730 -0.5981
  141MOL0     H18581   2.776   3.885   4.965 -1.3206 -0.0326 -1.3121
  141MOL0     H18582   2.677   3.718   4.809 -0.4091  0.1167 -0.7805
  141MOL0     H18583   2.814   3.737   4.712  3.7441  2.3339  1.6873
  141MOL0     H18584   2.783   3.968   4.648 -0.1555 -0.2354 -0.2268
  141MOL0     H18585   2.658   3.855   4.599 -0.2903 -1.1002  0.7901
  141MOL0     H18586   2.584   4.066   4.673  0.0209 -2.0008 -1.7756
  141MOL0     H18587   2.654   4.046   4.843 -2.3278  3.2190 -1.1606
  141MOL0     H18588   2.493   3.856   4.878  2.9581  2.3177  0.8031
  141MOL0     H18589   2.417   3.895   4.719 -1.9192  1.4524  0.6159
  141MOL0     H18590   2.468   4.083   4.956  2.5682 -1.5729 -1.4116
  141MOL0     H18591   2.353   4.121   4.823 -3.4129 -0.4410  1.7378
  141MOL0     H18592   2.216   4.083   5.001  1.4261  1.9650 -0.3697
  141MOL0     H18593   2.271   3.933   5.055 -0.1410  2.6333  1.6659
  141MOL0     H18594   3.119   3.910   4.871  1.3328 -0.8932 -1.2975
  141MOL0     H18595   3.357   3.984   4.901  1.9146  0.8637  0.9102
  141MOL0     H18596   3.580   4.122   5.408 -0.6473 -0.0893  1.3905
  141MOL0     H18597   3.809   4.172   5.495  0.1119  1.1256 -2.3273
  141MOL0     H18598   5.886   4.211   5.726 -0.4562 -1.3066 -1.7987
  141MOL0     H18599   6.089   4.357   5.686 -0.2255 -0.8673  0.0584
  141MOL0     H18600   6.223   4.802   5.908  0.8342  0.6589  1.4988
  141MOL0     H18601   6.426   4.942   5.908  3.0693  0.1186 -0.4028
  141MOL0     H18602   6.622   4.990   5.909  0.4675  0.5019 -1.2510
  141MOL0     H18603   6.545   5.132   5.835  1.2969  3.5384 -3.7390
  141MOL0     H18604   6.834   5.060   5.797 -0.6105 -0.3183 -1.3611
  141MOL0     H18605   6.762   5.180   5.706 -1.7019 -2.2271 -1.7679
  141MOL0     H18606   6.818   5.135   6.009  1.8241  0.3878 -1.3056
  141MOL0     H18607   6.708   5.271   5.971  0.0350  0.2211 -0.0877
  141MOL0     H18608   6.873   5.369   5.822  1.5334  1.1061  0.6365
  141MOL0     H18609   6.900   5.385   5.987 -0.9464  1.3710 -1.2118
  141MOL0     H18610   7.212   5.105   5.837  0.8879  1.3771 -1.2965
  141MOL0     H18611   6.500   4.842   5.499  2.4466 -1.4485  2.0918
  141MOL0     H18612   6.322   4.674   5.513 -0.5441  1.2552 -1.0970
  142MOL0     O18613   7.586   0.704   6.383 -0.0890  0.2218  0.1405
  142MOL0     C18614   7.633   0.796   6.438 -0.4090 -0.6957  0.5038
  142MOL0     O18615   7.625   0.819   6.577 -0.4364 -0.6861  0.5813
  142MOL0     C18616   7.562   0.736   6.669 -0.2725  0.4196  0.5884
  142MOL0     C18617   7.619   0.716   6.794 -0.4881 -0.6546 -0.1654
  142MOL0     C18618   7.560   0.621   6.879 -0.2619 -0.6907  0.6993
  142MOL0     C18619   7.451   0.545   6.848 -0.1532  0.8242  0.1159
  142MOL0     O18620   7.404   0.464   6.947  0.2610  0.5244 -0.3392
  142MOL0     C18621   7.296   0.377   6.912 -0.2862 -0.4348  0.2605
  142MOL0     C18622   7.235   0.327   7.038 -0.0765  0.4008 -0.5409
  142MOL0     C18623   7.158   0.442   7.123  0.2740 -0.0332 -0.2050
  142MOL0     C18624   7.042   0.397   7.224  0.7047  0.2035  0.3563
  142MOL0     C18625   6.945   0.503   7.271 -0.6167  0.6675 -0.2374
  142MOL0     C18626   7.024   0.632   7.302  0.1857  0.2273 -0.1828
  142MOL0     C18627   6.935   0.753   7.357  0.5456  0.0330  0.4411
  142MOL0     C18628   7.017   0.872   7.404 -0.9857 -0.3518 -0.4647
  142MOL0     N18629   6.918   0.977   7.439  0.1289  0.4188 -0.0825
  142MOL0     C18630   6.839   1.040   7.340 -0.2607  0.4604  0.1486
  142MOL0     C18631   6.760   1.123   7.411  0.2243 -0.0996  0.4550
  142MOL0     C18632   6.649   1.224   7.368  0.5155 -0.5381  0.0145
  142MOL0     C18633   6.669   1.292   7.237  0.4658 -0.1324  0.6325
  142MOL0     C18634   6.647   1.448   7.237  0.3895 -0.1694  0.2053
  142MOL0     C18635   6.762   1.523   7.308 -0.5439  0.3253 -0.1987
  142MOL0     O18636   6.831   1.614   7.226 -0.5173  0.4222 -0.0927
  142MOL0     C18637   6.794   1.746   7.250  0.3924 -0.5263  0.5280
  142MOL0     C18638   6.887   1.845   7.203 -0.7445  0.7536 -0.4337
  142MOL0     C18639   6.872   1.985   7.221  0.3348 -0.6768 -0.9267
  142MOL0     C18640   6.755   2.027   7.282  0.7174  0.1739 -0.1472
  142MOL0     C18641   6.734   2.162   7.335  0.4861 -0.4644 -0.8310
  142MOL0     O18642   6.607   2.192   7.377 -0.9436 -0.0521 -0.6000
  142MOL0     C18643   6.565   2.312   7.418  0.4964  0.2394  0.8677
  142MOL0     C18644   6.613   2.426   7.355 -0.4136  0.5027 -0.2487
  142MOL0     C18645   6.561   2.554   7.389  0.9472  1.1152 -0.0353
  142MOL0     C18646   6.461   2.563   7.484  0.2395 -0.6203 -0.5551
  142MOL0     O18647   6.404   2.687   7.507  1.0447  0.5507 -0.1301
  142MOL0     C18648   6.477   2.806   7.527 -0.6484  0.1634 -0.3431
  142MOL0     C18649   6.477   2.908   7.416  0.9753  0.2021  0.4471
  142MOL0     C18650   6.335   2.956   7.382 -0.0662  0.4495 -0.1362
  142MOL0     C18651   6.337   3.045   7.263  0.4367 -0.4184  0.0092
  142MOL0     C18652   6.197   3.050   7.197 -0.3181  0.4629  0.5796
  142MOL0     C18653   6.192   3.147   7.076  0.0908 -0.1107 -0.4794
  142MOL0     C18654   6.050   3.162   7.034  0.2463  0.5464  0.6422
  142MOL0     C18655   6.031   3.206   6.888 -0.1165 -0.7855 -0.2907
  142MOL0    Cl18656   6.063   3.386   6.859  0.5850 -0.0032  0.1644
  142MOL0     C18657   6.411   2.444   7.546  0.7527 -0.2785 -0.2062
  142MOL0     C18658   6.463   2.317   7.513  0.3010  0.0097 -0.8484
  142MOL0     O18659   6.827   2.246   7.335  0.2070  1.3147  0.5993
  142MOL0     C18660   6.660   1.934   7.315  0.3419  0.2301  0.7545
  142MOL0     C18661   6.677   1.798   7.302  0.4714 -0.9993 -0.7693
  142MOL0     N18662   6.786   1.105   7.548 -0.2337 -0.0233  0.3360
  142MOL0     N18663   6.878   1.022   7.563 -0.2164 -0.1789 -0.3613
  142MOL0     C18664   7.403   0.566   6.720 -0.1500  0.0891 -0.5064
  142MOL0     C18665   7.448   0.662   6.636 -0.4740  0.1092 -0.1089
  142MOL0     C18666   7.718   0.878   6.352  0.1142 -0.7730 -0.5070
  142MOL0     C18667   7.742   0.853   6.219  0.5214  0.2788  0.2714
  142MOL0     C18668   7.822   0.940   6.140  0.3020 -0.4131 -0.1011
  142MOL0     C18669   7.894   1.045   6.198  0.7297 -0.0805  0.4556
  142MOL0     O18670   7.996   1.111   6.136 -0.3912  1.1761  0.1946
  142MOL0     C18671   8.058   1.059   6.027 -0.6165 -0.4314 -0.7957
  142MOL0     C18672   8.203   1.097   6.028  0.3224 -0.9223 -0.1532
  142MOL0     C18673   8.216   1.255   6.029 -0.9000 -0.6963 -0.9015
  142MOL0     C18674   8.287   1.305   5.903  0.1724  0.0558  0.6662
  142MOL0     C18675   8.292   1.450   5.894 -0.2623  0.2013 -0.1691
  142MOL0     C18676   8.316   1.575   5.886  0.5971  0.2229 -0.2301
  142MOL0     C18677   7.877   1.057   6.334 -0.8437 -0.7406  0.0201
  142MOL0     C18678   7.788   0.992   6.409  0.5853 -0.2021 -0.2238
  142MOL0     H18679   7.697   0.778   6.838 -0.7069 -1.7165  1.8311
  142MOL0     H18680   7.602   0.624   6.979  2.2239  1.6623 -0.2770
  142MOL0     H18681   7.341   0.291   6.860 -0.5579 -1.6540  1.9778
  142MOL0     H18682   7.216   0.416   6.849  0.2038 -3.3098 -2.4274
  142MOL0     H18683   7.319   0.282   7.091 -1.0943  1.4530  2.1173
  142MOL0     H18684   7.150   0.262   7.017 -0.6298  0.7008  0.6922
  142MOL0     H18685   7.104   0.504   7.051 -1.0324  0.4844  1.1707
  142MOL0     H18686   7.228   0.510   7.174  1.1781  1.2516 -2.9496
  142MOL0     H18687   6.985   0.325   7.163  2.1407 -1.2007  0.5881
  142MOL0     H18688   7.081   0.342   7.310  2.1733 -1.5197 -1.2932
  142MOL0     H18689   6.888   0.474   7.360 -1.1536 -0.4169 -0.9113
  142MOL0     H18690   6.872   0.517   7.190 -1.2168  5.5575  0.8402
  142MOL0     H18691   7.063   0.673   7.208 -0.5735  0.6505 -0.3266
  142MOL0     H18692   7.103   0.612   7.375 -1.4155  0.8887  1.8239
  142MOL0     H18693   6.875   0.791   7.274 -1.3099  0.8282  2.0629
  142MOL0     H18694   6.864   0.721   7.435  1.0471 -0.7060  0.6071
  142MOL0     H18695   7.087   0.887   7.321  1.0545  1.4794  1.4521
  142MOL0     H18696   7.084   0.847   7.487 -0.8676 -1.9376 -0.9878
  142MOL0     H18697   6.833   1.018   7.234  1.5524  2.4520 -0.4472
  142MOL0     H18698   6.639   1.287   7.457 -1.6357 -0.0815 -0.5063
  142MOL0     H18699   6.553   1.175   7.353 -1.2509  2.9852 -1.3197
  142MOL0     H18700   6.601   1.237   7.171 -1.9897  0.7994  2.2226
  142MOL0     H18701   6.768   1.267   7.197 -0.4472 -1.2290 -1.1123
  142MOL0     H18702   6.624   1.496   7.142 -1.3727  0.4129  0.8830
  142MOL0     H18703   6.560   1.472   7.299  1.6262  2.7794  1.0046
  142MOL0     H18704   6.832   1.444   7.336 -0.2163  0.5585 -0.3649
  142MOL0     H18705   6.706   1.562   7.393  0.2477  1.2222 -0.0812
  142MOL0     H18706   6.985   1.809   7.174 -1.3629 -1.5903  0.1659
  142MOL0     H18707   6.956   2.053   7.211  0.2105 -0.3601  0.1142
  142MOL0     H18708   6.695   2.419   7.285 -2.0329 -0.6250 -2.1435
  142MOL0     H18709   6.590   2.644   7.335  1.9873 -0.2191 -1.7898
  142MOL0     H18710   6.581   2.779   7.548 -1.5833 -0.8683  3.7323
  142MOL0     H18711   6.439   2.851   7.619 -2.1753 -0.2023 -0.7717
  142MOL0     H18712   6.524   2.869   7.326 -1.4439  1.2473 -1.4114
  142MOL0     H18713   6.539   2.993   7.445  0.6188  0.7421 -0.3356
  142MOL0     H18714   6.300   3.013   7.468 -5.9813 -0.6696 -1.3774
  142MOL0     H18715   6.262   2.877   7.364 -0.9715  0.6564  2.3859
  142MOL0     H18716   6.359   3.145   7.300 -0.3680  0.3918 -1.5755
  142MOL0     H18717   6.410   3.025   7.184  2.1797 -0.7472  1.6348
  142MOL0     H18718   6.126   3.087   7.271 -0.0783  0.3233  0.8812
  142MOL0     H18719   6.153   2.954   7.170 -0.8778 -0.0555  3.0852
  142MOL0     H18720   6.260   3.115   6.997 -0.0999 -2.7281  0.3355
  142MOL0     H18721   6.240   3.242   7.104  2.4214 -1.5392  0.6800
  142MOL0     H18722   5.994   3.068   7.039 -2.8504  2.2897  1.1369
  142MOL0     H18723   6.001   3.225   7.108 -1.3461 -0.9075  0.8699
  142MOL0     H18724   5.935   3.170   6.849 -0.0310 -2.0629  0.6439
  142MOL0     H18725   6.098   3.164   6.813 -0.8682 -2.6901  0.0517
  142MOL0     H18726   6.343   2.468   7.628 -0.1558  1.2367 -1.3360
  142MOL0     H18727   6.427   2.225   7.559  1.2667 -0.0837 -0.2578
  142MOL0     H18728   6.573   1.967   7.371  0.1307  2.6588 -0.8407
  142MOL0     H18729   6.600   1.732   7.341 -1.0272  2.4941  2.8337
  142MOL0     H18730   7.317   0.508   6.689 -0.0138  0.0375 -0.7894
  142MOL0     H18731   7.400   0.662   6.539  0.5580 -1.9713 -0.6850
  142MOL0     H18732   7.699   0.768   6.167 -0.3751  0.0509  1.3288
  142MOL0     H18733   7.845   0.919   6.036  2.5202 -0.1513  0.2954
  142MOL0     H18734   8.007   1.095   5.937  0.6083  0.0194 -1.3358
  142MOL0     H18735   8.055   0.950   6.033  0.4360 -0.4263  0.1643
  142MOL0     H18736   8.242   1.067   6.126  1.9809  3.6575  0.8746
  142MOL0     H18737   8.249   1.057   5.937  1.1652  0.9399 -0.5939
  142MOL0     H18738   8.262   1.293   6.121 -0.5938  0.2660 -1.4344
  142MOL0     H18739   8.117   1.299   6.024 -0.6645 -0.2836 -2.3516
  142MOL0     H18740   8.391   1.270   5.898  0.1766 -0.1383  1.6859
  142MOL0     H18741   8.228   1.279   5.815 -0.7881  2.2360  0.6164
  142MOL0     H18742   8.326   1.681   5.896  0.7938 -0.0203  4.9499
  142MOL0     H18743   7.935   1.128   6.392  0.9492 -1.1856 -1.1597
  142MOL0     H18744   7.793   1.013   6.515 -0.6704  2.6556 -0.6487
  143MOL0     O18745  10.910   5.911   8.554 -0.2486  0.4888 -0.1009
  143MOL0     C18746  10.988   5.818   8.548 -0.2747  0.0324  0.4302
  143MOL0     O18747  10.962   5.686   8.515 -0.2158 -0.5514  0.1041
  143MOL0     C18748  10.836   5.635   8.525  0.2134 -0.2296 -0.8146
  143MOL0     C18749  10.752   5.677   8.627 -0.7504  0.4649  0.1342
  143MOL0     C18750  10.622   5.629   8.629  0.6129 -0.3239 -0.2688
  143MOL0     C18751  10.563   5.545   8.539 -0.6308  0.2253  0.5636
  143MOL0     O18752  10.440   5.490   8.554  0.1819  0.0737 -0.4738
  143MOL0     C18753  10.328   5.582   8.584 -1.0367  0.5389  0.8140
  143MOL0     C18754  10.279   5.534   8.722 -0.1993  0.5311 -0.5461
  143MOL0     C18755  10.148   5.586   8.767  0.6066 -0.4909  0.7114
  143MOL0     C18756  10.142   5.742   8.757  0.1043  0.1739 -0.1609
  143MOL0     C18757  10.049   5.793   8.864  0.2560 -0.7035  0.7923
  143MOL0     C18758   9.904   5.776   8.832  0.2089 -0.5455  1.0518
  143MOL0     C18759   9.815   5.801   8.955 -0.5724  0.4114  0.3444
  143MOL0     C18760   9.666   5.774   8.919  0.0390 -0.6856 -0.9901
  143MOL0     N18761   9.573   5.793   9.031  0.7885  0.9388 -0.3219
  143MOL0     C18762   9.444   5.733   9.038 -0.1836 -0.5334 -0.5853
  143MOL0     C18763   9.372   5.818   9.112  0.0264 -0.1600 -1.2427
  143MOL0     C18764   9.223   5.799   9.144  0.6777  1.5315  0.3841
  143MOL0     C18765   9.120   5.885   9.068 -0.4240  1.1337 -0.6858
  143MOL0     C18766   9.137   5.868   8.921  0.5853 -1.1785  0.5008
  143MOL0     C18767   9.050   5.969   8.843 -0.6922  0.4382 -0.1369
  143MOL0     O18768   8.922   5.913   8.874 -0.0093  0.8767  0.1535
  143MOL0     C18769   8.818   5.998   8.851 -0.2188  1.3018 -0.7491
  143MOL0     C18770   8.831   6.116   8.771  0.8319  0.0425 -0.3186
  143MOL0     C18771   8.716   6.182   8.724 -0.6481  0.0439  0.4450
  143MOL0     C18772   8.583   6.138   8.761  0.1970 -0.5075  0.1456
  143MOL0     C18773   8.465   6.214   8.708  0.9730  0.3074 -0.4460
  143MOL0     O18774   8.498   6.316   8.634 -1.0425 -0.3642  0.3814
  143MOL0     C18775   8.398   6.398   8.597  0.6396 -0.0044  0.7009
  143MOL0     C18776   8.337   6.489   8.681 -0.1773  0.5457 -0.1364
  143MOL0     C18777   8.228   6.568   8.641 -0.0658 -0.8954  0.5650
  143MOL0     C18778   8.160   6.541   8.519  0.0655  1.1004 -0.3996
  143MOL0     O18779   8.050   6.604   8.468 -0.0933  0.7200 -0.3895
  143MOL0     C18780   7.997   6.720   8.535 -0.3481 -0.2596  0.0260
  143MOL0     C18781   7.886   6.776   8.463 -0.4889 -0.4452 -0.0558
  143MOL0     C18782   7.758   6.700   8.498 -0.7362 -0.0280 -0.1113
  143MOL0     C18783   7.722   6.734   8.646 -0.1934  0.1053  0.1080
  143MOL0     C18784   7.572   6.737   8.650  0.1138 -0.3319 -0.3429
  143MOL0     C18785   7.495   6.614   8.626 -0.0724 -0.0148  0.7993
  143MOL0     C18786   7.500   6.514   8.742 -0.0430 -0.2034  0.6057
  143MOL0     C18787   7.455   6.372   8.697  0.4551  0.3386  0.6926
  143MOL0    Cl18788   7.585   6.292   8.609 -0.0174 -0.1871 -0.4930
  143MOL0     C18789   8.226   6.456   8.429  0.5047  0.3831  0.1566
  143MOL0     C18790   8.343   6.390   8.463 -0.5624 -0.2571  0.5705
  143MOL0     O18791   8.350   6.185   8.743 -0.2245  0.2064  0.0245
  143MOL0     C18792   8.576   6.023   8.848 -0.4490  0.3313  0.4125
  143MOL0     C18793   8.691   5.950   8.884  1.0463 -1.0418  0.8310
  143MOL0     N18794   9.445   5.933   9.142  0.1653  0.3982 -0.0017
  143MOL0     N18795   9.563   5.914   9.104  0.2163  0.8687  0.0712
  143MOL0     C18796  10.653   5.505   8.436 -0.4066 -0.3255  1.2528
  143MOL0     C18797  10.787   5.551   8.429 -0.1484  0.0300 -0.1165
  143MOL0     C18798  11.139   5.854   8.547  0.0777  0.2479  0.0240
  143MOL0     C18799  11.232   5.757   8.568 -0.1801 -0.1121 -0.0019
  143MOL0     C18800  11.367   5.779   8.569 -0.0457 -0.1301 -0.3890
  143MOL0     C18801  11.410   5.912   8.551 -1.1430 -0.6995 -0.0858
  143MOL0     O18802  11.550   5.924   8.552  0.6570  0.0034  0.2829
  143MOL0     C18803  11.602   6.054   8.565  0.3044 -1.1070 -0.0528
  143MOL0     C18804  11.750   6.034   8.622 -0.1098  0.8085  0.4910
  143MOL0     C18805  11.839   5.936   8.545  0.1468 -0.2209 -0.1383
  143MOL0     C18806  11.815   5.937   8.399  0.1195 -0.2516  0.1492
  143MOL0     C18807  11.825   6.076   8.342 -0.3855 -0.6103 -0.1738
  143MOL0     C18808  11.829   6.189   8.299  0.2544 -0.3729 -0.6787
  143MOL0     C18809  11.325   6.013   8.540 -0.5987 -0.1925  0.7217
  143MOL0     C18810  11.189   5.981   8.531 -0.3811  0.2145 -0.3808
  143MOL0     H18811  10.787   5.736   8.710  2.8984  0.8416 -1.4751
  143MOL0     H18812  10.572   5.652   8.722  1.0086 -4.0735  1.0299
  143MOL0     H18813  10.252   5.573   8.506 -0.1837  1.2678 -0.1349
  143MOL0     H18814  10.367   5.684   8.579  1.5488 -0.4577 -1.9688
  143MOL0     H18815  10.360   5.554   8.792 -0.2706  0.7912 -0.5376
  143MOL0     H18816  10.277   5.425   8.711 -1.4317  0.6708 -2.0268
  143MOL0     H18817  10.118   5.543   8.863 -3.8467 -1.3229 -0.7956
  143MOL0     H18818  10.078   5.557   8.688  4.0101  2.0439 -3.6675
  143MOL0     H18819  10.238   5.790   8.779 -1.0225  2.2537  0.5802
  143MOL0     H18820  10.107   5.776   8.659 -0.4153  0.3492  0.0817
  143MOL0     H18821  10.065   5.901   8.876 -0.4878 -0.4476 -0.2983
  143MOL0     H18822  10.069   5.758   8.965  3.0347  0.2581  0.6854
  143MOL0     H18823   9.901   5.671   8.801  1.7234 -0.3591  0.1690
  143MOL0     H18824   9.882   5.848   8.753 -1.5348 -1.7846  0.3353
  143MOL0     H18825   9.858   5.738   9.034  0.7922 -0.3076 -0.9323
  143MOL0     H18826   9.815   5.905   8.988 -1.7111 -0.4845  3.6204
  143MOL0     H18827   9.646   5.679   8.868  1.6635 -1.2891 -0.5879
  143MOL0     H18828   9.643   5.844   8.839  0.0143  1.2818  0.6702
  143MOL0     H18829   9.407   5.639   8.998 -3.3339  0.5672 -0.4557
  143MOL0     H18830   9.192   5.828   9.245 -0.2316  0.4103  0.4462
  143MOL0     H18831   9.204   5.693   9.124  0.2282  1.4773  1.0576
  143MOL0     H18832   9.112   5.988   9.103 -3.5926 -0.0246  2.5935
  143MOL0     H18833   9.028   5.829   9.088  0.3858 -0.7108 -1.8391
  143MOL0     H18834   9.241   5.892   8.896  0.4043  0.1006  0.8886
  143MOL0     H18835   9.119   5.765   8.889  1.2294 -0.8438 -1.0327
  143MOL0     H18836   9.064   5.974   8.735  1.2799  4.7333  0.1016
  143MOL0     H18837   9.071   6.066   8.890  0.3050  0.0623  0.2189
  143MOL0     H18838   8.919   6.175   8.746 -0.5858  0.7368 -4.6293
  143MOL0     H18839   8.742   6.271   8.668  0.4251  0.6912  1.8945
  143MOL0     H18840   8.377   6.489   8.782 -1.4687 -0.6332  0.4080
  143MOL0     H18841   8.186   6.641   8.709 -1.0483 -1.6362  0.7856
  143MOL0     H18842   8.077   6.794   8.548 -1.1170  0.7931 -0.9813
  143MOL0     H18843   7.978   6.699   8.641  1.9371  0.8114  0.7131
  143MOL0     H18844   7.905   6.755   8.357 -2.7825 -0.6391 -0.4917
  143MOL0     H18845   7.856   6.878   8.486  0.2740 -1.0707  4.7430
  143MOL0     H18846   7.771   6.593   8.482 -0.0215 -0.0627  0.6474
  143MOL0     H18847   7.684   6.732   8.424 -0.1182  0.6343 -0.4591
  143MOL0     H18848   7.749   6.652   8.715 -0.6581 -0.2917 -0.1717
  143MOL0     H18849   7.765   6.826   8.685 -1.0633  0.5973 -0.0757
  143MOL0     H18850   7.549   6.818   8.580 -1.6985  0.6961  1.3684
  143MOL0     H18851   7.537   6.771   8.747  0.7866  0.5412 -0.3956
  143MOL0     H18852   7.547   6.572   8.540  0.3358 -2.4917  2.1550
  143MOL0     H18853   7.389   6.632   8.603  0.1125  0.1845  0.0861
  143MOL0     H18854   7.598   6.515   8.792  0.4994 -0.5976 -0.4258
  143MOL0     H18855   7.419   6.541   8.811  0.5439  2.6521  0.2968
  143MOL0     H18856   7.358   6.371   8.646 -1.0472  3.0767  3.1998
  143MOL0     H18857   7.433   6.317   8.789 -0.5260  1.9186  1.4268
  143MOL0     H18858   8.187   6.461   8.328 -0.9603 -1.0149  0.6046
  143MOL0     H18859   8.399   6.326   8.396 -0.6954 -1.2849  1.4115
  143MOL0     H18860   8.479   5.984   8.880 -0.2160 -0.7286 -0.1247
  143MOL0     H18861   8.679   5.857   8.938 -0.1833  0.0836  2.6373
  143MOL0     H18862  10.617   5.437   8.360 -0.4191 -0.5631  1.4670
  143MOL0     H18863  10.856   5.511   8.355 -1.2522 -0.1313 -1.1008
  143MOL0     H18864  11.203   5.652   8.576  1.4961 -0.4981  1.8681
  143MOL0     H18865  11.436   5.696   8.579 -1.2540 -1.1763 -0.3979
  143MOL0     H18866  11.551   6.110   8.644 -1.7820  0.1051 -2.1557
  143MOL0     H18867  11.595   6.115   8.475 -1.0800  1.6577  1.7877
  143MOL0     H18868  11.789   6.135   8.616 -1.3331  1.5201  3.1948
  143MOL0     H18869  11.748   5.998   8.725  1.1747  1.0994  0.6329
  143MOL0     H18870  11.810   5.836   8.580 -1.9618  0.5077  0.2854
  143MOL0     H18871  11.942   5.965   8.570  0.2308 -0.7680  0.1625
  143MOL0     H18872  11.868   5.857   8.346 -0.4327 -0.1594 -0.5697
  143MOL0     H18873  11.714   5.907   8.370 -0.3882  1.5701 -0.0839
  143MOL0     H18874  11.829   6.295   8.279  0.5198 -0.0599  0.8382
  143MOL0     H18875  11.347   6.115   8.510  1.7170 -0.9503 -0.4176
  143MOL0     H18876  11.120   6.065   8.535 -2.2779 -1.3035  1.9586
  144MOL0     O18877   3.083   9.670   0.351  0.0585  0.3731 -0.4625
  144MOL0     C18878   3.155   9.566   0.357  0.3203 -0.6530  0.1717
  144MOL0     O18879   3.155   9.465   0.262 -0.0187 -0.1918  0.0895
  144MOL0     C18880   3.045   9.450   0.171  0.2802  0.2704 -0.2206
  144MOL0     C18881   3.069   9.376   0.049  0.3821 -0.0534 -0.1770
  144MOL0     C18882   2.967   9.361  -0.047  0.4512 -0.5123 -0.1037
  144MOL0     C18883   2.842   9.411  -0.029  0.5395 -0.4337  0.6262
  144MOL0     O18884   2.755   9.400  -0.138 -0.4734  0.0507  0.3413
  144MOL0     C18885   2.641   9.488  -0.147 -0.0555 -0.2517  0.6085
  144MOL0     C18886   2.553   9.446  -0.255  0.1765 -0.2191  0.9394
  144MOL0     C18887   2.423   9.532  -0.254 -0.7367 -0.6111  0.1286
  144MOL0     C18888   2.326   9.471  -0.343 -0.0969 -0.0757  0.8770
  144MOL0     C18889   2.363   9.498  -0.494  0.2323 -0.5009  0.3825
  144MOL0     C18890   2.292   9.406  -0.599  0.7215  0.0688 -0.1165
  144MOL0     C18891   2.164   9.341  -0.544  0.1211  0.0069 -0.5498
  144MOL0     C18892   2.090   9.256  -0.648 -0.3688  0.0517  0.1202
  144MOL0     N18893   1.942   9.257  -0.635 -0.4673  0.2485  0.8191
  144MOL0     C18894   1.850   9.343  -0.697  0.0254  0.1811 -0.6906
  144MOL0     C18895   1.732   9.304  -0.648 -0.4908  0.0720 -0.6687
  144MOL0     C18896   1.590   9.351  -0.692 -1.1054  0.5164 -0.1846
  144MOL0     C18897   1.575   9.506  -0.710  0.8225 -0.3599 -0.0450
  144MOL0     C18898   1.571   9.578  -0.569 -0.8853  0.1442 -0.0368
  144MOL0     C18899   1.696   9.602  -0.500 -0.0578 -0.0327  1.1528
  144MOL0     O18900   1.774   9.694  -0.590  0.4215 -0.6718  0.0175
  144MOL0     C18901   1.893   9.731  -0.544  0.2431 -0.4542  0.0917
  144MOL0     C18902   1.945   9.717  -0.417 -1.1183  0.3431 -0.3667
  144MOL0     C18903   2.066   9.765  -0.381 -1.0429  0.3609 -0.3923
  144MOL0     C18904   2.144   9.836  -0.473 -0.4769 -0.2440 -0.9056
  144MOL0     C18905   2.280   9.888  -0.438  0.2317  0.0988 -0.2280
  144MOL0     O18906   2.359   9.931  -0.543  0.3455  0.4228  0.3697
  144MOL0     C18907   2.482   9.984  -0.510  0.5913  0.4908 -0.1614
  144MOL0     C18908   2.578   9.916  -0.430  0.0200 -0.2966  0.4203
  144MOL0     C18909   2.705   9.971  -0.403  0.5483  0.1585 -0.2453
  144MOL0     C18910   2.726  10.100  -0.433 -0.9373 -0.7750 -0.0241
  144MOL0     O18911   2.843  10.172  -0.397 -0.3578  0.4769  0.0118
  144MOL0     C18912   2.908  10.133  -0.271 -0.4313  0.0875 -0.6043
  144MOL0     C18913   3.061  10.116  -0.294  0.9840  0.2187  0.2367
  144MOL0     C18914   3.140  10.245  -0.306  0.1260 -0.8551  0.4918
  144MOL0     C18915   3.121  10.319  -0.435 -0.0260  0.2009  0.7668
  144MOL0     C18916   3.213  10.438  -0.456  1.1079 -0.6595 -0.2819
  144MOL0     C18917   3.365  10.425  -0.437  0.7393  0.2797 -0.0485
  144MOL0     C18918   3.440  10.338  -0.529 -0.1962  0.3697 -1.1219
  144MOL0     C18919   3.594  10.331  -0.501 -0.2033 -0.1786  0.4424
  144MOL0    Cl18920   3.655  10.286  -0.331 -0.0141 -0.8752  0.2979
  144MOL0     C18921   2.632  10.164  -0.516  0.2576 -0.7075 -0.1525
  144MOL0     C18922   2.514  10.107  -0.561 -0.3214 -0.1900 -0.9943
  144MOL0     O18923   2.306   9.897  -0.320 -0.1898 -0.1878  0.6576
  144MOL0     C18924   2.096   9.855  -0.601  0.2560 -0.7395  1.2715
  144MOL0     C18925   1.963   9.811  -0.635  0.8696  0.3905 -0.3134
  144MOL0     N18926   1.752   9.202  -0.558 -0.4284  0.2388 -0.9393
  144MOL0     N18927   1.876   9.177  -0.546 -1.2667 -0.6628 -0.1604
  144MOL0     C18928   2.821   9.474   0.092 -0.0782  0.5113 -0.2111
  144MOL0     C18929   2.911   9.478   0.197 -0.0784  0.8772 -0.5875
  144MOL0     C18930   3.220   9.542   0.481  0.2567 -1.5064  0.3010
  144MOL0     C18931   3.223   9.654   0.577  0.1276 -0.4540 -2.0079
  144MOL0     C18932   3.309   9.652   0.685  0.1422  0.4748  0.3174
  144MOL0     C18933   3.356   9.523   0.728  0.1276 -0.7398  0.5486
  144MOL0     O18934   3.432   9.519   0.844  0.3685  0.1180 -0.0456
  144MOL0     C18935   3.543   9.431   0.856 -0.0030 -0.1442  0.8344
  144MOL0     C18936   3.676   9.507   0.853 -0.6609  0.2674 -0.8325
  144MOL0     C18937   3.817   9.435   0.859  0.2352 -0.2216 -0.4195
  144MOL0     C18938   3.934   9.532   0.848 -0.0729  0.4213  0.5181
  144MOL0     C18939   4.054   9.450   0.850  0.5739 -1.0586 -1.2192
  144MOL0     C18940   4.161   9.400   0.857 -0.2263  0.2951 -0.4024
  144MOL0     C18941   3.327   9.408   0.646 -0.2285 -0.6666 -0.3103
  144MOL0     C18942   3.262   9.417   0.524  0.1932 -0.2013 -0.5561
  144MOL0     H18943   3.168   9.347   0.014  1.2954  3.9380 -1.4202
  144MOL0     H18944   2.980   9.319  -0.146 -1.6902  1.4109 -1.2709
  144MOL0     H18945   2.679   9.590  -0.155 -0.3141 -0.1929  0.1307
  144MOL0     H18946   2.581   9.484  -0.056  0.9590  1.0313  1.3622
  144MOL0     H18947   2.540   9.339  -0.233  0.6059  0.4213  5.0588
  144MOL0     H18948   2.612   9.447  -0.347  2.9265  0.7636  2.6072
  144MOL0     H18949   2.453   9.638  -0.257  0.4407 -0.8165  2.4844
  144MOL0     H18950   2.382   9.530  -0.153 -0.4026 -0.6871  0.2666
  144MOL0     H18951   2.336   9.362  -0.332  1.1198  0.2245  3.4154
  144MOL0     H18952   2.225   9.506  -0.317  0.2734  3.4100 -1.7533
  144MOL0     H18953   2.471   9.501  -0.509  0.0286  1.8599 -1.0909
  144MOL0     H18954   2.317   9.596  -0.503  0.3006 -0.6050 -1.4395
  144MOL0     H18955   2.363   9.325  -0.620 -0.2176 -1.0978  1.0005
  144MOL0     H18956   2.264   9.471  -0.682 -1.7816  1.2369  1.5024
  144MOL0     H18957   2.176   9.279  -0.455  2.0209 -1.5974 -1.8358
  144MOL0     H18958   2.104   9.430  -0.519 -1.4230 -0.6975 -1.6101
  144MOL0     H18959   2.122   9.153  -0.632  0.8171  0.6264  1.6512
  144MOL0     H18960   2.111   9.302  -0.746 -1.5933  4.2901  1.6183
  144MOL0     H18961   1.884   9.417  -0.769  4.3566  1.6624  2.4390
  144MOL0     H18962   1.522   9.317  -0.613  2.2167 -1.1833  2.1618
  144MOL0     H18963   1.562   9.306  -0.787 -2.8442  2.1518 -0.5198
  144MOL0     H18964   1.484   9.528  -0.768  0.3188 -0.4994  0.6813
  144MOL0     H18965   1.656   9.550  -0.769  0.2369  1.9931  0.8203
  144MOL0     H18966   1.524   9.675  -0.587  2.0751  1.9504  1.2040
  144MOL0     H18967   1.513   9.513  -0.501 -0.5344  0.4829  0.5945
  144MOL0     H18968   1.752   9.511  -0.478  0.1966  0.1657  1.3340
  144MOL0     H18969   1.671   9.643  -0.402  1.3195  0.9011  1.1453
  144MOL0     H18970   1.905   9.662  -0.333  0.5462 -1.0339 -0.4235
  144MOL0     H18971   2.102   9.744  -0.281 -0.2282 -0.9104 -0.9228
  144MOL0     H18972   2.563   9.818  -0.385  0.4915 -0.2816  0.6126
  144MOL0     H18973   2.777   9.914  -0.346  3.1490  1.1492 -2.3484
  144MOL0     H18974   2.865  10.043  -0.225  1.4661 -0.1456  0.8457
  144MOL0     H18975   2.875  10.213  -0.205 -2.7470  0.4949 -2.1462
  144MOL0     H18976   3.063  10.047  -0.379  1.4376  0.1333  0.3147
  144MOL0     H18977   3.103  10.063  -0.209  0.1934 -0.5265  0.1759
  144MOL0     H18978   3.242  10.209  -0.296 -0.0046 -1.7388 -1.0639
  144MOL0     H18979   3.136  10.320  -0.226  2.8480  0.1582 -0.2269
  144MOL0     H18980   3.132  10.247  -0.517 -0.1183  0.9004  0.1249
  144MOL0     H18981   3.022  10.364  -0.435  0.6523  1.8322 -1.0213
  144MOL0     H18982   3.177  10.523  -0.397  0.6077 -0.5460 -0.7437
  144MOL0     H18983   3.200  10.471  -0.559 -0.6399  1.7518  0.6148
  144MOL0     H18984   3.377  10.401  -0.331 -2.1841  1.0301  0.5455
  144MOL0     H18985   3.400  10.529  -0.444 -0.7503  0.8910  0.9595
  144MOL0     H18986   3.409  10.235  -0.514  0.6932  0.2257 -0.1935
  144MOL0     H18987   3.417  10.369  -0.632 -1.8238  3.5053  0.0439
  144MOL0     H18988   3.632  10.431  -0.523 -4.9629  2.1762  1.7502
  144MOL0     H18989   3.639  10.258  -0.569  1.2169  2.6669 -1.9028
  144MOL0     H18990   2.660  10.268  -0.534  2.7393 -1.4242 -0.7930
  144MOL0     H18991   2.454  10.163  -0.632 -2.0549 -0.0759  0.4912
  144MOL0     H18992   2.158   9.905  -0.674 -4.1553  3.2976 -0.2155
  144MOL0     H18993   1.926   9.824  -0.736  1.7914 -4.1978 -1.4999
  144MOL0     H18994   2.723   9.511   0.122  0.9849  1.2523  2.7280
  144MOL0     H18995   2.882   9.508   0.297  1.6390 -2.1895  1.0035
  144MOL0     H18996   3.173   9.749   0.559  0.3139  0.0236 -0.2801
  144MOL0     H18997   3.349   9.734   0.742  1.1730 -1.4568  2.5184
  144MOL0     H18998   3.539   9.356   0.777 -2.0181  0.5042  0.2796
  144MOL0     H18999   3.525   9.368   0.944 -3.3693 -1.3569 -0.5693
  144MOL0     H19000   3.664   9.566   0.762  0.3505 -0.3781 -1.4114
  144MOL0     H19001   3.669   9.579   0.935 -2.2666 -0.0995 -0.6259
  144MOL0     H19002   3.832   9.358   0.783 -0.2981  0.4986 -1.2783
  144MOL0     H19003   3.828   9.390   0.959 -1.9026 -0.8783 -0.4205
  144MOL0     H19004   3.926   9.587   0.753 -3.0606 -2.0514 -0.8471
  144MOL0     H19005   3.928   9.597   0.936  1.2050 -0.7131  1.4741
  144MOL0     H19006   4.262   9.369   0.875 -1.2105 -1.5249  2.6280
  144MOL0     H19007   3.345   9.306   0.678  0.2106 -1.1146 -1.9094
  144MOL0     H19008   3.235   9.333   0.459  1.1132  0.2760 -1.5937
  145MOL0     O19009   6.681   0.999   3.567  0.2585  0.0115 -0.1797
  145MOL0     C19010   6.579   0.993   3.640 -0.7948  0.2167  0.0626
  145MOL0     O19011   6.577   0.949   3.771  0.7483 -0.0128  0.2872
  145MOL0     C19012   6.660   0.849   3.795  0.3527  0.5847  0.0315
  145MOL0     C19013   6.638   0.719   3.733 -0.5694 -0.0163 -0.6000
  145MOL0     C19014   6.726   0.617   3.768 -0.1849  0.4292 -0.2234
  145MOL0     C19015   6.834   0.635   3.860 -0.3665  0.7712 -0.4193
  145MOL0     O19016   6.900   0.521   3.906  0.3903  0.7510  0.3458
  145MOL0     C19017   7.028   0.535   3.968  0.3650  0.5047  0.7695
  145MOL0     C19018   7.090   0.396   3.966 -0.3789  0.1977 -0.9420
  145MOL0     C19019   7.231   0.394   4.008 -0.2447  0.0615 -0.2893
  145MOL0     C19020   7.301   0.259   3.990  0.0824 -0.2764  0.1315
  145MOL0     C19021   7.435   0.254   4.072 -0.3374 -0.7208  0.5728
  145MOL0     C19022   7.547   0.359   4.031  0.2090 -0.5124 -0.0208
  145MOL0     C19023   7.669   0.351   4.122  0.7109 -0.4369 -0.3557
  145MOL0     C19024   7.766   0.467   4.095  0.0116 -0.2066  0.4008
  145MOL0     N19025   7.899   0.442   4.164 -0.1804 -0.5754 -0.0062
  145MOL0     C19026   7.979   0.511   4.249  0.8635 -0.2459 -0.3643
  145MOL0     C19027   8.097   0.446   4.269  0.6918 -0.2466  0.3718
  145MOL0     C19028   8.212   0.488   4.345 -1.2499  0.1389 -1.4722
  145MOL0     C19029   8.271   0.368   4.433 -0.5396  0.1120  0.5350
  145MOL0     C19030   8.336   0.420   4.568 -1.2000 -0.4152  0.6392
  145MOL0     C19031   8.260   0.385   4.698 -0.6841  0.2183  0.9002
  145MOL0     O19032   8.182   0.497   4.727 -0.0483  0.2728  0.5433
  145MOL0     C19033   8.052   0.502   4.684  0.2259  0.6021 -0.1328
  145MOL0     C19034   7.971   0.389   4.645 -1.7323  0.1277  0.5987
  145MOL0     C19035   7.839   0.406   4.603  0.9263 -0.7846 -0.6209
  145MOL0     C19036   7.782   0.541   4.607 -0.1691 -0.2318 -0.5858
  145MOL0     C19037   7.642   0.565   4.554 -0.8712  0.2082  0.2375
  145MOL0     O19038   7.615   0.696   4.517  0.0679 -0.8085 -0.4540
  145MOL0     C19039   7.481   0.726   4.481  0.1010 -0.6111 -0.6700
  145MOL0     C19040   7.431   0.695   4.359 -0.8013 -0.5570  0.0752
  145MOL0     C19041   7.300   0.714   4.330  0.7990  0.7515 -0.2702
  145MOL0     C19042   7.212   0.771   4.423 -1.0010 -0.6890 -0.7725
  145MOL0     O19043   7.085   0.806   4.387 -0.0729  0.1569 -0.6133
  145MOL0     C19044   7.035   0.935   4.424  0.6778 -0.5362  0.1572
  145MOL0     C19045   6.879   0.927   4.433  0.1549 -0.3967 -0.1993
  145MOL0     C19046   6.810   0.891   4.294 -0.8796  0.8039 -0.0151
  145MOL0     C19047   6.665   0.919   4.300  0.0926  0.3468  0.6886
  145MOL0     C19048   6.596   0.913   4.162  0.8291  0.3678 -0.0314
  145MOL0     C19049   6.445   0.917   4.175 -0.1807 -0.2345  0.2940
  145MOL0     C19050   6.367   0.921   4.039  0.4796  0.7293 -0.0592
  145MOL0     C19051   6.220   0.948   4.057 -0.4574  0.2117 -1.1972
  145MOL0    Cl19052   6.146   1.009   3.909 -0.0084  0.2111 -0.2175
  145MOL0     C19053   7.262   0.799   4.550  0.3558 -0.5989  0.3030
  145MOL0     C19054   7.396   0.780   4.572  0.2453  0.3308 -0.5782
  145MOL0     O19055   7.570   0.469   4.545  0.2957 -0.1602 -0.3842
  145MOL0     C19056   7.870   0.651   4.629  1.4460 -0.1138 -0.1656
  145MOL0     C19057   7.993   0.630   4.678  0.3547 -0.4287 -0.5191
  145MOL0     N19058   8.088   0.329   4.201 -0.0399 -0.1393 -0.4039
  145MOL0     N19059   7.961   0.325   4.147  0.0247  0.7162 -0.1531
  145MOL0     C19060   6.854   0.757   3.914  0.0959 -0.5122 -0.3641
  145MOL0     C19061   6.763   0.862   3.888  0.0886 -0.1692 -0.3065
  145MOL0     C19062   6.463   1.057   3.578 -0.2370 -0.1800  0.0531
  145MOL0     C19063   6.456   1.079   3.438  0.6228 -0.3513 -0.6791
  145MOL0     C19064   6.351   1.145   3.376  0.3066  0.8296  0.1406
  145MOL0     C19065   6.243   1.198   3.456  0.0673  0.1627  0.3431
  145MOL0     O19066   6.137   1.262   3.401  0.3744  0.4819 -0.3486
  145MOL0     C19067   6.113   1.242   3.258  0.3674 -0.6328 -0.0639
  145MOL0     C19068   5.979   1.322   3.217  0.2590  0.1637  0.6364
  145MOL0     C19069   5.948   1.316   3.063 -0.3712 -0.2027 -0.6454
  145MOL0     C19070   5.885   1.191   3.011 -0.7105  0.6044 -0.5351
  145MOL0     C19071   5.755   1.152   3.075  0.2920 -1.0354  0.2866
  145MOL0     C19072   5.660   1.125   3.150 -0.1769  1.3479 -0.2565
  145MOL0     C19073   6.257   1.181   3.595  0.0316  0.6838  0.1377
  145MOL0     C19074   6.359   1.111   3.659 -0.3195 -0.2631  0.2607
  145MOL0     H19075   6.562   0.695   3.660 -0.2427 -0.0618 -0.9312
  145MOL0     H19076   6.716   0.520   3.721 -0.2138  0.0293  0.5881
  145MOL0     H19077   7.023   0.579   4.068  3.4485  3.1936 -0.1017
  145MOL0     H19078   7.087   0.599   3.902 -2.2700 -0.8577 -3.3040
  145MOL0     H19079   7.078   0.356   3.865 -1.7239  0.2959 -0.8389
  145MOL0     H19080   7.035   0.337   4.040 -0.1297 -0.8903 -1.5968
  145MOL0     H19081   7.239   0.436   4.109 -0.3212 -1.7408  0.5047
  145MOL0     H19082   7.277   0.462   3.936 -0.5445  1.3132  0.6474
  145MOL0     H19083   7.250   0.166   4.016  2.9520 -1.2197  3.2786
  145MOL0     H19084   7.320   0.256   3.882 -0.3894 -0.4456  0.0529
  145MOL0     H19085   7.493   0.162   4.064  2.2140  0.9685 -3.7161
  145MOL0     H19086   7.411   0.281   4.175 -3.7882 -1.8209  0.1952
  145MOL0     H19087   7.506   0.459   4.046 -3.9142 -2.0221  0.1640
  145MOL0     H19088   7.553   0.337   3.924 -1.4304  0.5545 -0.3736
  145MOL0     H19089   7.635   0.355   4.226  2.0112 -4.4235  0.4110
  145MOL0     H19090   7.713   0.251   4.110 -1.9630 -1.5803 -1.5064
  145MOL0     H19091   7.737   0.564   4.138 -0.9985 -0.1775 -0.2962
  145MOL0     H19092   7.777   0.479   3.987 -1.3790 -0.2127  0.2318
  145MOL0     H19093   7.966   0.608   4.296  2.8570 -1.0525  2.0957
  145MOL0     H19094   8.173   0.565   4.413  1.1991 -1.0008  1.4543
  145MOL0     H19095   8.284   0.536   4.278 -0.4320  1.0244 -0.0044
  145MOL0     H19096   8.338   0.312   4.367 -2.9952 -1.3158 -0.8931
  145MOL0     H19097   8.188   0.300   4.450 -0.2954 -0.7358 -1.4102
  145MOL0     H19098   8.431   0.366   4.577 -0.2338  1.0007 -0.7418
  145MOL0     H19099   8.375   0.522   4.569  1.2948 -1.2558  2.9573
  145MOL0     H19100   8.324   0.371   4.785  0.5072 -3.5519 -0.3920
  145MOL0     H19101   8.220   0.285   4.682 -1.8207  0.8268 -0.2743
  145MOL0     H19102   8.011   0.288   4.638 -0.7818  0.5968 -1.6182
  145MOL0     H19103   7.786   0.319   4.566 -0.5773  0.3207 -1.1767
  145MOL0     H19104   7.490   0.653   4.278  0.0961 -1.0907  0.9937
  145MOL0     H19105   7.260   0.683   4.235  0.6695  0.5793 -0.1576
  145MOL0     H19106   7.059   1.006   4.344 -0.4813 -2.2008 -1.7387
  145MOL0     H19107   7.084   0.964   4.518 -3.0616 -0.6641  2.3529
  145MOL0     H19108   6.836   1.023   4.463 -3.1930 -1.3200 -1.5915
  145MOL0     H19109   6.856   0.849   4.506 -1.3356  0.2377  0.0328
  145MOL0     H19110   6.827   0.784   4.277  1.0747  0.5085  3.0112
  145MOL0     H19111   6.850   0.960   4.220  0.5962 -0.5793 -0.5735
  145MOL0     H19112   6.615   0.840   4.357  1.7043 -2.3934 -1.4209
  145MOL0     H19113   6.651   1.019   4.340 -2.9034  0.2167  0.1656
  145MOL0     H19114   6.627   0.821   4.113 -1.9522 -2.7405  3.4620
  145MOL0     H19115   6.633   1.000   4.107  5.1570 -1.4562 -0.3961
  145MOL0     H19116   6.411   1.001   4.236  0.5720  0.4596 -0.2230
  145MOL0     H19117   6.420   0.822   4.223 -1.8183  0.3294  0.6313
  145MOL0     H19118   6.416   1.004   3.986 -1.0436  2.5567  1.2260
  145MOL0     H19119   6.366   0.823   3.991 -1.4680 -0.6633  2.5818
  145MOL0     H19120   6.202   1.017   4.140 -2.4171 -0.6856 -0.8012
  145MOL0     H19121   6.174   0.853   4.083 -1.0632  1.5044  3.3126
  145MOL0     H19122   7.219   0.844   4.639  1.0359  2.5841 -0.8260
  145MOL0     H19123   7.449   0.787   4.666 -0.4047 -2.2394  0.0647
  145MOL0     H19124   7.841   0.754   4.610  2.7202  0.1169 -0.9914
  145MOL0     H19125   8.055   0.709   4.719  1.9948 -1.4962 -0.8501
  145MOL0     H19126   6.940   0.763   3.980 -1.2322 -2.8292  1.7601
  145MOL0     H19127   6.790   0.952   3.941 -1.1202 -0.1083  0.2457
  145MOL0     H19128   6.538   1.037   3.380  1.1885  1.0779 -0.9447
  145MOL0     H19129   6.355   1.157   3.268  2.0122 -0.1331  0.0503
  145MOL0     H19130   6.093   1.137   3.233 -2.0802  0.2283 -2.0528
  145MOL0     H19131   6.196   1.279   3.197 -0.0225 -0.4509 -0.4866
  145MOL0     H19132   5.889   1.291   3.270 -0.6827 -0.3436 -1.1744
  145MOL0     H19133   6.008   1.420   3.256  3.9729 -0.1324 -0.9035
  145MOL0     H19134   6.037   1.342   3.005 -0.1195  3.2632  1.0914
  145MOL0     H19135   5.875   1.394   3.041 -0.0626 -0.1516 -1.5519
  145MOL0     H19136   5.875   1.203   2.903  0.8524 -1.0270 -0.8844
  145MOL0     H19137   5.947   1.102   3.019 -0.5626  0.7030 -0.5737
  145MOL0     H19138   5.584   1.114   3.225 -0.5226 -2.0776 -0.9523
  145MOL0     H19139   6.172   1.219   3.650  0.1024  3.2327 -1.3698
  145MOL0     H19140   6.360   1.089   3.765  1.7637 -0.1092  0.3155
  146MOL0     O19141   7.716  10.866   4.765  0.0043 -0.0334 -0.1533
  146MOL0     C19142   7.749  10.933   4.863  1.0095  0.0812  0.0089
  146MOL0     O19143   7.657  10.980   4.951 -0.1090  0.8313  0.6110
  146MOL0     C19144   7.530  10.937   4.945  0.2047  0.2170 -1.0388
  146MOL0     C19145   7.429  11.002   4.866 -0.6864  0.0415  0.6520
  146MOL0     C19146   7.298  10.968   4.880  0.1567  0.6993 -0.0090
  146MOL0     C19147   7.257  10.868   4.968  0.1344 -0.6252  0.1918
  146MOL0     O19148   7.121  10.831   4.986  0.2336 -0.5328  0.1524
  146MOL0     C19149   7.011  10.909   4.942  0.0854  0.6286  0.0518
  146MOL0     C19150   6.889  10.828   4.962  0.5671 -0.2671 -0.7015
  146MOL0     C19151   6.772  10.926   4.935 -0.5887  0.7262  0.3052
  146MOL0     C19152   6.646  10.871   4.999 -0.1692 -1.0835  0.1242
  146MOL0     C19153   6.531  10.959   4.963  0.0117  0.6133  0.4468
  146MOL0     C19154   6.404  10.904   5.032  0.5035 -1.2006  0.1078
  146MOL0     C19155   6.324  10.809   4.940  0.8340 -0.0912 -0.1296
  146MOL0     C19156   6.189  10.759   5.009 -0.9092  0.3315  0.0441
  146MOL0     N19157   6.097  10.870   5.028 -0.1711 -0.2172  0.0016
  146MOL0     C19158   6.064  10.931   5.145  1.7184 -0.2438  0.6993
  146MOL0     C19159   5.959  11.014   5.119  1.1096  0.2575 -0.0200
  146MOL0     C19160   5.865  11.085   5.212 -0.4975 -0.2488 -0.8390
  146MOL0     C19161   5.929  11.214   5.265 -0.3651 -0.8554  0.1388
  146MOL0     C19162   5.850  11.290   5.373 -0.1088  0.6082  0.8132
  146MOL0     C19163   5.708  11.304   5.336  0.5193  0.4820  0.1782
  146MOL0     O19164   5.635  11.389   5.431 -0.3939  0.9116 -0.6756
  146MOL0     C19165   5.597  11.331   5.551 -0.6687  0.5685  0.2006
  146MOL0     C19166   5.475  11.275   5.556 -0.4183 -0.3408  0.0520
  146MOL0     C19167   5.436  11.196   5.659 -0.6888  0.5355  0.6121
  146MOL0     C19168   5.535  11.164   5.758 -0.9412  1.0119 -0.4808
  146MOL0     C19169   5.504  11.064   5.856  0.9242  0.2777 -0.2713
  146MOL0     O19170   5.564  11.083   5.973  0.2995 -0.0537  0.1653
  146MOL0     C19171   5.489  11.051   6.085 -0.3599 -0.0016  0.1730
  146MOL0     C19172   5.347  11.058   6.100 -0.0786 -0.0262 -0.3149
  146MOL0     C19173   5.285  11.012   6.207 -0.2358 -0.0971 -0.7059
  146MOL0     C19174   5.362  10.971   6.314  0.2377  0.3575 -0.9585
  146MOL0     O19175   5.275  10.952   6.419 -0.2421 -0.6176 -0.2451
  146MOL0     C19176   5.341  10.892   6.536 -0.7745  0.5916  0.1473
  146MOL0     C19177   5.237  10.871   6.649 -0.2237 -0.2143 -0.2433
  146MOL0     C19178   5.163  11.002   6.679 -0.5330 -0.0676 -0.2199
  146MOL0     C19179   5.068  10.981   6.796 -0.3179  0.3494 -0.2120
  146MOL0     C19180   4.976  11.104   6.811 -0.2762 -0.3646 -0.5082
  146MOL0     C19181   4.871  11.093   6.923 -0.1913  0.9464 -0.0339
  146MOL0     C19182   4.758  11.192   6.920  0.1220  0.3747  1.3479
  146MOL0     C19183   4.801  11.336   6.902  0.6073  0.0777  0.0584
  146MOL0    Cl19184   4.925  11.400   7.019 -0.5234  0.1326 -0.2777
  146MOL0     C19185   5.502  10.976   6.315  1.1066 -0.0620  0.8257
  146MOL0     C19186   5.564  11.013   6.204  0.6962  0.4402  0.2211
  146MOL0     O19187   5.437  10.966   5.823 -0.0736 -0.1386 -0.2362
  146MOL0     C19188   5.654  11.243   5.765 -1.1658  0.5483  0.1104
  146MOL0     C19189   5.680  11.325   5.658 -0.3798 -0.2100  0.3633
  146MOL0     N19190   5.944  10.995   4.980 -0.4443  0.0998 -1.2141
  146MOL0     N19191   6.018  10.913   4.929  0.6688 -0.5637 -0.1430
  146MOL0     C19192   7.356  10.801   5.040 -0.0487  0.3522 -0.1817
  146MOL0     C19193   7.494  10.830   5.034  0.2623 -0.5127 -1.0738
  146MOL0     C19194   7.891  10.939   4.890  0.3807 -0.1796 -0.5375
  146MOL0     C19195   7.981  10.853   4.833  0.5584  0.5701  0.0334
  146MOL0     C19196   8.114  10.857   4.870  0.6308  0.1053 -0.3694
  146MOL0     C19197   8.156  10.946   4.972 -0.0654  1.0083  0.0212
  146MOL0     O19198   8.283  10.942   5.013 -0.8133  0.1315  0.0747
  146MOL0     C19199   8.385  10.873   4.936 -0.8126 -0.5855 -0.2250
  146MOL0     C19200   8.532  10.934   4.963 -0.1118  0.4771  1.2608
  146MOL0     C19201   8.639  10.836   4.904  1.2214  0.3165  0.6886
  146MOL0     C19202   8.774  10.854   4.957 -0.5563  0.3290 -0.0310
  146MOL0     C19203   8.874  10.757   4.900 -0.2964 -1.6998  0.9255
  146MOL0     C19204   8.948  10.682   4.838 -0.0692 -0.1888 -0.3481
  146MOL0     C19205   8.073  11.034   5.025  0.8368  0.1353 -0.4031
  146MOL0     C19206   7.941  11.026   4.990  0.4502 -0.0712  0.6104
  146MOL0     H19207   7.452  11.088   4.803 -0.8025  0.4990  1.2180
  146MOL0     H19208   7.220  11.025   4.831 -0.6573 -2.2203 -2.3640
  146MOL0     H19209   7.031  10.924   4.836 -1.6365  0.4712 -0.3316
  146MOL0     H19210   7.006  11.003   4.997 -3.3027 -1.8731  4.7772
  146MOL0     H19211   6.886  10.797   5.067  0.7352 -1.4886 -1.0389
  146MOL0     H19212   6.867  10.739   4.902 -2.5406 -1.9839  2.5417
  146MOL0     H19213   6.770  10.951   4.828  1.9504 -3.8549 -1.1267
  146MOL0     H19214   6.798  11.011   4.998  2.8226 -1.1773  1.7809
  146MOL0     H19215   6.631  10.768   4.966 -2.1782 -1.0459  0.8041
  146MOL0     H19216   6.666  10.865   5.107 -0.9955  3.6300  0.7326
  146MOL0     H19217   6.511  10.954   4.855 -1.3664 -0.5019  0.7267
  146MOL0     H19218   6.558  11.061   4.991  2.3502  0.2712 -0.3958
  146MOL0     H19219   6.344  10.993   5.050  1.7920  0.0821 -1.6901
  146MOL0     H19220   6.426  10.865   5.132  0.4920  1.1560  1.0896
  146MOL0     H19221   6.290  10.849   4.844 -0.0914 -5.5918 -2.4472
  146MOL0     H19222   6.380  10.717   4.920 -2.1441 -1.9003 -0.7037
  146MOL0     H19223   6.211  10.728   5.111 -0.6345 -0.0991 -0.1447
  146MOL0     H19224   6.149  10.673   4.954 -0.7091 -1.1269  2.0467
  146MOL0     H19225   6.106  10.892   5.237  2.1263  1.5536  1.2990
  146MOL0     H19226   5.842  11.018   5.296 -2.1534  1.4088  0.1115
  146MOL0     H19227   5.772  11.113   5.162  0.8463  2.9319 -1.7794
  146MOL0     H19228   5.956  11.283   5.184  1.7315 -0.3944  1.1692
  146MOL0     H19229   6.025  11.194   5.312  1.5319  1.8116 -2.2286
  146MOL0     H19230   5.854  11.241   5.471  1.9658  1.4410  1.2087
  146MOL0     H19231   5.894  11.387   5.397  2.6073 -0.2199 -0.3851
  146MOL0     H19232   5.665  11.203   5.331 -1.5639  1.3818 -2.0357
  146MOL0     H19233   5.698  11.328   5.230  0.2933 -2.3761 -0.5502
  146MOL0     H19234   5.417  11.276   5.464  1.3605  1.1895 -1.1346
  146MOL0     H19235   5.338  11.153   5.673 -0.6473  0.0113 -0.6468
  146MOL0     H19236   5.298  11.088   6.009  1.5384  0.4210 -1.0864
  146MOL0     H19237   5.177  11.024   6.214  0.1856  3.2155  2.9277
  146MOL0     H19238   5.413  10.963   6.577  0.3362 -1.6541  2.3499
  146MOL0     H19239   5.396  10.802   6.508 -0.4651  1.0293 -0.6769
  146MOL0     H19240   5.274  10.819   6.737 -1.5261 -0.6198  0.0893
  146MOL0     H19241   5.161  10.802   6.612  0.7592 -0.8168 -1.1990
  146MOL0     H19242   5.103  11.032   6.593  0.6660  3.3253 -0.0301
  146MOL0     H19243   5.238  11.079   6.701 -1.4177  0.7825 -0.0995
  146MOL0     H19244   5.009  10.890   6.790 -0.0684 -0.3247  4.1385
  146MOL0     H19245   5.131  10.967   6.885 -1.4852 -1.7325  0.3545
  146MOL0     H19246   4.929  11.132   6.716 -2.5374  1.0518  0.9319
  146MOL0     H19247   5.043  11.189   6.829 -1.4560  0.1599  1.8150
  146MOL0     H19248   4.912  11.094   7.024  1.4200 -1.1872 -0.6118
  146MOL0     H19249   4.830  10.993   6.910 -0.2222  0.8438  0.8220
  146MOL0     H19250   4.684  11.179   6.840 -2.2317  2.1651  3.0905
  146MOL0     H19251   4.690  11.183   7.005 -1.2960  1.9628  0.4726
  146MOL0     H19252   4.710  11.396   6.902  1.1878  0.9663  0.3922
  146MOL0     H19253   4.838  11.348   6.800  2.0078  0.8266  0.6323
  146MOL0     H19254   5.562  10.948   6.401 -0.8744 -0.4610  2.1542
  146MOL0     H19255   5.671  10.995   6.200  0.4077 -1.3456 -1.6451
  146MOL0     H19256   5.735  11.234   5.837 -1.1629  0.8420  0.1448
  146MOL0     H19257   5.764  11.392   5.663 -0.1344 -0.2790 -1.9411
  146MOL0     H19258   7.317  10.720   5.102 -0.9171  0.5617 -0.4428
  146MOL0     H19259   7.572  10.779   5.089 -1.1228 -1.2691  0.2687
  146MOL0     H19260   7.939  10.803   4.746 -1.2812  1.7802  0.1582
  146MOL0     H19261   8.183  10.792   4.817  0.8637  0.7672 -0.8960
  146MOL0     H19262   8.380  10.901   4.830 -1.1289  2.2031  0.4317
  146MOL0     H19263   8.377  10.765   4.942 -2.3802 -0.4178  1.3236
  146MOL0     H19264   8.533  11.030   4.911 -2.8931  0.3771  0.8731
  146MOL0     H19265   8.545  10.937   5.071  1.5763 -0.1536  1.1029
  146MOL0     H19266   8.637  10.855   4.797 -4.5959  2.1153  0.7993
  146MOL0     H19267   8.602  10.733   4.904  1.5023  0.1855 -1.2835
  146MOL0     H19268   8.808  10.953   4.926 -0.9763  0.1471 -1.1359
  146MOL0     H19269   8.773  10.842   5.065  0.1521  0.8780  0.0434
  146MOL0     H19270   9.010  10.615   4.784 -2.5707 -1.5352 -1.7480
  146MOL0     H19271   8.121  11.098   5.097  3.6624 -1.9566 -0.2583
  146MOL0     H19272   7.861  11.077   5.042 -1.3344 -0.7450 -1.3527
  147MOL0     O19273   6.279   0.596   3.554  0.1518 -0.0756  0.8073
  147MOL0     C19274   6.291   0.623   3.431 -0.1262  0.7653  0.1638
  147MOL0     O19275   6.222   0.716   3.367 -0.0932 -0.1160 -0.3978
  147MOL0     C19276   6.125   0.797   3.416 -0.4303  0.2041 -0.3463
  147MOL0     C19277   6.031   0.842   3.321 -0.2510  0.5853  0.2633
  147MOL0     C19278   5.919   0.916   3.360  0.5016 -0.2046  0.4567
  147MOL0     C19279   5.903   0.969   3.488  0.8526  0.3709  0.4189
  147MOL0     O19280   5.779   1.010   3.528 -0.2230  0.4466  0.5327
  147MOL0     C19281   5.766   1.118   3.622 -0.5646  0.2542 -1.0746
  147MOL0     C19282   5.671   1.229   3.577 -0.1061  0.5942 -0.2602
  147MOL0     C19283   5.534   1.178   3.540  0.0775 -0.3837 -0.1717
  147MOL0     C19284   5.433   1.289   3.519  0.2402 -0.4213 -0.1591
  147MOL0     C19285   5.330   1.262   3.410 -1.1226  0.6903 -0.3968
  147MOL0     C19286   5.198   1.345   3.418  0.1701 -0.4479 -0.1995
  147MOL0     C19287   5.114   1.308   3.296 -0.4830 -0.0251 -0.1147
  147MOL0     C19288   5.044   1.177   3.318  0.2318  1.0267  0.9944
  147MOL0     N19289   4.960   1.145   3.201 -0.1844  0.8198 -0.4975
  147MOL0     C19290   5.017   1.081   3.091 -0.5138 -0.0088  1.1663
  147MOL0     C19291   4.917   1.086   3.004 -0.3358 -0.0866  0.3279
  147MOL0     C19292   4.930   1.043   2.857  0.5330  0.2173 -0.3225
  147MOL0     C19293   4.803   1.064   2.776  0.6597  0.0368 -0.1995
  147MOL0     C19294   4.805   1.005   2.630  0.2154 -0.6846 -0.4682
  147MOL0     C19295   4.667   1.026   2.568  0.2955 -0.0766 -0.3969
  147MOL0     O19296   4.655   0.920   2.463 -0.1802  0.0117  0.0739
  147MOL0     C19297   4.530   0.894   2.411 -0.6745  0.0915 -0.0593
  147MOL0     C19298   4.417   0.964   2.452  0.7138  0.8621 -0.2698
  147MOL0     C19299   4.293   0.925   2.403  0.4328  0.2719 -0.3117
  147MOL0     C19300   4.279   0.820   2.301  0.0343  0.6833 -0.9097
  147MOL0     C19301   4.151   0.790   2.245  1.2466 -1.1737 -0.2083
  147MOL0     O19302   4.135   0.667   2.188  0.7531 -0.5170  0.7209
  147MOL0     C19303   4.015   0.644   2.121  0.0996  0.2106  1.1234
  147MOL0     C19304   3.937   0.537   2.160  0.6491 -0.1199 -0.6930
  147MOL0     C19305   3.805   0.511   2.118 -0.2291 -0.4135  1.9103
  147MOL0     C19306   3.752   0.591   2.010  0.4991 -0.2029  0.4984
  147MOL0     O19307   3.624   0.556   1.963 -0.4044 -0.1694  0.0013
  147MOL0     C19308   3.562   0.636   1.862 -0.1202 -0.7831  0.1424
  147MOL0     C19309   3.433   0.561   1.813  0.3642  0.0429 -0.0135
  147MOL0     C19310   3.340   0.495   1.916 -0.4005 -0.6041 -0.0334
  147MOL0     C19311   3.206   0.440   1.869  0.9806 -0.1279 -0.1168
  147MOL0     C19312   3.110   0.536   1.801 -1.0811 -0.1405 -0.6391
  147MOL0     C19313   2.974   0.473   1.792  0.5603 -0.0059  0.8124
  147MOL0     C19314   2.885   0.567   1.717 -1.0189 -0.5065 -0.3486
  147MOL0     C19315   2.734   0.536   1.711  0.8850  0.1156  0.0373
  147MOL0    Cl19316   2.652   0.675   1.627 -0.1066 -0.2539 -0.5205
  147MOL0     C19317   3.841   0.683   1.950  0.6163  0.9331 -0.2916
  147MOL0     C19318   3.965   0.717   2.010 -0.4541 -0.2774 -0.4308
  147MOL0     O19319   4.070   0.881   2.242 -0.3264 -0.5370  0.2914
  147MOL0     C19320   4.395   0.753   2.264 -0.6329 -0.3062  0.9933
  147MOL0     C19321   4.514   0.795   2.307 -0.4768  0.1559  0.3548
  147MOL0     N19322   4.803   1.139   3.061  0.9157  0.8094  0.2243
  147MOL0     N19323   4.829   1.168   3.186 -0.2038  0.0069 -0.4269
  147MOL0     C19324   6.006   0.944   3.578  0.1358 -0.1964  0.1298
  147MOL0     C19325   6.118   0.859   3.543 -0.0949  1.0156  0.5161
  147MOL0     C19326   6.357   0.513   3.357  0.2767 -0.5353 -1.6582
  147MOL0     C19327   6.441   0.420   3.418  0.3566 -0.1016 -0.5445
  147MOL0     C19328   6.490   0.308   3.347  0.1511  0.1585 -0.0923
  147MOL0     C19329   6.457   0.296   3.214  0.0822  0.0843  0.6105
  147MOL0     O19330   6.517   0.204   3.132 -0.9260  0.5259  0.8696
  147MOL0     C19331   6.591   0.090   3.184 -0.5784  0.3684  0.2025
  147MOL0     C19332   6.653   0.006   3.076  0.4049 -0.0984  0.8099
  147MOL0     C19333   6.560  -0.046   2.971 -0.5270  0.4190  0.0872
  147MOL0     C19334   6.651  -0.133   2.874  0.4093 -0.2564 -0.0586
  147MOL0     C19335   6.554  -0.174   2.774  0.1280 -0.3091  1.4911
  147MOL0     C19336   6.496  -0.231   2.679 -0.3155 -0.4273  0.4139
  147MOL0     C19337   6.373   0.382   3.151 -0.6160  0.3407 -0.1030
  147MOL0     C19338   6.319   0.490   3.225 -0.6173 -0.2207 -0.3856
  147MOL0     H19339   6.057   0.842   3.215  0.4840 -0.0206  0.4339
  147MOL0     H19340   5.851   0.947   3.282  2.6354  0.2605 -1.3262
  147MOL0     H19341   5.863   1.166   3.641 -0.7146  1.8193 -3.8381
  147MOL0     H19342   5.741   1.097   3.727  0.0131  0.0586 -0.9709
  147MOL0     H19343   5.709   1.277   3.487  0.4170  3.7511  1.4897
  147MOL0     H19344   5.658   1.312   3.647  0.9274  0.3277  0.2830
  147MOL0     H19345   5.498   1.127   3.630 -2.4692  3.8832  1.4895
  147MOL0     H19346   5.526   1.132   3.442  2.5841  0.3884 -0.8065
  147MOL0     H19347   5.382   1.304   3.615 -2.1803 -0.0953 -1.4206
  147MOL0     H19348   5.487   1.377   3.485 -1.0756 -0.7905 -3.5900
  147MOL0     H19349   5.298   1.158   3.422 -1.1184  0.2338 -3.6049
  147MOL0     H19350   5.391   1.280   3.321  2.5830  0.3465  1.8788
  147MOL0     H19351   5.227   1.451   3.418 -0.6781 -0.1617 -2.6383
  147MOL0     H19352   5.140   1.328   3.510  0.4400  0.1225  0.0869
  147MOL0     H19353   5.042   1.386   3.270 -2.2013 -1.0013  1.4589
  147MOL0     H19354   5.188   1.303   3.216  1.1786  0.7479  1.3171
  147MOL0     H19355   4.977   1.178   3.404 -2.8819  1.1100 -1.2728
  147MOL0     H19356   5.116   1.098   3.341  0.9013  1.2434 -0.2687
  147MOL0     H19357   5.117   1.056   3.058  0.3156  2.9242  1.1735
  147MOL0     H19358   4.956   0.937   2.860  2.6998  0.7221  0.4282
  147MOL0     H19359   5.016   1.095   2.814  1.7713  1.0277  2.8207
  147MOL0     H19360   4.801   1.173   2.769  1.3511  0.1154  0.6644
  147MOL0     H19361   4.718   1.023   2.833  0.3755 -1.0192 -1.3268
  147MOL0     H19362   4.882   1.034   2.559  0.2610  1.4078  0.3725
  147MOL0     H19363   4.805   0.897   2.648 -4.6365 -0.4749  2.8575
  147MOL0     H19364   4.655   1.129   2.533  0.7407  0.4873  1.0352
  147MOL0     H19365   4.590   1.008   2.642  1.8499  0.9158  1.5629
  147MOL0     H19366   4.418   1.050   2.518 -2.5276  1.1123 -0.3815
  147MOL0     H19367   4.199   0.963   2.441  1.2394 -1.5784  4.1842
  147MOL0     H19368   3.980   0.476   2.240  0.0097  0.5715  0.1954
  147MOL0     H19369   3.736   0.440   2.163 -0.7317 -0.5347  0.9685
  147MOL0     H19370   3.622   0.645   1.771 -1.3107  2.4788 -0.4450
  147MOL0     H19371   3.539   0.737   1.898 -0.8607  0.2695 -2.9776
  147MOL0     H19372   3.472   0.477   1.755 -1.9485 -1.2697  0.2394
  147MOL0     H19373   3.380   0.623   1.740  0.0344 -0.3003 -0.0684
  147MOL0     H19374   3.326   0.567   1.997 -1.8512  0.8094 -1.4728
  147MOL0     H19375   3.398   0.411   1.956  0.8181  0.1486 -0.1708
  147MOL0     H19376   3.219   0.364   1.791 -1.4837 -1.6426  0.8221
  147MOL0     H19377   3.167   0.386   1.955  1.1656  1.1635  0.8068
  147MOL0     H19378   3.148   0.558   1.701  0.7506 -2.9051 -0.6615
  147MOL0     H19379   3.110   0.633   1.852 -3.5456  0.6113 -1.8900
  147MOL0     H19380   2.925   0.441   1.884 -1.3299  0.2635 -0.0583
  147MOL0     H19381   2.984   0.389   1.723  0.7209 -2.6183  3.7777
  147MOL0     H19382   2.891   0.665   1.765 -4.7427  0.2648 -1.1008
  147MOL0     H19383   2.920   0.582   1.615  0.1782 -0.7794  0.0097
  147MOL0     H19384   2.703   0.527   1.815  0.4942  2.2295  0.1484
  147MOL0     H19385   2.714   0.444   1.654  3.2328 -0.8713  0.6980
  147MOL0     H19386   3.810   0.747   1.868  1.7397  3.4579  1.1338
  147MOL0     H19387   4.029   0.800   1.979 -0.4048 -0.8318 -1.8984
  147MOL0     H19388   4.394   0.685   2.180 -2.4841 -1.0000  1.5266
  147MOL0     H19389   4.609   0.751   2.277 -0.2981  0.0597  1.0391
  147MOL0     H19390   5.980   0.991   3.672 -0.5708  1.1295 -0.6866
  147MOL0     H19391   6.191   0.831   3.617  1.4758  0.2408 -1.2506
  147MOL0     H19392   6.462   0.432   3.524 -2.5853  1.2330 -0.0057
  147MOL0     H19393   6.573   0.254   3.391  0.7822  0.9963 -0.2203
  147MOL0     H19394   6.514   0.029   3.231 -1.1155  0.5347 -0.4505
  147MOL0     H19395   6.666   0.130   3.253 -2.8594  2.4917  1.6151
  147MOL0     H19396   6.730   0.070   3.032  1.0233 -1.3177  0.0626
  147MOL0     H19397   6.700  -0.084   3.117 -0.8263 -0.7356  0.8663
  147MOL0     H19398   6.520   0.043   2.921  1.3030  2.8129  2.5711
  147MOL0     H19399   6.474  -0.102   3.008 -1.8139  3.4268  2.0899
  147MOL0     H19400   6.730  -0.067   2.838  0.9280 -2.0819 -2.5287
  147MOL0     H19401   6.689  -0.224   2.920 -1.2158 -1.3211 -0.7352
  147MOL0     H19402   6.450  -0.277   2.594 -0.7205 -2.3537  1.6022
  147MOL0     H19403   6.351   0.371   3.045  3.4853  3.6628 -1.5949
  147MOL0     H19404   6.242   0.551   3.179  1.0678  0.2374 -2.8007
  148MOL0     O19405   7.479   5.836   1.958 -0.2386 -0.6259 -0.1745
  148MOL0     C19406   7.582   5.857   2.031  0.1738 -0.3004  0.9570
  148MOL0     O19407   7.616   5.787   2.148 -0.6851  0.1097  0.2704
  148MOL0     C19408   7.510   5.719   2.204  0.2641  0.1072  1.3498
  148MOL0     C19409   7.384   5.773   2.217 -1.0196 -0.9218  0.6523
  148MOL0     C19410   7.280   5.706   2.288  0.3083  0.2653 -0.1532
  148MOL0     C19411   7.308   5.577   2.340 -0.4737  0.2220  0.1583
  148MOL0     O19412   7.228   5.483   2.400  0.5378  0.4271  1.3284
  148MOL0     C19413   7.083   5.523   2.421  0.6061 -0.2069 -0.2011
  148MOL0     C19414   6.996   5.448   2.329 -1.0250 -0.8139 -0.4224
  148MOL0     C19415   6.846   5.447   2.367 -0.8010 -0.3750 -0.3503
  148MOL0     C19416   6.772   5.572   2.348  0.1172 -0.8033 -0.1291
  148MOL0     C19417   6.736   5.655   2.478 -0.1436  0.2395  0.4050
  148MOL0     C19418   6.640   5.767   2.456 -0.5858 -0.7808 -0.3237
  148MOL0     C19419   6.642   5.876   2.564  0.7932 -0.7554  0.0073
  148MOL0     C19420   6.554   6.000   2.539 -1.1753  0.1184  0.0939
  148MOL0     N19421   6.413   5.958   2.529 -0.8811 -0.1663 -0.7550
  148MOL0     C19422   6.331   5.950   2.424  1.0710  0.3631  0.6242
  148MOL0     C19423   6.199   5.964   2.464  0.3107  1.0563 -0.1739
  148MOL0     C19424   6.073   5.956   2.374 -0.3418  0.5807  0.1361
  148MOL0     C19425   5.976   5.847   2.399  0.3336 -0.7624  0.1122
  148MOL0     C19426   5.899   5.851   2.528  0.1657  0.1988 -0.8415
  148MOL0     C19427   5.759   5.891   2.512  0.0308 -0.4551  0.5074
  148MOL0     O19428   5.686   5.781   2.457 -0.3275  0.1687 -0.3299
  148MOL0     C19429   5.552   5.770   2.498 -0.4809  0.9939 -0.2568
  148MOL0     C19430   5.474   5.872   2.560  0.4537  0.0858 -0.0295
  148MOL0     C19431   5.334   5.849   2.584 -0.2394  0.5491 -0.6807
  148MOL0     C19432   5.281   5.723   2.560  0.7685  0.2900  0.6192
  148MOL0     C19433   5.133   5.694   2.591  0.5370 -0.1544  0.5812
  148MOL0     O19434   5.076   5.566   2.568  0.2546 -0.2872 -0.1843
  148MOL0     C19435   4.934   5.567   2.557  0.4645  0.9485 -0.2310
  148MOL0     C19436   4.868   5.475   2.639  0.2302  0.9263 -0.5309
  148MOL0     C19437   4.726   5.465   2.634  1.0125 -0.1155 -0.0886
  148MOL0     C19438   4.647   5.551   2.550 -0.2253  0.5668 -0.1587
  148MOL0     O19439   4.517   5.535   2.556  0.2531  0.7054 -0.2097
  148MOL0     C19440   4.453   5.504   2.431  0.1604  1.5154 -0.3152
  148MOL0     C19441   4.310   5.456   2.446  0.4443 -0.4969 -0.1968
  148MOL0     C19442   4.229   5.568   2.524  0.1889 -0.1718 -0.2688
  148MOL0     C19443   4.098   5.498   2.564 -0.1899 -1.0519 -0.0303
  148MOL0     C19444   4.007   5.583   2.653 -0.3295 -0.2115 -0.6633
  148MOL0     C19445   4.068   5.639   2.789  0.7959 -0.6111  0.0244
  148MOL0     C19446   4.122   5.537   2.892  0.1648  0.6294 -0.0970
  148MOL0     C19447   4.184   5.613   3.008 -0.2766 -0.2078 -0.1044
  148MOL0    Cl19448   4.220   5.502   3.151 -0.4157  0.3811 -0.0062
  148MOL0     C19449   4.718   5.643   2.470 -0.3606  0.5003 -0.2926
  148MOL0     C19450   4.858   5.652   2.480  0.2785 -0.4307 -0.7401
  148MOL0     O19451   5.062   5.791   2.634 -0.8060  0.6564 -0.4232
  148MOL0     C19452   5.353   5.618   2.489 -0.7768 -0.4640 -0.1651
  148MOL0     C19453   5.494   5.646   2.467 -0.5248  0.3539 -0.4109
  148MOL0     N19454   6.208   5.968   2.601  0.4587  0.1256  0.0963
  148MOL0     N19455   6.330   5.981   2.628 -0.1499 -0.2660 -0.8571
  148MOL0     C19456   7.439   5.521   2.324 -0.5257 -0.3054 -0.5090
  148MOL0     C19457   7.540   5.593   2.255  1.1951 -1.3801 -0.4143
  148MOL0     C19458   7.677   5.963   1.991  0.7193 -0.1638  0.4422
  148MOL0     C19459   7.687   5.976   1.855 -0.8237 -1.1210  0.4733
  148MOL0     C19460   7.780   6.070   1.804  0.3438 -0.1200 -0.1532
  148MOL0     C19461   7.871   6.129   1.891 -0.1804 -0.2212  0.1982
  148MOL0     O19462   7.958   6.232   1.862  0.4051 -0.4264 -0.4879
  148MOL0     C19463   8.019   6.245   1.731 -0.0983  0.5268  0.0094
  148MOL0     C19464   8.109   6.123   1.699 -0.0401 -0.2400  0.1850
  148MOL0     C19465   8.209   6.110   1.810 -0.5898  1.0111 -0.0716
  148MOL0     C19466   8.334   6.023   1.782 -0.1490 -0.1673  0.1752
  148MOL0     C19467   8.421   6.068   1.663 -1.0648 -0.2033  0.8188
  148MOL0     C19468   8.473   6.081   1.556 -0.3241  0.5143  0.1670
  148MOL0     C19469   7.865   6.103   2.029 -0.1388  0.1239  0.5951
  148MOL0     C19470   7.763   6.020   2.083  0.8392  0.0761  0.2936
  148MOL0     H19471   7.355   5.868   2.174  4.3457 -0.4713 -2.9638
  148MOL0     H19472   7.187   5.761   2.290  0.8656  1.2712  3.2598
  148MOL0     H19473   7.075   5.632   2.413  0.0767 -0.3346 -1.6722
  148MOL0     H19474   7.043   5.508   2.522  0.0846 -0.0383 -0.3796
  148MOL0     H19475   7.030   5.344   2.324 -2.6603 -1.3584 -0.9448
  148MOL0     H19476   7.022   5.479   2.227  3.8728  0.8192  1.0755
  148MOL0     H19477   6.837   5.430   2.474 -0.1933  0.5848 -0.1314
  148MOL0     H19478   6.798   5.367   2.309  1.1663  0.2744 -3.0833
  148MOL0     H19479   6.810   5.628   2.263  0.2866 -1.5049 -0.5253
  148MOL0     H19480   6.672   5.536   2.321 -0.9885 -0.3402  2.8830
  148MOL0     H19481   6.836   5.691   2.504 -0.8503  1.8161  1.0370
  148MOL0     H19482   6.703   5.580   2.550  0.0846 -1.7782 -1.4690
  148MOL0     H19483   6.540   5.723   2.466 -1.1708  0.2776 -1.3538
  148MOL0     H19484   6.648   5.816   2.359 -0.1900  0.4144  0.2864
  148MOL0     H19485   6.616   5.825   2.656 -0.5803 -3.2348 -1.6482
  148MOL0     H19486   6.740   5.920   2.588  0.5459  0.3629 -0.9072
  148MOL0     H19487   6.592   6.058   2.455 -1.1676  0.0839  0.0735
  148MOL0     H19488   6.555   6.060   2.631 -2.5812 -1.3602  1.1411
  148MOL0     H19489   6.352   5.939   2.318  1.0194  1.1952  0.5182
  148MOL0     H19490   6.111   5.940   2.273 -3.0304 -0.9629 -0.7459
  148MOL0     H19491   6.013   6.048   2.377  0.0670  0.8149  1.3410
  148MOL0     H19492   6.032   5.754   2.412  0.5794 -0.3132  2.8518
  148MOL0     H19493   5.910   5.843   2.311  2.7105  0.9872 -1.8881
  148MOL0     H19494   5.904   5.753   2.576 -1.7043  0.0946 -0.7981
  148MOL0     H19495   5.941   5.922   2.600 -2.7121 -0.8048  2.0681
  148MOL0     H19496   5.754   5.979   2.446 -3.0315  1.6572  3.2404
  148MOL0     H19497   5.717   5.924   2.607 -2.2439  0.4785 -0.7324
  148MOL0     H19498   5.502   5.973   2.589 -1.3835  0.9116 -0.9790
  148MOL0     H19499   5.267   5.929   2.616 -0.1020  0.1531  0.6182
  148MOL0     H19500   4.930   5.404   2.693 -1.0925 -0.5966 -0.9324
  148MOL0     H19501   4.667   5.395   2.693 -1.6684  1.9755 -0.1061
  148MOL0     H19502   4.516   5.423   2.392 -3.3720 -1.0966 -1.0638
  148MOL0     H19503   4.467   5.584   2.358 -0.7674  0.1318 -2.0834
  148MOL0     H19504   4.322   5.362   2.501  0.3610 -0.0875  0.5310
  148MOL0     H19505   4.259   5.439   2.350 -1.4805  1.3926  0.4283
  148MOL0     H19506   4.205   5.645   2.450 -1.5583 -1.8648 -1.5712
  148MOL0     H19507   4.288   5.602   2.610  1.5629 -2.6019 -0.1325
  148MOL0     H19508   4.041   5.466   2.477 -0.8188 -1.0453  0.3698
  148MOL0     H19509   4.121   5.414   2.629  0.2022 -1.7860 -1.1029
  148MOL0     H19510   3.918   5.521   2.665  0.9168 -2.6530 -2.8476
  148MOL0     H19511   3.974   5.665   2.590 -1.2911 -1.5243 -1.9341
  148MOL0     H19512   3.991   5.703   2.834  0.8015 -0.6967  0.1564
  148MOL0     H19513   4.152   5.707   2.773 -0.5373  0.5314 -2.9420
  148MOL0     H19514   4.046   5.472   2.935 -2.1701  1.9181 -2.0191
  148MOL0     H19515   4.193   5.467   2.847  1.1388  0.7996  1.1331
  148MOL0     H19516   4.108   5.687   3.037 -0.1560 -1.4227  3.9784
  148MOL0     H19517   4.277   5.664   2.980  0.3966 -1.4155 -0.1504
  148MOL0     H19518   4.662   5.718   2.414  0.0002  0.6169 -0.5035
  148MOL0     H19519   4.923   5.719   2.425 -0.4409 -1.0119 -2.3465
  148MOL0     H19520   5.292   5.533   2.459 -2.6620  0.8931 -0.3437
  148MOL0     H19521   5.550   5.566   2.420  1.4999 -0.0946  2.4974
  148MOL0     H19522   7.470   5.424   2.362 -0.4795 -0.1559 -0.1615
  148MOL0     H19523   7.639   5.559   2.226  1.0219 -2.3365  0.0667
  148MOL0     H19524   7.620   5.925   1.786  1.6259 -1.4911 -1.7768
  148MOL0     H19525   7.791   6.080   1.696 -0.7698 -2.2102 -0.5053
  148MOL0     H19526   8.080   6.333   1.713  2.0600 -0.6346  1.2791
  148MOL0     H19527   7.932   6.250   1.665 -0.9199  2.1653  1.1416
  148MOL0     H19528   8.045   6.034   1.701  2.8699 -2.5305 -0.5066
  148MOL0     H19529   8.147   6.134   1.597 -1.8741  2.6520 -0.2964
  148MOL0     H19530   8.169   6.078   1.907 -0.6602  0.7387 -0.1892
  148MOL0     H19531   8.242   6.211   1.836  1.7477  0.6395 -1.3092
  148MOL0     H19532   8.391   6.042   1.874 -1.2095 -0.4223  0.9001
  148MOL0     H19533   8.306   5.918   1.773 -0.9102 -0.1753  2.2091
  148MOL0     H19534   8.533   6.104   1.470  2.3597  1.1387  2.0695
  148MOL0     H19535   7.945   6.141   2.091  1.8485 -0.0599 -1.7315
  148MOL0     H19536   7.764   5.992   2.188 -3.8833 -4.0713 -0.3625
  149MOL0     O19537   0.818   4.845  10.208 -0.2250  0.9618 -0.2943
  149MOL0     C19538   0.787   4.751  10.285 -0.3971  0.2101 -0.2196
  149MOL0     O19539   0.753   4.625  10.249 -0.2313 -0.4838 -0.0151
  149MOL0     C19540   0.766   4.582  10.120  0.7209  0.4166 -0.7247
  149MOL0     C19541   0.677   4.636  10.020  0.0385 -0.0415  0.1091
  149MOL0     C19542   0.680   4.587   9.889 -0.1127  0.0394 -0.4148
  149MOL0     C19543   0.766   4.489   9.849  0.3015  0.3682  0.2207
  149MOL0     O19544   0.762   4.466   9.708 -0.2225  0.0622  0.5086
  149MOL0     C19545   0.830   4.341   9.658 -0.1539  0.5852  0.9286
  149MOL0     C19546   0.769   4.212   9.695  0.2443  0.6280 -0.2974
  149MOL0     C19547   0.848   4.093   9.629  0.4621 -0.6479  0.4446
  149MOL0     C19548   0.772   3.959   9.622 -0.4280  0.9062  0.3062
  149MOL0     C19549   0.878   3.844   9.637  0.5728 -0.7225 -0.1177
  149MOL0     C19550   0.812   3.703   9.646  0.8199  0.1861 -0.8703
  149MOL0     C19551   0.911   3.593   9.665 -0.2366 -0.0875 -0.5684
  149MOL0     C19552   0.940   3.534   9.525 -0.5652  0.1977 -0.9211
  149MOL0     N19553   1.035   3.422   9.539 -0.8044  0.4092 -0.2765
  149MOL0     C19554   1.134   3.400   9.450 -0.2600 -0.4149  0.0918
  149MOL0     C19555   1.152   3.265   9.458 -0.7153  0.7571 -0.7492
  149MOL0     C19556   1.256   3.186   9.382  0.3839 -0.5245 -0.4296
  149MOL0     C19557   1.398   3.226   9.417 -0.4630 -0.4882 -0.1324
  149MOL0     C19558   1.455   3.343   9.336 -0.2033  0.0890 -0.2822
  149MOL0     C19559   1.494   3.290   9.191  0.5767 -0.2632 -0.8558
  149MOL0     O19560   1.577   3.382   9.117  0.3699 -0.1402  0.1109
  149MOL0     C19561   1.716   3.367   9.133  1.1525 -0.4401  0.2127
  149MOL0     C19562   1.778   3.451   9.060  0.3044 -0.7121  0.6239
  149MOL0     C19563   1.916   3.456   9.078  0.3715  0.2045 -1.4027
  149MOL0     C19564   1.988   3.383   9.180  0.7359  0.0051 -0.3331
  149MOL0     C19565   2.130   3.401   9.205  0.3271 -0.1154  0.5487
  149MOL0     O19566   2.187   3.513   9.155 -0.7793 -0.7239  0.5687
  149MOL0     C19567   2.326   3.517   9.162  0.9741  0.1728  0.7540
  149MOL0     C19568   2.396   3.440   9.064  0.1912  0.2086 -0.1015
  149MOL0     C19569   2.535   3.454   9.062 -0.2818 -0.0456  0.6111
  149MOL0     C19570   2.597   3.559   9.138 -0.7427  0.3791  0.7818
  149MOL0     O19571   2.733   3.576   9.113  0.7264  0.3071 -0.3899
  149MOL0     C19572   2.809   3.664   9.195  0.4762  0.7303 -0.0668
  149MOL0     C19573   2.958   3.660   9.157  0.6138 -0.7223 -0.1212
  149MOL0     C19574   3.043   3.747   9.252 -0.6750 -0.2383 -0.7438
  149MOL0     C19575   3.193   3.777   9.205  0.0690  0.3900  0.1987
  149MOL0     C19576   3.278   3.863   9.297 -0.6637 -0.6547  0.1767
  149MOL0     C19577   3.405   3.887   9.234  0.6153 -0.6028  0.2109
  149MOL0     C19578   3.494   3.987   9.306  0.6594 -0.0492 -0.3956
  149MOL0     C19579   3.531   3.932   9.445 -0.6793 -0.0487  0.6173
  149MOL0    Cl19580   3.397   3.941   9.558  0.1115  0.1013  0.3800
  149MOL0     C19581   2.522   3.624   9.240 -0.7660  0.3538 -0.6212
  149MOL0     C19582   2.386   3.609   9.246 -0.5731  0.7462  0.3470
  149MOL0     O19583   2.187   3.326   9.280 -0.6423  1.0078  0.5494
  149MOL0     C19584   1.910   3.298   9.266  0.4237  0.5344  1.0429
  149MOL0     C19585   1.778   3.297   9.241  0.1685  0.7637  0.1740
  149MOL0     N19586   1.071   3.213   9.554  0.2362  0.6327  0.1529
  149MOL0     N19587   0.991   3.301   9.594 -0.0513 -0.2903 -0.9943
  149MOL0     C19588   0.856   4.436   9.939  0.2458 -1.1816 -0.2894
  149MOL0     C19589   0.853   4.487  10.075  1.0758  0.0667 -0.7756
  149MOL0     C19590   0.776   4.784  10.423  0.5530 -0.2736 -0.0204
  149MOL0     C19591   0.720   4.694  10.518 -0.2895 -0.2822 -0.2461
  149MOL0     C19592   0.730   4.737  10.657  0.9674  0.2310  0.3807
  149MOL0     C19593   0.761   4.866  10.697 -0.4114  0.5028  0.0921
  149MOL0     O19594   0.749   4.901  10.829 -0.8552  0.7033 -0.2744
  149MOL0     C19595   0.807   5.034  10.865  0.4937 -0.0514 -1.2980
  149MOL0     C19596   0.792   5.071  11.015  0.0579  0.7278 -0.3764
  149MOL0     C19597   0.639   5.107  11.045  0.2531  0.1680  0.4590
  149MOL0     C19598   0.589   5.067  11.192  0.7109  0.4068 -0.2151
  149MOL0     C19599   0.663   5.162  11.277 -0.2460 -0.4880  0.3433
  149MOL0     C19600   0.747   5.217  11.346  0.2777 -0.4630 -0.6513
  149MOL0     C19601   0.811   4.942  10.598 -0.7926  0.2330  1.6216
  149MOL0     C19602   0.823   4.910  10.468  0.1927  1.0502  0.3641
  149MOL0     H19603   0.613   4.716  10.057  0.4690  0.4354 -0.1707
  149MOL0     H19604   0.611   4.621   9.812 -0.3063  3.7042  1.1404
  149MOL0     H19605   0.935   4.342   9.687 -0.5522  1.1753  2.4090
  149MOL0     H19606   0.830   4.353   9.549 -0.9782 -0.3787  0.8107
  149MOL0     H19607   0.662   4.211   9.673 -0.8186  2.4686  3.7983
  149MOL0     H19608   0.781   4.199   9.803 -1.0969 -0.4966 -0.2664
  149MOL0     H19609   0.941   4.081   9.686  1.3292 -2.2042 -1.1499
  149MOL0     H19610   0.880   4.122   9.528 -2.0458  2.7794  0.4507
  149MOL0     H19611   0.705   3.948   9.708 -0.7237  0.6616  0.0480
  149MOL0     H19612   0.710   3.958   9.532 -1.2472  0.3388  0.8698
  149MOL0     H19613   0.934   3.853   9.731 -1.5073 -0.8146  1.2089
  149MOL0     H19614   0.955   3.846   9.559  1.0479  0.8214  0.3728
  149MOL0     H19615   0.767   3.688   9.547  0.9674  0.7786 -1.0343
  149MOL0     H19616   0.735   3.700   9.724 -0.1106  3.4222 -1.4765
  149MOL0     H19617   0.997   3.637   9.717 -0.5224  1.5287 -1.4018
  149MOL0     H19618   0.861   3.515   9.723 -0.1702 -0.8180 -1.4602
  149MOL0     H19619   0.981   3.617   9.467  0.5410  0.2809 -0.0601
  149MOL0     H19620   0.848   3.498   9.480 -3.0941 -0.3775  4.0107
  149MOL0     H19621   1.171   3.472   9.377  0.2129  0.4790  1.1834
  149MOL0     H19622   1.244   3.182   9.274  2.2784  1.7827 -0.8076
  149MOL0     H19623   1.244   3.081   9.412  0.2229 -0.5035 -0.4199
  149MOL0     H19624   1.466   3.142   9.399  0.8227  0.3194  0.7083
  149MOL0     H19625   1.413   3.254   9.522  2.7342  0.8956 -0.8213
  149MOL0     H19626   1.386   3.428   9.336  1.8474  1.8476  0.9717
  149MOL0     H19627   1.545   3.379   9.386 -1.2317  1.2690  0.8166
  149MOL0     H19628   1.403   3.276   9.133 -0.6157  4.8096 -0.7413
  149MOL0     H19629   1.547   3.196   9.209 -1.6468 -1.1925  1.4207
  149MOL0     H19630   1.735   3.518   8.987 -1.3910 -2.6820 -0.2872
  149MOL0     H19631   1.979   3.512   9.010 -0.7130  0.7565 -1.9751
  149MOL0     H19632   2.339   3.381   8.993 -0.7916  2.3319 -1.1824
  149MOL0     H19633   2.595   3.410   8.983 -0.0075  1.7876 -0.2522
  149MOL0     H19634   2.795   3.631   9.298 -0.0638 -2.4600 -1.0495
  149MOL0     H19635   2.782   3.769   9.178  2.5876  1.0408 -1.9907
  149MOL0     H19636   2.961   3.712   9.061 -1.9176  1.6291  0.9148
  149MOL0     H19637   2.996   3.560   9.137  3.4101 -0.0867  1.5222
  149MOL0     H19638   3.047   3.693   9.347  1.0833  3.8674  1.7904
  149MOL0     H19639   2.994   3.845   9.253  0.7255  0.5038  1.2113
  149MOL0     H19640   3.245   3.683   9.184  0.0747  1.0830 -3.7626
  149MOL0     H19641   3.189   3.826   9.107  0.7867 -0.8620 -0.4688
  149MOL0     H19642   3.282   3.803   9.388  2.0110 -1.6698 -0.5075
  149MOL0     H19643   3.223   3.955   9.320 -1.2591 -0.9761  0.0604
  149MOL0     H19644   3.388   3.938   9.138 -1.8545  1.7312  1.7253
  149MOL0     H19645   3.448   3.788   9.216 -1.5484 -0.9470 -5.2817
  149MOL0     H19646   3.589   4.000   9.253  1.1282 -0.4879  0.3249
  149MOL0     H19647   3.448   4.086   9.309 -2.5295 -1.1509 -4.1837
  149MOL0     H19648   3.606   4.002   9.483  0.5313 -1.7614  1.5335
  149MOL0     H19649   3.591   3.841   9.441  4.9761  3.2383 -0.2125
  149MOL0     H19650   2.571   3.697   9.305 -2.6554  1.3934 -0.2771
  149MOL0     H19651   2.322   3.649   9.325  1.5599  1.7087  1.6721
  149MOL0     H19652   1.950   3.228   9.340  2.0407 -1.3496 -1.4358
  149MOL0     H19653   1.712   3.238   9.304 -1.1190  1.0384 -0.8639
  149MOL0     H19654   0.933   4.363   9.914  1.7400 -0.2114  1.2652
  149MOL0     H19655   0.917   4.452  10.156  0.8080  1.6091  0.1482
  149MOL0     H19656   0.673   4.599  10.494 -0.0202  0.0544 -2.3403
  149MOL0     H19657   0.714   4.668  10.739  0.1324  0.4346  0.3984
  149MOL0     H19658   0.762   5.113  10.805  1.7479  0.5561 -1.4623
  149MOL0     H19659   0.916   5.033  10.853  0.8077 -0.1804  1.1529
  149MOL0     H19660   0.815   4.982  11.074  2.7266  0.7846 -1.1640
  149MOL0     H19661   0.855   5.159  11.035  1.3235  0.7541 -3.7807
  149MOL0     H19662   0.574   5.051  10.976  1.0429 -0.5003  0.2388
  149MOL0     H19663   0.610   5.207  11.013 -0.4603 -0.2417 -0.2490
  149MOL0     H19664   0.482   5.085  11.204  0.6841  1.0937 -1.3032
  149MOL0     H19665   0.621   4.964  11.209  0.0826 -0.4754 -3.6333
  149MOL0     H19666   0.816   5.243  11.423 -0.1268  2.6386 -1.1842
  149MOL0     H19667   0.861   5.038  10.610  0.9328  0.3398 -3.7921
  149MOL0     H19668   0.868   4.983  10.401  0.8992 -1.3573 -1.9266
  150MOL0     O19669   0.908   7.652  11.083  0.6366 -0.2395  0.5611
  150MOL0     C19670   0.902   7.761  11.134  0.4613  0.0744 -0.6003
  150MOL0     O19671   1.007   7.842  11.156  0.1411  0.4338 -0.7251
  150MOL0     C19672   1.125   7.783  11.111 -0.9097  0.4763  0.8959
  150MOL0     C19673   1.241   7.778  11.200  0.1251  0.4628 -0.4470
  150MOL0     C19674   1.365   7.736  11.151  0.1678 -0.4168 -0.3564
  150MOL0     C19675   1.388   7.699  11.020 -0.0564 -0.4972 -0.4638
  150MOL0     O19676   1.512   7.649  10.997 -0.8351 -0.0873  0.5467
  150MOL0     C19677   1.526   7.619  10.863 -0.0396 -0.1025  0.7502
  150MOL0     C19678   1.674   7.563  10.830  0.3307 -0.5772  0.3743
  150MOL0     C19679   1.785   7.611  10.921  0.5706  0.0249  0.2399
  150MOL0     C19680   1.799   7.765  10.920 -0.1176 -1.0480  0.0664
  150MOL0     C19681   1.928   7.792  10.847  0.4021  0.6956 -0.0541
  150MOL0     C19682   1.960   7.941  10.840 -0.3277  0.5699 -0.1476
  150MOL0     C19683   2.098   7.954  10.801 -0.6408 -0.9069  0.0392
  150MOL0     C19684   2.147   8.101  10.790  0.6355  0.4702  0.1537
  150MOL0     N19685   2.127   8.164  10.661 -0.2946  0.0373  0.5526
  150MOL0     C19686   2.033   8.263  10.631 -0.0953 -0.1962  0.2019
  150MOL0     C19687   2.061   8.281  10.499  0.0994 -0.4505  0.4378
  150MOL0     C19688   1.991   8.388  10.424 -0.0979 -0.4984 -0.0718
  150MOL0     C19689   1.858   8.334  10.368 -0.3619 -0.4759  0.3156
  150MOL0     C19690   1.803   8.460  10.298  0.7826  0.7405 -1.2096
  150MOL0     C19691   1.686   8.429  10.210 -0.3819 -0.2399 -0.1530
  150MOL0     O19692   1.700   8.302  10.140  0.1937 -0.6864 -0.0925
  150MOL0     C19693   1.583   8.228  10.132  0.0052  0.6548  0.0802
  150MOL0     C19694   1.592   8.090  10.148  0.5586  0.1131  0.4139
  150MOL0     C19695   1.484   8.008  10.129  0.2934  0.3623 -0.5255
  150MOL0     C19696   1.352   8.063  10.114  0.6363  0.7172  0.8488
  150MOL0     C19697   1.226   7.978  10.122 -1.1532 -0.0323  0.5578
  150MOL0     O19698   1.114   8.051  10.155 -0.4126 -0.1592  0.1900
  150MOL0     C19699   0.990   7.990  10.148 -0.5472  0.0059  0.2744
  150MOL0     C19700   0.933   7.923  10.035 -0.3486  0.1161  0.2125
  150MOL0     C19701   0.805   7.866  10.041 -0.2620  0.1991 -0.0960
  150MOL0     C19702   0.727   7.871  10.158 -0.0439  0.1239  0.1953
  150MOL0     O19703   0.607   7.819  10.169  1.1566 -0.4012  0.5448
  150MOL0     C19704   0.594   7.687  10.126  0.0356 -0.5994  0.3345
  150MOL0     C19705   0.543   7.596  10.227  0.5215  0.0324 -0.2552
  150MOL0     C19706   0.647   7.576  10.331 -0.7438 -0.1703 -0.2888
  150MOL0     C19707   0.598   7.480  10.441  0.7515  0.1813  0.6733
  150MOL0     C19708   0.699   7.503  10.560  0.0031 -0.1158 -0.5281
  150MOL0     C19709   0.674   7.414  10.688 -0.0603 -0.7107 -0.0275
  150MOL0     C19710   0.779   7.432  10.797  0.0761 -0.5181  0.8949
  150MOL0     C19711   0.756   7.322  10.902 -1.2391 -0.7126  0.6251
  150MOL0    Cl19712   0.591   7.343  10.978 -0.2946  0.5849 -0.5737
  150MOL0     C19713   0.783   7.944  10.260 -0.0182 -0.6628 -0.8174
  150MOL0     C19714   0.911   8.002  10.263  0.7859  0.8442 -0.6581
  150MOL0     O19715   1.236   7.858  10.115  0.3486  0.1579 -0.2079
  150MOL0     C19716   1.341   8.199  10.098  0.7965  0.1660  0.2626
  150MOL0     C19717   1.453   8.283  10.104 -0.1722  0.9682  0.1324
  150MOL0     N19718   2.165   8.205  10.454  0.4538  0.3880 -0.3806
  150MOL0     N19719   2.199   8.137  10.552  0.1247 -0.0978 -0.3013
  150MOL0     C19720   1.276   7.708  10.934  0.6577 -0.4121  0.2002
  150MOL0     C19721   1.148   7.746  10.975 -0.0060 -0.5210  0.2122
  150MOL0     C19722   0.770   7.800  11.196 -0.0049 -0.3932 -0.2602
  150MOL0     C19723   0.665   7.709  11.212  0.0589  0.6763 -0.5357
  150MOL0     C19724   0.533   7.746  11.254 -0.6197 -0.4141  0.3366
  150MOL0     C19725   0.513   7.887  11.271 -0.7266  0.2454 -0.2172
  150MOL0     O19726   0.392   7.948  11.288 -0.3405  0.6908  0.8434
  150MOL0     C19727   0.307   7.899  11.398 -0.0532  1.0360  0.3431
  150MOL0     C19728   0.159   7.895  11.357 -0.9048 -0.2637  0.4176
  150MOL0     C19729   0.145   7.902  11.201 -0.1482  0.8724  0.1140
  150MOL0     C19730  -0.008   7.891  11.172 -1.0314 -0.1793 -0.2789
  150MOL0     C19731  -0.022   7.910  11.028 -0.1338  0.4635  0.4491
  150MOL0     C19732  -0.035   7.942  10.914 -0.7386  0.3945  0.2381
  150MOL0     C19733   0.622   7.973  11.268 -0.6521 -0.1824  0.3846
  150MOL0     C19734   0.749   7.929  11.232  0.6820  0.1899 -0.1398
  150MOL0     H19735   1.214   7.808  11.301 -4.3371  3.1809 -2.1329
  150MOL0     H19736   1.439   7.725  11.230 -0.5768  0.4301  0.4967
  150MOL0     H19737   1.498   7.705  10.803  1.2152 -0.2040 -0.0268
  150MOL0     H19738   1.455   7.540  10.835  0.1311  0.0879 -0.2323
  150MOL0     H19739   1.704   7.594  10.729 -0.0636 -0.3754  0.3176
  150MOL0     H19740   1.663   7.454  10.829  1.5777 -0.7560  1.8815
  150MOL0     H19741   1.881   7.564  10.897  2.3521  4.1962 -1.7896
  150MOL0     H19742   1.763   7.579  11.024  0.0931 -2.5811 -0.5926
  150MOL0     H19743   1.707   7.814  10.887  0.8864  3.1195  2.6691
  150MOL0     H19744   1.800   7.794  11.026 -0.3611 -0.3648 -0.1158
  150MOL0     H19745   1.922   7.761  10.742  2.2136  1.5602 -0.4575
  150MOL0     H19746   2.010   7.743  10.901  2.6088  1.1251 -2.7783
  150MOL0     H19747   1.948   7.983  10.941 -1.1712 -0.5003  0.2209
  150MOL0     H19748   1.890   7.996  10.776 -2.7718 -2.0461  0.0718
  150MOL0     H19749   2.151   7.897  10.879  1.8725  1.1994  0.0111
  150MOL0     H19750   2.116   7.896  10.710  0.2423 -1.0593  0.3040
  150MOL0     H19751   2.252   8.123  10.805  0.5899  3.3036 -2.7149
  150MOL0     H19752   2.099   8.163  10.866  1.9467  1.3659  0.2763
  150MOL0     H19753   1.954   8.314  10.686 -1.1214  0.5875 -1.8902
  150MOL0     H19754   2.061   8.402  10.341 -0.0082 -2.7984 -0.4597
  150MOL0     H19755   1.980   8.480  10.481  1.5656  1.4504 -2.6527
  150MOL0     H19756   1.789   8.308  10.449 -3.1548  2.5519 -0.8493
  150MOL0     H19757   1.883   8.261  10.290  3.6858  0.7316  0.2470
  150MOL0     H19758   1.752   8.529  10.367 -2.2539 -0.8434 -1.7194
  150MOL0     H19759   1.873   8.526  10.246  0.6765  1.3057 -0.6537
  150MOL0     H19760   1.669   8.511  10.140 -1.4736 -2.5040 -2.7386
  150MOL0     H19761   1.597   8.426  10.273  0.2663 -3.6917  0.7754
  150MOL0     H19762   1.678   8.034  10.183  1.3889  1.1731  0.1240
  150MOL0     H19763   1.487   7.901  10.148 -0.2050  0.2413 -1.0752
  150MOL0     H19764   0.999   7.895   9.953 -0.0898  0.0538  0.4424
  150MOL0     H19765   0.780   7.811   9.951 -1.0708 -0.7177  0.6701
  150MOL0     H19766   0.689   7.653  10.085  0.0116 -1.4125  0.9258
  150MOL0     H19767   0.508   7.676  10.059  1.5656 -4.3856 -1.3017
  150MOL0     H19768   0.513   7.500  10.184  1.0005 -0.0642 -0.3692
  150MOL0     H19769   0.457   7.638  10.280  2.4566 -0.9086  4.0606
  150MOL0     H19770   0.669   7.673  10.376 -2.0197  0.3070 -0.6329
  150MOL0     H19771   0.745   7.549  10.290  0.2932  4.8843 -1.8641
  150MOL0     H19772   0.499   7.516  10.472  0.3766  0.9587 -1.2784
  150MOL0     H19773   0.592   7.379  10.399  1.0534  0.1869  0.6142
  150MOL0     H19774   0.677   7.603  10.596 -0.4469 -0.8652  1.4351
  150MOL0     H19775   0.802   7.494  10.524 -0.0243 -1.2346 -0.3850
  150MOL0     H19776   0.669   7.311  10.651  2.2400 -0.8097 -0.1837
  150MOL0     H19777   0.581   7.452  10.730  0.9237 -1.7559  3.4155
  150MOL0     H19778   0.881   7.411  10.763  0.1046  2.2831 -1.1545
  150MOL0     H19779   0.769   7.534  10.837 -1.1483  0.3985 -1.4941
  150MOL0     H19780   0.837   7.327  10.975 -0.1934 -1.2528 -0.4597
  150MOL0     H19781   0.770   7.226  10.853  1.6732 -0.4555  0.8166
  150MOL0     H19782   0.715   7.955  10.344 -1.5521  2.3373 -2.2940
  150MOL0     H19783   0.930   8.055  10.355 -0.0099 -1.5875  1.0046
  150MOL0     H19784   1.243   8.235  10.069  0.2221 -3.8012 -3.7624
  150MOL0     H19785   1.442   8.388  10.082 -0.9134  0.6443 -1.2288
  150MOL0     H19786   1.292   7.698  10.827  0.9882  2.7022 -0.1408
  150MOL0     H19787   1.065   7.763  10.908 -0.1309  2.3081  0.9459
  150MOL0     H19788   0.677   7.601  11.204  0.1932  0.5954  0.5820
  150MOL0     H19789   0.454   7.671  11.257  0.2741 -1.3726  0.3690
  150MOL0     H19790   0.306   7.979  11.472 -3.2152  2.0070 -0.6036
  150MOL0     H19791   0.351   7.811  11.446  0.8070 -0.0098 -2.2035
  150MOL0     H19792   0.111   7.801  11.386 -0.6331 -0.7631 -0.6604
  150MOL0     H19793   0.119   7.982  11.409 -0.1542 -0.2827  1.0463
  150MOL0     H19794   0.204   7.823  11.153  4.4950  2.5799  2.4173
  150MOL0     H19795   0.186   7.997  11.164 -0.0802  1.9006  2.6712
  150MOL0     H19796  -0.054   7.804  11.220 -0.0351  0.5282  2.0725
  150MOL0     H19797  -0.059   7.974  11.220  1.5161  3.0050 -2.5981
  150MOL0     H19798  -0.046   7.972  10.812 -0.6703  0.1718  0.1652
  150MOL0     H19799   0.619   8.081  11.282 -0.0579  0.2007 -2.0967
  150MOL0     H19800   0.827   8.003  11.218  0.3905  0.4971 -0.1676
  151MOL0     O19801   4.592   8.012   9.545  0.5767  0.2547  0.7980
  151MOL0     C19802   4.502   7.926   9.540 -0.1729  0.6851  0.4590
  151MOL0     O19803   4.531   7.792   9.506  0.2351 -0.9639  0.2398
  151MOL0     C19804   4.663   7.752   9.491  0.4762  0.2670 -0.8672
  151MOL0     C19805   4.780   7.807   9.554  0.8424  0.6264 -0.5185
  151MOL0     C19806   4.900   7.773   9.504 -1.0587  0.3914  0.6097
  151MOL0     C19807   4.917   7.674   9.410  0.6235  0.5246  0.1683
  151MOL0     O19808   5.048   7.658   9.364  0.3888  0.4257 -0.0738
  151MOL0     C19809   5.090   7.549   9.280 -0.0798  0.4200 -0.0614
  151MOL0     C19810   5.165   7.596   9.157 -1.2860  0.7215  0.5879
  151MOL0     C19811   5.304   7.643   9.177  0.4867  0.3296 -0.2333
  151MOL0     C19812   5.390   7.528   9.217  0.6624  0.5861 -0.8968
  151MOL0     C19813   5.527   7.558   9.231  0.5356 -0.8006  0.4369
  151MOL0     C19814   5.616   7.442   9.266  0.7062 -0.1411 -0.1891
  151MOL0     C19815   5.759   7.497   9.263 -0.3051 -0.3825  1.1889
  151MOL0     C19816   5.869   7.386   9.282  0.4851 -0.2014  0.6883
  151MOL0     N19817   6.006   7.427   9.235  0.8625 -0.4842  0.5220
  151MOL0     C19818   6.119   7.414   9.310 -1.0380  0.6124  0.2034
  151MOL0     C19819   6.223   7.443   9.228  0.7494  0.3010  0.6476
  151MOL0     C19820   6.373   7.437   9.259  0.4164  0.0281  0.4282
  151MOL0     C19821   6.413   7.572   9.334  0.2791 -0.2746  0.0865
  151MOL0     C19822   6.396   7.585   9.485 -0.0774  0.4326 -0.6410
  151MOL0     C19823   6.407   7.728   9.527  0.0607 -0.1364  0.8161
  151MOL0     O19824   6.360   7.750   9.664  0.0052  0.3845 -0.1683
  151MOL0     C19825   6.233   7.735   9.699  1.1016 -0.2005  0.1843
  151MOL0     C19826   6.130   7.741   9.595 -0.6093 -0.5840  0.0552
  151MOL0     C19827   6.001   7.727   9.626  0.0148  0.5516 -0.1601
  151MOL0     C19828   5.959   7.704   9.756  0.7811  0.2792  0.0226
  151MOL0     C19829   5.820   7.671   9.797 -0.2030 -0.5970  0.2786
  151MOL0     O19830   5.741   7.648   9.699  0.3091  0.0959  0.5061
  151MOL0     C19831   5.613   7.595   9.710  1.6319 -0.7458 -0.0166
  151MOL0     C19832   5.581   7.485   9.793  0.8111 -0.5533 -0.2427
  151MOL0     C19833   5.446   7.442   9.796  0.1501 -0.2043 -1.4467
  151MOL0     C19834   5.348   7.493   9.711 -0.5781  0.1401 -0.2487
  151MOL0     O19835   5.224   7.438   9.725 -0.5252  0.4130 -0.0748
  151MOL0     C19836   5.105   7.500   9.681  0.5596  0.2070 -0.2419
  151MOL0     C19837   4.988   7.431   9.760 -0.3692 -0.2732  0.3329
  151MOL0     C19838   4.865   7.502   9.711  0.3911 -0.1184  0.4622
  151MOL0     C19839   4.731   7.461   9.787  0.1079  0.3040 -0.2106
  151MOL0     C19840   4.616   7.570   9.766 -0.1215 -0.2439 -0.0931
  151MOL0     C19841   4.485   7.533   9.832  1.0715 -0.1944 -0.2759
  151MOL0     C19842   4.407   7.417   9.777 -0.4047  0.3945 -0.3135
  151MOL0     C19843   4.333   7.436   9.641 -0.1825  0.0312  0.3005
  151MOL0    Cl19844   4.183   7.542   9.660  0.1921 -0.4238 -0.3431
  151MOL0     C19845   5.382   7.599   9.624 -0.5811  0.4758 -0.2396
  151MOL0     C19846   5.514   7.653   9.623  0.4241  0.4294 -0.1677
  151MOL0     O19847   5.786   7.661   9.911 -0.0651 -0.4436  0.7948
  151MOL0     C19848   6.050   7.710   9.854 -0.4823 -0.3466  0.7620
  151MOL0     C19849   6.190   7.724   9.832  0.0574  0.1361  0.2003
  151MOL0     N19850   6.170   7.477   9.105  0.7529  1.3991 -0.4460
  151MOL0     N19851   6.046   7.447   9.109  0.8268 -0.3127  0.2190
  151MOL0     C19852   4.805   7.606   9.356 -0.4346  0.1769  0.1642
  151MOL0     C19853   4.677   7.646   9.401  0.3448  0.3037  0.1308
  151MOL0     C19854   4.359   7.953   9.567 -1.0786  0.3061  0.0574
  151MOL0     C19855   4.268   7.848   9.560  0.2635  0.5342 -0.2106
  151MOL0     C19856   4.131   7.862   9.549 -0.6011 -0.8354  1.4246
  151MOL0     C19857   4.074   7.986   9.558 -0.0428  0.1745  0.8538
  151MOL0     O19858   3.941   8.000   9.533  0.5370  0.1101 -0.2183
  151MOL0     C19859   3.878   8.128   9.569  0.5563 -0.5854 -0.4953
  151MOL0     C19860   3.866   8.221   9.453  0.6307 -0.4615  0.1086
  151MOL0     C19861   3.796   8.353   9.486 -0.6101 -0.3118 -0.0293
  151MOL0     C19862   3.801   8.455   9.372  0.0168 -0.7908  0.3739
  151MOL0     C19863   3.937   8.481   9.325  0.4267  0.1057 -0.2906
  151MOL0     C19864   4.042   8.471   9.282 -0.9067  0.1124  0.0292
  151MOL0     C19865   4.169   8.094   9.580  0.7335 -0.4382  0.2257
  151MOL0     C19866   4.305   8.079   9.594 -0.3912  0.2018  0.3321
  151MOL0     H19867   4.782   7.889   9.625  0.7166 -0.9998  1.4633
  151MOL0     H19868   4.985   7.832   9.538 -2.0894  0.6575  2.8878
  151MOL0     H19869   5.010   7.481   9.248 -0.3510  0.1929  1.0313
  151MOL0     H19870   5.155   7.490   9.346  1.2187  1.7508 -0.1181
  151MOL0     H19871   5.107   7.673   9.106 -0.7634 -0.5052 -2.0467
  151MOL0     H19872   5.174   7.517   9.082  2.7067 -0.2843  1.8944
  151MOL0     H19873   5.312   7.731   9.241 -1.1172  1.7319 -1.8407
  151MOL0     H19874   5.333   7.680   9.078  1.6378 -1.2348 -0.5356
  151MOL0     H19875   5.365   7.496   9.318 -2.1923 -1.4645 -2.1251
  151MOL0     H19876   5.373   7.440   9.154 -1.4818  1.6961 -1.9621
  151MOL0     H19877   5.526   7.640   9.303 -0.7910 -0.0491 -0.3855
  151MOL0     H19878   5.570   7.587   9.135  1.1208  0.6815  1.1196
  151MOL0     H19879   5.608   7.379   9.176 -0.6042  1.2693 -1.1209
  151MOL0     H19880   5.586   7.394   9.360  0.3997 -1.7032 -1.0504
  151MOL0     H19881   5.792   7.543   9.169  2.9582  0.6873  2.7079
  151MOL0     H19882   5.778   7.562   9.349  1.5034  1.8077 -0.7250
  151MOL0     H19883   5.832   7.292   9.239 -1.0333  1.0394 -0.8740
  151MOL0     H19884   5.883   7.366   9.388 -0.0014 -1.0713  0.5928
  151MOL0     H19885   6.119   7.390   9.415 -3.5151 -2.3493 -0.3484
  151MOL0     H19886   6.444   7.430   9.176 -1.5271  1.9860 -1.5294
  151MOL0     H19887   6.393   7.351   9.325  0.2380  0.4716  1.0724
  151MOL0     H19888   6.353   7.654   9.294  2.2743  0.4897 -1.4939
  151MOL0     H19889   6.515   7.602   9.308  1.5691 -2.2771  2.3887
  151MOL0     H19890   6.296   7.547   9.510  1.4170 -1.2385  3.9508
  151MOL0     H19891   6.469   7.527   9.542 -0.8150  2.5277  2.6874
  151MOL0     H19892   6.354   7.798   9.462 -2.0139 -0.8666  1.6503
  151MOL0     H19893   6.513   7.755   9.522 -0.3995  1.6764  0.0953
  151MOL0     H19894   6.165   7.754   9.493  0.0666  0.6870  0.4266
  151MOL0     H19895   5.926   7.730   9.548 -1.6353  0.9432  1.3576
  151MOL0     H19896   5.655   7.449   9.864  0.1722 -0.2250  0.6129
  151MOL0     H19897   5.419   7.361   9.863  2.9670 -0.0209  0.0609
  151MOL0     H19898   5.089   7.465   9.579  1.6086 -1.3637  0.1039
  151MOL0     H19899   5.107   7.609   9.689  1.2234  0.1372  0.9704
  151MOL0     H19900   5.013   7.457   9.863  0.3633 -0.4871  0.2163
  151MOL0     H19901   4.978   7.323   9.755 -1.4327 -0.1354 -1.6705
  151MOL0     H19902   4.846   7.486   9.604 -2.4712  1.3005  0.6905
  151MOL0     H19903   4.877   7.609   9.728  0.7617 -0.4601  2.5788
  151MOL0     H19904   4.706   7.358   9.758  0.6773  0.5529 -1.6701
  151MOL0     H19905   4.745   7.454   9.895  2.8748  1.3042 -0.4420
  151MOL0     H19906   4.595   7.573   9.659 -4.4019 -1.6338  0.5358
  151MOL0     H19907   4.660   7.663   9.805 -1.4243  0.1448  0.4871
  151MOL0     H19908   4.425   7.625   9.830  1.1832  0.1451  3.8160
  151MOL0     H19909   4.502   7.516   9.939  3.0381  1.1686 -0.3063
  151MOL0     H19910   4.484   7.340   9.767  1.0492  1.6521  0.6680
  151MOL0     H19911   4.325   7.395   9.847 -0.2557  1.0787  0.0811
  151MOL0     H19912   4.301   7.336   9.611  0.0739 -0.5760  1.9183
  151MOL0     H19913   4.391   7.473   9.557 -2.0731 -0.1369 -1.1422
  151MOL0     H19914   5.327   7.660   9.554  0.6650  4.4600  1.9340
  151MOL0     H19915   5.529   7.738   9.557  1.2543 -1.6703 -2.8190
  151MOL0     H19916   6.007   7.719   9.954  0.3799  1.6754  1.0087
  151MOL0     H19917   6.262   7.744   9.912 -1.3937 -2.7396  2.4277
  151MOL0     H19918   4.813   7.535   9.274  1.6293  0.6005 -0.0594
  151MOL0     H19919   4.588   7.611   9.349  1.1358 -2.3983  0.4371
  151MOL0     H19920   4.304   7.746   9.548  2.5567  1.3294 -0.5404
  151MOL0     H19921   4.067   7.777   9.526  0.7435 -1.5515  0.1540
  151MOL0     H19922   3.921   8.182   9.654 -0.9819 -1.9079  1.2170
  151MOL0     H19923   3.773   8.110   9.597  0.4758  0.5980  0.0234
  151MOL0     H19924   3.971   8.229   9.424  1.0067  1.1612  1.7476
  151MOL0     H19925   3.814   8.170   9.371  1.1727 -0.5843 -0.1659
  151MOL0     H19926   3.843   8.396   9.575 -3.7776  0.5243  1.3820
  151MOL0     H19927   3.695   8.340   9.524 -0.4298  0.2263  0.6584
  151MOL0     H19928   3.741   8.418   9.289 -1.5752  0.6599  0.8147
  151MOL0     H19929   3.755   8.549   9.404 -0.7026 -0.1780 -2.1900
  151MOL0     H19930   4.148   8.469   9.266 -0.8143  1.2028  0.3838
  151MOL0     H19931   4.126   8.193   9.591  0.7240 -0.5136  0.9151
  151MOL0     H19932   4.373   8.159   9.623  2.5813 -2.5387  1.5837
  152MOL0     O19933   1.701   7.717   3.937 -0.7162 -0.8441  0.3645
  152MOL0     C19934   1.711   7.769   4.046 -0.8381 -0.2321  0.2030
  152MOL0     O19935   1.820   7.829   4.098  0.4647 -0.4447 -0.3725
  152MOL0     C19936   1.936   7.863   4.027 -0.6118  0.2482  0.0566
  152MOL0     C19937   2.013   7.972   4.078 -0.7288 -0.0994 -0.1451
  152MOL0     C19938   2.125   8.017   4.005 -0.5175  0.1783  0.1290
  152MOL0     C19939   2.153   7.959   3.878 -0.3307  0.3553  0.4778
  152MOL0     O19940   2.263   7.981   3.799  0.1320  0.1401 -0.1006
  152MOL0     C19941   2.355   8.081   3.829 -0.3999 -0.9158 -0.2057
  152MOL0     C19942   2.433   8.115   3.706  0.2248 -1.1476 -0.4931
  152MOL0     C19943   2.522   8.240   3.703  0.3763  0.6405 -0.8733
  152MOL0     C19944   2.590   8.254   3.561 -0.1383 -0.2306 -0.2200
  152MOL0     C19945   2.699   8.366   3.572 -0.0738  0.5466 -0.5077
  152MOL0     C19946   2.675   8.457   3.450  0.0156 -0.5608 -0.4377
  152MOL0     C19947   2.807   8.516   3.398 -1.0038  0.5679 -1.3896
  152MOL0     C19948   2.838   8.656   3.465 -0.3007 -0.0039  0.1027
  152MOL0     N19949   2.860   8.638   3.612  0.8483  0.9017  0.1164
  152MOL0     C19950   2.770   8.680   3.706  1.1943 -0.6239 -0.7185
  152MOL0     C19951   2.826   8.648   3.829 -0.0091 -0.2390 -0.2168
  152MOL0     C19952   2.779   8.664   3.973 -0.5795  0.2540 -0.3012
  152MOL0     C19953   2.657   8.573   3.996 -0.5157 -0.1775 -0.4775
  152MOL0     C19954   2.569   8.625   4.105  0.8429  0.7738  0.4658
  152MOL0     C19955   2.472   8.527   4.167  0.3703 -0.2818 -0.2587
  152MOL0     O19956   2.425   8.430   4.071 -0.1304 -0.0644  0.0907
  152MOL0     C19957   2.291   8.418   4.089  0.2693 -0.1513  0.0943
  152MOL0     C19958   2.247   8.358   4.204 -0.9020  0.0705 -0.6247
  152MOL0     C19959   2.116   8.332   4.225  0.1557  0.3014  0.3451
  152MOL0     C19960   2.011   8.365   4.135 -0.1455 -0.0753 -0.0115
  152MOL0     C19961   1.868   8.332   4.162  0.2346  0.6370 -0.3608
  152MOL0     O19962   1.778   8.390   4.077  0.7038 -0.0601 -0.1113
  152MOL0     C19963   1.646   8.353   4.097 -0.8273 -1.2086 -0.3829
  152MOL0     C19964   1.612   8.216   4.079 -0.0397 -0.3435  0.3358
  152MOL0     C19965   1.482   8.174   4.071 -0.2524  0.0450  0.0689
  152MOL0     C19966   1.375   8.263   4.102 -0.2229 -0.8521  0.9026
  152MOL0     O19967   1.244   8.228   4.116 -0.1343 -1.1195 -0.2237
  152MOL0     C19968   1.226   8.108   4.194  0.1634 -0.1339 -0.4847
  152MOL0     C19969   1.083   8.098   4.239  0.3682 -0.1538  0.0091
  152MOL0     C19970   0.973   8.061   4.144 -0.6279  0.0051 -0.9298
  152MOL0     C19971   0.844   8.069   4.219  0.0592 -0.0624  0.3819
  152MOL0     C19972   0.738   8.013   4.128 -0.3795  1.2951  0.1507
  152MOL0     C19973   0.590   8.041   4.172  0.1954  0.1083  0.1404
  152MOL0     C19974   0.543   8.170   4.124 -0.3467 -0.9301 -0.6330
  152MOL0     C19975   0.402   8.197   4.180  0.5785 -0.5441 -0.7537
  152MOL0    Cl19976   0.263   8.102   4.096 -0.0421  0.1428  0.1804
  152MOL0     C19977   1.404   8.399   4.128 -0.0958  0.6593  0.0947
  152MOL0     C19978   1.539   8.449   4.122 -0.9658  0.2576  0.0748
  152MOL0     O19979   1.840   8.265   4.262 -0.1990 -0.2392  0.1578
  152MOL0     C19980   2.050   8.431   4.019  0.4468 -0.0099  0.9359
  152MOL0     C19981   2.195   8.465   3.995 -0.3275 -0.6713 -0.9771
  152MOL0     N19982   2.949   8.591   3.791 -0.7287  0.6367 -0.5545
  152MOL0     N19983   2.972   8.583   3.667 -0.1348  0.8945  0.3089
  152MOL0     C19984   2.081   7.846   3.835 -0.0718 -0.3410 -1.1573
  152MOL0     C19985   1.982   7.795   3.907 -0.3936 -0.2099 -0.5886
  152MOL0     C19986   1.589   7.771   4.137 -0.6432 -0.2944  0.6090
  152MOL0     C19987   1.598   7.814   4.266  0.1004 -0.0709 -0.4328
  152MOL0     C19988   1.482   7.823   4.357 -0.9573  0.2340  0.8406
  152MOL0     C19989   1.355   7.783   4.305  0.0583 -1.0515 -0.2332
  152MOL0     O19990   1.237   7.790   4.371 -0.2499  0.6425 -0.5435
  152MOL0     C19991   1.239   7.818   4.510 -1.3755 -0.1456  0.3526
  152MOL0     C19992   1.168   7.705   4.575  0.1237  0.6943  0.3287
  152MOL0     C19993   1.219   7.562   4.540 -0.2700 -0.1200  0.1652
  152MOL0     C19994   1.218   7.467   4.662  0.9022 -0.3807  0.5083
  152MOL0     C19995   1.267   7.339   4.621 -0.8888 -1.1459  1.4613
  152MOL0     C19996   1.318   7.237   4.594 -1.2094 -0.7280  0.7347
  152MOL0     C19997   1.346   7.751   4.178 -0.1812 -0.8395  0.5367
  152MOL0     C19998   1.459   7.736   4.089 -0.2580 -0.1017 -0.3935
  152MOL0     H19999   1.989   8.018   4.173  0.2787  1.6228 -0.6798
  152MOL0     H20000   2.202   8.079   4.051  1.4997 -2.5046  0.6069
  152MOL0     H20001   2.431   8.046   3.900  0.7355  0.3183 -0.7726
  152MOL0     H20002   2.311   8.169   3.877  0.7607 -1.4711  2.0223
  152MOL0     H20003   2.364   8.134   3.624  2.9471  2.8193 -2.1778
  152MOL0     H20004   2.502   8.035   3.678 -1.2430 -2.3349 -0.8560
  152MOL0     H20005   2.585   8.235   3.792 -0.5978  0.9161 -0.1519
  152MOL0     H20006   2.454   8.321   3.731  0.5554  1.0926 -1.7080
  152MOL0     H20007   2.632   8.158   3.529 -2.5208 -1.7946  1.0306
  152MOL0     H20008   2.507   8.267   3.491  0.0058  1.2634 -0.1434
  152MOL0     H20009   2.798   8.320   3.576 -0.9650 -1.6001 -1.7972
  152MOL0     H20010   2.697   8.420   3.668 -0.4755 -1.9237  0.9625
  152MOL0     H20011   2.612   8.539   3.489 -2.0270 -2.9425  1.6461
  152MOL0     H20012   2.626   8.401   3.370 -0.8413  0.6358 -0.7998
  152MOL0     H20013   2.891   8.449   3.419 -2.0114  0.4897  3.6322
  152MOL0     H20014   2.801   8.529   3.289  0.4933 -2.0886 -1.8802
  152MOL0     H20015   2.745   8.711   3.447 -0.3882 -0.8380 -2.4662
  152MOL0     H20016   2.923   8.713   3.427 -1.9489  3.1506  0.8245
  152MOL0     H20017   2.677   8.734   3.686  0.1173 -1.1207  2.4406
  152MOL0     H20018   2.755   8.768   3.997  0.0436  0.8860 -2.1792
  152MOL0     H20019   2.849   8.631   4.050  1.0227  2.4948 -0.7056
  152MOL0     H20020   2.700   8.474   4.014  0.4413 -0.3213 -3.0235
  152MOL0     H20021   2.602   8.562   3.902  0.7097 -2.3770 -1.0217
  152MOL0     H20022   2.622   8.677   4.185 -0.8104  1.3475  1.2283
  152MOL0     H20023   2.511   8.699   4.049  1.2760 -1.2883 -3.0154
  152MOL0     H20024   2.399   8.589   4.220  1.4235  0.1498  0.7498
  152MOL0     H20025   2.528   8.479   4.248  0.9658 -0.3321 -0.6965
  152MOL0     H20026   2.319   8.314   4.272 -0.6816 -2.1950 -2.2228
  152MOL0     H20027   2.094   8.276   4.316  1.8135 -2.4084 -0.7812
  152MOL0     H20028   1.685   8.145   4.043  1.0707  0.9256  0.0056
  152MOL0     H20029   1.453   8.072   4.046 -0.5756 -0.4490  2.2857
  152MOL0     H20030   1.290   8.118   4.282  1.1575  0.4957 -1.2563
  152MOL0     H20031   1.259   8.024   4.133 -0.3874  0.9155 -2.3026
  152MOL0     H20032   1.072   8.199   4.279  0.5893 -0.2981  0.4320
  152MOL0     H20033   1.073   8.026   4.320  0.6910  1.5304  1.6029
  152MOL0     H20034   0.992   7.960   4.107  2.3880  0.0888  0.1647
  152MOL0     H20035   0.979   8.126   4.057  1.5743 -3.1014 -3.3272
  152MOL0     H20036   0.853   8.007   4.309  1.7636 -3.6498 -2.0320
  152MOL0     H20037   0.830   8.176   4.240  2.5576  0.3096  0.5473
  152MOL0     H20038   0.750   7.905   4.115  1.9214  1.2422  2.1532
  152MOL0     H20039   0.755   8.062   4.031  0.2632  0.9921  0.1062
  152MOL0     H20040   0.577   8.041   4.281 -1.4516  0.5074 -0.0318
  152MOL0     H20041   0.523   7.957   4.149 -1.1533  0.6809  1.7820
  152MOL0     H20042   0.615   8.244   4.159 -2.0026  0.0133  0.9560
  152MOL0     H20043   0.541   8.167   4.015 -0.1728  0.0162 -0.6687
  152MOL0     H20044   0.377   8.303   4.171 -0.8833 -0.7330  0.7434
  152MOL0     H20045   0.410   8.181   4.288 -2.0972 -0.2762 -0.4568
  152MOL0     H20046   1.323   8.470   4.140  1.1086  2.2408 -0.7373
  152MOL0     H20047   1.566   8.553   4.136  1.2501 -0.3889  0.9960
  152MOL0     H20048   1.978   8.475   3.952  0.9334 -0.0443  0.3804
  152MOL0     H20049   2.224   8.527   3.911  2.5752 -2.3491 -1.3530
  152MOL0     H20050   2.115   7.792   3.747 -1.4703 -1.1648 -1.2264
  152MOL0     H20051   1.945   7.698   3.876  0.0802 -1.1372  1.5446
  152MOL0     H20052   1.691   7.854   4.304  0.0816 -0.5419  0.1160
  152MOL0     H20053   1.496   7.874   4.452 -3.4602 -0.4857  1.6780
  152MOL0     H20054   1.197   7.917   4.527  0.6861  0.4082  2.9887
  152MOL0     H20055   1.343   7.831   4.542 -0.0866 -1.1116 -2.9293
  152MOL0     H20056   1.171   7.717   4.684 -1.7140  0.7586  0.3897
  152MOL0     H20057   1.063   7.711   4.546  0.0467  0.7011  0.6093
  152MOL0     H20058   1.318   7.563   4.495 -0.1053 -0.9753  0.4867
  152MOL0     H20059   1.145   7.517   4.473  1.8419 -1.3462 -1.4646
  152MOL0     H20060   1.269   7.511   4.749 -0.1833 -0.2561  1.1073
  152MOL0     H20061   1.120   7.445   4.706  1.5945 -2.5752  1.1077
  152MOL0     H20062   1.367   7.144   4.570  0.7913  0.3210  0.5109
  152MOL0     H20063   1.252   7.713   4.139 -0.3184 -0.5308  0.5605
  152MOL0     H20064   1.449   7.684   3.994  0.0697 -1.7519  0.4359
  153MOL0     O20065   2.688   6.239   9.258  0.2946 -0.3266 -0.3302
  153MOL0     C20066   2.697   6.335   9.339 -1.0726  0.4585 -0.1394
  153MOL0     O20067   2.595   6.406   9.369 -0.1326  0.2784  0.0361
  153MOL0     C20068   2.466   6.378   9.327  0.5538  0.3859 -0.0384
  153MOL0     C20069   2.437   6.362   9.187 -0.2911 -1.0265  0.5201
  153MOL0     C20070   2.299   6.329   9.153 -0.6394  0.3174  0.7619
  153MOL0     C20071   2.198   6.318   9.245  0.4227 -0.0795  0.4219
  153MOL0     O20072   2.065   6.300   9.201  0.4666  0.4259 -0.0499
  153MOL0     C20073   1.991   6.421   9.230  0.6551  0.7682 -0.0569
  153MOL0     C20074   1.851   6.426   9.158 -0.2982  0.7861  0.2540
  153MOL0     C20075   1.758   6.539   9.196 -0.3780 -0.6139  0.4036
  153MOL0     C20076   1.639   6.536   9.100 -0.6573 -0.4321 -1.0123
  153MOL0     C20077   1.527   6.630   9.159  0.5933 -0.2888  0.2481
  153MOL0     C20078   1.560   6.780   9.145 -0.5781 -0.5067  0.2145
  153MOL0     C20079   1.438   6.871   9.126 -1.1879 -0.0535  0.0655
  153MOL0     C20080   1.371   6.876   9.257  0.1192  0.0659 -0.1523
  153MOL0     N20081   1.264   6.977   9.261 -0.6897  0.3611 -0.2485
  153MOL0     C20082   1.275   7.108   9.261 -1.0312  0.1555  0.0099
  153MOL0     C20083   1.151   7.159   9.259 -0.9602  0.1885  0.3581
  153MOL0     C20084   1.125   7.308   9.264 -0.1959 -0.3412  0.2061
  153MOL0     C20085   1.059   7.336   9.404 -0.0148 -0.2949 -0.3129
  153MOL0     C20086   1.144   7.427   9.497 -0.2210 -0.1108  0.1769
  153MOL0     C20087   1.057   7.498   9.608 -0.3258 -0.0590  0.4008
  153MOL0     O20088   1.128   7.581   9.697 -0.1694  0.2095 -0.4897
  153MOL0     C20089   1.205   7.520   9.797  1.0144 -0.3143 -0.2465
  153MOL0     C20090   1.287   7.605   9.872 -0.5225 -0.3021 -0.1100
  153MOL0     C20091   1.378   7.551   9.968 -0.6386  0.7726 -0.6794
  153MOL0     C20092   1.384   7.414   9.985  0.0384  0.1796  0.7721
  153MOL0     C20093   1.464   7.352  10.087 -0.5830  0.1430  0.0083
  153MOL0     O20094   1.520   7.446  10.180 -0.7568  0.4395 -0.9521
  153MOL0     C20095   1.595   7.400  10.284 -0.5661  0.3735 -0.0415
  153MOL0     C20096   1.727   7.344  10.267  0.1356 -0.2559 -0.6448
  153MOL0     C20097   1.794   7.295  10.383 -0.2503  0.2943  0.3440
  153MOL0     C20098   1.738   7.311  10.511 -0.6789  0.1903  0.2987
  153MOL0     O20099   1.808   7.281  10.629  0.0967 -0.8474  0.9454
  153MOL0     C20100   1.862   7.149  10.631 -0.5121  0.0402  0.1912
  153MOL0     C20101   1.943   7.125  10.761  0.9033  0.0046  1.8529
  153MOL0     C20102   1.860   7.126  10.894 -0.1614  0.0943 -0.1698
  153MOL0     C20103   1.743   7.024  10.899 -1.1430  0.1649 -0.2587
  153MOL0     C20104   1.626   7.070  10.981 -0.1473  0.2807  0.3512
  153MOL0     C20105   1.520   6.970  10.987 -0.0424  0.1055 -0.1691
  153MOL0     C20106   1.419   6.999  11.087 -0.1940  0.3054  0.1517
  153MOL0     C20107   1.296   6.911  11.062  0.4286  0.9721  0.6696
  153MOL0    Cl20108   1.194   6.912  11.195  0.2120  0.2580  0.1783
  153MOL0     C20109   1.613   7.361  10.527  0.4450  0.0338 -0.1621
  153MOL0     C20110   1.544   7.399  10.414  0.2215  1.0994 -0.2018
  153MOL0     O20111   1.475   7.227  10.088  1.0416 -1.1439 -0.5217
  153MOL0     C20112   1.297   7.333   9.909 -0.6416  0.2788 -0.8476
  153MOL0     C20113   1.206   7.383   9.824 -0.6966  0.3848  0.6927
  153MOL0     N20114   1.060   7.058   9.264 -0.5428  0.1653  0.3801
  153MOL0     N20115   1.131   6.948   9.259  0.4596  0.0698 -0.1917
  153MOL0     C20116   2.234   6.338   9.383  0.6474  0.3796  0.1014
  153MOL0     C20117   2.362   6.371   9.421 -0.2479 -0.3282 -0.3703
  153MOL0     C20118   2.830   6.374   9.394  0.8488  0.1305 -0.2910
  153MOL0     C20119   2.948   6.309   9.363  0.1735  0.7646 -0.5388
  153MOL0     C20120   3.072   6.350   9.417 -0.4158 -0.4985 -0.4252
  153MOL0     C20121   3.078   6.458   9.510 -0.2530 -0.8769 -0.1909
  153MOL0     O20122   3.198   6.517   9.565 -0.1699  0.6879 -0.1072
  153MOL0     C20123   3.323   6.479   9.500  0.3031  0.8885 -0.0412
  153MOL0     C20124   3.340   6.550   9.356 -0.1927  0.5855 -0.3142
  153MOL0     C20125   3.396   6.471   9.241 -0.7596  0.8245  0.0141
  153MOL0     C20126   3.527   6.393   9.269 -0.0692 -0.0974  0.5694
  153MOL0     C20127   3.640   6.463   9.334  0.2874  0.5046 -0.2686
  153MOL0     C20128   3.738   6.510   9.389  0.0265 -1.3744  0.2785
  153MOL0     C20129   2.961   6.506   9.554 -0.0607  0.6452  0.0245
  153MOL0     C20130   2.840   6.478   9.493  0.4565  0.9920  0.8372
  153MOL0     H20131   2.509   6.378   9.107 -1.2414  0.3674 -0.0900
  153MOL0     H20132   2.271   6.315   9.049  0.0269 -1.9705  0.8357
  153MOL0     H20133   2.048   6.504   9.186  2.1697 -1.5037 -2.7563
  153MOL0     H20134   1.977   6.441   9.336 -1.9668 -0.2975 -0.1225
  153MOL0     H20135   1.805   6.334   9.195 -3.8767 -0.2471 -5.4667
  153MOL0     H20136   1.869   6.412   9.051  0.0323 -0.7168  0.4717
  153MOL0     H20137   1.807   6.636   9.185 -0.9391 -0.5196 -1.6523
  153MOL0     H20138   1.726   6.514   9.298  1.5166 -0.3403  1.1005
  153MOL0     H20139   1.650   6.570   8.997 -1.6893 -0.4209 -1.1317
  153MOL0     H20140   1.591   6.437   9.106 -0.8585 -0.2561  1.4756
  153MOL0     H20141   1.507   6.603   9.263 -2.3107  2.6778  0.6419
  153MOL0     H20142   1.441   6.602   9.098  1.2443  1.2395 -1.4641
  153MOL0     H20143   1.620   6.794   9.055  3.3971  0.1643  2.6893
  153MOL0     H20144   1.625   6.819   9.225 -1.9182  2.7976 -0.1616
  153MOL0     H20145   1.479   6.970   9.102  3.4944 -1.2885  1.9258
  153MOL0     H20146   1.371   6.832   9.049 -0.5832  1.6255 -1.3871
  153MOL0     H20147   1.435   6.901   9.342 -1.6289  2.2431  0.6348
  153MOL0     H20148   1.326   6.777   9.273 -2.0300  0.9249 -0.5168
  153MOL0     H20149   1.369   7.162   9.256 -1.1805  0.5118  0.9253
  153MOL0     H20150   1.056   7.342   9.186 -2.3738 -0.5163  1.9716
  153MOL0     H20151   1.212   7.373   9.250 -1.0495  0.8242  0.2081
  153MOL0     H20152   1.042   7.238   9.449 -1.6841 -0.4405 -1.1784
  153MOL0     H20153   0.955   7.370   9.395  0.0779  0.7165  1.8323
  153MOL0     H20154   1.227   7.372   9.542 -2.3931 -1.8749  2.2793
  153MOL0     H20155   1.189   7.510   9.441 -1.8458  0.8119  0.1899
  153MOL0     H20156   0.999   7.420   9.659 -2.3761 -1.7131 -3.8975
  153MOL0     H20157   0.983   7.557   9.552  1.3476  2.1268  0.3760
  153MOL0     H20158   1.274   7.712   9.862 -0.9491 -0.3094  0.3392
  153MOL0     H20159   1.436   7.631  10.014  0.2603  0.3908 -1.1355
  153MOL0     H20160   1.755   7.329  10.164 -2.2707  2.4731 -1.8274
  153MOL0     H20161   1.891   7.250  10.367 -0.7332 -0.6205 -0.1096
  153MOL0     H20162   1.938   7.128  10.556 -0.1759  1.3096  0.1681
  153MOL0     H20163   1.787   7.069  10.622 -0.0808 -0.1127 -3.4673
  153MOL0     H20164   2.019   7.203  10.770  1.6466 -0.1857 -1.3951
  153MOL0     H20165   1.991   7.026  10.759  1.0984 -0.0232  4.2936
  153MOL0     H20166   1.817   7.227  10.890  0.6806  0.5013  0.4755
  153MOL0     H20167   1.933   7.127  10.976  2.0967  1.2254 -2.0839
  153MOL0     H20168   1.707   7.001  10.798  2.3809  0.5222 -1.7295
  153MOL0     H20169   1.788   6.937  10.947  0.5392 -0.1918 -2.3432
  153MOL0     H20170   1.580   7.162  10.946 -1.2406 -0.1432  0.6362
  153MOL0     H20171   1.660   7.085  11.084  0.6382  1.2458 -0.0375
  153MOL0     H20172   1.558   6.871  11.011 -3.3185 -1.2568 -0.0314
  153MOL0     H20173   1.476   6.960  10.888  0.5655  3.3242 -0.8828
  153MOL0     H20174   1.463   6.970  11.183 -0.4990  1.0108  0.5133
  153MOL0     H20175   1.394   7.105  11.093  2.0914  1.1482 -2.7828
  153MOL0     H20176   1.343   6.814  11.040  2.6204  1.6892  1.8416
  153MOL0     H20177   1.251   6.950  10.970  0.9472  1.7797  0.7426
  153MOL0     H20178   1.576   7.364  10.628 -2.1006 -1.0032 -0.9968
  153MOL0     H20179   1.443   7.438  10.422 -0.6783 -0.8940 -1.2322
  153MOL0     H20180   1.311   7.226   9.923  0.8584  0.7435  2.0610
  153MOL0     H20181   1.157   7.306   9.766  0.9768  0.1733 -0.5383
  153MOL0     H20182   2.164   6.326   9.465  4.2582  0.8850  3.5598
  153MOL0     H20183   2.391   6.384   9.525  0.9839  5.7644 -1.0921
  153MOL0     H20184   2.949   6.225   9.294 -1.1447  1.9260 -2.0565
  153MOL0     H20185   3.160   6.295   9.384 -0.3371 -2.6717  2.8779
  153MOL0     H20186   3.326   6.372   9.478  0.2294  0.9525 -0.3705
  153MOL0     H20187   3.405   6.506   9.567  0.2467  1.3383 -0.1522
  153MOL0     H20188   3.247   6.597   9.322  1.4323  0.7416 -5.4399
  153MOL0     H20189   3.407   6.636   9.364 -1.9417  2.3596 -2.9023
  153MOL0     H20190   3.405   6.536   9.153  0.1441  1.8026  0.8051
  153MOL0     H20191   3.316   6.399   9.219 -0.5213  0.1318  1.3183
  153MOL0     H20192   3.523   6.304   9.333  4.6196  1.0472  2.9176
  153MOL0     H20193   3.552   6.345   9.174  0.9253  1.3027  0.0996
  153MOL0     H20194   3.814   6.567   9.438 -0.9511  1.9493 -1.7207
  153MOL0     H20195   2.962   6.590   9.623  3.2553 -0.0691  0.9955
  153MOL0     H20196   2.745   6.523   9.518  0.1378  0.1865  1.0986
  154MOL0     O20197   1.992   3.682   3.352 -0.3044  0.0255 -1.0407
  154MOL0     C20198   2.029   3.750   3.456  0.8939 -0.2042 -0.4437
  154MOL0     O20199   1.936   3.786   3.549 -0.0236 -0.9333  0.1295
  154MOL0     C20200   1.811   3.800   3.502  0.1839  0.1704 -0.9500
  154MOL0     C20201   1.763   3.912   3.433 -0.5201  0.3843 -0.4557
  154MOL0     C20202   1.630   3.923   3.383  0.9399  1.1736 -0.3454
  154MOL0     C20203   1.542   3.805   3.400 -0.4509 -0.1099  1.1525
  154MOL0     O20204   1.411   3.817   3.345 -0.1095 -0.4366 -0.0648
  154MOL0     C20205   1.340   3.941   3.346  0.2912  0.2856  0.1649
  154MOL0     C20206   1.228   3.942   3.237 -0.1688 -0.0663  0.9734
  154MOL0     C20207   1.163   3.798   3.212 -0.1188 -0.8369  0.0426
  154MOL0     C20208   1.045   3.803   3.118  0.3269 -1.0362  0.3173
  154MOL0     C20209   0.987   3.663   3.080 -0.3293  0.3308  0.2837
  154MOL0     C20210   0.831   3.670   3.042  0.3004  0.6213  0.2049
  154MOL0     C20211   0.771   3.531   3.038 -0.2576  1.1574 -0.3971
  154MOL0     C20212   0.624   3.519   3.012 -0.6765  0.8314  0.4930
  154MOL0     N20213   0.529   3.557   3.127  0.6495 -0.5640 -0.2478
  154MOL0     C20214   0.513   3.683   3.178  0.9345 -0.4990  0.3199
  154MOL0     C20215   0.442   3.666   3.295 -0.5163 -1.1940  0.3388
  154MOL0     C20216   0.414   3.769   3.399  0.4889 -0.8231 -1.3631
  154MOL0     C20217   0.275   3.823   3.387  0.1785 -0.3190  0.8617
  154MOL0     C20218   0.227   3.861   3.249  0.6439 -0.4479 -0.4154
  154MOL0     C20219   0.087   3.937   3.271 -0.1855  1.2952 -0.1067
  154MOL0     O20220   0.012   3.898   3.148 -0.5011  1.0471  0.2787
  154MOL0     C20221  -0.122   3.887   3.153  0.1855 -0.1423 -0.6317
  154MOL0     C20222  -0.196   3.991   3.100 -0.6426 -0.1035  1.3396
  154MOL0     C20223  -0.332   4.002   3.126  1.1169 -0.6629  0.6398
  154MOL0     C20224  -0.401   3.893   3.191 -0.1149 -0.1122 -0.0864
  154MOL0     C20225  -0.551   3.916   3.220 -0.3640  0.6778 -0.0991
  154MOL0     O20226  -0.593   3.874   3.343 -0.7008 -0.7337 -0.0448
  154MOL0     C20227  -0.727   3.882   3.377  0.1484 -0.2474  0.7851
  154MOL0     C20228  -0.745   3.862   3.515  0.2176 -0.2452  0.3371
  154MOL0     C20229  -0.876   3.860   3.571  0.1126 -0.2838  0.4012
  154MOL0     C20230  -0.986   3.886   3.490 -0.1392 -0.0386 -0.4801
  154MOL0     O20231  -1.117   3.896   3.534  0.1731  0.0450 -0.7633
  154MOL0     C20232  -1.147   3.890   3.681 -0.5821  0.1049 -0.1883
  154MOL0     C20233  -1.300   3.924   3.679  0.0592  0.1791 -0.2380
  154MOL0     C20234  -1.382   3.796   3.629 -0.5875 -1.3226  0.0340
  154MOL0     C20235  -1.532   3.804   3.650  0.1578  0.6757  0.0571
  154MOL0     C20236  -1.602   3.881   3.545  0.1312 -0.8956  0.1029
  154MOL0     C20237  -1.619   3.811   3.412  0.0357 -0.1188  0.0286
  154MOL0     C20238  -1.726   3.868   3.312 -0.2015  0.2656 -0.5582
  154MOL0     C20239  -1.758   3.768   3.196 -0.2279  0.8477  0.5785
  154MOL0    Cl20240  -1.779   3.601   3.255  0.4349  0.0843  0.0266
  154MOL0     C20241  -0.973   3.890   3.349  0.4318  0.1618 -0.2925
  154MOL0     C20242  -0.845   3.894   3.297 -0.0631 -0.9228 -0.4639
  154MOL0     O20243  -0.608   3.989   3.144  0.5269  0.1145 -0.3894
  154MOL0     C20244  -0.326   3.789   3.243  0.0211  0.9613  0.5091
  154MOL0     C20245  -0.188   3.785   3.222  0.0203  0.8193  0.1872
  154MOL0     N20246   0.407   3.533   3.311 -0.2354 -0.4909 -0.8160
  154MOL0     N20247   0.462   3.465   3.208 -0.7102 -0.5092  0.9418
  154MOL0     C20248   1.593   3.691   3.459 -0.0625 -0.3776  0.9065
  154MOL0     C20249   1.728   3.686   3.514  0.9421  0.4953  0.9126
  154MOL0     C20250   2.174   3.782   3.489 -0.0130 -0.8389  0.2743
  154MOL0     C20251   2.213   3.812   3.614 -0.3620 -0.5528 -0.2936
  154MOL0     C20252   2.345   3.841   3.655 -0.2336  0.6564  0.3612
  154MOL0     C20253   2.448   3.814   3.567  0.1311  0.1553 -0.3426
  154MOL0     O20254   2.580   3.833   3.600 -0.2882  0.7176  0.1561
  154MOL0     C20255   2.625   3.917   3.707  0.1299  0.3196 -0.4467
  154MOL0     C20256   2.764   3.977   3.678 -0.5340  0.3996  0.3246
  154MOL0     C20257   2.865   3.863   3.654 -0.3194 -0.0626  0.6215
  154MOL0     C20258   3.012   3.913   3.618 -0.0729 -0.5907  0.2264
  154MOL0     C20259   3.096   3.830   3.544 -0.2022 -0.8163  0.3087
  154MOL0     C20260   3.181   3.754   3.483  0.3746 -0.2165  0.0239
  154MOL0     C20261   2.411   3.786   3.434  0.1473  0.9792  0.1835
  154MOL0     C20262   2.274   3.768   3.393 -0.1332  0.4249 -0.3544
  154MOL0     H20263   1.830   3.997   3.427  0.3331 -0.3036 -0.7884
  154MOL0     H20264   1.605   4.019   3.339  1.5407  1.1705 -0.6940
  154MOL0     H20265   1.405   4.025   3.319  0.2425 -0.4672 -2.5951
  154MOL0     H20266   1.287   3.954   3.441  1.3775 -3.6227  1.4802
  154MOL0     H20267   1.270   3.979   3.143 -2.8335  0.6308 -0.0260
  154MOL0     H20268   1.147   4.011   3.266 -4.3660 -3.4754 -1.4361
  154MOL0     H20269   1.125   3.746   3.301 -0.2082 -0.8212  0.0142
  154MOL0     H20270   1.233   3.727   3.168 -0.3394 -0.4580 -0.9384
  154MOL0     H20271   0.965   3.866   3.158  1.7852  1.3388 -0.3251
  154MOL0     H20272   1.073   3.851   3.024  0.1516  0.2201  0.8886
  154MOL0     H20273   1.002   3.584   3.154  0.3952 -0.0109 -0.2151
  154MOL0     H20274   1.031   3.631   2.985  0.6967  2.3838  0.0033
  154MOL0     H20275   0.840   3.723   2.947 -0.3075  0.5548  0.1077
  154MOL0     H20276   0.766   3.729   3.107 -0.2305  1.4339 -1.0309
  154MOL0     H20277   0.810   3.464   2.961 -0.9835 -2.6439  2.2621
  154MOL0     H20278   0.801   3.472   3.125  0.2711  1.2955 -0.4823
  154MOL0     H20279   0.611   3.416   2.978 -0.4478  1.0773 -0.3617
  154MOL0     H20280   0.584   3.592   2.940 -1.7323 -0.2725 -0.0899
  154MOL0     H20281   0.539   3.780   3.139 -0.5140  0.0658  0.6874
  154MOL0     H20282   0.493   3.844   3.402 -1.5640  1.5777 -3.0652
  154MOL0     H20283   0.422   3.717   3.495 -2.5904 -0.5824 -0.8619
  154MOL0     H20284   0.251   3.913   3.444 -1.2595 -0.7831  1.0242
  154MOL0     H20285   0.213   3.755   3.446  0.6844  0.5805  2.4986
  154MOL0     H20286   0.295   3.929   3.197  4.0627 -0.6749  3.2722
  154MOL0     H20287   0.211   3.765   3.200 -0.7622 -0.6254  0.3261
  154MOL0     H20288   0.087   4.045   3.290 -2.4429  1.4473 -0.6404
  154MOL0     H20289   0.038   3.896   3.359  1.1896  0.7432  0.4295
  154MOL0     H20290  -0.153   4.061   3.030 -2.1693 -1.3393 -0.9691
  154MOL0     H20291  -0.372   4.098   3.095  0.2178 -1.4663 -0.7768
  154MOL0     H20292  -0.655   3.843   3.572  0.0864 -0.2380  0.5454
  154MOL0     H20293  -0.890   3.839   3.676  1.8792 -1.5345  0.4337
  154MOL0     H20294  -1.087   3.974   3.718  2.5398 -0.1805 -3.9312
  154MOL0     H20295  -1.122   3.794   3.725 -1.9147  0.0783  0.5719
  154MOL0     H20296  -1.325   4.008   3.614  1.6648  1.0203  0.1878
  154MOL0     H20297  -1.327   3.943   3.783  1.1721 -1.6265  0.4281
  154MOL0     H20298  -1.335   3.707   3.673  0.6506 -0.9373 -0.4834
  154MOL0     H20299  -1.367   3.768   3.525 -0.5838 -0.0293 -0.3247
  154MOL0     H20300  -1.560   3.698   3.650  0.9958  0.3447 -3.5502
  154MOL0     H20301  -1.538   3.846   3.751  1.3144 -0.9573  0.8617
  154MOL0     H20302  -1.561   3.982   3.537 -1.5912 -0.0058  1.7695
  154MOL0     H20303  -1.704   3.899   3.582  0.2928  1.8099 -0.5159
  154MOL0     H20304  -1.634   3.706   3.441  2.9579  0.0711  2.8917
  154MOL0     H20305  -1.524   3.820   3.359  0.8685  0.5460  1.5540
  154MOL0     H20306  -1.822   3.884   3.363 -0.3980 -0.5385 -0.6618
  154MOL0     H20307  -1.698   3.961   3.262 -1.3351  0.8212 -0.1969
  154MOL0     H20308  -1.674   3.759   3.127  1.6343  0.2286  2.8128
  154MOL0     H20309  -1.844   3.797   3.135  0.0939 -1.0774 -0.8688
  154MOL0     H20310  -1.064   3.891   3.291  0.3848  1.8811 -0.2320
  154MOL0     H20311  -0.831   3.881   3.190  0.8436 -2.2342 -0.2140
  154MOL0     H20312  -0.379   3.719   3.307 -0.1935  0.6939  0.0448
  154MOL0     H20313  -0.141   3.692   3.250 -2.2346 -0.5739 -0.4129
  154MOL0     H20314   1.526   3.606   3.464 -1.8038  0.9684  1.3262
  154MOL0     H20315   1.763   3.591   3.554  2.0615 -0.1152 -1.3785
  154MOL0     H20316   2.133   3.810   3.688 -3.8937  0.3229 -3.7296
  154MOL0     H20317   2.373   3.864   3.757  0.6325 -1.5100  0.6649
  154MOL0     H20318   2.624   3.859   3.800  2.5286 -2.2944 -1.8967
  154MOL0     H20319   2.554   4.000   3.709 -1.3062 -0.8530 -0.8534
  154MOL0     H20320   2.750   4.037   3.589  2.1778 -1.8752 -1.8405
  154MOL0     H20321   2.796   4.037   3.764 -0.8144 -0.6338  1.1909
  154MOL0     H20322   2.825   3.788   3.585 -1.0415 -1.0900  2.1088
  154MOL0     H20323   2.874   3.803   3.746 -1.6145 -1.3888 -0.0744
  154MOL0     H20324   3.012   4.013   3.574  0.3846 -0.4884  0.4489
  154MOL0     H20325   3.066   3.919   3.713 -0.2437  1.9277  0.2352
  154MOL0     H20326   3.270   3.708   3.445  1.2147  0.7744  0.7074
  154MOL0     H20327   2.493   3.774   3.363  0.6189  3.8291  0.1074
  154MOL0     H20328   2.240   3.726   3.298 -1.0580 -0.6796  0.4276
  155MOL0     O20329   6.604   5.184   9.813  0.4097 -0.1641  0.8059
  155MOL0     C20330   6.676   5.280   9.781  0.1587  0.3278 -1.1980
  155MOL0     O20331   6.640   5.412   9.776 -0.3403  0.4599 -0.4548
  155MOL0     C20332   6.514   5.443   9.818 -0.3566 -0.1860  0.2646
  155MOL0     C20333   6.499   5.442   9.959  0.0831 -0.1257 -0.0094
  155MOL0     C20334   6.376   5.464  10.020 -0.1210 -0.3415  0.4503
  155MOL0     C20335   6.266   5.492   9.928  0.0173 -1.1540 -0.1328
  155MOL0     O20336   6.150   5.538   9.986  0.5274  0.2465 -0.5707
  155MOL0     C20337   6.100   5.466  10.097  0.0534  0.3709  0.0940
  155MOL0     C20338   5.939   5.474  10.092  0.2005  0.9305 -0.6507
  155MOL0     C20339   5.862   5.419   9.974 -0.9764 -0.4346 -0.7573
  155MOL0     C20340   5.850   5.524   9.866  0.0717  1.1927  0.3866
  155MOL0     C20341   5.776   5.468   9.742 -0.9401 -0.4683  0.7798
  155MOL0     C20342   5.762   5.577   9.633  0.2390 -0.4690 -0.3933
  155MOL0     C20343   5.888   5.621   9.570  0.1767 -0.0678 -1.1592
  155MOL0     C20344   5.880   5.759   9.509  1.1075 -0.1466 -0.5629
  155MOL0     N20345   5.764   5.782   9.422 -0.2947  0.4217  0.9032
  155MOL0     C20346   5.638   5.816   9.454  0.4864  0.9868 -0.7169
  155MOL0     C20347   5.563   5.813   9.340  0.2792 -0.1048  0.2148
  155MOL0     C20348   5.420   5.856   9.333 -0.7576  0.1561 -0.0524
  155MOL0     C20349   5.313   5.758   9.382 -0.0636 -0.0458  0.7114
  155MOL0     C20350   5.286   5.657   9.276 -0.0387 -0.5731  0.2171
  155MOL0     C20351   5.256   5.525   9.345 -1.1296 -0.4485  0.2853
  155MOL0     O20352   5.241   5.427   9.240 -0.9871 -0.0006  0.0594
  155MOL0     C20353   5.217   5.301   9.284  0.2095  0.2602  0.6657
  155MOL0     C20354   5.177   5.205   9.188 -0.4013 -0.7564 -0.7020
  155MOL0     C20355   5.161   5.069   9.214 -1.0230 -0.0134  0.7286
  155MOL0     C20356   5.191   5.018   9.348  1.1183 -0.1494  0.9975
  155MOL0     C20357   5.161   4.873   9.368 -0.0285  0.0217  0.3553
  155MOL0     O20358   5.103   4.803   9.266  0.4091 -0.1863 -0.0064
  155MOL0     C20359   5.070   4.669   9.273  1.8167 -0.6658 -0.5331
  155MOL0     C20360   5.140   4.573   9.352  0.1884  1.0528  0.4055
  155MOL0     C20361   5.096   4.442   9.357  0.3916  0.7179  0.0594
  155MOL0     C20362   4.976   4.405   9.293  0.0727  0.0560  0.4410
  155MOL0     O20363   4.911   4.282   9.308  0.1743  0.0001  0.3436
  155MOL0     C20364   4.926   4.220   9.440 -0.5601 -0.4531 -0.2496
  155MOL0     C20365   4.840   4.095   9.443 -0.2385 -0.2895  0.2921
  155MOL0     C20366   4.862   3.994   9.558 -0.6199  0.7536  0.0432
  155MOL0     C20367   4.768   3.878   9.557  0.0696  0.7541  0.9052
  155MOL0     C20368   4.801   3.782   9.665  0.1851  0.5526 -0.6187
  155MOL0     C20369   4.768   3.833   9.809  0.2537 -0.5208  0.7837
  155MOL0     C20370   4.622   3.861   9.823  0.6652 -0.7733 -0.2938
  155MOL0     C20371   4.594   4.005   9.881  0.1844 -0.8218  0.0199
  155MOL0    Cl20372   4.649   4.042  10.038 -0.0774  0.0089  0.2009
  155MOL0     C20373   4.909   4.506   9.221  0.0252  0.1884  0.9939
  155MOL0     C20374   4.948   4.635   9.217 -0.4520  0.5625  0.1760
  155MOL0     O20375   5.180   4.828   9.482  0.1262 -0.2872 -0.7653
  155MOL0     C20376   5.225   5.112   9.448 -0.5398 -0.2176 -0.2426
  155MOL0     C20377   5.232   5.246   9.415  0.5684  0.2802 -1.0590
  155MOL0     N20378   5.648   5.771   9.240  0.2957 -0.1521 -0.1429
  155MOL0     N20379   5.761   5.750   9.288 -0.4587 -0.1269  0.1793
  155MOL0     C20380   6.278   5.498   9.789 -0.1727  0.1411 -0.6989
  155MOL0     C20381   6.405   5.478   9.740 -0.4777 -0.2354 -0.5867
  155MOL0     C20382   6.816   5.250   9.756 -0.4754 -0.4881 -0.0417
  155MOL0     C20383   6.865   5.122   9.757 -0.1241  0.3887  0.0444
  155MOL0     C20384   6.994   5.102   9.712 -0.1249 -0.2016 -0.4304
  155MOL0     C20385   7.084   5.203   9.676  0.5139 -0.9069 -0.6965
  155MOL0     O20386   7.218   5.199   9.640 -0.2367 -0.0435  0.7017
  155MOL0     C20387   7.302   5.213   9.758 -0.5670  0.5231 -0.2542
  155MOL0     C20388   7.445   5.149   9.747  0.4412 -0.2999  0.1157
  155MOL0     C20389   7.516   5.181   9.606  0.0960  0.1754 -0.6505
  155MOL0     C20390   7.658   5.143   9.596 -0.2329 -0.0831  0.6574
  155MOL0     C20391   7.742   5.239   9.675  0.3437  0.5157  0.1026
  155MOL0     C20392   7.814   5.318   9.730 -0.2203 -0.2061 -0.4860
  155MOL0     C20393   7.037   5.333   9.688  0.0976  0.5839 -0.8829
  155MOL0     C20394   6.902   5.359   9.720  0.0282 -0.4000 -0.2571
  155MOL0     H20395   6.584   5.425  10.024 -1.2331  2.2268  2.5570
  155MOL0     H20396   6.354   5.479  10.125 -1.8496  2.8314 -0.2200
  155MOL0     H20397   6.132   5.511  10.191 -0.2608 -0.9857  0.8683
  155MOL0     H20398   6.128   5.361  10.084  0.6209  0.6005 -0.6376
  155MOL0     H20399   5.914   5.578  10.116  1.7705  0.9660  1.0090
  155MOL0     H20400   5.899   5.418  10.176  2.2412 -0.2635 -0.4183
  155MOL0     H20401   5.766   5.377  10.006 -0.8065  1.0975  2.0050
  155MOL0     H20402   5.910   5.339   9.917  1.3972  0.8680 -0.6758
  155MOL0     H20403   5.790   5.605   9.908 -1.3274 -0.4286  1.6512
  155MOL0     H20404   5.949   5.557   9.834  0.7756 -1.5278 -0.4792
  155MOL0     H20405   5.675   5.435   9.765 -1.8812  0.1632 -2.1069
  155MOL0     H20406   5.845   5.400   9.691 -0.7043 -0.2370  0.7843
  155MOL0     H20407   5.716   5.659   9.688  2.7531 -0.1944  1.5009
  155MOL0     H20408   5.687   5.534   9.566 -0.1943 -0.7310  0.2426
  155MOL0     H20409   5.967   5.635   9.644 -1.4817  1.6707  0.3971
  155MOL0     H20410   5.920   5.551   9.492  1.1561 -3.0383  1.6686
  155MOL0     H20411   5.974   5.779   9.457  0.2252 -1.4034 -2.7848
  155MOL0     H20412   5.866   5.828   9.592 -0.7724 -1.8178  0.6247
  155MOL0     H20413   5.601   5.852   9.549  0.7076  0.5042 -0.4497
  155MOL0     H20414   5.392   5.890   9.233 -4.4065 -0.0432  0.7385
  155MOL0     H20415   5.407   5.942   9.400 -0.4384 -0.6056  1.0109
  155MOL0     H20416   5.219   5.804   9.413 -0.7323 -1.2875  0.6038
  155MOL0     H20417   5.361   5.715   9.470 -0.3986  1.4832  1.6787
  155MOL0     H20418   5.199   5.691   9.218  0.3238  0.0783  0.0446
  155MOL0     H20419   5.370   5.646   9.207 -0.2688 -2.6290  0.2165
  155MOL0     H20420   5.164   5.525   9.404  0.1878  1.6870  2.5561
  155MOL0     H20421   5.342   5.492   9.404 -0.7161  1.4897  0.8655
  155MOL0     H20422   5.168   5.235   9.084  0.3813  3.2115  0.1957
  155MOL0     H20423   5.128   5.001   9.136 -2.0024 -2.3092  2.9871
  155MOL0     H20424   5.230   4.606   9.402  1.7812 -3.9760  1.4544
  155MOL0     H20425   5.154   4.371   9.415 -3.3417 -2.4313  0.3512
  155MOL0     H20426   4.891   4.283   9.523 -0.0327 -1.7042  0.9635
  155MOL0     H20427   5.030   4.196   9.464 -0.9023 -2.7022 -0.7790
  155MOL0     H20428   4.854   4.054   9.343 -1.1745  1.5197 -0.6292
  155MOL0     H20429   4.735   4.125   9.449 -0.6665 -1.9986  3.1266
  155MOL0     H20430   4.849   4.045   9.653  0.1857 -0.5344  0.8834
  155MOL0     H20431   4.969   3.969   9.556 -0.5756  0.9271  0.2821
  155MOL0     H20432   4.662   3.905   9.557 -0.4249 -0.7536 -2.3004
  155MOL0     H20433   4.757   3.835   9.457 -0.1042 -0.5542  1.4611
  155MOL0     H20434   4.910   3.776   9.660  0.1559  0.6964 -1.6397
  155MOL0     H20435   4.750   3.685   9.656  0.4585  0.3161  0.3297
  155MOL0     H20436   4.825   3.924   9.829 -1.1064  1.1752 -2.3093
  155MOL0     H20437   4.786   3.749   9.876 -0.0069 -1.5775 -0.4210
  155MOL0     H20438   4.553   3.833   9.743 -0.6052  2.4858 -0.5171
  155MOL0     H20439   4.595   3.789   9.901 -1.0460  0.5695  0.4066
  155MOL0     H20440   4.488   4.030   9.871  0.2791 -0.1992  0.5124
  155MOL0     H20441   4.646   4.071   9.811  2.1551 -0.3379  1.8251
  155MOL0     H20442   4.809   4.485   9.186 -0.3403  0.3646  1.9010
  155MOL0     H20443   4.903   4.722   9.171 -0.1730 -0.2944 -1.8068
  155MOL0     H20444   5.256   5.069   9.542  1.3300  0.5468 -0.4652
  155MOL0     H20445   5.251   5.322   9.491  1.3857  0.1814 -1.1579
  155MOL0     H20446   6.200   5.517   9.715  0.5505  1.3860 -1.1786
  155MOL0     H20447   6.436   5.473   9.637  2.2420  0.8508  0.0939
  155MOL0     H20448   6.801   5.041   9.792 -0.9396  1.9206  2.3435
  155MOL0     H20449   7.029   5.000   9.697 -0.8452 -0.3898 -0.9140
  155MOL0     H20450   7.264   5.158   9.845 -3.4196  1.1690 -0.9857
  155MOL0     H20451   7.304   5.317   9.793 -2.1335  0.9977 -1.4745
  155MOL0     H20452   7.502   5.177   9.836 -0.1675  2.6934 -0.3256
  155MOL0     H20453   7.435   5.040   9.749 -2.2265 -0.2912 -3.2293
  155MOL0     H20454   7.521   5.287   9.581 -0.9926  0.2960 -0.4137
  155MOL0     H20455   7.452   5.134   9.530 -1.0957  0.4094  0.1716
  155MOL0     H20456   7.661   5.039   9.629 -4.4113 -0.4773  0.2139
  155MOL0     H20457   7.686   5.152   9.491  1.2537  0.6968  1.0933
  155MOL0     H20458   7.880   5.394   9.767 -0.5945 -0.9788  1.9598
  155MOL0     H20459   7.101   5.417   9.661  2.0399  0.1464  1.8926
  155MOL0     H20460   6.873   5.462   9.742  0.9468 -0.7730  3.3666
  156MOL0     O20461  10.618   2.324   5.323 -0.0054 -0.2883  0.3134
  156MOL0     C20462  10.642   2.203   5.335 -0.0743  0.7591 -0.4511
  156MOL0     O20463  10.547   2.101   5.350  0.4393 -0.6819  0.4273
  156MOL0     C20464  10.420   2.136   5.339  0.6908  0.2234  0.9921
  156MOL0     C20465  10.362   2.218   5.431 -0.8261 -0.1437 -0.0323
  156MOL0     C20466  10.219   2.235   5.430  0.0550  0.1696 -0.1730
  156MOL0     C20467  10.143   2.196   5.320 -0.4273  0.0577  0.9034
  156MOL0     O20468  10.007   2.221   5.309  0.0899 -0.2590 -0.7727
  156MOL0     C20469   9.966   2.351   5.355  0.1848 -1.4932 -0.5913
  156MOL0     C20470   9.824   2.384   5.300 -0.8377  0.5100  0.3493
  156MOL0     C20471   9.741   2.481   5.380  0.1444 -0.6242  0.0907
  156MOL0     C20472   9.590   2.477   5.335 -0.2712  0.1031  0.0118
  156MOL0     C20473   9.497   2.422   5.447 -0.3345  0.7380 -0.0146
  156MOL0     C20474   9.347   2.457   5.422 -0.5845 -1.2582  0.1887
  156MOL0     C20475   9.266   2.399   5.532 -0.0768 -0.4203 -0.4222
  156MOL0     C20476   9.123   2.389   5.489  0.2221 -0.6316 -0.2191
  156MOL0     N20477   9.018   2.371   5.598  0.2501  0.2281 -0.3271
  156MOL0     C20478   8.901   2.432   5.621  0.8231  0.4999  0.3065
  156MOL0     C20479   8.840   2.375   5.723 -0.2918  0.1868 -0.5124
  156MOL0     C20480   8.694   2.406   5.772  0.3717  0.6505  0.0510
  156MOL0     C20481   8.599   2.279   5.782 -0.2361 -0.6097 -0.2089
  156MOL0     C20482   8.451   2.310   5.779 -0.5856  0.0920  0.3383
  156MOL0     C20483   8.366   2.193   5.822  0.3560 -0.0516 -0.1850
  156MOL0     O20484   8.391   2.086   5.734  0.3591 -0.0829 -0.0623
  156MOL0     C20485   8.302   1.988   5.718  0.0648 -0.4062 -0.1855
  156MOL0     C20486   8.304   1.904   5.605 -1.3355 -0.2953  0.0747
  156MOL0     C20487   8.215   1.791   5.598 -0.0662  0.0492 -0.1265
  156MOL0     C20488   8.127   1.760   5.697  0.3410 -0.4988  0.7382
  156MOL0     C20489   8.032   1.648   5.688  0.0190  0.4886 -0.6788
  156MOL0     O20490   8.059   1.540   5.604 -0.6726 -0.0631 -0.0270
  156MOL0     C20491   7.967   1.439   5.596 -0.9676 -0.3741 -0.3475
  156MOL0     C20492   7.896   1.427   5.478  0.8060 -0.5775 -0.5839
  156MOL0     C20493   7.797   1.332   5.452  0.4254  0.7160  0.4845
  156MOL0     C20494   7.768   1.238   5.554 -0.3091  0.9461 -0.1306
  156MOL0     O20495   7.669   1.140   5.559  0.0113  0.2867 -0.0590
  156MOL0     C20496   7.591   1.138   5.442 -0.3084 -1.0975 -0.6849
  156MOL0     C20497   7.508   1.007   5.434  0.2757 -0.5238 -0.0050
  156MOL0     C20498   7.405   1.012   5.316 -0.3194 -0.2794  0.1531
  156MOL0     C20499   7.288   0.905   5.333  0.2460  0.1885  0.2731
  156MOL0     C20500   7.142   0.955   5.315  0.3790  0.3008  0.9336
  156MOL0     C20501   7.103   1.018   5.187  0.1185  0.6671 -0.3154
  156MOL0     C20502   7.145   0.926   5.071 -0.1325  0.7244  0.4138
  156MOL0     C20503   7.108   0.962   4.933 -0.0155  0.0456  0.1989
  156MOL0    Cl20504   7.165   1.116   4.857  0.1842 -0.0615 -0.6418
  156MOL0     C20505   7.826   1.259   5.680  0.0692  0.6212  0.2975
  156MOL0     C20506   7.934   1.344   5.702  0.6259 -0.8878 -0.0820
  156MOL0     O20507   7.929   1.658   5.763 -0.7438  0.2329  1.0572
  156MOL0     C20508   8.129   1.844   5.813  0.7206 -0.1152 -0.5111
  156MOL0     C20509   8.217   1.950   5.822  0.1496 -0.1783 -0.6584
  156MOL0     N20510   8.919   2.275   5.771  0.4648  0.3068 -0.5079
  156MOL0     N20511   9.032   2.267   5.698  0.6742 -0.2443 -0.1220
  156MOL0     C20512  10.203   2.115   5.231 -0.4308 -0.4975 -0.5119
  156MOL0     C20513  10.342   2.089   5.236  0.1690 -0.2546 -0.2511
  156MOL0     C20514  10.794   2.161   5.333  0.9351  0.7523 -0.2362
  156MOL0     C20515  10.890   2.255   5.315  0.2811 -0.2314 -0.6112
  156MOL0     C20516  11.019   2.221   5.322  0.3879  0.5570  0.2658
  156MOL0     C20517  11.060   2.087   5.342 -0.0006 -0.3698  1.2524
  156MOL0     O20518  11.200   2.062   5.339  0.1950 -0.0294  1.0679
  156MOL0     C20519  11.244   1.932   5.368  0.2543  1.2595  0.1978
  156MOL0     C20520  11.384   1.929   5.421  0.3518  0.4004  0.0502
  156MOL0     C20521  11.485   1.997   5.338 -0.0284 -0.2857  0.6492
  156MOL0     C20522  11.622   1.957   5.392  0.4877  0.1146  0.1742
  156MOL0     C20523  11.724   1.988   5.286  0.4523 -0.0484  0.0543
  156MOL0     C20524  11.788   1.994   5.183  0.2085 -0.8369 -0.5235
  156MOL0     C20525  10.959   1.994   5.356  0.1757  0.2299  0.0024
  156MOL0     C20526  10.830   2.020   5.353 -0.6539 -0.1896 -0.0808
  156MOL0     H20527  10.417   2.243   5.522 -2.0098  2.5521  0.0395
  156MOL0     H20528  10.174   2.296   5.508 -2.7273  0.4502 -1.8822
  156MOL0     H20529  10.039   2.419   5.311 -1.2614 -0.7991 -1.9913
  156MOL0     H20530   9.969   2.360   5.464 -0.2043  0.6006 -0.7213
  156MOL0     H20531   9.769   2.290   5.295  2.2391 -1.3792 -0.8222
  156MOL0     H20532   9.818   2.424   5.199  0.3737 -2.9007 -1.2155
  156MOL0     H20533   9.783   2.582   5.372 -1.0553 -0.0185  1.1051
  156MOL0     H20534   9.753   2.453   5.485  2.2665 -0.0905  0.0403
  156MOL0     H20535   9.554   2.570   5.289 -0.0523  0.0963 -0.1798
  156MOL0     H20536   9.576   2.413   5.247  0.2714  0.8429 -0.6295
  156MOL0     H20537   9.515   2.477   5.540 -1.2352  0.2491  0.4638
  156MOL0     H20538   9.501   2.314   5.461  0.3722  1.0718  3.1848
  156MOL0     H20539   9.314   2.422   5.324 -1.6007 -1.1362  0.4787
  156MOL0     H20540   9.330   2.565   5.420  0.8726 -1.0162 -0.8964
  156MOL0     H20541   9.299   2.299   5.561  0.2465 -0.4979 -1.0568
  156MOL0     H20542   9.271   2.465   5.619 -1.9382 -0.4156 -0.2783
  156MOL0     H20543   9.118   2.295   5.434  1.1998 -1.1619  0.5584
  156MOL0     H20544   9.089   2.475   5.430 -0.1550 -1.0020 -0.5483
  156MOL0     H20545   8.855   2.517   5.571  0.2429 -0.0383 -0.0820
  156MOL0     H20546   8.641   2.478   5.708  0.3840  1.5581  1.0337
  156MOL0     H20547   8.699   2.454   5.870 -0.2697  2.1916 -0.6437
  156MOL0     H20548   8.623   2.217   5.868 -0.4504  2.7358  2.4914
  156MOL0     H20549   8.621   2.229   5.687 -0.0197 -1.0084  0.0507
  156MOL0     H20550   8.423   2.398   5.838  2.1225  0.5924  1.0185
  156MOL0     H20551   8.426   2.325   5.673 -0.6205 -2.0665 -0.0120
  156MOL0     H20552   8.259   2.216   5.827 -0.7663 -4.4082 -0.2172
  156MOL0     H20553   8.400   2.163   5.922  1.8228  0.5408 -0.4827
  156MOL0     H20554   8.372   1.912   5.521 -2.1786 -2.9916 -0.9736
  156MOL0     H20555   8.224   1.723   5.514 -1.3410  1.9848 -1.9281
  156MOL0     H20556   7.920   1.500   5.401 -0.9148  1.3990  0.6457
  156MOL0     H20557   7.748   1.326   5.355 -1.3290 -0.0191  1.3776
  156MOL0     H20558   7.654   1.142   5.352  4.4066  1.2077  2.3169
  156MOL0     H20559   7.528   1.226   5.447  0.4805 -0.5975  2.4652
  156MOL0     H20560   7.451   1.000   5.527  0.8390  0.8598  0.4704
  156MOL0     H20561   7.575   0.921   5.426 -1.4608 -2.0211  0.7321
  156MOL0     H20562   7.458   0.991   5.223  1.7366 -1.9599  1.5847
  156MOL0     H20563   7.351   1.106   5.307  0.2085 -0.1925 -2.8683
  156MOL0     H20564   7.302   0.816   5.271 -2.8149 -0.8849  0.9351
  156MOL0     H20565   7.300   0.874   5.438  1.0221 -1.2753 -0.2254
  156MOL0     H20566   7.130   1.035   5.389 -0.5917  1.5858 -0.5439
  156MOL0     H20567   7.068   0.879   5.340  1.2224 -2.2075 -3.1976
  156MOL0     H20568   7.150   1.115   5.169  1.2933  1.0166  3.7220
  156MOL0     H20569   6.996   1.037   5.175 -0.2759 -1.5349 -0.8311
  156MOL0     H20570   7.254   0.919   5.078 -0.1086 -1.7566 -1.1104
  156MOL0     H20571   7.119   0.822   5.095  2.7107 -0.1678  0.0186
  156MOL0     H20572   6.999   0.966   4.922 -0.0428 -0.1896  0.3802
  156MOL0     H20573   7.149   0.885   4.867 -0.2551  2.0828 -2.5166
  156MOL0     H20574   7.797   1.203   5.768 -0.2854  0.5557  0.1419
  156MOL0     H20575   7.977   1.364   5.799 -1.7570 -2.5375  1.4306
  156MOL0     H20576   8.065   1.825   5.898 -1.0253 -1.6812 -2.0676
  156MOL0     H20577   8.212   2.008   5.913 -2.4346 -0.9010 -0.2731
  156MOL0     H20578  10.137   2.091   5.148 -2.6573  0.8631  0.7616
  156MOL0     H20579  10.380   2.011   5.171 -1.6896  0.4808 -2.3571
  156MOL0     H20580  10.859   2.358   5.299  3.0043  0.4093 -2.6158
  156MOL0     H20581  11.108   2.283   5.330 -0.6744  1.9006  3.6494
  156MOL0     H20582  11.244   1.875   5.274 -2.1116 -1.5455  1.7427
  156MOL0     H20583  11.184   1.874   5.439  0.3522 -1.2609 -1.6320
  156MOL0     H20584  11.379   1.982   5.516 -3.0372 -1.4659  1.0832
  156MOL0     H20585  11.413   1.826   5.440  2.6967  1.1927  1.0579
  156MOL0     H20586  11.477   2.106   5.341  3.3554  0.1491 -1.2280
  156MOL0     H20587  11.477   1.963   5.235  2.9640 -2.3904  0.9692
  156MOL0     H20588  11.637   2.013   5.485 -1.8095  0.1444  0.5755
  156MOL0     H20589  11.622   1.848   5.404 -1.0208  0.1906  1.0192
  156MOL0     H20590  11.852   1.988   5.098  1.0139  3.7017 -0.4809
  156MOL0     H20591  10.983   1.890   5.372  2.1154  0.8629  1.5436
  156MOL0     H20592  10.754   1.951   5.388 -1.9361  2.1686  2.1430
  157MOL0     O20593   5.714   2.439   2.937 -0.6234  0.0251  0.1874
  157MOL0     C20594   5.787   2.455   3.040 -0.3401 -0.8460 -0.2415
  157MOL0     O20595   5.751   2.468   3.166 -0.3084 -0.9802 -0.0242
  157MOL0     C20596   5.617   2.461   3.189 -0.6420  0.4502 -0.6805
  157MOL0     C20597   5.555   2.341   3.196 -0.0983  0.3362  0.5570
  157MOL0     C20598   5.418   2.334   3.200  0.1280  0.3640  0.2820
  157MOL0     C20599   5.336   2.447   3.210  0.3309 -0.0315  0.2561
  157MOL0     O20600   5.208   2.446   3.253  0.2094 -0.2723  0.2980
  157MOL0     C20601   5.121   2.377   3.174  1.4009 -0.5253 -0.0310
  157MOL0     C20602   4.977   2.391   3.219  0.9445  0.8404  0.0787
  157MOL0     C20603   4.894   2.290   3.131  0.2223 -0.5481 -0.3033
  157MOL0     C20604   4.747   2.315   3.162  0.2830 -0.3736 -0.8958
  157MOL0     C20605   4.718   2.263   3.305  0.1631 -0.1376  0.2826
  157MOL0     C20606   4.571   2.284   3.326 -0.9407  0.2534 -0.2376
  157MOL0     C20607   4.508   2.211   3.450 -0.5495 -0.1207  0.2915
  157MOL0     C20608   4.352   2.222   3.424  0.0037 -0.3152  0.0051
  157MOL0     N20609   4.277   2.208   3.555 -0.0285  0.5808 -0.1015
  157MOL0     C20610   4.311   2.294   3.648 -1.1833 -0.4967  0.1156
  157MOL0     C20611   4.246   2.253   3.758  0.2563  0.2092  0.4603
  157MOL0     C20612   4.277   2.305   3.900  1.5700  0.4832  0.8246
  157MOL0     C20613   4.155   2.362   3.974 -0.0902 -0.9646  0.6765
  157MOL0     C20614   4.104   2.482   3.897  0.8135  0.5417 -0.0786
  157MOL0     C20615   3.957   2.525   3.923  0.7660  0.3554 -0.4028
  157MOL0     O20616   3.854   2.424   3.890  0.2191 -0.5659  0.6190
  157MOL0     C20617   3.851   2.368   3.765  0.5714  0.1770 -0.6470
  157MOL0     C20618   3.845   2.231   3.759 -0.6215 -0.6771 -0.3969
  157MOL0     C20619   3.861   2.174   3.634 -0.3617 -0.4168  0.8446
  157MOL0     C20620   3.871   2.243   3.508 -0.2803 -1.1809  0.1337
  157MOL0     C20621   3.901   2.171   3.382  1.0836 -0.1844 -0.4767
  157MOL0     O20622   3.849   2.043   3.378  0.7265  0.1825  0.1514
  157MOL0     C20623   3.852   1.962   3.266 -0.5051  0.0443 -0.1148
  157MOL0     C20624   3.970   1.961   3.187 -0.1469 -0.2502  0.3197
  157MOL0     C20625   3.986   1.871   3.078 -0.0794 -1.5827  0.5912
  157MOL0     C20626   3.875   1.779   3.044 -0.4102 -0.4200  0.2329
  157MOL0     O20627   3.874   1.716   2.917 -0.0483 -0.2351 -0.0713
  157MOL0     C20628   3.774   1.624   2.886 -0.5764  0.5663  0.7990
  157MOL0     C20629   3.809   1.491   2.943  0.5058  0.6082 -0.3400
  157MOL0     C20630   3.696   1.390   2.906  0.1592  0.1671 -0.0452
  157MOL0     C20631   3.704   1.272   3.008 -0.0725  0.1251  0.7975
  157MOL0     C20632   3.635   1.142   2.963  0.7823  0.3414 -0.0491
  157MOL0     C20633   3.495   1.174   2.927  0.7598  0.2217 -0.4787
  157MOL0     C20634   3.417   1.048   2.891  0.3435  0.0333 -0.9181
  157MOL0     C20635   3.446   1.002   2.743 -0.2023 -0.2187  0.4182
  157MOL0    Cl20636   3.331   0.873   2.711 -0.1340 -0.1699 -0.2640
  157MOL0     C20637   3.768   1.783   3.130  0.2713 -0.6472 -0.6061
  157MOL0     C20638   3.759   1.869   3.239 -0.1449  0.3416 -0.3067
  157MOL0     O20639   3.962   2.231   3.295  0.0527  0.0502 -0.3646
  157MOL0     C20640   3.863   2.380   3.522  0.7277 -0.5860 -0.9870
  157MOL0     C20641   3.852   2.442   3.648 -0.8995  0.1276 -0.4050
  157MOL0     N20642   4.182   2.129   3.741 -1.0441 -0.7991 -0.3109
  157MOL0     N20643   4.196   2.109   3.616 -0.0458 -0.0381 -0.4076
  157MOL0     C20644   5.401   2.572   3.204 -0.4194  0.4281 -0.2534
  157MOL0     C20645   5.542   2.578   3.197  0.0712  0.4473  0.6691
  157MOL0     C20646   5.929   2.469   3.017 -0.0531 -0.5369  0.0855
  157MOL0     C20647   5.991   2.453   2.890  0.5366  0.0611  1.1034
  157MOL0     C20648   6.132   2.464   2.873 -0.1861  0.0288 -0.9424
  157MOL0     C20649   6.217   2.494   2.978 -0.2001 -0.5423 -0.4833
  157MOL0     O20650   6.356   2.509   2.975 -0.7411  0.5064 -0.2909
  157MOL0     C20651   6.415   2.478   2.855  0.7616  0.1628  0.8808
  157MOL0     C20652   6.556   2.538   2.840 -0.8482  0.4830 -0.1411
  157MOL0     C20653   6.652   2.484   2.952 -0.6426  0.1766  0.5713
  157MOL0     C20654   6.776   2.572   2.942 -0.1507 -0.1919  0.3131
  157MOL0     C20655   6.886   2.512   3.021  0.1896  0.3460  0.9442
  157MOL0     C20656   6.984   2.474   3.078  0.1831  0.1118  0.0555
  157MOL0     C20657   6.156   2.504   3.104 -0.4735  1.2816 -0.1924
  157MOL0     C20658   6.016   2.500   3.119 -0.2341 -0.8671 -0.4734
  157MOL0     H20659   5.609   2.248   3.212 -0.3650 -0.0192 -0.5172
  157MOL0     H20660   5.363   2.240   3.194  0.2170  0.2650  0.9921
  157MOL0     H20661   5.138   2.269   3.175 -0.5716 -0.8702  1.0071
  157MOL0     H20662   5.132   2.412   3.071 -1.5157  2.2299  0.4365
  157MOL0     H20663   4.945   2.492   3.192  0.3669  1.0223  1.3664
  157MOL0     H20664   4.960   2.375   3.326 -2.5296 -0.2582 -0.4907
  157MOL0     H20665   4.913   2.185   3.156  1.6156 -0.5173 -1.1075
  157MOL0     H20666   4.918   2.305   3.026 -0.5259  0.7999 -0.2994
  157MOL0     H20667   4.725   2.421   3.155  2.2968  0.0597 -1.2709
  157MOL0     H20668   4.688   2.264   3.084 -1.6413 -0.1011  0.3120
  157MOL0     H20669   4.775   2.307   3.387  0.1284  0.9676 -0.2697
  157MOL0     H20670   4.716   2.154   3.311  0.5251 -0.1871 -0.4776
  157MOL0     H20671   4.518   2.256   3.234  3.5922 -1.2017 -2.7125
  157MOL0     H20672   4.570   2.393   3.335  1.0517  0.0963  4.0829
  157MOL0     H20673   4.537   2.106   3.456  0.8013  0.2601  0.7641
  157MOL0     H20674   4.546   2.259   3.541 -0.9501 -0.2875  0.5487
  157MOL0     H20675   4.326   2.147   3.349 -3.2842  2.4880 -1.9946
  157MOL0     H20676   4.311   2.316   3.384 -3.4877 -1.4010  0.6608
  157MOL0     H20677   4.368   2.386   3.636 -2.7921  0.7016  1.2386
  157MOL0     H20678   4.353   2.383   3.901  0.1306  2.0505  4.3166
  157MOL0     H20679   4.329   2.222   3.950  0.8787  0.1507  1.0038
  157MOL0     H20680   4.175   2.385   4.079  0.8507  0.5918  0.1803
  157MOL0     H20681   4.069   2.293   3.969 -2.0949  1.4690 -0.7069
  157MOL0     H20682   4.171   2.569   3.897 -0.6084  1.6961 -1.0431
  157MOL0     H20683   4.092   2.459   3.791 -1.4001 -0.5143  0.3483
  157MOL0     H20684   3.939   2.613   3.860  2.1832  2.5067  1.9978
  157MOL0     H20685   3.946   2.554   4.028 -1.9701 -1.9160  0.0561
  157MOL0     H20686   3.842   2.157   3.839  0.7995 -0.6201 -0.2682
  157MOL0     H20687   3.865   2.065   3.635 -3.5779 -0.7865 -2.5165
  157MOL0     H20688   4.045   2.036   3.209  0.6717 -0.2135 -2.2815
  157MOL0     H20689   4.077   1.878   3.020 -0.5691 -1.3526 -0.1781
  157MOL0     H20690   3.769   1.612   2.777 -1.4272 -1.2028  0.9894
  157MOL0     H20691   3.673   1.657   2.914 -1.4020 -1.8613  0.8693
  157MOL0     H20692   3.815   1.493   3.052 -3.7070 -0.6583  0.1133
  157MOL0     H20693   3.901   1.450   2.900 -1.1080 -1.8224 -1.7697
  157MOL0     H20694   3.707   1.350   2.805 -0.8273  0.0328 -0.1078
  157MOL0     H20695   3.600   1.441   2.905  0.9465  1.7099 -1.1622
  157MOL0     H20696   3.810   1.252   3.029  0.1462 -0.1468 -0.4976
  157MOL0     H20697   3.672   1.299   3.109  1.8621  1.4709  1.1136
  157MOL0     H20698   3.641   1.062   3.037 -2.0279 -1.8949 -2.0140
  157MOL0     H20699   3.682   1.097   2.874  1.1115  1.2031 -0.3168
  157MOL0     H20700   3.491   1.254   2.853  1.2676 -0.3855 -1.1721
  157MOL0     H20701   3.447   1.206   3.020  0.4772 -0.4517 -0.3879
  157MOL0     H20702   3.441   0.967   2.961 -0.8221 -1.2147 -1.8925
  157MOL0     H20703   3.309   1.066   2.897  0.0599 -1.7213  0.3213
  157MOL0     H20704   3.554   0.989   2.740 -0.0079  0.9091  1.3333
  157MOL0     H20705   3.429   1.080   2.668  1.0175  1.6235  1.9573
  157MOL0     H20706   3.686   1.715   3.109 -0.4542  0.6452 -2.1757
  157MOL0     H20707   3.668   1.871   3.297 -0.2446  0.7235 -0.4720
  157MOL0     H20708   3.858   2.436   3.430  0.8760 -0.8731 -1.1699
  157MOL0     H20709   3.851   2.551   3.651 -0.4942  0.1293 -0.2560
  157MOL0     H20710   5.351   2.669   3.209  2.6533  2.1021  0.2749
  157MOL0     H20711   5.592   2.674   3.186 -1.4598  1.0891 -1.4232
  157MOL0     H20712   5.928   2.425   2.807 -1.3937 -0.9583  2.8246
  157MOL0     H20713   6.167   2.441   2.773 -0.2817  1.3989 -1.3116
  157MOL0     H20714   6.350   2.527   2.781  0.2983 -0.4523  0.8753
  157MOL0     H20715   6.431   2.371   2.843  2.3492  0.3800  0.8007
  157MOL0     H20716   6.600   2.515   2.743  3.6986 -2.6033  2.3160
  157MOL0     H20717   6.537   2.639   2.876 -0.0751  0.4222  0.4573
  157MOL0     H20718   6.675   2.380   2.926 -0.8840 -0.3503  2.2851
  157MOL0     H20719   6.604   2.492   3.050  1.3345  2.2564  1.4683
  157MOL0     H20720   6.816   2.574   2.841  0.7690 -1.1201  0.6462
  157MOL0     H20721   6.763   2.676   2.975  3.4128  0.7139 -0.7519
  157MOL0     H20722   7.071   2.466   3.139  0.5026 -1.4277 -0.5634
  157MOL0     H20723   6.221   2.529   3.187  0.7608 -1.7152 -0.1429
  157MOL0     H20724   5.971   2.513   3.218 -0.6260 -0.8153 -0.6551
  158MOL0     O20725   7.327   7.597   2.726  0.0551 -0.0123 -0.2099
  158MOL0     C20726   7.403   7.590   2.632  1.0706 -0.2596 -0.3354
  158MOL0     O20727   7.378   7.544   2.505 -0.0147 -0.3618 -0.4309
  158MOL0     C20728   7.249   7.526   2.455  0.0984 -0.1729 -1.8886
  158MOL0     C20729   7.130   7.598   2.489 -0.1086 -0.1106 -1.1155
  158MOL0     C20730   7.013   7.586   2.411 -0.6563  0.1481  0.1108
  158MOL0     C20731   7.012   7.514   2.292 -0.3315  0.6453  0.4873
  158MOL0     O20732   6.912   7.542   2.207  0.2604  0.3038 -0.7322
  158MOL0     C20733   6.856   7.427   2.146  0.4204 -0.7408  0.1237
  158MOL0     C20734   6.711   7.405   2.202 -0.0461  0.5096  0.5345
  158MOL0     C20735   6.605   7.506   2.144  0.2896  0.8620  1.0373
  158MOL0     C20736   6.568   7.462   2.003  0.0336 -0.3079 -0.1046
  158MOL0     C20737   6.494   7.579   1.930  0.9084  0.4810  0.6713
  158MOL0     C20738   6.431   7.529   1.794  0.0407  0.4165  0.4656
  158MOL0     C20739   6.337   7.415   1.818  0.6911  0.3116  0.9536
  158MOL0     C20740   6.199   7.464   1.872  0.9724  1.2841 -0.0300
  158MOL0     N20741   6.094   7.516   1.775 -0.1922 -0.0457 -0.3016
  158MOL0     C20742   6.105   7.641   1.714  1.2415  0.2353  0.5389
  158MOL0     C20743   5.991   7.655   1.643  1.1815 -0.2764 -0.7531
  158MOL0     C20744   5.936   7.773   1.565 -0.2786 -0.3829 -0.1366
  158MOL0     C20745   5.806   7.841   1.623  0.3859  0.6138  0.3579
  158MOL0     C20746   5.775   7.977   1.563  0.4074  0.2324 -0.4718
  158MOL0     C20747   5.771   7.982   1.413 -0.4604  0.4692  0.0196
  158MOL0     O20748   5.699   7.869   1.362 -0.4437 -0.0356  0.8461
  158MOL0     C20749   5.577   7.893   1.317 -0.1447  0.5201 -0.6313
  158MOL0     C20750   5.467   7.902   1.400  0.6369  0.0492 -1.0910
  158MOL0     C20751   5.346   7.947   1.342  0.4432 -0.2364 -0.0680
  158MOL0     C20752   5.322   7.967   1.215 -0.8395 -0.8676 -0.1264
  158MOL0     C20753   5.188   8.009   1.176  1.0925 -0.0890  0.2022
  158MOL0     O20754   5.177   8.043   1.045 -0.1469 -0.9036 -0.0215
  158MOL0     C20755   5.065   8.079   0.973  0.8142  0.3592 -0.4664
  158MOL0     C20756   4.934   8.088   1.021 -0.3038 -0.4250  1.0702
  158MOL0     C20757   4.826   8.128   0.931 -0.2069  0.2910  0.1266
  158MOL0     C20758   4.853   8.154   0.798 -0.6732  0.3976 -0.4141
  158MOL0     O20759   4.758   8.184   0.702  0.3954 -0.2388 -0.0186
  158MOL0     C20760   4.657   8.274   0.746 -0.5546  0.1565 -1.1642
  158MOL0     C20761   4.589   8.325   0.619  0.8135 -1.0775 -0.1553
  158MOL0     C20762   4.455   8.381   0.657  0.0029 -0.4490 -0.5302
  158MOL0     C20763   4.450   8.485   0.772  0.2126 -0.2855 -0.4528
  158MOL0     C20764   4.315   8.549   0.761  1.0661 -0.6863 -0.4682
  158MOL0     C20765   4.322   8.674   0.843 -0.5152  0.1409  0.5498
  158MOL0     C20766   4.183   8.739   0.844 -0.3718  0.2097 -0.2391
  158MOL0     C20767   4.169   8.847   0.954  0.5588 -0.2505 -0.3128
  158MOL0    Cl20768   4.010   8.834   1.027 -0.1213 -0.3322 -0.4051
  158MOL0     C20769   4.982   8.142   0.753 -0.9109 -0.1226  0.3514
  158MOL0     C20770   5.093   8.117   0.837  0.3167 -0.6688  0.6633
  158MOL0     O20771   5.093   8.005   1.254 -0.9560 -0.8162 -0.2206
  158MOL0     C20772   5.433   7.969   1.131  0.1939 -0.2273 -0.6727
  158MOL0     C20773   5.569   7.932   1.187 -0.0666  0.5897  0.5195
  158MOL0     N20774   5.927   7.533   1.659  0.4675  0.1617  0.5724
  158MOL0     N20775   5.983   7.448   1.749 -0.0915  0.1731  0.4962
  158MOL0     C20776   7.129   7.442   2.256 -0.0078  1.0771 -0.1425
  158MOL0     C20777   7.243   7.456   2.333  0.2954  1.4247 -1.1118
  158MOL0     C20778   7.538   7.632   2.661  0.1573  0.1877 -0.8509
  158MOL0     C20779   7.636   7.605   2.572 -0.4185  0.9170 -0.6544
  158MOL0     C20780   7.774   7.646   2.591  0.2643  0.5547  0.5991
  158MOL0     C20781   7.813   7.719   2.702  0.3022  0.4176  0.4880
  158MOL0     O20782   7.934   7.759   2.735  0.2920 -0.6630  0.0883
  158MOL0     C20783   8.055   7.703   2.672 -0.3605 -0.6195 -0.6689
  158MOL0     C20784   8.183   7.739   2.737 -0.4880  0.0175 -0.7089
  158MOL0     C20785   8.305   7.712   2.648 -0.2030 -0.3894  0.1573
  158MOL0     C20786   8.429   7.668   2.714 -0.0109  0.8805  0.5882
  158MOL0     C20787   8.487   7.784   2.778  0.2044 -1.3180  1.1796
  158MOL0     C20788   8.534   7.885   2.832 -0.3528 -0.2545 -0.0256
  158MOL0     C20789   7.718   7.744   2.804  0.8034  0.0879 -0.6351
  158MOL0     C20790   7.584   7.708   2.770  0.0801 -0.5575 -0.8254
  158MOL0     H20791   7.142   7.657   2.579  1.1842 -1.8963 -0.0312
  158MOL0     H20792   6.936   7.660   2.431 -0.4746 -0.1058  1.9215
  158MOL0     H20793   6.920   7.339   2.144  0.5700 -0.6434 -1.7994
  158MOL0     H20794   6.846   7.456   2.040 -3.0839 -0.6517  0.3535
  158MOL0     H20795   6.705   7.424   2.310 -5.7046  3.4862  0.0814
  158MOL0     H20796   6.669   7.306   2.181  1.0549  0.4263 -1.4373
  158MOL0     H20797   6.647   7.607   2.144 -0.5739  1.2324  1.5176
  158MOL0     H20798   6.525   7.519   2.218  0.6545  2.5250  1.1934
  158MOL0     H20799   6.659   7.437   1.949 -1.1659 -1.5359 -1.6381
  158MOL0     H20800   6.500   7.377   2.010 -1.3513  0.7992  0.4075
  158MOL0     H20801   6.565   7.656   1.898 -0.0886  0.6945 -1.1822
  158MOL0     H20802   6.409   7.612   1.990 -1.0323 -0.8382 -1.2188
  158MOL0     H20803   6.514   7.503   1.728 -0.4234 -0.9220  0.3836
  158MOL0     H20804   6.383   7.612   1.741  3.6615  1.7091 -1.0818
  158MOL0     H20805   6.311   7.366   1.723  0.8706 -0.5689  1.3465
  158MOL0     H20806   6.374   7.327   1.871  0.0330 -2.5951 -2.9847
  158MOL0     H20807   6.211   7.537   1.953 -0.2237 -0.8556  2.2323
  158MOL0     H20808   6.154   7.378   1.922  0.8057  1.5089  0.2111
  158MOL0     H20809   6.187   7.711   1.716  0.4600  1.2234  3.8607
  158MOL0     H20810   5.906   7.747   1.463  1.1236  0.9804 -0.9574
  158MOL0     H20811   6.027   7.834   1.558  1.4367 -2.8681 -1.3555
  158MOL0     H20812   5.811   7.855   1.731 -0.1442  0.2072  0.4391
  158MOL0     H20813   5.724   7.770   1.609  3.2665 -3.6099  2.8925
  158MOL0     H20814   5.673   7.994   1.599  1.3420 -0.4096  2.8184
  158MOL0     H20815   5.848   8.053   1.592 -1.2763  1.1651  1.6246
  158MOL0     H20816   5.872   7.992   1.373  0.0687  1.3216  1.4795
  158MOL0     H20817   5.730   8.077   1.376 -0.6472  0.9619  1.4292
  158MOL0     H20818   5.476   7.889   1.507 -0.0532  0.2577 -1.0003
  158MOL0     H20819   5.265   7.966   1.412  0.8357 -0.5050  0.4736
  158MOL0     H20820   4.902   8.035   1.110 -0.1208 -0.9585  0.8222
  158MOL0     H20821   4.724   8.123   0.968  0.7158  2.2621  3.3473
  158MOL0     H20822   4.696   8.351   0.813  0.2305  0.5238 -2.0197
  158MOL0     H20823   4.583   8.210   0.795  1.5265 -0.3358  1.5910
  158MOL0     H20824   4.562   8.257   0.537  0.3575  2.1576 -2.9099
  158MOL0     H20825   4.641   8.407   0.568 -4.0184  1.1962 -2.0425
  158MOL0     H20826   4.384   8.300   0.675 -1.7490  0.0876 -4.1247
  158MOL0     H20827   4.424   8.437   0.568  1.5303  1.3861  0.0337
  158MOL0     H20828   4.472   8.448   0.872  1.6414  0.5316 -0.4390
  158MOL0     H20829   4.525   8.562   0.753  0.1060 -0.3666 -1.2512
  158MOL0     H20830   4.245   8.480   0.809 -0.3302  0.5387 -0.6790
  158MOL0     H20831   4.281   8.565   0.659  5.3020  0.0610 -1.9608
  158MOL0     H20832   4.389   8.748   0.798 -0.5022 -0.3849 -0.3337
  158MOL0     H20833   4.352   8.641   0.942  2.0864  1.4082  0.2614
  158MOL0     H20834   4.163   8.774   0.742 -0.5781  0.8660  0.0214
  158MOL0     H20835   4.110   8.660   0.864 -0.3624  0.3722  0.4739
  158MOL0     H20836   4.181   8.945   0.907 -3.0382 -0.1121 -1.2513
  158MOL0     H20837   4.250   8.822   1.022  0.9198 -2.6793 -1.5061
  158MOL0     H20838   5.003   8.164   0.649 -1.1994  2.0487  0.6962
  158MOL0     H20839   5.187   8.113   0.782  0.2590 -0.5129  0.5548
  158MOL0     H20840   5.410   7.999   1.029 -1.5429  2.7794  0.4752
  158MOL0     H20841   5.656   7.943   1.124  0.4454 -0.9848  0.9198
  158MOL0     H20842   7.135   7.394   2.160 -0.5060  2.5389 -0.9413
  158MOL0     H20843   7.338   7.422   2.292  0.9437  2.8067 -0.8064
  158MOL0     H20844   7.627   7.535   2.489  0.5696  1.2337 -1.0393
  158MOL0     H20845   7.844   7.602   2.522  1.1948  0.9434  1.2753
  158MOL0     H20846   8.064   7.742   2.570  3.8979  2.4618  0.6260
  158MOL0     H20847   8.048   7.595   2.655  3.0051 -0.9915 -0.3371
  158MOL0     H20848   8.177   7.843   2.770  0.5453 -0.8526  2.6194
  158MOL0     H20849   8.191   7.674   2.825  1.0787  0.1494 -0.7204
  158MOL0     H20850   8.313   7.801   2.584  1.6472 -0.8430 -0.3018
  158MOL0     H20851   8.283   7.621   2.590  0.6248  0.0301 -0.8505
  158MOL0     H20852   8.408   7.584   2.781  1.1655  1.7923  2.1590
  158MOL0     H20853   8.498   7.639   2.635 -2.2916 -0.4605 -1.0470
  158MOL0     H20854   8.580   7.973   2.873  3.0405 -0.9759 -1.8530
  158MOL0     H20855   7.747   7.788   2.899 -2.0529 -2.4576  1.6031
  158MOL0     H20856   7.502   7.722   2.840  3.2824 -0.5149  3.3570
  159MOL0     O20857   5.997   3.257   2.705 -0.6322  0.1509  0.6655
  159MOL0     C20858   6.029   3.374   2.749 -0.8253  0.1203  0.1381
  159MOL0     O20859   5.948   3.474   2.774  0.2313 -0.8455  0.2416
  159MOL0     C20860   5.814   3.460   2.772 -0.2098 -0.3836 -0.1947
  159MOL0     C20861   5.746   3.528   2.665  0.3237  0.4519 -0.0636
  159MOL0     C20862   5.604   3.532   2.655 -0.1448  0.8602 -0.3006
  159MOL0     C20863   5.535   3.433   2.733 -0.5377 -1.0992 -0.1499
  159MOL0     O20864   5.396   3.442   2.718  0.0825  0.1355 -0.9225
  159MOL0     C20865   5.327   3.324   2.756  0.2994 -0.6160  0.1152
  159MOL0     C20866   5.176   3.324   2.729 -0.1605  0.2239 -0.4975
  159MOL0     C20867   5.118   3.207   2.823  0.3949  0.4354 -0.4391
  159MOL0     C20868   4.990   3.150   2.769  0.2318  0.0478  0.3424
  159MOL0     C20869   4.893   3.262   2.770  0.6201  0.5240 -0.2366
  159MOL0     C20870   4.751   3.193   2.761  0.5139  0.1303  0.7868
  159MOL0     C20871   4.634   3.283   2.794  0.5577  0.0211  0.1740
  159MOL0     C20872   4.506   3.194   2.794 -0.0257 -0.7778  0.0657
  159MOL0     N20873   4.382   3.268   2.790 -0.0257  0.2626 -0.2707
  159MOL0     C20874   4.314   3.307   2.900  1.0251 -0.3534  0.2300
  159MOL0     C20875   4.197   3.357   2.854 -1.3987  0.2802 -0.3038
  159MOL0     C20876   4.096   3.418   2.934 -0.5277  0.0341 -0.2399
  159MOL0     C20877   4.138   3.545   3.007 -0.3496  0.2433  0.6520
  159MOL0     C20878   4.010   3.609   3.060 -0.2063 -0.2662  0.6868
  159MOL0     C20879   4.035   3.751   3.118 -0.1950  0.4892 -0.6798
  159MOL0     O20880   4.093   3.737   3.248 -1.1587 -0.2771 -0.3632
  159MOL0     C20881   4.063   3.821   3.352  0.7017 -0.4671 -0.2779
  159MOL0     C20882   3.986   3.940   3.330  0.7226 -0.5887 -0.1055
  159MOL0     C20883   3.956   4.016   3.448  0.1322  0.7696  0.5883
  159MOL0     C20884   3.960   3.968   3.574 -1.1953 -0.6151  0.1020
  159MOL0     C20885   3.909   4.049   3.689 -0.6911 -0.3606 -0.5431
  159MOL0     O20886   3.876   4.186   3.657  0.3626 -1.0706 -1.2610
  159MOL0     C20887   3.802   4.256   3.748 -0.5739 -0.6398  0.7525
  159MOL0     C20888   3.818   4.403   3.745  0.1335 -0.1166  0.5242
  159MOL0     C20889   3.736   4.485   3.819  0.2076  0.1223  0.8022
  159MOL0     C20890   3.655   4.432   3.913 -0.2331  0.2522 -0.5565
  159MOL0     O20891   3.568   4.507   3.980  0.2148 -0.1265  0.4478
  159MOL0     C20892   3.592   4.528   4.122  0.0237 -0.8468  0.2621
  159MOL0     C20893   3.706   4.624   4.154 -0.4014  0.0434 -0.5721
  159MOL0     C20894   3.700   4.758   4.081  0.0914  0.2492 -0.0260
  159MOL0     C20895   3.809   4.877   4.118  0.5296 -0.1039  0.5711
  159MOL0     C20896   3.950   4.830   4.104  0.2208 -0.5651 -0.1199
  159MOL0     C20897   4.010   4.805   3.969 -0.0219  0.0586  0.0096
  159MOL0     C20898   4.151   4.738   3.992 -0.1661  0.3657 -0.4949
  159MOL0     C20899   4.244   4.719   3.868 -0.9582  0.1470 -0.5604
  159MOL0    Cl20900   4.220   4.562   3.789 -0.0532  0.0488  0.3776
  159MOL0     C20901   3.654   4.292   3.932 -0.1597 -0.2702 -0.3635
  159MOL0     C20902   3.726   4.202   3.854  0.3308 -0.6571 -0.5712
  159MOL0     O20903   3.915   3.995   3.797 -0.5239 -0.1691  0.1212
  159MOL0     C20904   4.037   3.851   3.589 -0.3027 -0.0532  0.2001
  159MOL0     C20905   4.081   3.771   3.485  0.0589  0.4151  0.6412
  159MOL0     N20906   4.192   3.337   2.718 -0.8202  0.1041  0.1731
  159MOL0     N20907   4.308   3.295   2.678  0.2448  0.0351  0.5213
  159MOL0     C20908   5.602   3.360   2.831  0.1559 -1.0104  0.0697
  159MOL0     C20909   5.738   3.380   2.851  0.6942  0.0042 -0.7569
  159MOL0     C20910   6.170   3.420   2.742 -0.4547 -0.7437  0.3649
  159MOL0     C20911   6.217   3.537   2.807  0.1536 -0.3036  0.0356
  159MOL0     C20912   6.355   3.545   2.818  0.4640 -0.1216  0.0658
  159MOL0     C20913   6.446   3.465   2.770 -0.4270  0.9448 -0.1175
  159MOL0     O20914   6.582   3.492   2.793 -0.3952 -0.3119  0.5286
  159MOL0     C20915   6.682   3.411   2.730 -0.6818  0.2135 -0.3320
  159MOL0     C20916   6.800   3.505   2.711 -0.9528 -0.8611  0.0101
  159MOL0     C20917   6.867   3.547   2.843  0.9629  0.7092 -0.0606
  159MOL0     C20918   7.008   3.610   2.819 -0.7450  0.5331  0.3319
  159MOL0     C20919   7.046   3.730   2.905 -0.9190  0.2672  0.5098
  159MOL0     C20920   7.078   3.824   2.974 -0.3563  0.5328  0.3974
  159MOL0     C20921   6.404   3.354   2.704  0.5627 -0.4841 -0.0595
  159MOL0     C20922   6.262   3.331   2.680  0.1190 -0.4203 -0.8958
  159MOL0     H20923   5.815   3.583   2.603  2.2175 -2.4100 -0.7233
  159MOL0     H20924   5.544   3.580   2.578  1.1614 -0.6285 -2.3588
  159MOL0     H20925   5.340   3.316   2.864 -0.6191  2.1366  0.4890
  159MOL0     H20926   5.377   3.239   2.707  1.9547 -0.9954  2.2984
  159MOL0     H20927   5.161   3.297   2.624 -3.2854  0.7784 -0.3012
  159MOL0     H20928   5.128   3.418   2.757 -2.1283 -1.2253  1.3676
  159MOL0     H20929   5.109   3.236   2.928  0.8370 -0.3822 -0.1652
  159MOL0     H20930   5.183   3.119   2.811 -1.5454 -1.2157  0.4887
  159MOL0     H20931   5.007   3.125   2.664  2.6352 -0.3293  0.7513
  159MOL0     H20932   4.971   3.064   2.833  2.9203  0.0727  1.3171
  159MOL0     H20933   4.901   3.317   2.676  3.6053  0.5178 -0.0751
  159MOL0     H20934   4.890   3.325   2.859  1.6138  0.9088 -0.4555
  159MOL0     H20935   4.758   3.117   2.839  0.4155 -0.1701  0.5044
  159MOL0     H20936   4.749   3.155   2.658 -3.6746  0.2138  0.6734
  159MOL0     H20937   4.655   3.338   2.886  0.1940 -0.7132  0.7112
  159MOL0     H20938   4.631   3.361   2.718  0.4366 -1.8746 -1.8769
  159MOL0     H20939   4.511   3.144   2.891  2.0372  2.4267  1.8038
  159MOL0     H20940   4.501   3.123   2.712 -2.3310  0.4413 -0.9442
  159MOL0     H20941   4.349   3.307   3.003  2.3318  2.1230 -0.1373
  159MOL0     H20942   4.068   3.343   3.009 -1.6267  0.7470  0.0920
  159MOL0     H20943   4.010   3.442   2.872 -2.4215  0.0201  2.2169
  159MOL0     H20944   4.186   3.617   2.940 -2.2778  2.4343  1.4938
  159MOL0     H20945   4.214   3.528   3.084  0.9151  0.6006 -0.4722
  159MOL0     H20946   3.957   3.620   2.965  1.4829  0.2090 -0.2564
  159MOL0     H20947   3.945   3.554   3.129 -2.7918  1.9223  0.1839
  159MOL0     H20948   3.936   3.796   3.125 -2.7294 -4.2712 -1.8699
  159MOL0     H20949   4.095   3.816   3.054 -0.7877  1.5113 -0.2139
  159MOL0     H20950   3.949   3.988   3.240 -0.1154 -0.9033  0.0623
  159MOL0     H20951   3.925   4.119   3.435  1.3318  1.2073  1.0217
  159MOL0     H20952   3.881   4.446   3.668 -1.5813 -1.0513 -1.4938
  159MOL0     H20953   3.744   4.591   3.797  1.1069 -0.3787 -1.5397
  159MOL0     H20954   3.595   4.428   4.167  2.3518 -0.8503  0.2638
  159MOL0     H20955   3.503   4.573   4.165 -0.3300 -1.5465  0.2818
  159MOL0     H20956   3.804   4.592   4.117 -0.0055  0.4892  0.0759
  159MOL0     H20957   3.709   4.623   4.263  0.6850 -0.5180 -0.5956
  159MOL0     H20958   3.595   4.783   4.095  0.0288 -0.6124  1.2116
  159MOL0     H20959   3.706   4.749   3.972  0.3641  0.9437 -0.0781
  159MOL0     H20960   3.786   4.961   4.051 -1.3022 -0.7705  0.3087
  159MOL0     H20961   3.794   4.907   4.222  0.3927  1.7632  0.0639
  159MOL0     H20962   3.965   4.741   4.166  0.0777 -0.1770  0.4771
  159MOL0     H20963   4.000   4.904   4.167 -3.6353  0.3704  2.2132
  159MOL0     H20964   4.028   4.891   3.903 -1.4238 -0.6407 -1.3597
  159MOL0     H20965   3.944   4.751   3.900  2.4166  1.9789 -4.2398
  159MOL0     H20966   4.197   4.809   4.062  3.9092 -2.5129  0.1290
  159MOL0     H20967   4.139   4.641   4.039  1.2118 -0.7065 -2.2221
  159MOL0     H20968   4.350   4.738   3.890 -0.8893  1.0874 -1.5846
  159MOL0     H20969   4.209   4.792   3.795 -0.9056 -1.4796 -2.2874
  159MOL0     H20970   3.584   4.262   4.009  1.1112 -1.1404  0.5099
  159MOL0     H20971   3.725   4.095   3.872  1.8406 -1.0925 -2.7366
  159MOL0     H20972   4.049   3.818   3.692 -4.7782 -0.3439  0.8098
  159MOL0     H20973   4.127   3.672   3.490 -1.2854 -0.4095 -1.7209
  159MOL0     H20974   5.541   3.319   2.911 -0.5421  1.4264  0.8704
  159MOL0     H20975   5.781   3.321   2.931  0.6256  0.0078 -0.7173
  159MOL0     H20976   6.142   3.600   2.855 -2.8464 -2.8672 -0.9568
  159MOL0     H20977   6.382   3.619   2.892 -2.5014  0.2204  0.9444
  159MOL0     H20978   6.644   3.384   2.632 -1.3505 -3.2505  0.7544
  159MOL0     H20979   6.714   3.320   2.782  0.9240  0.1423 -1.3546
  159MOL0     H20980   6.878   3.459   2.649  0.9638  1.2851  0.6702
  159MOL0     H20981   6.752   3.589   2.662 -2.5283 -1.4763  0.4476
  159MOL0     H20982   6.884   3.461   2.909  4.8218  1.7810  0.6084
  159MOL0     H20983   6.798   3.619   2.888 -3.6478 -1.0746 -3.4997
  159MOL0     H20984   7.082   3.529   2.811 -0.0758  0.9838  1.6957
  159MOL0     H20985   7.006   3.654   2.719  1.1885  2.4960  1.0760
  159MOL0     H20986   7.116   3.889   3.051 -0.6995  0.5114  0.5858
  159MOL0     H20987   6.467   3.276   2.663 -0.5818 -0.3918 -2.1235
  159MOL0     H20988   6.226   3.245   2.625  0.1137  0.6324 -2.6021
  160MOL0     O20989   7.603   5.110   1.073 -0.4680 -0.5787 -0.1546
  160MOL0     C20990   7.603   5.049   0.970  0.3759  0.1798  0.2381
  160MOL0     O20991   7.494   4.998   0.906  1.0092 -0.2681 -0.4824
  160MOL0     C20992   7.363   4.989   0.947  0.6629 -1.0775 -0.5489
  160MOL0     C20993   7.267   4.935   0.863 -0.3936 -1.1527  0.2026
  160MOL0     C20994   7.135   4.918   0.900 -1.6529  0.2306 -0.0181
  160MOL0     C20995   7.092   4.972   1.018  0.0647 -0.9135  0.3644
  160MOL0     O20996   6.964   4.963   1.065 -0.4284 -0.1679 -0.0602
  160MOL0     C20997   6.860   4.957   0.965 -1.2902  0.3283 -0.3172
  160MOL0     C20998   6.727   4.986   1.031  0.2249  0.4243  0.4672
  160MOL0     C20999   6.649   4.885   1.104  0.3220  0.1390 -0.0865
  160MOL0     C21000   6.551   4.956   1.202 -0.1424  0.2530 -0.5866
  160MOL0     C21001   6.460   4.860   1.280  0.0236  0.7812 -0.3850
  160MOL0     C21002   6.326   4.847   1.227 -0.3540  0.1312  0.0810
  160MOL0     C21003   6.326   4.724   1.139 -0.5294  0.7118  0.7679
  160MOL0     C21004   6.198   4.699   1.055 -0.4552  0.0187 -1.2342
  160MOL0     N21005   6.094   4.659   1.146  0.5140  0.0242 -0.0600
  160MOL0     C21006   6.018   4.730   1.240 -0.2406  0.3682  1.5737
  160MOL0     C21007   5.924   4.652   1.291  0.1063  0.6011 -0.0308
  160MOL0     C21008   5.813   4.687   1.385 -0.2601 -0.5825 -0.7541
  160MOL0     C21009   5.856   4.755   1.523  0.1988  0.2223 -0.5841
  160MOL0     C21010   5.910   4.649   1.620 -0.5896 -0.6336 -0.5314
  160MOL0     C21011   6.049   4.595   1.585  0.1604  0.8129  0.0186
  160MOL0     O21012   6.150   4.696   1.625  0.8904 -0.2064  0.5179
  160MOL0     C21013   6.282   4.684   1.598 -0.1334 -0.7582  0.7530
  160MOL0     C21014   6.369   4.790   1.642  0.0471 -0.2218  0.2312
  160MOL0     C21015   6.514   4.777   1.633  0.4946 -0.2433 -0.0084
  160MOL0     C21016   6.568   4.671   1.571 -0.0282  0.3817  0.4270
  160MOL0     C21017   6.720   4.669   1.567  0.2715  0.0534 -0.1249
  160MOL0     O21018   6.773   4.564   1.499  0.0449  0.1386 -0.1583
  160MOL0     C21019   6.905   4.549   1.481  1.0889 -1.0648  0.1526
  160MOL0     C21020   6.951   4.421   1.469  0.4074 -0.1156 -1.3232
  160MOL0     C21021   7.083   4.395   1.445  0.3478 -0.4009  0.4739
  160MOL0     C21022   7.175   4.503   1.428  0.7712  0.4678  0.0656
  160MOL0     O21023   7.306   4.489   1.393  0.3641  0.3350  0.0275
  160MOL0     C21024   7.343   4.361   1.333  0.2640  0.1796 -0.6117
  160MOL0     C21025   7.389   4.265   1.445 -0.7775  0.1001 -0.1968
  160MOL0     C21026   7.543   4.266   1.475 -1.0668 -0.8908 -0.0238
  160MOL0     C21027   7.591   4.414   1.491  0.2786  0.2103 -0.6921
  160MOL0     C21028   7.727   4.435   1.560  0.2133 -0.1767  0.5746
  160MOL0     C21029   7.842   4.394   1.460 -0.3651 -0.4436 -0.8396
  160MOL0     C21030   7.976   4.372   1.531  0.3282  0.8151 -0.5281
  160MOL0     C21031   8.020   4.225   1.517 -0.3138 -0.2143  0.2395
  160MOL0    Cl21032   8.187   4.208   1.612 -0.1613  0.2514 -0.1724
  160MOL0     C21033   7.121   4.632   1.431 -0.3389 -0.2782 -0.1464
  160MOL0     C21034   6.985   4.653   1.454 -0.5101 -0.0019  0.1697
  160MOL0     O21035   6.789   4.747   1.634 -0.0613  0.4807  0.2843
  160MOL0     C21036   6.491   4.573   1.517  0.2253  0.0587 -0.8330
  160MOL0     C21037   6.346   4.576   1.528 -0.2516 -0.0430 -0.0477
  160MOL0     N21038   5.942   4.521   1.236 -1.3574  0.2753 -0.6355
  160MOL0     N21039   6.044   4.525   1.155  0.2515  0.0025 -0.5963
  160MOL0     C21040   7.181   5.038   1.109 -0.2272  0.8457 -0.9012
  160MOL0     C21041   7.316   5.043   1.073  0.8684  0.1740  0.9085
  160MOL0     C21042   7.729   5.007   0.910  0.3614 -1.0913  0.5427
  160MOL0     C21043   7.852   5.029   0.982  0.4415 -1.0737  0.4107
  160MOL0     C21044   7.976   5.002   0.924  0.0231 -0.8179 -0.3017
  160MOL0     C21045   7.983   4.962   0.792  0.5061 -0.5430  0.2504
  160MOL0     O21046   8.096   4.936   0.721  0.4207 -0.0567  0.1029
  160MOL0     C21047   8.225   4.950   0.799 -0.1954  0.6770 -0.1879
  160MOL0     C21048   8.265   5.098   0.806 -0.3009  0.5621 -0.4835
  160MOL0     C21049   8.365   5.118   0.921  0.1830  0.3787 -0.3506
  160MOL0     C21050   8.437   5.248   0.920  0.2332  0.4208  1.1172
  160MOL0     C21051   8.557   5.230   1.005 -0.1635  0.5865 -0.6980
  160MOL0     C21052   8.650   5.232   1.079  0.1021 -0.9920  2.3663
  160MOL0     C21053   7.866   4.933   0.727 -0.1532  1.2703  0.2509
  160MOL0     C21054   7.738   4.957   0.779 -0.6242  0.1308  1.0505
  160MOL0     H21055   7.301   4.913   0.762  2.7331 -0.6196  1.0663
  160MOL0     H21056   7.063   4.874   0.831  1.8746 -1.6636 -2.7896
  160MOL0     H21057   6.844   4.856   0.926  0.3136  0.4658 -1.3965
  160MOL0     H21058   6.868   5.026   0.881  1.3494  0.8623  0.2774
  160MOL0     H21059   6.657   5.024   0.956 -0.8206  0.2463  1.3436
  160MOL0     H21060   6.738   5.068   1.102 -0.6499 -0.6889  1.9270
  160MOL0     H21061   6.718   4.817   1.155 -0.6957 -3.5285 -3.1813
  160MOL0     H21062   6.590   4.826   1.033  0.6466  0.7122 -0.8481
  160MOL0     H21063   6.602   5.018   1.276 -1.9588  1.9243 -0.6504
  160MOL0     H21064   6.482   5.021   1.147 -2.4173 -3.0448 -1.9792
  160MOL0     H21065   6.451   4.904   1.380 -3.3850 -0.3852 -0.0302
  160MOL0     H21066   6.502   4.763   1.305 -3.4388  0.1468  4.2923
  160MOL0     H21067   6.303   4.940   1.175 -0.9671  0.4774  0.9481
  160MOL0     H21068   6.261   4.828   1.313 -0.4992  0.3747  0.0260
  160MOL0     H21069   6.401   4.742   1.062 -0.5927  0.9360  0.7593
  160MOL0     H21070   6.350   4.630   1.190 -0.0999  0.9669  1.0455
  160MOL0     H21071   6.225   4.617   0.987  1.4830 -0.5458  0.1428
  160MOL0     H21072   6.178   4.796   1.010 -1.7962  1.8004  2.7905
  160MOL0     H21073   6.034   4.837   1.248 -3.1636  1.5988 -4.1659
  160MOL0     H21074   5.756   4.599   1.414 -2.6003  0.4143 -2.0544
  160MOL0     H21075   5.750   4.761   1.335  3.9377  4.1509  0.0534
  160MOL0     H21076   5.767   4.803   1.567 -0.3480  1.0057 -2.4630
  160MOL0     H21077   5.928   4.835   1.505 -0.2718  0.4505 -1.5225
  160MOL0     H21078   5.919   4.685   1.723 -1.2849 -2.0187  0.0518
  160MOL0     H21079   5.839   4.565   1.621 -1.3088 -0.0521 -1.0861
  160MOL0     H21080   6.049   4.572   1.478 -4.5008  1.0487 -0.2511
  160MOL0     H21081   6.057   4.497   1.634 -0.8260  1.5868  1.7966
  160MOL0     H21082   6.324   4.881   1.681  2.9830  1.3838  0.1801
  160MOL0     H21083   6.561   4.849   1.699 -1.2880  0.5153  0.5009
  160MOL0     H21084   6.880   4.339   1.472  0.7166 -0.4788 -2.9598
  160MOL0     H21085   7.115   4.292   1.434 -1.8657 -1.2678  1.5330
  160MOL0     H21086   7.420   4.367   1.255  0.2253 -0.0828 -0.6706
  160MOL0     H21087   7.254   4.332   1.277  0.9683  3.4220 -3.8132
  160MOL0     H21088   7.363   4.162   1.416  2.8133 -0.5298 -1.6620
  160MOL0     H21089   7.347   4.303   1.539  0.0494  0.7983 -0.0951
  160MOL0     H21090   7.605   4.223   1.396  0.5611 -1.8937  1.7033
  160MOL0     H21091   7.563   4.203   1.563 -0.1161 -1.6313 -0.7515
  160MOL0     H21092   7.605   4.470   1.398  3.4517  3.1071  1.2929
  160MOL0     H21093   7.514   4.464   1.551 -0.6947 -1.1974 -0.7395
  160MOL0     H21094   7.724   4.367   1.646 -0.6870 -0.0523  0.6517
  160MOL0     H21095   7.733   4.536   1.602 -0.7289 -0.0753  0.4901
  160MOL0     H21096   7.855   4.475   1.387  1.5994  0.8815  0.8796
  160MOL0     H21097   7.807   4.309   1.401  0.4706  0.2720 -2.4560
  160MOL0     H21098   8.045   4.440   1.482  3.0919 -2.0119 -0.8230
  160MOL0     H21099   7.976   4.403   1.636 -0.1886 -0.5317 -0.0985
  160MOL0     H21100   8.050   4.205   1.413  5.2413 -4.6090  2.1697
  160MOL0     H21101   7.941   4.156   1.549 -0.6694 -0.7355 -1.6419
  160MOL0     H21102   7.185   4.718   1.411 -1.9732  1.5382  1.8772
  160MOL0     H21103   6.949   4.755   1.447 -1.0125 -0.0243  1.8760
  160MOL0     H21104   6.534   4.479   1.483  2.2507  0.4502  0.5253
  160MOL0     H21105   6.281   4.492   1.504 -0.2540 -0.1708  0.3994
  160MOL0     H21106   7.160   5.075   1.208  0.0127 -1.5816  0.1380
  160MOL0     H21107   7.375   5.092   1.149 -1.9415  3.8487  1.0217
  160MOL0     H21108   7.855   5.053   1.088  0.5140  1.6203 -0.1556
  160MOL0     H21109   8.064   5.021   0.984  0.3720 -5.3894  0.9879
  160MOL0     H21110   8.304   4.889   0.753 -1.3833 -2.2385  1.3282
  160MOL0     H21111   8.220   4.893   0.893  4.0644 -0.6196 -0.5476
  160MOL0     H21112   8.316   5.136   0.717 -0.2287 -0.1244 -0.7500
  160MOL0     H21113   8.174   5.154   0.827 -0.5534 -0.2133  0.5727
  160MOL0     H21114   8.429   5.030   0.919 -2.3096 -1.5322 -1.4667
  160MOL0     H21115   8.308   5.117   1.015  0.7230  1.5528  0.0182
  160MOL0     H21116   8.456   5.289   0.820  1.7058 -1.5863  0.5129
  160MOL0     H21117   8.378   5.329   0.962 -0.3460  0.7262 -0.2222
  160MOL0     H21118   8.739   5.235   1.139  2.2949 -0.0285 -0.6712
  160MOL0     H21119   7.865   4.892   0.626  2.1032 -2.4154  1.5242
  160MOL0     H21120   7.648   4.932   0.724 -2.0679 -1.7964  4.0420
  161MOL0     O21121   5.094   4.401  10.258 -0.2750 -0.0623 -0.6458
  161MOL0     C21122   5.116   4.349  10.372 -0.1507  0.0398  0.0312
  161MOL0     O21123   5.050   4.372  10.488 -0.1116  0.0568 -0.1656
  161MOL0     C21124   4.966   4.476  10.513  0.3115 -0.5937 -0.3225
  161MOL0     C21125   4.904   4.477  10.634 -0.0688 -0.1574 -0.5353
  161MOL0     C21126   4.790   4.563  10.660 -1.1218 -0.3564  1.0688
  161MOL0     C21127   4.756   4.659  10.566  0.0153 -0.0698 -0.3129
  161MOL0     O21128   4.670   4.762  10.594  0.5841 -0.1065  0.3538
  161MOL0     C21129   4.561   4.775  10.497 -0.2664  0.0446 -0.4749
  161MOL0     C21130   4.446   4.852  10.567  0.1657 -0.4136 -0.6725
  161MOL0     C21131   4.399   4.791  10.696 -0.0688 -0.8953  0.0310
  161MOL0     C21132   4.352   4.641  10.683  0.7407 -0.5482 -0.3777
  161MOL0     C21133   4.296   4.579  10.816 -0.3286 -0.0359  0.9574
  161MOL0     C21134   4.209   4.659  10.905 -0.2093 -0.3028  0.0029
  161MOL0     C21135   4.080   4.708  10.837 -0.8736  0.3167 -0.0168
  161MOL0     C21136   4.011   4.828  10.918 -0.4076 -0.1756 -0.3050
  161MOL0     N21137   3.893   4.865  10.838 -0.2636 -0.6341  0.2289
  161MOL0     C21138   3.804   4.775  10.782  0.1555 -0.3825 -0.0970
  161MOL0     C21139   3.732   4.849  10.700  0.0859 -0.0668 -0.6598
  161MOL0     C21140   3.618   4.800  10.622  0.3275  0.1762  0.8983
  161MOL0     C21141   3.492   4.812  10.712  0.3528  0.6178 -0.4331
  161MOL0     C21142   3.365   4.778  10.649  0.8189 -0.1106  0.5661
  161MOL0     C21143   3.239   4.797  10.734  0.4345  0.1577 -0.9314
  161MOL0     O21144   3.132   4.831  10.641 -0.2266 -0.2122 -0.3151
  161MOL0     C21145   3.047   4.729  10.593  0.5877 -0.3061 -0.5076
  161MOL0     C21146   2.957   4.773  10.493 -0.0728 -0.6371 -0.3026
  161MOL0     C21147   2.853   4.692  10.444 -0.0607 -0.4564 -0.5279
  161MOL0     C21148   2.844   4.557  10.502 -0.0763  0.6983 -0.2467
  161MOL0     C21149   2.749   4.452  10.436 -0.5127 -0.1176  0.1164
  161MOL0     O21150   2.649   4.511  10.368  0.3667 -0.1731 -0.0714
  161MOL0     C21151   2.547   4.442  10.306  0.0248 -0.1293  0.5695
  161MOL0     C21152   2.491   4.326  10.345 -0.4944  0.1852  0.6305
  161MOL0     C21153   2.411   4.258  10.252 -0.0189 -0.1722 -1.0280
  161MOL0     C21154   2.345   4.321  10.141 -1.0025 -0.1165 -0.4985
  161MOL0     O21155   2.259   4.264  10.052 -0.1267 -0.1855  0.6045
  161MOL0     C21156   2.258   4.119  10.063  0.1651 -0.3088  0.9499
  161MOL0     C21157   2.184   4.055   9.942 -0.6160 -0.1426 -0.1081
  161MOL0     C21158   2.037   4.098   9.933  0.0120 -0.3024 -0.1274
  161MOL0     C21159   1.959   4.067  10.062 -0.0907 -0.1539 -0.0229
  161MOL0     C21160   1.815   4.058  10.024 -0.0274  0.1089  0.6022
  161MOL0     C21161   1.712   4.070  10.130  0.1799 -0.7238 -0.0093
  161MOL0     C21162   1.706   3.925  10.200 -0.2052 -0.5020 -0.1644
  161MOL0     C21163   1.597   3.917  10.300  0.0478 -0.1869 -0.5547
  161MOL0    Cl21164   1.557   4.077  10.377  0.2330 -0.2713 -0.1146
  161MOL0     C21165   2.388   4.450  10.114 -0.4805 -0.8140 -0.3288
  161MOL0     C21166   2.496   4.502  10.192 -0.5960 -0.6064  0.1199
  161MOL0     O21167   2.784   4.341  10.439 -0.3325 -0.1584  0.4738
  161MOL0     C21168   2.930   4.515  10.604 -0.6191  0.8869 -0.4474
  161MOL0     C21169   3.035   4.598  10.650  0.1312  0.4163 -0.2894
  161MOL0     N21170   3.772   4.978  10.714  0.4062  0.1563 -0.0421
  161MOL0     N21171   3.858   4.987  10.804  0.6626  0.2078 -0.6204
  161MOL0     C21172   4.843   4.681  10.464  0.2206  0.7306  0.3407
  161MOL0     C21173   4.936   4.583  10.431  0.1676 -0.8812  0.1584
  161MOL0     C21174   5.229   4.252  10.387 -0.0135 -0.9956  0.5989
  161MOL0     C21175   5.294   4.225  10.271 -0.9533  0.8090 -0.6480
  161MOL0     C21176   5.405   4.143  10.276  0.0728 -0.6656  0.7653
  161MOL0     C21177   5.442   4.092  10.403  0.7455  0.5260  0.3099
  161MOL0     O21178   5.543   4.000  10.419 -0.0572 -0.9071  0.2549
  161MOL0     C21179   5.637   3.997  10.311 -0.1709  0.8490 -0.4989
  161MOL0     C21180   5.719   4.117  10.318 -0.5038  0.1115 -0.0559
  161MOL0     C21181   5.859   4.087  10.367  0.3402  0.5829  0.5124
  161MOL0     C21182   5.868   4.034  10.506  0.1844 -0.2195 -0.6347
  161MOL0     C21183   6.011   4.017  10.548  0.4380  0.3367  0.2781
  161MOL0     C21184   6.131   4.016  10.558  1.1208 -0.7033 -0.4128
  161MOL0     C21185   5.385   4.126  10.523 -0.3107  0.1693 -0.3056
  161MOL0     C21186   5.280   4.214  10.509 -0.7548  0.1314 -0.3182
  161MOL0     H21187   4.922   4.409  10.717 -1.5860 -0.9653 -0.8474
  161MOL0     H21188   4.732   4.573  10.751  1.8421  1.0137  2.9638
  161MOL0     H21189   4.519   4.677  10.472 -2.2136  0.9242 -0.8725
  161MOL0     H21190   4.595   4.808  10.398 -2.0303 -0.2013 -1.1983
  161MOL0     H21191   4.358   4.864  10.503 -2.6678  0.5918  3.0987
  161MOL0     H21192   4.479   4.952  10.596 -0.3473 -0.1727 -0.9207
  161MOL0     H21193   4.317   4.856  10.727  0.2336  0.0995 -1.1841
  161MOL0     H21194   4.481   4.796  10.768  0.5552 -0.0827 -0.7207
  161MOL0     H21195   4.275   4.631  10.606 -2.2497 -0.7843  2.4042
  161MOL0     H21196   4.436   4.576  10.657  0.5823 -0.0847 -2.2045
  161MOL0     H21197   4.382   4.568  10.883 -0.8923  0.4526  1.7822
  161MOL0     H21198   4.251   4.484  10.787 -1.2923  1.1137 -1.6993
  161MOL0     H21199   4.273   4.739  10.942  1.7641 -1.1382 -1.4379
  161MOL0     H21200   4.187   4.603  10.997  0.3386 -0.3229  0.1252
  161MOL0     H21201   4.106   4.753  10.741  1.0371  1.7900  1.0940
  161MOL0     H21202   4.019   4.620  10.816  1.4169 -0.6080 -3.6968
  161MOL0     H21203   4.081   4.910  10.936 -0.4143 -0.7883  3.2826
  161MOL0     H21204   3.967   4.799  11.014 -0.8606  0.8089 -0.2088
  161MOL0     H21205   3.789   4.669  10.802 -1.7878  0.0935  1.2550
  161MOL0     H21206   3.636   4.695  10.597 -1.9937  0.2686 -1.7031
  161MOL0     H21207   3.606   4.855  10.528 -0.4299  0.2804  1.0448
  161MOL0     H21208   3.483   4.917  10.739  0.1642  0.0648  1.8882
  161MOL0     H21209   3.503   4.764  10.809 -0.9587  0.4261 -0.3524
  161MOL0     H21210   3.356   4.839  10.559  0.1803  1.3637  1.5876
  161MOL0     H21211   3.358   4.675  10.615 -1.7646 -0.0720  0.8008
  161MOL0     H21212   3.253   4.883  10.801  2.6472 -0.6175 -0.2763
  161MOL0     H21213   3.218   4.718  10.807  1.3365  1.1358  0.4577
  161MOL0     H21214   2.955   4.874  10.455 -1.4741 -0.1153  1.0406
  161MOL0     H21215   2.795   4.735  10.363  0.3201  0.6451 -0.2325
  161MOL0     H21216   2.529   4.290  10.440  3.9804  2.2345 -0.1310
  161MOL0     H21217   2.393   4.152  10.266 -0.5907  0.1396  0.8839
  161MOL0     H21218   2.221   4.073  10.155 -3.0469 -2.6637 -1.2882
  161MOL0     H21219   2.360   4.087  10.042  0.5265  1.9649 -1.3270
  161MOL0     H21220   2.191   3.946   9.945 -2.5761 -0.2814  1.7019
  161MOL0     H21221   2.234   4.090   9.852 -4.4157  2.8693 -1.3336
  161MOL0     H21222   1.987   4.048   9.850 -0.9916  2.9057 -1.6281
  161MOL0     H21223   2.031   4.206   9.920 -1.6668 -0.3558  0.0651
  161MOL0     H21224   1.987   3.977  10.118  0.1723 -1.2562 -1.8445
  161MOL0     H21225   1.988   4.142  10.136 -3.0491 -3.0118  4.5397
  161MOL0     H21226   1.795   3.963   9.973  1.2329 -0.2870  0.8083
  161MOL0     H21227   1.792   4.136   9.951  1.4877  2.0741  2.1318
  161MOL0     H21228   1.616   4.089  10.081 -1.0157 -0.8899  2.1543
  161MOL0     H21229   1.737   4.153  10.196  5.0124 -0.2805 -1.9534
  161MOL0     H21230   1.691   3.842  10.130 -2.7304 -3.2384  3.2453
  161MOL0     H21231   1.798   3.901  10.255 -0.3983 -0.6023  0.1186
  161MOL0     H21232   1.616   3.844  10.380  1.9654  3.6665  2.8518
  161MOL0     H21233   1.509   3.889  10.241  0.2847  0.2106 -1.1005
  161MOL0     H21234   2.369   4.511  10.027 -1.9730  2.1956  1.8920
  161MOL0     H21235   2.543   4.591  10.152 -0.0218 -0.1243  1.7708
  161MOL0     H21236   2.909   4.417  10.645 -4.3175  1.8813  0.4117
  161MOL0     H21237   3.101   4.558  10.727 -2.9076 -0.2499  2.1912
  161MOL0     H21238   4.836   4.762  10.391 -2.6474 -0.2058 -0.5584
  161MOL0     H21239   4.982   4.576  10.332 -2.2366 -1.1214 -1.0030
  161MOL0     H21240   5.263   4.263  10.174 -2.3472  1.1181 -0.0972
  161MOL0     H21241   5.446   4.119  10.178  1.2816  2.0136  0.5359
  161MOL0     H21242   5.598   3.981  10.210  1.0504 -1.4757 -0.6791
  161MOL0     H21243   5.687   3.901  10.328 -2.6383 -0.6956 -1.3974
  161MOL0     H21244   5.719   4.161  10.218  0.3757  1.1038  0.3685
  161MOL0     H21245   5.676   4.189  10.388 -2.7856 -0.9027 -0.3211
  161MOL0     H21246   5.911   4.183  10.374  0.7936  0.4865 -1.0309
  161MOL0     H21247   5.918   4.018  10.306 -0.5697 -2.6055  2.9925
  161MOL0     H21248   5.828   4.103  10.581  2.0215 -2.0217  2.2154
  161MOL0     H21249   5.798   3.952  10.523  0.1872 -0.1228 -0.1349
  161MOL0     H21250   6.236   4.031  10.576  0.9822 -3.2732  4.0262
  161MOL0     H21251   5.418   4.092  10.620 -1.6194  1.1224  0.5096
  161MOL0     H21252   5.246   4.259  10.602  1.7314  1.2468  0.1276
  162MOL0     O21253   2.776   7.105   9.072  0.3667  0.2221  0.0706
  162MOL0     C21254   2.804   7.076   8.951  0.4668  0.2107 -0.3539
  162MOL0     O21255   2.722   7.080   8.844  0.3040  0.4177 -0.2624
  162MOL0     C21256   2.586   7.083   8.858  0.5843 -0.2909  1.1583
  162MOL0     C21257   2.511   7.072   8.973  0.0020  0.9102 -0.4470
  162MOL0     C21258   2.369   7.061   8.969  0.0360  0.5034  0.9073
  162MOL0     C21259   2.298   7.090   8.847 -0.2311  0.2424 -0.3400
  162MOL0     O21260   2.164   7.081   8.871 -0.4697  0.4985 -0.0097
  162MOL0     C21261   2.068   7.113   8.764  0.0299 -0.6478  1.3747
  162MOL0     C21262   2.048   7.260   8.745  1.1525 -0.3070  0.7501
  162MOL0     C21263   1.941   7.308   8.845 -0.2877 -0.6728  0.1547
  162MOL0     C21264   1.922   7.460   8.821 -0.5048 -0.3062 -0.1102
  162MOL0     C21265   1.826   7.514   8.921 -0.4132  0.5419 -0.1606
  162MOL0     C21266   1.772   7.659   8.893 -0.2412 -0.3487 -0.0586
  162MOL0     C21267   1.738   7.733   9.023 -0.1840  0.0584 -0.0214
  162MOL0     C21268   1.840   7.751   9.136 -0.5567  0.2048 -1.6720
  162MOL0     N21269   1.959   7.826   9.094  0.1622  0.0329  0.3365
  162MOL0     C21270   2.081   7.769   9.052  0.4317 -0.7153  0.0856
  162MOL0     C21271   2.167   7.871   9.040 -0.3805 -0.3088 -0.2194
  162MOL0     C21272   2.307   7.852   8.975 -0.0722 -0.6843  0.3089
  162MOL0     C21273   2.345   7.958   8.869  0.0441  0.0904 -0.5388
  162MOL0     C21274   2.472   7.919   8.791  0.5384 -0.1390  0.1914
  162MOL0     C21275   2.600   7.929   8.875  0.3702  0.1682  0.2551
  162MOL0     O21276   2.694   7.865   8.796 -0.0113  0.3316  0.3564
  162MOL0     C21277   2.826   7.874   8.820 -0.3594 -0.1555 -0.3948
  162MOL0     C21278   2.889   7.997   8.857 -1.3783 -0.8483  0.4570
  162MOL0     C21279   3.025   7.993   8.889  0.2837 -0.0723 -0.2997
  162MOL0     C21280   3.098   7.870   8.895 -0.5258  1.5146 -0.2612
  162MOL0     C21281   3.239   7.874   8.927 -0.9895  0.4018 -0.7133
  162MOL0     O21282   3.301   7.990   8.895  0.3311  0.6954 -0.3544
  162MOL0     C21283   3.428   8.000   8.941  0.3449  0.0806 -0.7618
  162MOL0     C21284   3.485   7.958   9.062  0.6418  0.6722  0.4844
  162MOL0     C21285   3.625   7.979   9.085 -0.1148  0.7779  1.1467
  162MOL0     C21286   3.710   8.033   8.986  1.6447  0.3455  0.1419
  162MOL0     O21287   3.844   8.023   9.011 -0.5102  1.0602 -0.1698
  162MOL0     C21288   3.936   8.059   8.915  0.5450  0.3580  0.1701
  162MOL0     C21289   4.082   8.056   8.962  0.1465  1.0431  0.9182
  162MOL0     C21290   4.103   8.141   9.089 -0.9240 -0.2921  0.5351
  162MOL0     C21291   4.242   8.120   9.143  0.3361 -0.5730 -0.5582
  162MOL0     C21292   4.356   8.197   9.078 -0.1635  0.1870 -0.5463
  162MOL0     C21293   4.462   8.219   9.179  0.2658 -0.0889  1.1642
  162MOL0     C21294   4.407   8.328   9.281  0.3814 -0.4589  0.0718
  162MOL0     C21295   4.517   8.401   9.348 -0.7137 -0.3203  0.3909
  162MOL0    Cl21296   4.446   8.552   9.427 -0.5893  0.5609 -0.0519
  162MOL0     C21297   3.648   8.099   8.881 -0.0029  1.1567 -0.4314
  162MOL0     C21298   3.510   8.075   8.857  0.3112 -0.0348 -0.8868
  162MOL0     O21299   3.297   7.769   8.964  0.2065  0.0469 -0.0353
  162MOL0     C21300   3.031   7.751   8.849  0.8755  0.1439 -0.9016
  162MOL0     C21301   2.901   7.756   8.818  0.2710 -0.4386 -0.0095
  162MOL0     N21302   2.092   7.985   9.066 -1.1430  0.1260  1.2694
  162MOL0     N21303   1.986   7.956   9.119  0.3089  0.1871 -0.0490
  162MOL0     C21304   2.373   7.132   8.743 -0.4044 -0.0697  0.4269
  162MOL0     C21305   2.506   7.123   8.746 -0.7300 -0.2616  0.1906
  162MOL0     C21306   2.943   7.045   8.917  0.6664  0.1567  0.4151
  162MOL0     C21307   3.051   7.106   8.981 -0.2360  0.5944  0.0292
  162MOL0     C21308   3.181   7.077   8.942  0.5243  0.4783  0.1603
  162MOL0     C21309   3.208   6.993   8.835  0.8573 -1.3012 -0.2509
  162MOL0     O21310   3.345   6.988   8.805 -0.2274 -0.3449  0.1972
  162MOL0     C21311   3.376   6.951   8.674 -0.0807 -0.5531  0.1407
  162MOL0     C21312   3.501   7.027   8.624 -0.0205 -0.1743  0.4935
  162MOL0     C21313   3.603   7.035   8.742  0.4593 -0.4455  0.0233
  162MOL0     C21314   3.753   7.039   8.704 -1.0695 -0.8192  0.2636
  162MOL0     C21315   3.804   7.167   8.653  0.0378 -0.3936  0.5384
  162MOL0     C21316   3.841   7.275   8.606 -0.0222 -0.2419  0.0847
  162MOL0     C21317   3.097   6.931   8.766 -0.9870 -0.0664 -0.6883
  162MOL0     C21318   2.969   6.958   8.805  0.1131  0.5373  0.4127
  162MOL0     H21319   2.567   7.060   9.065  0.6748 -0.5761 -1.0157
  162MOL0     H21320   2.323   7.057   9.067 -0.3202  0.0784  0.7283
  162MOL0     H21321   1.971   7.064   8.774 -0.3464 -1.3550 -3.3135
  162MOL0     H21322   2.107   7.086   8.665 -0.2069  0.2187  1.0334
  162MOL0     H21323   2.007   7.274   8.645  1.7686 -1.1729  0.3686
  162MOL0     H21324   2.140   7.318   8.750  1.1005 -0.1103 -0.3548
  162MOL0     H21325   1.971   7.276   8.946  0.8401  0.0377  0.0605
  162MOL0     H21326   1.847   7.257   8.819 -0.8868  1.5598 -2.3871
  162MOL0     H21327   2.013   7.520   8.827  0.1229 -1.3536  2.7023
  162MOL0     H21328   1.888   7.466   8.717  1.4409 -1.2188 -0.8415
  162MOL0     H21329   1.893   7.519   9.008  0.9233 -0.5480 -1.1059
  162MOL0     H21330   1.741   7.447   8.934 -2.0341  1.1417 -5.5240
  162MOL0     H21331   1.687   7.649   8.825 -0.4101 -2.2638  0.3918
  162MOL0     H21332   1.839   7.724   8.836 -0.0595 -1.5732 -1.2705
  162MOL0     H21333   1.708   7.831   8.984  2.2480  0.1983 -1.6912
  162MOL0     H21334   1.653   7.680   9.068 -2.3191  2.1806 -1.2875
  162MOL0     H21335   1.875   7.662   9.188 -0.5962  1.5114  0.7349
  162MOL0     H21336   1.783   7.813   9.206 -1.7064 -1.1263 -1.3950
  162MOL0     H21337   2.115   7.666   9.046  0.3718 -0.6946 -0.8128
  162MOL0     H21338   2.311   7.751   8.932  4.0067 -0.0636 -1.2056
  162MOL0     H21339   2.389   7.854   9.047  2.1532  1.0487 -2.0727
  162MOL0     H21340   2.357   8.054   8.919 -0.4088 -0.6040  0.9693
  162MOL0     H21341   2.257   7.969   8.805 -0.7744  0.4408  0.6066
  162MOL0     H21342   2.462   7.812   8.767  3.2513  0.3938 -4.8511
  162MOL0     H21343   2.487   7.973   8.697 -2.8824 -1.7435 -1.4741
  162MOL0     H21344   2.590   7.880   8.972  0.7182  0.7060  0.5699
  162MOL0     H21345   2.625   8.035   8.889  1.4221  0.3450 -2.3352
  162MOL0     H21346   2.835   8.090   8.870  1.3126  1.3051 -2.1628
  162MOL0     H21347   3.081   8.078   8.925 -0.6643  1.3284 -1.9631
  162MOL0     H21348   3.435   7.892   9.131  1.1281  0.6851  0.8534
  162MOL0     H21349   3.674   7.940   9.174  2.2859  0.8479 -0.0551
  162MOL0     H21350   3.920   8.152   8.860 -0.7631  0.5085  0.7682
  162MOL0     H21351   3.929   7.984   8.836 -1.6495  1.8243 -1.1052
  162MOL0     H21352   4.140   8.080   8.873 -3.1099 -0.9287 -2.0152
  162MOL0     H21353   4.112   7.956   8.994  0.6336  0.6036 -0.8212
  162MOL0     H21354   4.028   8.110   9.163 -0.7260 -1.7222  0.1647
  162MOL0     H21355   4.084   8.242   9.053  1.6913 -0.4917 -1.7109
  162MOL0     H21356   4.227   8.142   9.249 -1.1349  0.9470 -1.0338
  162MOL0     H21357   4.277   8.017   9.142  0.7762 -0.4464  0.8126
  162MOL0     H21358   4.326   8.295   9.039  3.1000  1.2944 -0.6013
  162MOL0     H21359   4.398   8.137   8.997  2.5696 -1.5967  1.9775
  162MOL0     H21360   4.544   8.255   9.117  0.9996 -4.9934 -1.1632
  162MOL0     H21361   4.499   8.127   9.225  0.5212 -1.0616 -0.8729
  162MOL0     H21362   4.353   8.402   9.221 -0.7534 -2.0867 -0.9675
  162MOL0     H21363   4.335   8.295   9.356 -2.0023  1.7884 -1.0501
  162MOL0     H21364   4.594   8.429   9.276 -0.6127  3.0993  1.6692
  162MOL0     H21365   4.562   8.350   9.434 -3.3333 -1.4448  1.1828
  162MOL0     H21366   3.723   8.148   8.818  0.8913  2.3634  1.4675
  162MOL0     H21367   3.475   8.112   8.761  0.8670 -2.4289 -2.0752
  162MOL0     H21368   3.080   7.656   8.831  0.8161  0.2919 -1.9006
  162MOL0     H21369   2.843   7.671   8.784 -1.7528  2.2215 -3.8454
  162MOL0     H21370   2.321   7.175   8.659  1.7204  2.5579  0.3478
  162MOL0     H21371   2.561   7.150   8.656 -0.8023 -3.5334 -0.9643
  162MOL0     H21372   3.022   7.175   9.060 -2.7066 -0.5893  0.2606
  162MOL0     H21373   3.261   7.122   9.000  0.8659 -0.7992  0.7188
  162MOL0     H21374   3.293   6.984   8.611 -0.6154 -3.5316 -0.9198
  162MOL0     H21375   3.387   6.842   8.666 -0.0800 -0.6537  1.3350
  162MOL0     H21376   3.549   6.971   8.543 -0.1556 -0.8832  0.8917
  162MOL0     H21377   3.471   7.129   8.597 -0.7137 -0.1312  1.4126
  162MOL0     H21378   3.587   6.940   8.795  0.3754 -1.2765 -1.4502
  162MOL0     H21379   3.584   7.115   8.814  1.4182 -1.6412  1.6897
  162MOL0     H21380   3.825   7.027   8.786 -1.0044  3.3380  1.0456
  162MOL0     H21381   3.778   6.954   8.641 -1.9737  0.8076 -2.4471
  162MOL0     H21382   3.852   7.367   8.552  1.2930  0.0548  0.7971
  162MOL0     H21383   3.102   6.871   8.676  0.2242 -0.1545 -0.5767
  162MOL0     H21384   2.887   6.915   8.750 -0.7290 -0.2341  2.1809
  163MOL0     O21385   7.394   0.769  10.654 -0.6770 -0.1319  0.9284
  163MOL0     C21386   7.387   0.778  10.532 -0.2694  0.2568 -0.5607
  163MOL0     O21387   7.273   0.757  10.454 -0.0337 -0.3176  1.0225
  163MOL0     C21388   7.164   0.690  10.496 -0.7575  0.6533 -0.1152
  163MOL0     C21389   7.179   0.556  10.546 -0.3866  0.1442  0.9847
  163MOL0     C21390   7.072   0.463  10.555  0.0396 -1.2344 -0.1566
  163MOL0     C21391   6.938   0.514  10.541 -0.1637  0.5360  0.3272
  163MOL0     O21392   6.841   0.430  10.584  0.4532 -0.3042  0.1330
  163MOL0     C21393   6.712   0.483  10.602  0.4950 -0.5725 -0.4540
  163MOL0     C21394   6.612   0.383  10.671 -0.8786 -0.5586 -0.3739
  163MOL0     C21395   6.476   0.454  10.703 -0.7601  0.2093  0.7934
  163MOL0     C21396   6.385   0.344  10.758 -0.1420 -0.5604  0.4405
  163MOL0     C21397   6.243   0.408  10.799  0.0244  0.2484  0.5542
  163MOL0     C21398   6.175   0.436  10.654  1.0680 -0.4252  0.1177
  163MOL0     C21399   6.031   0.466  10.688  0.2126 -0.4098  0.3841
  163MOL0     C21400   5.950   0.338  10.730 -0.6426  0.6775 -0.1723
  163MOL0     N21401   5.814   0.326  10.666  0.7186  0.9620  0.1778
  163MOL0     C21402   5.707   0.396  10.715 -0.1102  0.0763 -0.3100
  163MOL0     C21403   5.615   0.392  10.621  0.3551 -0.3833  0.3648
  163MOL0     C21404   5.480   0.458  10.610 -1.5429  0.3842 -0.2090
  163MOL0     C21405   5.428   0.522  10.740 -0.3894 -0.2772 -0.1961
  163MOL0     C21406   5.337   0.633  10.712  1.3280 -0.2759  0.0046
  163MOL0     C21407   5.195   0.591  10.658 -0.0880 -0.3215 -0.6725
  163MOL0     O21408   5.121   0.717  10.663  0.7743 -0.2083  0.6455
  163MOL0     C21409   4.988   0.710  10.645 -0.7561 -0.0307 -0.6261
  163MOL0     C21410   4.935   0.666  10.522  0.2618  0.5983 -0.7387
  163MOL0     C21411   4.798   0.657  10.499  0.2475  0.2524 -0.7431
  163MOL0     C21412   4.704   0.699  10.607  0.7092  1.1225  0.4656
  163MOL0     C21413   4.562   0.697  10.588 -0.2142  1.2290 -0.4192
  163MOL0     O21414   4.490   0.773  10.679 -0.1498 -0.2205  0.1579
  163MOL0     C21415   4.356   0.785  10.653 -0.1947  0.0872 -0.6939
  163MOL0     C21416   4.281   0.665  10.670  0.3051 -0.5037 -0.7818
  163MOL0     C21417   4.143   0.656  10.654 -0.0304  0.1941  0.2140
  163MOL0     C21418   4.082   0.782  10.624 -0.1088  0.3161 -0.2952
  163MOL0     O21419   3.948   0.803  10.608  0.7472  0.1569 -0.0059
  163MOL0     C21420   3.862   0.725  10.692 -0.4996  0.5144  0.5034
  163MOL0     C21421   3.723   0.763  10.663 -0.8883  0.3606 -0.3281
  163MOL0     C21422   3.693   0.903  10.705  0.3322 -0.6018 -0.2268
  163MOL0     C21423   3.562   0.950  10.638 -1.0238  0.5204  0.3989
  163MOL0     C21424   3.536   1.097  10.662  0.9353 -0.4360 -0.0293
  163MOL0     C21425   3.538   1.177  10.523 -1.1238  0.0161  1.1115
  163MOL0     C21426   3.673   1.186  10.448 -0.3087  0.4533  0.1961
  163MOL0     C21427   3.764   1.309  10.491  0.8050 -0.0609 -0.4738
  163MOL0    Cl21428   3.835   1.270  10.644 -0.2009 -0.1781 -0.3327
  163MOL0     C21429   4.154   0.899  10.599  0.6383  0.0110 -0.7127
  163MOL0     C21430   4.300   0.897  10.617  0.2777 -0.8483  0.2499
  163MOL0     O21431   4.513   0.646  10.492  0.0004  0.4223  0.7827
  163MOL0     C21432   4.763   0.727  10.731 -0.2483 -0.0062  0.1624
  163MOL0     C21433   4.898   0.739  10.750 -0.8652  0.2664  0.7188
  163MOL0     N21434   5.672   0.320  10.516  0.5656 -0.1038 -0.2972
  163MOL0     N21435   5.785   0.274  10.540  0.0986  1.0791 -0.3011
  163MOL0     C21436   6.927   0.640  10.484  0.8735  0.1730 -0.2480
  163MOL0     C21437   7.033   0.724  10.447 -0.2581  0.9488 -0.7005
  163MOL0     C21438   7.513   0.811  10.457 -0.2291 -0.8897  1.1397
  163MOL0     C21439   7.507   0.807  10.315  0.7496  0.8179 -0.0641
  163MOL0     C21440   7.608   0.844  10.233  0.1474  0.6339  0.1689
  163MOL0     C21441   7.723   0.892  10.288 -0.0171  0.4724  0.5711
  163MOL0     O21442   7.808   0.930  10.186  0.6760  0.6681 -0.5141
  163MOL0     C21443   7.926   1.004  10.198  0.2694 -0.3688 -0.1340
  163MOL0     C21444   7.903   1.144  10.129 -0.9244  0.1305 -0.4451
  163MOL0     C21445   8.036   1.221  10.116  0.6456 -0.3201 -0.3761
  163MOL0     C21446   8.026   1.372  10.088 -0.4493 -0.1327  0.2161
  163MOL0     C21447   8.152   1.450  10.108 -0.0267 -0.3023 -0.2182
  163MOL0     C21448   8.261   1.502  10.124 -0.1725 -0.1359  0.0851
  163MOL0     C21449   7.744   0.897  10.421  0.1370 -0.3453  0.3891
  163MOL0     C21450   7.634   0.857  10.507 -0.7646 -0.4850 -0.4401
  163MOL0     H21451   7.281   0.528  10.571  0.5129  0.8083 -1.5356
  163MOL0     H21452   7.081   0.357  10.578 -1.7122 -1.4633 -0.4111
  163MOL0     H21453   6.659   0.514  10.511  0.0544 -0.9849 -0.3399
  163MOL0     H21454   6.718   0.564  10.675  0.2383 -0.5527 -0.4555
  163MOL0     H21455   6.663   0.341  10.759  3.4437 -0.9362 -2.7480
  163MOL0     H21456   6.600   0.301  10.600 -0.3268  0.4229 -1.6375
  163MOL0     H21457   6.432   0.507  10.618  0.0483 -2.2922 -1.3295
  163MOL0     H21458   6.499   0.534  10.774  0.1772  3.2665 -2.6142
  163MOL0     H21459   6.366   0.264  10.685 -0.7939 -0.3119  0.3325
  163MOL0     H21460   6.449   0.310  10.839  1.7455  1.4216 -0.1137
  163MOL0     H21461   6.252   0.496  10.863 -0.5190  0.2956  0.5695
  163MOL0     H21462   6.186   0.332  10.854  1.8872 -1.5573  0.1057
  163MOL0     H21463   6.182   0.346  10.591  1.4149 -0.5722  0.3622
  163MOL0     H21464   6.206   0.527  10.603 -4.2242  0.0135 -3.0372
  163MOL0     H21465   6.028   0.533  10.775 -0.7312  0.6890 -0.4752
  163MOL0     H21466   5.988   0.519  10.603  0.6846  0.0969  0.4534
  163MOL0     H21467   5.949   0.349  10.838  3.0337 -0.8055  0.1582
  163MOL0     H21468   6.005   0.245  10.708  0.1879  0.0994  3.6297
  163MOL0     H21469   5.692   0.434  10.815 -2.6926 -1.1580 -0.1561
  163MOL0     H21470   5.410   0.377  10.590 -0.0557 -1.7139  2.3688
  163MOL0     H21471   5.473   0.528  10.526 -4.7020  0.3163 -0.1245
  163MOL0     H21472   5.512   0.562  10.798 -1.2817 -0.6920  1.4436
  163MOL0     H21473   5.382   0.449  10.807  1.1014  0.1283  1.3461
  163MOL0     H21474   5.321   0.682  10.808 -1.0941  2.1634 -1.4926
  163MOL0     H21475   5.384   0.705  10.644  3.4207 -3.4505 -2.1817
  163MOL0     H21476   5.147   0.517  10.722 -0.0252 -1.2842 -1.7101
  163MOL0     H21477   5.194   0.552  10.556 -3.2625 -4.2208  0.6408
  163MOL0     H21478   5.003   0.622  10.451 -0.8374 -4.5242  0.9233
  163MOL0     H21479   4.761   0.618  10.405  1.4253  4.6585 -3.3050
  163MOL0     H21480   4.336   0.582  10.714  0.0436 -0.9976 -1.3792
  163MOL0     H21481   4.090   0.562  10.648  3.1605 -1.6713 -1.2830
  163MOL0     H21482   3.892   0.735  10.796  0.6282 -3.7087  0.7583
  163MOL0     H21483   3.864   0.620  10.661  1.8137  0.9765 -1.2004
  163MOL0     H21484   3.658   0.708  10.731  1.0157  1.3228  2.4217
  163MOL0     H21485   3.714   0.735  10.558  3.4847  0.6512 -0.9690
  163MOL0     H21486   3.776   0.967  10.674  3.5963 -3.7880  1.1300
  163MOL0     H21487   3.703   0.909  10.813  0.9655  1.8036 -0.3608
  163MOL0     H21488   3.559   0.938  10.529 -1.4375  1.3431  0.3115
  163MOL0     H21489   3.480   0.891  10.681 -1.5188 -0.5009 -1.7571
  163MOL0     H21490   3.603   1.142  10.736  0.7236  1.4565 -0.8986
  163MOL0     H21491   3.442   1.118  10.714  1.9872  1.6896  1.1924
  163MOL0     H21492   3.511   1.281  10.541 -0.1091  0.7868 -1.4484
  163MOL0     H21493   3.471   1.135  10.448 -1.5565 -0.8372  1.9525
  163MOL0     H21494   3.734   1.095  10.450  0.1477  0.6928 -1.4638
  163MOL0     H21495   3.647   1.206  10.344  1.4609 -3.4258 -1.1705
  163MOL0     H21496   3.700   1.398  10.499 -2.3985 -2.3396  4.5346
  163MOL0     H21497   3.846   1.328  10.422  1.8042 -1.2550  0.3482
  163MOL0     H21498   4.095   0.984  10.568  2.5521  2.0675  0.9010
  163MOL0     H21499   4.362   0.983  10.596 -1.1913 -0.0343 -0.9983
  163MOL0     H21500   4.716   0.744  10.827  3.6803  2.8280  1.8432
  163MOL0     H21501   4.942   0.767  10.845  1.3311  2.1102 -0.7261
  163MOL0     H21502   6.826   0.679  10.477  0.0490 -1.3498  2.0443
  163MOL0     H21503   7.028   0.815  10.388 -1.1794  0.3872 -1.4998
  163MOL0     H21504   7.428   0.752  10.264  2.1595 -1.4682  0.0876
  163MOL0     H21505   7.593   0.826  10.127  0.0718  4.0585 -0.5217
  163MOL0     H21506   8.012   0.956  10.150  0.5682 -2.0309  1.9427
  163MOL0     H21507   7.954   1.022  10.302 -1.4623  2.0413  0.0047
  163MOL0     H21508   7.863   1.156  10.029  1.0700  3.7962 -1.0127
  163MOL0     H21509   7.834   1.196  10.196 -2.1469 -1.1986 -0.6419
  163MOL0     H21510   8.101   1.174  10.042  0.6583 -3.4803  1.5036
  163MOL0     H21511   8.079   1.207  10.215 -0.3874  1.1469  0.3282
  163MOL0     H21512   7.996   1.386   9.984  0.6400  1.9563  0.1240
  163MOL0     H21513   7.941   1.416  10.141  0.1641  0.4988  0.7073
  163MOL0     H21514   8.360   1.543  10.119 -0.5673  0.8236 -0.2160
  163MOL0     H21515   7.833   0.947  10.459  0.2211  0.6021 -0.9710
  163MOL0     H21516   7.645   0.861  10.615  0.4023 -1.6979 -0.4903
  164MOL0     O21517   2.486   7.849   1.596  0.0768 -0.3769  1.2216
  164MOL0     C21518   2.495   7.727   1.561  0.3238  0.0219  0.1890
  164MOL0     O21519   2.440   7.621   1.628 -0.0822 -0.0139 -0.1504
  164MOL0     C21520   2.350   7.646   1.720  0.0768  0.3740  0.1477
  164MOL0     C21521   2.226   7.576   1.707 -0.0778 -0.4907  0.7307
  164MOL0     C21522   2.128   7.600   1.802  0.2982  0.5135  0.5490
  164MOL0     C21523   2.146   7.694   1.898 -0.0363 -0.6919 -1.1423
  164MOL0     O21524   2.049   7.727   1.994 -0.1640  0.3096  0.6017
  164MOL0     C21525   1.945   7.806   1.941 -0.1592 -0.2922  0.9945
  164MOL0     C21526   1.818   7.793   2.029 -0.8470 -0.3680  0.6318
  164MOL0     C21527   1.799   7.648   2.067  0.5432 -0.2552 -0.2395
  164MOL0     C21528   1.675   7.635   2.151  0.0107 -0.1003 -0.5466
  164MOL0     C21529   1.636   7.483   2.163 -0.7178 -0.7925 -0.5326
  164MOL0     C21530   1.533   7.457   2.265  0.3801  0.0584 -0.4798
  164MOL0     C21531   1.400   7.501   2.223  0.6718  0.1333  0.2134
  164MOL0     C21532   1.297   7.463   2.320  1.1795 -0.1973 -0.9774
  164MOL0     N21533   1.161   7.471   2.262 -1.1289 -0.0497  0.2091
  164MOL0     C21534   1.059   7.539   2.316 -0.7930  0.2344  1.0850
  164MOL0     C21535   0.956   7.511   2.223 -0.4119 -0.5416 -0.7561
  164MOL0     C21536   0.812   7.555   2.239  0.4124  0.4513 -0.4923
  164MOL0     C21537   0.715   7.453   2.315 -0.7720  0.7852  0.3431
  164MOL0     C21538   0.571   7.484   2.306 -0.3437  0.0606  0.4227
  164MOL0     C21539   0.482   7.402   2.406  0.0894 -0.4270  1.0060
  164MOL0     O21540   0.496   7.457   2.539  0.5327  0.5456 -0.4185
  164MOL0     C21541   0.475   7.369   2.642  0.5631  0.2352 -0.1826
  164MOL0     C21542   0.568   7.270   2.680  0.3096  0.6883 -0.7888
  164MOL0     C21543   0.542   7.190   2.785  0.2718  0.3581 -0.4510
  164MOL0     C21544   0.413   7.203   2.857 -0.4783  0.3027 -0.0709
  164MOL0     C21545   0.366   7.106   2.963 -0.0780  0.4105  0.3406
  164MOL0     O21546   0.234   7.119   3.001  0.4046 -0.4443  0.2648
  164MOL0     C21547   0.180   7.058   3.114  0.7768 -0.3301  0.3163
  164MOL0     C21548   0.050   6.997   3.107 -0.0322 -0.4901 -0.0912
  164MOL0     C21549   0.003   6.928   3.217  0.0686  0.2723 -0.0244
  164MOL0     C21550   0.082   6.913   3.329  0.1047 -0.5215  0.4761
  164MOL0     O21551   0.018   6.848   3.432 -0.1719 -0.7197  0.1324
  164MOL0     C21552   0.096   6.812   3.538  0.7605  0.2415  0.6111
  164MOL0     C21553   0.005   6.739   3.652 -0.4808  0.1739  0.4924
  164MOL0     C21554   0.068   6.750   3.788 -0.2181  0.7940 -0.9003
  164MOL0     C21555  -0.015   6.687   3.902  0.5378 -0.5970  0.0963
  164MOL0     C21556   0.038   6.745   4.034 -0.4691 -0.1337  0.7017
  164MOL0     C21557   0.179   6.710   4.074 -0.1633 -1.0797 -0.7777
  164MOL0     C21558   0.217   6.567   4.068  0.0103 -0.0003 -1.1556
  164MOL0     C21559   0.370   6.559   4.095  0.1608  0.6686  0.1765
  164MOL0    Cl21560   0.427   6.666   4.237 -0.3428  0.6649  0.1046
  164MOL0     C21561   0.202   6.980   3.337 -0.5330  1.4724  0.3307
  164MOL0     C21562   0.252   7.049   3.231 -0.6774 -0.0857 -0.7179
  164MOL0     O21563   0.453   7.022   3.004 -0.0839  0.1641 -0.2134
  164MOL0     C21564   0.326   7.308   2.826 -0.5551  0.3022  0.2176
  164MOL0     C21565   0.360   7.392   2.721  0.4281  1.1645 -0.4672
  164MOL0     N21566   0.998   7.422   2.123 -0.7987 -0.1254  0.0679
  164MOL0     N21567   1.121   7.388   2.164 -0.5945 -0.0635 -0.1127
  164MOL0     C21568   2.265   7.765   1.904  0.8436 -0.3748  0.1007
  164MOL0     C21569   2.367   7.738   1.823  0.7642 -0.2237  0.6045
  164MOL0     C21570   2.614   7.703   1.470 -1.0250  0.0234 -0.7913
  164MOL0     C21571   2.714   7.801   1.451 -0.1643  0.1570 -0.3087
  164MOL0     C21572   2.813   7.784   1.371 -0.9301 -0.0157 -0.2103
  164MOL0     C21573   2.840   7.659   1.308 -0.1813 -0.1178  0.2444
  164MOL0     O21574   2.936   7.638   1.204 -0.4897  0.1417  0.2403
  164MOL0     C21575   3.023   7.735   1.151 -0.2096  0.0623 -0.0953
  164MOL0     C21576   2.964   7.804   1.020  0.2467  1.0138  0.7638
  164MOL0     C21577   3.055   7.781   0.899  0.1146 -0.2757 -0.1791
  164MOL0     C21578   3.170   7.873   0.917 -0.5501 -0.1619 -0.4567
  164MOL0     C21579   3.284   7.842   0.831  0.6832  0.1556 -0.4602
  164MOL0     C21580   3.385   7.828   0.762  0.0639  0.2741 -0.2324
  164MOL0     C21581   2.751   7.551   1.325 -0.4764 -0.0757 -0.1159
  164MOL0     C21582   2.641   7.573   1.409  0.2808 -0.0076 -0.2935
  164MOL0     H21583   2.201   7.515   1.621 -0.1221  0.6415 -0.0820
  164MOL0     H21584   2.027   7.561   1.790  0.0977  0.3279  2.4915
  164MOL0     H21585   1.910   7.778   1.841 -2.9319  0.6292  1.6167
  164MOL0     H21586   1.978   7.911   1.935  1.6915 -0.9146 -2.8486
  164MOL0     H21587   1.736   7.834   1.969  1.4105  2.6625 -0.6963
  164MOL0     H21588   1.825   7.866   2.111 -0.3825  0.9639 -0.5487
  164MOL0     H21589   1.878   7.609   2.131 -1.3444 -2.1341  1.0974
  164MOL0     H21590   1.783   7.578   1.984 -0.6421  0.1224 -0.3602
  164MOL0     H21591   1.701   7.672   2.250  1.6670  2.3854 -1.7945
  164MOL0     H21592   1.590   7.694   2.115 -1.6352 -0.8277  1.9177
  164MOL0     H21593   1.723   7.423   2.192 -0.8317 -0.6106  0.1776
  164MOL0     H21594   1.590   7.452   2.068 -1.8512 -0.6784 -0.0358
  164MOL0     H21595   1.566   7.506   2.358 -1.3254  2.1220 -0.8975
  164MOL0     H21596   1.526   7.348   2.269 -0.9887  0.1155 -1.0320
  164MOL0     H21597   1.398   7.610   2.208  0.8458 -0.1285 -2.0071
  164MOL0     H21598   1.386   7.456   2.125  0.5936  1.7618 -0.5652
  164MOL0     H21599   1.308   7.514   2.416  2.0420 -0.4276 -0.9443
  164MOL0     H21600   1.311   7.359   2.352 -0.2462 -0.6743 -1.8262
  164MOL0     H21601   1.052   7.574   2.418  1.3273 -1.9731  2.0814
  164MOL0     H21602   0.764   7.569   2.142 -0.4393 -1.0197 -0.3186
  164MOL0     H21603   0.806   7.660   2.269  1.3118  1.4545 -3.4441
  164MOL0     H21604   0.755   7.454   2.416  1.9377 -2.0150 -0.5249
  164MOL0     H21605   0.738   7.351   2.283 -0.0238  0.8273  0.7146
  164MOL0     H21606   0.557   7.592   2.315  1.5913  0.5590 -1.6893
  164MOL0     H21607   0.540   7.454   2.205  1.0444 -0.9033  0.2470
  164MOL0     H21608   0.503   7.296   2.388 -0.5526 -0.0239 -3.1511
  164MOL0     H21609   0.377   7.416   2.379 -0.0812 -1.8659  0.8352
  164MOL0     H21610   0.659   7.255   2.623  1.0247  3.6527 -0.5721
  164MOL0     H21611   0.620   7.118   2.808 -0.5275 -0.5435 -0.5284
  164MOL0     H21612  -0.003   6.990   3.013  0.2886 -3.0840 -0.1531
  164MOL0     H21613  -0.094   6.879   3.214  0.9353 -1.5011 -0.1604
  164MOL0     H21614   0.127   6.910   3.576  2.8690  0.8002 -2.2985
  164MOL0     H21615   0.179   6.746   3.514  0.4846 -0.5702  1.8072
  164MOL0     H21616  -0.012   6.634   3.627 -0.1360  0.3202 -0.4079
  164MOL0     H21617  -0.091   6.790   3.657 -1.2722 -1.1399 -0.5662
  164MOL0     H21618   0.084   6.854   3.819 -0.9448  0.2572  1.5138
  164MOL0     H21619   0.162   6.693   3.793 -0.9474 -0.4041  3.4089
  164MOL0     H21620  -0.123   6.691   3.885  0.5879 -3.3728 -1.4075
  164MOL0     H21621  -0.002   6.579   3.891  4.0444 -0.0313 -3.8112
  164MOL0     H21622  -0.035   6.710   4.109 -2.4171  3.7852  0.9217
  164MOL0     H21623   0.032   6.855   4.036 -0.7837 -0.1485  1.8985
  164MOL0     H21624   0.194   6.741   4.177 -4.2463 -1.8244  0.2185
  164MOL0     H21625   0.247   6.769   4.012  0.5435 -0.7296  0.3184
  164MOL0     H21626   0.171   6.522   4.156  0.7296  0.1158 -0.7151
  164MOL0     H21627   0.200   6.509   3.977  6.0482 -1.0037 -2.0841
  164MOL0     H21628   0.421   6.586   4.002 -1.3398  2.3215 -0.2225
  164MOL0     H21629   0.389   6.452   4.110 -1.4958  0.3802  0.3461
  164MOL0     H21630   0.266   6.963   3.423 -2.4288  0.1416  1.5506
  164MOL0     H21631   0.347   7.098   3.241  0.1919 -1.7173 -0.5557
  164MOL0     H21632   0.238   7.332   2.884  0.4439  0.3039  1.8237
  164MOL0     H21633   0.295   7.473   2.691  1.7342  2.2314 -0.5163
  164MOL0     H21634   2.271   7.833   1.989 -0.5109 -0.7849  0.5519
  164MOL0     H21635   2.457   7.797   1.838 -0.1979  1.4483  0.1686
  164MOL0     H21636   2.699   7.895   1.503 -0.0443 -0.5721  1.0790
  164MOL0     H21637   2.875   7.869   1.342  2.4947 -3.0346 -2.7274
  164MOL0     H21638   3.119   7.695   1.118 -0.3012  2.3947 -3.7589
  164MOL0     H21639   3.043   7.814   1.225  0.1475  0.3773 -0.5257
  164MOL0     H21640   2.869   7.757   0.994  1.5311 -1.9284  0.9984
  164MOL0     H21641   2.945   7.909   1.045 -1.4896  0.5174  1.6983
  164MOL0     H21642   2.996   7.805   0.810 -1.2869  1.9139  1.2445
  164MOL0     H21643   3.077   7.673   0.894  1.7430  0.0514 -0.9784
  164MOL0     H21644   3.136   7.974   0.892 -1.2076 -0.3513 -0.3260
  164MOL0     H21645   3.202   7.870   1.021 -2.0035 -2.3445 -0.0200
  164MOL0     H21646   3.470   7.808   0.699 -0.2824 -0.6251 -0.4191
  164MOL0     H21647   2.773   7.455   1.280 -0.3817 -1.1483  2.0650
  164MOL0     H21648   2.571   7.493   1.432  0.4907  0.1332  0.8812
  165MOL0     O21649  10.901   7.549   0.351 -0.0949 -0.3382  0.0517
  165MOL0     C21650  10.909   7.589   0.233  0.1249  0.0142  0.4773
  165MOL0     O21651  10.812   7.648   0.168  0.0160  0.4999 -0.1002
  165MOL0     C21652  10.686   7.661   0.222  0.3346  0.3362 -0.8836
  165MOL0     C21653  10.582   7.596   0.151  0.0145 -0.5054 -0.3973
  165MOL0     C21654  10.466   7.582   0.223  0.2949 -0.2726 -0.2620
  165MOL0     C21655  10.438   7.661   0.342  0.1369 -0.1403 -0.4250
  165MOL0     O21656  10.325   7.656   0.415  0.1098  0.0505 -0.4815
  165MOL0     C21657  10.205   7.606   0.359 -0.8214 -0.2971 -0.0473
  165MOL0     C21658  10.093   7.703   0.398  0.7435  0.0086 -0.0472
  165MOL0     C21659   9.958   7.636   0.371  0.7054 -0.3449 -0.8837
  165MOL0     C21660   9.853   7.747   0.377  0.7560  1.1485 -0.1883
  165MOL0     C21661   9.730   7.715   0.461  0.7285 -0.0775  0.7605
  165MOL0     C21662   9.648   7.592   0.411 -0.4084 -0.1506  0.4835
  165MOL0     C21663   9.514   7.569   0.484  0.0952 -0.1289 -0.4468
  165MOL0     C21664   9.533   7.532   0.633  0.9086  0.0268  0.3130
  165MOL0     N21665   9.403   7.488   0.700  0.7482  0.0109  0.0763
  165MOL0     C21666   9.388   7.399   0.804  0.1939 -0.6599 -0.5428
  165MOL0     C21667   9.260   7.384   0.816 -0.0973  0.4593  0.9176
  165MOL0     C21668   9.196   7.299   0.923  0.3564 -0.0176  0.2542
  165MOL0     C21669   9.205   7.357   1.067  0.0869 -0.1886 -0.8288
  165MOL0     C21670   9.130   7.488   1.097 -0.7201 -0.4779  0.5717
  165MOL0     C21671   8.983   7.494   1.042 -0.7472  1.4510  0.6722
  165MOL0     O21672   8.907   7.596   1.109  0.2220  0.1105  0.9188
  165MOL0     C21673   8.791   7.566   1.172  0.7190 -0.3321 -0.0339
  165MOL0     C21674   8.772   7.627   1.291 -0.7591  0.9804 -0.5678
  165MOL0     C21675   8.649   7.618   1.360  0.1342  0.1630 -0.0582
  165MOL0     C21676   8.548   7.526   1.306  0.2489 -0.7607 -0.4923
  165MOL0     C21677   8.416   7.526   1.366  0.2629  1.2086  0.5913
  165MOL0     O21678   8.312   7.463   1.299  0.5023  0.7862  0.3529
  165MOL0     C21679   8.211   7.415   1.372  0.5316  0.4636  0.0237
  165MOL0     C21680   8.205   7.280   1.413 -0.5289  0.4955 -0.6761
  165MOL0     C21681   8.087   7.233   1.462 -0.5600  0.2363  0.3346
  165MOL0     C21682   7.979   7.320   1.477 -0.1952  0.1402 -0.3553
  165MOL0     O21683   7.866   7.285   1.545  0.8300 -0.2273 -0.0355
  165MOL0     C21684   7.821   7.151   1.553  0.1868  1.0002 -0.3295
  165MOL0     C21685   7.691   7.147   1.632  0.5311 -0.2832 -0.1257
  165MOL0     C21686   7.599   7.256   1.574  0.4083  1.1520 -0.0281
  165MOL0     C21687   7.463   7.237   1.638 -0.4608 -0.2458  0.8268
  165MOL0     C21688   7.385   7.356   1.579  0.6167  0.2851 -0.0483
  165MOL0     C21689   7.255   7.361   1.672 -0.2082  0.1266 -0.4732
  165MOL0     C21690   7.258   7.476   1.775  0.0963 -0.0195  0.3536
  165MOL0     C21691   7.159   7.466   1.896  0.1094  0.0279 -0.2488
  165MOL0    Cl21692   7.007   7.393   1.838  0.2123  0.8183 -0.3981
  165MOL0     C21693   7.988   7.449   1.440  0.7116 -0.2805 -0.6561
  165MOL0     C21694   8.097   7.500   1.381 -0.0442  0.2244 -0.3577
  165MOL0     O21695   8.406   7.562   1.485 -0.5157  0.0917  0.2167
  165MOL0     C21696   8.571   7.461   1.177  0.6095 -0.7287 -0.2924
  165MOL0     C21697   8.698   7.488   1.119  0.8266 -0.5909 -0.1811
  165MOL0     N21698   9.196   7.452   0.710 -0.0759 -0.5213  0.3225
  165MOL0     N21699   9.276   7.514   0.638  0.6753  0.3434  0.7322
  165MOL0     C21700  10.536   7.739   0.400 -0.0851 -0.1885  0.4555
  165MOL0     C21701  10.663   7.734   0.338 -0.0101 -0.9625 -0.4970
  165MOL0     C21702  11.030   7.569   0.148 -0.6546  0.0656  0.5384
  165MOL0     C21703  11.145   7.519   0.212  0.2544 -0.2546 -0.4478
  165MOL0     C21704  11.249   7.472   0.135  0.0034 -1.0389 -0.6718
  165MOL0     C21705  11.255   7.496  -0.005  0.1746  0.0677 -0.2880
  165MOL0     O21706  11.358   7.476  -0.086  0.3276 -0.4780  0.1726
  165MOL0     C21707  11.492   7.464  -0.047  0.4779 -1.3013  0.4378
  165MOL0     C21708  11.595   7.450  -0.164  0.0135  0.8164 -0.3102
  165MOL0     C21709  11.551   7.545  -0.284  0.1601 -0.2258  0.3374
  165MOL0     C21710  11.667   7.594  -0.358  0.6788 -0.0490  1.1827
  165MOL0     C21711  11.616   7.637  -0.491  0.7795  0.0184 -0.5398
  165MOL0     C21712  11.592   7.664  -0.603 -0.3332  0.6244 -0.2592
  165MOL0     C21713  11.137   7.546  -0.064 -0.5568 -0.4674  1.0913
  165MOL0     C21714  11.022   7.582   0.003 -0.3266  0.0653 -0.1279
  165MOL0     H21715  10.606   7.570   0.049  2.2533  2.1145 -0.6442
  165MOL0     H21716  10.380   7.524   0.191 -2.4867  4.2873 -1.9887
  165MOL0     H21717  10.188   7.506   0.400 -2.0398 -0.1921 -0.2542
  165MOL0     H21718  10.203   7.613   0.250 -4.0838  0.6031 -0.0346
  165MOL0     H21719  10.110   7.799   0.348 -3.1463  0.9691  0.1400
  165MOL0     H21720  10.089   7.721   0.506  0.5812 -1.2737  0.1735
  165MOL0     H21721   9.931   7.557   0.441 -1.6839  1.0697 -0.0901
  165MOL0     H21722   9.962   7.596   0.269  0.5088  0.9303 -1.4025
  165MOL0     H21723   9.907   7.836   0.411 -1.3677  1.6243  2.3514
  165MOL0     H21724   9.815   7.764   0.276  0.3180 -0.1319 -0.2604
  165MOL0     H21725   9.658   7.796   0.450  1.8933  0.8868 -0.0087
  165MOL0     H21726   9.753   7.698   0.567 -2.3327 -2.3352  1.2048
  165MOL0     H21727   9.716   7.507   0.400  0.3964  0.6895 -1.8514
  165MOL0     H21728   9.620   7.603   0.305 -5.3321 -1.2201  1.3962
  165MOL0     H21729   9.452   7.659   0.480  1.6167  0.9304 -2.1223
  165MOL0     H21730   9.456   7.506   0.416 -0.3987  1.3486 -1.4473
  165MOL0     H21731   9.561   7.611   0.703  0.3776 -0.2889  0.8847
  165MOL0     H21732   9.606   7.450   0.635  2.8739  1.5975 -1.5292
  165MOL0     H21733   9.470   7.347   0.853  1.7587  1.8099 -0.3319
  165MOL0     H21734   9.239   7.200   0.906  1.3272  0.3617  0.4303
  165MOL0     H21735   9.092   7.290   0.890  0.1691  0.6138  0.6547
  165MOL0     H21736   9.307   7.370   1.103 -0.1868  1.3664 -0.5229
  165MOL0     H21737   9.157   7.284   1.133 -1.1835  0.5754 -0.8536
  165MOL0     H21738   9.132   7.509   1.204 -2.8581 -1.9639  0.9574
  165MOL0     H21739   9.188   7.569   1.052 -1.3244  0.5286  1.5773
  165MOL0     H21740   8.949   7.395   1.074  3.3361 -0.4075 -0.0586
  165MOL0     H21741   8.971   7.499   0.933 -2.8620 -1.1238  0.6833
  165MOL0     H21742   8.851   7.693   1.326 -0.8369  0.9225 -0.2838
  165MOL0     H21743   8.626   7.663   1.456 -3.3920  1.8361 -1.4979
  165MOL0     H21744   8.296   7.222   1.417 -0.6663  0.3256 -0.0178
  165MOL0     H21745   8.092   7.130   1.497  1.0222 -0.1836 -0.9953
  165MOL0     H21746   7.893   7.093   1.610  0.9351 -0.1673 -2.3420
  165MOL0     H21747   7.820   7.101   1.455  0.9443 -0.5069  0.4184
  165MOL0     H21748   7.693   7.177   1.737  0.0562 -2.7430  0.6310
  165MOL0     H21749   7.656   7.044   1.636 -0.1433 -0.0602 -0.0641
  165MOL0     H21750   7.592   7.249   1.465  0.2301  2.2420 -0.0958
  165MOL0     H21751   7.648   7.351   1.596  1.1087  1.3346 -2.1204
  165MOL0     H21752   7.410   7.143   1.626  1.0790 -1.1995  1.2425
  165MOL0     H21753   7.469   7.235   1.748 -0.0576 -4.8863  0.8961
  165MOL0     H21754   7.364   7.323   1.477 -0.9874 -2.6821  1.1278
  165MOL0     H21755   7.429   7.456   1.580 -2.3169  1.7928 -2.4077
  165MOL0     H21756   7.241   7.268   1.727  1.3939  0.4708  0.5669
  165MOL0     H21757   7.166   7.367   1.609 -1.0677 -1.9480  0.4688
  165MOL0     H21758   7.355   7.502   1.818  0.0615 -0.3263  0.6232
  165MOL0     H21759   7.244   7.562   1.709 -1.3465 -2.4477 -2.8371
  165MOL0     H21760   7.140   7.563   1.943  0.4351 -1.0763  2.2853
  165MOL0     H21761   7.199   7.397   1.971 -0.3608 -2.3215 -2.0167
  165MOL0     H21762   7.906   7.520   1.437  2.8065  2.3019 -0.9570
  165MOL0     H21763   8.115   7.601   1.345  0.8202  0.1585 -0.1459
  165MOL0     H21764   8.489   7.420   1.119 -0.8221  4.6115 -2.7042
  165MOL0     H21765   8.713   7.458   1.016  0.6435  0.7925 -0.6318
  165MOL0     H21766  10.512   7.786   0.495 -0.2408  0.0880  0.2765
  165MOL0     H21767  10.753   7.778   0.379 -2.4284  1.2690  3.0417
  165MOL0     H21768  11.145   7.515   0.320  2.3219  0.6606 -0.3549
  165MOL0     H21769  11.338   7.429   0.181 -0.3731 -1.3285 -0.1996
  165MOL0     H21770  11.504   7.381   0.024 -1.3367 -0.4818  1.8046
  165MOL0     H21771  11.526   7.545   0.019  3.9709 -3.0563  1.0633
  165MOL0     H21772  11.692   7.482  -0.124  0.6875 -0.6957 -0.6551
  165MOL0     H21773  11.586   7.349  -0.205  1.6058  0.5736 -0.1289
  165MOL0     H21774  11.492   7.626  -0.242  1.1148  0.8222 -0.2764
  165MOL0     H21775  11.486   7.489  -0.352  1.2288 -0.4536 -0.5330
  165MOL0     H21776  11.716   7.682  -0.316  0.2185  1.6572 -1.6121
  165MOL0     H21777  11.749   7.522  -0.373 -0.1458 -1.0324  1.2370
  165MOL0     H21778  11.564   7.697  -0.701  1.6951  3.0786 -0.0997
  165MOL0     H21779  11.152   7.568  -0.169  1.4755 -0.1685  1.3969
  165MOL0     H21780  10.934   7.623  -0.045 -1.0657 -2.2458 -0.8335
  166MOL0     O21781   1.671   8.517   1.076  0.4765 -0.0478  0.4275
  166MOL0     C21782   1.786   8.550   1.103 -0.0828  0.7402 -0.5953
  166MOL0     O21783   1.851   8.568   1.220  0.1094  0.4671 -0.5960
  166MOL0     C21784   1.768   8.574   1.331  0.2104 -0.3067  1.2825
  166MOL0     C21785   1.753   8.694   1.406  0.0781  0.5598  0.5568
  166MOL0     C21786   1.664   8.688   1.516  0.0854 -0.6491  0.3387
  166MOL0     C21787   1.571   8.580   1.530 -0.1653  0.2646 -0.1249
  166MOL0     O21788   1.477   8.589   1.636 -0.0417 -0.2925  0.9621
  166MOL0     C21789   1.370   8.487   1.630 -0.1069  0.4517 -0.9986
  166MOL0     C21790   1.269   8.517   1.752  0.3679  0.3063 -0.2168
  166MOL0     C21791   1.130   8.476   1.718  0.0437  0.3445 -0.3138
  166MOL0     C21792   1.032   8.513   1.826  0.2756 -0.4199 -0.1419
  166MOL0     C21793   0.891   8.475   1.772 -0.1886  0.0343 -0.1453
  166MOL0     C21794   0.777   8.508   1.867 -0.6017  0.8221 -0.5288
  166MOL0     C21795   0.662   8.425   1.851  0.6168  0.4023 -0.2207
  166MOL0     C21796   0.571   8.460   1.730  1.3057  0.2044  0.2242
  166MOL0     N21797   0.440   8.400   1.754 -0.0291  0.1947  0.3987
  166MOL0     C21798   0.331   8.435   1.668 -1.1518 -0.0269  0.0103
  166MOL0     C21799   0.227   8.371   1.712 -0.3112  0.9874 -0.0564
  166MOL0     C21800   0.096   8.360   1.633  0.6244  0.1284 -0.3464
  166MOL0     C21801  -0.012   8.296   1.716  0.3031  0.1710  0.0977
  166MOL0     C21802  -0.092   8.405   1.797 -0.3172  0.8536 -0.3021
  166MOL0     C21803  -0.214   8.341   1.866  0.1829 -0.0981 -0.4137
  166MOL0     O21804  -0.302   8.447   1.897 -0.5641  0.3865 -0.4786
  166MOL0     C21805  -0.416   8.406   1.975 -0.8445 -0.5460 -0.1556
  166MOL0     C21806  -0.430   8.287   2.052 -0.0857  0.6045  1.2403
  166MOL0     C21807  -0.549   8.274   2.125 -0.0560 -0.2141  0.0618
  166MOL0     C21808  -0.644   8.384   2.131 -0.1247  0.4590  0.0541
  166MOL0     C21809  -0.774   8.377   2.213 -0.1056 -1.1868  0.0361
  166MOL0     O21810  -0.829   8.496   2.252  0.2336 -0.1764 -0.7121
  166MOL0     C21811  -0.942   8.491   2.339 -0.4603 -0.6872  0.0360
  166MOL0     C21812  -1.061   8.431   2.301 -0.2710 -0.0772 -0.6877
  166MOL0     C21813  -1.176   8.449   2.380 -0.2297  0.0436  0.0228
  166MOL0     C21814  -1.182   8.528   2.494  0.7613 -0.5662 -0.2099
  166MOL0     O21815  -1.296   8.550   2.563 -0.2584 -0.5375 -0.0608
  166MOL0     C21816  -1.374   8.438   2.601  0.5884 -0.2327  0.1441
  166MOL0     C21817  -1.422   8.453   2.746  0.8161 -0.2334 -1.4827
  166MOL0     C21818  -1.335   8.372   2.839  0.1411 -0.1334 -0.6862
  166MOL0     C21819  -1.407   8.330   2.970 -0.1126  0.4451 -0.8080
  166MOL0     C21820  -1.312   8.252   3.064  0.7102  0.0628 -0.0016
  166MOL0     C21821  -1.387   8.196   3.182  0.2436 -0.2200 -0.3219
  166MOL0     C21822  -1.288   8.140   3.264 -0.9764 -0.2483 -0.0443
  166MOL0     C21823  -1.346   8.068   3.385 -0.7396  0.0457 -0.8093
  166MOL0    Cl21824  -1.457   7.935   3.331  0.4134  0.0043  0.0870
  166MOL0     C21825  -1.057   8.578   2.539 -0.0267  0.0876  0.5851
  166MOL0     C21826  -0.941   8.564   2.459  0.8710 -0.8493 -0.1595
  166MOL0     O21827  -0.789   8.272   2.269 -0.3124  1.1577  0.9680
  166MOL0     C21828  -0.624   8.503   2.053  0.0796  0.2428 -0.3907
  166MOL0     C21829  -0.514   8.499   1.964  0.1720 -0.1035  0.4529
  166MOL0     N21830   0.264   8.312   1.831 -0.7283  0.0052  0.3585
  166MOL0     N21831   0.388   8.344   1.859  0.5257 -0.2434 -0.6752
  166MOL0     C21832   1.574   8.470   1.444  0.2661  0.0745  0.2695
  166MOL0     C21833   1.686   8.463   1.363  1.2434  0.8002  0.4062
  166MOL0     C21834   1.864   8.564   0.983 -0.0905 -0.4527 -0.5391
  166MOL0     C21835   1.981   8.638   0.997  0.2296 -0.0267  0.3802
  166MOL0     C21836   2.058   8.666   0.879 -0.0231  0.6216  0.1777
  166MOL0     C21837   2.035   8.604   0.758  0.3898 -0.2146  0.6146
  166MOL0     O21838   2.121   8.612   0.647  0.2384 -0.2853  0.1562
  166MOL0     C21839   2.233   8.700   0.649 -0.1566  0.5732 -0.4343
  166MOL0     C21840   2.313   8.690   0.516 -0.2089  0.4538 -1.0247
  166MOL0     C21841   2.417   8.794   0.500  0.0616  0.6587  0.3888
  166MOL0     C21842   2.542   8.755   0.576  0.4392 -1.0707 -0.2040
  166MOL0     C21843   2.596   8.856   0.670 -0.3290 -0.3225 -0.0612
  166MOL0     C21844   2.623   8.933   0.757 -0.1940 -0.1751 -1.1149
  166MOL0     C21845   1.927   8.515   0.756  0.7183 -1.7008  0.3557
  166MOL0     C21846   1.833   8.499   0.858  0.3182 -0.6098 -0.3918
  166MOL0     H21847   1.819   8.778   1.389  1.8672 -0.8967 -0.0393
  166MOL0     H21848   1.668   8.762   1.596 -0.1206 -1.3926  1.0478
  166MOL0     H21849   1.412   8.387   1.646  1.1578  1.2604  1.3108
  166MOL0     H21850   1.315   8.501   1.537 -1.2680 -1.3864 -0.6420
  166MOL0     H21851   1.273   8.625   1.766  1.3219  0.4237 -1.2194
  166MOL0     H21852   1.304   8.470   1.844 -3.3248  1.5339  2.0296
  166MOL0     H21853   1.117   8.367   1.713  0.4026  0.1270  2.1912
  166MOL0     H21854   1.096   8.527   1.627 -0.7413  1.0835  0.3817
  166MOL0     H21855   1.053   8.464   1.921  0.4744 -1.7292 -0.8342
  166MOL0     H21856   1.041   8.621   1.846  0.3260 -0.6922  1.4517
  166MOL0     H21857   0.881   8.367   1.756  0.4815 -0.3849  1.9568
  166MOL0     H21858   0.874   8.540   1.686 -1.1457  3.6011  2.5083
  166MOL0     H21859   0.752   8.614   1.863  3.4863  1.9314 -0.5387
  166MOL0     H21860   0.816   8.499   1.969 -1.8465  2.0262  0.0886
  166MOL0     H21861   0.692   8.320   1.848 -0.6046  0.0511 -1.5736
  166MOL0     H21862   0.593   8.436   1.935 -0.1669  0.1995 -0.8238
  166MOL0     H21863   0.629   8.433   1.641 -1.7565  1.8919 -2.4913
  166MOL0     H21864   0.562   8.569   1.723  0.2267  0.0791 -0.5136
  166MOL0     H21865   0.329   8.479   1.569 -3.0697 -2.0985 -0.9595
  166MOL0     H21866   0.116   8.301   1.544 -0.4081  0.2647 -0.6805
  166MOL0     H21867   0.061   8.457   1.597  0.5246  0.4595  0.5916
  166MOL0     H21868   0.040   8.218   1.772  2.4403  2.2482  1.1671
  166MOL0     H21869  -0.083   8.249   1.648 -0.8928  3.3084 -1.0443
  166MOL0     H21870  -0.030   8.452   1.874  0.0420 -2.0259  1.3339
  166MOL0     H21871  -0.136   8.475   1.725 -0.3442 -0.9561 -2.1320
  166MOL0     H21872  -0.190   8.283   1.955 -2.0539  0.4492  0.6295
  166MOL0     H21873  -0.272   8.271   1.805  0.8514 -0.4932 -0.6054
  166MOL0     H21874  -0.359   8.205   2.048 -1.3649 -0.5606  1.6834
  166MOL0     H21875  -0.565   8.188   2.189 -1.0142  0.2247  0.4343
  166MOL0     H21876  -1.069   8.375   2.208  2.9286  2.6414 -2.8006
  166MOL0     H21877  -1.262   8.410   2.326  0.0787  0.4682 -0.7945
  166MOL0     H21878  -1.323   8.343   2.581  2.4955  0.9452 -0.9448
  166MOL0     H21879  -1.457   8.445   2.530  0.8147  1.5715  0.0065
  166MOL0     H21880  -1.524   8.413   2.749  0.0375  1.5131  2.4335
  166MOL0     H21881  -1.427   8.554   2.787 -2.6930 -1.4907  1.8099
  166MOL0     H21882  -1.253   8.441   2.860 -0.7936  0.7855  0.0220
  166MOL0     H21883  -1.300   8.284   2.784  0.3652 -0.2820 -0.3134
  166MOL0     H21884  -1.444   8.421   3.018 -0.5596 -1.3592  2.5801
  166MOL0     H21885  -1.488   8.260   2.950  0.9933 -0.2483 -3.3670
  166MOL0     H21886  -1.231   8.317   3.097 -0.6244  2.3756 -0.9970
  166MOL0     H21887  -1.273   8.168   3.005  3.0370  0.1970  1.2377
  166MOL0     H21888  -1.464   8.122   3.158 -1.0256 -0.3698  3.5544
  166MOL0     H21889  -1.444   8.278   3.228 -0.5158 -1.5775  1.2606
  166MOL0     H21890  -1.232   8.060   3.215  0.8832  0.6545  0.4931
  166MOL0     H21891  -1.213   8.213   3.295  0.1958 -1.6680  0.5948
  166MOL0     H21892  -1.405   8.144   3.436  0.6558 -0.2576  1.3765
  166MOL0     H21893  -1.262   8.029   3.443 -0.9339  2.7459  1.4821
  166MOL0     H21894  -1.047   8.621   2.638 -1.3925 -1.0030  1.2379
  166MOL0     H21895  -0.843   8.598   2.493  0.7997 -0.1188 -0.6516
  166MOL0     H21896  -0.698   8.580   2.040 -1.5451 -1.0907  0.6188
  166MOL0     H21897  -0.503   8.588   1.902  2.4098 -1.6997 -1.6108
  166MOL0     H21898   1.523   8.375   1.458 -1.5268  0.6029 -2.0186
  166MOL0     H21899   1.718   8.366   1.325  3.2394 -0.0124  3.7364
  166MOL0     H21900   2.003   8.694   1.088  0.2980  1.6098 -0.6077
  166MOL0     H21901   2.139   8.738   0.884  1.0945  0.1007 -4.8070
  166MOL0     H21902   2.287   8.710   0.744 -0.1496  2.7773 -0.6184
  166MOL0     H21903   2.189   8.800   0.656 -0.6337  0.2769  1.6422
  166MOL0     H21904   2.358   8.591   0.505 -0.9902 -0.6511  3.5885
  166MOL0     H21905   2.245   8.701   0.431 -0.9867  0.8349 -0.3716
  166MOL0     H21906   2.375   8.891   0.527  0.2390  1.4677 -2.0057
  166MOL0     H21907   2.442   8.802   0.393 -1.1533 -2.6455 -0.2762
  166MOL0     H21908   2.540   8.660   0.631  0.0955 -1.6115 -1.1370
  166MOL0     H21909   2.612   8.738   0.494 -1.0221 -1.5075 -1.3989
  166MOL0     H21910   2.647   9.002   0.836  1.6002 -1.3205 -0.6186
  166MOL0     H21911   1.909   8.459   0.665  0.8809  1.5565 -1.8765
  166MOL0     H21912   1.745   8.437   0.851 -1.8622  2.1917  0.3672
  167MOL0     O21913   2.280   0.379   5.612 -1.3391  0.0795  0.6740
  167MOL0     C21914   2.294   0.428   5.721 -0.1680  0.4734  0.2730
  167MOL0     O21915   2.408   0.475   5.764  0.3486  0.0768  0.4877
  167MOL0     C21916   2.517   0.475   5.680 -1.4317  0.4271 -0.2036
  167MOL0     C21917   2.612   0.365   5.683 -0.2133 -0.8632 -0.2691
  167MOL0     C21918   2.733   0.380   5.612  0.6532  0.8942  1.1275
  167MOL0     C21919   2.762   0.494   5.530  0.3771 -0.3644 -0.0768
  167MOL0     O21920   2.888   0.490   5.468  0.3400 -0.5378  0.5249
  167MOL0     C21921   2.932   0.616   5.420  0.1563 -0.3465 -0.0693
  167MOL0     C21922   2.874   0.655   5.283  0.3659  0.3476 -0.6838
  167MOL0     C21923   2.955   0.747   5.198 -0.0153  0.2668 -0.2355
  167MOL0     C21924   3.079   0.678   5.155 -0.4248 -0.6301 -0.1657
  167MOL0     C21925   3.188   0.782   5.105 -0.7938  0.5386  0.4644
  167MOL0     C21926   3.272   0.723   4.988 -0.7283 -0.0042  0.1402
  167MOL0     C21927   3.340   0.593   5.040 -0.8565 -0.0454  0.4769
  167MOL0     C21928   3.483   0.583   4.987  0.6781 -0.2615 -0.1946
  167MOL0     N21929   3.539   0.458   5.025 -0.2071  0.0799 -0.1222
  167MOL0     C21930   3.635   0.443   5.125  0.3102  0.5949 -0.1580
  167MOL0     C21931   3.653   0.317   5.153 -1.1368  0.0834 -0.1288
  167MOL0     C21932   3.734   0.254   5.262  0.6781 -0.5431 -0.5100
  167MOL0     C21933   3.635   0.233   5.373 -0.3508  0.1498 -0.4326
  167MOL0     C21934   3.674   0.123   5.467 -0.4854 -0.5154 -0.2550
  167MOL0     C21935   3.822   0.150   5.522 -0.6990 -0.4192  0.0949
  167MOL0     O21936   3.836   0.283   5.576  0.0366 -0.7283 -0.5666
  167MOL0     C21937   3.966   0.321   5.617 -0.8900 -0.1792  0.1668
  167MOL0     C21938   3.992   0.459   5.640  0.7689  0.5566  0.3298
  167MOL0     C21939   4.117   0.509   5.672  0.8579  0.0356 -0.0955
  167MOL0     C21940   4.218   0.413   5.686  0.2168  0.4416  0.1948
  167MOL0     C21941   4.361   0.451   5.709 -0.2786  0.0133  0.2203
  167MOL0     O21942   4.466   0.377   5.659 -0.1492  0.2631 -0.5983
  167MOL0     C21943   4.599   0.410   5.679  0.1644  0.1235  0.0815
  167MOL0     C21944   4.694   0.381   5.577 -0.0255  0.1226 -0.1039
  167MOL0     C21945   4.830   0.413   5.601  0.6770  0.1145 -0.0253
  167MOL0     C21946   4.868   0.481   5.714 -0.2630 -0.3322  0.3584
  167MOL0     O21947   4.998   0.516   5.726  0.0561 -0.4960 -0.6455
  167MOL0     C21948   5.029   0.617   5.828  0.3133 -0.2368  0.1183
  167MOL0     C21949   5.167   0.682   5.830 -0.4389  0.3827 -0.4223
  167MOL0     C21950   5.200   0.748   5.692  0.0578 -0.9055 -0.6819
  167MOL0     C21951   5.294   0.863   5.726  0.2558  0.6177 -1.0654
  167MOL0     C21952   5.361   0.902   5.590  0.1841 -0.5150  0.8476
  167MOL0     C21953   5.431   1.039   5.602 -0.0604  0.3282 -0.3790
  167MOL0     C21954   5.563   1.019   5.688 -0.5572 -0.8215  0.3550
  167MOL0     C21955   5.647   1.142   5.668 -0.1001 -0.9118 -0.6722
  167MOL0    Cl21956   5.798   1.121   5.764 -0.1045 -0.1823 -0.4358
  167MOL0     C21957   4.774   0.503   5.812  0.5158 -0.1424 -0.1540
  167MOL0     C21958   4.639   0.480   5.799  0.0788 -0.7217  0.4672
  167MOL0     O21959   4.377   0.558   5.760  0.1250 -0.6125  0.3130
  167MOL0     C21960   4.194   0.271   5.671  0.4706 -0.0553 -0.5134
  167MOL0     C21961   4.069   0.226   5.639  0.3581 -0.3335 -0.3554
  167MOL0     N21962   3.603   0.246   5.037  0.3889 -0.3564  0.7699
  167MOL0     N21963   3.518   0.330   4.978  0.1272 -0.1499 -0.3162
  167MOL0     C21964   2.669   0.603   5.539  0.3298 -0.4888 -0.3159
  167MOL0     C21965   2.552   0.590   5.614 -0.3790  0.4578 -0.1749
  167MOL0     C21966   2.192   0.429   5.827  0.3887  0.4038  0.3465
  167MOL0     C21967   2.054   0.407   5.791 -0.9247  0.5532  0.5377
  167MOL0     C21968   1.955   0.409   5.883  0.1509  0.1644 -0.9435
  167MOL0     C21969   1.978   0.423   6.020 -0.1475 -0.0005  0.3984
  167MOL0     O21970   1.889   0.421   6.126  0.0048 -0.0537 -0.3057
  167MOL0     C21971   1.761   0.371   6.098 -0.3784 -0.1530  0.0735
  167MOL0     C21972   1.641   0.424   6.173 -0.7426 -0.0601 -0.2228
  167MOL0     C21973   1.645   0.370   6.321  0.1240 -0.5658  0.2445
  167MOL0     C21974   1.552   0.455   6.407  0.3049  0.2540  0.0196
  167MOL0     C21975   1.415   0.444   6.372 -0.7661  0.2327  0.0190
  167MOL0     C21976   1.298   0.451   6.339  0.9729 -0.8273  0.4787
  167MOL0     C21977   2.117   0.445   6.052 -0.2587 -0.5871  0.2507
  167MOL0     C21978   2.218   0.444   5.967 -1.5506 -1.1201  0.0307
  167MOL0     H21979   2.597   0.274   5.740 -2.1097 -0.7920 -0.5847
  167MOL0     H21980   2.803   0.298   5.625 -2.7398 -2.4961 -0.0088
  167MOL0     H21981   3.041   0.610   5.407  0.5178 -2.4525  2.9463
  167MOL0     H21982   2.909   0.698   5.488  2.5224  0.1264  0.2415
  167MOL0     H21983   2.775   0.699   5.295 -0.4784 -0.5593 -3.6039
  167MOL0     H21984   2.860   0.563   5.225  1.4004 -0.9964  1.1000
  167MOL0     H21985   2.987   0.832   5.258  2.9129 -0.6671 -0.3202
  167MOL0     H21986   2.889   0.776   5.116 -0.8934 -2.5569 -0.6658
  167MOL0     H21987   3.132   0.624   5.235  0.7293  1.0010  0.2296
  167MOL0     H21988   3.054   0.605   5.078 -2.2710  0.6044 -0.8080
  167MOL0     H21989   3.250   0.818   5.187 -3.7088  2.5005  1.9982
  167MOL0     H21990   3.131   0.873   5.083 -0.2595  1.9642  4.3037
  167MOL0     H21991   3.363   0.778   4.961 -0.3025 -1.9109 -2.8298
  167MOL0     H21992   3.208   0.708   4.900  0.0273 -0.3029 -0.3686
  167MOL0     H21993   3.340   0.588   5.150 -1.0914  0.0848  0.4844
  167MOL0     H21994   3.273   0.522   4.990 -1.5962  0.1835  1.1176
  167MOL0     H21995   3.549   0.659   5.028  1.3415 -1.0962  0.3138
  167MOL0     H21996   3.485   0.605   4.880 -3.0737 -0.4365 -0.4505
  167MOL0     H21997   3.676   0.526   5.181  0.5182  1.1951 -1.1966
  167MOL0     H21998   3.819   0.319   5.288  0.1971  0.3092 -1.0235
  167MOL0     H21999   3.755   0.152   5.229  0.0770 -0.6866 -0.4697
  167MOL0     H22000   3.533   0.213   5.339 -0.2227  2.6716 -2.6145
  167MOL0     H22001   3.629   0.329   5.426  1.5855  1.3407 -2.2056
  167MOL0     H22002   3.601   0.121   5.548  0.3697  2.6704  0.7083
  167MOL0     H22003   3.680   0.032   5.406 -1.3714 -0.2438 -0.7579
  167MOL0     H22004   3.904   0.132   5.453  1.9780  2.5607  2.2230
  167MOL0     H22005   3.834   0.086   5.610  4.4733  0.1320  0.0469
  167MOL0     H22006   3.916   0.537   5.638  1.0173  0.8381  1.2855
  167MOL0     H22007   4.132   0.616   5.678  0.2549  0.0650  1.2241
  167MOL0     H22008   4.658   0.340   5.483 -0.3593  2.9040 -1.2870
  167MOL0     H22009   4.905   0.388   5.526  1.8562 -1.1371  1.5083
  167MOL0     H22010   5.013   0.576   5.928  1.0452 -0.6228  0.0909
  167MOL0     H22011   4.949   0.690   5.822 -1.0235 -1.7366 -1.2660
  167MOL0     H22012   5.230   0.599   5.864  2.4803  1.9943 -1.5943
  167MOL0     H22013   5.163   0.754   5.912 -2.7304 -0.8299  0.6313
  167MOL0     H22014   5.111   0.797   5.650 -0.0966 -0.7583 -0.1931
  167MOL0     H22015   5.241   0.674   5.624 -0.3881 -0.6503 -1.2426
  167MOL0     H22016   5.237   0.944   5.773  0.2582 -0.7822  1.4903
  167MOL0     H22017   5.385   0.832   5.779 -0.5290  0.3770  0.1874
  167MOL0     H22018   5.286   0.919   5.512  2.0658 -2.9465 -1.6656
  167MOL0     H22019   5.428   0.825   5.553 -0.8426 -0.4385 -1.3545
  167MOL0     H22020   5.366   1.114   5.648 -0.5898 -2.3288  3.6980
  167MOL0     H22021   5.452   1.084   5.505  2.1637 -0.5141 -0.3244
  167MOL0     H22022   5.538   1.000   5.793 -0.4961  0.5819  0.6462
  167MOL0     H22023   5.622   0.932   5.656 -0.3460 -0.1954 -0.9977
  167MOL0     H22024   5.604   1.235   5.705  1.0226 -1.4098  2.1916
  167MOL0     H22025   5.678   1.159   5.565  0.9765  1.2809 -0.0358
  167MOL0     H22026   4.794   0.556   5.905 -1.3836 -1.9325  1.3772
  167MOL0     H22027   4.558   0.501   5.868  0.6944  1.6349  0.5370
  167MOL0     H22028   4.277   0.202   5.675 -1.3366 -2.3251  2.4991
  167MOL0     H22029   4.058   0.118   5.633  0.9852 -0.3535 -1.2286
  167MOL0     H22030   2.679   0.700   5.491  0.8442 -0.4015 -0.0389
  167MOL0     H22031   2.487   0.676   5.624 -0.3131  0.6048 -0.9392
  167MOL0     H22032   2.035   0.381   5.687  1.8551 -3.1898  0.7437
  167MOL0     H22033   1.856   0.406   5.838  1.0161  2.2328 -3.1757
  167MOL0     H22034   1.768   0.263   6.118 -0.1074 -0.5385 -1.8626
  167MOL0     H22035   1.738   0.396   5.994  1.3336  3.7926  0.4583
  167MOL0     H22036   1.630   0.532   6.164 -0.9603 -0.1378 -1.0047
  167MOL0     H22037   1.552   0.369   6.140 -0.2380 -1.3274  0.4600
  167MOL0     H22038   1.750   0.381   6.348 -0.1253  2.4337  0.2636
  167MOL0     H22039   1.617   0.264   6.325  1.7577 -1.0135  3.9055
  167MOL0     H22040   1.565   0.438   6.514 -1.1345  0.4348  0.2478
  167MOL0     H22041   1.579   0.559   6.387 -0.9330  0.7922  1.0046
  167MOL0     H22042   1.195   0.458   6.311  1.5355  3.0352 -1.1532
  167MOL0     H22043   2.129   0.463   6.159  1.1484  2.2738 -0.2720
  167MOL0     H22044   2.319   0.443   6.007 -2.2521 -2.6451  1.8935
  168MOL0     O22045   2.882  10.746   2.079 -0.5815 -0.6578  0.3123
  168MOL0     C22046   2.894  10.760   2.197 -0.0621  0.9568 -0.4206
  168MOL0     O22047   2.808  10.710   2.280  0.8322 -0.2068 -0.4563
  168MOL0     C22048   2.675  10.698   2.234 -0.0242  0.0357 -1.0139
  168MOL0     C22049   2.600  10.584   2.268 -0.4137  0.3253 -0.0696
  168MOL0     C22050   2.466  10.573   2.247  0.1040 -0.6645 -0.5150
  168MOL0     C22051   2.388  10.684   2.202 -0.3513 -0.2429  1.2477
  168MOL0     O22052   2.253  10.686   2.202  0.4140 -0.1669  0.0759
  168MOL0     C22053   2.196  10.753   2.317  0.4061 -0.3526  0.1871
  168MOL0     C22054   2.156  10.896   2.273 -0.7914  0.2275 -0.3520
  168MOL0     C22055   2.045  10.902   2.164 -0.1138  0.2722  0.1944
  168MOL0     C22056   1.903  10.857   2.218  0.0421  0.4463  0.0807
  168MOL0     C22057   1.798  10.881   2.112  0.5027  0.1024 -0.0177
  168MOL0     C22058   1.662  10.829   2.161 -0.2545  0.7315  0.5733
  168MOL0     C22059   1.554  10.805   2.055 -0.1397 -0.0797  0.0678
  168MOL0     C22060   1.453  10.918   2.027  0.0010  0.3355 -0.4785
  168MOL0     N22061   1.351  10.862   1.943  0.3248 -0.4150  0.4207
  168MOL0     C22062   1.345  10.848   1.800  0.4323  0.2196 -0.0342
  168MOL0     C22063   1.226  10.788   1.782  0.1675 -0.8555  1.3945
  168MOL0     C22064   1.177  10.741   1.652  0.8353 -0.6769 -0.5873
  168MOL0     C22065   1.145  10.591   1.676  0.1169 -0.3947 -0.2756
  168MOL0     C22066   1.088  10.533   1.543  0.4305  0.2152 -0.3395
  168MOL0     C22067   0.938  10.557   1.532  0.8215  0.0809 -0.0722
  168MOL0     O22068   0.876  10.478   1.634  0.3803 -0.1149 -0.1751
  168MOL0     C22069   0.738  10.468   1.638  0.5531 -0.0297 -0.4536
  168MOL0     C22070   0.675  10.396   1.744 -0.0646  0.4625 -0.2194
  168MOL0     C22071   0.538  10.395   1.752  0.3127 -0.7690  0.4651
  168MOL0     C22072   0.452  10.466   1.658  0.3262  0.0831 -1.3627
  168MOL0     C22073   0.307  10.483   1.687  0.4257  0.4085  0.5415
  168MOL0     O22074   0.224  10.546   1.595  0.1720 -0.1349  0.0694
  168MOL0     C22075   0.088  10.538   1.628  0.3525 -0.2280  0.2273
  168MOL0     C22076  -0.001  10.483   1.538 -1.4248 -0.2828  0.0801
  168MOL0     C22077  -0.138  10.486   1.552  0.1906  0.6783  0.1057
  168MOL0     C22078  -0.196  10.557   1.662  0.2519  0.0303  1.0076
  168MOL0     O22079  -0.330  10.556   1.682  0.8416 -0.6040 -0.0968
  168MOL0     C22080  -0.415  10.457   1.608  0.2253 -0.3791  0.3387
  168MOL0     C22081  -0.559  10.468   1.665  0.2350  0.6339  0.4461
  168MOL0     C22082  -0.649  10.367   1.601  0.0622  0.1182  0.5547
  168MOL0     C22083  -0.780  10.329   1.681 -0.2057 -0.2093 -0.1274
  168MOL0     C22084  -0.877  10.253   1.593 -0.6998  0.8688  0.3971
  168MOL0     C22085  -0.995  10.196   1.674 -0.9260  0.1530 -0.2042
  168MOL0     C22086  -1.080  10.106   1.583 -0.5360 -0.6420 -0.2282
  168MOL0     C22087  -1.224  10.079   1.629 -0.5152 -0.2026  0.7926
  168MOL0    Cl22088  -1.299  10.227   1.684  0.0714  0.1009 -0.1994
  168MOL0     C22089  -0.107  10.623   1.746  0.5778  0.4172 -1.0983
  168MOL0     C22090   0.035  10.611   1.731  0.1504  0.0137 -0.0582
  168MOL0     O22091   0.267  10.426   1.787 -0.4716 -0.2069 -0.2952
  168MOL0     C22092   0.512  10.532   1.555 -0.0677  0.1181 -0.1204
  168MOL0     C22093   0.655  10.526   1.540 -0.0155 -0.2269 -0.5800
  168MOL0     N22094   1.158  10.766   1.900  0.0388 -0.3461 -0.7794
  168MOL0     N22095   1.220  10.830   1.992  0.2287 -0.2942 -0.0755
  168MOL0     C22096   2.464  10.799   2.174  0.9548  0.3811 -0.6648
  168MOL0     C22097   2.602  10.806   2.196 -0.3203 -0.2859 -0.0813
  168MOL0     C22098   3.021  10.827   2.250  0.4976 -0.0495 -0.2840
  168MOL0     C22099   3.048  10.869   2.384 -0.1096 -0.9552  0.0768
  168MOL0     C22100   3.163  10.923   2.425  0.0849 -0.3732  0.4848
  168MOL0     C22101   3.268  10.938   2.337  0.0144  0.1552 -0.1254
  168MOL0     O22102   3.383  10.998   2.380 -0.5787 -0.1633 -0.0912
  168MOL0     C22103   3.436  11.099   2.291 -0.0543  0.6303 -0.5020
  168MOL0     C22104   3.578  11.151   2.349  0.1380  0.4593 -0.0923
  168MOL0     C22105   3.694  11.047   2.370 -0.3182 -0.1950 -0.5966
  168MOL0     C22106   3.808  11.108   2.447 -0.5969  0.0356  0.4996
  168MOL0     C22107   3.921  11.010   2.447  0.2470  0.0157  0.5553
  168MOL0     C22108   4.010  10.929   2.432  0.0475  0.1519 -0.7775
  168MOL0     C22109   3.245  10.897   2.199 -0.7586 -0.4101  0.0541
  168MOL0     C22110   3.121  10.852   2.150  0.4887  0.1939 -0.5662
  168MOL0     H22111   2.652  10.500   2.312 -1.2942 -0.1607  0.0649
  168MOL0     H22112   2.407  10.485   2.274  0.4633 -0.5935  0.5488
  168MOL0     H22113   2.255  10.746   2.409 -2.5171 -1.6916  2.0834
  168MOL0     H22114   2.103  10.701   2.340 -0.0587  0.4870  0.2400
  168MOL0     H22115   2.247  10.949   2.245 -0.5259  0.1869  0.3983
  168MOL0     H22116   2.122  10.956   2.358 -0.1056  1.9468 -1.2478
  168MOL0     H22117   2.066  10.832   2.083 -1.3301  0.5762 -0.4070
  168MOL0     H22118   2.044  11.000   2.116  2.4764 -0.3909 -1.4015
  168MOL0     H22119   1.906  10.752   2.246  1.1968 -0.5039 -3.1388
  168MOL0     H22120   1.881  10.924   2.302 -1.1266 -2.4288  2.2434
  168MOL0     H22121   1.828  10.820   2.027  3.2645 -2.8108  2.7716
  168MOL0     H22122   1.808  10.984   2.077 -1.8381  0.1872 -0.5824
  168MOL0     H22123   1.636  10.897   2.243  0.8793  2.4847 -0.4364
  168MOL0     H22124   1.692  10.731   2.200  1.0180  1.1689  0.7624
  168MOL0     H22125   1.595  10.783   1.956 -1.4971 -1.7442 -0.1764
  168MOL0     H22126   1.498  10.712   2.070  2.3590 -2.0603 -2.0373
  168MOL0     H22127   1.490  11.009   1.979 -0.3092  0.9205  0.3556
  168MOL0     H22128   1.413  10.952   2.123  0.3975 -1.8654  0.5385
  168MOL0     H22129   1.407  10.898   1.726  0.3759 -0.8840 -0.8410
  168MOL0     H22130   1.249  10.737   1.570 -1.0838  2.2866 -2.6293
  168MOL0     H22131   1.089  10.791   1.611  0.4351 -1.9597 -1.3754
  168MOL0     H22132   1.079  10.575   1.761  1.4814  1.7704  1.2783
  168MOL0     H22133   1.239  10.540   1.701 -1.3986 -2.4143  1.8088
  168MOL0     H22134   1.125  10.599   1.464 -2.4442  5.3161  2.0393
  168MOL0     H22135   1.118  10.428   1.539 -1.3031 -0.4023  1.2469
  168MOL0     H22136   0.907  10.523   1.433  0.6019  3.3585 -1.2379
  168MOL0     H22137   0.891  10.655   1.531 -2.4777 -1.3699 -0.0985
  168MOL0     H22138   0.731  10.359   1.829  0.1701  1.9892  0.3267
  168MOL0     H22139   0.509  10.334   1.838 -0.5255 -0.8595  0.1287
  168MOL0     H22140   0.059  10.447   1.455  0.3400  1.7269  0.3948
  168MOL0     H22141  -0.191  10.418   1.487 -2.5034  1.4102  1.4104
  168MOL0     H22142  -0.372  10.358   1.622  1.2581 -0.1064 -0.7618
  168MOL0     H22143  -0.415  10.486   1.502  2.4340  0.1821  0.4558
  168MOL0     H22144  -0.596  10.570   1.658 -1.4288  0.3140  3.1485
  168MOL0     H22145  -0.567  10.443   1.772 -1.0538 -1.3750 -0.0574
  168MOL0     H22146  -0.608  10.269   1.573 -2.8518 -0.6510 -1.5781
  168MOL0     H22147  -0.682  10.407   1.505 -1.5753 -3.5119 -0.6102
  168MOL0     H22148  -0.755  10.266   1.767  5.3789 -0.6876 -1.7073
  168MOL0     H22149  -0.823  10.423   1.718  5.4262  2.0115  2.0292
  168MOL0     H22150  -0.816  10.169   1.559 -2.7846  0.1999 -1.9863
  168MOL0     H22151  -0.922  10.304   1.507  0.6770  3.1928  0.9687
  168MOL0     H22152  -1.058  10.280   1.705 -1.3175 -1.0045  2.3170
  168MOL0     H22153  -0.970  10.139   1.764 -0.5007 -0.2984 -0.6017
  168MOL0     H22154  -1.090  10.157   1.487  1.5889  3.1046  1.3345
  168MOL0     H22155  -1.021  10.013   1.576 -0.2985 -0.4742 -0.4994
  168MOL0     H22156  -1.226  10.005   1.710  1.5235 -3.3750 -1.7655
  168MOL0     H22157  -1.269  10.032   1.540  2.5348  1.5722 -1.9168
  168MOL0     H22158  -0.138  10.677   1.835 -1.0309 -0.9791 -0.7541
  168MOL0     H22159   0.096  10.663   1.804 -0.0969  1.2130 -0.6770
  168MOL0     H22160   0.447  10.589   1.489  0.4706  1.9661  0.8800
  168MOL0     H22161   0.686  10.573   1.447  0.5444 -1.6671 -1.1429
  168MOL0     H22162   2.408  10.888   2.146 -0.2541  0.2327  1.1216
  168MOL0     H22163   2.663  10.896   2.185  3.5777 -2.7235 -0.1774
  168MOL0     H22164   2.972  10.848   2.459 -0.2472  0.7546  0.4487
  168MOL0     H22165   3.180  10.945   2.530  1.3976  1.4954 -0.0656
  168MOL0     H22166   3.362  11.175   2.264 -1.4489 -1.3097 -2.4794
  168MOL0     H22167   3.468  11.061   2.193  0.9968  2.1518 -0.7884
  168MOL0     H22168   3.602  11.232   2.279  3.3317 -0.8523 -0.6802
  168MOL0     H22169   3.563  11.197   2.447 -2.4278 -1.2548  0.4265
  168MOL0     H22170   3.737  11.006   2.278  0.7255  2.1029 -1.2163
  168MOL0     H22171   3.658  10.955   2.416  1.4685 -2.2578 -3.0237
  168MOL0     H22172   3.845  11.203   2.408 -3.3047  0.1524 -2.1461
  168MOL0     H22173   3.786  11.124   2.553 -1.6341  0.5622  0.2203
  168MOL0     H22174   4.091  10.859   2.422 -1.8890 -2.4123  0.3485
  168MOL0     H22175   3.327  10.909   2.129  2.7342 -0.4299  3.7405
  168MOL0     H22176   3.111  10.830   2.044  1.3294 -3.2034 -0.0615
  169MOL0     O22177   3.667   5.849   7.623  0.8496 -0.6499 -0.1627
  169MOL0     C22178   3.656   5.725   7.646 -0.5053 -0.2435  0.6502
  169MOL0     O22179   3.536   5.652   7.626  0.3215  0.0601 -0.1630
  169MOL0     C22180   3.428   5.736   7.601  0.4456 -0.6049  0.0186
  169MOL0     C22181   3.364   5.830   7.697  0.0162  0.8542  0.8195
  169MOL0     C22182   3.255   5.909   7.667  0.2194  0.1217 -0.1395
  169MOL0     C22183   3.195   5.893   7.536  0.1264 -0.7178 -0.3679
  169MOL0     O22184   3.074   5.962   7.500 -0.3126  0.2998 -0.0067
  169MOL0     C22185   3.009   6.047   7.595  0.9197  0.3963  0.4573
  169MOL0     C22186   3.069   6.183   7.616 -0.7927  0.5509  0.8586
  169MOL0     C22187   3.078   6.270   7.494  0.2289 -0.2249  1.0041
  169MOL0     C22188   2.939   6.322   7.443 -0.6917  0.0721 -0.1317
  169MOL0     C22189   2.869   6.439   7.527 -0.4204 -0.0155  0.0949
  169MOL0     C22190   2.958   6.550   7.587  0.1932 -0.1550  0.0741
  169MOL0     C22191   2.885   6.679   7.619 -0.1485 -0.2216 -0.2670
  169MOL0     C22192   2.979   6.787   7.647  0.9987  0.4678 -0.7647
  169MOL0     N22193   2.902   6.912   7.683  0.6109 -0.0114  0.3291
  169MOL0     C22194   2.897   6.970   7.809 -0.1757  0.2695  0.0095
  169MOL0     C22195   2.806   7.066   7.795 -0.0959  0.9123  0.2470
  169MOL0     C22196   2.767   7.160   7.903 -0.7288  0.4822  0.0632
  169MOL0     C22197   2.617   7.141   7.919  0.9580 -0.5582  0.0407
  169MOL0     C22198   2.581   7.021   8.017  0.5877  0.0667 -0.3355
  169MOL0     C22199   2.451   7.037   8.095  1.0054 -0.7854 -0.7593
  169MOL0     O22200   2.345   6.951   8.055 -0.7042  0.0505 -0.4562
  169MOL0     C22201   2.236   6.946   8.132 -0.3206  0.4511 -0.1322
  169MOL0     C22202   2.232   6.888   8.259 -0.0596 -0.9318  0.2609
  169MOL0     C22203   2.112   6.885   8.325 -0.3383  0.5145  0.0676
  169MOL0     C22204   2.005   6.966   8.279  0.1080 -0.4730  0.4866
  169MOL0     C22205   1.886   6.981   8.367 -0.2209 -0.5961 -0.0672
  169MOL0     O22206   1.799   7.060   8.310  0.0269 -0.2775 -0.2491
  169MOL0     C22207   1.704   7.135   8.370 -0.3204  0.6998 -1.1185
  169MOL0     C22208   1.589   7.179   8.301  1.1472 -0.3111  0.2285
  169MOL0     C22209   1.499   7.248   8.375  0.1349  0.4345 -0.0570
  169MOL0     C22210   1.508   7.280   8.509 -0.3258 -0.2391 -0.5701
  169MOL0     O22211   1.404   7.353   8.572 -0.6673  0.2586  0.5024
  169MOL0     C22212   1.455   7.463   8.659  0.1784  0.2086 -0.2534
  169MOL0     C22213   1.327   7.525   8.702 -0.0224  0.0762  0.1345
  169MOL0     C22214   1.339   7.644   8.811 -0.5476 -0.5914  0.4034
  169MOL0     C22215   1.205   7.688   8.857  0.3843  0.7289  1.1639
  169MOL0     C22216   1.218   7.817   8.940 -1.1339  0.5989  0.6432
  169MOL0     C22217   1.104   7.854   9.006  1.1031 -0.3409  0.0736
  169MOL0     C22218   1.113   7.985   9.066 -0.1911 -0.1088 -0.7959
  169MOL0     C22219   1.018   8.011   9.176 -0.0626  1.0676 -0.7660
  169MOL0    Cl22220   0.847   8.008   9.123 -0.4862 -0.0088  0.4323
  169MOL0     C22221   1.624   7.241   8.575 -0.0738 -0.7001  0.0187
  169MOL0     C22222   1.729   7.173   8.506 -0.3398 -1.4042 -0.1407
  169MOL0     O22223   1.883   6.932   8.475  0.6211  0.4248  0.1438
  169MOL0     C22224   2.014   7.033   8.155 -0.2724 -0.2421 -1.0572
  169MOL0     C22225   2.123   7.009   8.081 -0.2652 -0.2111  0.6355
  169MOL0     N22226   2.757   7.062   7.668  0.1868  0.1940  0.0212
  169MOL0     N22227   2.811   6.969   7.598  1.5233 -0.2045  0.6135
  169MOL0     C22228   3.255   5.801   7.451 -0.3920 -0.2389  0.4937
  169MOL0     C22229   3.368   5.721   7.479  0.0270  0.3931  0.6898
  169MOL0     C22230   3.779   5.657   7.705  0.2522  0.0466  0.2247
  169MOL0     C22231   3.784   5.528   7.721 -0.4300 -0.6175 -0.4605
  169MOL0     C22232   3.904   5.467   7.764 -0.1715 -0.4570  0.1283
  169MOL0     C22233   4.015   5.538   7.815 -0.6645  0.6747  0.0064
  169MOL0     O22234   4.134   5.485   7.872 -0.1832  0.2643 -0.4790
  169MOL0     C22235   4.147   5.347   7.924 -0.4844 -0.8871  1.4801
  169MOL0     C22236   4.254   5.351   8.044 -0.0146 -0.8901  0.6825
  169MOL0     C22237   4.220   5.228   8.137  0.4033 -0.5286 -0.2348
  169MOL0     C22238   4.336   5.161   8.218  0.7679  0.0903  0.3093
  169MOL0     C22239   4.443   5.103   8.133  0.1630  0.5233 -0.9501
  169MOL0     C22240   4.531   5.047   8.076 -0.3880  0.0945 -0.6113
  169MOL0     C22241   4.008   5.673   7.788  0.0527 -0.9079  0.2756
  169MOL0     C22242   3.896   5.734   7.737 -0.0986 -0.5392 -0.4724
  169MOL0     H22243   3.417   5.840   7.791  1.6227 -0.5419  0.1229
  169MOL0     H22244   3.223   5.982   7.741  2.8325  1.0262  0.2141
  169MOL0     H22245   2.990   5.991   7.687 -2.3863 -1.9483 -1.4391
  169MOL0     H22246   2.910   6.064   7.552  1.1016  0.1685 -0.0589
  169MOL0     H22247   3.173   6.176   7.650 -0.2579 -2.9368 -1.0181
  169MOL0     H22248   3.009   6.237   7.690  1.5326 -0.8490  4.0598
  169MOL0     H22249   3.130   6.214   7.415  2.4913  2.0918  0.7013
  169MOL0     H22250   3.149   6.350   7.519  1.9441 -1.5256  0.5519
  169MOL0     H22251   2.955   6.356   7.340 -0.6458  2.1241  0.5229
  169MOL0     H22252   2.875   6.235   7.426  1.5472 -1.2541 -2.6766
  169MOL0     H22253   2.827   6.377   7.606 -0.4513  0.2741  0.3068
  169MOL0     H22254   2.785   6.476   7.468 -0.6908 -0.5579  0.1372
  169MOL0     H22255   3.038   6.574   7.516 -0.6229 -1.8941 -1.5407
  169MOL0     H22256   2.998   6.508   7.680 -0.3174  1.9384  1.2885
  169MOL0     H22257   2.841   6.729   7.532  1.6578  0.5193 -0.7910
  169MOL0     H22258   2.809   6.666   7.697  0.7874 -2.5025  0.3418
  169MOL0     H22259   3.053   6.802   7.567 -0.0809  1.6230 -1.5880
  169MOL0     H22260   3.033   6.759   7.738 -0.3185 -3.1328 -0.9352
  169MOL0     H22261   2.955   6.956   7.899  1.3192  1.1620 -0.7740
  169MOL0     H22262   2.800   7.260   7.873 -3.0575  1.0045 -0.9641
  169MOL0     H22263   2.820   7.148   7.998 -1.3786  1.0365  0.5014
  169MOL0     H22264   2.557   7.128   7.830 -0.3876  3.1888  0.2317
  169MOL0     H22265   2.578   7.232   7.964 -1.0733 -0.9625 -0.8027
  169MOL0     H22266   2.584   6.932   7.954  0.0051  2.3078 -3.8605
  169MOL0     H22267   2.668   7.005   8.080 -1.0984 -1.3669  1.7906
  169MOL0     H22268   2.420   7.140   8.072  1.1091 -0.4075  0.7129
  169MOL0     H22269   2.476   7.032   8.201  1.6157  0.1243 -0.8504
  169MOL0     H22270   2.323   6.842   8.296  1.3354  1.0054 -0.5667
  169MOL0     H22271   2.121   6.832   8.419  1.0015  0.0451 -0.2986
  169MOL0     H22272   1.581   7.148   8.198 -1.5867  0.1402  0.2227
  169MOL0     H22273   1.410   7.270   8.317  1.2392  0.3024 -1.8941
  169MOL0     H22274   1.517   7.540   8.612  0.4217 -0.2718 -0.7345
  169MOL0     H22275   1.498   7.422   8.750  1.4459 -0.4889 -1.1286
  169MOL0     H22276   1.258   7.451   8.743  1.2889 -2.6359 -2.1540
  169MOL0     H22277   1.274   7.555   8.611 -1.5919 -2.6214  0.0457
  169MOL0     H22278   1.386   7.729   8.759 -0.9039  0.2703  1.4397
  169MOL0     H22279   1.400   7.616   8.897  0.3976 -1.7343 -0.6108
  169MOL0     H22280   1.139   7.700   8.770  1.9720 -1.6112 -0.4752
  169MOL0     H22281   1.191   7.600   8.920  2.4493 -1.1378 -0.8471
  169MOL0     H22282   1.246   7.892   8.865  0.7218 -0.7454 -0.0975
  169MOL0     H22283   1.301   7.811   9.011 -0.7909  1.9930  0.3840
  169MOL0     H22284   1.070   7.781   9.079 -0.4478 -3.0589 -3.0999
  169MOL0     H22285   1.012   7.842   8.949  0.2945 -4.2003  1.8734
  169MOL0     H22286   1.213   7.993   9.109 -0.3004  1.6450 -0.8266
  169MOL0     H22287   1.094   8.057   8.986 -2.1427 -2.5138 -2.6800
  169MOL0     H22288   1.030   8.116   9.204 -0.5497  0.6977  0.9752
  169MOL0     H22289   1.041   7.946   9.261 -0.5086 -1.4272 -2.4407
  169MOL0     H22290   1.658   7.281   8.671 -0.6293  1.1756 -0.5170
  169MOL0     H22291   1.816   7.144   8.565  0.8232 -2.7998 -2.3705
  169MOL0     H22292   1.939   7.096   8.109  0.3673 -0.5729 -2.6492
  169MOL0     H22293   2.127   7.031   7.975  0.9614 -2.4107  0.1620
  169MOL0     H22294   3.197   5.801   7.360 -1.3702  2.0075  1.0359
  169MOL0     H22295   3.399   5.645   7.409 -0.1965  3.0294 -2.4844
  169MOL0     H22296   3.709   5.451   7.706 -0.3027 -1.2030  1.6283
  169MOL0     H22297   3.905   5.359   7.778  0.2194 -0.5964 -0.8417
  169MOL0     H22298   4.186   5.292   7.838 -0.3440 -1.5432  1.9552
  169MOL0     H22299   4.045   5.317   7.950 -1.7125  1.2858 -0.4681
  169MOL0     H22300   4.354   5.346   7.999 -1.4252 -1.7580 -2.6474
  169MOL0     H22301   4.245   5.447   8.097  1.0080  0.7033 -1.8598
  169MOL0     H22302   4.165   5.157   8.075 -0.1391  0.1581 -0.5491
  169MOL0     H22303   4.146   5.271   8.206 -1.7238 -2.6137 -1.0669
  169MOL0     H22304   4.379   5.240   8.280 -0.3952  1.4045 -0.4824
  169MOL0     H22305   4.289   5.084   8.280 -0.1118  1.2958  1.1847
  169MOL0     H22306   4.597   4.985   8.019  0.4468  0.3033  0.1037
  169MOL0     H22307   4.088   5.741   7.816 -1.1755  1.1088 -0.8989
  169MOL0     H22308   3.898   5.843   7.733  1.9879 -0.2563  3.1657
  170MOL0     O22309   4.958   0.806   8.018  0.6874 -0.1507  0.0852
  170MOL0     C22310   5.012   0.695   8.015  0.4807  1.0669  0.3517
  170MOL0     O22311   4.938   0.574   8.001  0.2666 -0.2296  0.5295
  170MOL0     C22312   4.795   0.564   7.991 -0.4696 -0.3810  0.6697
  170MOL0     C22313   4.700   0.657   8.017  0.2790 -0.1394  0.4045
  170MOL0     C22314   4.564   0.611   8.018  0.9169  0.1916 -0.1122
  170MOL0     C22315   4.516   0.473   7.994 -0.2391 -0.1930  0.0109
  170MOL0     O22316   4.387   0.430   8.003  0.2019  0.3019  0.4361
  170MOL0     C22317   4.269   0.521   8.011 -0.4270  0.7885  0.4505
  170MOL0     C22318   4.141   0.429   7.999  0.3385 -0.5377  0.1466
  170MOL0     C22319   4.003   0.506   8.021 -0.1631  0.0230  0.5983
  170MOL0     C22320   3.886   0.422   7.976  0.3283  0.6605 -0.5299
  170MOL0     C22321   3.750   0.478   7.990 -0.5534  0.7084 -0.2800
  170MOL0     C22322   3.698   0.520   8.129  0.1925  0.1689  0.0594
  170MOL0     C22323   3.599   0.413   8.198  0.1625 -0.4998 -0.0135
  170MOL0     C22324   3.640   0.398   8.347  0.8732  0.5673 -1.2703
  170MOL0     N22325   3.532   0.312   8.420 -0.3698  0.1300 -0.0591
  170MOL0     C22326   3.485   0.191   8.376  0.1193  0.8879 -1.0371
  170MOL0     C22327   3.394   0.156   8.472 -0.2185 -0.5341 -0.1244
  170MOL0     C22328   3.344   0.015   8.474  0.3193  0.5490  0.5341
  170MOL0     C22329   3.252  -0.009   8.351  0.1080  0.5685  0.4784
  170MOL0     C22330   3.101   0.022   8.364  1.3210  0.4851  0.4022
  170MOL0     C22331   3.016  -0.030   8.251  0.1200 -1.1458  0.9094
  170MOL0     O22332   2.886   0.003   8.287  0.5945  0.5789  0.0160
  170MOL0     C22333   2.778  -0.032   8.201 -0.4640 -0.3966 -0.0533
  170MOL0     C22334   2.653   0.030   8.234  0.6130  0.0732  0.4957
  170MOL0     C22335   2.531  -0.004   8.165 -0.4433  1.2529 -0.2810
  170MOL0     C22336   2.534  -0.112   8.069  0.3689 -1.2706  0.2344
  170MOL0     C22337   2.414  -0.159   8.006 -0.3572 -0.5386 -0.0805
  170MOL0     O22338   2.302  -0.132   8.080  0.7402  0.1659  1.2175
  170MOL0     C22339   2.184  -0.181   8.035  0.3145  0.6217 -0.2621
  170MOL0     C22340   2.072  -0.096   8.017 -0.4516  0.5077  0.2097
  170MOL0     C22341   1.950  -0.146   7.987  1.0534 -0.2515  0.3257
  170MOL0     C22342   1.929  -0.274   7.959  0.0789  0.4827 -0.0195
  170MOL0     O22343   1.808  -0.314   7.919  0.1783 -0.0425 -0.2476
  170MOL0     C22344   1.740  -0.410   7.993 -1.1128  0.1770 -0.7429
  170MOL0     C22345   1.588  -0.376   7.982 -0.2037  0.1499 -0.5137
  170MOL0     C22346   1.499  -0.497   8.032  0.4323 -1.1797 -0.0731
  170MOL0     C22347   1.351  -0.449   8.059 -0.0625 -0.2044 -0.3679
  170MOL0     C22348   1.259  -0.567   8.041 -0.7345  0.0638 -0.1664
  170MOL0     C22349   1.127  -0.529   8.100  0.4573 -0.2747 -0.4886
  170MOL0     C22350   1.029  -0.638   8.082  0.0377 -0.1213  0.3273
  170MOL0     C22351   0.903  -0.599   8.165 -0.2237  1.5302  0.5210
  170MOL0    Cl22352   0.788  -0.731   8.132 -0.2978 -0.3922 -0.5352
  170MOL0     C22353   2.036  -0.362   7.969  0.7230 -0.1921 -0.5441
  170MOL0     C22354   2.166  -0.315   8.006  1.2870  0.1943  0.3355
  170MOL0     O22355   2.421  -0.216   7.904  0.9145  0.1145  0.2292
  170MOL0     C22356   2.661  -0.161   8.030 -0.6816 -0.0842 -0.0383
  170MOL0     C22357   2.778  -0.132   8.105 -0.9453  0.3706  0.1314
  170MOL0     N22358   3.384   0.256   8.572 -0.0500  0.4014 -0.2365
  170MOL0     N22359   3.466   0.343   8.536  0.0234  0.2190  0.1941
  170MOL0     C22360   4.616   0.388   7.965  0.2277  0.2477 -0.1643
  170MOL0     C22361   4.749   0.425   7.965 -0.0697  0.2917  0.4620
  170MOL0     C22362   5.156   0.675   8.010 -0.9677 -0.2941 -0.2219
  170MOL0     C22363   5.238   0.785   7.996 -0.4464 -0.3455 -0.7214
  170MOL0     C22364   5.374   0.774   8.030 -0.0021  0.6953 -0.4953
  170MOL0     C22365   5.437   0.656   8.069 -0.2548 -0.0738  0.9035
  170MOL0     O22366   5.569   0.645   8.105  0.3473  0.1887 -0.7581
  170MOL0     C22367   5.667   0.740   8.080  0.7965 -1.2779  0.3094
  170MOL0     C22368   5.739   0.733   7.941  0.3075  1.5875  0.5582
  170MOL0     C22369   5.867   0.810   7.944  0.5079  0.4763  0.2325
  170MOL0     C22370   5.920   0.852   7.807  0.6198  0.0111  0.3946
  170MOL0     C22371   5.898   0.749   7.701 -0.3774 -0.0790  0.6286
  170MOL0     C22372   5.865   0.668   7.616  0.6032 -0.5766  0.2155
  170MOL0     C22373   5.359   0.538   8.077 -0.0184 -0.5168  0.9252
  170MOL0     C22374   5.221   0.552   8.047  1.0440  0.5962  0.1988
  170MOL0     H22375   4.730   0.756   8.048 -1.3927  0.3745  0.4863
  170MOL0     H22376   4.486   0.674   8.058 -0.3249  0.4573 -2.7308
  170MOL0     H22377   4.287   0.596   7.932  0.7450  1.4765  1.3421
  170MOL0     H22378   4.276   0.576   8.105  2.2836  1.2798  0.0433
  170MOL0     H22379   4.132   0.353   8.077 -1.6642  0.5825  1.1203
  170MOL0     H22380   4.147   0.384   7.900  1.2797  2.4700 -1.2950
  170MOL0     H22381   3.996   0.607   7.978 -0.4109  0.3000  1.2640
  170MOL0     H22382   4.002   0.515   8.130 -0.5422 -1.3583  0.7273
  170MOL0     H22383   3.915   0.387   7.876  2.5063 -1.2349  0.6616
  170MOL0     H22384   3.895   0.337   8.045  2.3047 -0.5590 -2.1350
  170MOL0     H22385   3.687   0.393   7.964  1.1587 -1.1375  1.3446
  170MOL0     H22386   3.725   0.558   7.920 -0.8713  1.0167  0.1773
  170MOL0     H22387   3.644   0.615   8.142 -0.6496 -0.1158 -1.1789
  170MOL0     H22388   3.781   0.525   8.200  0.9723  0.6102 -0.8538
  170MOL0     H22389   3.499   0.455   8.188  0.0733 -0.6739  0.1393
  170MOL0     H22390   3.613   0.315   8.151  1.0093 -0.9117  1.0412
  170MOL0     H22391   3.639   0.500   8.388 -0.1126  0.5745 -1.2884
  170MOL0     H22392   3.739   0.355   8.362  0.1416 -0.5095  1.0276
  170MOL0     H22393   3.523   0.129   8.295 -0.4726 -2.1370  0.8303
  170MOL0     H22394   3.283   0.004   8.564 -2.2630  0.6445 -1.0922
  170MOL0     H22395   3.434  -0.047   8.462 -1.9955 -2.9727 -0.1063
  170MOL0     H22396   3.260  -0.117   8.341  0.6974  0.4122  2.3279
  170MOL0     H22397   3.297   0.037   8.262 -1.1898  0.8138 -0.0749
  170MOL0     H22398   3.060  -0.019   8.457  1.2099 -3.0468 -1.0366
  170MOL0     H22399   3.083   0.129   8.364  0.2975  0.3212  0.5769
  170MOL0     H22400   3.032  -0.138   8.245  0.6906 -0.9814 -1.0143
  170MOL0     H22401   3.036   0.019   8.155 -0.6985  1.3560  1.9134
  170MOL0     H22402   2.665   0.104   8.313  0.3186  2.0077 -1.1693
  170MOL0     H22403   2.431   0.021   8.200 -1.2352 -0.2616 -1.3416
  170MOL0     H22404   2.087   0.005   8.054 -0.7461  0.4886  0.3891
  170MOL0     H22405   1.861  -0.084   7.982  1.9038  0.9863  0.1019
  170MOL0     H22406   1.781  -0.401   8.094  5.8789  3.5740 -3.2544
  170MOL0     H22407   1.756  -0.511   7.956  3.4518  0.3529  0.2206
  170MOL0     H22408   1.572  -0.354   7.876  0.7304  1.0871 -0.4722
  170MOL0     H22409   1.555  -0.285   8.033  2.0105  0.2522  0.8234
  170MOL0     H22410   1.543  -0.548   8.119  1.2463 -0.7623 -0.2294
  170MOL0     H22411   1.495  -0.578   7.958 -1.9686 -1.9057  0.7562
  170MOL0     H22412   1.356  -0.404   8.158 -0.8374  3.3634 -1.8124
  170MOL0     H22413   1.318  -0.365   7.998 -1.5813 -0.1116  0.5407
  170MOL0     H22414   1.311  -0.657   8.077 -1.2235  0.1220  0.7061
  170MOL0     H22415   1.234  -0.597   7.939 -0.6297  0.5183 -0.3297
  170MOL0     H22416   1.088  -0.435   8.060 -1.7116  0.6081  3.1844
  170MOL0     H22417   1.144  -0.521   8.208 -2.4450  0.8132 -0.0065
  170MOL0     H22418   1.003  -0.639   7.975 -2.6977 -0.8438  0.9250
  170MOL0     H22419   1.072  -0.734   8.112  0.9673  0.9828  2.8164
  170MOL0     H22420   0.861  -0.503   8.134 -1.3321  1.3428  1.3781
  170MOL0     H22421   0.933  -0.592   8.270 -0.0386  0.5202  0.5455
  170MOL0     H22422   2.017  -0.466   7.942 -1.9180  0.1623 -0.3514
  170MOL0     H22423   2.246  -0.385   8.026  1.8392  1.0443  1.1683
  170MOL0     H22424   2.681  -0.241   7.959  1.9036 -0.5854  1.1142
  170MOL0     H22425   2.873  -0.177   8.077 -1.9762 -2.0293  0.2292
  170MOL0     H22426   4.594   0.282   7.959  5.4123 -1.0107 -1.1584
  170MOL0     H22427   4.831   0.357   7.944 -2.0340 -1.4068 -2.3532
  170MOL0     H22428   5.199   0.881   7.963  0.9084  0.8041  0.8508
  170MOL0     H22429   5.431   0.866   8.034 -0.8446  1.2111 -0.1618
  170MOL0     H22430   5.740   0.741   8.161  1.9367  0.2219 -0.6954
  170MOL0     H22431   5.615   0.836   8.083  0.2962 -1.5234 -0.2022
  170MOL0     H22432   5.762   0.628   7.918 -0.8395  1.4060  0.2006
  170MOL0     H22433   5.666   0.754   7.863  0.0453  3.2152  1.2129
  170MOL0     H22434   5.953   0.754   7.983 -1.2800 -3.1307 -0.5297
  170MOL0     H22435   5.856   0.893   8.015  1.2307 -1.5517  2.8923
  170MOL0     H22436   5.864   0.940   7.774  1.1142 -0.2220 -1.1637
  170MOL0     H22437   6.025   0.884   7.802  0.6206  0.1422  1.1828
  170MOL0     H22438   5.831   0.586   7.556  0.3094 -0.3243  0.0351
  170MOL0     H22439   5.406   0.447   8.111 -1.4806 -2.5436 -2.0752
  170MOL0     H22440   5.152   0.468   8.054  2.0881 -0.3098 -0.1828
  171MOL0     O22441   7.138   8.509   6.765  0.1492 -0.0828  0.1016
  171MOL0     C22442   7.106   8.413   6.842  0.1124 -0.4773  0.2387
  171MOL0     O22443   6.986   8.362   6.849 -0.4031  1.1110 -0.3850
  171MOL0     C22444   6.882   8.412   6.775 -1.1542 -0.5883  0.2230
  171MOL0     C22445   6.871   8.396   6.630 -0.4965 -0.6290  0.4899
  171MOL0     C22446   6.755   8.446   6.570  0.1932  0.1334 -0.3708
  171MOL0     C22447   6.651   8.508   6.634 -1.1632  0.0361 -0.6622
  171MOL0     O22448   6.545   8.539   6.557 -0.1232  0.2607  0.2396
  171MOL0     C22449   6.433   8.609   6.607 -0.1836  0.1588 -0.3299
  171MOL0     C22450   6.314   8.586   6.510  0.8339 -0.9800 -0.5195
  171MOL0     C22451   6.188   8.625   6.598 -0.2869  0.3251 -0.6989
  171MOL0     C22452   6.096   8.716   6.517  0.7158 -0.7993 -0.0030
  171MOL0     C22453   5.975   8.773   6.598  0.8424 -0.5596 -0.2010
  171MOL0     C22454   5.837   8.733   6.545 -0.2087  1.0671 -0.1188
  171MOL0     C22455   5.722   8.833   6.604  0.8382 -0.0871  0.3160
  171MOL0     C22456   5.585   8.763   6.606 -0.7680 -0.7242 -0.0894
  171MOL0     N22457   5.554   8.718   6.469 -0.6176  0.2334  0.7470
  171MOL0     C22458   5.466   8.623   6.433  0.8863  0.4157  0.4104
  171MOL0     C22459   5.453   8.627   6.295 -0.2804  0.8639  0.8901
  171MOL0     C22460   5.370   8.537   6.207  0.3121 -1.0087 -0.8726
  171MOL0     C22461   5.230   8.593   6.187 -0.6810  0.3670 -0.8127
  171MOL0     C22462   5.125   8.567   6.306 -0.1583  0.5175 -0.2146
  171MOL0     C22463   4.985   8.627   6.284 -0.6124 -0.6799 -0.0630
  171MOL0     O22464   4.892   8.585   6.181 -0.6706 -0.5590 -0.6666
  171MOL0     C22465   4.792   8.508   6.231 -0.0570 -0.9784  1.3542
  171MOL0     C22466   4.659   8.556   6.228  0.7068  0.4060  0.7158
  171MOL0     C22467   4.553   8.474   6.273  0.1771 -0.2887 -0.8307
  171MOL0     C22468   4.583   8.344   6.325 -0.1972 -0.5202 -0.0892
  171MOL0     C22469   4.485   8.241   6.357  0.7918  0.0926  0.5623
  171MOL0     O22470   4.360   8.260   6.297  0.1231  0.5691 -0.2073
  171MOL0     C22471   4.252   8.215   6.359  0.5351  0.9971  0.1706
  171MOL0     C22472   4.138   8.222   6.273 -0.1963 -0.3719 -1.1094
  171MOL0     C22473   4.014   8.179   6.326 -0.3266 -0.0218  0.0278
  171MOL0     C22474   3.999   8.127   6.458 -0.1019 -0.2341  0.3917
  171MOL0     O22475   3.867   8.082   6.488 -0.5457 -0.6754  0.3194
  171MOL0     C22476   3.862   8.015   6.612  0.1200  0.1797 -0.3952
  171MOL0     C22477   3.715   7.989   6.638  0.1144 -0.8358 -0.2239
  171MOL0     C22478   3.692   7.995   6.788 -0.2505 -0.0079  0.0109
  171MOL0     C22479   3.553   7.959   6.833  0.4998  0.0997 -0.2830
  171MOL0     C22480   3.521   8.009   6.974 -0.0953 -0.2615  0.0401
  171MOL0     C22481   3.385   7.957   7.025  0.4480 -0.7666  1.2086
  171MOL0     C22482   3.357   7.998   7.166  0.2843 -0.3305  0.3869
  171MOL0     C22483   3.221   7.937   7.209  0.4705 -0.2182 -0.6635
  171MOL0    Cl22484   3.085   7.971   7.095  0.2417 -0.2276  0.2014
  171MOL0     C22485   4.109   8.116   6.543  1.1809 -0.4030  0.3074
  171MOL0     C22486   4.231   8.169   6.492  0.8516 -0.2282 -0.0518
  171MOL0     O22487   4.518   8.148   6.433  0.0134  0.3340  0.4495
  171MOL0     C22488   4.718   8.299   6.330  0.6479  0.9170  0.7761
  171MOL0     C22489   4.819   8.383   6.286 -0.5662  0.1076 -0.3140
  171MOL0     N22490   5.527   8.737   6.257 -0.0431 -0.4712  1.3277
  171MOL0     N22491   5.582   8.789   6.356 -0.9444 -0.8118 -0.8581
  171MOL0     C22492   6.659   8.511   6.775  1.0052  0.8388 -0.1253
  171MOL0     C22493   6.770   8.458   6.842  0.2324 -0.6495 -0.4942
  171MOL0     C22494   7.204   8.357   6.927  0.8504  0.1415 -0.4817
  171MOL0     C22495   7.339   8.398   6.941 -0.0591 -0.2655 -0.5694
  171MOL0     C22496   7.439   8.334   7.024  0.3449  0.4934  0.3739
  171MOL0     C22497   7.392   8.231   7.107  0.9041  0.2836  0.2843
  171MOL0     O22498   7.466   8.161   7.210  0.8901  0.0542  0.0735
  171MOL0     C22499   7.582   8.225   7.263  0.2175 -0.0408  0.8256
  171MOL0     C22500   7.591   8.207   7.408  0.9648  0.7454  0.3307
  171MOL0     C22501   7.712   8.289   7.464  0.3168  0.2036 -0.0941
  171MOL0     C22502   7.716   8.312   7.617 -1.3462  0.2198 -0.2027
  171MOL0     C22503   7.594   8.377   7.655 -0.1065  0.3120 -0.3029
  171MOL0     C22504   7.480   8.416   7.677 -0.4155  0.7826  0.4482
  171MOL0     C22505   7.260   8.181   7.086  0.4435 -0.7495  0.2682
  171MOL0     C22506   7.171   8.240   6.996 -0.1991 -0.1301  0.4549
  171MOL0     H22507   6.943   8.352   6.561 -1.5367  0.0935 -1.1175
  171MOL0     H22508   6.756   8.444   6.462  2.6231 -0.7025 -0.4000
  171MOL0     H22509   6.449   8.716   6.618  0.4923 -0.1049  1.9673
  171MOL0     H22510   6.405   8.573   6.707 -0.0688  3.8905  1.1804
  171MOL0     H22511   6.308   8.479   6.491 -1.2033 -1.4187  2.0104
  171MOL0     H22512   6.323   8.648   6.420 -0.3574  0.7944  0.5235
  171MOL0     H22513   6.206   8.671   6.695 -0.0606  2.0460 -1.5169
  171MOL0     H22514   6.140   8.530   6.624  1.7376  0.0139  2.2527
  171MOL0     H22515   6.148   8.795   6.462 -3.3152  2.6936  0.6792
  171MOL0     H22516   6.047   8.649   6.446 -2.0561 -0.8952  1.8319
  171MOL0     H22517   5.984   8.881   6.605  0.8170 -0.4035 -2.0682
  171MOL0     H22518   5.980   8.739   6.703 -1.4228 -2.3021 -0.5603
  171MOL0     H22519   5.802   8.632   6.571  2.2088 -0.0317 -0.8564
  171MOL0     H22520   5.838   8.740   6.436  0.1921 -1.3954 -0.3329
  171MOL0     H22521   5.742   8.866   6.707  2.4183 -0.5293  0.1830
  171MOL0     H22522   5.706   8.922   6.543  0.4053 -0.4638 -0.1279
  171MOL0     H22523   5.513   8.837   6.641  0.3606  1.0916 -1.3819
  171MOL0     H22524   5.590   8.674   6.669 -2.1297 -2.9801 -2.9335
  171MOL0     H22525   5.414   8.552   6.496 -2.8087 -0.8246 -3.5229
  171MOL0     H22526   5.367   8.439   6.256  0.5693 -0.4838  0.2326
  171MOL0     H22527   5.414   8.534   6.107  0.1233 -2.7565 -0.9329
  171MOL0     H22528   5.180   8.548   6.101  0.9304 -1.7731 -0.7116
  171MOL0     H22529   5.235   8.702   6.185 -1.8418  0.4960  0.8642
  171MOL0     H22530   5.118   8.462   6.339 -1.7700  0.7158  0.1822
  171MOL0     H22531   5.153   8.613   6.401  2.9665 -4.1118  1.4433
  171MOL0     H22532   4.996   8.734   6.267 -4.2545 -0.2784 -0.8206
  171MOL0     H22533   4.934   8.617   6.380 -2.3950  0.3131 -0.8453
  171MOL0     H22534   4.631   8.653   6.188 -0.4444 -0.5470 -0.9589
  171MOL0     H22535   4.452   8.510   6.284  0.4685  0.1851  0.5994
  171MOL0     H22536   4.148   8.271   6.177 -1.6967  0.5862 -0.8021
  171MOL0     H22537   3.926   8.173   6.263 -1.2707  0.6628  1.2463
  171MOL0     H22538   3.900   8.073   6.697  2.2999  1.4923 -2.1342
  171MOL0     H22539   3.917   7.921   6.615  1.7125  0.9926 -1.8731
  171MOL0     H22540   3.682   7.893   6.596 -0.7724  0.3962 -2.5298
  171MOL0     H22541   3.662   8.079   6.607  2.4804  0.7498  0.0820
  171MOL0     H22542   3.722   8.094   6.825 -0.5782 -1.3845  4.5672
  171MOL0     H22543   3.767   7.920   6.817 -1.4447 -1.5429 -0.7681
  171MOL0     H22544   3.477   7.991   6.761 -0.6284 -0.1451  0.7553
  171MOL0     H22545   3.549   7.850   6.835 -3.3211  0.0970  0.3479
  171MOL0     H22546   3.524   8.117   6.984  5.6830  0.0385 -1.1710
  171MOL0     H22547   3.603   7.962   7.030  1.9922 -1.4394 -3.6540
  171MOL0     H22548   3.367   7.852   7.002 -0.5600 -0.1351 -1.1951
  171MOL0     H22549   3.309   8.004   6.961 -0.4458 -3.8464 -0.1729
  171MOL0     H22550   3.438   7.961   7.229  1.3933 -0.0437 -0.8248
  171MOL0     H22551   3.361   8.107   7.170 -1.0044 -0.2914  1.3381
  171MOL0     H22552   3.175   7.957   7.307 -1.4964 -1.6622 -1.2164
  171MOL0     H22553   3.231   7.828   7.206 -0.4304 -0.3532  0.5722
  171MOL0     H22554   4.106   8.078   6.645 -0.5839 -1.4420 -0.0908
  171MOL0     H22555   4.314   8.187   6.560  0.0804 -1.3136  1.2333
  171MOL0     H22556   4.748   8.198   6.355  2.2571  0.9483 -0.7981
  171MOL0     H22557   4.919   8.342   6.280 -0.4136  0.0351  2.0758
  171MOL0     H22558   6.568   8.541   6.826  0.0776  0.1651 -1.3254
  171MOL0     H22559   6.767   8.436   6.949 -1.8680 -2.3984 -0.8492
  171MOL0     H22560   7.370   8.474   6.870  0.6819  0.6954  0.7427
  171MOL0     H22561   7.541   8.369   7.034  0.3456  0.8366 -0.6640
  171MOL0     H22562   7.600   8.326   7.224  0.3969 -1.2971 -2.6142
  171MOL0     H22563   7.663   8.169   7.216 -1.9233 -2.6750  0.0529
  171MOL0     H22564   7.499   8.242   7.455 -0.0704  0.1447 -1.1673
  171MOL0     H22565   7.604   8.101   7.434 -3.1932  0.2845  1.2035
  171MOL0     H22566   7.714   8.387   7.416  0.0036  1.3207  2.0510
  171MOL0     H22567   7.802   8.239   7.427  0.6629  1.8982 -1.6846
  171MOL0     H22568   7.733   8.225   7.681 -1.1751  0.2247 -0.2387
  171MOL0     H22569   7.798   8.383   7.634 -1.8615  0.2581  2.4540
  171MOL0     H22570   7.383   8.449   7.707 -0.2425  3.6280 -1.7022
  171MOL0     H22571   7.217   8.105   7.151 -0.2198 -2.3396 -1.9219
  171MOL0     H22572   7.073   8.194   6.986 -0.2955  0.6091 -3.9741
  172MOL0     O22573   5.275   9.557   3.971 -0.3887 -0.8996  0.5824
  172MOL0     C22574   5.309   9.456   4.041 -0.5705  0.2561 -0.7158
  172MOL0     O22575   5.236   9.395   4.142 -0.1821  0.1988 -0.1493
  172MOL0     C22576   5.110   9.443   4.156 -0.3220  0.1991 -0.0929
  172MOL0     C22577   4.997   9.372   4.112  0.1136 -0.6355  0.1298
  172MOL0     C22578   4.864   9.408   4.131  0.0872  0.3417  0.3142
  172MOL0     C22579   4.841   9.533   4.203 -0.1082  0.2440  0.0394
  172MOL0     O22580   4.719   9.582   4.242  0.0816  1.2262  0.7094
  172MOL0     C22581   4.603   9.496   4.237 -0.0067  0.5276  0.0848
  172MOL0     C22582   4.487   9.533   4.330 -0.7361 -0.4510 -0.1287
  172MOL0     C22583   4.530   9.536   4.479  0.1609  0.3982 -0.5976
  172MOL0     C22584   4.399   9.580   4.540  0.5593 -0.3445  0.1722
  172MOL0     C22585   4.413   9.613   4.685  0.7534  0.4728  0.2493
  172MOL0     C22586   4.266   9.640   4.745 -0.0154  0.2241  0.8419
  172MOL0     C22587   4.203   9.509   4.801 -0.5796  0.1787 -0.1212
  172MOL0     C22588   4.049   9.530   4.827  0.3145  0.7829  0.2969
  172MOL0     N22589   3.980   9.400   4.851 -0.1749  0.9667 -0.1693
  172MOL0     C22590   3.984   9.332   4.972 -0.4290 -0.2134 -0.2855
  172MOL0     C22591   3.895   9.235   4.958  0.2123 -0.1251  0.0284
  172MOL0     C22592   3.858   9.140   5.065 -0.3216  0.7186 -0.6723
  172MOL0     C22593   3.744   9.206   5.141 -0.4017 -0.5084 -0.2831
  172MOL0     C22594   3.612   9.178   5.071 -0.6787  0.5311  0.0476
  172MOL0     C22595   3.485   9.245   5.137  0.1364 -0.3215  0.0367
  172MOL0     O22596   3.450   9.183   5.267 -0.6276  0.1780 -0.4824
  172MOL0     C22597   3.349   9.087   5.273  0.4566 -0.1250 -0.1573
  172MOL0     C22598   3.233   9.111   5.345  0.3337 -1.0578  0.1172
  172MOL0     C22599   3.124   9.024   5.342 -0.2331 -0.6748  0.0741
  172MOL0     C22600   3.128   8.908   5.270 -0.4249  0.6664  0.4766
  172MOL0     C22601   3.008   8.816   5.262 -0.8496  0.1717  0.3523
  172MOL0     O22602   2.910   8.846   5.343 -0.1354  0.9695  0.5587
  172MOL0     C22603   2.795   8.768   5.370  0.3326  0.6584 -0.3614
  172MOL0     C22604   2.661   8.816   5.350 -0.3131 -0.0414  0.5914
  172MOL0     C22605   2.549   8.737   5.388 -0.1878  0.2087  0.8211
  172MOL0     C22606   2.567   8.613   5.444 -0.3362  0.0288  0.1350
  172MOL0     O22607   2.454   8.535   5.463 -0.9711  0.3773  0.2255
  172MOL0     C22608   2.478   8.402   5.515 -0.6314 -0.4901 -0.6755
  172MOL0     C22609   2.336   8.342   5.519  0.5058  0.0685 -0.0455
  172MOL0     C22610   2.342   8.208   5.587  0.4000  0.0715  0.2041
  172MOL0     C22611   2.207   8.174   5.656 -0.3527  1.1306 -0.1943
  172MOL0     C22612   2.213   8.035   5.718  0.0850 -0.5287 -0.1391
  172MOL0     C22613   2.109   8.012   5.825  0.3598  0.5253 -0.2659
  172MOL0     C22614   1.964   8.016   5.776 -0.1472  0.7435  0.8655
  172MOL0     C22615   1.912   8.147   5.739  1.2738  0.4095 -0.1388
  172MOL0    Cl22616   1.735   8.136   5.768  0.0756 -0.3718  0.9473
  172MOL0     C22617   2.701   8.575   5.483  0.5980 -0.0177  0.1818
  172MOL0     C22618   2.804   8.657   5.444 -0.2159 -0.5102 -0.6112
  172MOL0     O22619   3.014   8.716   5.190  0.3739  0.0505  0.4745
  172MOL0     C22620   3.250   8.874   5.207  0.7103  0.7486  0.4036
  172MOL0     C22621   3.352   8.964   5.206 -0.0461 -0.3738 -0.4640
  172MOL0     N22622   3.856   9.237   4.824  0.4730 -0.2034  0.6453
  172MOL0     N22623   3.905   9.332   4.758  0.0856  0.0025 -0.2788
  172MOL0     C22624   4.949   9.613   4.240 -0.3872 -0.3895  0.0825
  172MOL0     C22625   5.085   9.571   4.216 -0.1697 -0.0153 -0.7645
  172MOL0     C22626   5.449   9.399   4.026 -0.1528 -0.0181  0.7127
  172MOL0     C22627   5.464   9.268   4.062  0.1396  1.0107 -0.0538
  172MOL0     C22628   5.584   9.201   4.049  0.4234 -0.2702 -0.0269
  172MOL0     C22629   5.703   9.261   3.995  0.4157 -0.3368  1.3537
  172MOL0     O22630   5.816   9.186   3.987  0.1192  0.1636 -0.0471
  172MOL0     C22631   5.936   9.234   3.918  0.4079 -0.9347  0.2363
  172MOL0     C22632   6.037   9.130   3.876 -0.7445 -0.0710 -0.3266
  172MOL0     C22633   6.137   9.186   3.764  0.4569  0.0362 -0.2720
  172MOL0     C22634   6.241   9.267   3.837 -0.6730 -0.6235 -0.4395
  172MOL0     C22635   6.352   9.308   3.751 -0.7273  0.3312 -0.6658
  172MOL0     C22636   6.442   9.347   3.675 -0.3952  0.5116 -0.6551
  172MOL0     C22637   5.688   9.393   3.945  0.1014  0.1126  0.4766
  172MOL0     C22638   5.561   9.456   3.961 -0.2450  0.4127  0.5715
  172MOL0     H22639   5.019   9.284   4.052 -0.0702  0.9730 -2.4246
  172MOL0     H22640   4.791   9.332   4.107  2.8355 -2.2656 -0.4877
  172MOL0     H22641   4.634   9.394   4.259 -0.0059  0.7225  1.0228
  172MOL0     H22642   4.566   9.493   4.134  1.8622 -1.4725 -0.6070
  172MOL0     H22643   4.409   9.458   4.313 -0.5440 -1.1325  1.7231
  172MOL0     H22644   4.453   9.634   4.306  1.3466  0.6240  1.1159
  172MOL0     H22645   4.598   9.617   4.506 -1.3820  0.7416  2.7460
  172MOL0     H22646   4.562   9.440   4.521 -1.6008 -0.3317 -0.8236
  172MOL0     H22647   4.356   9.671   4.496  0.9457  0.9778  2.3729
  172MOL0     H22648   4.324   9.500   4.533 -3.3466  2.8890  1.0351
  172MOL0     H22649   4.478   9.701   4.687 -0.4281  1.3660  0.1118
  172MOL0     H22650   4.469   9.531   4.732  1.5489  1.9044  1.9169
  172MOL0     H22651   4.197   9.688   4.675 -0.5699 -0.4880  0.8797
  172MOL0     H22652   4.279   9.717   4.821 -0.6124  1.5712 -0.3699
  172MOL0     H22653   4.212   9.425   4.731  1.7959  0.0887  0.2191
  172MOL0     H22654   4.252   9.477   4.893 -0.3397  3.4083  1.0028
  172MOL0     H22655   3.994   9.570   4.742 -0.5145  2.3923  1.5326
  172MOL0     H22656   4.023   9.601   4.906 -1.7915 -1.1491  1.4675
  172MOL0     H22657   4.025   9.356   5.069 -1.9814  1.0365  0.0900
  172MOL0     H22658   3.939   9.116   5.134 -0.3491  1.6025 -0.3231
  172MOL0     H22659   3.832   9.041   5.027 -1.2368  0.7678 -0.1937
  172MOL0     H22660   3.766   9.313   5.148  0.9046 -0.6335 -1.7570
  172MOL0     H22661   3.736   9.171   5.244  3.2674  2.3570  1.1934
  172MOL0     H22662   3.614   9.205   4.966 -0.4481  0.0371 -0.0813
  172MOL0     H22663   3.590   9.071   5.063 -0.2598  0.5571 -1.8738
  172MOL0     H22664   3.399   9.230   5.072  1.8226 -3.0719 -1.7805
  172MOL0     H22665   3.491   9.354   5.146 -1.7911 -0.0891 -1.0561
  172MOL0     H22666   3.244   9.203   5.402  0.0396 -1.7166  1.2793
  172MOL0     H22667   3.029   9.052   5.386 -0.7490  0.0859 -1.4413
  172MOL0     H22668   2.642   8.917   5.314  1.6154  0.1564 -0.0043
  172MOL0     H22669   2.453   8.784   5.367 -0.4612 -1.2317 -1.6105
  172MOL0     H22670   2.516   8.404   5.617  0.9475 -1.1185 -1.2078
  172MOL0     H22671   2.543   8.338   5.454  0.7646  0.2027  0.0311
  172MOL0     H22672   2.286   8.321   5.423 -0.8296 -1.5039  0.9462
  172MOL0     H22673   2.271   8.411   5.574 -0.0787 -0.2065 -0.3813
  172MOL0     H22674   2.418   8.212   5.666 -0.1620  2.7411  0.6844
  172MOL0     H22675   2.376   8.142   5.505  1.0115  3.5594 -2.5993
  172MOL0     H22676   2.194   8.250   5.733  4.2464  0.1652  1.8369
  172MOL0     H22677   2.130   8.165   5.578  0.7579 -1.0542 -1.1263
  172MOL0     H22678   2.307   8.013   5.770 -0.3021  0.3153  0.9676
  172MOL0     H22679   2.206   7.960   5.639 -2.8129  1.8637 -2.4134
  172MOL0     H22680   2.122   8.075   5.913  1.8881  1.5142 -1.1396
  172MOL0     H22681   2.144   7.917   5.866  0.2599  2.2225  4.2355
  172MOL0     H22682   1.951   7.941   5.698 -0.5567  0.5561  1.1126
  172MOL0     H22683   1.902   7.969   5.853 -0.8854 -0.8043 -0.6093
  172MOL0     H22684   1.940   8.172   5.636  0.5064  0.5312 -0.3231
  172MOL0     H22685   1.957   8.230   5.795 -0.2907  1.0625  0.1969
  172MOL0     H22686   2.725   8.480   5.530  1.5988  1.8372  3.7821
  172MOL0     H22687   2.904   8.622   5.467  0.1114 -0.3894 -1.7930
  172MOL0     H22688   3.262   8.773   5.170  2.5603  0.9340  0.4104
  172MOL0     H22689   3.454   8.942   5.177  0.0419 -1.8595  0.8497
  172MOL0     H22690   4.926   9.700   4.301  0.3034 -0.1043 -0.0575
  172MOL0     H22691   5.169   9.616   4.269 -1.3389  2.8620 -1.1506
  172MOL0     H22692   5.371   9.227   4.099 -0.0675  0.3454 -1.2719
  172MOL0     H22693   5.591   9.104   4.099 -1.3869 -0.2567  0.3497
  172MOL0     H22694   5.985   9.312   3.976 -0.8629  1.8772 -2.2018
  172MOL0     H22695   5.893   9.279   3.827 -0.8634 -3.3660 -0.4486
  172MOL0     H22696   6.089   9.102   3.967  0.2468  0.2745 -0.7749
  172MOL0     H22697   5.978   9.046   3.838 -2.3148  0.8377  0.0119
  172MOL0     H22698   6.078   9.249   3.696 -3.4688 -0.9380  1.9667
  172MOL0     H22699   6.180   9.106   3.702 -3.0806 -1.3169 -1.2082
  172MOL0     H22700   6.184   9.351   3.876 -0.5662  0.1524 -1.8921
  172MOL0     H22701   6.287   9.208   3.917  2.0476 -0.5966 -1.8407
  172MOL0     H22702   6.532   9.376   3.625  0.5147 -2.1532 -0.7393
  172MOL0     H22703   5.763   9.453   3.894 -2.8584  2.3825 -1.5963
  172MOL0     H22704   5.538   9.557   3.927  0.3132  0.5475  0.5976
  173MOL0     O22705   4.582   1.695  10.681 -1.0732 -0.4486 -0.2935
  173MOL0     C22706   4.522   1.805  10.669 -1.0469 -0.1199 -0.4124
  173MOL0     O22707   4.575   1.932  10.687  0.9886  0.2763 -0.5273
  173MOL0     C22708   4.705   1.943  10.721 -0.0034 -0.4932  0.0842
  173MOL0     C22709   4.800   2.009  10.645  0.4701 -0.1214 -0.0043
  173MOL0     C22710   4.940   2.024  10.682  0.8855 -0.8803 -0.4055
  173MOL0     C22711   4.972   1.971  10.806 -0.1136 -0.1456 -0.3358
  173MOL0     O22712   5.107   1.987  10.833  0.1716  0.1861  0.1987
  173MOL0     C22713   5.154   1.944  10.963 -0.8709  0.1603 -1.2912
  173MOL0     C22714   5.292   2.014  10.968 -0.0816 -1.4224 -0.5938
  173MOL0     C22715   5.373   1.958  11.079 -0.3062  0.1223  0.6214
  173MOL0     C22716   5.534   1.992  11.060  0.2967 -0.3145  0.3757
  173MOL0     C22717   5.597   1.925  11.190 -0.5542  0.0575 -0.1539
  173MOL0     C22718   5.726   1.992  11.226  1.2674 -0.4929  0.3209
  173MOL0     C22719   5.813   1.926  11.327 -0.0989  0.3493  0.1789
  173MOL0     C22720   5.930   2.010  11.372 -0.7199 -0.6036 -0.0968
  173MOL0     N22721   5.974   1.962  11.503 -0.1656 -0.3865  0.7031
  173MOL0     C22722   5.900   1.985  11.607  0.2870  0.5019 -0.1401
  173MOL0     C22723   5.952   1.897  11.705 -0.5926  0.7027 -0.3148
  173MOL0     C22724   5.889   1.881  11.841 -0.3516  0.3457 -0.0192
  173MOL0     C22725   5.752   1.803  11.811 -0.2208 -0.1077  0.5283
  173MOL0     C22726   5.703   1.722  11.935 -0.3958 -0.2861  0.3604
  173MOL0     C22727   5.548   1.686  11.916  0.4708 -1.2353  0.3936
  173MOL0     O22728   5.533   1.600  11.804 -0.3370 -0.2421 -0.0905
  173MOL0     C22729   5.403   1.572  11.754 -0.6589  0.0905  0.3367
  173MOL0     C22730   5.378   1.446  11.706 -0.3914  0.3141  0.2749
  173MOL0     C22731   5.244   1.400  11.668  0.3310  0.1186  0.7573
  173MOL0     C22732   5.130   1.481  11.684 -0.1879 -0.6424  0.9828
  173MOL0     C22733   4.994   1.425  11.659 -0.2445  0.4211  0.1925
  173MOL0     O22734   4.896   1.501  11.711  0.3748  0.5340  0.1501
  173MOL0     C22735   4.773   1.451  11.722  0.2308  0.7617 -0.3842
  173MOL0     C22736   4.654   1.526  11.704 -0.1018  0.0712 -0.0846
  173MOL0     C22737   4.522   1.480  11.729 -0.2664 -0.7249 -0.0721
  173MOL0     C22738   4.497   1.357  11.794 -0.7987 -0.3058  0.0472
  173MOL0     O22739   4.375   1.308  11.816  0.8585 -0.4611 -0.4613
  173MOL0     C22740   4.268   1.374  11.744 -0.1493  0.7970 -0.0426
  173MOL0     C22741   4.127   1.320  11.759 -0.6498 -0.5349 -0.0643
  173MOL0     C22742   4.082   1.310  11.905  0.1627 -0.8094  0.1365
  173MOL0     C22743   3.943   1.252  11.908 -0.3896 -0.4112 -1.0299
  173MOL0     C22744   3.857   1.310  12.019  0.5785  0.6307  0.0743
  173MOL0     C22745   3.898   1.306  12.160  0.4542  0.3236  0.6179
  173MOL0     C22746   3.855   1.180  12.222 -0.3776  0.0765  0.5102
  173MOL0     C22747   3.911   1.166  12.369 -0.0624 -0.6182 -0.0527
  173MOL0    Cl22748   3.814   1.048  12.454 -0.1179  0.1180  0.0047
  173MOL0     C22749   4.619   1.285  11.814  0.4433 -0.1081 -0.1153
  173MOL0     C22750   4.753   1.322  11.776  0.0934  0.4138  0.2465
  173MOL0     O22751   4.974   1.315  11.600 -0.1351 -0.2600  0.5897
  173MOL0     C22752   5.157   1.614  11.734 -0.7610 -0.3609  0.5958
  173MOL0     C22753   5.289   1.646  11.764  0.1872 -0.2248 -0.1093
  173MOL0     N22754   6.048   1.820  11.652  0.4577  0.3855  0.1734
  173MOL0     N22755   6.059   1.860  11.531 -0.7438 -0.2100 -0.7986
  173MOL0     C22756   4.878   1.913  10.893 -0.0392 -0.2483  0.6247
  173MOL0     C22757   4.747   1.896  10.849  0.1885  0.3652  0.5511
  173MOL0     C22758   4.385   1.793  10.641  0.5926 -0.3224  0.3377
  173MOL0     C22759   4.318   1.674  10.603  0.2763  0.7062  0.6758
  173MOL0     C22760   4.185   1.677  10.591  0.9661 -0.7905  0.0301
  173MOL0     C22761   4.105   1.788  10.602 -0.3897 -0.2201 -0.1763
  173MOL0     O22762   3.968   1.788  10.604 -0.3885 -0.2840 -0.3383
  173MOL0     C22763   3.890   1.679  10.552 -0.8076 -0.6073  0.7965
  173MOL0     C22764   3.743   1.703  10.578 -0.6912  0.4801 -1.0581
  173MOL0     C22765   3.694   1.835  10.530 -0.1545  0.9775 -0.0065
  173MOL0     C22766   3.551   1.841  10.559 -0.1637 -1.0093  0.7236
  173MOL0     C22767   3.513   1.975  10.513 -0.1745  0.5094 -0.7880
  173MOL0     C22768   3.487   2.083  10.472 -0.0388  0.4694 -0.3408
  173MOL0     C22769   4.165   1.910  10.637  0.3855  0.6861 -0.4166
  173MOL0     C22770   4.300   1.914  10.647 -0.7982  0.6182  0.2246
  173MOL0     H22771   4.769   2.056  10.552 -0.8132  0.1020  0.5175
  173MOL0     H22772   5.007   2.081  10.619  0.3779  0.6530  0.3878
  173MOL0     H22773   5.166   1.835  10.970  0.2697  0.0877 -3.4295
  173MOL0     H22774   5.101   1.984  11.049  1.1381  1.0153 -0.3904
  173MOL0     H22775   5.291   2.123  10.959  1.8686 -1.4650 -2.0037
  173MOL0     H22776   5.351   1.984  10.881  0.3613 -3.1263  0.2550
  173MOL0     H22777   5.359   1.850  11.077 -0.9947  0.1628 -2.8449
  173MOL0     H22778   5.341   1.999  11.176 -1.0046  1.6255 -0.2202
  173MOL0     H22779   5.568   1.934  10.974 -0.2387  0.8023 -0.6091
  173MOL0     H22780   5.559   2.098  11.059  1.3813 -0.5611  0.1940
  173MOL0     H22781   5.601   1.817  11.172 -0.7967  0.0684 -0.2768
  173MOL0     H22782   5.532   1.942  11.277 -3.1393 -0.9454 -1.7772
  173MOL0     H22783   5.698   2.092  11.262 -1.9882 -1.3418  0.3520
  173MOL0     H22784   5.785   1.994  11.134  0.9569 -1.3837  0.0995
  173MOL0     H22785   5.746   1.904  11.410  0.0613 -1.4189 -0.1309
  173MOL0     H22786   5.846   1.827  11.296 -1.5539 -0.0385 -0.1681
  173MOL0     H22787   5.914   2.118  11.381  0.5612 -0.3653 -0.3584
  173MOL0     H22788   6.005   2.002  11.292  2.1244  0.1271  2.3100
  173MOL0     H22789   5.812   2.046  11.627 -0.1843 -0.1181 -0.2846
  173MOL0     H22790   5.872   1.981  11.882  2.0531  0.5962  0.4813
  173MOL0     H22791   5.971   1.837  11.898  0.8610  1.8554 -0.5206
  173MOL0     H22792   5.768   1.741  11.723  0.0836 -0.1579  0.6178
  173MOL0     H22793   5.685   1.888  11.792  0.4545  0.6221  1.3346
  173MOL0     H22794   5.751   1.623  11.941  0.6521  0.1923  0.0980
  173MOL0     H22795   5.727   1.773  12.028  0.8720 -0.2731  0.0435
  173MOL0     H22796   5.495   1.780  11.899  0.0904 -1.4070  0.6381
  173MOL0     H22797   5.504   1.642  12.006 -3.2363  1.4285  0.1131
  173MOL0     H22798   5.459   1.378  11.679  0.0959  0.8425  0.3818
  173MOL0     H22799   5.240   1.302  11.622  0.3126  1.6043 -2.7399
  173MOL0     H22800   4.659   1.634  11.701 -3.1027  0.3297  1.0593
  173MOL0     H22801   4.452   1.560  11.704  0.5368 -0.4993 -1.7487
  173MOL0     H22802   4.299   1.363  11.640  0.6328  0.6942  0.1945
  173MOL0     H22803   4.264   1.479  11.776  2.2172  0.4094  1.8584
  173MOL0     H22804   4.137   1.215  11.729 -0.5366 -1.7055  3.4987
  173MOL0     H22805   4.051   1.369  11.699  0.3792 -0.2680 -1.1800
  173MOL0     H22806   4.080   1.411  11.947  0.4253 -0.5572 -0.4542
  173MOL0     H22807   4.148   1.249  11.967  3.5196  1.2433 -1.1616
  173MOL0     H22808   3.889   1.284  11.818 -1.9247  4.2460  1.2270
  173MOL0     H22809   3.954   1.144  11.922  1.2974 -0.2143 -0.6682
  173MOL0     H22810   3.763   1.255  12.013  1.3844 -1.4822  3.7497
  173MOL0     H22811   3.826   1.409  11.984  0.4177  0.4175 -0.4009
  173MOL0     H22812   3.829   1.382  12.198 -1.8999 -0.4986 -1.6879
  173MOL0     H22813   4.001   1.337  12.182  0.0430  2.8548 -0.6922
  173MOL0     H22814   3.746   1.180  12.227 -0.5729  0.6873 -2.2778
  173MOL0     H22815   3.892   1.096  12.162 -4.1560 -0.2222 -1.6947
  173MOL0     H22816   3.905   1.264  12.418 -2.7503  2.1871 -5.1396
  173MOL0     H22817   4.019   1.146  12.370  0.6470  2.3079  3.3512
  173MOL0     H22818   4.613   1.188  11.863  2.3835  0.0592  0.5390
  173MOL0     H22819   4.839   1.265  11.809  0.3873  0.1852 -0.8808
  173MOL0     H22820   5.084   1.695  11.735 -0.5452 -0.1703  1.0609
  173MOL0     H22821   5.307   1.747  11.799 -0.6879 -0.6302  1.6069
  173MOL0     H22822   4.912   1.890  10.993  1.1231 -0.4376  0.2028
  173MOL0     H22823   4.670   1.851  10.911 -1.0979 -0.1248 -1.3249
  173MOL0     H22824   4.370   1.585  10.570  1.7062  2.3036 -1.6228
  173MOL0     H22825   4.138   1.584  10.563  0.4905 -0.6313  0.2937
  173MOL0     H22826   3.926   1.585  10.596 -1.7231 -1.1407  0.4270
  173MOL0     H22827   3.917   1.680  10.446 -2.5222  0.0485  0.3351
  173MOL0     H22828   3.680   1.624  10.537 -0.4643  0.2639 -0.9906
  173MOL0     H22829   3.740   1.700  10.687 -0.9749  0.8107 -1.0557
  173MOL0     H22830   3.716   1.853  10.425  1.2771  1.2249  0.3059
  173MOL0     H22831   3.745   1.912  10.588  2.3357 -0.9212  0.5209
  173MOL0     H22832   3.497   1.771  10.495  1.2578 -1.3236 -0.1762
  173MOL0     H22833   3.533   1.830  10.667  0.7136 -0.4585  0.9370
  173MOL0     H22834   3.438   2.172  10.439 -1.4884  0.9175  2.6426
  173MOL0     H22835   4.103   1.995  10.663  2.6434  1.8887  1.2779
  173MOL0     H22836   4.353   2.009  10.654 -0.4333  0.3127  2.5485
  174MOL0     O22837   1.242   1.963   3.178 -0.0305 -0.0280  0.8013
  174MOL0     C22838   1.263   1.878   3.266 -0.2409  0.5664  0.0898
  174MOL0     O22839   1.165   1.823   3.346 -0.0875  0.8918  0.2149
  174MOL0     C22840   1.037   1.797   3.300 -0.2302 -0.2618 -0.1667
  174MOL0     C22841   0.939   1.793   3.403  1.1572 -0.0872  0.0871
  174MOL0     C22842   0.808   1.760   3.367 -0.4453 -0.0871  0.6398
  174MOL0     C22843   0.763   1.726   3.231  0.1066 -0.1258  0.4630
  174MOL0     O22844   0.637   1.710   3.177 -0.7438 -0.6647 -0.1027
  174MOL0     C22845   0.531   1.733   3.268  0.6581 -0.3854 -0.4604
  174MOL0     C22846   0.404   1.710   3.194 -0.2763 -0.3078  0.0360
  174MOL0     C22847   0.275   1.726   3.283 -0.4134  0.4587  0.2680
  174MOL0     C22848   0.150   1.711   3.199  0.6302 -0.1368  0.9861
  174MOL0     C22849   0.022   1.747   3.268  1.1957 -0.3677 -0.1977
  174MOL0     C22850  -0.103   1.764   3.176 -0.2788 -0.2164  0.5079
  174MOL0     C22851  -0.217   1.827   3.254  0.2262  0.3121  0.1640
  174MOL0     C22852  -0.339   1.855   3.166  0.3708  0.1591 -0.7855
  174MOL0     N22853  -0.435   1.942   3.234  0.4262 -0.4396  0.5963
  174MOL0     C22854  -0.569   1.912   3.251  0.0738  0.3643 -0.1159
  174MOL0     C22855  -0.634   2.025   3.291 -0.2839 -0.2000 -0.3384
  174MOL0     C22856  -0.782   2.036   3.302 -0.1127 -0.7438 -0.7127
  174MOL0     C22857  -0.836   1.973   3.431  0.0399 -0.1025 -0.3388
  174MOL0     C22858  -0.991   1.989   3.457  0.8243 -0.4699 -0.3340
  174MOL0     C22859  -1.038   1.939   3.593 -0.3145 -0.0542 -0.0825
  174MOL0     O22860  -1.184   1.962   3.584 -0.2972  0.8307 -0.1883
  174MOL0     C22861  -1.272   1.882   3.661 -0.3358 -0.5828  0.4841
  174MOL0     C22862  -1.240   1.799   3.772 -0.3078 -0.0648  0.0331
  174MOL0     C22863  -1.345   1.745   3.846  0.0236 -0.4421 -0.2605
  174MOL0     C22864  -1.481   1.757   3.818 -0.5616 -0.0062 -0.3784
  174MOL0     C22865  -1.585   1.703   3.908  0.3528  0.5636 -0.5976
  174MOL0     O22866  -1.704   1.764   3.914  0.3164 -0.2051 -0.1021
  174MOL0     C22867  -1.793   1.719   4.007  0.0797 -0.7935 -0.7271
  174MOL0     C22868  -1.766   1.699   4.150  0.0974  0.0843  0.2748
  174MOL0     C22869  -1.854   1.639   4.243  0.6810  0.5449  0.7778
  174MOL0     C22870  -1.980   1.622   4.190  0.5955  0.1445 -0.0925
  174MOL0     O22871  -2.080   1.578   4.273 -0.0068  0.0641  0.9126
  174MOL0     C22872  -2.067   1.554   4.409  0.1918  0.2948  0.8419
  174MOL0     C22873  -2.197   1.519   4.483  0.1070  0.0187 -0.1008
  174MOL0     C22874  -2.273   1.394   4.445  0.9345 -0.1734 -0.0932
  174MOL0     C22875  -2.202   1.260   4.487  0.2858 -0.4353  0.6540
  174MOL0     C22876  -2.269   1.141   4.421  0.3110  0.8090 -0.2133
  174MOL0     C22877  -2.413   1.108   4.479 -0.5780  0.6282  0.3312
  174MOL0     C22878  -2.482   1.009   4.389 -0.7066  0.3135 -0.6331
  174MOL0     C22879  -2.514   0.877   4.464 -0.4466 -0.3181  0.7296
  174MOL0    Cl22880  -2.358   0.792   4.488 -0.2691  0.0637 -0.1691
  174MOL0     C22881  -2.012   1.654   4.052  0.3145 -0.3665 -0.4018
  174MOL0     C22882  -1.920   1.696   3.958 -0.3091  1.0170 -0.5080
  174MOL0     O22883  -1.549   1.611   3.979  0.6168  0.9255 -0.5179
  174MOL0     C22884  -1.512   1.831   3.705 -0.2166  0.2255 -0.6032
  174MOL0     C22885  -1.409   1.896   3.636  1.0635  0.3351 -0.6926
  174MOL0     N22886  -0.537   2.122   3.319 -0.5690  0.3061 -0.8578
  174MOL0     N22887  -0.418   2.064   3.292 -0.5389  0.7852  0.7543
  174MOL0     C22888   0.865   1.735   3.130 -0.1169 -0.0702 -0.7506
  174MOL0     C22889   1.006   1.765   3.171  0.5367  0.2838 -0.4228
  174MOL0     C22890   1.408   1.862   3.311  0.1578 -0.5471 -0.8674
  174MOL0     C22891   1.435   1.791   3.430  0.1088  0.3881  0.5765
  174MOL0     C22892   1.560   1.780   3.477  0.6261  0.4952 -0.3801
  174MOL0     C22893   1.670   1.833   3.407  0.1843 -0.4680  0.1084
  174MOL0     O22894   1.797   1.808   3.435 -0.2714 -0.1675 -0.8405
  174MOL0     C22895   1.833   1.711   3.531  0.4424 -0.0310  1.0702
  174MOL0     C22896   1.975   1.660   3.517 -0.3550  0.3910  0.6019
  174MOL0     C22897   2.076   1.770   3.519  0.0609 -0.2592  0.3365
  174MOL0     C22898   2.209   1.739   3.456  0.0545  0.3369 -0.1013
  174MOL0     C22899   2.307   1.818   3.512  0.0576 -0.3530  0.5036
  174MOL0     C22900   2.393   1.894   3.537  0.0786 -0.3539 -0.4314
  174MOL0     C22901   1.648   1.906   3.290 -0.5382  0.2062  0.3333
  174MOL0     C22902   1.519   1.919   3.237 -0.0548  0.4136 -0.7192
  174MOL0     H22903   0.974   1.804   3.505  1.1950  2.6448 -0.1297
  174MOL0     H22904   0.728   1.753   3.440 -2.8143 -0.0818 -1.7717
  174MOL0     H22905   0.530   1.838   3.299 -0.7086 -0.2780 -0.8065
  174MOL0     H22906   0.544   1.669   3.357 -1.3820  0.6462  0.6452
  174MOL0     H22907   0.397   1.611   3.147 -4.1171 -0.0622 -0.1707
  174MOL0     H22908   0.407   1.791   3.121 -0.3288  1.6402  2.0908
  174MOL0     H22909   0.286   1.827   3.324  2.6715  0.1783  0.4033
  174MOL0     H22910   0.267   1.648   3.359 -1.2935  0.1646 -0.1125
  174MOL0     H22911   0.161   1.783   3.117 -3.8461  1.4850  1.5581
  174MOL0     H22912   0.154   1.610   3.156  0.1355  1.0595 -2.1217
  174MOL0     H22913   0.039   1.844   3.317  2.9665 -1.1597  0.8306
  174MOL0     H22914   0.006   1.679   3.351  5.2721 -1.8676 -0.4161
  174MOL0     H22915  -0.146   1.669   3.143  0.8478 -0.6809  0.3461
  174MOL0     H22916  -0.079   1.824   3.088 -2.9581 -0.0623 -0.2216
  174MOL0     H22917  -0.250   1.770   3.341  0.7281  2.0374  1.5388
  174MOL0     H22918  -0.167   1.910   3.304 -0.6934 -0.0081  1.6887
  174MOL0     H22919  -0.385   1.759   3.143 -4.2852  2.0545 -0.5739
  174MOL0     H22920  -0.307   1.901   3.072  0.7583 -2.2833 -1.9233
  174MOL0     H22921  -0.616   1.816   3.232  1.4332 -0.0178 -1.8407
  174MOL0     H22922  -0.840   1.984   3.226 -1.0991  0.1745 -0.6191
  174MOL0     H22923  -0.812   2.141   3.305 -0.9157 -0.9826 -0.1587
  174MOL0     H22924  -0.780   1.997   3.522  0.8841  1.4004 -1.2064
  174MOL0     H22925  -0.805   1.868   3.431  0.5618  0.0425  0.3713
  174MOL0     H22926  -1.026   2.089   3.430 -0.1823 -0.8023 -0.3026
  174MOL0     H22927  -1.058   1.940   3.386 -0.5611 -0.8866  1.2005
  174MOL0     H22928  -0.989   1.994   3.674  1.8871  1.3029 -2.2156
  174MOL0     H22929  -1.018   1.832   3.607 -1.4980 -0.3182 -0.2752
  174MOL0     H22930  -1.148   1.772   3.823 -0.4432 -1.1744 -0.2924
  174MOL0     H22931  -1.306   1.687   3.929 -1.0741 -0.9320 -0.0618
  174MOL0     H22932  -1.667   1.728   4.183 -1.0696  3.6550  1.0747
  174MOL0     H22933  -1.819   1.639   4.345  1.9109 -0.9308  0.3926
  174MOL0     H22934  -2.032   1.649   4.451 -3.7334  3.4664 -2.2453
  174MOL0     H22935  -2.008   1.464   4.427  0.1911 -0.1933 -1.3482
  174MOL0     H22936  -2.265   1.605   4.478  0.9857  0.6801 -2.4396
  174MOL0     H22937  -2.162   1.508   4.586  1.6671  0.2963 -0.5751
  174MOL0     H22938  -2.296   1.393   4.338 -3.3522  2.7178  0.5462
  174MOL0     H22939  -2.364   1.400   4.506  2.2227  0.7219  1.8457
  174MOL0     H22940  -2.102   1.256   4.443  0.7304 -2.4375  1.7487
  174MOL0     H22941  -2.199   1.265   4.596 -0.6192 -1.6632  0.7554
  174MOL0     H22942  -2.203   1.056   4.433  0.1334  0.8654  1.3102
  174MOL0     H22943  -2.282   1.152   4.313  1.2364 -2.9598 -0.8284
  174MOL0     H22944  -2.475   1.197   4.485 -0.8560  0.4466  0.1699
  174MOL0     H22945  -2.404   1.072   4.582  0.6205  3.0106  1.1272
  174MOL0     H22946  -2.580   1.041   4.352 -0.7857 -0.8573 -1.5072
  174MOL0     H22947  -2.425   0.991   4.298  0.6876 -0.2641  0.3237
  174MOL0     H22948  -2.582   0.824   4.396 -3.8045 -0.7892  4.1062
  174MOL0     H22949  -2.564   0.905   4.557  0.5270  0.3936  1.0568
  174MOL0     H22950  -2.112   1.641   4.013  1.3069 -4.9026 -2.0535
  174MOL0     H22951  -1.958   1.697   3.857  0.2568  1.4472 -0.7213
  174MOL0     H22952  -1.610   1.854   3.663  0.3696 -0.1206 -2.2534
  174MOL0     H22953  -1.432   1.960   3.551 -1.8335  0.2795 -0.0734
  174MOL0     H22954   0.835   1.716   3.027  0.0461 -0.2453 -0.7666
  174MOL0     H22955   1.086   1.747   3.100 -1.3328 -0.9294 -2.3331
  174MOL0     H22956   1.355   1.760   3.497 -0.1497 -0.9240 -0.2968
  174MOL0     H22957   1.574   1.713   3.562 -0.8764 -0.2057 -0.6465
  174MOL0     H22958   1.761   1.629   3.531 -2.7735  2.5948  0.3159
  174MOL0     H22959   1.821   1.758   3.629 -3.1832  0.3054  0.6155
  174MOL0     H22960   1.997   1.589   3.597  0.5183 -1.3655 -1.0917
  174MOL0     H22961   1.978   1.612   3.419  0.3098 -1.7996  1.6360
  174MOL0     H22962   2.097   1.799   3.622  1.8250 -0.3778  0.0326
  174MOL0     H22963   2.041   1.861   3.469  1.5167 -0.7752 -1.7888
  174MOL0     H22964   2.218   1.633   3.481 -3.7766 -0.0182  0.4855
  174MOL0     H22965   2.209   1.755   3.348  0.6539  1.5202  0.0538
  174MOL0     H22966   2.463   1.958   3.588 -2.0648 -1.4174  4.3771
  174MOL0     H22967   1.735   1.944   3.239 -0.6624  4.5507  2.8321
  174MOL0     H22968   1.497   1.983   3.152 -0.0605  1.6700  0.1929
  175MOL0     O22969  10.558   0.452   8.779  0.4181  0.5657 -0.4866
  175MOL0     C22970  10.462   0.423   8.712  0.7766 -0.0644  0.2983
  175MOL0     O22971  10.469   0.379   8.589 -0.4044  0.4280 -0.5135
  175MOL0     C22972  10.589   0.378   8.518  0.2619 -0.3497  0.0171
  175MOL0     C22973  10.640   0.262   8.460  0.8403 -0.7153  0.5974
  175MOL0     C22974  10.749   0.258   8.374 -0.6268 -0.5905 -0.4643
  175MOL0     C22975  10.819   0.376   8.352 -0.0682  0.2305  1.3550
  175MOL0     O22976  10.924   0.394   8.272  0.4286  0.5062 -0.5837
  175MOL0     C22977  11.007   0.285   8.250  0.6136 -0.2331  0.6846
  175MOL0     C22978  11.134   0.332   8.179 -0.2934  0.1921 -0.7895
  175MOL0     C22979  11.247   0.218   8.158  0.6677 -0.9514 -1.5384
  175MOL0     C22980  11.380   0.262   8.087 -0.2524 -0.3769  0.2467
  175MOL0     C22981  11.447   0.385   8.156 -0.2181 -0.5174 -0.4702
  175MOL0     C22982  11.601   0.384   8.162 -0.5167 -0.3862 -0.7502
  175MOL0     C22983  11.674   0.411   8.026 -0.3177 -0.0717 -0.0666
  175MOL0     C22984  11.827   0.378   8.018  0.4139 -0.4886 -0.1306
  175MOL0     N22985  11.910   0.476   8.089  0.3421  0.2135 -0.2834
  175MOL0     C22986  11.888   0.612   8.101  0.0685  0.1360 -0.3186
  175MOL0     C22987  11.986   0.659   8.177  0.3594  0.3046 -0.3659
  175MOL0     C22988  12.011   0.799   8.232  1.0576 -0.1520 -0.6504
  175MOL0     C22989  12.008   0.890   8.112  0.2332  0.6178  0.3382
  175MOL0     C22990  12.085   1.016   8.152  0.7444 -0.3000  0.3604
  175MOL0     C22991  12.242   1.001   8.160  0.6509 -0.4913 -0.9934
  175MOL0     O22992  12.293   0.982   8.025 -0.6136  0.8614 -0.1355
  175MOL0     C22993  12.372   1.084   7.974 -0.8259  0.1373 -0.6365
  175MOL0     C22994  12.507   1.084   8.004  0.4502 -0.4617 -0.5302
  175MOL0     C22995  12.579   1.194   7.947 -0.2945  1.4394  0.2698
  175MOL0     C22996  12.521   1.302   7.882 -0.0579 -0.4990 -0.0091
  175MOL0     C22997  12.587   1.429   7.851  0.5809 -0.1460  0.4296
  175MOL0     O22998  12.724   1.423   7.836  0.2774 -0.6783  0.4638
  175MOL0     C22999  12.803   1.531   7.804  0.0701 -0.6569  1.2373
  175MOL0     C23000  12.759   1.625   7.709 -0.4205  0.0991  0.0821
  175MOL0     C23001  12.847   1.737   7.680  0.3135  0.5967  0.2634
  175MOL0     C23002  12.959   1.759   7.754 -0.3609 -0.0898 -0.5487
  175MOL0     O23003  13.052   1.865   7.736 -0.3000 -0.1820 -0.0060
  175MOL0     C23004  12.992   1.999   7.717 -0.3227  0.0607 -0.7568
  175MOL0     C23005  13.111   2.098   7.693 -1.0601 -0.2982  1.5543
  175MOL0     C23006  13.059   2.235   7.706 -0.3638 -0.8880 -0.5246
  175MOL0     C23007  12.970   2.281   7.593 -0.8653 -0.1607 -0.1705
  175MOL0     C23008  12.916   2.422   7.635  0.7804  0.8891 -0.3145
  175MOL0     C23009  12.782   2.410   7.714  0.4178 -0.0267 -0.1229
  175MOL0     C23010  12.717   2.548   7.730  0.0861  0.7145 -0.3000
  175MOL0     C23011  12.594   2.532   7.817  1.2066  0.4066 -0.1885
  175MOL0    Cl23012  12.517   2.690   7.859 -0.5401  0.6402 -0.4945
  175MOL0     C23013  13.002   1.663   7.842  0.1561  0.5163  1.2990
  175MOL0     C23014  12.922   1.555   7.869  0.9268  0.8884  0.4428
  175MOL0     O23015  12.514   1.523   7.814 -0.2869 -0.1668 -0.1817
  175MOL0     C23016  12.382   1.290   7.861 -0.4777 -0.0915 -0.2479
  175MOL0     C23017  12.310   1.183   7.908 -0.3055  0.5356 -0.7794
  175MOL0     N23018  12.062   0.556   8.214  0.0757  0.7994 -0.6046
  175MOL0     N23019  12.013   0.442   8.167 -0.8633 -0.3714  0.1020
  175MOL0     C23020  10.773   0.489   8.405 -0.3002 -0.6103 -1.1649
  175MOL0     C23021  10.659   0.493   8.494 -0.1336 -1.3545  0.6848
  175MOL0     C23022  10.326   0.424   8.773 -0.2203 -0.8836  0.4498
  175MOL0     C23023  10.216   0.361   8.719  0.6164  0.2506  0.5076
  175MOL0     C23024  10.094   0.351   8.789 -0.0921 -0.0058 -0.4696
  175MOL0     C23025  10.082   0.413   8.920  0.0598  0.6785  0.1831
  175MOL0     O23026   9.973   0.399   8.993 -0.2834  0.1243 -0.1760
  175MOL0     C23027   9.847   0.355   8.942  0.5384  0.4013  0.9056
  175MOL0     C23028   9.771   0.321   9.065 -0.3271  0.2913 -0.2408
  175MOL0     C23029   9.712   0.449   9.117 -0.7843  0.4022 -0.9779
  175MOL0     C23030   9.659   0.435   9.261  0.5630 -0.2527  0.7570
  175MOL0     C23031   9.584   0.310   9.282  0.0029 -0.0011 -0.5576
  175MOL0     C23032   9.523   0.205   9.314  1.0020  0.5824  0.6355
  175MOL0     C23033  10.187   0.483   8.967  0.6069 -0.8940 -0.7286
  175MOL0     C23034  10.306   0.484   8.903  0.0175  0.1256  0.5058
  175MOL0     H23035  10.590   0.167   8.475 -1.9374  0.1083 -2.2837
  175MOL0     H23036  10.782   0.164   8.332 -0.3207 -2.3063  3.2091
  175MOL0     H23037  10.968   0.205   8.186  2.0329 -2.8494  2.8765
  175MOL0     H23038  11.022   0.223   8.338 -2.5618 -2.1240  0.0405
  175MOL0     H23039  11.179   0.416   8.232 -1.4216  0.8169 -0.7751
  175MOL0     H23040  11.113   0.364   8.077  2.0158 -1.2246 -1.7836
  175MOL0     H23041  11.200   0.129   8.114 -0.9637 -1.1221  0.4071
  175MOL0     H23042  11.269   0.175   8.257 -1.5259 -0.2029 -0.6814
  175MOL0     H23043  11.450   0.178   8.081 -0.2697 -0.4501  1.0132
  175MOL0     H23044  11.360   0.297   7.985 -0.7191 -0.1862  0.4019
  175MOL0     H23045  11.424   0.382   8.263  2.7711  0.6719  0.3079
  175MOL0     H23046  11.410   0.480   8.117 -1.7675 -0.6964  0.4980
  175MOL0     H23047  11.630   0.282   8.187 -1.3896 -0.8700 -1.6631
  175MOL0     H23048  11.635   0.456   8.237 -0.9007 -1.6195  0.6322
  175MOL0     H23049  11.624   0.346   7.953 -0.6047  0.0570  0.0163
  175MOL0     H23050  11.661   0.515   7.994  1.2948 -0.4098 -2.0331
  175MOL0     H23051  11.863   0.377   7.915 -0.2451 -2.2751 -0.3849
  175MOL0     H23052  11.845   0.275   8.048  1.4847 -1.1023 -2.6425
  175MOL0     H23053  11.809   0.674   8.060 -0.8918 -0.2800  0.8399
  175MOL0     H23054  12.108   0.800   8.283  0.8988  0.0958 -0.3541
  175MOL0     H23055  11.931   0.832   8.298  0.8107 -0.2056 -0.9238
  175MOL0     H23056  11.907   0.908   8.076  0.8567  1.6282 -0.9738
  175MOL0     H23057  12.058   0.852   8.022 -1.6514  0.0407 -0.5068
  175MOL0     H23058  12.061   1.100   8.087  0.7034 -1.9283 -1.8257
  175MOL0     H23059  12.053   1.059   8.248  5.8616  0.4248  2.0712
  175MOL0     H23060  12.275   0.916   8.220  0.7107  1.1720  1.4916
  175MOL0     H23061  12.289   1.092   8.198  0.9255 -0.5864 -1.1060
  175MOL0     H23062  12.559   1.007   8.061 -0.6343 -0.7397  0.1170
  175MOL0     H23063  12.686   1.203   7.960 -0.0414 -0.1273 -0.4510
  175MOL0     H23064  12.668   1.623   7.650 -1.4069  0.3121  1.5331
  175MOL0     H23065  12.822   1.813   7.607 -0.3226 -0.8653 -1.0988
  175MOL0     H23066  12.934   2.026   7.806 -0.6224  0.5130 -1.0816
  175MOL0     H23067  12.918   1.999   7.636 -2.1992 -0.5361  0.8658
  175MOL0     H23068  13.146   2.078   7.591 -1.1162  0.3913  1.4005
  175MOL0     H23069  13.202   2.099   7.753  1.8546  0.5374 -2.4400
  175MOL0     H23070  13.148   2.299   7.706 -0.4634 -0.7295  0.5913
  175MOL0     H23071  12.998   2.258   7.794  1.8567  1.8789  0.4624
  175MOL0     H23072  13.028   2.296   7.501 -2.1550  0.2656 -0.9346
  175MOL0     H23073  12.887   2.215   7.566  0.8970 -1.9310 -1.5497
  175MOL0     H23074  12.891   2.470   7.540  3.7709  0.8632 -1.2179
  175MOL0     H23075  12.989   2.472   7.698  2.1485 -1.4909  0.1160
  175MOL0     H23076  12.791   2.363   7.812 -0.7639 -0.9302 -0.4291
  175MOL0     H23077  12.715   2.346   7.656  2.6778 -2.0120 -0.7181
  175MOL0     H23078  12.784   2.621   7.776  1.8404 -0.8418 -0.2600
  175MOL0     H23079  12.681   2.586   7.634 -0.6565 -1.4413 -0.9464
  175MOL0     H23080  12.617   2.477   7.908 -3.0198 -0.3126  0.6615
  175MOL0     H23081  12.524   2.477   7.753  0.2887  2.5954 -1.1858
  175MOL0     H23082  13.101   1.672   7.886  2.0480  0.7007 -2.5273
  175MOL0     H23083  12.946   1.478   7.942  1.0225  0.8022  0.3202
  175MOL0     H23084  12.319   1.359   7.806 -1.2722 -2.7098 -2.8526
  175MOL0     H23085  12.203   1.164   7.904 -0.3168  0.4919 -0.3391
  175MOL0     H23086  10.814   0.584   8.372 -0.3843 -0.5656 -1.1429
  175MOL0     H23087  10.624   0.588   8.532  2.0706  0.4429 -1.4539
  175MOL0     H23088  10.233   0.312   8.623  2.4729  0.5317  0.6458
  175MOL0     H23089  10.012   0.301   8.738 -2.1901  1.8651  0.8715
  175MOL0     H23090   9.858   0.260   8.889  0.4271  0.0206  1.5613
  175MOL0     H23091   9.803   0.434   8.880  2.0008  0.8588  0.3915
  175MOL0     H23092   9.698   0.243   9.043  2.5703 -1.5985 -4.3160
  175MOL0     H23093   9.832   0.284   9.148 -0.3017  1.0436  0.0817
  175MOL0     H23094   9.635   0.474   9.044 -0.3130  0.3774 -1.4821
  175MOL0     H23095   9.789   0.527   9.130 -0.7654  0.0127  1.8462
  175MOL0     H23096   9.746   0.436   9.328 -0.3688  1.9266  2.0219
  175MOL0     H23097   9.590   0.519   9.270  0.3222 -0.2179 -1.1704
  175MOL0     H23098   9.481   0.119   9.361 -0.5999  2.1226  2.1524
  175MOL0     H23099  10.159   0.531   9.061 -4.3136 -2.8753 -0.8689
  175MOL0     H23100  10.391   0.538   8.943  1.2864 -0.9597 -0.5924
  176MOL0     O23101   7.588   2.747   4.152 -0.3599  0.2202  0.1607
  176MOL0     C23102   7.712   2.748   4.162 -0.2033  0.3725  0.8104
  176MOL0     O23103   7.786   2.777   4.268 -0.0024 -0.0864 -0.1973
  176MOL0     C23104   7.722   2.745   4.384 -0.1372  0.8813 -0.2399
  176MOL0     C23105   7.618   2.824   4.438 -0.1350  0.4975  0.8154
  176MOL0     C23106   7.551   2.776   4.552  0.7660 -0.1616 -0.0910
  176MOL0     C23107   7.563   2.653   4.610 -0.5207  0.3089  0.2691
  176MOL0     O23108   7.481   2.623   4.715 -0.2455  0.1258 -0.0963
  176MOL0     C23109   7.459   2.484   4.742 -0.2380  0.3680  0.1249
  176MOL0     C23110   7.362   2.410   4.651  0.1038  0.7773 -0.3247
  176MOL0     C23111   7.315   2.267   4.702  0.1712 -0.6684  0.6648
  176MOL0     C23112   7.242   2.177   4.598 -0.0509  0.2129 -0.1307
  176MOL0     C23113   7.257   2.029   4.620 -0.5326 -0.4372  0.7019
  176MOL0     C23114   7.395   1.962   4.602 -0.1693  0.1379  1.3001
  176MOL0     C23115   7.463   1.998   4.473 -0.8176 -0.1745 -0.4597
  176MOL0     C23116   7.595   1.915   4.456  0.1540 -1.3155 -0.9147
  176MOL0     N23117   7.700   1.961   4.549 -0.1087  0.2107  0.0396
  176MOL0     C23118   7.772   2.071   4.530 -0.3488 -0.0014  0.4202
  176MOL0     C23119   7.873   2.069   4.612 -0.2672  0.3226 -0.0087
  176MOL0     C23120   7.980   2.166   4.619 -1.4303  0.4316  0.6146
  176MOL0     C23121   8.073   2.164   4.501  0.2233 -0.2496  0.4233
  176MOL0     C23122   8.184   2.059   4.495  1.1943  0.7074  0.3230
  176MOL0     C23123   8.123   1.919   4.497  0.1224  0.1798  0.5194
  176MOL0     O23124   8.207   1.820   4.437 -0.4252 -0.5963 -0.4552
  176MOL0     C23125   8.324   1.794   4.504 -0.4794 -0.4076  0.1208
  176MOL0     C23126   8.415   1.705   4.437 -0.2316 -0.5670 -0.4294
  176MOL0     C23127   8.533   1.660   4.499 -0.1181  0.0350  0.2242
  176MOL0     C23128   8.563   1.691   4.634  0.6778  0.7619  0.5083
  176MOL0     C23129   8.679   1.624   4.703  0.1423 -0.5733  0.7531
  176MOL0     O23130   8.764   1.547   4.633 -0.5552  0.0044  0.5879
  176MOL0     C23131   8.843   1.473   4.719 -0.7099 -0.2208 -0.0054
  176MOL0     C23132   8.961   1.529   4.779  0.4613  0.2643 -0.0141
  176MOL0     C23133   9.043   1.446   4.862 -1.2721  0.4856 -0.5627
  176MOL0     C23134   9.005   1.309   4.883 -0.7076  0.6373 -0.3721
  176MOL0     O23135   9.094   1.211   4.930  0.1699 -0.0855 -0.8692
  176MOL0     C23136   9.227   1.232   4.881 -0.4945  0.3150 -0.1760
  176MOL0     C23137   9.306   1.111   4.849 -0.6295 -0.1626  0.8226
  176MOL0     C23138   9.430   1.137   4.773 -0.6122 -0.3157  0.8573
  176MOL0     C23139   9.523   1.016   4.745  0.2862 -0.4633 -0.0982
  176MOL0     C23140   9.635   1.038   4.639 -0.2891  1.1583 -0.3481
  176MOL0     C23141   9.748   0.940   4.644  0.5480  0.0167  0.7010
  176MOL0     C23142   9.861   0.971   4.536 -0.0997 -0.8358 -0.8381
  176MOL0     C23143   9.951   0.843   4.516  0.5037 -0.7293  0.1251
  176MOL0    Cl23144  10.043   0.879   4.375 -0.3175 -0.0844  0.2028
  176MOL0     C23145   8.887   1.261   4.823 -1.2508  0.4927 -0.3699
  176MOL0     C23146   8.801   1.338   4.748 -0.9486  0.1809 -0.2078
  176MOL0     O23147   8.688   1.639   4.824 -0.3165 -0.4370  0.2440
  176MOL0     C23148   8.468   1.773   4.697 -0.5701  0.2618 -0.2920
  176MOL0     C23149   8.354   1.832   4.638 -0.3650  0.2116  0.2925
  176MOL0     N23150   7.864   1.948   4.683 -0.2548  0.1200  0.1134
  176MOL0     N23151   7.752   1.892   4.648 -0.1550 -0.1002  0.2518
  176MOL0     C23152   7.670   2.571   4.558 -0.3251  0.2300 -0.1577
  176MOL0     C23153   7.748   2.618   4.445 -0.9814 -0.2093  0.4850
  176MOL0     C23154   7.774   2.723   4.036  0.1804 -0.3269 -0.5162
  176MOL0     C23155   7.716   2.685   3.911 -0.7023  0.5760 -0.9998
  176MOL0     C23156   7.798   2.668   3.793 -0.0104 -1.1588 -0.2342
  176MOL0     C23157   7.932   2.687   3.804 -0.1040 -0.6465  0.5430
  176MOL0     O23158   7.995   2.664   3.686 -0.1093  0.2308 -0.1034
  176MOL0     C23159   8.127   2.605   3.687  0.2120 -0.2577 -0.2367
  176MOL0     C23160   8.173   2.612   3.540  0.2678  0.1984 -1.1091
  176MOL0     C23161   8.176   2.755   3.498  0.6362  0.3297  0.6057
  176MOL0     C23162   8.298   2.781   3.420 -0.3966  0.3109 -0.1211
  176MOL0     C23163   8.295   2.917   3.374 -0.8898  0.7706 -0.7910
  176MOL0     C23164   8.289   3.030   3.336  0.4058  0.2973  0.4599
  176MOL0     C23165   7.995   2.724   3.926  0.3358  0.1758 -0.8164
  176MOL0     C23166   7.913   2.741   4.037 -0.5344 -0.0311 -0.0534
  176MOL0     H23167   7.600   2.916   4.384 -0.4384 -0.8482 -1.4963
  176MOL0     H23168   7.464   2.835   4.577  0.0129 -0.8987 -0.9211
  176MOL0     H23169   7.410   2.472   4.839  1.3228 -2.7687  0.6645
  176MOL0     H23170   7.552   2.429   4.760  0.2422  1.2352  0.3208
  176MOL0     H23171   7.416   2.391   4.557 -0.1131 -0.3467 -0.2340
  176MOL0     H23172   7.273   2.471   4.632 -1.4261 -0.7600  1.4180
  176MOL0     H23173   7.258   2.283   4.794  1.9183 -1.4470  1.9397
  176MOL0     H23174   7.406   2.216   4.734 -0.1553 -1.9345 -0.3559
  176MOL0     H23175   7.134   2.197   4.600 -0.0216  0.3411  0.9936
  176MOL0     H23176   7.285   2.190   4.498 -1.4218 -5.8616 -1.9659
  176MOL0     H23177   7.185   1.985   4.550 -0.2038 -0.3929  0.3356
  176MOL0     H23178   7.229   2.013   4.725 -1.9473  2.8394  0.9642
  176MOL0     H23179   7.380   1.853   4.604  1.8772 -0.1962  0.6386
  176MOL0     H23180   7.455   1.981   4.692  1.8305  0.2765 -0.0052
  176MOL0     H23181   7.395   1.965   4.394 -1.1132 -0.4230 -0.1025
  176MOL0     H23182   7.482   2.105   4.461 -3.0802 -0.0737 -4.8720
  176MOL0     H23183   7.631   1.918   4.353  3.5454  0.9540  0.1573
  176MOL0     H23184   7.578   1.809   4.474  1.1952 -1.3980 -0.3146
  176MOL0     H23185   7.742   2.152   4.464  1.7294 -0.8114 -1.6658
  176MOL0     H23186   8.044   2.142   4.705  2.0252  0.9566 -1.6315
  176MOL0     H23187   7.940   2.268   4.619 -0.6795  0.7580  2.0804
  176MOL0     H23188   8.129   2.257   4.511  0.6004 -0.7039  3.4371
  176MOL0     H23189   8.018   2.179   4.407  0.5944  3.6688  0.6658
  176MOL0     H23190   8.240   2.064   4.401  0.7280 -1.5048 -0.1188
  176MOL0     H23191   8.255   2.072   4.577  2.4440 -3.0429  0.0020
  176MOL0     H23192   8.032   1.921   4.437  1.6956  1.3230 -2.0198
  176MOL0     H23193   8.096   1.894   4.600  0.7237 -0.4470  0.5277
  176MOL0     H23194   8.399   1.683   4.332  0.9788 -0.2243 -0.6994
  176MOL0     H23195   8.595   1.588   4.446  1.3764  1.0322  0.5772
  176MOL0     H23196   8.977   1.634   4.758 -1.8864  1.0016  1.4104
  176MOL0     H23197   9.137   1.482   4.902 -0.8505 -1.0508 -0.0968
  176MOL0     H23198   9.271   1.278   4.971  1.5182 -1.6703 -0.0608
  176MOL0     H23199   9.238   1.312   4.808  1.9507  0.9349  0.7649
  176MOL0     H23200   9.243   1.053   4.780 -0.1829  1.9187 -1.4900
  176MOL0     H23201   9.323   1.059   4.944 -1.3269  3.5492  3.1919
  176MOL0     H23202   9.493   1.217   4.813  1.2535  0.0261 -2.3563
  176MOL0     H23203   9.409   1.180   4.675  1.7191 -1.7036 -0.3522
  176MOL0     H23204   9.574   0.990   4.838 -0.0989  1.2267  0.6233
  176MOL0     H23205   9.452   0.940   4.710 -2.0131  1.5190 -0.0184
  176MOL0     H23206   9.686   1.134   4.650 -1.0071  1.7273 -1.7142
  176MOL0     H23207   9.588   1.034   4.540  0.3792  0.8452 -0.6589
  176MOL0     H23208   9.709   0.840   4.624  0.2401  0.4635 -1.1467
  176MOL0     H23209   9.792   0.937   4.744  1.4318 -0.5840  0.3052
  176MOL0     H23210   9.808   0.987   4.442 -0.9333 -1.4856 -0.4848
  176MOL0     H23211   9.920   1.060   4.562  1.0337 -1.4708 -1.1426
  176MOL0     H23212   9.889   0.753   4.508  0.3031 -0.9998  3.4500
  176MOL0     H23213  10.014   0.824   4.603  2.2690  0.5914 -0.7908
  176MOL0     H23214   8.868   1.155   4.840 -2.7794  0.5455 -1.5772
  176MOL0     H23215   8.713   1.293   4.702  0.9527 -2.2715 -1.6739
  176MOL0     H23216   8.487   1.791   4.802 -2.0451 -0.9652  0.2354
  176MOL0     H23217   8.295   1.900   4.699 -1.3128 -0.4140  0.0992
  176MOL0     H23218   7.696   2.485   4.618  0.9781  0.1474 -0.8050
  176MOL0     H23219   7.829   2.554   4.410 -1.9290 -0.7317 -0.8299
  176MOL0     H23220   7.608   2.689   3.911 -0.6965  3.8713 -1.7583
  176MOL0     H23221   7.744   2.643   3.702  0.2993  0.7523 -0.9905
  176MOL0     H23222   8.128   2.500   3.719 -0.0862  0.0588  0.8647
  176MOL0     H23223   8.195   2.656   3.755 -1.4065  2.6244 -0.6466
  176MOL0     H23224   8.267   2.557   3.533 -0.5104 -1.4868  0.6372
  176MOL0     H23225   8.097   2.551   3.490  0.3890 -1.3121  0.4438
  176MOL0     H23226   8.162   2.817   3.587 -2.8061 -1.0136  1.1479
  176MOL0     H23227   8.093   2.790   3.435  1.1964  2.0476  0.7600
  176MOL0     H23228   8.388   2.759   3.478  0.2659 -0.3984 -1.3589
  176MOL0     H23229   8.311   2.713   3.335  2.3516  1.7744 -1.0013
  176MOL0     H23230   8.277   3.127   3.293 -2.6766 -0.4126 -0.5543
  176MOL0     H23231   8.103   2.733   3.933  0.1850  0.6643  2.0136
  176MOL0     H23232   7.968   2.760   4.129  2.4809 -1.2604 -1.4602
  177MOL0     O23233   4.518   3.456   0.393 -0.2124  0.0914 -0.3015
  177MOL0     C23234   4.506   3.556   0.461 -0.3940 -0.5737 -0.3048
  177MOL0     O23235   4.402   3.640   0.462 -0.2218 -0.3251  0.0657
  177MOL0     C23236   4.299   3.629   0.369  0.8556 -0.6929  0.6352
  177MOL0     C23237   4.267   3.520   0.280 -0.3721 -0.2676  0.0868
  177MOL0     C23238   4.181   3.546   0.179 -0.3430  0.7453 -0.3444
  177MOL0     C23239   4.129   3.673   0.162 -0.0735 -0.1326  0.4157
  177MOL0     O23240   4.048   3.708   0.056 -0.3735 -0.6875 -0.2071
  177MOL0     C23241   3.962   3.605   0.009  0.0464 -0.2476 -0.4449
  177MOL0     C23242   3.860   3.655  -0.088  0.2925 -0.7017 -0.4602
  177MOL0     C23243   3.761   3.744  -0.001  0.4148  0.1147  0.1218
  177MOL0     C23244   3.674   3.830  -0.089 -0.7649 -0.5948  0.3599
  177MOL0     C23245   3.552   3.885  -0.036  0.5928  0.2668  1.6392
  177MOL0     C23246   3.479   3.954  -0.154  0.2255  0.0800 -0.6390
  177MOL0     C23247   3.376   4.067  -0.117 -0.7190 -0.0471  0.3418
  177MOL0     C23248   3.456   4.191  -0.070  0.0392  0.2773  0.2405
  177MOL0     N23249   3.365   4.301  -0.033  0.1305  0.6932  0.3008
  177MOL0     C23250   3.361   4.372   0.084 -0.2084 -0.0116  0.3003
  177MOL0     C23251   3.273   4.474   0.047 -0.6540 -0.6143 -0.7133
  177MOL0     C23252   3.242   4.587   0.148  0.9018  0.8067  0.2303
  177MOL0     C23253   3.096   4.620   0.148 -0.2809 -0.3769 -0.5848
  177MOL0     C23254   3.001   4.501   0.195 -0.8173 -0.5429 -0.0705
  177MOL0     C23255   2.981   4.504   0.349  0.4198  0.0279  0.3910
  177MOL0     O23256   2.923   4.378   0.390 -0.4265  0.8522 -0.3177
  177MOL0     C23257   2.788   4.382   0.421 -0.2112 -0.6159  0.3028
  177MOL0     C23258   2.750   4.446   0.538  0.4088 -0.4864  0.3596
  177MOL0     C23259   2.614   4.455   0.567  0.2872 -0.8163 -0.0737
  177MOL0     C23260   2.518   4.408   0.477  1.0090 -0.2067  0.9332
  177MOL0     C23261   2.378   4.442   0.504  0.2782 -0.6195 -0.3490
  177MOL0     O23262   2.342   4.480   0.629  0.6447 -0.1840 -0.1594
  177MOL0     C23263   2.210   4.464   0.660  0.1672  0.0428 -0.2484
  177MOL0     C23264   2.151   4.341   0.675 -0.0343  0.1166 -0.2777
  177MOL0     C23265   2.016   4.325   0.716 -1.4371 -1.5414  0.2123
  177MOL0     C23266   1.940   4.444   0.735 -0.0942  0.5356 -0.5875
  177MOL0     O23267   1.807   4.449   0.772 -0.2517 -0.2586 -0.5593
  177MOL0     C23268   1.785   4.419   0.902 -0.6680  0.1488 -1.0802
  177MOL0     C23269   1.849   4.508   1.005  0.1131  1.3758 -0.3078
  177MOL0     C23270   1.756   4.625   1.014  0.0099  0.1721  0.3419
  177MOL0     C23271   1.826   4.759   1.078  0.4762  0.1416  0.3710
  177MOL0     C23272   1.846   4.728   1.234  0.4843 -0.4534 -0.2650
  177MOL0     C23273   1.897   4.862   1.295  0.0749 -0.5172 -0.7789
  177MOL0     C23274   1.918   4.861   1.446  0.2809  1.1986  0.1501
  177MOL0     C23275   1.795   4.830   1.535  0.3786  0.0387  0.2120
  177MOL0    Cl23276   1.862   4.835   1.696  0.0308  0.2846  0.7643
  177MOL0     C23277   1.997   4.567   0.722 -0.1197 -0.5141 -0.3403
  177MOL0     C23278   2.130   4.576   0.685 -0.0710  0.0914 -0.3474
  177MOL0     O23279   2.299   4.424   0.409  0.3830 -0.7281  0.2172
  177MOL0     C23280   2.560   4.333   0.361  0.1868  0.4162 -0.8669
  177MOL0     C23281   2.695   4.319   0.335 -0.1836 -0.1564 -0.0052
  177MOL0     N23282   3.221   4.455  -0.078 -0.3318  0.2972  0.5692
  177MOL0     N23283   3.280   4.359  -0.126  0.4524 -0.0630  1.1074
  177MOL0     C23284   4.149   3.778   0.249 -0.4054  0.8031  0.0534
  177MOL0     C23285   4.223   3.745   0.360  0.1572  0.2043  0.1608
  177MOL0     C23286   4.611   3.589   0.561 -0.3372  0.3369 -0.1609
  177MOL0     C23287   4.606   3.703   0.637  0.3455 -0.4339  0.0493
  177MOL0     C23288   4.716   3.737   0.715  0.2011  0.3402 -0.5663
  177MOL0     C23289   4.824   3.654   0.724 -0.5972 -1.0324 -0.6976
  177MOL0     O23290   4.912   3.693   0.827 -1.1518  0.2280  0.1734
  177MOL0     C23291   4.982   3.596   0.913 -0.1485 -1.0740 -0.3899
  177MOL0     C23292   4.898   3.534   1.018 -0.0628  0.5219  1.1605
  177MOL0     C23293   4.972   3.426   1.104 -0.3779 -0.5336 -0.6112
  177MOL0     C23294   4.863   3.376   1.206 -1.0716  0.1302  0.0350
  177MOL0     C23295   4.913   3.267   1.288 -0.1421  0.1617 -0.4135
  177MOL0     C23296   4.956   3.181   1.364 -0.0396 -0.9537 -0.3529
  177MOL0     C23297   4.832   3.536   0.652 -0.2368 -0.3797 -0.3187
  177MOL0     C23298   4.725   3.503   0.573  0.7608  0.2187 -0.1073
  177MOL0     H23299   4.314   3.422   0.284  2.2137  0.9371  1.1734
  177MOL0     H23300   4.155   3.462   0.114 -1.6470  2.3328 -1.9632
  177MOL0     H23301   3.918   3.563   0.100  0.0020  1.9923  0.6366
  177MOL0     H23302   4.020   3.529  -0.043  2.0598  1.2263 -0.4625
  177MOL0     H23303   3.801   3.575  -0.135  0.4110 -1.0495 -0.0304
  177MOL0     H23304   3.906   3.719  -0.163 -3.3675 -0.7997 -3.0359
  177MOL0     H23305   3.813   3.830   0.043  1.4786  1.9056 -4.0712
  177MOL0     H23306   3.708   3.685   0.073  1.9109 -1.6151 -0.1160
  177MOL0     H23307   3.729   3.916  -0.128 -1.3455  0.4805  1.7956
  177MOL0     H23308   3.650   3.763  -0.172  3.1736 -1.0645 -0.5589
  177MOL0     H23309   3.568   3.965   0.036  1.4331  3.7707 -2.0848
  177MOL0     H23310   3.487   3.808   0.007 -0.9400 -0.0497 -1.0078
  177MOL0     H23311   3.427   3.881  -0.217 -2.4343  1.6647 -0.4388
  177MOL0     H23312   3.545   4.008  -0.221 -0.4441  1.1765 -0.4477
  177MOL0     H23313   3.320   4.096  -0.206  0.3364  2.5352  0.4256
  177MOL0     H23314   3.301   4.039  -0.043 -3.2273 -1.3775 -2.5050
  177MOL0     H23315   3.522   4.232  -0.147 -1.6938 -0.5344 -1.8049
  177MOL0     H23316   3.512   4.161   0.018 -0.0038 -0.9858 -0.1328
  177MOL0     H23317   3.416   4.369   0.177 -1.2029  1.2417  0.9563
  177MOL0     H23318   3.301   4.675   0.122 -2.2720  2.6183 -1.5625
  177MOL0     H23319   3.266   4.539   0.243  0.0511 -0.8390 -0.3272
  177MOL0     H23320   3.075   4.666   0.051 -0.9611  1.8955  0.5749
  177MOL0     H23321   3.100   4.700   0.222 -0.9829 -2.2127  1.5835
  177MOL0     H23322   2.903   4.500   0.147 -1.4693 -3.8132  1.0655
  177MOL0     H23323   3.038   4.405   0.158 -2.2719 -1.2394  0.2314
  177MOL0     H23324   2.911   4.586   0.360 -1.4417 -1.2354 -1.3135
  177MOL0     H23325   3.077   4.518   0.401 -0.1783 -3.1111  2.6125
  177MOL0     H23326   2.827   4.499   0.592  1.1110 -0.3056 -0.7754
  177MOL0     H23327   2.587   4.511   0.656  0.2410  0.5219 -0.9127
  177MOL0     H23328   2.203   4.246   0.673 -0.8179 -0.3122 -0.7123
  177MOL0     H23329   1.968   4.232   0.746 -1.0912 -1.5901  0.6305
  177MOL0     H23330   1.816   4.315   0.915 -2.2760 -0.8130 -4.0186
  177MOL0     H23331   1.677   4.418   0.915 -0.9017  1.6232 -2.6075
  177MOL0     H23332   1.954   4.537   0.994 -0.0078  3.5629  3.0599
  177MOL0     H23333   1.844   4.460   1.103 -0.0174  2.3880  0.1814
  177MOL0     H23334   1.670   4.595   1.074  0.6528  0.7445  1.5995
  177MOL0     H23335   1.732   4.659   0.913  1.0030 -2.6691 -0.9607
  177MOL0     H23336   1.920   4.764   1.023  1.0791 -1.6284  1.1699
  177MOL0     H23337   1.775   4.853   1.056 -1.2493 -1.2355 -2.1230
  177MOL0     H23338   1.905   4.636   1.237  0.7048 -0.2797  0.9938
  177MOL0     H23339   1.749   4.705   1.279  0.0532 -1.1892 -1.4984
  177MOL0     H23340   1.832   4.941   1.256 -0.2152  1.0741  2.6008
  177MOL0     H23341   1.995   4.881   1.250 -1.1926 -0.9224 -3.9773
  177MOL0     H23342   1.990   4.779   1.453  0.5470  1.3669 -0.5462
  177MOL0     H23343   1.965   4.950   1.490 -1.8683  3.1347 -1.2057
  177MOL0     H23344   1.758   4.729   1.517 -0.9513  0.4028  0.7113
  177MOL0     H23345   1.722   4.912   1.534  0.1988 -0.1223 -0.8895
  177MOL0     H23346   1.939   4.657   0.742  1.5603  0.5800 -0.2424
  177MOL0     H23347   2.189   4.668   0.684  1.9847 -1.1568  0.2939
  177MOL0     H23348   2.490   4.292   0.290  0.6491 -2.3407  0.1319
  177MOL0     H23349   2.729   4.263   0.248  0.6188 -0.3856  0.4457
  177MOL0     H23350   4.097   3.870   0.222 -1.1104  1.2225  2.5787
  177MOL0     H23351   4.239   3.819   0.438  0.5948  0.1804  0.0943
  177MOL0     H23352   4.515   3.761   0.652  1.0034  0.7596 -0.4292
  177MOL0     H23353   4.705   3.820   0.785  2.2302  0.3871 -0.2581
  177MOL0     H23354   5.062   3.657   0.957  1.1509 -2.6026 -0.5484
  177MOL0     H23355   5.027   3.522   0.846  0.1827 -0.8967 -0.3659
  177MOL0     H23356   4.856   3.617   1.076 -1.3629 -0.1683  1.2282
  177MOL0     H23357   4.811   3.493   0.967  0.9963  1.3652 -1.5107
  177MOL0     H23358   5.062   3.464   1.152  1.4674  2.0043 -5.4128
  177MOL0     H23359   5.008   3.344   1.041 -0.6976 -0.6296 -0.6721
  177MOL0     H23360   4.840   3.465   1.266  2.2169  1.3085 -0.2158
  177MOL0     H23361   4.776   3.352   1.144  0.0483 -2.3741 -0.6935
  177MOL0     H23362   4.992   3.112   1.438 -0.4779  2.0925  3.0438
  177MOL0     H23363   4.914   3.466   0.663  0.1971 -0.0193 -1.1817
  177MOL0     H23364   4.720   3.405   0.526 -4.4641  1.0368 -1.9367
  178MOL0     O23365   3.577   2.342   8.071  0.0933  0.3385 -0.6574
  178MOL0     C23366   3.565   2.451   8.013  0.6374  0.4429  1.2979
  178MOL0     O23367   3.624   2.480   7.895  0.1458 -0.2875 -0.3997
  178MOL0     C23368   3.712   2.406   7.823 -0.0716 -0.3033  0.4208
  178MOL0     C23369   3.699   2.271   7.794 -0.6345 -0.0308 -0.1874
  178MOL0     C23370   3.799   2.192   7.729  0.4625 -0.5059 -0.1512
  178MOL0     C23371   3.914   2.264   7.694  0.6240  0.2220 -0.5972
  178MOL0     O23372   4.006   2.203   7.618  0.5981  0.0669 -0.2205
  178MOL0     C23373   4.104   2.134   7.695 -0.0295  0.4819  0.5192
  178MOL0     C23374   4.243   2.130   7.625 -0.4091 -0.5172  0.0816
  178MOL0     C23375   4.341   2.032   7.710  0.0523  0.5148  0.0929
  178MOL0     C23376   4.483   1.994   7.642  0.1027 -0.6293  0.6882
  178MOL0     C23377   4.591   1.939   7.727 -0.4060  0.9220  0.1656
  178MOL0     C23378   4.690   1.873   7.636  1.1224 -0.5952 -0.8758
  178MOL0     C23379   4.812   1.822   7.703  0.2425 -0.0864  0.1493
  178MOL0     C23380   4.795   1.702   7.791  1.0770 -0.1075  0.2678
  178MOL0     N23381   4.732   1.583   7.723 -0.2465 -0.1992 -0.3255
  178MOL0     C23382   4.608   1.539   7.751  0.4169  1.0826 -0.0102
  178MOL0     C23383   4.582   1.434   7.675 -0.1139 -0.1666 -0.2219
  178MOL0     C23384   4.466   1.341   7.690 -0.4231 -0.4361  0.7549
  178MOL0     C23385   4.358   1.396   7.598 -0.4267  0.0821 -0.8757
  178MOL0     C23386   4.283   1.521   7.667  0.0211 -0.9483 -0.0260
  178MOL0     C23387   4.143   1.541   7.603  0.5821 -0.1800  0.3115
  178MOL0     O23388   4.065   1.418   7.613  0.0883 -0.3392  0.0800
  178MOL0     C23389   3.960   1.423   7.696  0.1059  0.7676  0.2439
  178MOL0     C23390   3.852   1.337   7.655 -0.5346 -0.7839 -0.2546
  178MOL0     C23391   3.748   1.320   7.750 -0.0127  0.1408  0.9198
  178MOL0     C23392   3.741   1.397   7.872 -0.3463 -1.1584  0.5226
  178MOL0     C23393   3.619   1.375   7.963 -0.9217 -0.7631 -0.1545
  178MOL0     O23394   3.538   1.274   7.929  1.0019  0.7814 -0.4778
  178MOL0     C23395   3.429   1.246   8.015  0.1608 -0.0920  0.3157
  178MOL0     C23396   3.435   1.252   8.161  0.6511  0.4946 -0.3788
  178MOL0     C23397   3.318   1.229   8.232  0.2293  1.0353  0.5340
  178MOL0     C23398   3.197   1.193   8.174 -0.8520  0.7258 -0.2251
  178MOL0     O23399   3.095   1.167   8.257 -0.2740 -0.7098  0.0730
  178MOL0     C23400   2.988   1.097   8.196  0.4565 -0.2066  0.9894
  178MOL0     C23401   2.868   1.058   8.292 -0.3901 -0.6048  0.1842
  178MOL0     C23402   2.766   0.987   8.204  0.3268  0.1462  0.6720
  178MOL0     C23403   2.634   0.955   8.282  0.3845  0.2757  0.0036
  178MOL0     C23404   2.552   1.080   8.330 -0.1022 -0.2429 -0.3358
  178MOL0     C23405   2.449   1.032   8.429 -0.4487  0.3619 -0.0343
  178MOL0     C23406   2.382   1.157   8.481  0.4078  0.3391 -0.1305
  178MOL0     C23407   2.290   1.109   8.598 -0.5640  0.1213 -0.1361
  178MOL0    Cl23408   2.199   1.251   8.679 -0.2348  0.2190  0.0922
  178MOL0     C23409   3.188   1.201   8.038  0.1449 -0.1591 -0.5903
  178MOL0     C23410   3.303   1.227   7.957 -0.0400 -0.6332 -0.0258
  178MOL0     O23411   3.613   1.446   8.063  0.4859  0.2617 -0.4613
  178MOL0     C23412   3.851   1.470   7.899 -0.2604  0.1679 -0.9696
  178MOL0     C23413   3.960   1.489   7.821 -0.3229 -0.4190  0.3559
  178MOL0     N23414   4.686   1.427   7.581  0.3240 -0.1983  0.0912
  178MOL0     N23415   4.773   1.522   7.604  1.1750 -0.1382  0.4435
  178MOL0     C23416   3.930   2.405   7.714  0.9951 -0.1561  0.3869
  178MOL0     C23417   3.825   2.477   7.775  0.3199  0.1436  0.7340
  178MOL0     C23418   3.469   2.562   8.071  0.9210  0.1138  0.5147
  178MOL0     C23419   3.419   2.667   7.990 -0.0531 -0.0176 -0.0920
  178MOL0     C23420   3.313   2.747   8.037 -0.3958 -0.3918  0.0619
  178MOL0     C23421   3.245   2.711   8.161 -0.4315  0.0187 -1.0526
  178MOL0     O23422   3.149   2.784   8.225 -1.0618 -0.9552  0.2794
  178MOL0     C23423   3.106   2.904   8.158  0.6484 -0.5218  0.8300
  178MOL0     C23424   3.036   2.989   8.255 -0.7575 -0.4394  0.3853
  178MOL0     C23425   2.944   3.091   8.184 -0.6640  0.2761 -0.1839
  178MOL0     C23426   2.887   3.201   8.281 -0.5748 -0.5557 -0.0803
  178MOL0     C23427   2.765   3.155   8.350 -0.1543  1.0681 -0.0858
  178MOL0     C23428   2.671   3.111   8.418 -0.6519 -0.6209 -0.0791
  178MOL0     C23429   3.297   2.605   8.229  0.8468 -0.9904  0.0712
  178MOL0     C23430   3.407   2.529   8.190  0.0172  0.8964  0.1413
  178MOL0     H23431   3.619   2.214   7.840 -1.6329 -0.1546 -1.9694
  178MOL0     H23432   3.783   2.085   7.721 -4.0853  0.0862 -2.7580
  178MOL0     H23433   4.069   2.033   7.716 -0.8464  0.7662  0.5497
  178MOL0     H23434   4.127   2.191   7.786 -0.8865  0.7915  0.5512
  178MOL0     H23435   4.284   2.231   7.624 -0.2217 -0.5907 -1.1681
  178MOL0     H23436   4.238   2.084   7.526 -0.2803 -1.3173  0.4376
  178MOL0     H23437   4.294   1.936   7.733  2.9659 -0.6428  1.8369
  178MOL0     H23438   4.348   2.071   7.812 -3.7137 -2.1370  1.5977
  178MOL0     H23439   4.452   1.940   7.552  0.5058  1.3497 -0.6990
  178MOL0     H23440   4.525   2.087   7.601 -0.6665 -1.2963 -1.7708
  178MOL0     H23441   4.549   1.881   7.810  2.2803  3.4730  3.5988
  178MOL0     H23442   4.632   2.027   7.777 -3.4961  0.4074  4.1120
  178MOL0     H23443   4.727   1.948   7.566  2.3131 -0.5339 -0.2051
  178MOL0     H23444   4.643   1.788   7.586 -3.0329 -0.1599  1.8026
  178MOL0     H23445   4.878   1.794   7.620  1.6276  0.5754  0.9867
  178MOL0     H23446   4.871   1.898   7.754  1.4058 -0.6317 -0.3506
  178MOL0     H23447   4.735   1.737   7.876  2.1656  2.5424  0.0290
  178MOL0     H23448   4.891   1.671   7.834 -0.7089 -1.4414  3.7243
  178MOL0     H23449   4.531   1.576   7.818 -1.2575 -1.6160 -0.2857
  178MOL0     H23450   4.438   1.350   7.796 -1.2873  1.9245  0.3707
  178MOL0     H23451   4.492   1.236   7.673  0.5695 -0.0870  0.0364
  178MOL0     H23452   4.283   1.320   7.577 -0.5724  0.2174 -0.8499
  178MOL0     H23453   4.412   1.414   7.505  2.8268 -1.2110  0.5954
  178MOL0     H23454   4.287   1.498   7.773  2.2405 -0.0825  0.1334
  178MOL0     H23455   4.348   1.608   7.653 -0.6659 -0.2916  0.7576
  178MOL0     H23456   4.155   1.575   7.500 -0.7232  0.8087  0.4742
  178MOL0     H23457   4.097   1.629   7.647  2.0630  0.4932  0.5967
  178MOL0     H23458   3.848   1.280   7.563 -0.0872 -4.1877  1.6778
  178MOL0     H23459   3.675   1.248   7.716  0.5079  0.0822 -0.0980
  178MOL0     H23460   3.526   1.284   8.211  1.2213 -1.1590 -0.3019
  178MOL0     H23461   3.328   1.239   8.339  0.9054  2.7209  0.3425
  178MOL0     H23462   3.026   1.001   8.161 -1.8786 -0.1764 -1.9621
  178MOL0     H23463   2.950   1.166   8.120  1.6901 -0.1345  0.4135
  178MOL0     H23464   2.842   1.158   8.326  1.2760 -0.3243  0.7570
  178MOL0     H23465   2.903   1.004   8.380  3.5843  1.8100  0.3323
  178MOL0     H23466   2.820   0.902   8.160  2.3548  2.0786 -0.8198
  178MOL0     H23467   2.742   1.051   8.119  1.9780 -2.2046 -1.7552
  178MOL0     H23468   2.570   0.897   8.215 -0.5073 -0.9673  1.8572
  178MOL0     H23469   2.657   0.894   8.369  1.5035  0.3586 -0.2215
  178MOL0     H23470   2.501   1.115   8.239 -0.0361  0.7543 -0.0079
  178MOL0     H23471   2.622   1.159   8.357 -0.2413  0.2803 -1.4197
  178MOL0     H23472   2.502   0.983   8.511  1.6269 -1.0783 -2.0908
  178MOL0     H23473   2.378   0.962   8.382 -4.9478  4.3384  0.0613
  178MOL0     H23474   2.457   1.231   8.512  0.4299 -0.2290  1.2367
  178MOL0     H23475   2.319   1.203   8.405  0.7077  0.6930 -0.1658
  178MOL0     H23476   2.347   1.036   8.656  1.5251 -1.1882 -3.5438
  178MOL0     H23477   2.214   1.047   8.550 -0.5382 -0.3973  0.4738
  178MOL0     H23478   3.102   1.196   7.972 -1.1385 -1.0389  1.0889
  178MOL0     H23479   3.296   1.236   7.849  0.3740 -0.8626 -0.0735
  178MOL0     H23480   3.868   1.513   7.997  1.0231 -1.2253 -0.5360
  178MOL0     H23481   4.042   1.544   7.865 -0.2853  0.0783 -0.3182
  178MOL0     H23482   4.022   2.456   7.686  1.2755  2.2334  4.7289
  178MOL0     H23483   3.832   2.583   7.797  3.9272  0.5066 -1.2497
  178MOL0     H23484   3.459   2.705   7.896  1.1552 -1.1101 -0.0388
  178MOL0     H23485   3.284   2.833   7.978 -1.3311 -1.7263 -1.4985
  178MOL0     H23486   3.029   2.877   8.085 -0.1075  1.7671  0.6997
  178MOL0     H23487   3.183   2.969   8.114 -1.0525  0.6399 -0.5842
  178MOL0     H23488   2.975   2.924   8.319 -0.9411 -1.7604 -1.0738
  178MOL0     H23489   3.105   3.054   8.309  0.5597  0.6152 -2.4097
  178MOL0     H23490   2.868   3.039   8.124  1.7627 -0.9442 -2.4066
  178MOL0     H23491   3.015   3.145   8.121 -1.1781  2.8440  1.2754
  178MOL0     H23492   2.960   3.232   8.357  0.4754  1.0209 -1.6537
  178MOL0     H23493   2.867   3.293   8.227  1.0682 -0.1568 -0.0604
  178MOL0     H23494   2.599   3.066   8.482  0.6129 -3.0792 -0.2568
  178MOL0     H23495   3.236   2.577   8.314 -0.4063 -2.2050 -1.1810
  178MOL0     H23496   3.421   2.436   8.244 -4.4121 -2.0125 -3.0246
  179MOL0     O23497  11.128   6.662   1.264 -0.0181 -1.0376  0.0621
  179MOL0     C23498  11.139   6.764   1.186  0.1143 -0.0793  0.6094
  179MOL0     O23499  11.102   6.892   1.219  0.6790 -0.6532  0.0550
  179MOL0     C23500  11.066   6.924   1.346  0.6884  0.0854 -0.4801
  179MOL0     C23501  11.144   6.901   1.459  0.1388  0.3332 -0.8330
  179MOL0     C23502  11.103   6.931   1.592 -0.6108 -0.4878 -0.7882
  179MOL0     C23503  10.984   7.000   1.615 -0.3897  0.5574  0.3213
  179MOL0     O23504  10.954   7.043   1.745  0.0133 -0.3459  0.2352
  179MOL0     C23505  10.829   7.115   1.766  0.3294 -0.8202  0.2197
  179MOL0     C23506  10.826   7.152   1.918 -0.0663  0.0230  0.0083
  179MOL0     C23507  10.685   7.175   1.958  0.2852  1.0988  0.0692
  179MOL0     C23508  10.682   7.198   2.103  0.2353  0.4078  0.4231
  179MOL0     C23509  10.533   7.208   2.163 -0.4310 -0.4298  0.2529
  179MOL0     C23510  10.446   7.081   2.138  0.0057 -0.1577  0.3254
  179MOL0     C23511  10.312   7.064   2.206  0.8327  0.1407 -0.7258
  179MOL0     C23512  10.232   6.943   2.136  1.1006 -0.6773 -0.2166
  179MOL0     N23513  10.114   6.901   2.206 -0.4238 -1.5313  0.1336
  179MOL0     C23514   9.986   6.937   2.171 -0.4571  0.8717  0.2261
  179MOL0     C23515   9.903   6.881   2.257 -0.5550  0.3675  0.4064
  179MOL0     C23516   9.753   6.889   2.248 -0.0845 -0.6939 -0.1806
  179MOL0     C23517   9.702   6.843   2.384  0.4075 -0.1315  0.0386
  179MOL0     C23518   9.555   6.835   2.395  0.1703 -0.6992 -0.9810
  179MOL0     C23519   9.500   6.724   2.302 -1.0085  0.4558 -0.2395
  179MOL0     O23520   9.369   6.745   2.264 -0.5946  0.6504  0.7599
  179MOL0     C23521   9.262   6.721   2.341 -1.4794  0.2189  0.7107
  179MOL0     C23522   9.139   6.715   2.286  0.0393 -0.2572 -0.1621
  179MOL0     C23523   9.034   6.648   2.343 -0.2476  0.0580 -0.3705
  179MOL0     C23524   9.037   6.609   2.472  0.0375  0.6535 -1.0002
  179MOL0     C23525   8.932   6.546   2.552 -0.0027  0.4262  0.3900
  179MOL0     O23526   8.810   6.573   2.500  0.7968  0.7037 -0.2918
  179MOL0     C23527   8.694   6.559   2.571  0.2481  0.1850 -0.0349
  179MOL0     C23528   8.651   6.660   2.653  1.4932  0.4205 -0.0293
  179MOL0     C23529   8.524   6.632   2.726  0.0068 -0.6830 -0.6101
  179MOL0     C23530   8.444   6.521   2.700 -0.7783  0.1648 -0.2427
  179MOL0     O23531   8.325   6.511   2.766  0.7633  0.7724 -0.0402
  179MOL0     C23532   8.223   6.465   2.676 -0.3058  0.7926 -0.2531
  179MOL0     C23533   8.074   6.478   2.732 -0.7134 -0.7446  0.0058
  179MOL0     C23534   7.972   6.393   2.663 -0.2303 -0.9034  0.2839
  179MOL0     C23535   7.832   6.412   2.718  0.6355  0.0872  0.3217
  179MOL0     C23536   7.726   6.349   2.615 -0.2819 -0.0681  0.8399
  179MOL0     C23537   7.579   6.372   2.649  0.1662 -0.6588  0.2180
  179MOL0     C23538   7.497   6.249   2.601 -0.8512 -0.0253 -1.4040
  179MOL0     C23539   7.499   6.218   2.450 -0.2411 -0.0891  0.1638
  179MOL0    Cl23540   7.380   6.097   2.409  0.1027  0.2415  0.0005
  179MOL0     C23541   8.489   6.421   2.605 -0.0619 -0.6886  0.1283
  179MOL0     C23542   8.614   6.451   2.541  0.5798 -0.3885 -0.0799
  179MOL0     O23543   8.951   6.471   2.642  0.1141  0.1152  0.3471
  179MOL0     C23544   9.162   6.611   2.534 -0.4396 -0.4016  0.4485
  179MOL0     C23545   9.274   6.674   2.475 -1.4185  0.1554  0.5084
  179MOL0     N23546   9.977   6.810   2.354  0.0473  0.2793  0.1089
  179MOL0     N23547  10.103   6.814   2.311  0.4776  0.5085  0.7353
  179MOL0     C23548  10.901   7.024   1.498  0.4298  0.5121  0.1417
  179MOL0     C23549  10.942   6.981   1.373 -0.3824 -0.1191 -0.0244
  179MOL0     C23550  11.178   6.727   1.043 -0.9421 -0.4042 -0.0068
  179MOL0     C23551  11.149   6.816   0.937  0.4940 -0.4129  0.4193
  179MOL0     C23552  11.190   6.791   0.809  0.4018  0.5194 -0.5385
  179MOL0     C23553  11.269   6.682   0.774 -0.1609 -0.6518  0.4413
  179MOL0     O23554  11.329   6.665   0.652 -0.0421 -0.2809  0.5000
  179MOL0     C23555  11.341   6.778   0.563  0.3016  0.1547 -0.8311
  179MOL0     C23556  11.449   6.768   0.450  0.9168 -0.8683  0.0421
  179MOL0     C23557  11.584   6.810   0.514 -0.1972 -0.6025 -0.4817
  179MOL0     C23558  11.700   6.771   0.424 -0.0785  1.1692  0.1831
  179MOL0     C23559  11.831   6.818   0.471 -0.2221  0.7399  0.4161
  179MOL0     C23560  11.939   6.837   0.509 -0.0195  0.1118 -0.2828
  179MOL0     C23561  11.298   6.589   0.877 -0.3094  0.1966 -0.3301
  179MOL0     C23562  11.255   6.616   1.009  0.1514  0.9141 -0.5937
  179MOL0     H23563  11.241   6.861   1.434  1.2741  4.0245 -3.2156
  179MOL0     H23564  11.183   6.907   1.662 -0.5097  0.1196 -0.6848
  179MOL0     H23565  10.747   7.051   1.734  0.9220 -1.0597 -0.8499
  179MOL0     H23566  10.830   7.214   1.719  3.1926 -0.8528  0.0083
  179MOL0     H23567  10.883   7.246   1.910 -1.5505  0.9123 -0.4235
  179MOL0     H23568  10.872   7.068   1.970  0.5787  0.3766  0.0285
  179MOL0     H23569  10.635   7.082   1.929 -0.3048  1.7556 -1.0868
  179MOL0     H23570  10.632   7.253   1.902  0.3253  1.6841  0.8361
  179MOL0     H23571  10.732   7.123   2.165 -1.4813  0.2840  1.7574
  179MOL0     H23572  10.725   7.298   2.115  2.0325 -0.2732 -0.0714
  179MOL0     H23573  10.482   7.288   2.108  1.4972  2.9859  3.0198
  179MOL0     H23574  10.539   7.242   2.267  2.2217 -1.8702  0.6444
  179MOL0     H23575  10.508   7.006   2.189 -0.7136  0.5151  2.2702
  179MOL0     H23576  10.435   7.068   2.030  0.3000 -1.2010  0.4049
  179MOL0     H23577  10.324   7.064   2.315  1.8580  0.1830 -0.8355
  179MOL0     H23578  10.250   7.150   2.180  0.7377  1.0645  2.1402
  179MOL0     H23579  10.300   6.857   2.131  0.5754 -1.7285  5.0172
  179MOL0     H23580  10.204   6.974   2.035 -1.9192  0.1707  0.7699
  179MOL0     H23581   9.944   6.989   2.085 -5.1122  0.1903  1.7581
  179MOL0     H23582   9.718   6.821   2.170  0.9863 -1.9386  0.3950
  179MOL0     H23583   9.725   6.992   2.225  0.2657 -0.7145 -0.7263
  179MOL0     H23584   9.735   6.910   2.464  0.5919 -1.8634  1.4568
  179MOL0     H23585   9.727   6.741   2.413 -4.2913 -1.3460  0.4850
  179MOL0     H23586   9.536   6.807   2.499  4.1976  2.1681  0.7427
  179MOL0     H23587   9.501   6.926   2.369 -0.9317 -1.3943 -1.2221
  179MOL0     H23588   9.515   6.625   2.345  1.1905  0.5006 -0.7690
  179MOL0     H23589   9.552   6.721   2.205 -2.7955  2.2988 -1.3473
  179MOL0     H23590   9.125   6.750   2.185  2.4835 -0.4752 -0.6363
  179MOL0     H23591   8.944   6.651   2.283  0.3650  1.5163 -1.2973
  179MOL0     H23592   8.709   6.747   2.682  0.1536  2.0272 -1.9677
  179MOL0     H23593   8.483   6.691   2.807  2.3090  2.0255 -1.2220
  179MOL0     H23594   8.239   6.360   2.649 -0.7899  0.6586 -0.0415
  179MOL0     H23595   8.229   6.519   2.581 -0.3851  0.2232 -0.5876
  179MOL0     H23596   8.055   6.586   2.726  1.3299  0.0727  4.3911
  179MOL0     H23597   8.085   6.453   2.838 -3.7075 -1.7436  0.1716
  179MOL0     H23598   8.007   6.290   2.672 -0.0680 -1.0680 -1.7875
  179MOL0     H23599   7.974   6.419   2.557  0.3891  3.1341  1.1068
  179MOL0     H23600   7.829   6.364   2.817  0.7643 -2.2367 -0.7383
  179MOL0     H23601   7.805   6.516   2.737 -3.0975 -0.8114  0.6769
  179MOL0     H23602   7.749   6.242   2.621 -0.0381 -0.0336  0.5421
  179MOL0     H23603   7.742   6.380   2.511  2.3918 -0.5897  1.0216
  179MOL0     H23604   7.544   6.464   2.601  2.6716  0.3151  0.1604
  179MOL0     H23605   7.547   6.381   2.754 -1.2440 -0.8896 -0.1627
  179MOL0     H23606   7.521   6.152   2.646 -3.1570 -1.0201 -2.1048
  179MOL0     H23607   7.392   6.270   2.626  0.0658  2.3119  0.7703
  179MOL0     H23608   7.598   6.179   2.423  0.5206  1.0160  1.2378
  179MOL0     H23609   7.478   6.306   2.389 -0.6078 -1.1845 -1.3456
  179MOL0     H23610   8.440   6.327   2.581  2.7287 -2.3433  0.4908
  179MOL0     H23611   8.658   6.381   2.470 -2.3016 -0.2165 -2.2007
  179MOL0     H23612   9.174   6.571   2.634 -1.0937  0.3542  0.8416
  179MOL0     H23613   9.376   6.664   2.509 -0.7849 -0.3573 -1.4098
  179MOL0     H23614  10.805   7.074   1.510  1.3821  2.7210 -0.8776
  179MOL0     H23615  10.874   6.984   1.289 -1.3507 -1.2267  0.6847
  179MOL0     H23616  11.103   6.912   0.957 -3.3436 -2.2302  1.2317
  179MOL0     H23617  11.180   6.875   0.741 -0.8280  0.2901 -0.6668
  179MOL0     H23618  11.352   6.873   0.615 -2.6923  0.2401 -0.1551
  179MOL0     H23619  11.243   6.774   0.514 -0.2299  0.0051  0.2071
  179MOL0     H23620  11.448   6.663   0.417  1.1738  0.1041 -3.5346
  179MOL0     H23621  11.427   6.841   0.371  0.6496  0.6190  1.4560
  179MOL0     H23622  11.611   6.748   0.600 -0.4305 -0.5519 -0.3716
  179MOL0     H23623  11.586   6.917   0.535  0.5107 -0.4965 -1.0602
  179MOL0     H23624  11.706   6.663   0.410 -0.4913  1.2673 -0.8474
  179MOL0     H23625  11.699   6.816   0.324  2.6231 -0.6086 -0.7570
  179MOL0     H23626  12.038   6.852   0.546  1.0054  0.5913 -2.9952
  179MOL0     H23627  11.356   6.500   0.854 -1.4126 -0.7636  0.4754
  179MOL0     H23628  11.285   6.546   1.086 -0.4013  1.0660 -0.2383
  180MOL0     O23629   1.979  10.012   3.948 -0.1767  0.1318  0.7997
  180MOL0     C23630   2.035  10.119   3.995 -0.1662 -0.0700  0.0651
  180MOL0     O23631   1.972  10.224   4.050 -0.0645 -0.0462 -0.6823
  180MOL0     C23632   1.835  10.210   4.071  0.6521 -0.3949 -0.0872
  180MOL0     C23633   1.782  10.141   4.172  0.5538 -0.6938  0.4249
  180MOL0     C23634   1.641  10.135   4.194 -0.4149 -0.1036  0.1330
  180MOL0     C23635   1.554  10.194   4.101 -0.2938 -0.4396 -0.4292
  180MOL0     O23636   1.425  10.150   4.095  0.7922  0.3679 -0.1591
  180MOL0     C23637   1.419  10.032   4.015 -0.8619  0.4828  0.0002
  180MOL0     C23638   1.272  10.000   3.994 -0.7837 -0.3085 -0.2113
  180MOL0     C23639   1.243   9.872   3.908  0.6321 -0.8429 -0.7054
  180MOL0     C23640   1.242   9.889   3.757  0.4556  0.8542  0.2238
  180MOL0     C23641   1.166   9.768   3.688 -0.3371 -0.8073  0.8983
  180MOL0     C23642   1.220   9.632   3.746  0.6780 -0.2754  0.6273
  180MOL0     C23643   1.195   9.512   3.660 -0.3458 -0.4630 -0.0899
  180MOL0     C23644   1.298   9.401   3.687 -0.8513 -0.0372 -0.0399
  180MOL0     N23645   1.281   9.286   3.601 -0.1703  0.1015  0.2776
  180MOL0     C23646   1.239   9.276   3.468  0.5327 -1.5847 -0.8362
  180MOL0     C23647   1.221   9.149   3.446 -0.4586  0.4095  0.7322
  180MOL0     C23648   1.152   9.095   3.320 -0.4647 -1.1125 -0.3754
  180MOL0     C23649   0.999   9.104   3.324 -0.1738 -0.1068  1.4015
  180MOL0     C23650   0.941   9.244   3.308  0.6289  0.2187  0.4373
  180MOL0     C23651   0.793   9.229   3.277  0.5071  0.3310 -0.8166
  180MOL0     O23652   0.733   9.125   3.360  0.2774  0.1151  0.3823
  180MOL0     C23653   0.596   9.101   3.370 -0.4346 -1.0174  0.0618
  180MOL0     C23654   0.541   9.011   3.465 -0.4235 -0.4766 -0.2870
  180MOL0     C23655   0.410   8.976   3.462  0.1119  0.1220  0.2742
  180MOL0     C23656   0.314   9.038   3.385  0.5172  1.0773  0.4540
  180MOL0     C23657   0.172   9.014   3.379  0.4376 -0.2131  0.0565
  180MOL0     O23658   0.099   9.055   3.275 -0.4212 -0.3221  0.0746
  180MOL0     C23659  -0.042   9.043   3.283  0.5746 -0.5943  0.0762
  180MOL0     C23660  -0.126   9.120   3.358 -0.3175 -0.0266  0.3312
  180MOL0     C23661  -0.267   9.110   3.349  0.3850 -0.8195 -0.3615
  180MOL0     C23662  -0.323   9.018   3.261  1.0117 -0.2997 -0.2810
  180MOL0     O23663  -0.450   8.981   3.254  0.1307  0.5184  0.0226
  180MOL0     C23664  -0.556   9.034   3.341  1.1382  0.0985 -0.2986
  180MOL0     C23665  -0.689   9.064   3.275 -0.6094 -0.9576  1.0829
  180MOL0     C23666  -0.712   9.184   3.185  0.1697 -0.6521 -0.5809
  180MOL0     C23667  -0.680   9.313   3.251 -0.3206 -1.5732 -0.8905
  180MOL0     C23668  -0.752   9.428   3.174 -0.1327  0.2564 -0.5263
  180MOL0     C23669  -0.900   9.439   3.207 -0.7249  0.0260  0.1444
  180MOL0     C23670  -0.929   9.501   3.336 -0.8568  0.9655  0.4576
  180MOL0     C23671  -0.896   9.647   3.362  0.2795 -0.1108  0.5317
  180MOL0    Cl23672  -0.937   9.710   3.529 -0.0915 -0.2057 -0.2521
  180MOL0     C23673  -0.241   8.932   3.183  0.8619 -0.3993  0.2470
  180MOL0     C23674  -0.103   8.952   3.188  1.0276 -0.2630 -0.0225
  180MOL0     O23675   0.122   8.957   3.480 -0.1061 -0.1200  0.4960
  180MOL0     C23676   0.365   9.124   3.294  0.2286 -0.2745 -0.3513
  180MOL0     C23677   0.500   9.149   3.279 -0.3296 -1.2201 -0.1720
  180MOL0     N23678   1.259   9.075   3.547  0.6374  0.5540 -0.1503
  180MOL0     N23679   1.288   9.159   3.645 -0.4617  0.8251 -0.3242
  180MOL0     C23680   1.615  10.275   3.999 -0.7934 -1.4503 -0.4426
  180MOL0     C23681   1.752  10.281   3.979  0.3655  0.0436 -0.1410
  180MOL0     C23682   2.183  10.117   3.980 -0.5983  0.2360  0.6390
  180MOL0     C23683   2.261  10.229   4.018 -0.4277 -1.1709  0.1371
  180MOL0     C23684   2.398  10.221   3.993  0.2260  0.5237  0.0534
  180MOL0     C23685   2.472  10.113   3.950 -0.2432  0.0485 -0.1512
  180MOL0     O23686   2.609  10.118   3.954 -0.3510  0.7702 -0.7762
  180MOL0     C23687   2.694  10.003   3.955  0.0477 -0.1322  0.1691
  180MOL0     C23688   2.722   9.964   4.098  0.3148 -0.0227 -0.7521
  180MOL0     C23689   2.763  10.087   4.184  0.1511  0.4914  0.0328
  180MOL0     C23690   2.815  10.028   4.314 -0.2235  0.2242  0.6462
  180MOL0     C23691   2.866  10.136   4.392 -0.0485 -0.7331 -0.2872
  180MOL0     C23692   2.903  10.212   4.480  0.6222  0.4567  0.6791
  180MOL0     C23693   2.395   9.999   3.922  0.1122  0.2856 -1.1048
  180MOL0     C23694   2.251  10.003   3.930 -0.7366  0.3662 -0.5820
  180MOL0     H23695   1.840  10.090   4.249  2.5822  1.4071  0.4132
  180MOL0     H23696   1.602  10.083   4.281  1.5955  0.4476  1.4461
  180MOL0     H23697   1.462   9.944   4.065 -1.4645  0.1459 -0.0746
  180MOL0     H23698   1.459  10.039   3.914 -1.3974 -2.7911 -0.5699
  180MOL0     H23699   1.226  10.091   3.955 -0.5194  0.2933  0.8291
  180MOL0     H23700   1.223   9.986   4.091 -1.3806  0.7371 -0.3491
  180MOL0     H23701   1.145   9.834   3.938 -0.6212  2.9944  0.6388
  180MOL0     H23702   1.318   9.795   3.928  0.6484 -1.5447 -3.1597
  180MOL0     H23703   1.185   9.978   3.730 -2.1719 -0.4754  0.9465
  180MOL0     H23704   1.338   9.907   3.709  1.0965 -2.3769  0.0346
  180MOL0     H23705   1.175   9.773   3.579 -3.6362  1.1800  0.5745
  180MOL0     H23706   1.061   9.784   3.715 -0.5001  0.4728 -0.3638
  180MOL0     H23707   1.178   9.620   3.847  0.7095  0.6161  0.7562
  180MOL0     H23708   1.328   9.634   3.765  1.1881  0.5479 -1.9878
  180MOL0     H23709   1.098   9.470   3.690  0.8072 -3.0671  0.3238
  180MOL0     H23710   1.195   9.540   3.555  1.7539 -1.4589 -0.4097
  180MOL0     H23711   1.281   9.351   3.783  1.3762 -0.8369  0.0071
  180MOL0     H23712   1.398   9.445   3.685 -0.3267 -0.9611  2.1562
  180MOL0     H23713   1.226   9.354   3.394  2.8070 -0.5619 -0.2605
  180MOL0     H23714   1.190   8.994   3.304  0.0231 -0.5044 -3.5478
  180MOL0     H23715   1.183   9.153   3.233  0.5904  1.7897  1.7794
  180MOL0     H23716   0.961   9.057   3.416 -0.7095  0.8759  1.6929
  180MOL0     H23717   0.957   9.066   3.231  0.6250  3.2261 -0.4551
  180MOL0     H23718   0.960   9.293   3.405  2.9668  3.4136 -1.4231
  180MOL0     H23719   0.986   9.299   3.225 -2.2569 -0.4497 -1.7047
  180MOL0     H23720   0.765   9.225   3.171  1.0812 -0.4084 -0.9388
  180MOL0     H23721   0.757   9.326   3.313  2.1446  0.5155  0.4213
  180MOL0     H23722   0.624   8.971   3.523 -1.1798 -2.5534 -0.5794
  180MOL0     H23723   0.386   8.894   3.530 -0.8174 -0.1132 -0.3302
  180MOL0     H23724  -0.083   9.201   3.417  2.0167  0.8351 -2.3674
  180MOL0     H23725  -0.323   9.178   3.412  0.8615 -1.9029  1.3134
  180MOL0     H23726  -0.527   9.126   3.393 -2.8696  2.0059 -1.0937
  180MOL0     H23727  -0.568   8.961   3.422  1.4262  1.4372  1.0079
  180MOL0     H23728  -0.767   9.054   3.351  0.9271 -0.6441  2.7933
  180MOL0     H23729  -0.703   8.974   3.215  1.3872 -0.2336 -0.5820
  180MOL0     H23730  -0.815   9.179   3.150 -0.5637 -1.3386  1.5032
  180MOL0     H23731  -0.638   9.180   3.104  0.5930  1.1837 -0.3379
  180MOL0     H23732  -0.712   9.311   3.356 -1.4853 -1.2219 -1.2320
  180MOL0     H23733  -0.571   9.327   3.243 -0.3721 -1.2641 -1.0308
  180MOL0     H23734  -0.725   9.406   3.070  1.7725  1.2357 -0.2806
  180MOL0     H23735  -0.713   9.529   3.190 -1.7978  0.8755 -0.1241
  180MOL0     H23736  -0.944   9.339   3.204  1.4095 -0.9525 -0.4758
  180MOL0     H23737  -0.944   9.493   3.123 -0.9875 -1.2646 -0.5697
  180MOL0     H23738  -1.037   9.483   3.347 -1.0183 -0.0398 -2.0450
  180MOL0     H23739  -0.887   9.442   3.417 -0.2676 -0.7358 -1.0260
  180MOL0     H23740  -0.948   9.705   3.285 -0.3596 -3.6669 -1.9467
  180MOL0     H23741  -0.787   9.654   3.355  0.5019 -2.6257  0.5148
  180MOL0     H23742  -0.281   8.869   3.105  4.2406 -1.6789 -0.6341
  180MOL0     H23743  -0.043   8.906   3.110  0.9180 -0.3886 -0.0339
  180MOL0     H23744   0.293   9.165   3.223 -1.7322  0.1428  1.7825
  180MOL0     H23745   0.528   9.221   3.203 -1.3253  0.6378  1.1333
  180MOL0     H23746   1.542  10.323   3.934  1.3892 -0.6287 -2.4172
  180MOL0     H23747   1.796  10.329   3.892  1.0099 -1.7038 -0.8366
  180MOL0     H23748   2.218  10.320   4.058  0.2051  0.4390 -2.5660
  180MOL0     H23749   2.446  10.311   4.031  0.4232  1.0659 -1.4150
  180MOL0     H23750   2.791  10.015   3.906 -0.2239 -0.9303 -0.5908
  180MOL0     H23751   2.653   9.917   3.901 -1.4847  0.3023  0.5891
  180MOL0     H23752   2.626   9.927   4.134 -0.3388  1.8504 -0.4519
  180MOL0     H23753   2.791   9.880   4.099 -1.8704 -1.9072 -0.5915
  180MOL0     H23754   2.666  10.132   4.209  1.3405  1.6336  3.0729
  180MOL0     H23755   2.832  10.146   4.123  0.1653 -0.2081 -0.6444
  180MOL0     H23756   2.732   9.981   4.366  0.5309  0.2943  1.9590
  180MOL0     H23757   2.896   9.957   4.297  0.1494  0.2232  2.2313
  180MOL0     H23758   2.912  10.291   4.552 -1.9205  1.6401 -0.1573
  180MOL0     H23759   2.456   9.912   3.902 -1.3625 -1.0659 -0.0268
  180MOL0     H23760   2.205   9.909   3.900  0.8914 -0.4846 -0.4992
  181MOL0     O23761   5.729   0.165   9.533 -0.2347  0.1814 -0.0732
  181MOL0     C23762   5.649   0.069   9.520 -0.4317  0.4552  0.7739
  181MOL0     O23763   5.514   0.080   9.539  0.3448 -0.1608 -0.3832
  181MOL0     C23764   5.462   0.206   9.544  0.6404  1.0807  0.0558
  181MOL0     C23765   5.476   0.309   9.446 -1.4669  0.1098  0.8884
  181MOL0     C23766   5.400   0.431   9.455  0.5188  0.4284  0.0667
  181MOL0     C23767   5.306   0.453   9.553  0.3230 -0.3938  0.1356
  181MOL0     O23768   5.235   0.567   9.565 -0.8956  0.1025 -0.0833
  181MOL0     C23769   5.286   0.690   9.516  0.1638  0.7157  0.3070
  181MOL0     C23770   5.217   0.806   9.593  0.0267  0.3070 -0.6136
  181MOL0     C23771   5.062   0.794   9.600 -1.1081  0.3508  1.0341
  181MOL0     C23772   5.013   0.762   9.452 -0.1173 -0.3267 -0.0392
  181MOL0     C23773   4.886   0.822   9.423  0.8735 -0.5100  0.3045
  181MOL0     C23774   4.889   0.969   9.369  0.2405  0.6476 -0.5255
  181MOL0     C23775   4.746   1.035   9.388 -1.0249  0.3224 -0.9302
  181MOL0     C23776   4.701   1.068   9.528 -0.3667  0.1766  0.2096
  181MOL0     N23777   4.577   1.145   9.529 -0.2051 -0.0901 -0.5912
  181MOL0     C23778   4.570   1.280   9.516  0.0131 -0.1822  0.3112
  181MOL0     C23779   4.472   1.326   9.599  0.0268  0.4138 -0.0931
  181MOL0     C23780   4.442   1.476   9.635 -0.2802 -0.0026 -0.3655
  181MOL0     C23781   4.471   1.558   9.505  1.2882  0.7138  0.0132
  181MOL0     C23782   4.402   1.699   9.525  0.4370  0.0800 -0.8043
  181MOL0     C23783   4.252   1.695   9.494  1.0805 -0.0393 -0.6480
  181MOL0     O23784   4.180   1.814   9.520  0.0143  0.0446  0.9263
  181MOL0     C23785   4.044   1.828   9.472 -0.0594  0.3500 -0.1671
  181MOL0     C23786   3.955   1.719   9.474  0.0660 -0.7754  1.0777
  181MOL0     C23787   3.826   1.741   9.432  0.4756  0.7784 -0.1967
  181MOL0     C23788   3.779   1.860   9.367  0.1754  0.9038  0.7030
  181MOL0     C23789   3.640   1.864   9.324  0.5053 -0.1710 -0.5999
  181MOL0     O23790   3.566   1.747   9.320  0.2844 -0.6750 -0.0779
  181MOL0     C23791   3.428   1.752   9.308 -1.3548 -0.6397 -0.3271
  181MOL0     C23792   3.362   1.690   9.417  0.3437 -0.2304  0.6198
  181MOL0     C23793   3.218   1.695   9.426  0.3407  1.2013  1.7444
  181MOL0     C23794   3.144   1.756   9.326 -1.1336 -1.1991  0.1890
  181MOL0     O23795   3.008   1.768   9.336 -0.2432  0.4642 -0.1380
  181MOL0     C23796   2.933   1.768   9.220 -0.2495  0.2510 -0.1371
  181MOL0     C23797   2.811   1.681   9.267 -0.0464  0.6114 -0.9823
  181MOL0     C23798   2.691   1.708   9.169 -0.5635  0.0550 -0.6587
  181MOL0     C23799   2.621   1.845   9.202 -0.0385  0.0244 -0.0213
  181MOL0     C23800   2.494   1.874   9.122 -0.1114 -0.2105 -0.1042
  181MOL0     C23801   2.397   1.983   9.176 -0.6724  0.0515 -1.4778
  181MOL0     C23802   2.271   1.984   9.100 -0.3983  0.0706 -0.4330
  181MOL0     C23803   2.197   2.119   9.144 -0.0725  0.0308 -0.4774
  181MOL0    Cl23804   2.112   2.131   9.312 -0.3922  0.5214 -0.6452
  181MOL0     C23805   3.221   1.832   9.230  0.6707 -1.0406 -0.5790
  181MOL0     C23806   3.361   1.823   9.225  0.2937 -0.8788  0.4470
  181MOL0     O23807   3.589   1.975   9.307  0.5194 -0.0627  0.1926
  181MOL0     C23808   3.876   1.967   9.366 -0.3221  0.1579  0.5538
  181MOL0     C23809   4.011   1.955   9.416  0.2202 -0.1817  0.8222
  181MOL0     N23810   4.403   1.211   9.635 -0.9495 -0.0413  0.2108
  181MOL0     N23811   4.456   1.108   9.585 -0.8108  0.3017  0.1778
  181MOL0     C23812   5.302   0.359   9.657  0.1211 -0.2482  0.1835
  181MOL0     C23813   5.374   0.233   9.654 -0.2618 -0.2538 -0.5761
  181MOL0     C23814   5.708  -0.056   9.476  1.5501 -0.1560 -0.1131
  181MOL0     C23815   5.840  -0.060   9.436  0.1162 -0.2677 -0.5884
  181MOL0     C23816   5.893  -0.181   9.391 -0.0486  0.1965  0.3229
  181MOL0     C23817   5.820  -0.304   9.425  0.1721  0.2074  0.0094
  181MOL0     O23818   5.890  -0.419   9.401 -0.7470 -0.4088  0.5267
  181MOL0     C23819   5.922  -0.511   9.507 -0.3099 -0.3752  0.3305
  181MOL0     C23820   6.010  -0.622   9.442 -0.2202 -0.1173 -0.0641
  181MOL0     C23821   5.931  -0.697   9.337 -0.3448 -0.0736  0.4098
  181MOL0     C23822   6.002  -0.838   9.318  0.4492  0.7852  0.8711
  181MOL0     C23823   6.126  -0.814   9.237  0.0567  0.2226 -0.4632
  181MOL0     C23824   6.231  -0.798   9.177  0.1415 -0.2915  0.0657
  181MOL0     C23825   5.684  -0.290   9.451  0.6704  0.8850  0.2488
  181MOL0     C23826   5.623  -0.168   9.472 -0.9155 -0.2238 -0.2637
  181MOL0     H23827   5.535   0.299   9.355 -2.1590 -0.2713  0.4717
  181MOL0     H23828   5.404   0.505   9.375 -3.6217 -0.5908 -1.3251
  181MOL0     H23829   5.279   0.694   9.407  1.2480 -1.6900  0.0981
  181MOL0     H23830   5.395   0.691   9.525  0.8306 -0.8895 -4.8907
  181MOL0     H23831   5.240   0.902   9.547  0.5175  0.7128  0.4345
  181MOL0     H23832   5.238   0.808   9.701 -3.3279 -0.6581  0.1797
  181MOL0     H23833   5.032   0.896   9.627  0.1075  1.2989 -0.9826
  181MOL0     H23834   5.032   0.713   9.667  3.1336 -1.8249  0.6872
  181MOL0     H23835   5.094   0.806   9.393 -0.5196  2.2990  1.2056
  181MOL0     H23836   4.996   0.654   9.440 -1.2348  0.0105 -1.7564
  181MOL0     H23837   4.815   0.797   9.502  0.3177 -1.5096 -0.4794
  181MOL0     H23838   4.857   0.761   9.337 -1.0351 -1.8923  1.8478
  181MOL0     H23839   4.917   0.967   9.264 -2.5578  1.5465 -1.3821
  181MOL0     H23840   4.966   1.026   9.421  2.5676  1.1177 -4.1470
  181MOL0     H23841   4.755   1.126   9.328  1.1289  0.8420  0.0912
  181MOL0     H23842   4.673   0.968   9.341 -0.5108 -1.7634  1.1010
  181MOL0     H23843   4.776   1.137   9.568  1.4309 -0.4133 -1.9558
  181MOL0     H23844   4.700   0.977   9.588 -0.2823 -1.1191 -1.6525
  181MOL0     H23845   4.649   1.349   9.488  2.0230 -1.2268  2.9626
  181MOL0     H23846   4.519   1.503   9.709 -0.3625 -0.0523 -0.2621
  181MOL0     H23847   4.340   1.483   9.673  0.4192  0.3432  1.5835
  181MOL0     H23848   4.420   1.516   9.418 -0.3465 -0.4640  1.4686
  181MOL0     H23849   4.577   1.552   9.480  2.1241 -1.3114  3.3967
  181MOL0     H23850   4.409   1.738   9.627 -1.0444  2.2411 -1.4389
  181MOL0     H23851   4.454   1.759   9.450  1.7170  1.0835  0.8076
  181MOL0     H23852   4.201   1.613   9.545 -0.4437  0.9757 -0.4546
  181MOL0     H23853   4.247   1.669   9.387 -1.8528 -0.8624 -0.4196
  181MOL0     H23854   3.978   1.624   9.520 -1.6232 -0.0252  3.7361
  181MOL0     H23855   3.747   1.669   9.452  0.2013  0.8817 -0.9057
  181MOL0     H23856   3.429   1.639   9.485 -1.5447 -5.2166 -0.7959
  181MOL0     H23857   3.160   1.649   9.505 -1.5833  3.2790  1.6373
  181MOL0     H23858   2.978   1.730   9.128 -0.2374  1.7320 -0.7735
  181MOL0     H23859   2.906   1.872   9.199  0.4598  0.6453  0.8201
  181MOL0     H23860   2.786   1.701   9.372  2.8946  1.7560 -0.3898
  181MOL0     H23861   2.850   1.582   9.240 -0.8445  0.0084 -0.0274
  181MOL0     H23862   2.618   1.628   9.179 -1.0405  0.7416  1.9447
  181MOL0     H23863   2.728   1.702   9.066 -0.4053  0.2258 -0.6143
  181MOL0     H23864   2.591   1.830   9.306 -4.4115  4.0073 -0.3937
  181MOL0     H23865   2.697   1.923   9.211  1.3810 -1.5064  2.4549
  181MOL0     H23866   2.436   1.781   9.121  0.5517 -0.6574  1.1025
  181MOL0     H23867   2.525   1.890   9.018 -2.1346 -0.6292 -0.8268
  181MOL0     H23868   2.450   2.079   9.177  1.0541 -0.8571 -0.1532
  181MOL0     H23869   2.378   1.963   9.282  2.2193  1.1939 -0.6464
  181MOL0     H23870   2.296   1.988   8.993  1.5637  0.5884  0.0060
  181MOL0     H23871   2.204   1.901   9.122 -1.4904  1.3882  1.5663
  181MOL0     H23872   2.111   2.119   9.077  0.7999 -1.3325 -1.6519
  181MOL0     H23873   2.260   2.207   9.128  0.1182  0.1159  0.6418
  181MOL0     H23874   3.162   1.878   9.151 -2.2360  0.5705  2.2824
  181MOL0     H23875   3.415   1.867   9.143  0.9421 -1.0190  0.7914
  181MOL0     H23876   3.842   2.065   9.335  0.1434  0.3631  0.6713
  181MOL0     H23877   4.085   2.033   9.402 -1.0733  0.6459 -2.1203
  181MOL0     H23878   5.249   0.385   9.748 -2.4234  2.0100 -1.7937
  181MOL0     H23879   5.370   0.161   9.734  1.3242  0.4398  0.1706
  181MOL0     H23880   5.902   0.029   9.441  1.7816 -1.4304  2.3085
  181MOL0     H23881   5.996  -0.182   9.358  0.4825 -0.8492  1.8708
  181MOL0     H23882   5.826  -0.549   9.543 -0.4567 -0.2684  0.0517
  181MOL0     H23883   5.977  -0.465   9.590  1.1585 -2.3235  0.5247
  181MOL0     H23884   6.096  -0.568   9.401 -2.4472  2.4639 -1.7034
  181MOL0     H23885   6.056  -0.689   9.515 -1.1699 -0.5675  0.1277
  181MOL0     H23886   5.931  -0.640   9.244  1.8327 -1.9173 -0.8281
  181MOL0     H23887   5.827  -0.713   9.365 -0.4470 -1.1097 -0.4782
  181MOL0     H23888   6.033  -0.887   9.410 -0.4955 -2.9928 -0.6212
  181MOL0     H23889   5.954  -0.917   9.259  1.5460  0.0405  0.9623
  181MOL0     H23890   6.312  -0.788   9.107 -1.4668  2.1023 -1.6500
  181MOL0     H23891   5.628  -0.382   9.442  0.4165  1.1439 -1.1393
  181MOL0     H23892   5.516  -0.169   9.487 -1.4463 -0.5802 -3.3236
  182MOL0     O23893  10.705   9.490   8.860 -0.3925  0.0090  0.7006
  182MOL0     C23894  10.660   9.486   8.972  0.0526  0.0601 -0.5590
  182MOL0     O23895  10.723   9.519   9.090 -0.4747  0.1218  0.1364
  182MOL0     C23896  10.864   9.517   9.096 -0.7989 -0.2804 -0.0874
  182MOL0     C23897  10.940   9.609   9.021 -0.2973 -0.5981 -0.2151
  182MOL0     C23898  11.076   9.603   9.025 -0.1267 -0.3134 -0.6742
  182MOL0     C23899  11.140   9.516   9.113 -0.6618  1.4188  0.8035
  182MOL0     O23900  11.276   9.493   9.102  1.1069 -0.3968 -0.2637
  182MOL0     C23901  11.349   9.611   9.071 -0.4393  0.9185  0.5086
  182MOL0     C23902  11.501   9.587   9.073  0.2232 -0.2377 -0.6714
  182MOL0     C23903  11.552   9.531   9.206  0.5474 -0.0512  0.2983
  182MOL0     C23904  11.705   9.545   9.213  0.9003  0.0344 -0.1080
  182MOL0     C23905  11.764   9.512   9.353  0.5169 -0.2279 -0.8288
  182MOL0     C23906  11.722   9.603   9.464 -0.1212  0.1415 -1.0775
  182MOL0     C23907  11.788   9.560   9.597 -1.1011  0.3560  0.1501
  182MOL0     C23908  11.762   9.649   9.718  0.1490 -1.4519 -1.0655
  182MOL0     N23909  11.618   9.657   9.771  0.4216  0.2030 -0.3832
  182MOL0     C23910  11.538   9.764   9.749  1.3400 -0.3179 -0.8886
  182MOL0     C23911  11.418   9.730   9.800 -0.8527  0.4304 -0.0719
  182MOL0     C23912  11.290   9.810   9.784  0.0595 -0.8036  0.2120
  182MOL0     C23913  11.193   9.746   9.684 -0.8304  0.1945  0.6148
  182MOL0     C23914  11.253   9.752   9.539  0.2184  0.1436  1.4150
  182MOL0     C23915  11.139   9.751   9.446  0.2092 -0.2813 -0.5641
  182MOL0     O23916  11.107   9.886   9.403  0.2981 -0.0727 -0.5328
  182MOL0     C23917  10.988   9.912   9.347 -0.0124  0.3676 -0.4022
  182MOL0     C23918  10.965  10.036   9.294 -0.5960  0.1721  0.0192
  182MOL0     C23919  10.840  10.078   9.244  0.5344 -0.3949 -0.2383
  182MOL0     C23920  10.727   9.996   9.236  0.6107 -0.4630 -0.1761
  182MOL0     C23921  10.593  10.045   9.202 -0.6705 -0.2303 -0.0381
  182MOL0     O23922  10.496   9.945   9.210  0.1383  0.2260 -0.0837
  182MOL0     C23923  10.363   9.976   9.190 -0.1072  0.7666 -0.1778
  182MOL0     C23924  10.282   9.871   9.135  0.6640  0.1490 -0.0451
  182MOL0     C23925  10.147   9.904   9.108 -0.5391  1.2881 -0.5341
  182MOL0     C23926  10.091  10.029   9.149  0.1773  0.5476 -0.3764
  182MOL0     O23927   9.960  10.062   9.137  0.0768  0.4256  0.2842
  182MOL0     C23928   9.915  10.030   9.012  1.0460  0.1654  0.0908
  182MOL0     C23929   9.767  10.073   8.996 -0.2786  0.2355  0.9337
  182MOL0     C23930   9.741  10.215   8.943  0.6336 -0.6914  0.2514
  182MOL0     C23931   9.762  10.236   8.788  0.0418 -0.1747 -0.3745
  182MOL0     C23932   9.660  10.162   8.697 -0.1519  0.4688 -0.0172
  182MOL0     C23933   9.709  10.164   8.557 -0.3174  0.5308 -0.0761
  182MOL0     C23934   9.630  10.066   8.474  1.2159  0.1034  0.8149
  182MOL0     C23935   9.692  10.037   8.335  0.3110  0.2563  0.0338
  182MOL0    Cl23936   9.661  10.172   8.228  0.4182  0.2229 -0.2719
  182MOL0     C23937  10.180  10.122   9.205  0.0067  0.0025  0.7955
  182MOL0     C23938  10.308  10.101   9.227  0.4149  0.2504  0.4010
  182MOL0     O23939  10.584  10.162   9.163  0.3207  0.2426 -0.0639
  182MOL0     C23940  10.743   9.861   9.291 -0.5562 -0.4753  0.7670
  182MOL0     C23941  10.872   9.829   9.345  0.3392  0.0836 -0.4328
  182MOL0     N23942  11.425   9.611   9.855 -0.3809  0.0210  0.1548
  182MOL0     N23943  11.552   9.562   9.848 -0.0634 -0.2588 -0.0871
  182MOL0     C23944  11.068   9.427   9.195  0.2946  0.4567 -0.1626
  182MOL0     C23945  10.926   9.429   9.189 -0.5698  0.0725  0.5240
  182MOL0     C23946  10.509   9.484   8.973 -0.5878 -1.0460  0.3412
  182MOL0     C23947  10.427   9.510   8.852 -1.2448  0.1756  0.2432
  182MOL0     C23948  10.287   9.518   8.857 -0.4813  0.2955 -0.4243
  182MOL0     C23949  10.225   9.501   8.981  0.7251 -0.0407  0.4420
  182MOL0     O23950  10.084   9.514   8.967  0.2729 -0.2517  0.3208
  182MOL0     C23951  10.005   9.530   9.087 -0.2155 -0.3802  0.4092
  182MOL0     C23952   9.863   9.568   9.063  0.1905  0.2490 -0.1188
  182MOL0     C23953   9.793   9.494   8.948 -0.2923  0.0917  0.0062
  182MOL0     C23954   9.830   9.545   8.799  0.1429 -0.2599  0.1913
  182MOL0     C23955   9.756   9.476   8.704 -0.6579  0.0652  0.7653
  182MOL0     C23956   9.690   9.414   8.625  0.1821 -1.1487  0.5169
  182MOL0     C23957  10.303   9.485   9.103  0.2355  0.6084  0.2177
  182MOL0     C23958  10.436   9.481   9.103 -0.9694  0.7862 -0.4058
  182MOL0     H23959  10.882   9.675   8.958 -0.2630  1.0304  1.3695
  182MOL0     H23960  11.128   9.669   8.956  1.9011 -1.5266 -0.3968
  182MOL0     H23961  11.330   9.688   9.146  2.6411 -0.9592  3.5267
  182MOL0     H23962  11.317   9.654   8.976 -1.3092 -0.8367 -0.0304
  182MOL0     H23963  11.560   9.673   9.041  2.0090 -0.2597  2.1843
  182MOL0     H23964  11.506   9.519   8.988  0.5506  1.1515 -1.8042
  182MOL0     H23965  11.504   9.435   9.225  0.8584 -0.3983 -0.6018
  182MOL0     H23966  11.508   9.586   9.290  1.1861 -1.9896  1.9869
  182MOL0     H23967  11.753   9.494   9.129 -2.5081 -0.6757 -1.7933
  182MOL0     H23968  11.732   9.651   9.218  0.7288  0.1427 -1.2873
  182MOL0     H23969  11.873   9.523   9.348  0.3569  4.7436  1.3267
  182MOL0     H23970  11.729   9.413   9.383  0.9313  0.9831  4.7503
  182MOL0     H23971  11.614   9.620   9.470  0.4017  4.3342 -0.2995
  182MOL0     H23972  11.764   9.699   9.431  2.8353 -1.6044 -2.8213
  182MOL0     H23973  11.763   9.454   9.611 -0.6570  0.2517  0.1740
  182MOL0     H23974  11.896   9.559   9.581 -1.2269 -0.3357 -0.7509
  182MOL0     H23975  11.788   9.752   9.694 -1.8890 -0.6994 -0.3052
  182MOL0     H23976  11.834   9.608   9.789 -0.6171 -0.9593  0.0328
  182MOL0     H23977  11.557   9.863   9.708 -0.0818  1.1237  1.6425
  182MOL0     H23978  11.297   9.915   9.755  0.0805 -1.4994 -2.5532
  182MOL0     H23979  11.256   9.821   9.887  1.1525  0.5354  0.4615
  182MOL0     H23980  11.099   9.802   9.686  0.4435  2.6721 -1.8499
  182MOL0     H23981  11.189   9.639   9.707  0.1168  0.4488  2.0526
  182MOL0     H23982  11.318   9.838   9.524  0.1181 -0.1202 -0.8387
  182MOL0     H23983  11.304   9.656   9.528 -0.4332  0.0971 -2.8425
  182MOL0     H23984  11.058   9.692   9.490  2.9985 -3.3720  0.8052
  182MOL0     H23985  11.166   9.696   9.355 -1.2938 -2.3840  0.1798
  182MOL0     H23986  11.044  10.107   9.315 -0.9301  0.0151  1.9995
  182MOL0     H23987  10.826  10.185   9.228 -3.0248 -0.0451  3.5658
  182MOL0     H23988  10.318   9.771   9.112  0.5397 -0.0184  0.4659
  182MOL0     H23989  10.086   9.818   9.083  0.0670 -0.0353  2.2104
  182MOL0     H23990   9.913   9.922   8.997 -2.9981 -0.0613  1.0259
  182MOL0     H23991   9.973  10.087   8.939 -2.4384  2.0272 -1.5029
  182MOL0     H23992   9.715  10.047   9.088 -0.6747  0.6672  0.8305
  182MOL0     H23993   9.724  10.003   8.923 -0.7856 -0.0558  1.5039
  182MOL0     H23994   9.789  10.288   9.009  0.3237  0.8739 -1.1775
  182MOL0     H23995   9.633  10.230   8.943  0.6374 -0.2973 -2.0434
  182MOL0     H23996   9.761  10.344   8.768  3.1821 -0.3016 -1.6912
  182MOL0     H23997   9.863  10.203   8.764  1.4521  0.9118  3.3643
  182MOL0     H23998   9.562  10.210   8.701 -0.2680  0.1769  1.3168
  182MOL0     H23999   9.665  10.056   8.722 -2.2438  0.7655  1.9925
  182MOL0     H24000   9.812  10.126   8.564 -2.1424 -4.9621  4.2278
  182MOL0     H24001   9.704  10.267   8.519  1.3339  0.5187 -0.3938
  182MOL0     H24002   9.626   9.973   8.532 -0.4928  0.7787  1.8575
  182MOL0     H24003   9.528  10.097   8.452  0.2202 -4.4111 -2.2397
  182MOL0     H24004   9.649   9.946   8.292  1.6287 -0.0667 -0.6294
  182MOL0     H24005   9.800  10.021   8.339  0.0087 -1.8139  1.0018
  182MOL0     H24006  10.138  10.214   9.245 -0.0987  0.2359  0.1521
  182MOL0     H24007  10.354  10.174   9.292  1.1218  1.0947 -0.9932
  182MOL0     H24008  10.663   9.788   9.288  1.4922 -2.7970  0.0445
  182MOL0     H24009  10.879   9.739   9.406 -0.0751  1.7643  2.2251
  182MOL0     H24010  11.109   9.352   9.263 -3.6179 -1.7141  0.1221
  182MOL0     H24011  10.867   9.352   9.238 -0.4734 -1.8353 -2.1604
  182MOL0     H24012  10.475   9.511   8.754 -1.4159 -1.8937  0.0928
  182MOL0     H24013  10.225   9.535   8.769  0.0009  0.9473 -0.6405
  182MOL0     H24014  10.053   9.598   9.157  1.5814 -0.1485 -0.9671
  182MOL0     H24015  10.006   9.434   9.139 -1.4304 -1.2529 -1.0979
  182MOL0     H24016   9.809   9.541   9.154 -0.6380 -0.1532 -0.7229
  182MOL0     H24017   9.861   9.675   9.039 -2.0192  0.3457  0.3091
  182MOL0     H24018   9.685   9.496   8.963 -0.9055 -1.4860 -3.4148
  182MOL0     H24019   9.826   9.391   8.964  1.6662  0.4824 -1.1478
  182MOL0     H24020   9.815   9.651   8.776  1.0026 -0.3385 -0.8495
  182MOL0     H24021   9.935   9.527   8.773  0.2309  1.7267 -1.0550
  182MOL0     H24022   9.622   9.364   8.560  0.2021 -1.7058  0.9128
  182MOL0     H24023  10.258   9.487   9.201  3.3809  1.5225  1.7689
  182MOL0     H24024  10.478   9.493   9.202 -0.9788  2.8262 -0.6058
  183MOL0     O24025   0.827   5.458   5.197  0.8730  0.3742  0.1868
  183MOL0     C24026   0.872   5.519   5.295 -0.1074 -0.5615  0.2978
  183MOL0     O24027   0.793   5.586   5.395 -0.4399 -0.7137  0.1150
  183MOL0     C24028   0.661   5.613   5.394  0.2277 -0.0422  0.1415
  183MOL0     C24029   0.579   5.609   5.276 -0.4790 -0.7118 -0.5571
  183MOL0     C24030   0.447   5.657   5.277 -0.0026  0.5532  0.4458
  183MOL0     C24031   0.388   5.710   5.394 -0.2536 -0.1597  0.2739
  183MOL0     O24032   0.264   5.760   5.385 -0.3257 -0.1896 -0.0352
  183MOL0     C24033   0.237   5.900   5.408 -0.1038  0.6771 -0.4178
  183MOL0     C24034   0.140   5.918   5.526 -0.5602  0.4287  0.3155
  183MOL0     C24035  -0.003   5.908   5.483 -0.3746 -0.1804 -0.3584
  183MOL0     C24036  -0.065   6.048   5.462  0.2155  0.8246  0.1649
  183MOL0     C24037  -0.213   6.039   5.412  1.2521  0.4798  0.0766
  183MOL0     C24038  -0.291   6.177   5.407 -0.1354 -0.2562 -0.3159
  183MOL0     C24039  -0.294   6.240   5.546  0.4517 -0.4648  1.0665
  183MOL0     C24040  -0.387   6.365   5.556  0.7658 -0.5409 -0.6513
  183MOL0     N24041  -0.521   6.316   5.578  0.4025  1.1658 -0.9584
  183MOL0     C24042  -0.565   6.272   5.698  0.1200 -0.7434  0.0663
  183MOL0     C24043  -0.687   6.220   5.679 -0.3920  0.7228 -0.3006
  183MOL0     C24044  -0.764   6.146   5.774 -0.3220  0.0454  0.8195
  183MOL0     C24045  -0.689   6.103   5.901 -0.4025  0.1609  0.2032
  183MOL0     C24046  -0.770   6.012   5.996  1.4907  0.0150 -0.1923
  183MOL0     C24047  -0.692   5.899   6.066 -0.2004  0.3212  0.2343
  183MOL0     O24048  -0.577   5.969   6.117  0.0009 -0.0716  0.2807
  183MOL0     C24049  -0.477   5.912   6.183 -0.3226  0.6379  0.4663
  183MOL0     C24050  -0.385   5.978   6.260  0.1909 -0.0436 -0.0193
  183MOL0     C24051  -0.276   5.915   6.311 -0.0718 -0.2370 -0.7168
  183MOL0     C24052  -0.254   5.785   6.309  0.5727 -0.3227  0.2563
  183MOL0     C24053  -0.133   5.726   6.378  0.0822  0.6479 -1.3633
  183MOL0     O24054  -0.110   5.588   6.368  0.7147 -0.0803  0.7196
  183MOL0     C24055  -0.010   5.533   6.438  0.4115  0.1374  0.2280
  183MOL0     C24056   0.123   5.595   6.439 -0.0701 -0.2927  0.2222
  183MOL0     C24057   0.224   5.528   6.510 -0.1508  0.5253 -0.6853
  183MOL0     C24058   0.195   5.398   6.574  0.0893 -0.3511  0.1979
  183MOL0     O24059   0.292   5.352   6.651  0.3981  0.9784  0.0283
  183MOL0     C24060   0.411   5.329   6.589  0.1042  1.2719 -0.0203
  183MOL0     C24061   0.482   5.213   6.674 -0.7142 -0.1277  0.2206
  183MOL0     C24062   0.606   5.152   6.596  0.2751  0.1891 -0.3542
  183MOL0     C24063   0.654   5.056   6.696  0.4808  0.4394 -0.1688
  183MOL0     C24064   0.782   4.998   6.643 -0.9888  0.0077 -0.1172
  183MOL0     C24065   0.904   5.088   6.647  0.0506  0.3250  0.3170
  183MOL0     C24066   1.026   5.025   6.580 -0.2772 -0.7562  0.4787
  183MOL0     C24067   1.150   5.114   6.572 -0.3256  0.2747 -1.0041
  183MOL0    Cl24068   1.220   5.165   6.737  0.1829 -0.2563  0.2692
  183MOL0     C24069   0.070   5.353   6.580  0.4093  0.1859  0.3592
  183MOL0     C24070  -0.032   5.426   6.523 -0.4453  1.0214  0.7496
  183MOL0     O24071  -0.077   5.794   6.462 -1.6709  0.2754 -0.6619
  183MOL0     C24072  -0.345   5.706   6.234  0.5257 -0.7481  0.1375
  183MOL0     C24073  -0.454   5.770   6.164  0.0634  0.2687 -0.4058
  183MOL0     N24074  -0.724   6.234   5.548  0.8204 -0.6411  0.3954
  183MOL0     N24075  -0.625   6.297   5.490 -0.1950  0.5861 -0.5453
  183MOL0     C24076   0.470   5.715   5.507  0.1018  0.3140  0.6011
  183MOL0     C24077   0.605   5.668   5.510 -0.0658 -0.3889  0.6018
  183MOL0     C24078   1.015   5.507   5.325 -0.5960  0.9404 -1.0035
  183MOL0     C24079   1.093   5.398   5.279 -0.3485 -0.0884  0.9206
  183MOL0     C24080   1.226   5.379   5.323  0.2628 -0.0187  1.1643
  183MOL0     C24081   1.280   5.461   5.425  0.1724  0.7183  0.2384
  183MOL0     O24082   1.402   5.441   5.487  0.0486 -0.3894 -1.5092
  183MOL0     C24083   1.499   5.354   5.433 -0.3136  0.3776  0.6941
  183MOL0     C24084   1.485   5.216   5.495  0.1448  0.2952 -0.0679
  183MOL0     C24085   1.622   5.143   5.495  0.4809  0.0634 -0.0794
  183MOL0     C24086   1.601   4.991   5.481 -0.3121  0.5568  0.1193
  183MOL0     C24087   1.733   4.938   5.520 -0.1999 -0.1149 -0.5235
  183MOL0     C24088   1.839   4.885   5.545  0.0090  0.1983  0.5926
  183MOL0     C24089   1.202   5.570   5.465  0.7857  0.1012  0.9419
  183MOL0     C24090   1.071   5.590   5.422  0.4511 -1.5675 -0.2569
  183MOL0     H24091   0.625   5.570   5.186  0.9262  2.0535 -1.1737
  183MOL0     H24092   0.387   5.630   5.191 -2.6080 -1.7262  2.7566
  183MOL0     H24093   0.193   5.951   5.321  1.7704  1.3350 -1.0383
  183MOL0     H24094   0.332   5.951   5.430  1.2442 -0.7840 -2.4143
  183MOL0     H24095   0.169   6.014   5.569 -2.1666  1.0284  0.1384
  183MOL0     H24096   0.161   5.832   5.590 -1.0186 -0.8789 -1.2134
  183MOL0     H24097  -0.061   5.861   5.563  0.2196  1.4696  1.0976
  183MOL0     H24098  -0.015   5.849   5.392  1.5543  1.9401 -2.1149
  183MOL0     H24099  -0.061   6.105   5.555 -1.8726  2.2387 -0.5413
  183MOL0     H24100   0.006   6.104   5.400  0.5255 -0.2232 -0.4536
  183MOL0     H24101  -0.276   5.977   5.477 -2.0443  2.1390 -1.2719
  183MOL0     H24102  -0.204   5.999   5.311 -0.2468  0.0759  0.0839
  183MOL0     H24103  -0.392   6.186   5.367  0.6841  2.4624 -2.0682
  183MOL0     H24104  -0.221   6.228   5.339 -0.0596 -2.6497 -2.1634
  183MOL0     H24105  -0.320   6.165   5.621  1.4489 -0.7661  1.1117
  183MOL0     H24106  -0.191   6.263   5.571  0.5420  3.0972 -1.8020
  183MOL0     H24107  -0.379   6.420   5.461  0.0903  0.8120  0.0485
  183MOL0     H24108  -0.346   6.426   5.637  1.7452  2.2378 -3.0517
  183MOL0     H24109  -0.522   6.280   5.798 -3.2858 -0.3200  1.6576
  183MOL0     H24110  -0.811   6.064   5.719 -3.2269  1.6113  0.7707
  183MOL0     H24111  -0.836   6.220   5.809  0.5106  0.9080  0.7779
  183MOL0     H24112  -0.660   6.190   5.962 -1.1777  2.5359 -2.6023
  183MOL0     H24113  -0.601   6.046   5.870 -1.5401 -0.6484 -1.7148
  183MOL0     H24114  -0.813   6.069   6.079  0.9446 -1.2586  0.4250
  183MOL0     H24115  -0.856   5.970   5.943  0.4574 -0.6976  1.9378
  183MOL0     H24116  -0.664   5.823   5.991  0.5329 -1.4009  2.1509
  183MOL0     H24117  -0.740   5.844   6.147 -1.0016 -0.0585 -0.4856
  183MOL0     H24118  -0.401   6.086   6.268  0.1521 -0.0944  0.7060
  183MOL0     H24119  -0.211   5.980   6.369 -0.6176  0.7272 -1.1622
  183MOL0     H24120   0.138   5.696   6.401  2.2277  0.5049  2.8527
  183MOL0     H24121   0.323   5.573   6.514 -0.8945  2.3433 -1.5164
  183MOL0     H24122   0.477   5.416   6.586  1.8476  0.0733  1.2603
  183MOL0     H24123   0.391   5.295   6.487  0.2008 -0.3369  0.4591
  183MOL0     H24124   0.402   5.143   6.702 -1.2918  0.4099 -0.0639
  183MOL0     H24125   0.531   5.259   6.760 -0.5459  1.7048 -0.8163
  183MOL0     H24126   0.674   5.225   6.552  1.0754  0.1157  0.7161
  183MOL0     H24127   0.559   5.088   6.520 -2.3724  1.8611 -0.2811
  183MOL0     H24128   0.672   5.097   6.796  0.1343  2.6693 -0.9648
  183MOL0     H24129   0.580   4.977   6.710 -0.7436  2.0507  3.7879
  183MOL0     H24130   0.772   4.948   6.546  0.4508  0.4462 -0.5259
  183MOL0     H24131   0.798   4.914   6.711 -1.6340  0.7349  0.9566
  183MOL0     H24132   0.937   5.090   6.751  0.0294 -1.9201  0.4180
  183MOL0     H24133   0.897   5.186   6.599  2.4969  0.3654 -0.0963
  183MOL0     H24134   1.047   4.927   6.624  0.4751  0.6241  3.4316
  183MOL0     H24135   1.000   5.012   6.474  0.2653 -1.3414  0.4073
  183MOL0     H24136   1.144   5.204   6.510 -0.3233  0.3376 -0.9130
  183MOL0     H24137   1.221   5.045   6.526  0.4109 -0.1336  0.6667
  183MOL0     H24138   0.024   5.265   6.623 -0.6461 -0.0041 -1.0557
  183MOL0     H24139  -0.135   5.392   6.513 -0.4547  1.7725 -3.8672
  183MOL0     H24140  -0.335   5.598   6.241 -0.5431 -0.7445  4.8904
  183MOL0     H24141  -0.516   5.701   6.107 -0.0069  0.6775 -0.8343
  183MOL0     H24142   0.427   5.770   5.590 -0.1970  0.6587  0.2231
  183MOL0     H24143   0.659   5.689   5.602  1.4109 -2.6375  0.3569
  183MOL0     H24144   1.057   5.335   5.198  0.5733 -1.0086  1.2041
  183MOL0     H24145   1.290   5.298   5.291  2.1417  1.4557  0.9668
  183MOL0     H24146   1.602   5.387   5.452  0.4405 -0.4631 -1.5793
  183MOL0     H24147   1.490   5.360   5.324  1.0975  1.1670  0.5973
  183MOL0     H24148   1.452   5.223   5.599 -1.1029 -1.4478 -0.3046
  183MOL0     H24149   1.403   5.153   5.460  0.1217  0.8207 -1.0121
  183MOL0     H24150   1.681   5.180   5.580 -0.6624  2.7025 -0.3129
  183MOL0     H24151   1.668   5.177   5.401 -0.6771 -2.0066 -1.4637
  183MOL0     H24152   1.525   4.968   5.556  2.8059  2.6250  4.3451
  183MOL0     H24153   1.572   4.959   5.380  2.0982  2.1676 -1.1877
  183MOL0     H24154   1.924   4.826   5.575  0.4437  0.1209 -0.7359
  183MOL0     H24155   1.228   5.648   5.535 -0.2616  2.7623 -1.4369
  183MOL0     H24156   1.010   5.674   5.455 -0.7921 -1.5843 -2.3118
  184MOL0     O24157   2.921   1.547   1.880 -0.4815 -0.3814  1.0064
  184MOL0     C24158   2.930   1.572   1.998 -0.9254 -1.0657  0.2813
  184MOL0     O24159   2.875   1.691   2.056 -0.2011  0.5571 -0.2357
  184MOL0     C24160   2.808   1.781   1.981 -0.0225 -0.0418  0.3715
  184MOL0     C24161   2.845   1.821   1.851  0.5469 -0.1082 -0.5011
  184MOL0     C24162   2.761   1.907   1.780  0.2208 -0.3570 -0.1951
  184MOL0     C24163   2.649   1.964   1.841 -0.2552  0.6734 -0.0253
  184MOL0     O24164   2.578   2.063   1.772  0.7223  0.2991  0.2602
  184MOL0     C24165   2.478   2.132   1.835 -0.0117 -0.2126  0.0336
  184MOL0     C24166   2.398   2.208   1.734  0.2989 -0.4890  0.0958
  184MOL0     C24167   2.311   2.102   1.661 -0.1624  0.5500 -0.5361
  184MOL0     C24168   2.235   2.168   1.554 -0.0314 -0.0180 -0.1422
  184MOL0     C24169   2.129   2.069   1.495  0.0105 -0.4475  0.4767
  184MOL0     C24170   2.042   2.141   1.386  1.0143 -0.2891 -0.2732
  184MOL0     C24171   1.935   2.062   1.316  0.3873  1.1664  0.4572
  184MOL0     C24172   1.859   2.157   1.223  0.1247 -0.3273 -1.0787
  184MOL0     N24173   1.750   2.079   1.169  0.1118  0.8793  0.5263
  184MOL0     C24174   1.618   2.095   1.195 -0.3277  0.5729  0.5383
  184MOL0     C24175   1.564   1.992   1.119 -0.2414  1.3604 -0.2773
  184MOL0     C24176   1.418   1.960   1.091  0.1825  0.1338 -0.3872
  184MOL0     C24177   1.319   2.017   1.194 -0.5241  0.3013 -0.0535
  184MOL0     C24178   1.184   1.977   1.140  1.6277  0.0931  1.0981
  184MOL0     C24179   1.073   2.025   1.222  0.5063  0.6264  0.2290
  184MOL0     O24180   1.076   1.959   1.350 -0.8637 -0.4198 -0.3571
  184MOL0     C24181   0.955   1.929   1.408  1.2741 -0.5176 -0.2472
  184MOL0     C24182   0.949   1.854   1.525 -0.4109  0.1832  0.2709
  184MOL0     C24183   0.833   1.820   1.584 -0.2970  0.3982 -0.3168
  184MOL0     C24184   0.713   1.882   1.537  0.6336 -0.3130 -0.5718
  184MOL0     C24185   0.581   1.827   1.594  0.3208  0.2241  0.2564
  184MOL0     O24186   0.577   1.717   1.669 -0.1818 -0.2258  0.4099
  184MOL0     C24187   0.459   1.653   1.694 -0.5262 -1.0410 -0.2617
  184MOL0     C24188   0.418   1.550   1.624 -0.0849  0.3704  0.5370
  184MOL0     C24189   0.292   1.491   1.651 -0.0243 -0.3949  0.6735
  184MOL0     C24190   0.207   1.539   1.753  1.2691  0.6784  0.2737
  184MOL0     O24191   0.082   1.481   1.769  0.7004  0.3688 -0.1646
  184MOL0     C24192   0.027   1.401   1.667  0.2890 -0.1723  0.8353
  184MOL0     C24193  -0.126   1.412   1.671  0.3613 -0.3992 -0.0572
  184MOL0     C24194  -0.174   1.389   1.812 -0.3772 -0.2821  0.6863
  184MOL0     C24195  -0.326   1.377   1.816  0.1647 -0.2494 -0.9577
  184MOL0     C24196  -0.391   1.379   1.947  0.0677 -0.0260 -1.0730
  184MOL0     C24197  -0.524   1.305   1.947  0.0074 -0.5617 -0.5022
  184MOL0     C24198  -0.610   1.307   2.073 -0.1364  0.0347  0.4530
  184MOL0     C24199  -0.654   1.447   2.119 -0.0502 -1.1088  0.6173
  184MOL0    Cl24200  -0.775   1.505   1.995 -0.7682  0.0705 -0.1345
  184MOL0     C24201   0.254   1.652   1.821  0.0861  0.2694  0.3671
  184MOL0     C24202   0.371   1.713   1.791 -0.2787 -0.6148 -0.1637
  184MOL0     O24203   0.482   1.888   1.556  0.2893 -0.2169  0.3054
  184MOL0     C24204   0.709   1.976   1.434 -0.1068  0.1224  0.7027
  184MOL0     C24205   0.831   1.989   1.365 -0.1598  0.3152 -1.0472
  184MOL0     N24206   1.661   1.920   1.054  0.3919  0.3160  0.4513
  184MOL0     N24207   1.767   1.982   1.079 -0.0979  0.2222 -0.2578
  184MOL0     C24208   2.623   1.925   1.972 -0.2545 -0.4230 -0.0307
  184MOL0     C24209   2.705   1.842   2.044  0.3406 -0.1557  0.1764
  184MOL0     C24210   2.998   1.464   2.084  0.1960 -0.2773  0.2560
  184MOL0     C24211   3.009   1.498   2.218 -0.7891 -0.2417 -2.0444
  184MOL0     C24212   3.051   1.402   2.307  0.6794  0.1319 -0.3297
  184MOL0     C24213   3.083   1.271   2.271 -0.0706  0.0994  0.3224
  184MOL0     O24214   3.112   1.182   2.365 -0.7704 -0.4900  0.5204
  184MOL0     C24215   3.251   1.161   2.378  0.5010  0.5842  0.0325
  184MOL0     C24216   3.315   1.284   2.437  0.2763 -0.1658  0.8078
  184MOL0     C24217   3.384   1.365   2.326  0.0007  0.0996  0.6358
  184MOL0     C24218   3.392   1.505   2.371  0.0355  0.0630 -0.4150
  184MOL0     C24219   3.496   1.511   2.471  0.7789  0.1437 -0.2138
  184MOL0     C24220   3.577   1.509   2.561 -0.1774  0.6800 -0.1533
  184MOL0     C24221   3.083   1.242   2.130 -0.5656 -0.7344 -0.3921
  184MOL0     C24222   3.034   1.337   2.042  0.7266  0.3845 -0.5617
  184MOL0     H24223   2.929   1.772   1.801  0.7738 -0.7048  0.4286
  184MOL0     H24224   2.781   1.928   1.675 -2.9332  0.2174 -0.7878
  184MOL0     H24225   2.521   2.198   1.910  0.4786 -0.2313 -0.2238
  184MOL0     H24226   2.417   2.053   1.878  1.7247 -1.0133  1.1422
  184MOL0     H24227   2.460   2.268   1.666 -2.2435 -0.6252 -2.5016
  184MOL0     H24228   2.341   2.286   1.784  2.1793  1.8971 -1.2539
  184MOL0     H24229   2.240   2.053   1.728 -0.0443  1.9283  0.6559
  184MOL0     H24230   2.372   2.018   1.627 -1.9244 -1.9928  2.1185
  184MOL0     H24231   2.170   2.245   1.597 -2.2060 -2.5633  1.4823
  184MOL0     H24232   2.292   2.205   1.469 -1.0728  0.1419 -0.7950
  184MOL0     H24233   2.071   2.032   1.580  0.2115  1.3982  1.4763
  184MOL0     H24234   2.178   1.983   1.450 -1.4117 -1.3071  0.5179
  184MOL0     H24235   2.107   2.172   1.305  0.5031  3.3500  0.5321
  184MOL0     H24236   1.991   2.227   1.430  0.5745 -0.5520 -0.2549
  184MOL0     H24237   1.986   1.979   1.266 -2.2000 -0.4553  0.2956
  184MOL0     H24238   1.861   2.021   1.386 -3.5056 -1.0244 -4.2878
  184MOL0     H24239   1.933   2.189   1.149  0.4835 -0.9311 -0.9863
  184MOL0     H24240   1.827   2.245   1.280  2.5303 -0.8755  1.2997
  184MOL0     H24241   1.564   2.160   1.263  0.9738  2.1138  0.1443
  184MOL0     H24242   1.424   1.850   1.090  0.1857  0.1341 -0.3934
  184MOL0     H24243   1.395   1.983   0.987  0.3661  2.0841 -0.0298
  184MOL0     H24244   1.327   2.125   1.214  0.9065  0.2154 -0.0336
  184MOL0     H24245   1.327   1.967   1.291  1.2593 -2.1803 -1.3601
  184MOL0     H24246   1.162   2.043   1.055  0.3287 -1.4039  0.2232
  184MOL0     H24247   1.170   1.878   1.096  0.0124  0.2755  1.1441
  184MOL0     H24248   0.984   2.004   1.161 -0.4065 -0.4347  1.8537
  184MOL0     H24249   1.100   2.127   1.250  3.7351 -0.5257  1.7875
  184MOL0     H24250   1.039   1.793   1.531 -0.9457 -0.5359  1.0012
  184MOL0     H24251   0.838   1.734   1.650  1.3211 -0.7361 -1.8456
  184MOL0     H24252   0.473   1.507   1.541 -0.3764 -0.1099  0.5858
  184MOL0     H24253   0.271   1.410   1.581 -1.7739 -0.3071  1.0459
  184MOL0     H24254   0.052   1.295   1.678 -3.0906 -1.2604 -0.7591
  184MOL0     H24255   0.053   1.435   1.566  1.6779 -3.7139 -0.1657
  184MOL0     H24256  -0.166   1.342   1.596 -0.4631  1.7044 -1.6827
  184MOL0     H24257  -0.157   1.511   1.637 -1.1099 -0.0621  2.1321
  184MOL0     H24258  -0.149   1.484   1.859 -0.7859  1.0900 -1.7344
  184MOL0     H24259  -0.125   1.297   1.846  0.0062 -0.6748 -0.8332
  184MOL0     H24260  -0.359   1.459   1.751 -1.5849 -0.5834 -0.5338
  184MOL0     H24261  -0.351   1.284   1.765 -0.3315 -2.1780  2.5131
  184MOL0     H24262  -0.415   1.480   1.981  0.4444 -0.9829  2.4028
  184MOL0     H24263  -0.322   1.333   2.019 -0.5881 -2.3989 -1.8636
  184MOL0     H24264  -0.505   1.199   1.933  2.3786  0.0328 -2.3853
  184MOL0     H24265  -0.589   1.346   1.869 -0.4119  1.5953  0.8669
  184MOL0     H24266  -0.693   1.236   2.072 -0.5454  0.4112 -3.0666
  184MOL0     H24267  -0.548   1.267   2.154  0.1507  2.3835  1.4809
  184MOL0     H24268  -0.568   1.513   2.127  1.5329 -1.9532 -5.0973
  184MOL0     H24269  -0.711   1.441   2.213 -2.0127  1.5088 -0.2736
  184MOL0     H24270   0.179   1.715   1.867 -0.3058  1.9902 -2.3841
  184MOL0     H24271   0.405   1.806   1.836 -1.8087 -0.0282 -0.1632
  184MOL0     H24272   0.619   2.030   1.408  0.4979  0.5688 -0.5917
  184MOL0     H24273   0.839   2.074   1.298  1.1939  0.6904 -0.4269
  184MOL0     H24274   2.536   1.971   2.017  0.6138  2.2352 -0.8293
  184MOL0     H24275   2.692   1.825   2.150  2.2168  0.7417  0.6073
  184MOL0     H24276   2.986   1.595   2.262 -0.9534 -1.7172  1.5350
  184MOL0     H24277   3.054   1.423   2.413 -2.0376 -0.6110 -0.0425
  184MOL0     H24278   3.302   1.130   2.287 -1.2063  2.1587 -1.5288
  184MOL0     H24279   3.265   1.077   2.447  3.2764  0.5634 -0.4448
  184MOL0     H24280   3.243   1.349   2.488  0.1591 -0.1369  0.6054
  184MOL0     H24281   3.395   1.250   2.504  0.8234 -1.4121 -0.4343
  184MOL0     H24282   3.344   1.370   2.224  3.4587  0.7749 -0.8316
  184MOL0     H24283   3.483   1.321   2.308 -0.4476 -0.1297 -1.5100
  184MOL0     H24284   3.426   1.566   2.287  3.2752 -1.4722 -0.3553
  184MOL0     H24285   3.301   1.553   2.409  1.2584  1.2934  1.0784
  184MOL0     H24286   3.660   1.512   2.630 -1.8081 -1.8277  2.1460
  184MOL0     H24287   3.115   1.145   2.094 -0.2090 -0.5543 -0.5632
  184MOL0     H24288   3.034   1.312   1.936 -1.3954  2.1460 -1.0295
  185MOL0     O24289   4.085   1.526  10.301  0.1442  0.4722 -0.1659
  185MOL0     C24290   4.006   1.455  10.244  0.5011  0.7691 -0.8460
  185MOL0     O24291   4.037   1.321  10.211 -0.2998  0.1037  0.0732
  185MOL0     C24292   4.157   1.278  10.276 -0.2870 -0.5235  0.5159
  185MOL0     C24293   4.273   1.259  10.207  0.2100  0.5249  0.0221
  185MOL0     C24294   4.389   1.251  10.282  0.4886  0.4373  0.6429
  185MOL0     C24295   4.395   1.253  10.421  0.3735  0.8585  0.1851
  185MOL0     O24296   4.501   1.264  10.501 -0.9794 -0.5379  0.7528
  185MOL0     C24297   4.630   1.224  10.453 -0.8947 -0.1751  0.6217
  185MOL0     C24298   4.636   1.071  10.445 -0.3750 -0.5494  0.0088
  185MOL0     C24299   4.745   1.001  10.351  0.0729  0.2871 -0.9797
  185MOL0     C24300   4.896   1.048  10.378  0.1004  0.1018  0.7279
  185MOL0     C24301   4.988   1.021  10.264  0.3528  0.5322 -1.2319
  185MOL0     C24302   5.021   0.871  10.264  0.2493 -0.7587  0.0721
  185MOL0     C24303   5.115   0.846  10.146  0.9092 -0.2008 -0.2558
  185MOL0     C24304   5.138   0.696  10.144 -0.7825  0.2243 -0.3947
  185MOL0     N24305   5.016   0.617  10.092  0.6851  0.2867 -1.2927
  185MOL0     C24306   4.991   0.614   9.969  0.1817 -0.4366 -0.3549
  185MOL0     C24307   4.905   0.510   9.952 -0.1937  0.4580 -0.4235
  185MOL0     C24308   4.846   0.481   9.818 -0.3181  0.5846 -0.0991
  185MOL0     C24309   4.945   0.396   9.721 -0.3432  0.6401  1.3906
  185MOL0     C24310   4.866   0.325   9.611 -1.1677  0.8774 -0.6915
  185MOL0     C24311   4.825   0.404   9.489 -0.8415  0.5495 -0.2080
  185MOL0     O24312   4.753   0.521   9.533  0.4674  0.5996  0.0008
  185MOL0     C24313   4.615   0.529   9.552 -0.1819 -0.0471 -0.1395
  185MOL0     C24314   4.525   0.419   9.555  1.0703  0.1942 -0.1711
  185MOL0     C24315   4.393   0.432   9.600  0.3124 -0.1678  0.4165
  185MOL0     C24316   4.336   0.549   9.636  0.0210 -0.1299  0.6417
  185MOL0     C24317   4.194   0.556   9.672  0.0474 -0.1549  0.2893
  185MOL0     O24318   4.145   0.679   9.708  0.8393 -0.3217 -0.3031
  185MOL0     C24319   4.033   0.680   9.792  0.3648  0.0479 -0.2729
  185MOL0     C24320   4.056   0.642   9.925  0.0929  0.3343  1.0390
  185MOL0     C24321   3.950   0.637  10.015 -0.1577 -0.6939 -0.0324
  185MOL0     C24322   3.821   0.687   9.976 -0.2900 -0.6088 -0.0472
  185MOL0     O24323   3.708   0.685  10.051  0.4146 -0.9146  0.0362
  185MOL0     C24324   3.720   0.710  10.195 -0.1000  0.1254  0.7588
  185MOL0     C24325   3.586   0.681  10.254 -0.2100  0.9371  0.0193
  185MOL0     C24326   3.472   0.789  10.244  0.3042  0.2879  0.7404
  185MOL0     C24327   3.349   0.719  10.315  0.2420 -0.9097 -0.1261
  185MOL0     C24328   3.217   0.805  10.327 -0.1521  0.1913 -0.6077
  185MOL0     C24329   3.181   0.888  10.196 -0.6918 -0.1496 -0.7043
  185MOL0     C24330   3.056   0.972  10.243 -0.1883  0.5443 -0.4386
  185MOL0     C24331   3.031   1.064  10.125 -0.4664  0.0698  0.6345
  185MOL0    Cl24332   2.898   1.182  10.153 -0.2104 -0.1247  0.2959
  185MOL0     C24333   3.803   0.727   9.842  0.2057 -0.1400  0.8066
  185MOL0     C24334   3.910   0.726   9.756  0.4818 -0.3922  0.8556
  185MOL0     O24335   4.139   0.446   9.691 -0.6208 -0.0976 -0.2535
  185MOL0     C24336   4.430   0.657   9.643 -0.0542  0.0032 -0.4419
  185MOL0     C24337   4.561   0.653   9.599 -0.7559  0.9051 -0.0175
  185MOL0     N24338   4.880   0.445  10.070  0.4653  0.8235 -0.1061
  185MOL0     N24339   4.960   0.505  10.151  0.1793  0.1123  0.0562
  185MOL0     C24340   4.272   1.263  10.486 -0.1291 -0.1996 -0.1759
  185MOL0     C24341   4.149   1.275  10.413  0.6530 -0.3158  0.0850
  185MOL0     C24342   3.875   1.504  10.223  0.6232 -0.6024  0.0917
  185MOL0     C24343   3.840   1.635  10.215  0.0950  1.0573  0.2427
  185MOL0     C24344   3.706   1.677  10.196 -0.4580 -0.2346 -0.3960
  185MOL0     C24345   3.606   1.586  10.175  0.8824  1.0046 -0.6083
  185MOL0     O24346   3.474   1.623  10.170 -0.4074  0.2015  0.5403
  185MOL0     C24347   3.448   1.768  10.178  0.2103 -0.4023  0.1650
  185MOL0     C24348   3.309   1.801  10.162  0.3237 -0.4680  1.0243
  185MOL0     C24349   3.235   1.710  10.263 -0.0178 -0.2354 -0.4875
  185MOL0     C24350   3.090   1.736  10.239 -0.7747  0.4561 -0.5058
  185MOL0     C24351   3.027   1.611  10.275 -0.0874 -0.4675  1.2551
  185MOL0     C24352   2.975   1.501  10.281  1.0222 -0.1395 -0.5010
  185MOL0     C24353   3.637   1.450  10.180 -0.4355 -0.1712 -0.0993
  185MOL0     C24354   3.769   1.409  10.201 -0.1603 -0.4692  0.3998
  185MOL0     H24355   4.269   1.273  10.100  1.3292  0.3650 -0.0597
  185MOL0     H24356   4.483   1.245  10.227 -0.6410  1.0781 -1.4403
  185MOL0     H24357   4.697   1.270  10.527 -2.6126  2.4347  0.6794
  185MOL0     H24358   4.652   1.264  10.354 -1.3287 -0.5525  0.3720
  185MOL0     H24359   4.542   1.023  10.416 -1.5730  1.1712  0.8481
  185MOL0     H24360   4.645   1.046  10.551 -0.8671  2.4727  0.8473
  185MOL0     H24361   4.726   0.994  10.244  1.4699  0.4055 -1.2484
  185MOL0     H24362   4.749   0.893  10.367  0.6303  0.0422 -2.6006
  185MOL0     H24363   4.881   1.155  10.397 -3.1462  0.1233 -1.2260
  185MOL0     H24364   4.929   0.996  10.468  1.3317  0.4496  0.4941
  185MOL0     H24365   5.081   1.078  10.276 -1.5584  4.1627 -2.3354
  185MOL0     H24366   4.946   1.055  10.169 -0.7581  0.5699 -0.7420
  185MOL0     H24367   4.929   0.812  10.255  0.5335 -1.1082 -0.6055
  185MOL0     H24368   5.066   0.843  10.359  0.9253 -1.3790 -0.4250
  185MOL0     H24369   5.062   0.862  10.052 -2.6052 -0.0996  1.5914
  185MOL0     H24370   5.207   0.904  10.160  0.4721  0.1297  1.4899
  185MOL0     H24371   5.160   0.659  10.245 -0.2891 -0.7029 -0.8286
  185MOL0     H24372   5.220   0.679  10.074 -0.7665  1.2510 -0.6412
  185MOL0     H24373   5.036   0.670   9.887  2.3356  0.4381  1.3238
  185MOL0     H24374   4.835   0.576   9.766 -1.7521  2.5299  3.4174
  185MOL0     H24375   4.749   0.431   9.828 -0.5448  1.1209  0.4200
  185MOL0     H24376   4.992   0.314   9.776 -0.4646 -1.3291 -1.2565
  185MOL0     H24377   5.031   0.449   9.682  1.5964 -1.8442  2.0236
  185MOL0     H24378   4.931   0.244   9.577  2.0779  3.0022 -0.0159
  185MOL0     H24379   4.789   0.264   9.659 -0.2982  1.1763  1.1653
  185MOL0     H24380   4.763   0.344   9.421  0.2822 -1.2739  0.3030
  185MOL0     H24381   4.914   0.424   9.429  0.3077 -1.5796  0.6863
  185MOL0     H24382   4.571   0.322   9.536  1.5513  0.3308  0.2893
  185MOL0     H24383   4.340   0.339   9.617  0.4107 -0.2714  0.1576
  185MOL0     H24384   4.156   0.623   9.962  0.4341  1.1538  0.5458
  185MOL0     H24385   3.964   0.600  10.117 -2.5286 -0.9473  0.2625
  185MOL0     H24386   3.757   0.810  10.215 -1.3709  0.4572  1.6157
  185MOL0     H24387   3.794   0.637  10.230 -0.7891 -1.1483 -0.3312
  185MOL0     H24388   3.605   0.669  10.361  2.1502  1.6697 -0.2588
  185MOL0     H24389   3.559   0.584  10.211  0.4376  1.4663 -1.6726
  185MOL0     H24390   3.464   0.825  10.141  1.5063  3.0584  1.5082
  185MOL0     H24391   3.494   0.889  10.285 -2.1927  0.4425  1.8825
  185MOL0     H24392   3.322   0.639  10.245 -1.0847 -0.5424 -0.0598
  185MOL0     H24393   3.389   0.693  10.413  4.6918 -1.6471 -1.8968
  185MOL0     H24394   3.222   0.864  10.419  2.4145 -0.9417  0.0605
  185MOL0     H24395   3.137   0.732  10.341  1.2929 -1.9905 -2.9152
  185MOL0     H24396   3.161   0.826  10.108 -0.9643  0.9350 -1.4270
  185MOL0     H24397   3.260   0.961  10.179  0.9530 -1.3229  1.4068
  185MOL0     H24398   2.966   0.910  10.251 -0.1404  0.6814  1.5029
  185MOL0     H24399   3.077   1.035  10.330  0.3450 -1.0105  0.5890
  185MOL0     H24400   3.003   1.012  10.033  2.8700  1.1459 -1.1843
  185MOL0     H24401   3.121   1.125  10.106 -2.2077  3.0431  1.2586
  185MOL0     H24402   3.705   0.764   9.813 -1.9612 -3.9669  2.3634
  185MOL0     H24403   3.904   0.772   9.658 -3.0151  4.8502  3.0525
  185MOL0     H24404   4.395   0.755   9.673 -1.4245 -0.3020 -1.0026
  185MOL0     H24405   4.622   0.741   9.613 -1.2711  1.3148 -0.3340
  185MOL0     H24406   4.265   1.264  10.594  1.6676  0.5684 -0.0289
  185MOL0     H24407   4.055   1.293  10.464 -1.2922  0.5630 -3.4640
  185MOL0     H24408   3.917   1.709  10.237  1.0711  0.0369  0.3184
  185MOL0     H24409   3.696   1.784  10.187 -3.3919 -0.1234  2.3835
  185MOL0     H24410   3.504   1.810  10.094 -2.0415  3.4994  0.4067
  185MOL0     H24411   3.481   1.803  10.276  0.0033  1.5897 -0.4425
  185MOL0     H24412   3.283   1.907  10.166  0.5407 -0.1484 -2.7065
  185MOL0     H24413   3.270   1.770  10.065 -0.1778 -0.9401  1.3716
  185MOL0     H24414   3.268   1.746  10.361  2.1918  0.0925 -1.2819
  185MOL0     H24415   3.265   1.605  10.253  3.0357  0.6634 -2.4724
  185MOL0     H24416   3.054   1.805  10.316  1.3443  0.2719  0.7114
  185MOL0     H24417   3.065   1.788  10.145 -0.1828 -0.3852 -1.1415
  185MOL0     H24418   2.938   1.402  10.298 -0.7931  0.2439 -1.9229
  185MOL0     H24419   3.549   1.386  10.182  0.3398 -1.2924  2.7404
  185MOL0     H24420   3.783   1.301  10.200 -0.3618 -0.5155 -1.1830
  186MOL0     O24421   5.446   3.999   8.315  0.3602 -0.1860  1.2985
  186MOL0     C24422   5.414   3.882   8.297 -0.3992  0.1791 -0.5160
  186MOL0     O24423   5.301   3.836   8.240 -0.4398 -0.1507 -0.5923
  186MOL0     C24424   5.195   3.926   8.217  0.5654  0.4100 -0.4575
  186MOL0     C24425   5.152   4.012   8.323 -0.8901  0.3621  0.2131
  186MOL0     C24426   5.055   4.115   8.306  0.2046 -0.0164  0.1627
  186MOL0     C24427   4.992   4.123   8.182 -0.2758  0.0614  1.1936
  186MOL0     O24428   4.909   4.228   8.165  0.8949  0.4167 -0.3836
  186MOL0     C24429   4.819   4.234   8.054 -0.4980  0.0394  0.5177
  186MOL0     C24430   4.709   4.333   8.082  0.2329 -0.6941 -0.3877
  186MOL0     C24431   4.591   4.316   7.989 -0.3146 -0.7549  0.7082
  186MOL0     C24432   4.476   4.412   8.013  1.0847 -0.6265  0.6507
  186MOL0     C24433   4.464   4.526   7.916  0.1044 -0.4970 -0.1599
  186MOL0     C24434   4.400   4.654   7.969  1.9319  0.9938  0.5367
  186MOL0     C24435   4.257   4.620   8.028  0.1084  0.6497  0.1729
  186MOL0     C24436   4.191   4.752   8.053 -0.6142 -0.2426 -0.0358
  186MOL0     N24437   4.175   4.846   7.941  0.3008  0.5169  0.6693
  186MOL0     C24438   4.121   4.801   7.822  0.2920  1.2216 -0.3348
  186MOL0     C24439   4.139   4.913   7.745  0.3402  0.1452 -0.3557
  186MOL0     C24440   4.106   4.883   7.599 -0.3559 -0.4006  0.5300
  186MOL0     C24441   3.967   4.940   7.563 -0.1852  0.2387 -0.6337
  186MOL0     C24442   3.977   5.084   7.502 -0.5856  0.4409 -0.0141
  186MOL0     C24443   3.835   5.150   7.491  0.2690 -0.2272 -0.2378
  186MOL0     O24444   3.755   5.132   7.614 -0.2822 -0.4254 -0.6262
  186MOL0     C24445   3.628   5.182   7.618 -0.9581 -0.1489 -0.1542
  186MOL0     C24446   3.544   5.150   7.725  0.1786 -0.6700 -1.2465
  186MOL0     C24447   3.413   5.199   7.731  0.1556  0.4680 -0.3778
  186MOL0     C24448   3.358   5.291   7.638 -1.7714 -0.7128 -0.8816
  186MOL0     C24449   3.217   5.338   7.641  1.6697  0.2279  0.2231
  186MOL0     O24450   3.168   5.439   7.546 -1.1900  0.5628  0.2972
  186MOL0     C24451   3.039   5.489   7.542  0.0061 -1.0605 -0.6003
  186MOL0     C24452   3.019   5.612   7.600 -0.0553 -0.2885 -1.1312
  186MOL0     C24453   2.886   5.670   7.604  0.5167  0.5360 -0.1581
  186MOL0     C24454   2.780   5.603   7.551  0.5663  0.0194  0.2349
  186MOL0     O24455   2.650   5.639   7.552  0.8385  0.2495 -0.1537
  186MOL0     C24456   2.616   5.755   7.612 -0.2125  0.4506 -0.4043
  186MOL0     C24457   2.466   5.765   7.608  0.0731 -0.1103  0.2623
  186MOL0     C24458   2.407   5.866   7.706 -0.6139  0.3086  0.3006
  186MOL0     C24459   2.261   5.896   7.664 -0.1412 -0.0075  0.1259
  186MOL0     C24460   2.187   5.986   7.761  0.9837  0.2580  0.7261
  186MOL0     C24461   2.039   5.961   7.727  0.0321  0.3659  0.3763
  186MOL0     C24462   1.937   6.081   7.755  0.2016 -0.5983 -0.0384
  186MOL0     C24463   1.796   6.035   7.805  0.2522 -0.3295  0.4509
  186MOL0    Cl24464   1.669   6.157   7.766  0.2036  0.0870 -0.1003
  186MOL0     C24465   2.798   5.478   7.496 -0.8769 -0.3625  0.4136
  186MOL0     C24466   2.932   5.416   7.497 -0.8086 -0.7787  0.8942
  186MOL0     O24467   3.134   5.276   7.714 -0.1088 -0.0095  0.1447
  186MOL0     C24468   3.449   5.336   7.544  0.1775  1.1145  0.7426
  186MOL0     C24469   3.576   5.284   7.534 -0.1144  0.0335 -0.5663
  186MOL0     N24470   4.198   5.020   7.816 -0.1038  0.6931  0.4953
  186MOL0     N24471   4.221   4.971   7.936 -0.0197 -0.1677  0.0854
  186MOL0     C24472   5.026   4.034   8.079 -0.0256  0.1161  0.1942
  186MOL0     C24473   5.130   3.934   8.095  0.0617 -0.2195  0.4936
  186MOL0     C24474   5.523   3.775   8.325  0.9181 -0.0943  0.4722
  186MOL0     C24475   5.657   3.793   8.358 -0.1262 -0.7734  0.3474
  186MOL0     C24476   5.751   3.688   8.369 -0.3645 -0.0847 -0.1219
  186MOL0     C24477   5.708   3.557   8.342 -0.3366 -0.1348 -0.2823
  186MOL0     O24478   5.805   3.457   8.364  0.0085  0.4952 -0.6569
  186MOL0     C24479   5.809   3.404   8.498 -0.1477  0.0732 -0.4466
  186MOL0     C24480   5.929   3.313   8.507  1.1245  0.0555  0.9722
  186MOL0     C24481   5.944   3.205   8.411 -0.1324 -0.3665 -0.8623
  186MOL0     C24482   6.056   3.114   8.447 -0.2094  0.6659 -0.4040
  186MOL0     C24483   6.019   3.020   8.556  0.3276  0.5872 -0.2991
  186MOL0     C24484   5.998   2.950   8.656  0.2584  0.0328  0.5769
  186MOL0     C24485   5.572   3.529   8.324  0.3244  0.8561 -0.0797
  186MOL0     C24486   5.482   3.641   8.313  0.4712  0.4076 -0.7065
  186MOL0     H24487   5.189   4.006   8.425 -0.8183  1.8757  0.3107
  186MOL0     H24488   5.024   4.170   8.394 -2.3183 -0.5678 -0.2946
  186MOL0     H24489   4.773   4.135   8.049  0.0825 -0.1836 -0.8383
  186MOL0     H24490   4.869   4.256   7.959 -2.2627  1.1968 -0.1872
  186MOL0     H24491   4.757   4.431   8.081  2.1311 -1.5633 -1.6979
  186MOL0     H24492   4.668   4.314   8.181 -1.2709 -0.8428 -1.0247
  186MOL0     H24493   4.554   4.214   8.004  0.0827 -1.2880 -1.4753
  186MOL0     H24494   4.634   4.327   7.889 -0.4507 -3.3767  0.2891
  186MOL0     H24495   4.383   4.354   8.012  0.1917  0.3014 -5.4551
  186MOL0     H24496   4.491   4.463   8.109 -0.7011  1.9349 -0.3326
  186MOL0     H24497   4.404   4.490   7.832  0.1186  1.4351 -1.0476
  186MOL0     H24498   4.562   4.559   7.880  1.3310  0.9703  3.8710
  186MOL0     H24499   4.389   4.724   7.886  0.5599  0.7115  0.4582
  186MOL0     H24500   4.473   4.694   8.039  2.8277  2.4501 -1.1440
  186MOL0     H24501   4.200   4.561   7.956  0.7619 -0.2304  0.3517
  186MOL0     H24502   4.263   4.581   8.129 -2.1244  2.5396  1.1321
  186MOL0     H24503   4.243   4.804   8.133  1.8667 -1.9907 -0.3972
  186MOL0     H24504   4.093   4.726   8.095 -1.6500  2.9866 -0.1698
  186MOL0     H24505   4.090   4.701   7.794  2.7064  1.1699 -3.3619
  186MOL0     H24506   4.117   4.776   7.584 -0.0638 -0.2144 -0.7151
  186MOL0     H24507   4.185   4.933   7.542 -2.1136  1.1216 -0.7023
  186MOL0     H24508   3.893   4.930   7.643  1.5212 -0.9021  0.8934
  186MOL0     H24509   3.930   4.866   7.492  2.5451 -2.5401  0.6051
  186MOL0     H24510   4.042   5.151   7.559 -1.3145 -0.7050  2.2576
  186MOL0     H24511   4.020   5.074   7.402 -0.6028  1.7024 -0.1631
  186MOL0     H24512   3.788   5.114   7.400  2.2484 -1.3009 -0.9052
  186MOL0     H24513   3.851   5.258   7.486 -2.8957  0.2454 -2.6820
  186MOL0     H24514   3.584   5.082   7.800  0.4419 -0.2969 -1.0467
  186MOL0     H24515   3.343   5.165   7.807  0.8123  2.2840  1.1179
  186MOL0     H24516   3.106   5.667   7.633 -0.8107 -0.2102  0.8268
  186MOL0     H24517   2.865   5.763   7.655 -1.2998  0.0570  0.0349
  186MOL0     H24518   2.671   5.838   7.567  2.2772 -2.1751 -2.5852
  186MOL0     H24519   2.649   5.752   7.717 -0.6776  1.6314 -0.2122
  186MOL0     H24520   2.423   5.666   7.624 -2.3866  1.2863  3.1130
  186MOL0     H24521   2.435   5.791   7.506 -0.8779  0.2000  0.6236
  186MOL0     H24522   2.462   5.957   7.682 -0.1349 -0.0674 -0.0416
  186MOL0     H24523   2.427   5.843   7.811 -0.3765  2.5136  0.7852
  186MOL0     H24524   2.252   5.942   7.565 -2.3721  0.6387  0.5703
  186MOL0     H24525   2.209   5.800   7.656  0.8549 -0.4074 -2.8484
  186MOL0     H24526   2.218   6.088   7.738  0.8342  0.0146 -0.6339
  186MOL0     H24527   2.214   5.966   7.865  3.2637  3.5438  0.9235
  186MOL0     H24528   2.013   5.869   7.780 -0.7117  0.7935  0.7710
  186MOL0     H24529   2.045   5.939   7.620 -1.0313  1.8331 -0.0135
  186MOL0     H24530   1.972   6.149   7.833 -0.7507 -1.4210  1.1637
  186MOL0     H24531   1.922   6.135   7.662  2.1542  1.5613  0.8153
  186MOL0     H24532   1.791   5.998   7.908 -1.7653 -1.8045 -0.1160
  186MOL0     H24533   1.774   5.941   7.754  0.4615  0.3414 -0.9128
  186MOL0     H24534   2.721   5.419   7.447 -1.1019 -0.8546  1.3394
  186MOL0     H24535   2.953   5.320   7.450 -0.1945 -0.2093 -0.0249
  186MOL0     H24536   3.425   5.415   7.475  0.0978 -0.0511 -0.6087
  186MOL0     H24537   3.623   5.322   7.444 -0.3922  0.7763 -0.4076
  186MOL0     H24538   4.967   4.029   7.988 -0.6828 -0.6064  0.6484
  186MOL0     H24539   5.152   3.861   8.018  1.8218 -1.0837  1.7601
  186MOL0     H24540   5.695   3.892   8.378 -0.9438 -0.5308  0.7481
  186MOL0     H24541   5.852   3.716   8.398 -0.3254  0.8719 -1.1002
  186MOL0     H24542   5.715   3.354   8.520 -0.5580  1.1579  0.3695
  186MOL0     H24543   5.820   3.491   8.563  0.5692  1.8677 -2.8349
  186MOL0     H24544   6.017   3.376   8.526  0.2039  0.4532  4.8703
  186MOL0     H24545   5.904   3.260   8.599 -1.2356 -1.1681 -0.2873
  186MOL0     H24546   5.977   3.257   8.321 -1.3494 -1.9388 -2.2893
  186MOL0     H24547   5.844   3.165   8.394 -0.2590  0.0525 -1.1269
  186MOL0     H24548   6.076   3.048   8.362  1.5679  2.3167 -1.3270
  186MOL0     H24549   6.144   3.171   8.478 -0.2458 -0.6399  2.3777
  186MOL0     H24550   5.983   2.893   8.746  0.1734  1.3424  1.4164
  186MOL0     H24551   5.541   3.425   8.324  0.7769  0.7090  0.9693
  186MOL0     H24552   5.377   3.625   8.295  0.0132  1.6765  0.6007
  187MOL0     O24553   0.526   3.565   9.643 -0.1293 -0.0373 -0.1887
  187MOL0     C24554   0.490   3.533   9.758 -0.1955 -0.5698  0.0752
  187MOL0     O24555   0.375   3.564   9.820 -0.4652 -0.3322 -0.0816
  187MOL0     C24556   0.265   3.617   9.755 -0.1647 -0.2034 -0.4988
  187MOL0     C24557   0.217   3.572   9.631 -0.3379 -0.0587  0.1566
  187MOL0     C24558   0.099   3.626   9.590 -0.5521 -0.4147  0.7335
  187MOL0     C24559   0.038   3.741   9.642  0.1198 -0.1479 -0.3000
  187MOL0     O24560  -0.075   3.810   9.595  0.4452  0.6734 -0.3797
  187MOL0     C24561  -0.058   3.882   9.472  0.6296 -0.2375  0.4658
  187MOL0     C24562  -0.181   3.967   9.449  0.5419  0.7013 -0.5738
  187MOL0     C24563  -0.302   3.870   9.405 -0.4403  0.7291 -0.7543
  187MOL0     C24564  -0.431   3.951   9.394 -0.0839  0.5611 -0.7992
  187MOL0     C24565  -0.543   3.869   9.350  0.1726 -0.0305  0.2203
  187MOL0     C24566  -0.690   3.912   9.383  0.1489 -0.2464  0.2006
  187MOL0     C24567  -0.726   4.036   9.304  0.2703  0.1770  0.0438
  187MOL0     C24568  -0.871   4.075   9.343  0.3113  0.1823 -0.7044
  187MOL0     N24569  -0.878   4.127   9.484 -0.8239 -0.1395  0.3150
  187MOL0     C24570  -0.844   4.257   9.520  0.3269  0.6744 -0.4164
  187MOL0     C24571  -0.864   4.251   9.655 -0.4793  1.2854 -0.5393
  187MOL0     C24572  -0.867   4.366   9.749  0.3238 -0.2604 -0.1417
  187MOL0     C24573  -0.999   4.426   9.765  0.7544 -0.3226  0.2133
  187MOL0     C24574  -1.021   4.557   9.852  0.5712  0.3934 -0.1717
  187MOL0     C24575  -1.175   4.580   9.857 -0.4599 -0.8287  1.0017
  187MOL0     O24576  -1.225   4.597   9.722 -0.1846  0.2489  0.1287
  187MOL0     C24577  -1.357   4.595   9.695  0.5636 -0.6415 -0.3115
  187MOL0     C24578  -1.448   4.623   9.801 -1.0578 -0.6173 -0.5690
  187MOL0     C24579  -1.586   4.624   9.773  1.1581  0.0911  0.3742
  187MOL0     C24580  -1.632   4.604   9.639  0.4205  0.6218 -0.1748
  187MOL0     C24581  -1.771   4.613   9.600  0.2353 -0.4882 -0.0516
  187MOL0     O24582  -1.847   4.641   9.709  0.1786  0.2122 -0.1478
  187MOL0     C24583  -1.983   4.648   9.686  0.0292  0.0936 -0.0614
  187MOL0     C24584  -2.072   4.551   9.732 -0.1155  0.1222 -0.6839
  187MOL0     C24585  -2.208   4.573   9.711  0.4243 -0.2112  0.3090
  187MOL0     C24586  -2.250   4.688   9.641  0.5531 -0.4321 -0.2025
  187MOL0     O24587  -2.375   4.664   9.600 -0.3332 -0.0862  0.5333
  187MOL0     C24588  -2.436   4.734   9.493  0.0384 -0.0811 -0.8905
  187MOL0     C24589  -2.573   4.661   9.455  0.4084  0.1324 -0.1724
  187MOL0     C24590  -2.679   4.646   9.571 -0.5734  0.6815  0.8015
  187MOL0     C24591  -2.819   4.605   9.502  0.4936  0.2210  0.2995
  187MOL0     C24592  -2.920   4.602   9.615  0.2282  0.0572  0.6229
  187MOL0     C24593  -3.062   4.545   9.569  0.2466 -0.4458 -0.3515
  187MOL0     C24594  -3.151   4.530   9.686  0.2012 -1.0019  0.0772
  187MOL0     C24595  -3.291   4.485   9.638 -0.4014  0.2624  0.7197
  187MOL0    Cl24596  -3.391   4.424   9.773 -0.4079  0.6342 -0.1961
  187MOL0     C24597  -2.161   4.789   9.604  0.7703  0.8293 -1.0310
  187MOL0     C24598  -2.028   4.767   9.626 -0.7074  0.1366 -0.0364
  187MOL0     O24599  -1.811   4.585   9.491  0.1939  0.0559  0.5327
  187MOL0     C24600  -1.538   4.570   9.541 -0.1694  0.8704 -0.1729
  187MOL0     C24601  -1.403   4.579   9.567  0.0177 -0.0116 -0.0463
  187MOL0     N24602  -0.900   4.123   9.694  0.5005 -0.3112 -0.9723
  187MOL0     N24603  -0.898   4.045   9.595 -0.5830 -0.1986 -0.1961
  187MOL0     C24604   0.092   3.770   9.764 -1.2941 -0.2651 -0.5837
  187MOL0     C24605   0.199   3.718   9.826 -0.2275 -0.0232  1.3480
  187MOL0     C24606   0.591   3.472   9.845  1.1809 -0.1256 -0.5848
  187MOL0     C24607   0.593   3.506   9.986  0.0314 -0.5566  0.0851
  187MOL0     C24608   0.686   3.457  10.075  0.1033  0.4909  0.6614
  187MOL0     C24609   0.778   3.364  10.033  0.5525  1.1149  0.4166
  187MOL0     O24610   0.883   3.332  10.121 -0.2064 -0.8482  0.0292
  187MOL0     C24611   0.944   3.438  10.189  0.4132 -0.1727  0.2378
  187MOL0     C24612   1.039   3.528  10.121 -1.2375 -0.1599 -0.0954
  187MOL0     C24613   1.143   3.462  10.030 -0.8012 -0.5221 -0.0956
  187MOL0     C24614   1.207   3.565   9.936  0.6758  0.0967  0.3021
  187MOL0     C24615   1.264   3.486   9.826  0.8804  0.2904  0.1641
  187MOL0     C24616   1.324   3.418   9.742  0.7327  0.7821  0.2760
  187MOL0     C24617   0.786   3.323   9.896  0.1468 -0.3615 -0.2216
  187MOL0     C24618   0.690   3.379   9.806  0.6692 -0.2701  0.5446
  187MOL0     H24619   0.266   3.488   9.584 -0.3730 -0.9617  1.6677
  187MOL0     H24620   0.042   3.589   9.506 -1.7395  0.8045  0.9640
  187MOL0     H24621  -0.051   3.813   9.388  1.7840 -1.5373  1.5929
  187MOL0     H24622   0.035   3.940   9.469 -0.9031  2.3828 -0.3300
  187MOL0     H24623  -0.159   4.044   9.375  2.2584  0.9993  0.1935
  187MOL0     H24624  -0.206   4.005   9.549  0.9788 -3.3802  1.2660
  187MOL0     H24625  -0.321   3.790   9.477 -0.8058  1.6275  0.1865
  187MOL0     H24626  -0.290   3.816   9.311  1.7349 -0.7386  0.3046
  187MOL0     H24627  -0.453   3.992   9.493 -0.5709 -1.5584  0.0343
  187MOL0     H24628  -0.414   4.027   9.317 -0.5641 -0.2699 -1.7605
  187MOL0     H24629  -0.526   3.772   9.398 -0.0431 -0.9654 -1.5041
  187MOL0     H24630  -0.534   3.864   9.241  2.3285 -1.2812  0.3907
  187MOL0     H24631  -0.691   3.928   9.492 -0.2630 -0.7499  0.2742
  187MOL0     H24632  -0.758   3.831   9.357 -2.7786  2.9161 -3.1028
  187MOL0     H24633  -0.666   4.124   9.329 -0.7913  1.0389 -0.3587
  187MOL0     H24634  -0.724   4.018   9.196 -0.7179 -0.9351  0.1804
  187MOL0     H24635  -0.927   3.981   9.336 -1.9057  1.1207  2.4669
  187MOL0     H24636  -0.889   4.150   9.266 -0.9782 -0.1102 -0.7180
  187MOL0     H24637  -0.829   4.335   9.446  0.0846 -1.1480 -2.5048
  187MOL0     H24638  -0.787   4.431   9.713  2.2401 -1.7493  1.1396
  187MOL0     H24639  -0.826   4.327   9.843  0.0955  0.6304  0.3361
  187MOL0     H24640  -1.070   4.344   9.781  0.4443 -0.4273 -1.5076
  187MOL0     H24641  -1.021   4.455   9.662  0.0307 -2.4314 -0.2721
  187MOL0     H24642  -0.985   4.534   9.953 -1.6952 -1.7802  0.2470
  187MOL0     H24643  -0.968   4.634   9.795  0.2928  0.0826 -0.8540
  187MOL0     H24644  -1.196   4.677   9.904  1.4443  1.3317 -2.1948
  187MOL0     H24645  -1.234   4.502   9.905 -0.5144 -1.3467  0.1044
  187MOL0     H24646  -1.411   4.647   9.900  0.1537  1.6131 -1.5003
  187MOL0     H24647  -1.663   4.635   9.850  0.7091 -1.2753  0.1453
  187MOL0     H24648  -2.035   4.464   9.785 -0.2293  1.3609  1.5449
  187MOL0     H24649  -2.274   4.500   9.755  1.6022 -0.1706  2.2438
  187MOL0     H24650  -2.373   4.733   9.403 -1.3546 -4.0526 -2.0484
  187MOL0     H24651  -2.471   4.834   9.519  1.2193  0.2507 -0.5083
  187MOL0     H24652  -2.546   4.566   9.406  0.8354  1.1623 -2.0355
  187MOL0     H24653  -2.624   4.709   9.371 -2.5737 -2.6834 -0.1990
  187MOL0     H24654  -2.686   4.738   9.631 -1.7224 -0.3894  2.3943
  187MOL0     H24655  -2.639   4.571   9.639  0.0543 -0.0128 -0.2960
  187MOL0     H24656  -2.841   4.678   9.423 -0.5456 -2.2467 -1.8406
  187MOL0     H24657  -2.812   4.504   9.462 -3.0665 -1.1603  2.6394
  187MOL0     H24658  -2.924   4.708   9.641  2.5065  0.9697 -2.2209
  187MOL0     H24659  -2.882   4.556   9.706  0.6029 -1.0844 -0.0807
  187MOL0     H24660  -3.073   4.451   9.514 -2.2135 -0.4636  0.0624
  187MOL0     H24661  -3.112   4.619   9.506  1.4640  1.4390  0.7884
  187MOL0     H24662  -3.116   4.449   9.750 -0.6633 -1.7736 -0.4007
  187MOL0     H24663  -3.155   4.617   9.753  1.1538  0.5100 -1.7299
  187MOL0     H24664  -3.284   4.406   9.563 -4.1519 -1.2971  1.7527
  187MOL0     H24665  -3.348   4.567   9.593 -0.1048 -0.9080 -1.9056
  187MOL0     H24666  -2.201   4.873   9.549  0.3672 -1.1721 -4.0246
  187MOL0     H24667  -1.960   4.845   9.596  0.4679 -1.0126 -0.4590
  187MOL0     H24668  -1.574   4.532   9.446 -2.1636 -0.5434  1.0602
  187MOL0     H24669  -1.316   4.564   9.504 -0.2668  1.5609 -0.8696
  187MOL0     H24670   0.059   3.865   9.805 -0.2556  0.5616 -1.5978
  187MOL0     H24671   0.239   3.762   9.917  0.5736  1.6274  0.2698
  187MOL0     H24672   0.524   3.579  10.029 -1.5544  0.4154 -3.6939
  187MOL0     H24673   0.689   3.503  10.174  0.9706 -1.5262  1.6190
  187MOL0     H24674   0.993   3.400  10.280 -2.2685 -1.9372  1.0537
  187MOL0     H24675   0.874   3.513  10.226 -1.4595 -1.0943 -1.3090
  187MOL0     H24676   0.990   3.605  10.060  0.5379 -0.9961 -2.7807
  187MOL0     H24677   1.087   3.582  10.203  2.5874 -1.2840 -1.3773
  187MOL0     H24678   1.090   3.391   9.965  1.2743 -0.7940 -1.5877
  187MOL0     H24679   1.219   3.403  10.081 -0.8052  0.4356  1.0450
  187MOL0     H24680   1.132   3.632   9.895 -0.2199 -1.0880 -0.0476
  187MOL0     H24681   1.286   3.629   9.977 -1.2151  1.9269  1.2750
  187MOL0     H24682   1.384   3.351   9.685  0.1967 -0.3927  1.0620
  187MOL0     H24683   0.864   3.266   9.848  1.0304  2.0207 -1.8095
  187MOL0     H24684   0.690   3.343   9.704 -2.6604 -0.2811  0.4313
  188MOL0     O24685   1.832   4.370   2.993  0.0474 -0.3215  0.1218
  188MOL0     C24686   1.755   4.315   3.074 -0.5105  0.6942 -1.3866
  188MOL0     O24687   1.775   4.308   3.207  0.3745  0.1058 -0.2287
  188MOL0     C24688   1.877   4.372   3.264 -0.2671  0.1493 -0.6426
  188MOL0     C24689   1.973   4.302   3.322  0.1750  0.7101 -0.3452
  188MOL0     C24690   2.082   4.366   3.379  0.2358 -0.0625 -0.2060
  188MOL0     C24691   2.088   4.506   3.379 -0.6853  0.0096 -0.1632
  188MOL0     O24692   2.198   4.582   3.430 -0.0549 -0.1830  0.8905
  188MOL0     C24693   2.298   4.517   3.510  0.7150 -0.3407 -0.5506
  188MOL0     C24694   2.380   4.634   3.567  0.0619 -0.3631 -0.2045
  188MOL0     C24695   2.446   4.711   3.457  0.0810  0.1531 -0.2622
  188MOL0     C24696   2.531   4.829   3.508 -0.2555  0.5806  0.2384
  188MOL0     C24697   2.668   4.778   3.561  0.0001  0.6137 -0.0825
  188MOL0     C24698   2.780   4.878   3.600 -0.8715  0.2550  0.3044
  188MOL0     C24699   2.840   4.931   3.472 -0.2253  0.3878  0.3795
  188MOL0     C24700   2.968   5.017   3.495  0.6977 -0.3742  0.0049
  188MOL0     N24701   3.087   4.940   3.542 -0.3244 -1.1545  0.0933
  188MOL0     C24702   3.206   4.914   3.475 -0.8101  0.0703  0.4728
  188MOL0     C24703   3.295   4.890   3.572 -0.0036  0.3430  0.9948
  188MOL0     C24704   3.428   4.856   3.528  0.2924 -0.4768 -0.6952
  188MOL0     C24705   3.453   4.711   3.500 -0.0318 -0.2470  1.1016
  188MOL0     C24706   3.483   4.634   3.627  0.4399  0.2827 -0.1362
  188MOL0     C24707   3.354   4.569   3.685  0.2557  0.2301  0.1925
  188MOL0     O24708   3.315   4.465   3.590 -0.3417  0.2732  0.1541
  188MOL0     C24709   3.188   4.446   3.540  0.4071  0.3024  0.4306
  188MOL0     C24710   3.085   4.536   3.549 -0.8740  0.6860  1.0262
  188MOL0     C24711   2.954   4.510   3.503  0.0650 -0.1052 -0.4379
  188MOL0     C24712   2.927   4.397   3.430  0.6038  0.3407  0.0051
  188MOL0     C24713   2.792   4.376   3.376  0.0504 -0.1647 -0.2293
  188MOL0     O24714   2.772   4.265   3.302  0.5262 -0.1025 -0.2933
  188MOL0     C24715   2.645   4.223   3.262 -0.3398 -0.4599  0.9550
  188MOL0     C24716   2.623   4.087   3.233 -0.2862 -0.3616  0.4424
  188MOL0     C24717   2.505   4.048   3.174  0.3131 -0.1617  0.2554
  188MOL0     C24718   2.396   4.136   3.148  0.2637  0.3502 -0.6558
  188MOL0     O24719   2.302   4.087   3.069 -0.6584  0.0088  0.6022
  188MOL0     C24720   2.200   4.177   3.020 -0.6567  0.3911 -0.1001
  188MOL0     C24721   2.099   4.090   2.936  0.2563 -0.2752 -0.3394
  188MOL0     C24722   2.016   4.006   3.045 -0.3474 -0.6899  0.5161
  188MOL0     C24723   1.908   3.922   2.969  0.2367  0.3691  1.0794
  188MOL0     C24724   1.818   3.835   3.057 -0.1590 -0.1800  0.1228
  188MOL0     C24725   1.731   3.744   2.971  0.5442  0.3111 -0.3179
  188MOL0     C24726   1.654   3.642   3.060  0.0948 -0.5021 -0.2435
  188MOL0     C24727   1.734   3.537   3.145 -0.8490  0.1286 -0.4349
  188MOL0    Cl24728   1.608   3.426   3.216  0.0572 -0.1996 -0.0252
  188MOL0     C24729   2.413   4.263   3.193  0.0205  0.3577  0.3812
  188MOL0     C24730   2.532   4.307   3.251  0.8103 -0.6689  0.2286
  188MOL0     O24731   2.706   4.453   3.414 -0.6222  0.3138 -0.2203
  188MOL0     C24732   3.021   4.295   3.416  0.1773 -0.1051 -0.0692
  188MOL0     C24733   3.151   4.326   3.470 -0.5495 -0.0458 -1.0004
  188MOL0     N24734   3.245   4.904   3.698  0.3471  0.0492  0.5810
  188MOL0     N24735   3.119   4.933   3.675  0.1931 -0.4822  0.8078
  188MOL0     C24736   1.985   4.579   3.325 -0.2998 -0.8002  0.4115
  188MOL0     C24737   1.873   4.510   3.273 -0.0583 -0.6138  0.4184
  188MOL0     C24738   1.649   4.245   3.025  0.1910  0.3808  0.3328
  188MOL0     C24739   1.665   4.174   2.908 -0.4017  0.3699  0.3550
  188MOL0     C24740   1.563   4.094   2.853 -0.6607  0.7224 -0.7504
  188MOL0     C24741   1.438   4.094   2.916  0.1927 -0.2421  0.0241
  188MOL0     O24742   1.335   4.024   2.868 -0.7270 -0.0698 -0.4676
  188MOL0     C24743   1.367   3.916   2.776 -0.3982 -0.7128 -0.1386
  188MOL0     C24744   1.250   3.812   2.794 -1.0664 -0.1329 -0.2908
  188MOL0     C24745   1.246   3.704   2.675  0.4044 -0.5484 -0.3269
  188MOL0     C24746   1.371   3.620   2.642  0.0867  0.7337 -0.1742
  188MOL0     C24747   1.395   3.525   2.753  0.3368  0.5363  0.3675
  188MOL0     C24748   1.418   3.456   2.846 -0.1031  0.0592 -0.3480
  188MOL0     C24749   1.419   4.173   3.024  0.3074 -0.5327 -0.6372
  188MOL0     C24750   1.531   4.236   3.089  0.5809  0.5196 -0.4709
  188MOL0     H24751   1.962   4.194   3.325  0.4866  0.5617 -2.6753
  188MOL0     H24752   2.168   4.313   3.419 -0.8623 -2.1890 -0.5466
  188MOL0     H24753   2.360   4.455   3.445  2.1938 -0.5329  0.9800
  188MOL0     H24754   2.260   4.457   3.593  0.7693  0.1066 -0.1940
  188MOL0     H24755   2.457   4.596   3.635  1.4146  0.0906 -1.4245
  188MOL0     H24756   2.310   4.697   3.623 -1.0530 -0.6927 -1.1922
  188MOL0     H24757   2.373   4.756   3.388 -0.3486  0.3477  0.3076
  188MOL0     H24758   2.514   4.642   3.407  2.0345  2.1203 -0.4749
  188MOL0     H24759   2.554   4.893   3.422  0.0932 -1.1892 -1.0474
  188MOL0     H24760   2.483   4.888   3.586  1.7392  3.9295 -0.8726
  188MOL0     H24761   2.704   4.707   3.485 -1.2050  2.5732 -2.6302
  188MOL0     H24762   2.642   4.720   3.650  1.9225 -0.0481  0.1089
  188MOL0     H24763   2.864   4.832   3.653  0.7590  2.0240 -0.6182
  188MOL0     H24764   2.742   4.945   3.678  0.2813 -0.7820  1.8012
  188MOL0     H24765   2.888   4.851   3.415 -0.1558 -0.5918  1.7620
  188MOL0     H24766   2.762   4.991   3.424 -1.5050  1.0479  3.0976
  188MOL0     H24767   2.935   5.074   3.582 -1.8191 -1.7901  0.0780
  188MOL0     H24768   2.999   5.080   3.411  0.1294  0.0895  0.1382
  188MOL0     H24769   3.214   4.899   3.368  3.0689  0.1160  0.6266
  188MOL0     H24770   3.495   4.883   3.610 -1.5705 -0.7119  0.9818
  188MOL0     H24771   3.454   4.924   3.447  0.6034 -1.6572 -1.6225
  188MOL0     H24772   3.544   4.703   3.440  0.0422 -3.4148  1.4543
  188MOL0     H24773   3.381   4.658   3.437  0.4635  0.0824  0.2413
  188MOL0     H24774   3.560   4.557   3.613  0.1360 -0.5596  2.3891
  188MOL0     H24775   3.523   4.691   3.712  2.7199  0.2378 -1.0944
  188MOL0     H24776   3.272   4.635   3.715 -0.5544 -0.1643 -1.0464
  188MOL0     H24777   3.394   4.517   3.772  1.7963 -2.3115 -1.8743
  188MOL0     H24778   3.102   4.629   3.602  1.7338  0.0505  1.4469
  188MOL0     H24779   2.886   4.593   3.515 -0.2257 -0.0969 -1.9706
  188MOL0     H24780   2.706   4.018   3.223 -0.0765 -0.2654  1.4245
  188MOL0     H24781   2.493   3.946   3.139 -0.0466  0.2791 -0.9620
  188MOL0     H24782   2.243   4.256   2.958  0.8271 -0.0530  0.3425
  188MOL0     H24783   2.147   4.217   3.107  0.4239  2.7231 -0.4628
  188MOL0     H24784   2.147   4.024   2.862 -0.6435 -0.5671 -0.6734
  188MOL0     H24785   2.027   4.157   2.889  2.0524  2.3179  0.3583
  188MOL0     H24786   1.976   4.069   3.124  1.9299  0.1840  1.0686
  188MOL0     H24787   2.095   3.944   3.089 -0.4112 -0.8950  0.3401
  188MOL0     H24788   1.841   3.988   2.913 -3.5501 -1.1865  3.3982
  188MOL0     H24789   1.956   3.853   2.899  1.2951  0.3222  1.8127
  188MOL0     H24790   1.761   3.905   3.119  0.5575 -1.0905  1.8850
  188MOL0     H24791   1.882   3.780   3.126 -0.7124  0.3700  1.0978
  188MOL0     H24792   1.784   3.696   2.888 -3.0703 -0.1642 -2.5993
  188MOL0     H24793   1.658   3.808   2.921 -0.6219 -0.2805  0.5680
  188MOL0     H24794   1.591   3.703   3.126 -1.4723 -0.5150 -1.6402
  188MOL0     H24795   1.589   3.583   2.995 -0.3542  0.4566 -0.6895
  188MOL0     H24796   1.794   3.578   3.227  0.2762 -1.8855 -0.1574
  188MOL0     H24797   1.801   3.480   3.080 -0.1056  1.1902 -0.6072
  188MOL0     H24798   2.329   4.330   3.179 -1.9910 -1.9988  0.5465
  188MOL0     H24799   2.529   4.411   3.280  0.8407  0.2012 -2.5460
  188MOL0     H24800   2.991   4.195   3.388 -0.0399 -0.5669  1.6692
  188MOL0     H24801   3.228   4.249   3.469 -0.5373 -0.0909  0.5580
  188MOL0     H24802   2.006   4.684   3.309 -1.8701 -0.8039 -2.4334
  188MOL0     H24803   1.793   4.570   3.232  0.5753  1.7340  2.4042
  188MOL0     H24804   1.766   4.169   2.869 -0.5406 -0.3313  0.0662
  188MOL0     H24805   1.590   4.028   2.771 -1.9162 -0.2938 -0.3883
  188MOL0     H24806   1.456   3.864   2.810 -2.0378 -3.3472  0.3920
  188MOL0     H24807   1.363   3.959   2.675 -2.5882 -1.1684 -0.2874
  188MOL0     H24808   1.246   3.761   2.891 -1.0563  1.4177  0.5504
  188MOL0     H24809   1.154   3.865   2.796  0.7306  3.3827  1.1883
  188MOL0     H24810   1.205   3.759   2.590  3.2290  0.4341 -1.1649
  188MOL0     H24811   1.167   3.632   2.702  0.4535 -0.4213  0.1553
  188MOL0     H24812   1.363   3.566   2.547  1.1519 -1.1738  0.7774
  188MOL0     H24813   1.459   3.685   2.635  0.5371 -0.0188 -4.8249
  188MOL0     H24814   1.449   3.410   2.938  2.1282  2.7426  0.3814
  188MOL0     H24815   1.324   4.170   3.077  0.3778 -0.2343 -0.4921
  188MOL0     H24816   1.519   4.280   3.188  0.6637  2.8864 -1.4548
  189MOL0     O24817  10.444  10.598   6.483  0.4478  0.4013 -0.1809
  189MOL0     C24818  10.517  10.538   6.405  0.2981 -1.4000 -0.0197
  189MOL0     O24819  10.484  10.483   6.289 -0.4877  0.4473 -0.2374
  189MOL0     C24820  10.359  10.449   6.251  0.0561 -0.1907  0.1998
  189MOL0     C24821  10.288  10.528   6.155 -0.3968 -0.8665  0.1693
  189MOL0     C24822  10.160  10.499   6.115 -0.5626  0.9736  0.5585
  189MOL0     C24823  10.094  10.388   6.161 -0.6902 -0.8380  0.1431
  189MOL0     O24824   9.964  10.361   6.140 -0.4749 -0.8378  0.8712
  189MOL0     C24825   9.877  10.468   6.100 -0.7168 -0.0554  0.0687
  189MOL0     C24826   9.740  10.409   6.138 -0.0887 -0.4284  0.1506
  189MOL0     C24827   9.714  10.423   6.288  0.2826  0.0120  0.2155
  189MOL0     C24828   9.579  10.349   6.320 -0.7555  0.2969  0.5857
  189MOL0     C24829   9.566  10.197   6.288 -0.0369 -1.0124  0.3358
  189MOL0     C24830   9.419  10.157   6.272  0.0119  0.6155  0.4500
  189MOL0     C24831   9.345  10.162   6.409  0.6088 -0.3170  0.0899
  189MOL0     C24832   9.229  10.255   6.427  0.0726 -0.3459  0.4441
  189MOL0     N24833   9.106  10.203   6.359 -1.0736 -0.5229 -0.8358
  189MOL0     C24834   9.077  10.198   6.226  0.2459  0.4295  0.3929
  189MOL0     C24835   8.953  10.167   6.210  0.2079 -0.7748  0.3179
  189MOL0     C24836   8.890  10.175   6.066 -0.3055  0.3529 -0.8400
  189MOL0     C24837   8.939  10.292   5.985 -0.0270  0.0797 -0.1067
  189MOL0     C24838   8.839  10.312   5.868  1.0691 -0.9227  0.0407
  189MOL0     C24839   8.877  10.428   5.779 -0.1745  1.1005  0.3908
  189MOL0     O24840   8.809  10.415   5.660 -0.3729 -0.4266 -0.0052
  189MOL0     C24841   8.671  10.427   5.664  0.1292  0.5985 -0.1464
  189MOL0     C24842   8.593  10.350   5.573 -0.7787 -0.2324 -0.8035
  189MOL0     C24843   8.452  10.354   5.578 -0.5545  0.4321 -0.8565
  189MOL0     C24844   8.385  10.418   5.673  0.6229  0.4383 -0.6982
  189MOL0     C24845   8.242  10.398   5.684  0.8329 -0.1608  0.3375
  189MOL0     O24846   8.190  10.410   5.806 -0.5603 -0.1265  1.0147
  189MOL0     C24847   8.053  10.406   5.823  0.3322  0.3569 -1.0028
  189MOL0     C24848   7.960  10.321   5.750  0.5713  0.3240  0.0363
  189MOL0     C24849   7.819  10.310   5.788  0.1372  0.8455  0.5121
  189MOL0     C24850   7.775  10.391   5.893 -0.4344 -0.1625  0.0916
  189MOL0     O24851   7.645  10.367   5.933  0.2075 -0.5199 -0.1348
  189MOL0     C24852   7.621  10.272   6.034 -0.7904 -0.3080 -0.6125
  189MOL0     C24853   7.485  10.272   6.097 -0.1463 -0.5161 -0.2134
  189MOL0     C24854   7.371  10.281   5.989 -0.6642  0.4268  0.3264
  189MOL0     C24855   7.250  10.351   6.058  0.4968  0.9421  0.8279
  189MOL0     C24856   7.133  10.351   5.967 -0.4729 -0.3943 -0.0157
  189MOL0     C24857   7.014  10.452   5.989  0.4648  0.1361 -0.9033
  189MOL0     C24858   6.910  10.417   5.885  0.4088 -0.5984  0.4961
  189MOL0     C24859   6.784  10.487   5.913  0.1014 -1.0290  0.4234
  189MOL0    Cl24860   6.636  10.411   5.833  0.3022 -0.2840  0.0520
  189MOL0     C24861   7.862  10.473   5.968 -0.7680  0.5116 -0.4814
  189MOL0     C24862   8.006  10.478   5.934 -0.0722  0.0407 -0.4671
  189MOL0     O24863   8.180  10.392   5.574 -0.8085 -0.0839  0.5058
  189MOL0     C24864   8.460  10.503   5.753  1.7037  0.5255 -0.2839
  189MOL0     C24865   8.595  10.507   5.746 -0.4810  0.1049 -0.5813
  189MOL0     N24866   8.893  10.149   6.337 -0.7672 -0.2596 -0.8222
  189MOL0     N24867   8.989  10.164   6.423  0.4924  0.0333 -0.0458
  189MOL0     C24868  10.159  10.309   6.257 -0.6610  0.1148  0.1706
  189MOL0     C24869  10.288  10.340   6.306  0.0375  0.2077 -0.3495
  189MOL0     C24870  10.660  10.546   6.442 -0.2078 -0.0517  0.4405
  189MOL0     C24871  10.713  10.563   6.573  0.6971 -0.1018  0.7608
  189MOL0     C24872  10.849  10.559   6.593  0.2298 -0.1100 -0.0683
  189MOL0     C24873  10.943  10.554   6.484  0.9045 -0.4840 -0.2095
  189MOL0     O24874  11.069  10.572   6.503  0.2199 -0.3904 -0.1260
  189MOL0     C24875  11.127  10.579   6.633  0.6571 -0.7465  1.0093
  189MOL0     C24876  11.281  10.574   6.635  1.5610  0.1140 -0.5739
  189MOL0     C24877  11.325  10.438   6.575  0.8692  0.1471  0.4119
  189MOL0     C24878  11.456  10.415   6.636  0.1142  0.1922  0.0832
  189MOL0     C24879  11.533  10.308   6.573 -0.3667  0.1222  0.3162
  189MOL0     C24880  11.593  10.208   6.531 -0.0203  0.3672  0.0418
  189MOL0     C24881  10.890  10.563   6.356 -0.4062 -0.7296  0.2245
  189MOL0     C24882  10.753  10.565   6.332 -0.2846 -0.4303  0.1402
  189MOL0     H24883  10.338  10.615   6.114 -0.2355 -0.1820  1.7397
  189MOL0     H24884  10.116  10.560   6.037 -1.7153  2.8070  2.5137
  189MOL0     H24885   9.891  10.497   5.996 -0.1145  0.0280  0.1697
  189MOL0     H24886   9.894  10.560   6.157 -0.2573 -0.1631  0.1110
  189MOL0     H24887   9.734  10.307   6.099 -1.1677  1.0350 -3.9415
  189MOL0     H24888   9.660  10.465   6.090 -0.3759 -1.0983 -0.1518
  189MOL0     H24889   9.693  10.528   6.309 -2.0721 -0.4624  0.4973
  189MOL0     H24890   9.797  10.382   6.346 -0.2582 -1.0371  0.2644
  189MOL0     H24891   9.559  10.367   6.426  2.1745  2.2069  0.9354
  189MOL0     H24892   9.498  10.397   6.264 -1.6981 -1.9490 -0.0592
  189MOL0     H24893   9.608  10.157   6.381 -2.4241  0.5234  2.1822
  189MOL0     H24894   9.622  10.149   6.208  0.3479 -0.4253  0.2459
  189MOL0     H24895   9.417  10.055   6.233  1.2640  1.3400 -1.7045
  189MOL0     H24896   9.369  10.211   6.191 -3.2140 -0.8445  1.3061
  189MOL0     H24897   9.317  10.058   6.431  1.3837 -1.2292 -2.8019
  189MOL0     H24898   9.417  10.193   6.485  2.9779  0.9173 -2.4948
  189MOL0     H24899   9.260  10.346   6.373  3.7753 -2.9560 -2.3447
  189MOL0     H24900   9.209  10.267   6.534 -2.2715 -3.3078  0.4633
  189MOL0     H24901   9.147  10.216   6.145  1.1446  1.8643  1.4280
  189MOL0     H24902   8.786  10.204   6.085  0.1037  1.8664 -0.7461
  189MOL0     H24903   8.907  10.082   6.011  1.0011  0.6099 -0.8828
  189MOL0     H24904   9.041  10.276   5.948  0.8404  0.6342  1.8821
  189MOL0     H24905   8.935  10.378   6.053  0.2582  0.0224 -0.0149
  189MOL0     H24906   8.826  10.227   5.801 -2.0252  2.4872 -4.3580
  189MOL0     H24907   8.745  10.341   5.916  0.8836 -1.3922 -0.0358
  189MOL0     H24908   8.986  10.423   5.764 -0.4016 -0.1891 -1.0675
  189MOL0     H24909   8.857  10.525   5.825  1.3842  1.2055  0.9075
  189MOL0     H24910   8.636  10.282   5.500  0.7824  0.3390 -0.4500
  189MOL0     H24911   8.406  10.283   5.510 -0.2702 -2.4026  1.6752
  189MOL0     H24912   8.000  10.252   5.677  0.5731 -0.9085  1.1560
  189MOL0     H24913   7.752  10.238   5.742  4.2316 -0.8246 -3.6515
  189MOL0     H24914   7.700  10.277   6.110  1.1331 -2.3001 -2.3156
  189MOL0     H24915   7.648  10.175   5.991  3.5735  0.1121  0.6740
  189MOL0     H24916   7.468  10.356   6.165  2.2129 -0.1192 -0.0223
  189MOL0     H24917   7.472  10.182   6.158  3.3952 -1.4719 -0.6595
  189MOL0     H24918   7.343  10.181   5.957 -2.2448  0.8887  0.2284
  189MOL0     H24919   7.395  10.349   5.906 -2.0264 -0.8370 -1.1461
  189MOL0     H24920   7.221  10.295   6.147 -1.3731 -0.3402 -0.4977
  189MOL0     H24921   7.264  10.457   6.081 -1.6600  1.6747 -0.8314
  189MOL0     H24922   7.092  10.249   5.968  2.1131 -1.5106  0.4520
  189MOL0     H24923   7.167  10.373   5.866  0.2635  3.6668  0.9494
  189MOL0     H24924   7.042  10.556   5.970 -1.3970  0.6930 -0.8236
  189MOL0     H24925   6.986  10.436   6.093 -0.7771 -0.5340 -1.3183
  189MOL0     H24926   6.933  10.439   5.780  0.9910  1.9956  1.1087
  189MOL0     H24927   6.888  10.310   5.895 -2.7149  0.1893  4.4104
  189MOL0     H24928   6.787  10.596   5.909 -0.7354 -1.0326 -0.5904
  189MOL0     H24929   6.763  10.466   6.019 -1.6489 -0.2162  0.2700
  189MOL0     H24930   7.831  10.520   6.060  1.9309  1.0441  0.2374
  189MOL0     H24931   8.072  10.533   6.001 -0.5202 -0.9163  0.8012
  189MOL0     H24932   8.409  10.557   5.832 -0.5252 -0.7929 -0.7050
  189MOL0     H24933   8.648  10.570   5.817  2.1313 -0.3783 -1.9492
  189MOL0     H24934  10.085  10.239   6.295 -0.3374  0.3849  1.3094
  189MOL0     H24935  10.332  10.290   6.391 -2.5359  2.8717  2.7953
  189MOL0     H24936  10.641  10.583   6.651 -0.6119 -1.3630 -0.0633
  189MOL0     H24937  10.870  10.560   6.700  0.2262  0.1200 -0.0689
  189MOL0     H24938  11.084  10.485   6.669 -0.5539 -1.3704 -1.7815
  189MOL0     H24939  11.086  10.666   6.684  0.6511 -0.4493  0.5050
  189MOL0     H24940  11.330  10.657   6.583  3.0873  0.2774  1.0474
  189MOL0     H24941  11.311  10.572   6.740  2.0867  5.0987 -0.3551
  189MOL0     H24942  11.329  10.446   6.466  1.3269  0.5705  0.4543
  189MOL0     H24943  11.252  10.363   6.604  1.7633 -1.3012 -0.9327
  189MOL0     H24944  11.513  10.508   6.644  0.9515 -0.0832 -1.9559
  189MOL0     H24945  11.449  10.374   6.737  1.6266 -0.2513  0.0224
  189MOL0     H24946  11.650  10.127   6.491 -0.5230  1.2197 -2.5852
  189MOL0     H24947  10.954  10.565   6.269 -0.3643 -4.0630  0.0750
  189MOL0     H24948  10.723  10.582   6.229  3.1889  3.4294 -0.5203
  190MOL0     O24949  10.523   9.087   5.172  0.3370 -0.0401 -0.5733
  190MOL0     C24950  10.566   8.974   5.170  0.0920  0.6549  1.0922
  190MOL0     O24951  10.492   8.869   5.205 -0.3064 -0.4870  0.5762
  190MOL0     C24952  10.357   8.874   5.245  0.0908  0.4843 -0.6396
  190MOL0     C24953  10.287   8.762   5.204 -0.0533 -0.7695  0.4244
  190MOL0     C24954  10.163   8.738   5.245  0.7834  0.3174 -0.0099
  190MOL0     C24955  10.090   8.843   5.312  0.5180  0.0668  0.6705
  190MOL0     O24956   9.959   8.831   5.334 -0.3622 -0.1618  0.1518
  190MOL0     C24957   9.889   8.714   5.284 -0.2722  0.4257 -0.5330
  190MOL0     C24958   9.750   8.717   5.324 -0.2959  0.7895 -0.2001
  190MOL0     C24959   9.665   8.632   5.231 -0.0854 -0.0688  0.0264
  190MOL0     C24960   9.521   8.632   5.284  1.2653  1.0038  0.1361
  190MOL0     C24961   9.416   8.575   5.192  0.9363  0.5976  0.1191
  190MOL0     C24962   9.266   8.578   5.252  0.4896  0.0024 -0.3654
  190MOL0     C24963   9.180   8.495   5.155 -0.6770  0.6650  0.2980
  190MOL0     C24964   9.125   8.585   5.050  0.6052 -0.4245  0.0407
  190MOL0     N24965   9.017   8.527   4.971  0.2189 -0.3745  0.1660
  190MOL0     C24966   8.881   8.562   4.956 -1.2265 -0.2451 -0.2120
  190MOL0     C24967   8.846   8.515   4.833  0.6586 -0.6715 -0.1456
  190MOL0     C24968   8.713   8.551   4.775  0.0706  0.1844  0.2551
  190MOL0     C24969   8.604   8.451   4.787 -0.1703 -0.9528  0.3191
  190MOL0     C24970   8.469   8.517   4.748  0.9273  0.0616  0.6592
  190MOL0     C24971   8.360   8.406   4.791 -0.3580 -1.2347  0.7960
  190MOL0     O24972   8.230   8.473   4.782  0.8257 -0.2578  0.2400
  190MOL0     C24973   8.117   8.394   4.759  0.0989  0.5273 -0.2454
  190MOL0     C24974   7.992   8.460   4.757  0.5971 -0.4075  0.3250
  190MOL0     C24975   7.866   8.399   4.755 -0.0594 -0.1981  0.3351
  190MOL0     C24976   7.871   8.258   4.749 -0.2196  0.3656  0.3715
  190MOL0     C24977   7.741   8.187   4.724  1.0717  0.4387  0.1988
  190MOL0     O24978   7.720   8.058   4.780 -0.3967  0.0624  0.3066
  190MOL0     C24979   7.604   7.999   4.752  0.6681  0.3789  0.2377
  190MOL0     C24980   7.552   7.965   4.620 -0.1946 -0.4696  0.5663
  190MOL0     C24981   7.417   7.921   4.611 -0.6819  0.7443  0.1429
  190MOL0     C24982   7.325   7.923   4.714  0.4378 -0.2804  0.5553
  190MOL0     O24983   7.190   7.892   4.697 -0.3588  0.1321 -0.8358
  190MOL0     C24984   7.144   7.851   4.567  0.3447  0.3491 -0.4280
  190MOL0     C24985   6.993   7.857   4.585  0.1965  1.2984  0.7519
  190MOL0     C24986   6.933   7.760   4.691 -1.0745 -0.3738  0.2560
  190MOL0     C24987   6.944   7.614   4.652  0.6772  0.0669 -0.3815
  190MOL0     C24988   6.832   7.549   4.583  0.2396 -0.0556 -0.1343
  190MOL0     C24989   6.823   7.395   4.568  0.0004  0.9315 -0.3880
  190MOL0     C24990   6.821   7.318   4.704 -0.2346 -0.0704 -0.6626
  190MOL0     C24991   6.821   7.168   4.679  0.6788  0.4251 -0.3894
  190MOL0    Cl24992   6.670   7.116   4.591 -0.0744  0.0777 -0.0519
  190MOL0     C24993   7.380   7.956   4.842 -0.4529  0.5871 -0.2391
  190MOL0     C24994   7.507   7.992   4.860 -0.8425 -0.1590  0.4533
  190MOL0     O24995   7.650   8.250   4.674  0.3613 -0.4333  0.3457
  190MOL0     C24996   7.990   8.190   4.754 -0.3406  0.5514 -0.4995
  190MOL0     C24997   8.115   8.257   4.754  0.1596  0.4991  0.1366
  190MOL0     N24998   8.956   8.453   4.781 -0.0181 -0.0568 -0.7964
  190MOL0     N24999   9.052   8.459   4.860 -0.0164  0.2098 -0.0539
  190MOL0     C25000  10.162   8.957   5.344  0.6787  0.5862  0.5472
  190MOL0     C25001  10.293   8.977   5.312 -0.1217  0.1861 -0.1581
  190MOL0     C25002  10.707   8.955   5.147  0.2485  0.6009 -0.5046
  190MOL0     C25003  10.786   9.032   5.061 -0.0165 -0.1350 -1.0894
  190MOL0     C25004  10.924   9.005   5.042 -0.4142  0.0994  0.1646
  190MOL0     C25005  10.986   8.891   5.099  0.1665  0.5141 -0.2106
  190MOL0     O25006  11.118   8.877   5.093  0.2209 -0.7667  0.2589
  190MOL0     C25007  11.182   8.762   5.145  0.6440 -0.9507  0.1770
  190MOL0     C25008  11.333   8.770   5.128 -1.0536  0.4402  0.3619
  190MOL0     C25009  11.406   8.882   5.204  1.3720 -0.0796 -0.2907
  190MOL0     C25010  11.561   8.865   5.204  0.1934 -0.3828 -0.1202
  190MOL0     C25011  11.623   8.898   5.081  0.3143 -0.0773 -1.0769
  190MOL0     C25012  11.678   8.910   4.971 -0.0658 -0.0613  0.7429
  190MOL0     C25013  10.905   8.809   5.181  0.9992 -0.4634  0.6117
  190MOL0     C25014  10.767   8.848   5.203 -0.2020 -0.0208 -0.0586
  190MOL0     H25015  10.332   8.684   5.143 -1.9534 -0.1065 -1.9756
  190MOL0     H25016  10.123   8.645   5.203  3.2003 -0.1553 -1.4711
  190MOL0     H25017   9.940   8.625   5.320  1.2647  0.5417 -2.2811
  190MOL0     H25018   9.898   8.708   5.175 -0.0792 -1.4533 -0.4311
  190MOL0     H25019   9.701   8.815   5.318  0.1978  1.1808  1.6654
  190MOL0     H25020   9.744   8.686   5.428 -2.6699  2.4878  0.2444
  190MOL0     H25021   9.695   8.526   5.230  2.2955  0.4907  2.3687
  190MOL0     H25022   9.671   8.667   5.127  2.0219  1.1605  0.5136
  190MOL0     H25023   9.536   8.564   5.368 -0.0875 -0.2014 -0.5599
  190MOL0     H25024   9.481   8.730   5.312 -1.5258  0.9442 -2.9664
  190MOL0     H25025   9.449   8.473   5.171 -1.7277 -0.5788  1.2173
  190MOL0     H25026   9.415   8.626   5.095 -2.2039  1.3880  0.4845
  190MOL0     H25027   9.246   8.685   5.248  3.4871  0.8648  2.5415
  190MOL0     H25028   9.269   8.539   5.354  3.3214  0.4056 -0.2004
  190MOL0     H25029   9.229   8.413   5.101 -4.4635 -0.2873 -2.1535
  190MOL0     H25030   9.088   8.460   5.202  0.9389 -2.6984  1.2413
  190MOL0     H25031   9.206   8.621   4.986  0.7606 -1.5314 -0.4051
  190MOL0     H25032   9.090   8.683   5.085  0.8904  1.5560 -4.4996
  190MOL0     H25033   8.823   8.620   5.028 -1.4712 -1.5556  0.6827
  190MOL0     H25034   8.738   8.572   4.671  2.2269  1.5842  0.9988
  190MOL0     H25035   8.679   8.646   4.817 -3.4144  0.6390 -3.0843
  190MOL0     H25036   8.595   8.397   4.882  2.5006 -2.2426 -0.0902
  190MOL0     H25037   8.636   8.368   4.724  1.1293 -0.6852  0.5891
  190MOL0     H25038   8.449   8.610   4.803 -1.8815 -0.4112  0.5711
  190MOL0     H25039   8.469   8.533   4.640 -2.6946  2.9912  0.8904
  190MOL0     H25040   8.379   8.349   4.882  2.8830 -1.7633 -0.0711
  190MOL0     H25041   8.374   8.325   4.718  1.5221 -1.4497  1.3327
  190MOL0     H25042   8.005   8.564   4.785 -0.8187  0.1669 -1.0399
  190MOL0     H25043   7.772   8.454   4.763  0.6566  1.3681 -1.2166
  190MOL0     H25044   7.623   7.952   4.540  0.2238  1.8602  0.4780
  190MOL0     H25045   7.393   7.892   4.509 -0.7870  1.1373  0.0540
  190MOL0     H25046   7.193   7.758   4.538 -1.5520  0.0032 -2.8068
  190MOL0     H25047   7.173   7.928   4.495  0.5946  1.2391  0.5858
  190MOL0     H25048   6.936   7.841   4.493  1.1822 -3.1089  0.6777
  190MOL0     H25049   6.966   7.959   4.615 -3.5038  0.0789  2.1122
  190MOL0     H25050   6.829   7.781   4.716 -1.4276 -1.2561 -0.4448
  190MOL0     H25051   6.997   7.763   4.780 -0.1829 -0.4859 -0.3675
  190MOL0     H25052   7.038   7.608   4.597  2.0322  3.2798  1.3120
  190MOL0     H25053   6.950   7.562   4.749  3.1880  1.8674  0.5278
  190MOL0     H25054   6.821   7.589   4.482  0.2012 -3.0804 -1.4529
  190MOL0     H25055   6.746   7.576   4.646 -2.2060 -0.8661 -2.8801
  190MOL0     H25056   6.904   7.356   4.505 -0.3787  1.8909 -1.4957
  190MOL0     H25057   6.733   7.369   4.512 -0.3841 -0.2702  0.7217
  190MOL0     H25058   6.920   7.341   4.746  0.8630 -3.4202 -1.0791
  190MOL0     H25059   6.744   7.347   4.775  0.8022 -1.8996  1.3346
  190MOL0     H25060   6.814   7.116   4.775 -0.0981  0.7910 -0.2359
  190MOL0     H25061   6.910   7.134   4.626  1.0050  0.1714  0.3202
  190MOL0     H25062   7.322   7.947   4.934 -0.8583 -2.4730 -0.6882
  190MOL0     H25063   7.523   8.030   4.960 -0.1052 -0.8587  0.6159
  190MOL0     H25064   7.989   8.081   4.750  1.6284  0.3980  1.2498
  190MOL0     H25065   8.205   8.199   4.774 -1.5478 -1.5765  2.4304
  190MOL0     H25066  10.120   9.039   5.401  3.1597  2.6691 -0.4054
  190MOL0     H25067  10.339   9.072   5.338  2.8378 -0.6075 -1.9896
  190MOL0     H25068  10.752   9.120   5.008  0.5897  0.9074  0.1871
  190MOL0     H25069  10.983   9.073   4.981  2.9157 -2.8156 -0.1440
  190MOL0     H25070  11.132   8.680   5.093  1.8916 -1.8705  0.3911
  190MOL0     H25071  11.158   8.745   5.250 -3.6522 -2.0690 -0.7548
  190MOL0     H25072  11.370   8.683   5.183  0.8049  1.8349  1.4655
  190MOL0     H25073  11.364   8.769   5.024  3.2000 -1.1952  1.4375
  190MOL0     H25074  11.372   8.887   5.308 -0.4104  2.5984 -0.8972
  190MOL0     H25075  11.373   8.978   5.163 -0.9508 -0.7931 -0.2392
  190MOL0     H25076  11.607   8.936   5.273  3.0964 -3.8200  1.8118
  190MOL0     H25077  11.581   8.762   5.236  0.0847 -1.8837 -4.2507
  190MOL0     H25078  11.718   8.908   4.872  0.6380  1.5909  0.9593
  190MOL0     H25079  10.946   8.724   5.236 -0.2816 -0.0431  2.3142
  190MOL0     H25080  10.710   8.775   5.260  0.6742 -1.8044 -1.3488
  191MOL0     O25081   1.464   2.064   1.969 -0.3253 -0.1446 -0.4241
  191MOL0     C25082   1.411   1.955   1.985 -0.2072  0.4402  0.4945
  191MOL0     O25083   1.471   1.844   2.049  0.0414 -1.1013  0.3606
  191MOL0     C25084   1.605   1.849   2.057 -0.4510 -0.0878  0.8579
  191MOL0     C25085   1.679   1.778   1.963 -1.0540 -1.0207  0.4503
  191MOL0     C25086   1.817   1.793   1.970  0.3714  0.1929 -0.3265
  191MOL0     C25087   1.876   1.876   2.064 -0.3211  0.2729  0.1129
  191MOL0     O25088   2.009   1.907   2.077  0.2595  0.2657 -0.1649
  191MOL0     C25089   2.110   1.877   1.983  0.6653  0.0862 -0.5946
  191MOL0     C25090   2.164   1.739   2.011 -0.1201 -1.0261  0.1587
  191MOL0     C25091   2.263   1.704   1.902 -0.7714  0.6295 -0.0659
  191MOL0     C25092   2.380   1.608   1.957 -0.1989 -0.2033 -0.0889
  191MOL0     C25093   2.466   1.560   1.838 -0.2900  0.3457 -0.6321
  191MOL0     C25094   2.559   1.457   1.889 -0.0861 -0.1857 -0.9915
  191MOL0     C25095   2.648   1.394   1.783 -0.5820  0.2220  0.8487
  191MOL0     C25096   2.579   1.312   1.680 -0.2868 -0.6838  0.5004
  191MOL0     N25097   2.514   1.198   1.743 -0.6343 -0.1266  1.2920
  191MOL0     C25098   2.374   1.170   1.746 -0.3629  1.1377  0.2701
  191MOL0     C25099   2.346   1.085   1.851  0.4782  0.2808 -0.2445
  191MOL0     C25100   2.219   1.031   1.904  0.5325 -0.1479  0.1541
  191MOL0     C25101   2.117   1.136   1.914 -0.2079  0.1599 -0.5231
  191MOL0     C25102   1.980   1.089   1.966 -0.5074 -0.1969 -1.1741
  191MOL0     C25103   1.875   1.201   1.970  0.1104  0.7617 -0.5970
  191MOL0     O25104   1.752   1.148   2.018  0.0086  1.0328  0.1662
  191MOL0     C25105   1.640   1.197   1.966 -0.3791 -0.5811  1.2194
  191MOL0     C25106   1.624   1.325   1.908  0.9682 -0.1225  0.8863
  191MOL0     C25107   1.497   1.380   1.885 -0.5296  0.4753  0.8094
  191MOL0     C25108   1.382   1.296   1.895 -0.2852  0.3944 -0.7111
  191MOL0     C25109   1.249   1.347   1.873 -0.2777 -0.3233  0.3081
  191MOL0     O25110   1.144   1.258   1.847  0.1018 -0.9539 -0.5969
  191MOL0     C25111   1.013   1.304   1.860 -0.2213 -0.1449  0.2269
  191MOL0     C25112   0.974   1.420   1.807 -0.1453  0.2853  0.1648
  191MOL0     C25113   0.836   1.462   1.831 -0.5952  0.6673 -0.1558
  191MOL0     C25114   0.752   1.372   1.904  0.5617  0.4099  0.1375
  191MOL0     O25115   0.634   1.435   1.930 -0.7018  0.1006 -0.9322
  191MOL0     C25116   0.532   1.363   1.997  0.2359  0.6776  1.0301
  191MOL0     C25117   0.469   1.262   1.898 -0.8793 -0.4178 -0.4346
  191MOL0     C25118   0.349   1.172   1.943  0.2083 -0.8185 -0.1546
  191MOL0     C25119   0.293   1.096   1.826 -0.3585 -0.0276  0.3883
  191MOL0     C25120   0.142   1.067   1.851  0.2498  0.1780 -0.0897
  191MOL0     C25121   0.088   0.955   1.756 -0.3786 -0.1314  0.2314
  191MOL0     C25122  -0.064   0.940   1.777  0.3888  0.3996 -0.7381
  191MOL0     C25123  -0.124   0.837   1.675  0.3002  0.0655  0.0770
  191MOL0    Cl25124  -0.305   0.847   1.681  0.4577 -0.0584 -0.4701
  191MOL0     C25125   0.793   1.255   1.958  0.0633 -0.2310 -0.3710
  191MOL0     C25126   0.931   1.220   1.936 -0.4895  0.5715 -0.3641
  191MOL0     O25127   1.240   1.467   1.897 -0.1695 -0.6911 -0.5690
  191MOL0     C25128   1.400   1.161   1.950 -0.4472  0.2410  0.1837
  191MOL0     C25129   1.529   1.118   1.984 -0.0947  0.4257 -0.9458
  191MOL0     N25130   2.471   1.054   1.910 -0.3698 -1.0159  0.1082
  191MOL0     N25131   2.562   1.121   1.843 -0.7053  0.7277  0.0699
  191MOL0     C25132   1.799   1.940   2.163 -1.6327 -0.3873  0.1658
  191MOL0     C25133   1.664   1.923   2.155  0.5124  0.9211  0.7115
  191MOL0     C25134   1.267   1.936   1.955  0.3410  0.2012  0.0267
  191MOL0     C25135   1.219   1.811   1.931  0.1193 -0.4181  0.7514
  191MOL0     C25136   1.082   1.792   1.908 -0.1380  0.3631 -1.2481
  191MOL0     C25137   0.990   1.894   1.912  0.0142 -0.0349  0.0822
  191MOL0     O25138   0.851   1.867   1.898 -0.0412  0.2273  0.2454
  191MOL0     C25139   0.759   1.972   1.876  0.8287  0.0564  0.3530
  191MOL0     C25140   0.731   2.049   2.006 -0.8791 -0.6003 -0.3870
  191MOL0     C25141   0.652   2.179   1.998 -0.6011  0.0005  0.4596
  191MOL0     C25142   0.631   2.233   2.137  0.0175 -0.0670  0.0461
  191MOL0     C25143   0.541   2.355   2.138  0.0858  0.5341 -0.3637
  191MOL0     C25144   0.489   2.464   2.138 -0.2844  0.3619  0.4032
  191MOL0     C25145   1.042   2.026   1.937 -0.9455 -0.0250  0.0052
  191MOL0     C25146   1.178   2.038   1.960  0.1635  0.0729  0.1804
  191MOL0     H25147   1.622   1.716   1.894  0.0941 -1.4417 -0.1441
  191MOL0     H25148   1.871   1.728   1.902 -3.9228 -0.4473 -3.6194
  191MOL0     H25149   2.190   1.952   1.984  1.1553 -0.3966  1.3917
  191MOL0     H25150   2.055   1.883   1.888  1.5987  1.8229 -1.0658
  191MOL0     H25151   2.088   1.660   2.010  1.2747 -2.4226 -0.8152
  191MOL0     H25152   2.208   1.739   2.111 -2.4872 -0.9356  1.2729
  191MOL0     H25153   2.299   1.798   1.859 -0.7038 -0.5975 -2.8860
  191MOL0     H25154   2.211   1.655   1.820  1.8333 -0.3875 -1.2440
  191MOL0     H25155   2.438   1.667   2.029  3.8389 -1.4296 -2.0180
  191MOL0     H25156   2.340   1.516   1.999  0.5665 -0.3165  0.4252
  191MOL0     H25157   2.530   1.645   1.813  0.9840  0.1830  1.7798
  191MOL0     H25158   2.409   1.527   1.751 -1.7400 -2.5527  1.2701
  191MOL0     H25159   2.501   1.385   1.947 -1.1137  1.3651 -0.0385
  191MOL0     H25160   2.625   1.515   1.954 -0.0932 -1.1436 -0.1109
  191MOL0     H25161   2.697   1.473   1.725 -1.2444  0.6305  0.8451
  191MOL0     H25162   2.726   1.328   1.822  0.6702  2.2126  1.9060
  191MOL0     H25163   2.640   1.279   1.595 -1.3720 -3.9627  0.8348
  191MOL0     H25164   2.490   1.366   1.647 -1.9056 -2.6380  1.4180
  191MOL0     H25165   2.315   1.222   1.671  0.7868  0.9843 -0.7711
  191MOL0     H25166   2.233   0.985   2.002  0.3760 -1.8020 -0.5483
  191MOL0     H25167   2.179   0.951   1.841  1.7178  1.1871 -2.4432
  191MOL0     H25168   2.096   1.184   1.818  1.8708  0.0796 -1.0863
  191MOL0     H25169   2.148   1.222   1.974 -4.4564  0.3908  1.7220
  191MOL0     H25170   1.942   1.004   1.909 -1.1199 -0.2825 -0.6481
  191MOL0     H25171   1.994   1.051   2.067 -1.0832  1.6988 -0.3479
  191MOL0     H25172   1.863   1.240   1.869 -3.5337  1.2720 -0.1034
  191MOL0     H25173   1.911   1.286   2.030 -2.3294  1.4527  0.0112
  191MOL0     H25174   1.697   1.401   1.883 -0.5824  0.6026 -1.8294
  191MOL0     H25175   1.491   1.479   1.841  4.9013  0.8951  0.3442
  191MOL0     H25176   1.030   1.495   1.753 -0.5407  2.8757  3.0795
  191MOL0     H25177   0.801   1.558   1.793  1.0123 -0.2707 -4.5901
  191MOL0     H25178   0.452   1.429   2.031 -0.1757  0.0836  1.2326
  191MOL0     H25179   0.570   1.310   2.085  3.6693  0.5310 -0.3854
  191MOL0     H25180   0.544   1.194   1.857  0.9432  1.2261  0.0323
  191MOL0     H25181   0.441   1.319   1.810  0.6477 -1.0307 -1.3551
  191MOL0     H25182   0.276   1.236   1.995  1.5426  0.9005 -0.3023
  191MOL0     H25183   0.378   1.099   2.020  1.6395  0.5217  0.6382
  191MOL0     H25184   0.312   1.144   1.729  1.7916 -0.6066  0.4687
  191MOL0     H25185   0.349   1.002   1.819  0.4418  0.3711  1.2054
  191MOL0     H25186   0.082   1.158   1.838 -0.7057 -0.1955  1.4150
  191MOL0     H25187   0.137   1.028   1.953 -1.4917 -0.9448 -0.5623
  191MOL0     H25188   0.138   0.860   1.772 -1.2762 -0.2501  2.7097
  191MOL0     H25189   0.100   0.985   1.651  0.4894 -0.2102  0.2999
  191MOL0     H25190  -0.081   0.903   1.879 -1.0848  1.4710 -0.5603
  191MOL0     H25191  -0.112   1.037   1.763  1.3751  1.1504  0.7925
  191MOL0     H25192  -0.074   0.744   1.704  0.8467  0.0277 -0.9296
  191MOL0     H25193  -0.092   0.867   1.575  0.3474  0.6124  0.2524
  191MOL0     H25194   0.717   1.196   2.009 -3.4978  2.4350 -2.1498
  191MOL0     H25195   0.965   1.125   1.979 -2.0385  1.1388  2.3488
  191MOL0     H25196   1.314   1.099   1.973 -0.4880  0.6369  1.1647
  191MOL0     H25197   1.537   1.029   2.046 -0.4843  1.1049  0.1051
  191MOL0     H25198   1.846   1.996   2.243 -1.4981 -2.2594  1.4606
  191MOL0     H25199   1.598   1.980   2.220 -0.4139  0.5470  0.1109
  191MOL0     H25200   1.287   1.726   1.924  1.9322  1.0852 -0.9997
  191MOL0     H25201   1.051   1.696   1.868  1.6988 -1.1794  0.7825
  191MOL0     H25202   0.666   1.933   1.835  1.5100 -0.7567 -0.4630
  191MOL0     H25203   0.805   2.044   1.808 -1.5757  0.1102 -1.3232
  191MOL0     H25204   0.675   1.978   2.067 -2.2614  0.2742 -0.6038
  191MOL0     H25205   0.828   2.068   2.053  0.5099  1.3722 -3.6429
  191MOL0     H25206   0.567   2.155   1.933  0.1991 -1.6947  0.0015
  191MOL0     H25207   0.710   2.256   1.945  1.8786 -0.8955  1.7293
  191MOL0     H25208   0.584   2.151   2.193  0.5680  1.4783  2.9344
  191MOL0     H25209   0.730   2.255   2.176  0.0245  1.6123 -0.8183
  191MOL0     H25210   0.448   2.562   2.123 -0.5248  0.2175  0.1089
  191MOL0     H25211   0.971   2.107   1.938 -3.3539 -1.9014  3.2473
  191MOL0     H25212   1.214   2.138   1.985 -0.5827  1.1234 -2.5291
  192MOL0     O25213   9.303  10.171   3.717 -0.2735 -0.4239  0.3843
  192MOL0     C25214   9.305  10.283   3.669  0.5670 -1.0596  0.6352
  192MOL0     O25215   9.241  10.316   3.555 -0.8432  0.1666  0.5031
  192MOL0     C25216   9.241  10.226   3.455  0.9375  0.3565  0.5106
  192MOL0     C25217   9.125  10.195   3.382  0.3112  0.4135 -0.2964
  192MOL0     C25218   9.136  10.116   3.266 -0.5256 -0.4391  0.4322
  192MOL0     C25219   9.260  10.068   3.221  0.3200 -0.9539  0.3523
  192MOL0     O25220   9.241   9.982   3.114 -0.8929 -0.1733  0.1569
  192MOL0     C25221   9.353   9.921   3.055  0.2396  0.1114  0.6195
  192MOL0     C25222   9.289   9.813   2.962 -0.6113 -0.8272 -0.2521
  192MOL0     C25223   9.199   9.709   3.042  0.4437 -0.6610  0.3889
  192MOL0     C25224   9.132   9.600   2.949 -0.9254  1.2408  1.4013
  192MOL0     C25225   9.052   9.500   3.042  0.7142  0.0812  0.2409
  192MOL0     C25226   8.907   9.536   3.026  0.3304  0.4277  0.2577
  192MOL0     C25227   8.809   9.463   3.100 -0.0688  0.4844 -0.0682
  192MOL0     C25228   8.764   9.326   3.047 -0.2074  0.1452 -0.0827
  192MOL0     N25229   8.629   9.293   3.104  0.7047 -0.2238  0.7660
  192MOL0     C25230   8.513   9.362   3.080  0.4377 -0.7681  0.2069
  192MOL0     C25231   8.409   9.288   3.131  0.7064 -0.0558  0.1053
  192MOL0     C25232   8.264   9.327   3.109 -0.1159 -0.3027 -0.8925
  192MOL0     C25233   8.161   9.213   3.087  0.4518  0.8078 -0.2381
  192MOL0     C25234   8.017   9.215   3.159 -0.8723 -0.5245  0.0700
  192MOL0     C25235   7.932   9.344   3.135 -0.2710 -0.3548  0.2906
  192MOL0     O25236   7.806   9.327   3.192  0.7356  0.2674  0.5149
  192MOL0     C25237   7.699   9.410   3.155  0.0131 -0.8283  0.3734
  192MOL0     C25238   7.714   9.553   3.149  0.2796 -0.5324 -0.5971
  192MOL0     C25239   7.609   9.639   3.124 -0.7016 -0.4857 -0.2641
  192MOL0     C25240   7.482   9.584   3.098 -0.3813  0.0520  1.3712
  192MOL0     C25241   7.369   9.672   3.063  0.5168 -1.2161  0.3030
  192MOL0     O25242   7.253   9.621   3.028  0.2897 -0.7431  0.1061
  192MOL0     C25243   7.149   9.707   3.000  0.1610  0.2671  0.3068
  192MOL0     C25244   7.027   9.707   3.075 -0.8917 -0.3997 -0.4982
  192MOL0     C25245   6.908   9.750   3.019  0.2871  0.6060  0.3438
  192MOL0     C25246   6.914   9.825   2.903 -0.1001  0.9894 -0.3671
  192MOL0     O25247   6.814   9.882   2.838  0.6231  0.0492 -1.0990
  192MOL0     C25248   6.688   9.906   2.908  0.3404 -0.2437  0.2117
  192MOL0     C25249   6.633  10.006   2.812  1.1134  0.0483 -1.0028
  192MOL0     C25250   6.479  10.027   2.857 -0.2335  0.0624 -0.4015
  192MOL0     C25251   6.415  10.146   2.797  0.8158  0.8265 -0.6921
  192MOL0     C25252   6.363  10.127   2.652 -0.3141  0.2806  0.9574
  192MOL0     C25253   6.210  10.107   2.632 -0.6956  0.2174 -1.7411
  192MOL0     C25254   6.147  10.240   2.629 -0.3260  0.1940 -0.1953
  192MOL0     C25255   6.004  10.216   2.608  0.1566  0.2865  0.3463
  192MOL0    Cl25256   5.905  10.338   2.666  0.3111 -0.8956 -0.0292
  192MOL0     C25257   7.042   9.838   2.830  1.1644  0.5201 -0.4230
  192MOL0     C25258   7.154   9.788   2.886 -1.3963 -0.1049  0.4649
  192MOL0     O25259   7.390   9.793   3.072 -0.0938  0.0104 -0.5866
  192MOL0     C25260   7.464   9.445   3.113 -0.4770  0.3664 -0.3142
  192MOL0     C25261   7.575   9.362   3.155  0.5071  0.4629  0.3378
  192MOL0     N25262   8.470   9.171   3.176 -0.0769 -0.1682  0.0929
  192MOL0     N25263   8.598   9.171   3.166  0.1904 -0.6392  0.3120
  192MOL0     C25264   9.370  10.097   3.299 -0.6650  0.4894  1.4999
  192MOL0     C25265   9.364  10.170   3.416  0.4269  0.1416  0.7341
  192MOL0     C25266   9.373  10.386   3.743 -0.2475  0.0922 -0.5259
  192MOL0     C25267   9.428  10.362   3.871  0.9929  0.5663 -0.0598
  192MOL0     C25268   9.511  10.444   3.942 -1.0410  0.4326  0.0680
  192MOL0     C25269   9.547  10.563   3.887  0.2140  1.2419  0.4044
  192MOL0     O25270   9.626  10.657   3.945  0.2130 -0.5288 -0.3092
  192MOL0     C25271   9.685  10.617   4.068  0.3417 -0.0237  0.0388
  192MOL0     C25272   9.801  10.712   4.119  0.4633 -0.1633  0.2729
  192MOL0     C25273   9.842  10.672   4.259 -0.1556 -0.1106 -0.5793
  192MOL0     C25274   9.974  10.597   4.267  0.4401 -0.2587  0.5050
  192MOL0     C25275  10.048  10.634   4.390  0.6642  0.7712 -0.1365
  192MOL0     C25276  10.116  10.666   4.487 -0.4633 -0.4359  0.3225
  192MOL0     C25277   9.488  10.603   3.764 -0.1776 -0.0481  0.4606
  192MOL0     C25278   9.405  10.517   3.694  0.1028 -0.0469 -0.0112
  192MOL0     H25279   9.029  10.237   3.410  0.4687 -0.0371  0.9693
  192MOL0     H25280   9.046  10.086   3.212 -0.0432  0.2616 -0.8044
  192MOL0     H25281   9.415   9.871   3.130 -1.7239 -0.9081  1.6252
  192MOL0     H25282   9.419   9.984   2.994 -0.2033 -0.4474 -0.4831
  192MOL0     H25283   9.357   9.743   2.914 -1.4606 -1.9682  0.1592
  192MOL0     H25284   9.221   9.857   2.889 -1.8241  1.3553  2.0323
  192MOL0     H25285   9.113   9.755   3.093  0.7984 -1.2736  1.5875
  192MOL0     H25286   9.267   9.655   3.109 -0.4512 -0.1844  1.7356
  192MOL0     H25287   9.078   9.634   2.860  0.9861 -1.9603 -1.2199
  192MOL0     H25288   9.217   9.547   2.905 -1.8425  0.4751  0.4870
  192MOL0     H25289   9.091   9.496   3.144  0.1972  1.9471  0.5563
  192MOL0     H25290   9.064   9.398   3.005 -1.6730  0.2865 -1.3634
  192MOL0     H25291   8.888   9.505   2.923 -1.3186 -1.0101  0.9444
  192MOL0     H25292   8.894   9.644   3.034  1.5341  0.7099 -1.1477
  192MOL0     H25293   8.846   9.443   3.202  1.2519 -0.1685 -0.6453
  192MOL0     H25294   8.717   9.521   3.094 -0.0624  0.3446 -3.4056
  192MOL0     H25295   8.825   9.240   3.077 -0.0976 -0.2445 -1.3805
  192MOL0     H25296   8.748   9.318   2.939  0.2578 -0.5531 -0.1056
  192MOL0     H25297   8.515   9.454   3.022  1.7237 -1.3948 -0.7972
  192MOL0     H25298   8.245   9.388   3.021 -0.1427  0.6541 -0.2454
  192MOL0     H25299   8.252   9.394   3.195 -0.5652 -1.4721 -0.0268
  192MOL0     H25300   8.205   9.120   3.124 -1.4703 -1.1403 -2.5209
  192MOL0     H25301   8.153   9.204   2.979  0.8230 -1.9544 -0.0827
  192MOL0     H25302   7.971   9.124   3.120  1.2399 -1.1034 -1.2721
  192MOL0     H25303   8.029   9.202   3.268 -0.7759  2.7229  0.5288
  192MOL0     H25304   7.916   9.361   3.028 -1.3646 -2.6825  0.0232
  192MOL0     H25305   7.986   9.425   3.184  2.1102 -0.3879 -2.0064
  192MOL0     H25306   7.812   9.584   3.184 -0.0173  3.2700 -2.6562
  192MOL0     H25307   7.618   9.748   3.127 -0.8316 -0.4580 -0.8176
  192MOL0     H25308   7.016   9.632   3.152  1.3110 -0.0479  0.2349
  192MOL0     H25309   6.809   9.738   3.060  0.4897  2.5935  1.5607
  192MOL0     H25310   6.711   9.944   3.008  0.6685 -2.3128  0.9601
  192MOL0     H25311   6.624   9.820   2.927 -5.5600  3.6789  0.6174
  192MOL0     H25312   6.642   9.969   2.710 -0.4121  0.4465 -1.3029
  192MOL0     H25313   6.689  10.100   2.821 -0.4821  0.8298  2.6909
  192MOL0     H25314   6.482  10.045   2.965 -1.3547 -2.5608  0.1436
  192MOL0     H25315   6.414   9.941   2.840 -2.1167  1.0047  1.5969
  192MOL0     H25316   6.328  10.180   2.855 -0.2786 -1.9773 -0.5280
  192MOL0     H25317   6.478  10.236   2.800 -4.3963  5.0488  3.1225
  192MOL0     H25318   6.405  10.035   2.611 -2.6776 -2.0786  3.3998
  192MOL0     H25319   6.399  10.207   2.587  2.6813 -3.7051 -2.8350
  192MOL0     H25320   6.178  10.041   2.713  0.9802  2.6827  1.0921
  192MOL0     H25321   6.199  10.052   2.538 -1.7941 -2.0931 -0.3507
  192MOL0     H25322   6.173  10.294   2.720 -0.0044  1.4975 -1.0279
  192MOL0     H25323   6.185  10.300   2.546  1.3010  2.4646  2.0444
  192MOL0     H25324   5.957  10.122   2.637 -1.4862  0.8050 -0.5416
  192MOL0     H25325   5.995  10.216   2.499  0.2254 -0.3699  0.3329
  192MOL0     H25326   7.042   9.893   2.736  1.0310 -2.5977 -2.3929
  192MOL0     H25327   7.245   9.797   2.828 -0.6797 -0.9144  1.4138
  192MOL0     H25328   7.368   9.403   3.085 -0.1846 -0.0234 -0.7643
  192MOL0     H25329   7.548   9.257   3.161  0.3331  0.5287  0.6978
  192MOL0     H25330   9.462  10.050   3.266 -0.7610  0.4458  1.2865
  192MOL0     H25331   9.455  10.171   3.475  1.1470  4.0308 -0.1735
  192MOL0     H25332   9.403  10.263   3.909  0.5495  0.7501  0.1488
  192MOL0     H25333   9.534  10.400   4.039 -0.4054 -1.3088 -0.8168
  192MOL0     H25334   9.727  10.516   4.061  0.2977 -0.2364  2.1420
  192MOL0     H25335   9.601  10.611   4.138  0.0082  1.0348 -0.2466
  192MOL0     H25336   9.885  10.711   4.049  0.9928 -1.6997  0.8803
  192MOL0     H25337   9.757  10.812   4.116 -0.8075 -0.7137 -2.1001
  192MOL0     H25338   9.766  10.621   4.319 -1.0359  2.7609  0.9148
  192MOL0     H25339   9.873  10.766   4.306  0.9913 -0.9410  0.3798
  192MOL0     H25340   9.935  10.495   4.261 -2.6238  0.8694 -1.6282
  192MOL0     H25341  10.040  10.615   4.182  0.1385  0.8337  0.4846
  192MOL0     H25342  10.158  10.689   4.583 -2.5437 -2.7970  1.9152
  192MOL0     H25343   9.515  10.697   3.718 -1.5074  1.0597  1.8059
  192MOL0     H25344   9.380  10.534   3.589  0.7953 -1.1096 -0.3642
  193MOL0     O25345   8.999   3.498   4.664 -0.5214 -0.3296 -0.6877
  193MOL0     C25346   9.006   3.483   4.545 -0.0724 -0.9127 -0.3284
  193MOL0     O25347   8.892   3.454   4.473  0.1930 -0.3550  0.1668
  193MOL0     C25348   8.761   3.444   4.508  0.4726 -0.0763 -0.3940
  193MOL0     C25349   8.714   3.464   4.638 -0.3098 -0.3597  1.2037
  193MOL0     C25350   8.581   3.467   4.660 -0.0287 -0.5138  0.0315
  193MOL0     C25351   8.493   3.456   4.558  0.4846 -0.2892  0.4089
  193MOL0     O25352   8.364   3.491   4.592  0.3638  0.1756  0.5275
  193MOL0     C25353   8.268   3.390   4.564 -0.7522  0.3833 -0.2438
  193MOL0     C25354   8.129   3.449   4.524  0.7719  0.0998  0.5769
  193MOL0     C25355   8.033   3.457   4.638  1.0266 -0.6978 -0.0882
  193MOL0     C25356   7.915   3.535   4.608  0.2607  0.4837  0.0843
  193MOL0     C25357   7.857   3.581   4.748 -0.1092 -0.5933  0.5241
  193MOL0     C25358   7.722   3.636   4.739  0.8032 -1.1901  0.2268
  193MOL0     C25359   7.608   3.535   4.751 -0.1425 -0.5996  0.0699
  193MOL0     C25360   7.473   3.603   4.726  0.6988 -1.1105  0.2033
  193MOL0     N25361   7.362   3.514   4.735  0.1605 -0.2749  0.4380
  193MOL0     C25362   7.281   3.477   4.842 -0.1626 -0.5392  0.0858
  193MOL0     C25363   7.182   3.396   4.790  0.9124  1.1699 -0.6838
  193MOL0     C25364   7.073   3.317   4.858  0.6812  0.6496  0.1959
  193MOL0     C25365   7.097   3.302   5.016  0.4105 -0.5048 -0.3403
  193MOL0     C25366   7.196   3.197   5.047  0.4870  0.1843 -0.9793
  193MOL0     C25367   7.234   3.169   5.191  0.6642  0.4303  0.5764
  193MOL0     O25368   7.276   3.296   5.240  0.6643 -0.4511  0.0332
  193MOL0     C25369   7.408   3.337   5.219 -0.3129  0.3561  0.7303
  193MOL0     C25370   7.520   3.263   5.213 -0.1498 -0.2429  0.4726
  193MOL0     C25371   7.643   3.306   5.172  0.8480 -0.1928  0.2869
  193MOL0     C25372   7.671   3.443   5.131  0.9389 -0.9181 -0.6024
  193MOL0     C25373   7.811   3.486   5.102  0.5448  0.1745 -0.6806
  193MOL0     O25374   7.910   3.388   5.111 -1.0238 -0.0004  0.0969
  193MOL0     C25375   8.042   3.418   5.097 -0.4637 -0.1942  0.8904
  193MOL0     C25376   8.127   3.449   5.206 -0.2847  0.2621  0.4794
  193MOL0     C25377   8.259   3.488   5.184 -0.1097  0.0454 -0.4530
  193MOL0     C25378   8.317   3.506   5.058 -0.1835 -0.5048 -0.4602
  193MOL0     O25379   8.439   3.570   5.038  0.0994  0.4504 -0.4660
  193MOL0     C25380   8.542   3.536   5.132 -0.2454 -1.2104 -0.1348
  193MOL0     C25381   8.679   3.609   5.109 -0.0712 -0.8803  0.5362
  193MOL0     C25382   8.699   3.616   4.959  0.2625  0.0035 -0.4137
  193MOL0     C25383   8.838   3.671   4.905 -0.4085 -0.4372  0.5306
  193MOL0     C25384   8.968   3.588   4.947  0.0338 -0.1964  0.5615
  193MOL0     C25385   9.103   3.659   4.899 -0.5763  0.0241  0.4769
  193MOL0     C25386   9.141   3.779   4.986 -0.1992  0.4712  0.0736
  193MOL0     C25387   9.273   3.844   4.942 -0.2429  0.0847  0.3187
  193MOL0    Cl25388   9.344   3.946   5.076  0.3614 -0.1751  0.4455
  193MOL0     C25389   8.246   3.459   4.954  0.2279  0.0941  0.1885
  193MOL0     C25390   8.109   3.416   4.969  0.3603 -0.7071  0.2770
  193MOL0     O25391   7.828   3.602   5.060  0.1976  0.2250  0.4101
  193MOL0     C25392   7.557   3.525   5.149  0.6547 -0.2719  0.6235
  193MOL0     C25393   7.435   3.475   5.196  0.1945 -0.0426 -0.6022
  193MOL0     N25394   7.207   3.378   4.652 -0.1853  0.0212 -1.6967
  193MOL0     N25395   7.302   3.458   4.626 -1.1955 -0.3096 -0.5228
  193MOL0     C25396   8.534   3.426   4.425  0.4428  0.3818  0.0772
  193MOL0     C25397   8.668   3.420   4.406  0.3494  0.1815  0.0851
  193MOL0     C25398   9.133   3.483   4.479 -0.3748 -0.1128  0.1030
  193MOL0     C25399   9.242   3.551   4.540  0.0888 -0.7396 -0.6258
  193MOL0     C25400   9.357   3.571   4.473 -0.4850  0.1148 -0.4747
  193MOL0     C25401   9.375   3.508   4.344  0.0978 -0.2655  0.2079
  193MOL0     O25402   9.480   3.542   4.267 -0.3827  0.4474  0.8736
  193MOL0     C25403   9.595   3.620   4.307  0.6670  0.1778  0.0998
  193MOL0     C25404   9.637   3.685   4.183 -0.6587  0.8102 -0.2304
  193MOL0     C25405   9.715   3.585   4.089  0.9374  0.3346  0.2312
  193MOL0     C25406   9.769   3.656   3.968  0.5037  0.8220  0.0057
  193MOL0     C25407   9.870   3.753   4.014 -1.1817  0.0868 -0.0105
  193MOL0     C25408   9.942   3.849   4.037 -0.1334  1.5361 -0.1323
  193MOL0     C25409   9.269   3.429   4.296 -0.6657  0.2092  1.7427
  193MOL0     C25410   9.147   3.420   4.352  0.1148  0.6786 -0.5190
  193MOL0     H25411   8.788   3.483   4.716 -0.9671  3.3389  1.1166
  193MOL0     H25412   8.541   3.485   4.759  0.1295 -2.0283  0.3852
  193MOL0     H25413   8.252   3.323   4.649  0.2140  1.3850  0.7820
  193MOL0     H25414   8.302   3.330   4.479  2.8946  0.4916  0.9603
  193MOL0     H25415   8.079   3.394   4.444  2.6888  0.7774 -1.1930
  193MOL0     H25416   8.150   3.549   4.485  0.4562 -1.0713 -2.8952
  193MOL0     H25417   8.086   3.499   4.723  2.4257  0.6683 -1.5713
  193MOL0     H25418   8.008   3.351   4.652 -3.0583  0.1140 -0.0810
  193MOL0     H25419   7.939   3.621   4.545  1.4723 -0.4820 -0.8337
  193MOL0     H25420   7.842   3.471   4.555  1.0741 -1.1059  0.8135
  193MOL0     H25421   7.927   3.656   4.785  1.6782 -2.2361  0.6788
  193MOL0     H25422   7.879   3.499   4.817  2.3455  0.3229  0.9424
  193MOL0     H25423   7.726   3.691   4.645  3.4102 -3.0558 -0.8832
  193MOL0     H25424   7.713   3.718   4.811 -1.7949 -1.5541  0.4060
  193MOL0     H25425   7.625   3.456   4.677  1.0650  4.1691 -5.5249
  193MOL0     H25426   7.611   3.493   4.852 -0.9343 -2.7812 -0.7692
  193MOL0     H25427   7.455   3.645   4.627 -1.7134  0.5549  1.2612
  193MOL0     H25428   7.463   3.679   4.803  2.0390 -3.0662  2.4624
  193MOL0     H25429   7.285   3.514   4.943 -1.3458  1.1778 -0.4462
  193MOL0     H25430   7.073   3.214   4.822  0.1944  0.7029  0.0343
  193MOL0     H25431   6.973   3.356   4.840 -0.7182 -1.9094  1.8527
  193MOL0     H25432   7.008   3.283   5.076  0.7387  0.9294  0.6679
  193MOL0     H25433   7.129   3.399   5.057 -1.2048 -0.6345  1.3579
  193MOL0     H25434   7.151   3.104   5.012 -0.6690 -0.1501  1.2526
  193MOL0     H25435   7.296   3.220   5.007  2.1027  0.1209  2.6328
  193MOL0     H25436   7.305   3.086   5.200 -0.3116 -0.3975  0.8389
  193MOL0     H25437   7.157   3.144   5.264  0.7501  4.1699  2.1675
  193MOL0     H25438   7.509   3.160   5.245 -0.0726 -0.6771 -0.8390
  193MOL0     H25439   7.719   3.228   5.167 -0.3863 -1.6573  2.3969
  193MOL0     H25440   8.102   3.459   5.311 -0.0807  0.0593  0.5480
  193MOL0     H25441   8.310   3.532   5.269  0.1620 -1.6371  0.2896
  193MOL0     H25442   8.564   3.430   5.116  0.4187 -0.8146 -2.1208
  193MOL0     H25443   8.512   3.554   5.236 -0.2544 -1.1273 -0.1521
  193MOL0     H25444   8.767   3.565   5.156  2.5383  1.8940 -1.3152
  193MOL0     H25445   8.669   3.708   5.155  1.3508 -1.1707  1.5464
  193MOL0     H25446   8.621   3.670   4.905  1.3426  0.9947 -1.0216
  193MOL0     H25447   8.695   3.509   4.936 -0.5016 -0.1409  0.3713
  193MOL0     H25448   8.823   3.672   4.797 -1.9554 -0.7383  0.7287
  193MOL0     H25449   8.836   3.774   4.941 -0.5437 -0.5289  0.7882
  193MOL0     H25450   8.963   3.485   4.909 -0.2364  1.1931 -3.6032
  193MOL0     H25451   8.976   3.602   5.056 -2.2215  3.0221  0.4538
  193MOL0     H25452   9.097   3.693   4.795 -1.1226 -0.4171  0.3582
  193MOL0     H25453   9.181   3.582   4.899  0.3035  0.8517  2.5951
  193MOL0     H25454   9.050   3.839   4.988 -0.7069 -0.2526  3.1638
  193MOL0     H25455   9.164   3.733   5.083  0.2872 -1.5369 -0.9495
  193MOL0     H25456   9.264   3.888   4.842 -1.9960 -0.1339  0.3567
  193MOL0     H25457   9.357   3.775   4.925 -0.2281 -0.7238  3.2083
  193MOL0     H25458   8.293   3.458   4.856 -2.4597  1.4627 -1.2302
  193MOL0     H25459   8.058   3.379   4.881  0.1983  1.0436 -0.4002
  193MOL0     H25460   7.564   3.632   5.132 -1.7198  0.1023  1.5482
  193MOL0     H25461   7.357   3.548   5.210 -2.3135 -1.7201 -4.2127
  193MOL0     H25462   8.454   3.420   4.351 -1.2930  1.8209  1.7465
  193MOL0     H25463   8.705   3.411   4.304 -0.8980 -0.0894 -0.3621
  193MOL0     H25464   9.221   3.589   4.639 -0.0991 -1.5983 -0.3225
  193MOL0     H25465   9.438   3.615   4.531 -1.1087 -0.0980  0.5819
  193MOL0     H25466   9.673   3.558   4.351  1.9794  1.3372 -0.5252
  193MOL0     H25467   9.571   3.698   4.380  0.8436  0.0120  0.3347
  193MOL0     H25468   9.552   3.725   4.127 -2.3636 -0.9651  0.9643
  193MOL0     H25469   9.710   3.764   4.203  1.7003 -1.0818 -0.9125
  193MOL0     H25470   9.638   3.513   4.060 -1.1138  2.3942  0.3772
  193MOL0     H25471   9.796   3.535   4.144  2.3211  1.7044 -0.5004
  193MOL0     H25472   9.807   3.581   3.899  0.5404 -0.8834  1.7858
  193MOL0     H25473   9.684   3.707   3.922 -0.5463 -0.0583  0.9006
  193MOL0     H25474  10.007   3.933   4.052  1.3385  0.5073 -0.5629
  193MOL0     H25475   9.289   3.377   4.203  2.3739  0.7591  1.9764
  193MOL0     H25476   9.068   3.354   4.320 -1.9557  1.7529  2.0000
  194MOL0     O25477   5.067   7.118   3.608 -0.3645  0.0831 -0.2081
  194MOL0     C25478   5.125   7.224   3.593 -0.8780  0.1018  0.0899
  194MOL0     O25479   5.207   7.276   3.692 -0.0096  0.9721  0.2865
  194MOL0     C25480   5.242   7.194   3.803  0.5789  0.2888 -1.2852
  194MOL0     C25481   5.377   7.181   3.827  0.1769  0.5888 -0.5328
  194MOL0     C25482   5.423   7.111   3.933 -0.3664 -1.0550 -0.4152
  194MOL0     C25483   5.338   7.059   4.021  0.3534  1.2066  0.1607
  194MOL0     O25484   5.389   7.004   4.136 -0.5710  0.1385 -0.5246
  194MOL0     C25485   5.403   7.098   4.243  0.4101 -0.5576  0.0057
  194MOL0     C25486   5.478   7.026   4.355 -1.1367 -0.2186  0.0536
  194MOL0     C25487   5.484   7.103   4.489  0.7228 -0.8153 -0.5820
  194MOL0     C25488   5.516   7.006   4.597 -0.2877  0.5861 -0.3225
  194MOL0     C25489   5.519   7.089   4.732 -0.3942  0.2856 -0.1781
  194MOL0     C25490   5.659   7.158   4.750 -0.0022 -0.6645 -0.3324
  194MOL0     C25491   5.669   7.238   4.883  0.1871  0.0720 -0.3067
  194MOL0     C25492   5.808   7.292   4.932 -0.0502 -0.1719 -0.4741
  194MOL0     N25493   5.786   7.345   5.062  0.5522 -0.0195 -0.4807
  194MOL0     C25494   5.747   7.470   5.078 -0.8499 -0.2699  0.6444
  194MOL0     C25495   5.722   7.481   5.206  0.4581  0.5743 -1.0548
  194MOL0     C25496   5.650   7.601   5.268  0.8142 -0.3592  0.1883
  194MOL0     C25497   5.503   7.576   5.265  0.4155 -0.1135  0.1594
  194MOL0     C25498   5.429   7.700   5.311 -0.5716  0.5177  0.2820
  194MOL0     C25499   5.280   7.683   5.258  0.1455 -0.4707 -0.2663
  194MOL0     O25500   5.220   7.577   5.328  0.2560 -0.1745  0.2368
  194MOL0     C25501   5.084   7.560   5.330  0.4518 -0.2502 -0.3901
  194MOL0     C25502   4.996   7.656   5.284 -0.2232  0.6624 -0.3279
  194MOL0     C25503   4.859   7.639   5.290  0.4669 -0.0573 -0.3479
  194MOL0     C25504   4.804   7.520   5.340  0.7389 -0.1890  0.4169
  194MOL0     C25505   4.658   7.498   5.322  0.7389  0.0842  0.4677
  194MOL0     O25506   4.594   7.564   5.223 -1.1630 -0.1846  0.0020
  194MOL0     C25507   4.466   7.518   5.210 -0.1573  0.9678 -0.3360
  194MOL0     C25508   4.374   7.531   5.315  0.1921  0.4956  0.1301
  194MOL0     C25509   4.245   7.475   5.297  1.0999  1.1569 -0.2084
  194MOL0     C25510   4.221   7.369   5.207  0.4923 -0.3716  0.7825
  194MOL0     O25511   4.117   7.281   5.213  0.3341  0.0827 -0.1682
  194MOL0     C25512   4.152   7.179   5.311  0.7225  0.0781  0.8647
  194MOL0     C25513   4.030   7.114   5.362  0.2593  0.6535 -0.4836
  194MOL0     C25514   3.927   7.211   5.412 -1.0948  1.0338  0.3652
  194MOL0     C25515   3.809   7.139   5.484 -0.2995  0.0239 -0.7101
  194MOL0     C25516   3.739   7.254   5.566 -0.3370 -0.0263 -0.0588
  194MOL0     C25517   3.603   7.220   5.626 -1.0017  0.1748  0.1514
  194MOL0     C25518   3.545   7.317   5.730  0.2651  0.6150  0.8148
  194MOL0     C25519   3.396   7.296   5.738  0.2801 -0.0783 -0.9841
  194MOL0    Cl25520   3.308   7.349   5.590  0.0763 -0.0571  0.2829
  194MOL0     C25521   4.316   7.358   5.106  0.9662  0.7996 -0.0547
  194MOL0     C25522   4.434   7.432   5.102 -0.6678 -0.7157  0.4623
  194MOL0     O25523   4.606   7.410   5.393 -0.0380  0.6719  0.0910
  194MOL0     C25524   4.881   7.441   5.418  0.0360  0.1248  1.4316
  194MOL0     C25525   5.020   7.454   5.403  0.4075 -0.6871 -0.3082
  194MOL0     N25526   5.736   7.361   5.270 -0.2314 -0.8071  0.4049
  194MOL0     N25527   5.768   7.278   5.181 -0.3538 -0.4366  0.2737
  194MOL0     C25528   5.200   7.062   3.998  0.7013  0.0783 -0.8639
  194MOL0     C25529   5.148   7.123   3.885 -0.4309 -0.4124  0.8609
  194MOL0     C25530   5.102   7.296   3.470 -0.3998  0.6655 -0.6047
  194MOL0     C25531   5.024   7.248   3.368 -0.5950 -0.3639 -0.0854
  194MOL0     C25532   5.006   7.335   3.259 -0.1067 -0.8817  0.1770
  194MOL0     C25533   5.075   7.458   3.243 -0.0423  0.4193  0.0329
  194MOL0     O25534   5.087   7.541   3.137  0.4503  0.5869 -0.1762
  194MOL0     C25535   5.073   7.488   3.010  1.2063  0.8761  0.3962
  194MOL0     C25536   4.932   7.473   2.965 -0.1258  0.3948  0.2829
  194MOL0     C25537   4.844   7.602   2.956  1.0837  0.5914 -0.2985
  194MOL0     C25538   4.798   7.665   3.090  0.1060 -0.7094 -0.2568
  194MOL0     C25539   4.691   7.760   3.080  0.4036  0.8955 -0.1743
  194MOL0     C25540   4.619   7.851   3.061  0.5354  0.0233  0.3173
  194MOL0     C25541   5.168   7.487   3.343  0.3877 -0.3978 -0.9426
  194MOL0     C25542   5.176   7.413   3.456  0.7318 -0.5507  0.3006
  194MOL0     H25543   5.451   7.205   3.752  2.3689  0.3815  1.4296
  194MOL0     H25544   5.530   7.098   3.945  0.1470  2.5778 -0.0459
  194MOL0     H25545   5.302   7.118   4.282  1.1151 -0.3323  1.8383
  194MOL0     H25546   5.449   7.194   4.218 -1.3449 -0.5421 -3.8000
  194MOL0     H25547   5.580   6.998   4.329 -1.1799 -0.9373  0.6409
  194MOL0     H25548   5.422   6.934   4.376 -2.0056 -0.2543 -2.1670
  194MOL0     H25549   5.392   7.153   4.520  0.0549 -0.0685 -3.5057
  194MOL0     H25550   5.565   7.177   4.491  0.8110 -0.9266  0.2061
  194MOL0     H25551   5.433   6.935   4.598 -0.9163  1.2856 -1.3732
  194MOL0     H25552   5.610   6.951   4.591 -0.8112 -0.3007 -0.4691
  194MOL0     H25553   5.505   7.026   4.820  0.1982 -0.2335 -0.4507
  194MOL0     H25554   5.442   7.168   4.734 -0.9479 -0.2523  0.1679
  194MOL0     H25555   5.664   7.236   4.673 -0.1050  2.1241  2.2942
  194MOL0     H25556   5.741   7.087   4.733 -0.7787 -1.4259 -0.9624
  194MOL0     H25557   5.597   7.320   4.883 -0.1615 -0.1948  1.9963
  194MOL0     H25558   5.642   7.164   4.957 -0.0740 -0.5920 -1.0531
  194MOL0     H25559   5.835   7.370   4.860 -0.5101  0.0409 -0.4163
  194MOL0     H25560   5.890   7.219   4.935  1.4171  1.4299 -0.0761
  194MOL0     H25561   5.743   7.554   5.009  2.0499 -0.5355  0.0437
  194MOL0     H25562   5.667   7.682   5.196 -1.2252 -0.2924 -0.2669
  194MOL0     H25563   5.691   7.640   5.362  2.6914  0.4925 -0.9073
  194MOL0     H25564   5.480   7.485   5.321  2.9606 -1.5592 -0.9530
  194MOL0     H25565   5.479   7.554   5.161  1.3085  1.1864 -0.3501
  194MOL0     H25566   5.426   7.707   5.420  0.0935 -0.7632  0.4103
  194MOL0     H25567   5.478   7.777   5.252  1.6994  0.7943  2.3390
  194MOL0     H25568   5.277   7.654   5.152  0.1335 -3.2532  0.3986
  194MOL0     H25569   5.245   7.785   5.272  4.6467  0.9983  2.2215
  194MOL0     H25570   5.050   7.740   5.240  2.3964 -0.8904 -0.2741
  194MOL0     H25571   4.799   7.724   5.261 -0.0868  0.0572  1.0679
  194MOL0     H25572   4.397   7.604   5.391 -0.0541  0.8426 -0.1239
  194MOL0     H25573   4.166   7.491   5.370 -0.1644 -1.8934 -0.7663
  194MOL0     H25574   4.216   7.210   5.394  4.0290 -3.5087 -0.1015
  194MOL0     H25575   4.225   7.113   5.264  1.5691 -0.8674  3.3417
  194MOL0     H25576   4.059   7.040   5.437  1.0293 -0.6017 -1.9699
  194MOL0     H25577   3.981   7.060   5.280 -0.8538  0.8032  0.0600
  194MOL0     H25578   3.898   7.268   5.324 -0.1107  2.6575  1.0383
  194MOL0     H25579   3.976   7.273   5.488  3.0720 -0.5520 -0.7545
  194MOL0     H25580   3.738   7.089   5.418 -1.2047 -1.7973  1.5330
  194MOL0     H25581   3.860   7.068   5.550  2.3712  1.4887 -1.0156
  194MOL0     H25582   3.729   7.344   5.505  0.4619 -0.7081 -1.2309
  194MOL0     H25583   3.807   7.289   5.644  0.0143 -0.7898 -0.0118
  194MOL0     H25584   3.600   7.122   5.673  0.9626 -0.5733 -1.1347
  194MOL0     H25585   3.534   7.227   5.541  0.8220  1.3902 -1.3287
  194MOL0     H25586   3.583   7.301   5.831 -2.6151  4.0572  2.6965
  194MOL0     H25587   3.573   7.418   5.698  0.4869  0.1351 -0.5610
  194MOL0     H25588   3.357   7.355   5.822 -0.7309 -1.0543 -0.7445
  194MOL0     H25589   3.370   7.193   5.763  2.8815 -0.5740  0.0229
  194MOL0     H25590   4.277   7.289   5.032 -3.1421  0.7220  1.9236
  194MOL0     H25591   4.519   7.426   5.035 -0.7440  1.3277  0.0953
  194MOL0     H25592   4.842   7.359   5.477  2.3368 -0.9709  1.5453
  194MOL0     H25593   5.088   7.382   5.448 -1.7325 -3.5321 -1.3047
  194MOL0     H25594   5.131   7.018   4.070  0.3168  0.7838 -0.7945
  194MOL0     H25595   5.043   7.131   3.859  0.0109 -2.5438 -2.1865
  194MOL0     H25596   4.974   7.153   3.357 -1.4321  0.2578 -2.0918
  194MOL0     H25597   4.954   7.277   3.183 -3.0813 -0.0611  1.4147
  194MOL0     H25598   5.124   7.392   3.007  2.0894  1.3602 -0.5001
  194MOL0     H25599   5.110   7.547   2.926 -2.2895  0.5274 -1.5962
  194MOL0     H25600   4.937   7.429   2.864 -0.1717  1.5722 -0.2469
  194MOL0     H25601   4.881   7.400   3.029  2.0609 -0.9847  0.5454
  194MOL0     H25602   4.751   7.564   2.913  1.5025 -2.0269  0.8895
  194MOL0     H25603   4.881   7.678   2.887 -1.0526  2.2851  0.3074
  194MOL0     H25604   4.777   7.581   3.157 -0.4817 -0.2861  0.1025
  194MOL0     H25605   4.888   7.713   3.129  0.5331 -2.3677  0.9190
  194MOL0     H25606   4.547   7.925   3.032 -1.5341 -1.7806  0.5797
  194MOL0     H25607   5.233   7.573   3.333  0.2824 -0.2058 -0.1043
  194MOL0     H25608   5.245   7.456   3.528 -1.6412  0.6134  2.0209
  195MOL0     O25609   5.366   6.419   0.900 -1.0601  0.2629 -0.8541
  195MOL0     C25610   5.379   6.531   0.846  0.2434  0.1447 -0.4704
  195MOL0     O25611   5.274   6.625   0.843 -0.1625 -0.1617 -0.0845
  195MOL0     C25612   5.154   6.601   0.901  0.6186 -0.4444 -0.4046
  195MOL0     C25613   5.087   6.723   0.927  0.4890 -0.4386  0.1779
  195MOL0     C25614   4.958   6.729   0.990  0.3069  0.7805  0.3610
  195MOL0     C25615   4.897   6.613   1.030 -0.4427 -0.8108 -0.0546
  195MOL0     O25616   4.779   6.599   1.086  0.2671  0.1624  0.1439
  195MOL0     C25617   4.667   6.696   1.071 -0.3472  0.4447 -0.3944
  195MOL0     C25618   4.586   6.665   0.945 -0.1437 -0.3646  0.2964
  195MOL0     C25619   4.466   6.764   0.934  0.4447 -0.7119  1.1753
  195MOL0     C25620   4.364   6.738   1.041  0.2759  0.1990  0.3615
  195MOL0     C25621   4.215   6.792   1.009 -1.0213 -1.1374  0.8448
  195MOL0     C25622   4.164   6.925   1.079  0.2111  0.0396  0.3109
  195MOL0     C25623   4.030   6.989   1.027 -0.6559  0.1836  0.5475
  195MOL0     C25624   3.917   6.888   1.040  0.5271  0.5437  0.1179
  195MOL0     N25625   3.795   6.940   0.971 -0.2547  0.1810 -0.6606
  195MOL0     C25626   3.710   6.869   0.892 -0.1911  0.1856  0.2011
  195MOL0     C25627   3.610   6.946   0.859  0.6033 -0.1040  0.4596
  195MOL0     C25628   3.488   6.905   0.776 -0.6395 -0.4374 -0.3891
  195MOL0     C25629   3.512   6.816   0.652  0.1717  0.3803 -0.2767
  195MOL0     C25630   3.402   6.825   0.555 -0.9937 -0.9204  0.7776
  195MOL0     C25631   3.265   6.793   0.606  0.1266  0.4734  0.0149
  195MOL0     O25632   3.202   6.720   0.492  0.2543  0.1020 -0.0187
  195MOL0     C25633   3.087   6.644   0.509 -0.8604  0.1604 -0.1624
  195MOL0     C25634   3.042   6.573   0.398 -0.2640 -0.5603  0.2040
  195MOL0     C25635   2.931   6.492   0.412 -0.0036 -0.3356  0.2402
  195MOL0     C25636   2.844   6.502   0.521 -0.2154 -0.1368 -1.2601
  195MOL0     C25637   2.712   6.439   0.531 -0.4953  0.0735 -0.4431
  195MOL0     O25638   2.630   6.477   0.633  0.0369  0.6829  0.0785
  195MOL0     C25639   2.504   6.421   0.641  0.5338  0.1316 -0.7176
  195MOL0     C25640   2.405   6.453   0.549  0.6625 -0.2716  0.4445
  195MOL0     C25641   2.283   6.380   0.544  0.7197  0.5885  0.4896
  195MOL0     C25642   2.255   6.276   0.633 -0.1207 -0.0081 -0.1665
  195MOL0     O25643   2.143   6.193   0.638  0.0513  0.6727 -1.1238
  195MOL0     C25644   2.053   6.215   0.532 -0.6243  0.0595 -0.4111
  195MOL0     C25645   1.954   6.106   0.526  0.4712  0.0726  0.3999
  195MOL0     C25646   2.007   5.972   0.480 -0.6549  0.7831 -0.1176
  195MOL0     C25647   1.915   5.857   0.504  0.1043 -0.1446 -0.0695
  195MOL0     C25648   1.957   5.723   0.430 -0.0052  0.1033 -0.5713
  195MOL0     C25649   1.844   5.625   0.415  0.4114 -0.1912 -0.0647
  195MOL0     C25650   1.888   5.483   0.365  0.2880 -0.1506 -0.3801
  195MOL0     C25651   1.759   5.401   0.346 -0.1958  0.1217 -0.2260
  195MOL0    Cl25652   1.657   5.459   0.217  0.0012 -0.2730  0.4588
  195MOL0     C25653   2.357   6.250   0.729 -0.9613  0.1638  0.7130
  195MOL0     C25654   2.484   6.317   0.731 -0.1957 -1.0458 -0.0270
  195MOL0     O25655   2.693   6.348   0.450 -0.1008 -0.5051  0.1008
  195MOL0     C25656   2.895   6.574   0.633 -0.3594  0.7155 -0.6914
  195MOL0     C25657   3.017   6.634   0.630  0.1163 -0.2614 -0.1128
  195MOL0     N25658   3.635   7.068   0.908 -0.0962  0.5667  0.0462
  195MOL0     N25659   3.738   7.064   0.983  0.7282 -0.4577  0.3778
  195MOL0     C25660   4.956   6.491   1.003  0.3799 -0.1974  0.5164
  195MOL0     C25661   5.084   6.486   0.936  0.4382 -0.0267 -0.7076
  195MOL0     C25662   5.501   6.556   0.779  0.1470  0.4078 -1.1174
  195MOL0     C25663   5.517   6.684   0.739  0.2943  0.1577  1.1513
  195MOL0     C25664   5.632   6.715   0.663 -0.6299  0.3522  0.5752
  195MOL0     C25665   5.744   6.630   0.654  0.0844  0.4735 -0.2029
  195MOL0     O25666   5.858   6.684   0.593  0.4212  0.3667  0.4208
  195MOL0     C25667   5.959   6.604   0.552 -0.8293  0.8201  0.6073
  195MOL0     C25668   6.017   6.675   0.427 -0.6566 -0.1797  0.5092
  195MOL0     C25669   6.117   6.595   0.339  0.3989  0.9540  0.8677
  195MOL0     C25670   6.187   6.708   0.269 -0.7383 -0.3398 -0.3415
  195MOL0     C25671   6.285   6.650   0.198  0.0234 -0.8062  0.3427
  195MOL0     C25672   6.381   6.615   0.132 -0.0775 -0.2013  0.1433
  195MOL0     C25673   5.736   6.509   0.727  0.9520 -0.3666 -0.2489
  195MOL0     C25674   5.614   6.469   0.776 -0.6484  0.7104  0.6780
  195MOL0     H25675   5.132   6.819   0.903 -1.5075  0.0118 -2.1954
  195MOL0     H25676   4.896   6.816   1.010  0.2406  0.3535  2.1171
  195MOL0     H25677   4.703   6.799   1.080  0.6045  0.0665  0.2637
  195MOL0     H25678   4.591   6.678   1.148 -2.7552  0.2958 -2.6606
  195MOL0     H25679   4.550   6.562   0.936 -0.3162 -0.1010 -3.7875
  195MOL0     H25680   4.650   6.681   0.857 -2.5317  2.5552 -1.0766
  195MOL0     H25681   4.417   6.751   0.837  1.7256 -1.2785  0.5864
  195MOL0     H25682   4.505   6.866   0.937 -0.4065 -0.3896  1.6987
  195MOL0     H25683   4.348   6.631   1.056  0.5441  0.1406  0.2262
  195MOL0     H25684   4.395   6.783   1.136 -1.7402 -1.2223  1.7693
  195MOL0     H25685   4.150   6.716   1.051  1.7989 -2.8658  2.4300
  195MOL0     H25686   4.202   6.807   0.901 -2.5014  0.4725  1.1968
  195MOL0     H25687   4.246   6.995   1.060  0.3610 -0.2900 -0.2518
  195MOL0     H25688   4.157   6.908   1.187 -0.5534 -0.4785  0.1877
  195MOL0     H25689   4.001   7.073   1.091  0.2196  0.4078  0.6582
  195MOL0     H25690   4.031   7.013   0.921  1.1429 -1.6783  0.0774
  195MOL0     H25691   3.889   6.879   1.145  1.5660  3.3587  0.7155
  195MOL0     H25692   3.945   6.789   1.004  1.2731  1.0669 -0.7855
  195MOL0     H25693   3.720   6.767   0.857  1.9489  1.0610 -2.0082
  195MOL0     H25694   3.434   6.996   0.748  2.3768  1.4802 -0.4198
  195MOL0     H25695   3.432   6.845   0.848  0.7956 -0.2707  0.9330
  195MOL0     H25696   3.537   6.714   0.684  0.1006  0.7667  1.0899
  195MOL0     H25697   3.599   6.853   0.597 -0.8075 -1.0584 -2.9715
  195MOL0     H25698   3.418   6.926   0.516  0.1393 -0.1283  3.1101
  195MOL0     H25699   3.430   6.760   0.471 -1.6330 -1.8613  1.2716
  195MOL0     H25700   3.200   6.874   0.640 -1.0427 -0.9069  1.1851
  195MOL0     H25701   3.276   6.723   0.689 -0.4500  0.5674  0.1775
  195MOL0     H25702   3.107   6.553   0.314 -0.8031 -2.4790  0.1943
  195MOL0     H25703   2.892   6.433   0.330 -1.0689  0.4727  0.1595
  195MOL0     H25704   2.432   6.520   0.468  1.6741 -1.9656 -0.6611
  195MOL0     H25705   2.214   6.385   0.461  0.3187 -2.0381  0.5881
  195MOL0     H25706   2.101   6.218   0.433 -1.1558 -0.2885 -0.6844
  195MOL0     H25707   2.008   6.313   0.552  0.6207  0.3236  1.2602
  195MOL0     H25708   1.874   6.142   0.460  0.0747  1.9278  1.7997
  195MOL0     H25709   1.910   6.114   0.626  3.2452  4.5647  1.5368
  195MOL0     H25710   2.099   5.945   0.533  0.0375  0.1958 -1.5703
  195MOL0     H25711   2.051   5.984   0.380 -0.7058 -2.8765 -0.7358
  195MOL0     H25712   1.909   5.834   0.610  0.0939 -0.8042 -0.2094
  195MOL0     H25713   1.818   5.878   0.458  1.2500  1.4312 -1.9539
  195MOL0     H25714   2.031   5.684   0.501 -0.4042 -0.3554 -0.4036
  195MOL0     H25715   2.002   5.741   0.332  0.0584  1.1783 -0.3565
  195MOL0     H25716   1.780   5.671   0.339  3.2389  0.0219 -2.5107
  195MOL0     H25717   1.792   5.615   0.511 -0.4336 -1.6299 -0.6352
  195MOL0     H25718   1.941   5.482   0.270  0.8513 -0.7970 -0.0664
  195MOL0     H25719   1.959   5.458   0.444 -0.6333  0.4255  0.6612
  195MOL0     H25720   1.703   5.396   0.440  0.5148 -2.6788  0.1263
  195MOL0     H25721   1.793   5.302   0.314 -0.7973 -0.0253 -0.4154
  195MOL0     H25722   2.338   6.172   0.801  0.8920  0.2909  1.3949
  195MOL0     H25723   2.559   6.280   0.801  0.5432  0.2704 -0.0896
  195MOL0     H25724   2.836   6.567   0.724 -0.5128  0.0285 -0.8431
  195MOL0     H25725   3.063   6.672   0.721  0.9914  2.0001 -1.4087
  195MOL0     H25726   4.902   6.405   1.041  0.5405 -1.1324 -1.2949
  195MOL0     H25727   5.127   6.387   0.921  1.1779 -0.0002  1.0613
  195MOL0     H25728   5.448   6.768   0.749  0.7849  0.6141  0.7503
  195MOL0     H25729   5.632   6.816   0.624 -1.8941  0.5026  0.9212
  195MOL0     H25730   5.924   6.504   0.525  1.6538 -0.0103  0.2830
  195MOL0     H25731   6.030   6.594   0.634 -0.8839 -2.1859  0.3707
  195MOL0     H25732   5.933   6.698   0.360  0.2948  0.8288 -0.3792
  195MOL0     H25733   6.053   6.774   0.455 -2.5006  0.3145  1.2641
  195MOL0     H25734   6.060   6.539   0.264  1.1358  0.9456  0.3019
  195MOL0     H25735   6.178   6.528   0.399 -0.9521 -1.3913 -0.2276
  195MOL0     H25736   6.130   6.772   0.201  0.8716 -1.6000 -3.0416
  195MOL0     H25737   6.231   6.769   0.348 -0.4718 -1.4040  0.3542
  195MOL0     H25738   6.465   6.566   0.087 -1.1422  0.4101 -2.7470
  195MOL0     H25739   5.825   6.448   0.740  2.1381  0.9426 -1.8845
  195MOL0     H25740   5.600   6.372   0.823 -1.4337 -0.3253 -1.5491
  196MOL0     O25741   8.031  11.292   9.405 -0.4197 -0.1921 -0.2449
  196MOL0     C25742   7.921  11.237   9.400 -0.3483  0.2953  0.7535
  196MOL0     O25743   7.887  11.142   9.309  0.2307 -0.4180 -0.4165
  196MOL0     C25744   7.951  11.126   9.189 -0.6324  0.0526  0.8960
  196MOL0     C25745   7.956  11.003   9.131  0.1391 -0.0146  0.1533
  196MOL0     C25746   8.015  10.984   9.006 -0.5495  0.2732 -0.1925
  196MOL0     C25747   8.089  11.083   8.940  0.4055  0.7810  0.6643
  196MOL0     O25748   8.162  11.050   8.823 -0.3622  0.0850 -0.3311
  196MOL0     C25749   8.285  11.127   8.815  0.2432  0.0362  0.5237
  196MOL0     C25750   8.356  11.073   8.689  0.3965  0.0201  0.3535
  196MOL0     C25751   8.282  11.081   8.554  0.7472  0.1717 -0.3748
  196MOL0     C25752   8.320  11.198   8.461 -0.1727 -0.1953  0.7268
  196MOL0     C25753   8.256  11.182   8.311 -0.5347  0.1217 -0.3838
  196MOL0     C25754   8.211  11.306   8.249 -0.3720  0.1905 -0.4657
  196MOL0     C25755   8.319  11.412   8.241 -1.0426  0.5275  0.2239
  196MOL0     C25756   8.259  11.525   8.159  0.3447  0.1974 -0.7839
  196MOL0     N25757   8.365  11.622   8.151 -0.3672  0.3103 -0.0823
  196MOL0     C25758   8.479  11.609   8.069  0.3318  0.1433  0.1798
  196MOL0     C25759   8.531  11.728   8.065  0.8898 -0.0654 -0.3884
  196MOL0     C25760   8.650  11.775   7.993  1.0159  0.0579  0.1798
  196MOL0     C25761   8.746  11.868   8.078 -0.2922  0.8508 -0.1834
  196MOL0     C25762   8.674  11.995   8.127 -0.0556  0.0894  0.3574
  196MOL0     C25763   8.775  12.108   8.162 -0.9583  0.4103  0.5274
  196MOL0     O25764   8.849  12.141   8.047 -0.0305  0.0750 -0.4920
  196MOL0     C25765   8.966  12.211   8.060  0.9012  0.1277  0.2243
  196MOL0     C25766   9.039  12.216   7.948  0.6005  0.5940  0.6260
  196MOL0     C25767   9.155  12.304   7.939 -0.5514  0.7304  0.0745
  196MOL0     C25768   9.204  12.362   8.059  0.5240 -0.7382  0.1603
  196MOL0     C25769   9.328  12.443   8.043  0.2763  0.2923  0.8942
  196MOL0     O25770   9.401  12.420   7.924  1.2896 -0.0249 -0.5680
  196MOL0     C25771   9.491  12.510   7.899  0.8954  0.6400 -0.6938
  196MOL0     C25772   9.470  12.646   7.895 -1.1456 -0.2607  0.6220
  196MOL0     C25773   9.580  12.728   7.852 -0.4231 -0.2116 -0.2506
  196MOL0     C25774   9.706  12.668   7.819 -0.9493  0.6454 -0.5709
  196MOL0     O25775   9.808  12.746   7.759  0.5754 -0.2346 -0.3268
  196MOL0     C25776   9.837  12.869   7.826 -0.0003  0.0080 -0.2023
  196MOL0     C25777   9.962  12.936   7.759  0.4908  0.6171 -0.3544
  196MOL0     C25778  10.091  12.889   7.840  0.0323 -0.7859  0.7094
  196MOL0     C25779  10.207  12.974   7.777  0.2608 -0.2783  0.0492
  196MOL0     C25780  10.345  12.948   7.839 -0.8587  0.6830  0.0762
  196MOL0     C25781  10.451  13.028   7.767 -0.5123 -0.3117  0.1525
  196MOL0     C25782  10.589  12.997   7.823 -0.5680  0.5307 -0.2495
  196MOL0     C25783  10.694  13.033   7.720  0.3133  0.2663 -1.5050
  196MOL0    Cl25784  10.861  13.036   7.793 -0.3490 -0.0505 -0.0242
  196MOL0     C25785   9.716  12.529   7.822 -0.6401 -0.2833  0.0345
  196MOL0     C25786   9.609  12.448   7.856 -0.6957  0.5112 -0.4497
  196MOL0     O25787   9.361  12.514   8.136 -0.7348 -0.0198  0.3264
  196MOL0     C25788   9.135  12.343   8.182  0.4285 -0.1449 -0.0635
  196MOL0     C25789   9.019  12.268   8.177  0.0636 -0.0112 -0.0536
  196MOL0     N25790   8.466  11.792   8.168 -0.2706 -0.1437 -0.3684
  196MOL0     N25791   8.368  11.734   8.215 -0.4083 -0.7736  0.3378
  196MOL0     C25792   8.083  11.209   9.004  0.4788 -0.9276  0.0032
  196MOL0     C25793   8.013  11.231   9.125 -0.2251 -0.0203 -0.1469
  196MOL0     C25794   7.827  11.264   9.512 -0.1600  0.3554 -0.6778
  196MOL0     C25795   7.866  11.329   9.629  0.6156 -0.1557 -0.6356
  196MOL0     C25796   7.770  11.382   9.714 -0.6732  0.2154 -0.4852
  196MOL0     C25797   7.636  11.367   9.690 -0.1065  0.1990 -0.4885
  196MOL0     O25798   7.525  11.414   9.755  0.2793 -0.3834  0.2327
  196MOL0     C25799   7.564  11.438   9.887  0.9969  0.1831 -0.0943
  196MOL0     C25800   7.446  11.463   9.975 -0.1945 -0.3211  0.1742
  196MOL0     C25801   7.412  11.615  10.009 -0.8890 -0.0493 -0.4322
  196MOL0     C25802   7.304  11.633  10.116  0.3878  0.2392 -0.3850
  196MOL0     C25803   7.276  11.768  10.150 -0.3511 -0.1212 -1.4294
  196MOL0     C25804   7.232  11.882  10.167 -0.8613  0.1976 -0.4311
  196MOL0     C25805   7.596  11.302   9.579 -0.4138 -0.4264 -0.4947
  196MOL0     C25806   7.689  11.240   9.497  0.3453 -1.2838  0.8279
  196MOL0     H25807   7.896  10.923   9.173 -1.0382  0.9307  0.3487
  196MOL0     H25808   8.009  10.896   8.942 -0.4742  2.1231 -2.9590
  196MOL0     H25809   8.346  11.107   8.904  2.8276  0.1402 -1.1021
  196MOL0     H25810   8.273  11.236   8.823  0.6919 -0.0572  3.9456
  196MOL0     H25811   8.371  10.967   8.714  2.0481  0.7982  3.0000
  196MOL0     H25812   8.456  11.113   8.675 -0.8412  2.6866 -2.0192
  196MOL0     H25813   8.175  11.086   8.572  0.7455 -2.9310  1.1789
  196MOL0     H25814   8.304  10.986   8.505 -1.2921  1.5342 -4.3429
  196MOL0     H25815   8.269  11.289   8.494 -2.1531 -0.9208 -0.2088
  196MOL0     H25816   8.429  11.214   8.465  0.0941 -1.1740 -1.2659
  196MOL0     H25817   8.165  11.122   8.315  0.5042 -1.4825  0.3442
  196MOL0     H25818   8.319  11.124   8.242  0.6686  0.4491  0.4147
  196MOL0     H25819   8.127  11.344   8.309 -0.2951 -2.6215  1.6034
  196MOL0     H25820   8.172  11.286   8.149 -0.5144  0.6263 -0.5034
  196MOL0     H25821   8.360  11.449   8.336 -1.1056 -0.7852  0.7829
  196MOL0     H25822   8.405  11.369   8.188 -2.5175 -1.2975 -0.7850
  196MOL0     H25823   8.179  11.566   8.222 -1.3687 -3.2479 -0.4788
  196MOL0     H25824   8.218  11.495   8.062  4.0448 -0.6125 -2.2563
  196MOL0     H25825   8.517  11.521   8.019  1.8974  0.3967  0.8801
  196MOL0     H25826   8.609  11.832   7.909 -0.4082 -0.6631  0.3664
  196MOL0     H25827   8.697  11.685   7.953 -1.9893 -0.5344 -2.4995
  196MOL0     H25828   8.821  11.889   8.002 -0.1091 -0.5154 -0.4001
  196MOL0     H25829   8.798  11.818   8.161  0.5376  0.6883 -0.7960
  196MOL0     H25830   8.616  12.040   8.046 -1.9407  0.2002  1.7060
  196MOL0     H25831   8.598  11.984   8.205 -1.0474  2.6490 -0.1784
  196MOL0     H25832   8.827  12.073   8.251 -2.1080 -0.8174  0.7394
  196MOL0     H25833   8.730  12.204   8.191 -0.9491  0.8500 -0.8429
  196MOL0     H25834   9.003  12.173   7.854 -0.7917 -0.7425  1.7234
  196MOL0     H25835   9.196  12.307   7.839  0.5130 -3.2961  0.2276
  196MOL0     H25836   9.367  12.680   7.897 -1.4400 -0.5469 -3.1342
  196MOL0     H25837   9.562  12.834   7.845  0.4594 -0.1465 -2.2929
  196MOL0     H25838   9.834  12.865   7.935  0.3018  2.7983 -0.0010
  196MOL0     H25839   9.762  12.946   7.804 -1.8852 -0.9008  2.5100
  196MOL0     H25840   9.952  13.044   7.771  2.8552  0.9610 -0.8750
  196MOL0     H25841   9.961  12.902   7.655  1.2860 -0.4312 -0.0422
  196MOL0     H25842  10.100  12.780   7.834  1.6169 -0.6485  0.2806
  196MOL0     H25843  10.068  12.919   7.943  1.4003  0.6025  0.6377
  196MOL0     H25844  10.215  12.944   7.672  1.7023 -0.0595  0.0686
  196MOL0     H25845  10.177  13.079   7.775  0.5570 -0.1290 -4.1519
  196MOL0     H25846  10.362  12.840   7.830 -0.0396  0.9622 -3.2763
  196MOL0     H25847  10.347  12.970   7.946  0.4768  1.2333 -0.0347
  196MOL0     H25848  10.433  13.133   7.791  0.7307 -0.0823  0.1637
  196MOL0     H25849  10.433  13.006   7.661 -0.5299 -2.2185  0.5168
  196MOL0     H25850  10.611  13.062   7.908  0.6812 -0.7793  0.4688
  196MOL0     H25851  10.596  12.894   7.857 -1.3928  0.2838 -0.7911
  196MOL0     H25852  10.680  13.137   7.689  2.2868  0.8382 -0.6557
  196MOL0     H25853  10.691  12.958   7.641 -2.1640 -0.9026 -0.4256
  196MOL0     H25854   9.817  12.494   7.804  0.3002  2.1724  0.1615
  196MOL0     H25855   9.635  12.343   7.858 -0.2836  0.6309  0.6874
  196MOL0     H25856   9.153  12.374   8.284  0.5981 -2.4908  0.6816
  196MOL0     H25857   8.961  12.250   8.267  0.6331  2.3908  0.8560
  196MOL0     H25858   8.132  11.291   8.952 -0.9657 -1.2764 -2.0146
  196MOL0     H25859   8.002  11.332   9.163  0.0546 -0.3829  0.9194
  196MOL0     H25860   7.973  11.346   9.634  1.1212 -2.4455 -2.0981
  196MOL0     H25861   7.794  11.440   9.803  0.8433 -1.5510  0.3248
  196MOL0     H25862   7.623  11.529   9.875 -0.8629  1.2995 -1.1384
  196MOL0     H25863   7.629  11.359   9.927 -1.2330 -1.2176  0.9407
  196MOL0     H25864   7.363  11.409   9.927  1.7373 -0.9625 -2.6882
  196MOL0     H25865   7.459  11.406  10.067 -2.2491  2.9954  2.7314
  196MOL0     H25866   7.383  11.666   9.916 -1.7006 -0.0402 -0.1854
  196MOL0     H25867   7.505  11.646  10.055 -1.3326  2.6735 -1.2052
  196MOL0     H25868   7.211  11.596  10.071  1.4055 -0.0706 -2.3776
  196MOL0     H25869   7.336  11.579  10.206  0.4190 -0.1058 -0.5997
  196MOL0     H25870   7.200  11.983  10.183 -2.4251 -0.5271  1.4421
  196MOL0     H25871   7.488  11.292   9.571 -0.7246  1.3008  0.8891
  196MOL0     H25872   7.653  11.186   9.410 -0.4499  1.0727 -0.3788
  197MOL0     O25873   2.757   9.851   6.439  0.2351  0.0877  0.2304
  197MOL0     C25874   2.763   9.955   6.370  0.3985  1.0527 -0.7455
  197MOL0     O25875   2.654  10.036   6.343  0.2380  0.0883  0.7729
  197MOL0     C25876   2.534   9.994   6.391  0.0288 -0.4883  0.6705
  197MOL0     C25877   2.443   9.939   6.300  0.6976 -0.3422 -0.4627
  197MOL0     C25878   2.326   9.878   6.340  0.3919 -0.2634 -0.3528
  197MOL0     C25879   2.288   9.875   6.474 -1.0552 -0.2556  0.1030
  197MOL0     O25880   2.158   9.836   6.500 -0.1893 -0.4004  0.2699
  197MOL0     C25881   2.100   9.866   6.623  0.2461 -0.0246  0.2774
  197MOL0     C25882   1.959   9.818   6.621 -0.2483  0.2862 -0.2922
  197MOL0     C25883   1.896   9.846   6.758 -0.4523  0.5532  0.3772
  197MOL0     C25884   1.759   9.781   6.746  0.4123  0.5323  0.4139
  197MOL0     C25885   1.665   9.836   6.851  0.4582 -0.1128 -0.1549
  197MOL0     C25886   1.549   9.744   6.875  0.1832  0.4165  0.5642
  197MOL0     C25887   1.457   9.803   6.977  0.9034  0.0113  0.0371
  197MOL0     C25888   1.339   9.711   6.968  0.5751  0.4821 -0.4308
  197MOL0     N25889   1.228   9.764   7.048 -0.2925 -0.5956  0.2082
  197MOL0     C25890   1.118   9.837   7.002  0.1776 -0.0822  0.9731
  197MOL0     C25891   1.058   9.885   7.115 -0.6247 -0.1376  0.6538
  197MOL0     C25892   0.937   9.965   7.122 -0.5988 -0.5556  0.2053
  197MOL0     C25893   0.818   9.876   7.166  0.3031 -0.2430 -0.5955
  197MOL0     C25894   0.686   9.945   7.161 -0.2348  0.4306  1.1279
  197MOL0     C25895   0.566   9.871   7.232 -0.0370 -0.3601  0.0034
  197MOL0     O25896   0.524   9.760   7.150  0.2457  0.2239  0.0314
  197MOL0     C25897   0.442   9.779   7.040 -0.6280 -0.2724  0.0943
  197MOL0     C25898   0.392   9.663   6.982  0.5973 -0.0319 -0.0408
  197MOL0     C25899   0.300   9.669   6.877 -0.6375  0.1309 -0.0284
  197MOL0     C25900   0.262   9.793   6.818 -0.7497  0.2729  0.0864
  197MOL0     C25901   0.147   9.794   6.718 -0.4932 -0.6431 -0.1748
  197MOL0     O25902   0.080   9.684   6.686 -0.2426  0.5415 -0.2312
  197MOL0     C25903  -0.027   9.677   6.592  0.0598 -0.4879  0.3366
  197MOL0     C25904  -0.034   9.747   6.471 -0.2429  0.4203 -0.3090
  197MOL0     C25905  -0.138   9.718   6.379 -1.3837 -0.6675  0.8453
  197MOL0     C25906  -0.227   9.621   6.406 -0.0257 -0.3443 -0.6760
  197MOL0     O25907  -0.339   9.595   6.320  0.0181  0.5254 -1.4543
  197MOL0     C25908  -0.447   9.518   6.375  0.6411 -0.6374 -0.1107
  197MOL0     C25909  -0.551   9.522   6.262  1.2671  0.8268  0.4735
  197MOL0     C25910  -0.687   9.470   6.322 -0.4388  0.1584 -0.2230
  197MOL0     C25911  -0.807   9.516   6.238 -0.6799 -0.1880 -0.2394
  197MOL0     C25912  -0.932   9.525   6.323 -0.1869  0.5376  1.0102
  197MOL0     C25913  -1.002   9.391   6.345  0.3198 -0.8140 -0.4285
  197MOL0     C25914  -1.128   9.417   6.426  0.1143  0.7679 -0.6144
  197MOL0     C25915  -1.240   9.488   6.368 -0.1065 -0.1262 -0.4318
  197MOL0    Cl25916  -1.314   9.388   6.246  0.0972  0.1691 -0.3809
  197MOL0     C25917  -0.223   9.550   6.524  0.1789  0.3144  0.2074
  197MOL0     C25918  -0.123   9.579   6.619 -1.0759  0.3192 -0.9209
  197MOL0     O25919   0.128   9.906   6.662 -0.1824 -0.6690  0.3405
  197MOL0     C25920   0.311   9.905   6.883  0.0653 -0.4545  1.3127
  197MOL0     C25921   0.397   9.896   6.991  0.2651 -0.2163  1.2489
  197MOL0     N25922   1.130   9.842   7.221  0.4135  0.3899 -0.5103
  197MOL0     N25923   1.232   9.780   7.180 -0.1878 -0.8222 -0.5566
  197MOL0     C25924   2.382   9.929   6.571 -0.8965  1.0825 -0.0377
  197MOL0     C25925   2.506   9.984   6.522  0.4267  0.1636 -0.4023
  197MOL0     C25926   2.889   9.996   6.302 -0.2625 -0.7076  0.7131
  197MOL0     C25927   3.010   9.935   6.322 -0.6639 -0.3304 -0.3347
  197MOL0     C25928   3.130   9.985   6.274  1.1146  1.7578 -0.4512
  197MOL0     C25929   3.130  10.086   6.175  0.4019 -0.1157 -0.6157
  197MOL0     O25930   3.242  10.158   6.134 -0.1817 -0.0310 -0.5500
  197MOL0     C25931   3.249  10.208   6.001 -0.4229  0.0942 -0.2977
  197MOL0     C25932   3.372  10.301   5.992  0.5443  0.0762  0.0340
  197MOL0     C25933   3.399  10.370   5.863  0.5484 -0.6686  1.0639
  197MOL0     C25934   3.408  10.312   5.724  0.0321  0.4875  0.5817
  197MOL0     C25935   3.274  10.276   5.664 -0.0682  0.3945  0.5637
  197MOL0     C25936   3.162  10.255   5.632  0.0321  0.6931  0.3218
  197MOL0     C25937   2.998  10.134   6.139  1.0306  0.2924  0.0327
  197MOL0     C25938   2.884  10.091   6.206 -0.9435  0.8247 -0.2960
  197MOL0     H25939   2.470   9.951   6.195  2.6638 -0.5958 -0.0101
  197MOL0     H25940   2.262   9.842   6.261 -1.1503  1.2506  0.1455
  197MOL0     H25941   2.114   9.969   6.655 -0.9760  0.8012 -1.6866
  197MOL0     H25942   2.151   9.800   6.695 -0.8391  0.4417  1.5214
  197MOL0     H25943   1.957   9.709   6.611 -0.4175  0.0909  1.4895
  197MOL0     H25944   1.890   9.856   6.545 -1.5997  1.0309  1.2568
  197MOL0     H25945   1.894   9.951   6.788 -0.5933  0.9038 -0.7812
  197MOL0     H25946   1.955   9.793   6.834 -0.4158 -3.8969 -2.3583
  197MOL0     H25947   1.713   9.805   6.649  0.5035  2.5615  0.8361
  197MOL0     H25948   1.768   9.673   6.761  0.4399  0.5191  0.3053
  197MOL0     H25949   1.637   9.939   6.828  1.0033 -0.4130 -2.3581
  197MOL0     H25950   1.723   9.842   6.944  3.5389 -0.0204 -1.9631
  197MOL0     H25951   1.592   9.648   6.905 -0.0879  0.9454  2.8001
  197MOL0     H25952   1.493   9.735   6.781  0.4423 -0.5127  0.4893
  197MOL0     H25953   1.500   9.824   7.075 -0.9007  1.6538  0.5373
  197MOL0     H25954   1.435   9.906   6.945  0.6132 -0.0138  0.1532
  197MOL0     H25955   1.374   9.611   6.997 -0.3521  0.4496  0.6618
  197MOL0     H25956   1.298   9.708   6.867  3.4097  0.7927 -1.6963
  197MOL0     H25957   1.086   9.850   6.900 -3.2659 -0.4658  1.8753
  197MOL0     H25958   0.917  10.001   7.021  1.6257 -1.0772 -0.4689
  197MOL0     H25959   0.955  10.048   7.190  2.2550 -1.1325  0.2725
  197MOL0     H25960   0.856   9.847   7.265  0.1106 -1.8321 -0.9507
  197MOL0     H25961   0.816   9.785   7.105 -0.9524 -1.5455  1.2343
  197MOL0     H25962   0.693  10.048   7.195  0.7907  1.3926 -1.7391
  197MOL0     H25963   0.653   9.957   7.057  2.0589  2.1388  0.5231
  197MOL0     H25964   0.482   9.934   7.263 -1.1030 -2.1540  0.9463
  197MOL0     H25965   0.600   9.831   7.329 -0.8576 -2.0935 -0.3943
  197MOL0     H25966   0.423   9.570   7.030  0.2250 -1.3627 -2.2337
  197MOL0     H25967   0.243   9.583   6.845 -0.6874  0.2448 -0.2515
  197MOL0     H25968   0.041   9.821   6.442  1.3370  0.0905  2.5421
  197MOL0     H25969  -0.158   9.786   6.298  1.4023 -1.2878 -0.4839
  197MOL0     H25970  -0.483   9.564   6.468  1.6133 -1.7299  0.8360
  197MOL0     H25971  -0.427   9.412   6.393  0.5926 -0.7974 -0.9869
  197MOL0     H25972  -0.529   9.457   6.176 -0.9612  0.8471 -0.1915
  197MOL0     H25973  -0.569   9.625   6.228 -0.1106  0.7251  0.8385
  197MOL0     H25974  -0.696   9.539   6.407  0.8575  2.4240 -1.8009
  197MOL0     H25975  -0.678   9.365   6.349  1.9911  0.4265  0.2884
  197MOL0     H25976  -0.801   9.612   6.187  2.2215  0.4314  1.0138
  197MOL0     H25977  -0.818   9.441   6.159  2.4186 -1.5430  0.4576
  197MOL0     H25978  -0.991   9.593   6.262 -2.7840 -0.1037  2.6643
  197MOL0     H25979  -0.887   9.568   6.414  1.2508 -1.1784  1.1824
  197MOL0     H25980  -0.948   9.318   6.405 -0.3901 -0.3629  0.8051
  197MOL0     H25981  -1.025   9.348   6.247  0.0575 -0.5082 -0.5048
  197MOL0     H25982  -1.165   9.315   6.441  2.0658  0.2982  1.7650
  197MOL0     H25983  -1.097   9.462   6.521  1.0391  0.3828 -0.7204
  197MOL0     H25984  -1.214   9.586   6.328  1.5625 -0.5609 -0.4808
  197MOL0     H25985  -1.320   9.504   6.440  1.1736 -0.5927  1.1525
  197MOL0     H25986  -0.292   9.469   6.542 -0.2735  0.1623 -1.9693
  197MOL0     H25987  -0.104   9.523   6.710  1.5695 -0.5311 -1.9025
  197MOL0     H25988   0.280  10.001   6.844  1.7310 -1.1313 -2.0076
  197MOL0     H25989   0.440   9.986   7.033  5.0085 -0.9938 -1.2074
  197MOL0     H25990   2.358   9.935   6.677 -1.3249 -0.1367 -0.0486
  197MOL0     H25991   2.581  10.023   6.590 -0.5958  2.8061 -0.6295
  197MOL0     H25992   3.000   9.863   6.403  2.4850 -0.9787 -0.4019
  197MOL0     H25993   3.227   9.943   6.303  0.3630  0.9164  0.9692
  197MOL0     H25994   3.157  10.261   5.974 -1.5082 -2.6098 -2.2363
  197MOL0     H25995   3.259  10.127   5.929  0.1719  1.5038 -1.8682
  197MOL0     H25996   3.364  10.370   6.076 -0.3127 -0.2072  0.2018
  197MOL0     H25997   3.458  10.235   6.002  0.6021 -0.0015 -0.9168
  197MOL0     H25998   3.493  10.420   5.887 -0.0889  0.5856  1.0618
  197MOL0     H25999   3.325  10.451   5.856  1.0756 -0.3437 -2.3505
  197MOL0     H26000   3.467  10.374   5.656 -0.8190 -1.5857 -2.2532
  197MOL0     H26001   3.464  10.218   5.722 -3.9072 -2.1050  0.3690
  197MOL0     H26002   3.055  10.253   5.636 -0.0530  1.4995 -0.9504
  197MOL0     H26003   2.974  10.212   6.067  0.9804  0.9072  0.7085
  197MOL0     H26004   2.796  10.153   6.192 -0.9137  0.7304 -0.9428
  198MOL0     O26005   3.927   2.786   0.314  0.4118 -0.2246  0.3043
  198MOL0     C26006   3.959   2.881   0.388  0.0744  0.7174  0.4395
  198MOL0     O26007   3.875   2.970   0.446  0.1094  0.5758 -0.1696
  198MOL0     C26008   3.745   2.948   0.444 -0.0670  1.0368 -0.2563
  198MOL0     C26009   3.677   2.820   0.473 -0.2285 -0.7647  0.3792
  198MOL0     C26010   3.531   2.832   0.482  0.3737 -0.0548 -0.0601
  198MOL0     C26011   3.457   2.950   0.473 -0.3123 -0.3992  0.9444
  198MOL0     O26012   3.325   2.949   0.520  0.2170  0.2201  0.5126
  198MOL0     C26013   3.287   3.032   0.633  0.4098 -0.6508  0.2267
  198MOL0     C26014   3.156   3.091   0.599 -0.1823  0.2238 -0.1608
  198MOL0     C26015   3.051   3.042   0.694  0.9081  0.1766 -0.4777
  198MOL0     C26016   2.910   3.071   0.649 -0.2552  0.6063 -0.8559
  198MOL0     C26017   2.870   3.213   0.647 -0.9041 -0.6718 -0.6052
  198MOL0     C26018   2.741   3.240   0.577  0.8229 -0.6098  0.2682
  198MOL0     C26019   2.622   3.151   0.615  0.9360  0.5307  0.2544
  198MOL0     C26020   2.488   3.205   0.551  0.3609 -0.2637 -0.5070
  198MOL0     N26021   2.489   3.231   0.413  0.2221  0.1028  0.5183
  198MOL0     C26022   2.461   3.144   0.310  0.7061 -0.1822 -0.0321
  198MOL0     C26023   2.482   3.219   0.197  0.6766  0.1811  1.0290
  198MOL0     C26024   2.472   3.171   0.053 -1.3096  0.4805  0.1397
  198MOL0     C26025   2.403   3.281  -0.032  0.0262  0.0964  0.0841
  198MOL0     C26026   2.434   3.269  -0.179 -0.1692  1.0379 -0.4014
  198MOL0     C26027   2.415   3.132  -0.247  0.1188  0.8696  0.5809
  198MOL0     O26028   2.287   3.069  -0.221 -0.2634  0.8283 -0.6164
  198MOL0     C26029   2.167   3.123  -0.256  0.5454  0.4510 -0.2343
  198MOL0     C26030   2.141   3.200  -0.375 -0.2293 -0.6071 -0.1805
  198MOL0     C26031   2.019   3.252  -0.401  0.1315 -0.2661  0.2268
  198MOL0     C26032   1.915   3.238  -0.316  0.3308  0.5457 -0.4712
  198MOL0     C26033   1.785   3.296  -0.349 -0.1992  0.9399 -0.0154
  198MOL0     O26034   1.684   3.265  -0.266  0.2197 -0.0165 -0.8278
  198MOL0     C26035   1.556   3.286  -0.311 -0.0051  0.8520 -0.8433
  198MOL0     C26036   1.464   3.343  -0.218 -0.6275 -0.6723  0.6792
  198MOL0     C26037   1.327   3.351  -0.249 -0.5903 -0.7878  0.6274
  198MOL0     C26038   1.278   3.318  -0.377 -0.2825 -0.7950 -0.0117
  198MOL0     O26039   1.145   3.319  -0.397 -0.2058  0.6615  0.3979
  198MOL0     C26040   1.064   3.248  -0.300 -0.1624  0.5132 -0.1459
  198MOL0     C26041   0.928   3.219  -0.358 -0.5241  0.1512 -0.4318
  198MOL0     C26042   0.848   3.348  -0.390  0.0743 -0.0527 -0.3545
  198MOL0     C26043   0.706   3.294  -0.429 -0.7993  0.2592 -1.0069
  198MOL0     C26044   0.604   3.404  -0.459 -0.2655  0.4357  0.6467
  198MOL0     C26045   0.471   3.333  -0.503 -0.5589 -0.2998 -0.2805
  198MOL0     C26046   0.491   3.278  -0.649  0.5699 -0.2370 -0.5085
  198MOL0     C26047   0.362   3.221  -0.710  0.3975 -0.2894 -0.1182
  198MOL0    Cl26048   0.249   3.363  -0.742  0.3922  0.2931  0.1885
  198MOL0     C26049   1.367   3.266  -0.469  0.5041 -0.0502 -0.4181
  198MOL0     C26050   1.502   3.234  -0.431  0.5258 -0.3534  0.5542
  198MOL0     O26051   1.769   3.357  -0.458 -0.7915 -0.2624  0.3835
  198MOL0     C26052   1.933   3.159  -0.194  0.1488 -0.7796  0.0697
  198MOL0     C26053   2.058   3.099  -0.176  0.3354  0.0036  0.1364
  198MOL0     N26054   2.502   3.348   0.237 -0.9177  0.2622 -1.4276
  198MOL0     N26055   2.517   3.357   0.363 -0.5585 -0.1606  0.3038
  198MOL0     C26056   3.526   3.065   0.428 -0.8103  1.3725  0.7146
  198MOL0     C26057   3.669   3.061   0.413 -0.3038  0.4372  0.4792
  198MOL0     C26058   4.101   2.902   0.407 -0.0314  0.8189 -0.3792
  198MOL0     C26059   4.198   2.800   0.371 -1.2687 -0.6528 -0.3762
  198MOL0     C26060   4.330   2.828   0.402  0.8176  0.0145  0.4882
  198MOL0     C26061   4.369   2.947   0.462  1.4923 -0.0224  0.7035
  198MOL0     O26062   4.501   2.981   0.482  0.2708 -0.5833 -0.2492
  198MOL0     C26063   4.603   2.898   0.436 -0.3947 -0.4289 -0.0162
  198MOL0     C26064   4.725   2.979   0.461 -0.2352 -0.1288 -0.2841
  198MOL0     C26065   4.728   3.112   0.373  0.0593  0.2857  0.3110
  198MOL0     C26066   4.873   3.177   0.389 -1.2560  0.7950 -0.8097
  198MOL0     C26067   4.980   3.092   0.334  1.1476  0.4184  0.1512
  198MOL0     C26068   5.069   3.022   0.287  0.2764 -0.6104  0.3387
  198MOL0     C26069   4.274   3.038   0.501  0.0282 -0.4862  0.3722
  198MOL0     C26070   4.144   3.022   0.468  0.9119 -0.0082  0.5939
  198MOL0     H26071   3.739   2.735   0.499  1.1251  0.3631  0.9679
  198MOL0     H26072   3.468   2.752   0.520  1.5006  0.1324  2.4030
  198MOL0     H26073   3.368   3.105   0.639 -1.5212  1.5418  0.8809
  198MOL0     H26074   3.289   2.991   0.734 -0.7697  1.0994  1.0083
  198MOL0     H26075   3.125   3.060   0.499 -0.2632  1.0956 -0.4160
  198MOL0     H26076   3.170   3.198   0.612  1.7389 -0.0248  0.0217
  198MOL0     H26077   3.083   3.077   0.792 -0.8403  0.6312 -0.0341
  198MOL0     H26078   3.043   2.933   0.684 -2.0939  0.2580  0.1763
  198MOL0     H26079   2.877   3.030   0.552 -1.1419  0.4807 -0.5164
  198MOL0     H26080   2.846   3.034   0.730  0.7698  2.3443  0.8064
  198MOL0     H26081   2.950   3.257   0.586 -1.0173 -0.0201 -0.2978
  198MOL0     H26082   2.876   3.257   0.747 -0.6410 -0.1196 -0.8569
  198MOL0     H26083   2.765   3.231   0.470  0.5029  1.9947 -0.0782
  198MOL0     H26084   2.708   3.344   0.583 -0.8927 -1.1055 -0.1860
  198MOL0     H26085   2.631   3.051   0.572  1.8113  1.2097 -1.2134
  198MOL0     H26086   2.609   3.131   0.722  2.2625 -1.7379  0.0442
  198MOL0     H26087   2.460   3.296   0.604 -0.7671  0.4857 -2.3110
  198MOL0     H26088   2.405   3.137   0.574  0.4527 -0.4095 -0.6027
  198MOL0     H26089   2.433   3.040   0.299 -1.4893  0.4325 -0.7191
  198MOL0     H26090   2.424   3.073   0.052  2.2684 -1.4522 -0.1365
  198MOL0     H26091   2.569   3.146   0.008 -1.1566 -0.6530  1.0260
  198MOL0     H26092   2.432   3.380   0.003 -1.0774  0.6534 -0.5376
  198MOL0     H26093   2.294   3.280  -0.028 -0.0445 -1.6186 -1.1840
  198MOL0     H26094   2.378   3.346  -0.234 -0.5358  0.9239 -0.1912
  198MOL0     H26095   2.541   3.286  -0.195  1.4202 -1.9592  4.9456
  198MOL0     H26096   2.488   3.059  -0.209  2.1476  2.4265 -0.1623
  198MOL0     H26097   2.436   3.136  -0.354  0.5725 -3.1360  0.3731
  198MOL0     H26098   2.215   3.229  -0.448 -0.0655  0.8190  0.5099
  198MOL0     H26099   2.010   3.319  -0.487  1.7652 -0.6214 -0.2509
  198MOL0     H26100   1.511   3.359  -0.122  1.3340 -1.6276 -0.0755
  198MOL0     H26101   1.255   3.390  -0.179 -2.2633 -1.3369 -0.6934
  198MOL0     H26102   1.047   3.310  -0.211  0.2001 -0.0026  0.2861
  198MOL0     H26103   1.114   3.159  -0.263  2.6160  2.5329  1.3563
  198MOL0     H26104   0.882   3.168  -0.273  1.5950  1.0208  1.3547
  198MOL0     H26105   0.945   3.152  -0.443  2.0120  2.3350 -1.8330
  198MOL0     H26106   0.900   3.403  -0.469  1.7321  1.3175  1.5912
  198MOL0     H26107   0.839   3.423  -0.311  0.4805  0.8823 -1.1761
  198MOL0     H26108   0.719   3.218  -0.507  0.5421 -1.3015  0.6420
  198MOL0     H26109   0.657   3.251  -0.341 -1.6695  1.3287 -0.9525
  198MOL0     H26110   0.636   3.476  -0.535 -1.3205 -1.7512 -2.0721
  198MOL0     H26111   0.585   3.465  -0.371  2.9050 -1.4739  2.8639
  198MOL0     H26112   0.385   3.401  -0.498  0.0730  0.5779 -0.9854
  198MOL0     H26113   0.444   3.253  -0.433 -0.6959  1.4338  1.7185
  198MOL0     H26114   0.545   3.340  -0.721  1.3712 -1.3744 -0.9239
  198MOL0     H26115   0.561   3.194  -0.638 -0.5274 -1.3082 -1.4997
  198MOL0     H26116   0.310   3.168  -0.630  0.8591  0.6516  0.8322
  198MOL0     H26117   0.380   3.152  -0.793  0.2381 -2.6855  1.7280
  198MOL0     H26118   1.336   3.244  -0.571  1.6515  4.3580 -1.9385
  198MOL0     H26119   1.568   3.179  -0.497 -0.4847  0.2198 -0.9610
  198MOL0     H26120   1.855   3.147  -0.120 -2.2784  3.2492 -1.4975
  198MOL0     H26121   2.077   3.045  -0.083  2.7641  3.5809  1.9520
  198MOL0     H26122   3.484   3.164   0.414 -0.6990  1.3794  0.4258
  198MOL0     H26123   3.711   3.153   0.373  0.6552 -0.8619 -1.6711
  198MOL0     H26124   4.165   2.707   0.326  1.4740 -1.9582  0.0941
  198MOL0     H26125   4.400   2.759   0.355  0.0521 -0.9302  0.7079
  198MOL0     H26126   4.606   2.884   0.328  1.6370  1.2598 -0.2542
  198MOL0     H26127   4.624   2.809   0.496  1.5932  0.6019  0.9148
  198MOL0     H26128   4.738   2.997   0.568  0.2694  0.5846 -0.4637
  198MOL0     H26129   4.805   2.912   0.428 -0.5841 -1.2189  0.9571
  198MOL0     H26130   4.655   3.181   0.415  2.7876  1.6626  3.1592
  198MOL0     H26131   4.686   3.091   0.274 -0.5809 -1.4539  0.9064
  198MOL0     H26132   4.879   3.277   0.344 -1.6378  0.5676 -1.3660
  198MOL0     H26133   4.901   3.190   0.494 -1.7325 -2.0473 -0.2528
  198MOL0     H26134   5.145   2.965   0.237 -1.0127 -1.0168 -1.2319
  198MOL0     H26135   4.316   3.134   0.530 -0.2955 -0.3670  0.4433
  198MOL0     H26136   4.068   3.092   0.501  1.1816 -0.1983  1.6470
  199MOL0     O26137   9.453   0.279   1.096 -0.1544  0.2525  0.0088
  199MOL0     C26138   9.527   0.336   1.176  0.2761 -0.5104 -0.6432
  199MOL0     O26139   9.545   0.469   1.175  0.5926 -0.4688  0.3100
  199MOL0     C26140   9.458   0.560   1.107  0.2844  0.2166  0.9629
  199MOL0     C26141   9.322   0.535   1.077  0.0133  0.0142 -0.1116
  199MOL0     C26142   9.241   0.639   1.037  0.3675 -0.4660  0.4159
  199MOL0     C26143   9.290   0.770   1.024  0.5584 -0.2050 -0.3057
  199MOL0     O26144   9.208   0.879   1.010 -0.0345  0.4618 -0.2529
  199MOL0     C26145   9.088   0.869   0.926  0.4775 -0.3140  0.1422
  199MOL0     C26146   9.108   0.856   0.776 -0.0917  1.3616 -0.4738
  199MOL0     C26147   8.979   0.901   0.700 -0.1518 -0.8922 -0.4751
  199MOL0     C26148   9.005   0.901   0.554 -0.0470  0.5305  0.0900
  199MOL0     C26149   8.897   0.979   0.464  0.0256 -0.4079 -0.2731
  199MOL0     C26150   8.907   1.134   0.476  0.8481  0.3826 -0.4447
  199MOL0     C26151   8.798   1.181   0.397 -0.0815 -0.4145 -0.1822
  199MOL0     C26152   8.802   1.340   0.412  0.0300  0.0272 -0.0508
  199MOL0     N26153   8.695   1.406   0.334  0.1360  0.6649  0.2367
  199MOL0     C26154   8.576   1.448   0.383  0.8002  0.1628  0.6190
  199MOL0     C26155   8.539   1.542   0.301  0.7634  0.0207  0.2273
  199MOL0     C26156   8.434   1.642   0.329 -0.3246 -0.7147  0.0782
  199MOL0     C26157   8.450   1.699   0.479  1.0252 -0.3501  0.1339
  199MOL0     C26158   8.376   1.834   0.488  0.6861  0.5134  0.8203
  199MOL0     C26159   8.383   1.881   0.640 -0.1951 -0.3451  0.5951
  199MOL0     O26160   8.275   1.850   0.727  0.0917  0.3219  0.5694
  199MOL0     C26161   8.164   1.928   0.716 -0.1259 -0.2539  0.1958
  199MOL0     C26162   8.055   1.882   0.775  0.0457  0.3204  0.5304
  199MOL0     C26163   7.937   1.955   0.791 -0.0242  0.2878 -0.1443
  199MOL0     C26164   7.923   2.079   0.727 -0.6499  0.4586  0.1537
  199MOL0     C26165   7.794   2.155   0.735 -0.4817 -0.2088  0.3916
  199MOL0     O26166   7.683   2.091   0.736 -0.0194  0.0110  0.1133
  199MOL0     C26167   7.553   2.134   0.756  0.2372 -0.1089  0.2898
  199MOL0     C26168   7.452   2.061   0.683  0.6628  0.6257 -1.2914
  199MOL0     C26169   7.319   2.077   0.723  0.2083 -0.3471 -0.5231
  199MOL0     C26170   7.275   2.165   0.824 -0.3848 -0.2667 -0.2096
  199MOL0     O26171   7.136   2.174   0.854 -0.4219  0.0892 -0.3006
  199MOL0     C26172   7.092   2.271   0.950 -0.0570  0.7023  1.1990
  199MOL0     C26173   6.933   2.260   0.980  0.0461  0.3654 -0.3567
  199MOL0     C26174   6.862   2.304   0.845 -0.5683 -0.7634 -0.1944
  199MOL0     C26175   6.716   2.320   0.863 -0.3054 -0.4339 -0.1019
  199MOL0     C26176   6.639   2.390   0.748 -0.7615  0.8267 -0.0023
  199MOL0     C26177   6.489   2.392   0.773 -0.4194  0.0972 -1.3935
  199MOL0     C26178   6.420   2.454   0.661  0.5991 -0.0692  1.1904
  199MOL0     C26179   6.266   2.456   0.669 -0.5390 -0.3350  0.0254
  199MOL0    Cl26180   6.223   2.516   0.823 -0.7727  0.1452 -0.3698
  199MOL0     C26181   7.378   2.237   0.885 -0.1116 -0.1101 -0.5079
  199MOL0     C26182   7.510   2.229   0.846  0.1177 -0.3951 -0.6610
  199MOL0     O26183   7.807   2.273   0.727  0.8358  0.4603  0.0918
  199MOL0     C26184   8.030   2.131   0.658 -1.2282  0.5699 -0.1904
  199MOL0     C26185   8.151   2.064   0.659  0.2787 -1.2762 -0.4553
  199MOL0     N26186   8.636   1.550   0.200  0.3506  0.5745 -0.2930
  199MOL0     N26187   8.724   1.464   0.223 -1.2613  0.0007  0.4080
  199MOL0     C26188   9.422   0.792   1.048 -1.5157 -0.3733 -0.5805
  199MOL0     C26189   9.505   0.686   1.083 -0.8471  1.0938 -0.1582
  199MOL0     C26190   9.606   0.253   1.268 -1.0041 -0.2399 -0.4767
  199MOL0     C26191   9.665   0.308   1.381  0.8895  1.3051  1.0521
  199MOL0     C26192   9.753   0.229   1.464 -0.3282 -0.0563  0.4131
  199MOL0     C26193   9.777   0.096   1.449 -0.3531  1.2546 -0.1131
  199MOL0     O26194   9.854   0.033   1.544 -0.2440 -0.1796  0.2972
  199MOL0     C26195   9.897  -0.105   1.542  0.6845 -0.1946  0.2105
  199MOL0     C26196   9.973  -0.153   1.661 -0.5362 -0.5330  0.3440
  199MOL0     C26197  10.106  -0.067   1.681 -0.6184  0.2507  0.3160
  199MOL0     C26198  10.191  -0.115   1.791 -0.0002 -0.1539 -1.3616
  199MOL0     C26199  10.324  -0.055   1.798 -0.9852  0.2420 -0.0107
  199MOL0     C26200  10.435  -0.013   1.822  0.3610 -0.6714 -0.4642
  199MOL0     C26201   9.701   0.033   1.339 -1.0988  0.1843 -0.4946
  199MOL0     C26202   9.631   0.112   1.247  0.5227 -0.3683 -0.8889
  199MOL0     H26203   9.280   0.436   1.095  1.7589 -0.6267  0.6642
  199MOL0     H26204   9.134   0.623   1.033  0.5925 -1.7521 -1.0688
  199MOL0     H26205   9.040   0.966   0.946  1.6058 -0.2794  3.2212
  199MOL0     H26206   9.017   0.796   0.965 -2.2472  0.1497 -3.3994
  199MOL0     H26207   9.120   0.748   0.764 -3.5983  0.8929 -0.7811
  199MOL0     H26208   9.203   0.903   0.752  1.0392  0.3435  1.7244
  199MOL0     H26209   8.965   1.008   0.719 -1.3700 -0.2176 -4.2093
  199MOL0     H26210   8.892   0.840   0.727 -1.3530  0.7368 -0.4838
  199MOL0     H26211   9.104   0.945   0.541 -0.2454  0.9259 -0.0836
  199MOL0     H26212   9.005   0.795   0.526 -4.6692 -0.1480  1.7728
  199MOL0     H26213   8.798   0.940   0.489  1.2031 -3.1086  0.5655
  199MOL0     H26214   8.909   0.956   0.358 -0.4712  0.1212 -0.4504
  199MOL0     H26215   9.009   1.170   0.460  0.8954  0.9186  0.9425
  199MOL0     H26216   8.896   1.168   0.580  0.7567  0.1067 -0.3637
  199MOL0     H26217   8.798   1.166   0.289 -2.3162  2.3310 -0.6923
  199MOL0     H26218   8.703   1.138   0.432 -0.3552 -0.1079 -0.5316
  199MOL0     H26219   8.900   1.385   0.390  0.0225  0.1325  0.1251
  199MOL0     H26220   8.786   1.365   0.517 -0.2012  2.4343 -0.6183
  199MOL0     H26221   8.545   1.421   0.484  0.6877  1.6331  1.0111
  199MOL0     H26222   8.337   1.591   0.325 -0.4479 -0.7430  2.1665
  199MOL0     H26223   8.438   1.718   0.251 -0.4284 -0.8207 -0.0314
  199MOL0     H26224   8.554   1.718   0.506  1.2631  1.4984 -1.8376
  199MOL0     H26225   8.411   1.635   0.558  1.5224  1.5044  1.9495
  199MOL0     H26226   8.416   1.907   0.417  2.6452 -0.1016  1.2249
  199MOL0     H26227   8.272   1.820   0.459  0.3126  2.7806  0.8509
  199MOL0     H26228   8.423   1.983   0.643 -0.9382 -0.0410  0.3490
  199MOL0     H26229   8.459   1.818   0.686 -1.0684 -1.5464  0.4361
  199MOL0     H26230   8.071   1.783   0.818  0.0076 -0.2894 -0.8160
  199MOL0     H26231   7.864   1.908   0.856  0.6017  0.9069  1.0312
  199MOL0     H26232   7.490   1.991   0.609  0.3417 -1.5086  0.4510
  199MOL0     H26233   7.234   2.028   0.678 -1.1123  0.8004  0.6473
  199MOL0     H26234   7.113   2.374   0.920  1.0605 -0.1410 -1.1961
  199MOL0     H26235   7.144   2.240   1.041 -0.1039 -1.1438  0.6436
  199MOL0     H26236   6.910   2.324   1.065  1.1111  1.1883 -0.6717
  199MOL0     H26237   6.900   2.160   1.009  0.0462  0.3787 -0.3118
  199MOL0     H26238   6.893   2.234   0.768 -0.8247  0.6808 -1.6609
  199MOL0     H26239   6.911   2.395   0.809  3.0971 -2.2658  0.5248
  199MOL0     H26240   6.671   2.223   0.886 -3.6860  0.8761 -0.5530
  199MOL0     H26241   6.708   2.379   0.955 -4.0738 -1.7594  0.6093
  199MOL0     H26242   6.661   2.324   0.664  1.8516  0.6487  0.7548
  199MOL0     H26243   6.687   2.485   0.724  1.7633 -0.1381  0.8675
  199MOL0     H26244   6.476   2.446   0.867  0.4688 -1.7476 -0.1285
  199MOL0     H26245   6.445   2.292   0.781 -1.7982  0.8272  3.3662
  199MOL0     H26246   6.460   2.555   0.656  0.6956 -0.1676 -0.8062
  199MOL0     H26247   6.448   2.404   0.568  2.5569 -0.0781  1.7432
  199MOL0     H26248   6.213   2.363   0.651 -0.9350  0.1983 -1.7804
  199MOL0     H26249   6.221   2.520   0.593 -1.2266  1.5417  1.9212
  199MOL0     H26250   7.347   2.297   0.970 -3.3548  0.0695 -1.6678
  199MOL0     H26251   7.580   2.295   0.897 -0.8557  0.5528 -0.5204
  199MOL0     H26252   8.015   2.220   0.597 -0.0808  0.2934 -0.8889
  199MOL0     H26253   8.222   2.123   0.602  0.0595  0.4546  0.9813
  199MOL0     H26254   9.457   0.895   1.046 -3.5469  0.4878  1.9835
  199MOL0     H26255   9.610   0.705   1.103  0.4106 -4.4331  0.0585
  199MOL0     H26256   9.652   0.410   1.416  0.1924  0.8029  2.3568
  199MOL0     H26257   9.801   0.278   1.549 -2.0054 -0.0994  1.4128
  199MOL0     H26258   9.952  -0.130   1.451 -1.0927  0.1626 -1.0003
  199MOL0     H26259   9.810  -0.170   1.559 -0.4421  1.6022  1.7073
  199MOL0     H26260   9.901  -0.132   1.740 -1.1295  0.1176 -0.3547
  199MOL0     H26261   9.997  -0.258   1.643  0.2307 -0.5843  1.5747
  199MOL0     H26262  10.086   0.040   1.685 -1.6059  0.1555 -1.5018
  199MOL0     H26263  10.174  -0.074   1.596 -1.0869  1.0892 -0.1373
  199MOL0     H26264  10.127  -0.080   1.873  2.7370  0.8577  0.4871
  199MOL0     H26265  10.206  -0.224   1.796  2.8612  0.2243  1.5801
  199MOL0     H26266  10.529   0.026   1.857 -0.1581 -1.2974  1.8049
  199MOL0     H26267   9.696  -0.075   1.330 -0.9394  0.0691  0.6534
  199MOL0     H26268   9.573   0.057   1.173 -0.7753  1.8951 -1.6574
  200MOL0     O26269   1.280   5.404   7.660 -0.5871  0.8344 -0.2180
  200MOL0     C26270   1.315   5.293   7.617 -0.4468 -0.2853 -0.2042
  200MOL0     O26271   1.231   5.183   7.615  0.0215 -0.5815  0.1265
  200MOL0     C26272   1.094   5.204   7.634 -0.3213 -0.0120  0.6005
  200MOL0     C26273   1.028   5.122   7.720 -1.1226  1.6812 -0.7880
  200MOL0     C26274   0.887   5.138   7.732  0.1364  0.1611  0.2571
  200MOL0     C26275   0.811   5.225   7.647  0.1564  0.5315  0.3768
  200MOL0     O26276   0.674   5.250   7.665 -0.1376  1.0113 -0.2303
  200MOL0     C26277   0.583   5.179   7.757  0.5572 -0.2115 -1.1410
  200MOL0     C26278   0.519   5.053   7.691 -0.2063 -0.0927 -0.1545
  200MOL0     C26279   0.459   5.093   7.549 -0.1121 -0.6412 -0.8282
  200MOL0     C26280   0.384   5.235   7.548 -0.0653 -0.5109 -0.4351
  200MOL0     C26281   0.305   5.265   7.414 -0.6706 -0.1341 -0.4467
  200MOL0     C26282   0.346   5.407   7.383 -0.6030  0.2864  0.5744
  200MOL0     C26283   0.261   5.512   7.451  0.3098 -0.3459  0.2459
  200MOL0     C26284   0.296   5.663   7.437  1.1076  0.3655  0.5072
  200MOL0     N26285   0.445   5.681   7.436  0.4937  0.0259 -0.7240
  200MOL0     C26286   0.527   5.637   7.533  0.2493 -0.0645 -0.2272
  200MOL0     C26287   0.649   5.680   7.491  0.1657 -0.6791  0.2936
  200MOL0     C26288   0.778   5.630   7.550  0.6705 -0.2729 -1.0411
  200MOL0     C26289   0.845   5.746   7.620  0.5237  0.5135  0.4433
  200MOL0     C26290   0.927   5.840   7.528  0.2176 -0.1396 -0.2836
  200MOL0     C26291   1.044   5.763   7.465 -0.2469 -0.9295 -0.3570
  200MOL0     O26292   1.140   5.859   7.435 -0.0579 -0.4717  0.4002
  200MOL0     C26293   1.276   5.823   7.446  0.5353  0.9613 -0.4760
  200MOL0     C26294   1.359   5.930   7.425 -1.0802 -0.3047 -0.1081
  200MOL0     C26295   1.498   5.918   7.414 -0.5748  0.9612 -0.1053
  200MOL0     C26296   1.557   5.785   7.434 -0.4071 -0.6641 -0.3481
  200MOL0     C26297   1.705   5.768   7.418 -0.7257  0.3310  0.2751
  200MOL0     O26298   1.776   5.872   7.362 -0.1358 -0.1256  0.1974
  200MOL0     C26299   1.909   5.859   7.346  0.1749  0.8021  0.0931
  200MOL0     C26300   1.990   5.969   7.368 -0.6338  0.1603 -1.0115
  200MOL0     C26301   2.126   5.952   7.350  0.0417 -0.4724 -0.2504
  200MOL0     C26302   2.196   5.836   7.307  0.6177 -0.5312 -0.3203
  200MOL0     O26303   2.333   5.843   7.301  0.1135 -0.8235 -0.2691
  200MOL0     C26304   2.396   5.715   7.272 -0.2957 -0.7915 -0.4844
  200MOL0     C26305   2.536   5.731   7.235  0.5826  0.0362 -0.4468
  200MOL0     C26306   2.577   5.804   7.111  0.0905 -0.0960  0.7369
  200MOL0     C26307   2.726   5.790   7.084  0.4135  0.0763 -0.0033
  200MOL0     C26308   2.766   5.903   6.998  0.8166  0.0108  0.5572
  200MOL0     C26309   2.909   5.880   6.949 -0.3028  0.7738  0.5279
  200MOL0     C26310   3.017   5.896   7.050 -0.6703  0.5547  0.5689
  200MOL0     C26311   3.128   5.803   7.014 -0.2799 -0.1220 -0.2013
  200MOL0    Cl26312   3.087   5.625   7.026  0.0073 -0.0881  0.3927
  200MOL0     C26313   2.112   5.728   7.272 -0.4415 -0.4232 -0.0243
  200MOL0     C26314   1.971   5.738   7.291 -1.5178 -0.1996 -0.0599
  200MOL0     O26315   1.761   5.675   7.472  0.3494  0.0916 -0.4181
  200MOL0     C26316   1.476   5.673   7.461  0.0172  0.4147 -0.9084
  200MOL0     C26317   1.337   5.695   7.460 -0.2159  0.1297 -0.6050
  200MOL0     N26318   0.635   5.753   7.373  0.2245 -0.2120  0.2162
  200MOL0     N26319   0.509   5.740   7.342 -0.2642 -0.9494 -0.2981
  200MOL0     C26320   0.880   5.299   7.557 -0.6911 -0.0072 -0.1620
  200MOL0     C26321   1.020   5.292   7.548  0.7199  0.9163 -1.6452
  200MOL0     C26322   1.457   5.263   7.593 -0.2449  0.3511  0.2662
  200MOL0     C26323   1.491   5.140   7.530 -0.6013  0.3644  0.8134
  200MOL0     C26324   1.627   5.108   7.502  0.4887 -0.4906  0.4404
  200MOL0     C26325   1.729   5.195   7.528 -0.2437  0.0032 -0.2616
  200MOL0     O26326   1.857   5.150   7.509  0.0075 -0.7500 -0.2130
  200MOL0     C26327   1.958   5.217   7.587  0.1883  0.3494  1.0512
  200MOL0     C26328   2.086   5.136   7.566 -0.0598 -0.5148  0.9625
  200MOL0     C26329   2.209   5.204   7.618  0.6916 -0.2843  0.4337
  200MOL0     C26330   2.249   5.326   7.535 -0.1188  0.0419  0.1328
  200MOL0     C26331   2.252   5.299   7.398 -0.1480 -0.8862  0.3307
  200MOL0     C26332   2.267   5.283   7.278  0.5009 -0.9034 -0.3918
  200MOL0     C26333   1.691   5.321   7.586  0.1782 -0.6624 -0.1732
  200MOL0     C26334   1.559   5.354   7.614 -0.2316 -0.6684 -0.6559
  200MOL0     H26335   1.074   5.044   7.780 -1.0110  2.1376 -0.2809
  200MOL0     H26336   0.827   5.077   7.799  1.1118  2.3758  3.3315
  200MOL0     H26337   0.507   5.253   7.785  0.5896 -0.8369  0.7469
  200MOL0     H26338   0.640   5.146   7.844 -0.2772 -1.4225 -1.0300
  200MOL0     H26339   0.443   5.019   7.762  0.0239  0.0426  0.1604
  200MOL0     H26340   0.596   4.977   7.677 -1.2253 -1.0856 -0.5133
  200MOL0     H26341   0.391   5.009   7.533  5.0438 -5.0829 -2.5223
  200MOL0     H26342   0.538   5.071   7.476 -1.4586 -4.1563 -1.4418
  200MOL0     H26343   0.308   5.230   7.627 -2.7509  1.0471 -2.7189
  200MOL0     H26344   0.453   5.313   7.582 -1.3416 -0.2614  1.8065
  200MOL0     H26345   0.197   5.254   7.431 -0.5906 -0.0161  0.1464
  200MOL0     H26346   0.351   5.203   7.336 -0.2669 -0.6790  0.2114
  200MOL0     H26347   0.331   5.428   7.277 -1.6918 -1.9221  0.2330
  200MOL0     H26348   0.454   5.414   7.395 -0.4109  0.9255 -1.2137
  200MOL0     H26349   0.162   5.495   7.408 -0.2741  1.2206  0.8772
  200MOL0     H26350   0.257   5.491   7.559 -2.3368  0.9749  0.4955
  200MOL0     H26351   0.259   5.721   7.523 -1.8154 -0.5960  0.0025
  200MOL0     H26352   0.242   5.696   7.347 -0.1049 -2.4617  0.0858
  200MOL0     H26353   0.510   5.565   7.613  0.7520  1.0378  0.9126
  200MOL0     H26354   0.836   5.595   7.464 -0.5346 -2.7017 -0.9357
  200MOL0     H26355   0.754   5.547   7.616 -1.0479  1.3897  0.5584
  200MOL0     H26356   0.913   5.712   7.700 -1.0048  0.2308  1.6633
  200MOL0     H26357   0.766   5.798   7.674 -0.2064  0.0705 -0.1805
  200MOL0     H26358   0.865   5.880   7.448  1.7179  0.9169 -0.9856
  200MOL0     H26359   0.962   5.923   7.591  0.3432  0.0816 -0.6414
  200MOL0     H26360   1.012   5.708   7.376 -2.7614  2.4364 -1.7564
  200MOL0     H26361   1.081   5.700   7.546  0.4890  1.1141  0.9949
  200MOL0     H26362   1.325   6.031   7.403 -2.0369 -0.5684  0.1170
  200MOL0     H26363   1.559   6.007   7.403 -2.0503  1.9067 -1.0703
  200MOL0     H26364   1.960   6.068   7.402  0.2873  0.0604  0.1345
  200MOL0     H26365   2.201   6.027   7.372  0.3395 -0.0712 -2.4526
  200MOL0     H26366   2.356   5.667   7.183 -2.0920 -1.4064  0.6075
  200MOL0     H26367   2.385   5.642   7.353 -3.0711  0.6482  0.5587
  200MOL0     H26368   2.585   5.633   7.229  1.1487  0.2299  0.7742
  200MOL0     H26369   2.585   5.777   7.321  1.4319 -2.2461  0.3758
  200MOL0     H26370   2.561   5.912   7.119  0.8556  0.1746 -0.8516
  200MOL0     H26371   2.519   5.784   7.020  0.5334  3.5324 -0.5256
  200MOL0     H26372   2.786   5.794   7.175 -1.4243  0.6895  1.2289
  200MOL0     H26373   2.748   5.691   7.043 -0.0668 -1.2767  2.7729
  200MOL0     H26374   2.764   6.000   7.048 -1.4555 -0.1885  0.9482
  200MOL0     H26375   2.687   5.910   6.922 -1.7599  0.1714  3.0900
  200MOL0     H26376   2.929   5.946   6.865 -1.4716  0.8151  0.2549
  200MOL0     H26377   2.910   5.774   6.923  0.6772  1.0761 -0.7410
  200MOL0     H26378   3.043   6.003   7.045 -2.8536  1.2151  1.8694
  200MOL0     H26379   2.982   5.874   7.151  0.8561  1.2749  1.2756
  200MOL0     H26380   3.213   5.824   7.080 -0.3604  1.1404 -0.4704
  200MOL0     H26381   3.172   5.835   6.919 -0.7655  1.9808  0.2432
  200MOL0     H26382   2.150   5.633   7.234 -3.8683 -3.2827  2.9764
  200MOL0     H26383   1.903   5.657   7.269 -0.7370 -0.6374 -0.9323
  200MOL0     H26384   1.513   5.576   7.492 -1.0823 -0.0146 -0.8894
  200MOL0     H26385   1.279   5.604   7.473 -0.8322  0.6889  0.8211
  200MOL0     H26386   0.819   5.371   7.503  0.1305  2.1047  1.5696
  200MOL0     H26387   1.069   5.356   7.475 -0.8563  3.5389 -0.5354
  200MOL0     H26388   1.408   5.079   7.494 -1.9954  1.0781  2.6671
  200MOL0     H26389   1.659   5.015   7.457  0.8287 -0.1766  0.0254
  200MOL0     H26390   1.943   5.235   7.694  2.5159 -1.3095  1.7426
  200MOL0     H26391   1.979   5.312   7.538  1.7490 -1.0019 -1.0664
  200MOL0     H26392   2.095   5.045   7.626  2.9814 -0.2562  1.0686
  200MOL0     H26393   2.081   5.101   7.462 -2.2049 -0.7512  1.0994
  200MOL0     H26394   2.297   5.138   7.615 -0.9678 -2.5755 -0.8289
  200MOL0     H26395   2.200   5.238   7.722  3.3057  2.4474 -0.0890
  200MOL0     H26396   2.183   5.410   7.559  3.8603  2.9199  2.2627
  200MOL0     H26397   2.348   5.365   7.558 -0.5164  2.5571 -1.9504
  200MOL0     H26398   2.280   5.273   7.172  1.9058  0.0495 -0.3429
  200MOL0     H26399   1.767   5.394   7.613 -1.4564  0.8766  0.4408
  200MOL0     H26400   1.533   5.446   7.666 -0.0342 -0.5890 -0.6969
  201MOL0     O26401   2.927   9.004   0.913  0.1482  0.1466 -0.3129
  201MOL0     C26402   3.008   9.032   0.998  0.1143  0.0892 -0.1206
  201MOL0     O26403   2.981   9.106   1.109 -0.2790 -0.6385  0.0428
  201MOL0     C26404   2.849   9.132   1.149 -0.6115 -0.5222  1.5826
  201MOL0     C26405   2.754   9.193   1.065 -0.1383  0.8365 -0.1921
  201MOL0     C26406   2.619   9.203   1.118 -0.8510  1.0310 -0.3186
  201MOL0     C26407   2.584   9.161   1.248 -0.4277  1.2774 -0.3814
  201MOL0     O26408   2.458   9.166   1.293 -0.6811  0.0077 -0.5790
  201MOL0     C26409   2.341   9.165   1.200 -0.6553  0.4722 -0.4705
  201MOL0     C26410   2.330   9.031   1.130  0.2910  0.2909 -0.5581
  201MOL0     C26411   2.317   8.919   1.236  0.1280  0.5525 -0.1938
  201MOL0     C26412   2.290   8.775   1.176  0.3239  0.0201 -0.4654
  201MOL0     C26413   2.256   8.672   1.286  0.1261 -0.3025 -0.3793
  201MOL0     C26414   2.172   8.727   1.400 -0.1125  0.3064 -0.0358
  201MOL0     C26415   2.109   8.618   1.476  0.3216 -0.6126 -0.0512
  201MOL0     C26416   2.039   8.668   1.601  0.5208 -0.7096  0.7634
  201MOL0     N26417   2.004   8.555   1.685  0.6180  0.2853 -0.9328
  201MOL0     C26418   1.900   8.469   1.665 -0.1549 -0.0065 -0.6014
  201MOL0     C26419   1.911   8.380   1.770  0.2854  0.1937 -0.8031
  201MOL0     C26420   1.807   8.280   1.812  0.7388 -0.1240 -0.7808
  201MOL0     C26421   1.688   8.362   1.870 -0.0617 -0.7852 -0.7933
  201MOL0     C26422   1.579   8.264   1.902 -1.5285  0.2358  0.4225
  201MOL0     C26423   1.599   8.203   2.042  0.2690  0.3280  0.5780
  201MOL0     O26424   1.507   8.094   2.048 -0.2459 -0.1153 -0.1195
  201MOL0     C26425   1.398   8.107   2.131 -0.3466  0.1649  0.3466
  201MOL0     C26426   1.325   8.225   2.156  0.4884 -0.5721 -0.2824
  201MOL0     C26427   1.209   8.218   2.233 -0.1969 -0.1767  0.0137
  201MOL0     C26428   1.182   8.102   2.301 -0.3834 -0.0230 -0.4492
  201MOL0     C26429   1.077   8.105   2.407 -0.7490  0.7421 -0.2884
  201MOL0     O26430   1.072   7.987   2.485 -0.8673 -0.7138  0.0999
  201MOL0     C26431   0.959   7.957   2.550  0.4440 -0.2225 -0.2573
  201MOL0     C26432   0.938   7.997   2.686  0.3218  0.6184 -0.9993
  201MOL0     C26433   0.816   7.965   2.754  0.1773  0.2905  0.1538
  201MOL0     C26434   0.716   7.893   2.682 -0.5988  0.5045 -0.6871
  201MOL0     O26435   0.610   7.866   2.767  0.1040 -0.0058 -0.6106
  201MOL0     C26436   0.511   7.769   2.728 -0.0192 -0.7495 -0.5087
  201MOL0     C26437   0.417   7.737   2.851 -0.1015 -0.3388  0.1497
  201MOL0     C26438   0.496   7.645   2.947 -0.9819 -0.4836 -0.1494
  201MOL0     C26439   0.420   7.590   3.072  0.3781 -0.4986  0.0335
  201MOL0     C26440   0.513   7.506   3.155 -0.2981  0.3874  0.0547
  201MOL0     C26441   0.449   7.403   3.242 -0.1595  0.1208 -0.7035
  201MOL0     C26442   0.350   7.460   3.348  1.0298  0.9375 -0.3132
  201MOL0     C26443   0.339   7.356   3.466  0.4329 -0.3617 -0.0242
  201MOL0    Cl26444   0.266   7.421   3.614 -0.2184  0.3586  0.1023
  201MOL0     C26445   0.733   7.863   2.542 -0.2522  0.2966  0.2210
  201MOL0     C26446   0.852   7.904   2.471 -0.2081 -0.4091  0.2642
  201MOL0     O26447   0.997   8.196   2.422 -0.4710 -0.1383  0.2934
  201MOL0     C26448   1.245   7.985   2.275  0.7851  0.0725 -0.1954
  201MOL0     C26449   1.353   7.977   2.183 -0.3779 -0.1931  0.2964
  201MOL0     N26450   2.036   8.400   1.827  0.4014  0.1202 -0.3780
  201MOL0     N26451   2.076   8.522   1.796  0.6498  0.9468 -0.3612
  201MOL0     C26452   2.692   9.096   1.328 -0.0435 -0.3306 -0.1574
  201MOL0     C26453   2.821   9.089   1.276  0.0515  0.0998 -0.2725
  201MOL0     C26454   3.137   8.971   0.974 -0.1620 -0.1911 -0.3263
  201MOL0     C26455   3.163   8.849   0.907 -0.4879 -0.5950  0.4787
  201MOL0     C26456   3.299   8.815   0.881 -0.0355  0.4856  0.6299
  201MOL0     C26457   3.402   8.887   0.929 -0.3687  0.0688 -0.4268
  201MOL0     O26458   3.522   8.830   0.914  0.6884 -0.6129  0.1218
  201MOL0     C26459   3.642   8.875   0.984  0.2618  0.9082 -0.3094
  201MOL0     C26460   3.641   8.841   1.134  0.7585 -0.2741  0.3423
  201MOL0     C26461   3.602   8.701   1.158 -0.1098  0.1700  0.6136
  201MOL0     C26462   3.627   8.672   1.311  0.1813  0.1148  0.1340
  201MOL0     C26463   3.767   8.673   1.349  0.1925  0.2389  0.6430
  201MOL0     C26464   3.892   8.684   1.360 -0.7426 -0.4734  0.2453
  201MOL0     C26465   3.379   9.008   0.994 -0.0869  0.2965 -0.4244
  201MOL0     C26466   3.247   9.046   1.011  0.0661  0.6859 -0.8217
  201MOL0     H26467   2.787   9.228   0.967 -0.0590  4.1334  0.8768
  201MOL0     H26468   2.544   9.267   1.072 -1.6855  0.2856 -0.0205
  201MOL0     H26469   2.331   9.247   1.128  2.6080 -0.2713 -1.9504
  201MOL0     H26470   2.256   9.180   1.267 -0.0222 -1.5203  0.8529
  201MOL0     H26471   2.418   9.023   1.066  0.6109 -0.4140 -0.0437
  201MOL0     H26472   2.241   9.030   1.066 -0.6157  1.8396  0.5853
  201MOL0     H26473   2.228   8.951   1.290 -1.1071 -1.0079 -1.1856
  201MOL0     H26474   2.406   8.918   1.300  1.5622 -1.0745 -2.0479
  201MOL0     H26475   2.207   8.785   1.105 -1.9626  1.8894  2.2258
  201MOL0     H26476   2.364   8.727   1.112 -1.8075 -2.1536 -1.4540
  201MOL0     H26477   2.347   8.637   1.336  0.0300  1.6587  1.2669
  201MOL0     H26478   2.206   8.584   1.244  0.5114 -0.2285 -1.0154
  201MOL0     H26479   2.098   8.784   1.343  0.2927 -0.4363 -1.3581
  201MOL0     H26480   2.232   8.785   1.469 -0.5152 -0.0108  0.5892
  201MOL0     H26481   2.041   8.558   1.415  0.7607 -1.8557  0.6439
  201MOL0     H26482   2.195   8.564   1.517  0.5424  0.0806  0.4261
  201MOL0     H26483   1.945   8.721   1.581  1.1327  0.0499 -0.1865
  201MOL0     H26484   2.111   8.731   1.653  3.3931 -2.1351 -1.2228
  201MOL0     H26485   1.819   8.481   1.593  1.5863  0.8143 -2.5350
  201MOL0     H26486   1.847   8.217   1.892 -2.4703 -0.0634  1.0605
  201MOL0     H26487   1.772   8.221   1.727  2.0844  2.0042 -2.9351
  201MOL0     H26488   1.651   8.429   1.792  3.8748  0.4519 -1.8206
  201MOL0     H26489   1.711   8.423   1.958  1.9819  1.3891 -2.7027
  201MOL0     H26490   1.480   8.309   1.897 -2.7488 -2.3617  0.0753
  201MOL0     H26491   1.588   8.185   1.827 -1.6017 -0.2603  0.9266
  201MOL0     H26492   1.579   8.276   2.121 -0.7174  0.0966  0.5613
  201MOL0     H26493   1.698   8.163   2.064  1.7743  1.6989 -2.8642
  201MOL0     H26494   1.353   8.314   2.101 -2.3452 -0.1692 -1.2370
  201MOL0     H26495   1.151   8.306   2.257 -2.0926 -1.7458  1.6624
  201MOL0     H26496   1.004   8.066   2.738 -1.2902  0.6225  1.2026
  201MOL0     H26497   0.786   7.984   2.856 -1.0907  3.5050 -0.6608
  201MOL0     H26498   0.565   7.679   2.698 -1.0702 -1.2629 -0.9066
  201MOL0     H26499   0.466   7.797   2.632 -1.4596 -4.1452 -0.9755
  201MOL0     H26500   0.335   7.675   2.814  1.3561 -1.8445 -0.6979
  201MOL0     H26501   0.395   7.832   2.900  4.6976  2.0682 -1.6642
  201MOL0     H26502   0.585   7.696   2.982 -1.7528 -0.3755  1.7658
  201MOL0     H26503   0.534   7.557   2.895  1.2153  0.2595  0.1168
  201MOL0     H26504   0.380   7.678   3.122 -1.4589 -1.6675  0.7197
  201MOL0     H26505   0.335   7.530   3.037  0.6626  0.0809 -1.7749
  201MOL0     H26506   0.577   7.569   3.217 -0.1681 -1.0000  1.3998
  201MOL0     H26507   0.584   7.454   3.089 -1.4793  0.7087 -1.5384
  201MOL0     H26508   0.523   7.340   3.293 -0.6268  0.8461  0.9496
  201MOL0     H26509   0.385   7.335   3.186 -0.9523  0.8308 -0.6692
  201MOL0     H26510   0.394   7.549   3.395  2.3503 -0.4757  1.2583
  201MOL0     H26511   0.256   7.481   3.296  2.4379 -2.0783 -4.6031
  201MOL0     H26512   0.437   7.325   3.504  2.5462  3.6353 -1.6094
  201MOL0     H26513   0.288   7.270   3.422  4.4273 -2.4792 -0.9737
  201MOL0     H26514   0.651   7.824   2.482 -0.2863  0.9005 -0.1256
  201MOL0     H26515   0.875   7.889   2.366  0.6126  1.5393  0.1256
  201MOL0     H26516   1.218   7.899   2.335  0.1414  0.9630  0.8286
  201MOL0     H26517   1.406   7.883   2.169 -2.0667 -1.5265  2.3132
  201MOL0     H26518   2.667   9.058   1.426 -0.3016  0.2606  0.0088
  201MOL0     H26519   2.900   9.046   1.338 -1.9505  0.5839  2.8724
  201MOL0     H26520   3.075   8.794   0.874  0.8548 -3.2037  0.9858
  201MOL0     H26521   3.311   8.723   0.825  0.3582  1.4827 -1.0122
  201MOL0     H26522   3.657   8.983   0.973  0.3470  1.1618  1.9600
  201MOL0     H26523   3.720   8.817   0.934  0.4118 -1.3388  2.3011
  201MOL0     H26524   3.740   8.872   1.168 -0.0563  2.1261  0.7360
  201MOL0     H26525   3.566   8.907   1.178  1.4887 -0.1515  1.4320
  201MOL0     H26526   3.653   8.621   1.105  1.0680  1.6438 -0.5849
  201MOL0     H26527   3.494   8.691   1.139 -0.4456 -2.1821  3.0741
  201MOL0     H26528   3.557   8.734   1.366  0.9922  1.5074 -0.3558
  201MOL0     H26529   3.601   8.568   1.334 -1.1004 -0.1563 -2.2328
  201MOL0     H26530   3.999   8.683   1.367 -0.5925  2.8305 -0.4431
  201MOL0     H26531   3.462   9.067   1.029 -0.7372  0.7588  0.3750
  201MOL0     H26532   3.234   9.143   1.059 -1.3067 -0.4900  1.3448
  202MOL0     O26533   3.529  11.211   3.581  0.1780 -0.3949 -0.2812
  202MOL0     C26534   3.580  11.305   3.642  0.2588 -0.2189  0.0474
  202MOL0     O26535   3.521  11.391   3.742  0.7445  0.8332  0.2213
  202MOL0     C26536   3.390  11.381   3.760 -0.5054 -0.1103 -0.1772
  202MOL0     C26537   3.320  11.500   3.763  0.1772  0.4867 -0.3190
  202MOL0     C26538   3.188  11.497   3.808  0.8378  0.6224 -0.0891
  202MOL0     C26539   3.120  11.385   3.847  0.0230  0.8988  1.0864
  202MOL0     O26540   2.989  11.373   3.873  0.2407  0.3610 -0.0088
  202MOL0     C26541   2.903  11.480   3.847  0.2835 -0.9798  0.5103
  202MOL0     C26542   2.760  11.438   3.904  0.2201 -0.2572  0.1952
  202MOL0     C26543   2.675  11.355   3.805 -0.7237 -0.6326 -0.4506
  202MOL0     C26544   2.535  11.320   3.865  0.5696 -0.5454  0.1911
  202MOL0     C26545   2.532  11.208   3.969  0.5398  0.1820  0.3978
  202MOL0     C26546   2.386  11.146   3.978  0.4195 -0.7184 -0.7019
  202MOL0     C26547   2.280  11.230   4.061 -0.6163 -0.1481  0.7343
  202MOL0     C26548   2.145  11.178   4.056  0.1726  1.0905  0.3291
  202MOL0     N26549   2.051  11.263   4.129 -0.5890  0.3851  0.2035
  202MOL0     C26550   1.985  11.377   4.081  0.4664 -1.1720 -0.8790
  202MOL0     C26551   1.922  11.420   4.190 -1.1968  0.1793  0.6253
  202MOL0     C26552   1.841  11.545   4.201 -0.8179 -0.0533  0.3166
  202MOL0     C26553   1.746  11.557   4.069 -0.1895 -0.1924  0.2189
  202MOL0     C26554   1.667  11.689   4.072  0.0342 -0.3241  0.6481
  202MOL0     C26555   1.546  11.691   3.978 -0.5019 -0.4147  1.5448
  202MOL0     O26556   1.466  11.584   4.022  0.4099  0.7525 -0.2256
  202MOL0     C26557   1.334  11.612   4.037  0.0279  0.1529 -0.1748
  202MOL0     C26558   1.273  11.593   4.154  0.2925  0.5386  0.4723
  202MOL0     C26559   1.139  11.615   4.159  0.0966  0.4514  0.3339
  202MOL0     C26560   1.061  11.655   4.048 -0.0995  0.5074  0.9617
  202MOL0     C26561   0.911  11.660   4.051 -0.7715 -0.4544  0.3476
  202MOL0     O26562   0.855  11.641   4.175  0.1246  0.3687  0.8742
  202MOL0     C26563   0.720  11.647   4.202 -0.3714 -1.0440 -0.7736
  202MOL0     C26564   0.684  11.662   4.335  0.0080 -1.1063  0.1298
  202MOL0     C26565   0.550  11.683   4.372  0.2670 -0.7225 -0.2848
  202MOL0     C26566   0.447  11.661   4.276 -0.0890 -1.0114  0.3909
  202MOL0     O26567   0.322  11.670   4.324  1.1677 -0.1210  0.7214
  202MOL0     C26568   0.216  11.600   4.245 -0.1544 -0.4358 -0.2314
  202MOL0     C26569   0.083  11.580   4.321  0.0825  0.2924 -0.4788
  202MOL0     C26570   0.017  11.706   4.384 -1.1491 -0.6052  0.2220
  202MOL0     C26571  -0.024  11.806   4.282  0.1743 -0.5243  0.8883
  202MOL0     C26572  -0.017  11.951   4.345  0.0332  0.0865  0.6649
  202MOL0     C26573  -0.103  11.987   4.463 -0.0326 -0.0791  0.2153
  202MOL0     C26574  -0.071  12.124   4.516 -0.5675  0.6895 -0.3285
  202MOL0     C26575   0.014  12.119   4.644  0.3628  0.7627 -0.5522
  202MOL0    Cl26576   0.166  12.036   4.637 -0.3319 -0.0418  0.3155
  202MOL0     C26577   0.485  11.624   4.147  0.1693 -0.7416  0.8525
  202MOL0     C26578   0.618  11.613   4.106 -0.5786  0.0463  0.5400
  202MOL0     O26579   0.850  11.668   3.948  0.1139 -0.2319 -0.5598
  202MOL0     C26580   1.132  11.676   3.927  0.4510  0.2370 -0.7065
  202MOL0     C26581   1.268  11.655   3.924 -0.1243  0.0739 -0.7876
  202MOL0     N26582   1.963  11.345   4.295  0.5877  0.6137 -0.1186
  202MOL0     N26583   2.033  11.243   4.262  0.0795  0.4028  1.2099
  202MOL0     C26584   3.185  11.260   3.831  0.0224  0.0851 -0.2589
  202MOL0     C26585   3.324  11.256   3.792  0.2823 -1.0727 -0.1985
  202MOL0     C26586   3.710  11.350   3.596  0.2449  0.2330 -0.1718
  202MOL0     C26587   3.778  11.279   3.497 -0.1024  0.5991  0.9261
  202MOL0     C26588   3.908  11.309   3.456  0.3077 -0.5179  0.5447
  202MOL0     C26589   3.972  11.415   3.504 -0.6174 -0.7494 -0.1328
  202MOL0     O26590   4.099  11.469   3.466 -0.0838 -0.2414 -0.0261
  202MOL0     C26591   4.196  11.371   3.437 -0.2030  0.3511  0.8741
  202MOL0     C26592   4.327  11.416   3.497 -0.0130 -0.2832 -0.3977
  202MOL0     C26593   4.452  11.337   3.468 -0.0346 -0.1241  1.1404
  202MOL0     C26594   4.568  11.347   3.570 -0.0399  0.0264  0.0941
  202MOL0     C26595   4.666  11.250   3.538  0.4039 -0.4267 -0.7424
  202MOL0     C26596   4.750  11.168   3.503  0.8073  0.0604  0.8735
  202MOL0     C26597   3.903  11.506   3.586 -1.6566 -0.1300 -0.4606
  202MOL0     C26598   3.774  11.472   3.638 -0.0507 -0.1872 -0.1243
  202MOL0     H26599   3.368  11.591   3.729  1.2923  0.9534  2.2223
  202MOL0     H26600   3.129  11.587   3.818 -0.9872 -0.5701  0.2882
  202MOL0     H26601   2.906  11.490   3.738  0.5736 -1.2549  0.4929
  202MOL0     H26602   2.944  11.569   3.895 -1.4944  0.5553 -0.6607
  202MOL0     H26603   2.694  11.518   3.937 -0.1286 -0.7150  0.6336
  202MOL0     H26604   2.778  11.380   3.995  0.4412 -0.3519  0.0933
  202MOL0     H26605   2.734  11.266   3.782 -2.1989 -2.0046  0.8754
  202MOL0     H26606   2.669  11.419   3.716  1.1332  1.0320  0.5283
  202MOL0     H26607   2.495  11.407   3.918  0.0255 -1.9820  2.2288
  202MOL0     H26608   2.465  11.298   3.783  0.3207 -1.1287  0.5589
  202MOL0     H26609   2.564  11.251   4.064 -0.9995 -0.4941  1.2735
  202MOL0     H26610   2.591  11.120   3.941 -2.2619 -1.6920 -0.1581
  202MOL0     H26611   2.395  11.045   4.018  0.2743 -0.1977  0.7192
  202MOL0     H26612   2.352  11.148   3.875 -0.0606  2.5442 -0.5719
  202MOL0     H26613   2.307  11.226   4.167 -2.6314 -0.2149  1.2767
  202MOL0     H26614   2.283  11.336   4.033  1.4365  0.0458  1.5026
  202MOL0     H26615   2.141  11.076   4.095 -0.1737  1.2784  0.7937
  202MOL0     H26616   2.107  11.172   3.953 -2.4491  2.2704  1.1539
  202MOL0     H26617   1.982  11.421   3.981  1.7580  2.6581  0.5696
  202MOL0     H26618   1.905  11.633   4.204 -1.9480  0.8484 -0.7398
  202MOL0     H26619   1.780  11.540   4.291  3.7641  1.3868  3.8507
  202MOL0     H26620   1.678  11.472   4.054  0.0613 -0.4893  0.7215
  202MOL0     H26621   1.802  11.561   3.975 -0.1634  1.6174  0.2865
  202MOL0     H26622   1.630  11.706   4.174 -0.0894  0.3870  0.4879
  202MOL0     H26623   1.746  11.761   4.048 -0.3896 -0.1845 -0.3326
  202MOL0     H26624   1.581  11.673   3.876  0.3787  0.2161  1.7197
  202MOL0     H26625   1.500  11.790   3.979  0.1421  0.1931 -3.4031
  202MOL0     H26626   1.332  11.573   4.243 -0.1986  0.4628  0.7846
  202MOL0     H26627   1.092  11.598   4.255  1.5798  2.3732  1.4939
  202MOL0     H26628   0.761  11.668   4.411  0.0027  1.6657 -0.0015
  202MOL0     H26629   0.545  11.716   4.475  1.7755 -0.3417 -0.3096
  202MOL0     H26630   0.247  11.497   4.225 -2.1654 -1.0183 -0.6791
  202MOL0     H26631   0.183  11.647   4.151  1.8508  2.5499  0.4036
  202MOL0     H26632   0.099  11.509   4.403 -3.0669 -1.7115 -1.4096
  202MOL0     H26633   0.014  11.524   4.256  0.5522 -2.5804  1.3416
  202MOL0     H26634   0.088  11.735   4.462  0.9199 -1.6578 -1.1676
  202MOL0     H26635  -0.077  11.684   4.435 -0.1274 -1.8520  1.6958
  202MOL0     H26636   0.020  11.803   4.182 -0.2636 -1.4165  0.7162
  202MOL0     H26637  -0.128  11.789   4.253 -0.1013  0.9099  0.9411
  202MOL0     H26638  -0.054  12.014   4.264  0.3796 -1.5895 -0.8724
  202MOL0     H26639   0.084  11.987   4.364 -0.7489  2.7609  0.1275
  202MOL0     H26640  -0.107  11.920   4.550 -0.2745  2.7134  2.4960
  202MOL0     H26641  -0.202  11.992   4.416 -0.2539  1.0781  0.7687
  202MOL0     H26642  -0.022  12.175   4.433 -0.3765 -0.7283 -1.1235
  202MOL0     H26643  -0.170  12.166   4.536 -1.5210 -0.5006 -2.2809
  202MOL0     H26644  -0.049  12.065   4.714  0.9024  1.2315  0.3090
  202MOL0     H26645   0.022  12.218   4.690 -0.3846 -0.3279  2.0515
  202MOL0     H26646   0.409  11.600   4.074 -0.4044 -1.0941  1.5533
  202MOL0     H26647   0.635  11.583   4.003 -4.0108 -0.7402  0.0952
  202MOL0     H26648   1.072  11.712   3.845 -0.3003  0.2656 -0.1594
  202MOL0     H26649   1.320  11.658   3.829  3.6764  1.2882  1.1549
  202MOL0     H26650   3.123  11.173   3.852 -1.4400  1.2471  0.3680
  202MOL0     H26651   3.374  11.160   3.787 -1.5318 -2.2285  2.1313
  202MOL0     H26652   3.744  11.183   3.461  0.1426  1.8707 -3.1114
  202MOL0     H26653   3.962  11.237   3.395 -2.3163 -1.7819 -0.4323
  202MOL0     H26654   4.213  11.362   3.330  0.6061  2.9509  0.7062
  202MOL0     H26655   4.171  11.273   3.480 -2.1072 -0.4401 -1.8237
  202MOL0     H26656   4.347  11.520   3.471  2.2612  0.6126  3.8290
  202MOL0     H26657   4.311  11.422   3.605 -1.0142 -2.8117 -0.3443
  202MOL0     H26658   4.471  11.386   3.373 -5.8162  0.4075 -0.0914
  202MOL0     H26659   4.432  11.230   3.451 -0.5734 -0.2716  2.5731
  202MOL0     H26660   4.613  11.446   3.582 -0.2223  0.3016 -1.3322
  202MOL0     H26661   4.544  11.315   3.671 -0.9024  1.7541  0.4862
  202MOL0     H26662   4.822  11.102   3.460  0.8444 -0.5416  1.8172
  202MOL0     H26663   3.955  11.598   3.608  0.4144 -1.3486  0.0667
  202MOL0     H26664   3.714  11.538   3.700  0.4435 -0.0673  0.2313
  203MOL0     O26665   0.771  11.074   6.802 -0.2148 -0.2972 -0.4529
  203MOL0     C26666   0.760  11.195   6.786  0.7478 -0.4971 -0.2418
  203MOL0     O26667   0.632  11.261   6.789 -0.7376 -0.2963 -0.1739
  203MOL0     C26668   0.523  11.184   6.816  0.1995  0.4595  0.5302
  203MOL0     C26669   0.408  11.213   6.739  0.7556 -0.0998  0.1914
  203MOL0     C26670   0.284  11.151   6.787  0.4266 -0.0017  0.5867
  203MOL0     C26671   0.274  11.052   6.883 -0.2621 -0.4451  1.0836
  203MOL0     O26672   0.155  10.994   6.924 -0.3135  1.0039  0.6789
  203MOL0     C26673   0.034  11.060   6.890 -0.0298  0.8564 -0.1200
  203MOL0     C26674  -0.065  10.972   6.959 -0.7292  0.5274  1.1229
  203MOL0     C26675  -0.197  11.033   6.958 -0.0902 -0.2081  0.0274
  203MOL0     C26676  -0.304  10.945   7.033 -0.4661 -0.3394 -0.1259
  203MOL0     C26677  -0.434  10.976   6.965  0.2071  0.9225  0.1329
  203MOL0     C26678  -0.478  10.895   6.842 -0.5889  0.1871  0.3082
  203MOL0     C26679  -0.621  10.832   6.840  0.3653 -0.1084  0.9889
  203MOL0     C26680  -0.722  10.933   6.800  0.6802  0.2307 -0.3513
  203MOL0     N26681  -0.853  10.897   6.847  0.5009  0.3658 -0.7240
  203MOL0     C26682  -0.925  10.782   6.834  0.2621  0.2526  0.0976
  203MOL0     C26683  -1.049  10.800   6.883 -0.2325  0.5645 -0.5765
  203MOL0     C26684  -1.154  10.691   6.896  0.1441 -0.4962  0.0117
  203MOL0     C26685  -1.198  10.671   7.050 -0.4491  0.0664  0.1178
  203MOL0     C26686  -1.267  10.534   7.058  0.4978 -0.0518  0.7974
  203MOL0     C26687  -1.358  10.538   7.184 -0.1462 -0.1559  0.0019
  203MOL0     O26688  -1.419  10.414   7.221  0.1564 -0.5935 -0.0514
  203MOL0     C26689  -1.492  10.411   7.341 -0.2893  0.9913  0.3981
  203MOL0     C26690  -1.501  10.509   7.438 -1.3587  0.2206  0.2751
  203MOL0     C26691  -1.577  10.493   7.556 -0.8106  0.3803  0.1908
  203MOL0     C26692  -1.667  10.383   7.564 -1.1778  0.0410  1.6341
  203MOL0     C26693  -1.758  10.358   7.679 -0.1364 -0.0084 -0.2531
  203MOL0     O26694  -1.737  10.413   7.800 -0.1095  0.8944 -0.0300
  203MOL0     C26695  -1.829  10.407   7.901 -0.4701  0.0672  0.5519
  203MOL0     C26696  -1.911  10.289   7.930 -0.7812 -0.4042 -0.0514
  203MOL0     C26697  -2.012  10.297   8.029  0.7774 -0.7884  0.0312
  203MOL0     C26698  -2.053  10.421   8.084  0.0386  0.7475 -0.0607
  203MOL0     O26699  -2.160  10.440   8.170  0.7691 -0.2283  0.3050
  203MOL0     C26700  -2.252  10.325   8.197  0.1569  0.4099 -0.1348
  203MOL0     C26701  -2.339  10.284   8.087  0.2107  0.1702  0.0870
  203MOL0     C26702  -2.444  10.184   8.135  0.4878  0.2977  0.2258
  203MOL0     C26703  -2.567  10.181   8.035 -0.3570  0.1410 -0.8868
  203MOL0     C26704  -2.681  10.104   8.100 -0.2512  0.2912  0.4351
  203MOL0     C26705  -2.642   9.957   8.161  0.2822  0.5349  0.5029
  203MOL0     C26706  -2.631   9.855   8.046  0.4424  0.2549 -0.9119
  203MOL0     C26707  -2.621   9.705   8.099  0.3599  0.1150 -0.0220
  203MOL0    Cl26708  -2.785   9.643   8.078 -0.3951  0.3876  0.2209
  203MOL0     C26709  -1.968  10.524   8.055 -0.6275 -0.0990 -1.6545
  203MOL0     C26710  -1.866  10.524   7.965  0.7025 -0.1346 -0.3933
  203MOL0     O26711  -1.847  10.275   7.657 -0.1641 -0.0631  0.4455
  203MOL0     C26712  -1.673  10.296   7.456  0.7324 -0.2379  0.3801
  203MOL0     C26713  -1.584  10.305   7.349 -0.3618 -0.0462  0.2182
  203MOL0     N26714  -1.049  10.931   6.937  0.0330  0.2460  0.3044
  203MOL0     N26715  -0.939  10.989   6.899 -0.6772 -0.0949 -0.6714
  203MOL0     C26716   0.388  11.008   6.935  0.2487 -0.0170 -0.5531
  203MOL0     C26717   0.511  11.078   6.914 -0.0345 -0.6698 -0.6528
  203MOL0     C26718   0.886  11.256   6.754 -0.4001  0.1911 -0.0815
  203MOL0     C26719   0.889  11.381   6.684  1.2582  0.0759 -0.1359
  203MOL0     C26720   1.007  11.430   6.637 -0.7486  0.4581  0.3920
  203MOL0     C26721   1.131  11.370   6.672  0.9113 -0.3831 -0.8679
  203MOL0     O26722   1.250  11.418   6.630 -0.2807  0.2506 -0.5214
  203MOL0     C26723   1.320  11.480   6.738  0.0603  0.0878 -0.4552
  203MOL0     C26724   1.467  11.500   6.697  0.5650 -0.3271  0.2473
  203MOL0     C26725   1.546  11.379   6.737 -0.2371  0.8070 -0.0455
  203MOL0     C26726   1.694  11.392   6.714  0.2464 -0.0750  0.0247
  203MOL0     C26727   1.784  11.285   6.776 -0.4375 -0.0799 -0.2162
  203MOL0     C26728   1.855  11.202   6.821  0.3535 -0.4303  1.6554
  203MOL0     C26729   1.133  11.258   6.760 -0.4826 -0.3006 -0.6685
  203MOL0     C26730   1.011  11.198   6.796  0.0578 -0.0047 -0.6728
  203MOL0     H26731   0.407  11.282   6.655 -1.7143 -2.6056 -2.0569
  203MOL0     H26732   0.190  11.184   6.746 -0.6337 -3.1275  0.2109
  203MOL0     H26733  -0.001  11.056   6.787 -1.5531  0.6941  0.3799
  203MOL0     H26734   0.033  11.165   6.922  1.7181  1.5470 -2.0362
  203MOL0     H26735  -0.042  10.966   7.066 -1.3490 -1.7956  1.1969
  203MOL0     H26736  -0.061  10.867   6.927  0.0169  0.0435  2.7088
  203MOL0     H26737  -0.227  11.039   6.852  1.0790 -2.5912 -0.5083
  203MOL0     H26738  -0.187  11.137   6.989  0.2143  0.1000 -1.0535
  203MOL0     H26739  -0.284  10.838   7.022 -0.9311 -0.3504 -1.0002
  203MOL0     H26740  -0.304  10.979   7.137  1.6199 -1.0623  0.1588
  203MOL0     H26741  -0.441  11.082   6.940 -1.0598  0.3813 -2.0573
  203MOL0     H26742  -0.502  10.943   7.045  0.9982  2.3223  1.4465
  203MOL0     H26743  -0.423  10.801   6.847  2.1717  1.7155  0.4829
  203MOL0     H26744  -0.451  10.937   6.744 -1.1955 -3.0980 -1.4223
  203MOL0     H26745  -0.627  10.759   6.759 -2.2741  1.4571 -0.3366
  203MOL0     H26746  -0.659  10.794   6.935  0.5224  0.7274  1.3966
  203MOL0     H26747  -0.736  10.938   6.691 -1.1100  0.5798 -0.1476
  203MOL0     H26748  -0.698  11.032   6.838 -1.2934  1.7454 -2.6826
  203MOL0     H26749  -0.884  10.690   6.794  0.0207 -0.3075  1.1108
  203MOL0     H26750  -1.125  10.597   6.849  0.6869  1.0795 -3.0217
  203MOL0     H26751  -1.238  10.737   6.843  2.4487  0.8873 -2.6556
  203MOL0     H26752  -1.271  10.749   7.075  0.0986  0.1549  1.4973
  203MOL0     H26753  -1.113  10.663   7.118  1.6471 -3.8389 -2.5095
  203MOL0     H26754  -1.330  10.519   6.970 -0.1326  2.0210  0.8354
  203MOL0     H26755  -1.188  10.462   7.083  1.9941  1.2792  0.1160
  203MOL0     H26756  -1.436  10.614   7.173  1.0878  1.1936  0.2813
  203MOL0     H26757  -1.294  10.575   7.265 -0.6107 -0.2016  0.3925
  203MOL0     H26758  -1.430  10.592   7.435 -0.3455 -0.6437 -2.0106
  203MOL0     H26759  -1.565  10.570   7.632  1.9343  1.0076 -0.7621
  203MOL0     H26760  -1.892  10.197   7.875 -0.3026 -0.5620  0.3787
  203MOL0     H26761  -2.082  10.218   8.054 -5.3328  3.6239 -0.7457
  203MOL0     H26762  -2.325  10.369   8.266  0.0229  1.3347 -0.8477
  203MOL0     H26763  -2.203  10.240   8.246  3.7650  2.6827  0.5675
  203MOL0     H26764  -2.291  10.231   8.004 -2.3000  2.0722 -2.8148
  203MOL0     H26765  -2.387  10.377   8.052 -1.7626 -0.6290  0.4985
  203MOL0     H26766  -2.477  10.207   8.237 -4.6076  0.6807 -1.2046
  203MOL0     H26767  -2.404  10.083   8.146 -1.6651 -0.6537 -0.1170
  203MOL0     H26768  -2.597  10.283   8.012 -0.2606  0.0218 -1.5582
  203MOL0     H26769  -2.530  10.126   7.948  1.2515 -2.1072  1.0734
  203MOL0     H26770  -2.766  10.105   8.032 -0.6343 -0.0158  0.9025
  203MOL0     H26771  -2.713  10.174   8.177 -2.1129 -0.3234  0.2626
  203MOL0     H26772  -2.731   9.919   8.212 -0.1508  0.4065 -0.3288
  203MOL0     H26773  -2.553   9.963   8.224 -0.0204  2.2647  0.8138
  203MOL0     H26774  -2.708   9.871   7.970  0.6301  2.5916 -0.6706
  203MOL0     H26775  -2.531   9.867   8.002  1.0079 -1.7807 -0.3247
  203MOL0     H26776  -2.585   9.698   8.202 -0.8491 -2.9109  0.2856
  203MOL0     H26777  -2.548   9.640   8.051 -0.4321 -0.0429 -1.0435
  203MOL0     H26778  -1.973  10.620   8.106  1.1849 -1.2813  1.0147
  203MOL0     H26779  -1.807  10.610   7.933  2.6845 -1.4373 -0.4660
  203MOL0     H26780  -1.749  10.219   7.455  3.4102 -3.2669 -3.5186
  203MOL0     H26781  -1.600  10.240   7.264 -0.8207 -1.2854  1.2274
  203MOL0     H26782   0.396  10.929   7.009 -2.4041  0.7938  0.7400
  203MOL0     H26783   0.591  11.049   6.981  0.3292 -0.4159 -0.9761
  203MOL0     H26784   0.796  11.430   6.657 -0.1052 -2.0563  0.5168
  203MOL0     H26785   1.010  11.512   6.566  1.6309  2.4106  2.5682
  203MOL0     H26786   1.311  11.436   6.837 -2.2383 -0.9989 -1.0838
  203MOL0     H26787   1.277  11.579   6.756 -2.0594 -1.3703  3.7428
  203MOL0     H26788   1.470  11.511   6.588 -2.0763  2.2875  0.3125
  203MOL0     H26789   1.508  11.589   6.744 -0.3524  2.3656 -3.5819
  203MOL0     H26790   1.512  11.283   6.698 -1.3542  0.3250  1.9992
  203MOL0     H26791   1.536  11.362   6.845  0.4074 -0.9276 -0.2308
  203MOL0     H26792   1.700  11.379   6.606  0.3009  2.3579 -0.3135
  203MOL0     H26793   1.726  11.487   6.757  3.6085 -1.4292  0.7572
  203MOL0     H26794   1.915  11.130   6.872  0.4557 -2.1136 -0.6667
  203MOL0     H26795   1.222  11.204   6.790 -1.3333 -0.9094  0.8589
  203MOL0     H26796   1.003  11.102   6.845  1.9624 -0.6314 -1.4991
  204MOL0     O26797   4.135   0.648   0.620  0.2468 -0.4685 -0.5239
  204MOL0     C26798   4.059   0.691   0.708 -0.1671  0.9851  0.1906
  204MOL0     O26799   3.941   0.755   0.691  0.3824 -0.3359 -0.4197
  204MOL0     C26800   3.887   0.749   0.563 -0.3915  0.0760 -0.3913
  204MOL0     C26801   3.893   0.627   0.489  0.0068  0.1883 -0.5187
  204MOL0     C26802   3.859   0.623   0.354  0.2365  0.2632 -0.3088
  204MOL0     C26803   3.785   0.735   0.303  0.3275 -0.5492  1.2254
  204MOL0     O26804   3.736   0.733   0.174  0.1687  0.3632 -0.7425
  204MOL0     C26805   3.660   0.618   0.136 -0.0486 -0.0946 -0.5524
  204MOL0     C26806   3.549   0.672   0.038 -0.2330  0.1972 -0.1596
  204MOL0     C26807   3.430   0.715   0.118  0.7905  0.3651  0.2215
  204MOL0     C26808   3.318   0.774   0.039  0.7006 -0.1936  0.8708
  204MOL0     C26809   3.194   0.821   0.113 -0.2313 -0.1950 -0.9635
  204MOL0     C26810   3.119   0.930   0.039  0.6145  0.1844 -0.1891
  204MOL0     C26811   2.997   0.985   0.109 -1.0579  0.2124  0.8238
  204MOL0     C26812   2.897   1.038  -0.005  0.2021 -0.4394  0.4691
  204MOL0     N26813   2.758   1.080   0.040  0.0575  0.8594 -0.5265
  204MOL0     C26814   2.655   1.002   0.006  0.1926  0.3048 -0.5954
  204MOL0     C26815   2.547   1.063   0.059 -0.6715 -0.1132 -0.7986
  204MOL0     C26816   2.405   1.007   0.065  0.3095 -0.0439 -0.2739
  204MOL0     C26817   2.310   1.082  -0.032 -0.1371 -0.7164  0.4237
  204MOL0     C26818   2.202   0.993  -0.105 -0.2424  0.1380 -0.1987
  204MOL0     C26819   2.104   0.940   0.009  0.7913  0.3791 -0.1780
  204MOL0     O26820   2.029   1.047   0.054  0.4095  0.4722  0.3456
  204MOL0     C26821   1.899   1.026   0.098 -0.5664 -0.5266  0.3355
  204MOL0     C26822   1.825   1.150   0.117 -0.4522 -1.6965 -0.5893
  204MOL0     C26823   1.695   1.142   0.157 -0.2973  0.3981 -0.1312
  204MOL0     C26824   1.641   1.024   0.206  0.8013 -0.6166 -0.0688
  204MOL0     C26825   1.513   1.030   0.272 -0.6023 -0.6018 -0.2925
  204MOL0     O26826   1.452   0.921   0.333  0.2152  0.9219  0.0918
  204MOL0     C26827   1.331   0.912   0.404 -0.1783 -0.3699 -0.1281
  204MOL0     C26828   1.297   1.022   0.487  2.0056  0.6835  0.2749
  204MOL0     C26829   1.178   1.009   0.571 -0.2832  0.3289  0.1091
  204MOL0     C26830   1.108   0.887   0.577  0.3214 -0.9640 -0.0746
  204MOL0     O26831   0.999   0.850   0.655 -0.6372  0.3409 -0.5374
  204MOL0     C26832   1.003   0.905   0.788 -0.1329  0.3156  0.0199
  204MOL0     C26833   0.876   0.869   0.878 -0.5650 -0.6153  0.6305
  204MOL0     C26834   0.844   0.719   0.885 -0.2853  0.4013 -0.5650
  204MOL0     C26835   0.701   0.696   0.939  0.0775  0.4127  0.4912
  204MOL0     C26836   0.652   0.550   0.915 -0.1227 -0.1357 -0.3604
  204MOL0     C26837   0.510   0.521   0.962 -0.3489  0.1097  0.2385
  204MOL0     C26838   0.485   0.374   0.941  0.7710  0.7667 -0.0738
  204MOL0     C26839   0.368   0.333   1.031  0.7243  0.3320 -0.4225
  204MOL0    Cl26840   0.225   0.445   0.991  0.2617 -0.1634 -0.4200
  204MOL0     C26841   1.152   0.778   0.498 -0.5406 -0.0595  1.0733
  204MOL0     C26842   1.263   0.798   0.413 -0.6406  1.2299  0.4887
  204MOL0     O26843   1.460   1.138   0.268  0.2155  0.2835 -0.0995
  204MOL0     C26844   1.715   0.906   0.201  0.8535 -0.2375 -0.8766
  204MOL0     C26845   1.843   0.904   0.138 -0.2853 -0.0342  0.4458
  204MOL0     N26846   2.589   1.184   0.119  0.1903  0.2640 -0.4109
  204MOL0     N26847   2.716   1.190   0.116 -0.4545 -0.1517  0.4575
  204MOL0     C26848   3.765   0.853   0.380 -0.1683  0.1311 -0.5427
  204MOL0     C26849   3.822   0.862   0.510  0.4760  0.8071 -0.0322
  204MOL0     C26850   4.119   0.699   0.843  0.3295  0.4097 -0.4219
  204MOL0     C26851   4.035   0.750   0.949 -0.9742 -0.0391  0.0420
  204MOL0     C26852   4.101   0.769   1.071 -0.6333  0.2513 -0.5190
  204MOL0     C26853   4.236   0.749   1.104  0.2430  0.2440 -0.1336
  204MOL0     O26854   4.299   0.755   1.227  0.3942 -0.3030 -0.6583
  204MOL0     C26855   4.220   0.807   1.336  0.7115  1.4581  0.3594
  204MOL0     C26856   4.303   0.854   1.456  0.6226 -0.8330  0.5773
  204MOL0     C26857   4.404   0.740   1.485  0.1674 -0.0291 -0.3185
  204MOL0     C26858   4.511   0.787   1.597  0.6001 -0.1018  0.9117
  204MOL0     C26859   4.614   0.682   1.623 -0.5604  1.0721 -0.0066
  204MOL0     C26860   4.685   0.587   1.639  0.3428  0.5882  0.0723
  204MOL0     C26861   4.311   0.690   1.004 -0.2003 -0.1444  1.0321
  204MOL0     C26862   4.260   0.674   0.867  0.1913  0.4065  0.1302
  204MOL0     H26863   3.937   0.537   0.531  0.1309  0.7333  0.5567
  204MOL0     H26864   3.861   0.523   0.311  0.1213 -0.2264  0.7864
  204MOL0     H26865   3.626   0.553   0.217 -0.1169 -1.1658 -1.4081
  204MOL0     H26866   3.730   0.561   0.074  1.7802  0.5999  0.7853
  204MOL0     H26867   3.525   0.598  -0.040 -0.6319  0.6641 -0.4873
  204MOL0     H26868   3.591   0.758  -0.014  1.7892 -1.6315 -1.7558
  204MOL0     H26869   3.475   0.783   0.191  3.4951  0.1191 -1.0981
  204MOL0     H26870   3.388   0.623   0.160  1.0555 -0.5936 -1.5221
  204MOL0     H26871   3.361   0.849  -0.028 -0.2761  0.0837  0.5395
  204MOL0     H26872   3.293   0.693  -0.031  2.0878  0.3303 -0.2624
  204MOL0     H26873   3.231   0.842   0.213  0.7176 -2.9332 -0.6287
  204MOL0     H26874   3.129   0.735   0.132 -1.1992  0.4149 -1.4800
  204MOL0     H26875   3.093   0.895  -0.062 -0.0137  1.8217 -0.6326
  204MOL0     H26876   3.196   1.001   0.009  1.8165 -0.9821  0.0312
  204MOL0     H26877   2.946   0.903   0.161  0.5755 -0.1232  1.9856
  204MOL0     H26878   3.000   1.056   0.192 -4.2015  1.3112  0.1395
  204MOL0     H26879   2.896   0.966  -0.087 -0.9109  0.2971 -0.1929
  204MOL0     H26880   2.947   1.117  -0.062 -0.5387  1.2126  2.0175
  204MOL0     H26881   2.653   0.906  -0.045 -2.1143 -0.5401  0.9308
  204MOL0     H26882   2.371   1.005   0.169  2.1603 -1.0940  0.3543
  204MOL0     H26883   2.401   0.904   0.029  1.6196 -0.7933  1.5545
  204MOL0     H26884   2.378   1.120  -0.110 -1.4779 -1.0373 -0.9443
  204MOL0     H26885   2.268   1.165   0.025 -1.4531 -1.9524  1.3039
  204MOL0     H26886   2.145   1.045  -0.182 -0.4472  0.2652  0.0372
  204MOL0     H26887   2.254   0.914  -0.160  2.1462  3.3365 -2.9088
  204MOL0     H26888   2.155   0.898   0.095  3.5095  1.9558 -0.9094
  204MOL0     H26889   2.036   0.865  -0.033  1.2343  0.6329 -1.4045
  204MOL0     H26890   1.858   1.250   0.092  1.0461 -1.5063  1.8474
  204MOL0     H26891   1.636   1.233   0.151  2.2965  2.1682 -0.3802
  204MOL0     H26892   1.352   1.116   0.483 -1.4567  2.9345  1.3393
  204MOL0     H26893   1.144   1.092   0.632 -0.2747  1.4998 -1.4290
  204MOL0     H26894   1.012   1.014   0.781  0.3037  0.2001 -1.4491
  204MOL0     H26895   1.099   0.872   0.830  0.3935  0.0822 -1.3198
  204MOL0     H26896   0.790   0.919   0.832  0.7258  0.4453 -0.6991
  204MOL0     H26897   0.886   0.906   0.980 -2.7085  0.2341  0.5928
  204MOL0     H26898   0.914   0.674   0.956 -0.0257 -1.4667 -1.9374
  204MOL0     H26899   0.845   0.680   0.783 -2.7718 -2.0716  0.2074
  204MOL0     H26900   0.687   0.729   1.043 -0.4052  1.8070  0.0019
  204MOL0     H26901   0.637   0.766   0.886 -1.3984  0.5997  2.3914
  204MOL0     H26902   0.724   0.492   0.975 -0.3403  0.3468  0.3730
  204MOL0     H26903   0.669   0.520   0.811 -0.5375  0.0539 -0.4841
  204MOL0     H26904   0.448   0.594   0.910 -0.5600 -0.7198 -0.7022
  204MOL0     H26905   0.515   0.537   1.070 -0.3331  2.1001 -0.0238
  204MOL0     H26906   0.473   0.351   0.835 -1.9022 -1.3959  0.5818
  204MOL0     H26907   0.576   0.319   0.966  0.6723  1.2405  1.4728
  204MOL0     H26908   0.407   0.342   1.133 -0.0217 -1.4681  0.0656
  204MOL0     H26909   0.344   0.227   1.016 -1.0981 -0.0412  3.8650
  204MOL0     H26910   1.119   0.676   0.513 -0.3799 -0.4192 -0.8371
  204MOL0     H26911   1.292   0.711   0.355  2.2044  0.7853  2.3712
  204MOL0     H26912   1.682   0.810   0.241  1.5291  0.9757  2.9773
  204MOL0     H26913   1.899   0.811   0.144  1.0747  0.7611  0.2647
  204MOL0     H26914   3.688   0.926   0.355 -2.0339  0.1271  4.1247
  204MOL0     H26915   3.801   0.960   0.550 -1.5099  1.1187 -1.6790
  204MOL0     H26916   3.930   0.775   0.942 -0.7375  0.4827 -2.4733
  204MOL0     H26917   4.034   0.797   1.152 -0.2308 -3.6172  1.3958
  204MOL0     H26918   4.145   0.735   1.370 -0.0145  2.4694  0.9465
  204MOL0     H26919   4.165   0.895   1.304  1.1001  0.6179 -2.8965
  204MOL0     H26920   4.362   0.939   1.419  1.0681 -1.3555  0.0700
  204MOL0     H26921   4.229   0.878   1.533 -2.2999 -1.8790 -1.7112
  204MOL0     H26922   4.461   0.698   1.401 -2.7044 -2.4072 -1.2549
  204MOL0     H26923   4.354   0.653   1.528  1.0316 -0.5323 -0.3157
  204MOL0     H26924   4.555   0.879   1.557 -0.8439 -0.7279 -2.4368
  204MOL0     H26925   4.443   0.803   1.682 -1.6327  2.6985 -1.1860
  204MOL0     H26926   4.751   0.503   1.651 -1.0381 -0.8846 -1.8939
  204MOL0     H26927   4.414   0.659   1.019 -0.0543  0.5604  1.5260
  204MOL0     H26928   4.311   0.633   0.781 -1.6557  0.3012 -0.9687
  205MOL0     O26929   2.591   3.013   9.747 -0.5084 -0.2823  0.5141
  205MOL0     C26930   2.626   3.059   9.855  0.2149  0.7235  0.2372
  205MOL0     O26931   2.544   3.097   9.960  0.1012 -0.2774  0.0808
  205MOL0     C26932   2.407   3.069   9.959  0.5309 -0.5102 -0.2602
  205MOL0     C26933   2.331   3.093   9.845  0.0367  0.3105 -0.4423
  205MOL0     C26934   2.187   3.097   9.854 -0.4497 -1.1567 -0.2934
  205MOL0     C26935   2.129   3.060   9.976 -0.6237  0.2157  0.9885
  205MOL0     O26936   1.994   3.054   9.978 -0.7656  0.1791  0.2606
  205MOL0     C26937   1.932   3.018  10.100  0.2284 -0.6346 -0.1149
  205MOL0     C26938   1.778   2.976  10.087  0.5734 -0.4775 -0.4442
  205MOL0     C26939   1.698   3.059   9.997 -0.1198 -0.1351 -0.2523
  205MOL0     C26940   1.558   2.995   9.971 -0.0620 -0.3817 -0.4043
  205MOL0     C26941   1.472   3.107   9.897 -0.0842  0.4820 -0.5748
  205MOL0     C26942   1.324   3.076   9.931 -1.0964  0.8573 -0.1639
  205MOL0     C26943   1.287   2.937   9.863  0.0007 -0.1280 -0.1647
  205MOL0     C26944   1.255   2.960   9.713 -0.4888  0.5930  0.9699
  205MOL0     N26945   1.312   2.844   9.644 -0.2530 -0.4216 -0.6314
  205MOL0     C26946   1.255   2.720   9.632  0.6955  0.4339  0.2844
  205MOL0     C26947   1.358   2.640   9.577  0.6116  0.0288 -0.6056
  205MOL0     C26948   1.356   2.489   9.548 -0.2721  1.1802 -0.3502
  205MOL0     C26949   1.378   2.432   9.412  0.4278  0.4107 -0.9021
  205MOL0     C26950   1.477   2.506   9.325 -0.4812 -0.5055  1.2398
  205MOL0     C26951   1.458   2.475   9.174 -0.5162  0.8887 -0.8928
  205MOL0     O26952   1.480   2.342   9.141  0.2941  0.2089 -0.5137
  205MOL0     C26953   1.597   2.327   9.075 -0.9302 -0.2916  0.1559
  205MOL0     C26954   1.722   2.329   9.136 -0.0663  0.3207 -0.2111
  205MOL0     C26955   1.837   2.325   9.059 -0.4723  0.3078  0.6843
  205MOL0     C26956   1.834   2.304   8.917  0.0635 -0.8106  0.1975
  205MOL0     C26957   1.956   2.303   8.821  0.2788  0.1129 -1.1509
  205MOL0     O26958   1.940   2.252   8.692 -0.0719  0.1364  0.5618
  205MOL0     C26959   2.040   2.186   8.613  0.2564 -0.3354 -0.7307
  205MOL0     C26960   2.033   2.184   8.473  0.5013  0.0573 -0.6425
  205MOL0     C26961   2.120   2.115   8.390 -0.0226  0.1325 -0.0264
  205MOL0     C26962   2.224   2.041   8.454 -0.3297  0.0041  0.9859
  205MOL0     O26963   2.311   1.957   8.387  0.0655  0.0632 -0.0938
  205MOL0     C26964   2.345   1.967   8.242 -0.4491  0.4529 -0.0890
  205MOL0     C26965   2.400   2.103   8.189 -0.0417  0.0090 -0.2399
  205MOL0     C26966   2.551   2.098   8.167  0.9251  0.1344 -0.1104
  205MOL0     C26967   2.610   2.220   8.103 -0.6254  0.4070 -0.8496
  205MOL0     C26968   2.768   2.223   8.101 -0.3601 -0.8365 -0.5927
  205MOL0     C26969   2.836   2.104   8.032  0.0572  0.5422  0.1944
  205MOL0     C26970   2.984   2.061   8.074  0.2815 -0.8653 -0.4870
  205MOL0     C26971   3.023   1.923   8.050 -0.1084 -0.2532  0.4514
  205MOL0    Cl26972   3.087   1.892   7.885 -0.0006 -0.1066  0.3403
  205MOL0     C26973   2.235   2.043   8.591 -0.8674  0.2602 -0.1990
  205MOL0     C26974   2.148   2.116   8.673  0.6983  0.7372  0.3783
  205MOL0     O26975   2.063   2.319   8.877 -1.1730  0.0921 -0.4779
  205MOL0     C26976   1.703   2.298   8.860 -0.4510  0.0710 -0.9166
  205MOL0     C26977   1.591   2.309   8.940 -1.2244 -0.7968  0.3712
  205MOL0     N26978   1.464   2.723   9.567 -0.0902  0.3027 -0.2783
  205MOL0     N26979   1.437   2.841   9.589  0.5063 -0.2288 -0.6236
  205MOL0     C26980   2.214   3.034  10.090  0.0203 -0.5239  0.6083
  205MOL0     C26981   2.347   3.040  10.082  0.5301 -0.1502 -0.3291
  205MOL0     C26982   2.766   3.093   9.875 -0.2583 -0.5025 -0.0281
  205MOL0     C26983   2.861   3.076   9.779 -1.0058 -0.1913 -0.1204
  205MOL0     C26984   2.997   3.112   9.803 -0.2889  0.9041  0.1663
  205MOL0     C26985   3.032   3.162   9.927 -0.3752 -0.0310 -0.1612
  205MOL0     O26986   3.169   3.182   9.931 -0.0618 -0.2696  0.5410
  205MOL0     C26987   3.227   3.203  10.054  0.3306 -0.1290  0.0680
  205MOL0     C26988   3.376   3.243  10.043 -0.5446 -0.6739 -0.5909
  205MOL0     C26989   3.466   3.152   9.964  0.5003  0.3352  0.6249
  205MOL0     C26990   3.617   3.182   9.956  0.7512  0.8980 -0.2040
  205MOL0     C26991   3.667   3.181  10.088 -0.3426  0.4566 -0.6914
  205MOL0     C26992   3.717   3.194  10.200  0.8828  0.0445  0.4643
  205MOL0     C26993   2.937   3.189  10.030  1.0323  0.2454 -0.0700
  205MOL0     C26994   2.806   3.147  10.003 -0.2717 -0.3292  0.6446
  205MOL0     H26995   2.392   3.124   9.761  1.3596  1.5909  0.9427
  205MOL0     H26996   2.133   3.118   9.762  0.8096  0.7909 -0.6308
  205MOL0     H26997   1.937   3.112  10.156 -0.1699 -2.1952  2.7710
  205MOL0     H26998   1.983   2.941  10.159  0.8066 -0.2644 -0.1251
  205MOL0     H26999   1.729   2.961  10.184  0.1224 -1.0943 -0.7644
  205MOL0     H27000   1.768   2.876  10.044 -2.0110  0.2915 -1.8227
  205MOL0     H27001   1.753   3.064   9.902  0.2380  0.1504 -0.0349
  205MOL0     H27002   1.691   3.163  10.029  1.0565  0.6504 -2.3559
  205MOL0     H27003   1.568   2.907   9.907  1.6847  0.1128 -0.8641
  205MOL0     H27004   1.512   2.971  10.067  0.4132 -3.3306 -0.8084
  205MOL0     H27005   1.500   3.128   9.793 -2.3220  2.4457 -0.8731
  205MOL0     H27006   1.469   3.195   9.962 -1.9032 -2.0345  3.0567
  205MOL0     H27007   1.271   3.161   9.887 -0.3071  0.7299 -1.4099
  205MOL0     H27008   1.315   3.067  10.040  1.9411 -0.6471  0.0747
  205MOL0     H27009   1.361   2.858   9.883 -2.1110 -1.6946  1.9666
  205MOL0     H27010   1.195   2.915   9.918 -0.3780  0.3313 -0.6090
  205MOL0     H27011   1.306   3.051   9.680 -0.3404  0.7672  1.6813
  205MOL0     H27012   1.150   2.972   9.683  0.2853  3.6236 -0.9851
  205MOL0     H27013   1.153   2.698   9.662  1.4726  0.9800  3.7425
  205MOL0     H27014   1.264   2.445   9.587 -1.3466  3.2466 -0.4241
  205MOL0     H27015   1.441   2.450   9.606 -0.4860  2.4027  0.8092
  205MOL0     H27016   1.283   2.413   9.361 -0.8187 -0.5063  1.5637
  205MOL0     H27017   1.416   2.332   9.433  2.0999  1.3707  0.9503
  205MOL0     H27018   1.451   2.612   9.319 -2.1677 -0.9631 -1.7316
  205MOL0     H27019   1.580   2.481   9.352  0.5918  1.9670 -0.1918
  205MOL0     H27020   1.535   2.533   9.122  1.7021 -0.8161  0.2752
  205MOL0     H27021   1.362   2.507   9.133 -1.2473 -1.9772 -1.6632
  205MOL0     H27022   1.751   2.336   9.240 -0.0373 -0.8392 -0.1188
  205MOL0     H27023   1.930   2.327   9.114 -2.3827 -1.4827  4.3610
  205MOL0     H27024   1.939   2.222   8.434  2.3378  3.7083 -1.9123
  205MOL0     H27025   2.106   2.105   8.283 -1.7902  2.8243 -0.1498
  205MOL0     H27026   2.268   1.927   8.175 -0.0828  0.9182 -0.8029
  205MOL0     H27027   2.421   1.891   8.223 -1.3794  0.0715 -2.6617
  205MOL0     H27028   2.374   2.185   8.256 -2.2401 -2.1645  1.7341
  205MOL0     H27029   2.354   2.141   8.097  2.4747  3.7915 -0.1665
  205MOL0     H27030   2.562   2.016   8.096  4.3108  0.4802 -0.1733
  205MOL0     H27031   2.615   2.062   8.248 -2.2207 -0.9015  2.1091
  205MOL0     H27032   2.573   2.246   8.003 -1.6042  0.5624 -0.4581
  205MOL0     H27033   2.593   2.299   8.177  1.1230  0.9868 -1.0169
  205MOL0     H27034   2.791   2.230   8.208 -1.4511  1.6056 -0.4621
  205MOL0     H27035   2.813   2.306   8.047 -1.0682 -0.1733 -0.1783
  205MOL0     H27036   2.821   2.120   7.925 -0.5918  0.6147  0.2889
  205MOL0     H27037   2.778   2.013   8.048  3.5139 -1.4677  2.5679
  205MOL0     H27038   3.059   2.106   8.007  3.2276 -1.0655  2.4060
  205MOL0     H27039   3.007   2.089   8.177 -2.5819 -1.3170  0.3592
  205MOL0     H27040   2.943   1.851   8.070 -1.6549  0.1465 -3.4116
  205MOL0     H27041   3.101   1.883   8.116  0.1386 -3.4807 -1.5750
  205MOL0     H27042   2.312   1.993   8.650 -1.4882 -0.6384 -0.1300
  205MOL0     H27043   2.169   2.119   8.779 -1.1318 -0.4776  0.8202
  205MOL0     H27044   1.693   2.271   8.755  0.0786 -1.0551 -0.6845
  205MOL0     H27045   1.491   2.308   8.898 -0.4075 -0.7837 -1.7380
  205MOL0     H27046   2.169   3.011  10.186 -1.0789  1.9552  0.7608
  205MOL0     H27047   2.403   3.027  10.174  1.0706 -1.4316 -0.8153
  205MOL0     H27048   2.836   3.013   9.694 -2.2671  2.6876 -2.0497
  205MOL0     H27049   3.065   3.083   9.724 -2.4186  0.6830 -1.6981
  205MOL0     H27050   3.213   3.117  10.121 -0.6248  1.6562  2.2766
  205MOL0     H27051   3.168   3.287  10.092  1.6951  1.7401 -1.7835
  205MOL0     H27052   3.386   3.341   9.996  2.3055 -0.4769  0.2465
  205MOL0     H27053   3.409   3.259  10.146 -0.4345 -2.3424 -0.3385
  205MOL0     H27054   3.428   3.146   9.861 -2.4663 -0.5801  1.6795
  205MOL0     H27055   3.456   3.050  10.003 -0.6635  0.0314 -0.3947
  205MOL0     H27056   3.656   3.103   9.890 -1.0954  1.5530 -2.1965
  205MOL0     H27057   3.638   3.282   9.917 -0.1706  0.5372 -1.7166
  205MOL0     H27058   3.766   3.204  10.295 -2.0900  0.5466  2.0846
  205MOL0     H27059   2.948   3.240  10.125  0.8347 -0.3518  0.2777
  205MOL0     H27060   2.736   3.151  10.086 -0.0786  3.6667  0.8431
  206MOL0     O27061   5.758   1.293  11.242 -0.4834 -0.2820  0.0278
  206MOL0     C27062   5.726   1.402  11.299 -0.7420  0.0014  1.0362
  206MOL0     O27063   5.810   1.488  11.367 -0.6757 -0.0603 -0.6412
  206MOL0     C27064   5.945   1.501  11.334  0.4629  0.3104  0.2589
  206MOL0     C27065   6.012   1.567  11.436 -0.6135  0.1071 -0.0287
  206MOL0     C27066   6.153   1.579  11.419 -0.0954 -0.1498 -0.1504
  206MOL0     C27067   6.224   1.548  11.305  0.3403  1.6939  0.9758
  206MOL0     O27068   6.362   1.536  11.315 -0.2251  0.0581  0.3660
  206MOL0     C27069   6.444   1.526  11.202  0.0172  1.4140  0.4187
  206MOL0     C27070   6.578   1.608  11.220  0.5571 -0.0542 -0.2823
  206MOL0     C27071   6.668   1.596  11.093 -0.5295 -0.4931 -0.1395
  206MOL0     C27072   6.815   1.657  11.127  0.0358  0.2582 -0.3886
  206MOL0     C27073   6.910   1.637  11.012  0.8181  0.3336  0.1229
  206MOL0     C27074   7.026   1.731  11.034 -0.0599 -0.3095  0.4861
  206MOL0     C27075   7.149   1.701  10.943  0.1679  0.2270 -0.1199
  206MOL0     C27076   7.265   1.806  10.969 -0.6275 -0.5905  0.0587
  206MOL0     N27077   7.388   1.799  10.880  0.1403 -0.2137  0.1155
  206MOL0     C27078   7.405   1.857  10.753  0.4637 -0.0896  0.7248
  206MOL0     C27079   7.526   1.824  10.705  0.0834  0.1035 -0.0684
  206MOL0     C27080   7.589   1.868  10.572  0.4541 -0.4278 -0.3294
  206MOL0     C27081   7.584   1.761  10.462  0.4086  0.7077 -0.5885
  206MOL0     C27082   7.621   1.830  10.330 -0.0922  0.5594  0.4992
  206MOL0     C27083   7.763   1.799  10.277  0.3012  0.6709 -0.8935
  206MOL0     O27084   7.861   1.840  10.373  0.9439  0.9184 -0.3991
  206MOL0     C27085   7.995   1.840  10.331 -0.3022  0.4135  0.4378
  206MOL0     C27086   8.042   1.790  10.212  0.0186  1.1027  0.6696
  206MOL0     C27087   8.174   1.805  10.176 -0.5743 -0.3656  0.4901
  206MOL0     C27088   8.268   1.853  10.269  0.2799 -0.2440  1.1772
  206MOL0     C27089   8.418   1.862  10.242  0.2286  0.5326  0.3971
  206MOL0     O27090   8.453   1.809  10.122 -0.0239  0.9953 -0.9033
  206MOL0     C27091   8.575   1.839  10.063  0.3042  0.6839  0.4994
  206MOL0     C27092   8.679   1.916  10.107 -0.5022  1.0963 -0.2838
  206MOL0     C27093   8.799   1.920  10.033  0.1331  0.7507 -0.8143
  206MOL0     C27094   8.814   1.837   9.909  0.0223 -1.0363  0.4767
  206MOL0     O27095   8.930   1.844   9.841 -0.1627  0.3228 -0.2142
  206MOL0     C27096   9.011   1.722   9.846 -0.3076 -0.0481  0.8497
  206MOL0     C27097   9.022   1.653   9.712  0.1936 -0.3314 -0.5430
  206MOL0     C27098   9.077   1.740   9.594  0.5013  0.2927  0.7425
  206MOL0     C27099   9.230   1.755   9.590 -0.2401  0.7185 -0.3325
  206MOL0     C27100   9.289   1.780   9.443 -0.7588  0.0018 -0.9545
  206MOL0     C27101   9.255   1.653   9.350 -0.4956  0.0583 -0.2870
  206MOL0     C27102   9.328   1.662   9.218 -0.0312 -1.3448 -0.0652
  206MOL0     C27103   9.289   1.557   9.118 -0.2474 -0.0256  0.0363
  206MOL0    Cl27104   9.104   1.557   9.086 -0.4423 -0.4633 -0.3378
  206MOL0     C27105   8.703   1.774   9.855 -1.1630  0.2183  0.2062
  206MOL0     C27106   8.592   1.769   9.934  1.6284 -1.3058  0.3079
  206MOL0     O27107   8.487   1.899  10.337  0.1820 -0.2847  0.3110
  206MOL0     C27108   8.225   1.890  10.392 -0.4182 -0.7033 -0.4742
  206MOL0     C27109   8.092   1.896  10.417  0.5785 -0.5277 -0.3222
  206MOL0     N27110   7.585   1.744  10.803  0.1534 -0.1672 -0.2892
  206MOL0     N27111   7.500   1.730  10.903 -0.4370 -0.6669  0.0965
  206MOL0     C27112   6.141   1.500  11.195 -0.1717  0.8187  0.2071
  206MOL0     C27113   6.007   1.460  11.209 -1.1988  0.4179 -0.9683
  206MOL0     C27114   5.585   1.452  11.287 -0.8407 -0.2557 -0.1152
  206MOL0     C27115   5.483   1.366  11.254 -1.0067 -0.4319 -0.4091
  206MOL0     C27116   5.355   1.414  11.261  0.1606  0.2264 -0.5245
  206MOL0     C27117   5.327   1.543  11.311  0.0184 -0.4092  0.5229
  206MOL0     O27118   5.211   1.608  11.330  0.8069  0.0811  0.3217
  206MOL0     C27119   5.092   1.534  11.297  0.0566  0.4342  0.1935
  206MOL0     C27120   4.975   1.628  11.295  1.2774  0.2006 -0.8829
  206MOL0     C27121   4.850   1.541  11.250 -0.1640  0.1756  0.3031
  206MOL0     C27122   4.730   1.635  11.233  0.1872  0.5639  0.2090
  206MOL0     C27123   4.701   1.721  11.349 -0.8704 -0.0818  0.5551
  206MOL0     C27124   4.657   1.806  11.425 -0.6791  0.8319 -0.8254
  206MOL0     C27125   5.431   1.617  11.362 -0.2795  0.4498  0.6886
  206MOL0     C27126   5.562   1.578  11.346 -0.3710 -0.0130  0.1827
  206MOL0     H27127   5.956   1.595  11.525 -1.4866  1.5491 -0.9941
  206MOL0     H27128   6.204   1.613  11.508 -2.3169 -1.3263  1.6557
  206MOL0     H27129   6.394   1.562  11.112 -1.0626 -0.7302  0.1141
  206MOL0     H27130   6.465   1.422  11.175 -4.1629  0.0536  1.6528
  206MOL0     H27131   6.651   1.579  11.296 -0.4421  0.1847  0.8019
  206MOL0     H27132   6.556   1.714  11.236  2.4477  0.2327  0.6058
  206MOL0     H27133   6.621   1.647  11.008  0.2517 -1.6181 -1.2886
  206MOL0     H27134   6.695   1.493  11.066  0.7204 -0.6314  1.5142
  206MOL0     H27135   6.804   1.765  11.141  0.2334  0.6199 -2.6634
  206MOL0     H27136   6.853   1.589  11.205 -3.4248 -1.5380 -0.0503
  206MOL0     H27137   6.847   1.679  10.932  1.8832  1.2066 -0.2805
  206MOL0     H27138   6.930   1.531  10.993 -0.8721  0.2115 -1.2780
  206MOL0     H27139   7.065   1.737  11.136  0.6461 -0.4278  0.2301
  206MOL0     H27140   6.988   1.831  11.014 -0.3502 -0.5422 -0.1468
  206MOL0     H27141   7.178   1.598  10.965  2.0603  0.5180 -1.0347
  206MOL0     H27142   7.112   1.707  10.840 -4.1417 -2.6705  0.9796
  206MOL0     H27143   7.293   1.792  11.074 -1.3806 -6.1735 -0.1571
  206MOL0     H27144   7.220   1.905  10.958  3.0563  1.1665 -0.5774
  206MOL0     H27145   7.336   1.922  10.701 -0.1940 -1.0390  0.3824
  206MOL0     H27146   7.694   1.894  10.585  0.7313  0.0589 -2.9479
  206MOL0     H27147   7.532   1.955  10.536  0.5034 -1.2336 -2.5098
  206MOL0     H27148   7.487   1.711  10.452  1.0385 -1.3040  2.0426
  206MOL0     H27149   7.653   1.677  10.471  0.8561  0.8564 -2.3967
  206MOL0     H27150   7.546   1.811  10.253 -2.9650  2.2133  2.6330
  206MOL0     H27151   7.628   1.939  10.339  2.4687  0.3321  2.0903
  206MOL0     H27152   7.774   1.857  10.185 -1.2788  1.9411 -0.3244
  206MOL0     H27153   7.785   1.694  10.256  3.4620  1.4684 -2.2595
  206MOL0     H27154   7.967   1.749  10.145  1.4237  1.6266 -1.3271
  206MOL0     H27155   8.213   1.763  10.084  0.2541 -1.3358  1.2543
  206MOL0     H27156   8.677   1.973  10.200  1.6373  3.4602 -1.5311
  206MOL0     H27157   8.873   1.992  10.067 -0.5507  2.3323 -2.4621
  206MOL0     H27158   8.955   1.647   9.904  0.3897 -2.1490 -1.0582
  206MOL0     H27159   9.105   1.741   9.898  2.3764  3.0733 -4.3429
  206MOL0     H27160   8.920   1.625   9.683 -0.3332 -0.8644  1.6216
  206MOL0     H27161   9.089   1.568   9.718 -1.2336 -1.6591 -2.3018
  206MOL0     H27162   9.034   1.840   9.582 -4.5050 -1.1896  3.6372
  206MOL0     H27163   9.042   1.680   9.511  0.5921 -4.5026  3.7972
  206MOL0     H27164   9.264   1.828   9.664  2.7202 -1.5108  0.7012
  206MOL0     H27165   9.274   1.660   9.622 -0.7065  0.6800  0.2117
  206MOL0     H27166   9.398   1.777   9.455 -0.3657 -3.2019 -3.8276
  206MOL0     H27167   9.261   1.875   9.396  1.4679  1.0795 -0.2802
  206MOL0     H27168   9.150   1.654   9.321  0.1718  0.8773 -2.9326
  206MOL0     H27169   9.284   1.563   9.405  3.1213  1.0906 -0.2292
  206MOL0     H27170   9.324   1.767   9.190 -5.1750 -1.5417 -0.9863
  206MOL0     H27171   9.436   1.657   9.237  0.5176 -0.1130 -2.4972
  206MOL0     H27172   9.331   1.463   9.155  0.4783  0.8015  1.3949
  206MOL0     H27173   9.340   1.573   9.023 -1.6481  3.5210 -0.2559
  206MOL0     H27174   8.707   1.718   9.763 -0.4627  1.5316 -0.5863
  206MOL0     H27175   8.507   1.714   9.895  1.7406 -1.6890  0.5923
  206MOL0     H27176   8.294   1.932  10.465  4.6114 -3.4973 -3.0689
  206MOL0     H27177   8.061   1.945  10.509 -1.1314  0.5797 -1.4468
  206MOL0     H27178   6.176   1.460  11.100 -0.8051 -0.6674  0.5664
  206MOL0     H27179   5.955   1.406  11.131 -1.5250 -0.9685  0.1724
  206MOL0     H27180   5.497   1.260  11.231 -4.3802 -0.9495 -0.6347
  206MOL0     H27181   5.276   1.341  11.247 -0.4186  0.4304  1.4472
  206MOL0     H27182   5.075   1.447  11.361 -0.7922  0.5179  0.0999
  206MOL0     H27183   5.099   1.489  11.198 -2.9886  2.1664 -0.9425
  206MOL0     H27184   4.948   1.669  11.392  0.6252 -2.0411 -0.0587
  206MOL0     H27185   5.012   1.699  11.220 -0.2200  0.4966 -1.3735
  206MOL0     H27186   4.829   1.473  11.333 -1.5552  2.4443  1.9190
  206MOL0     H27187   4.883   1.493  11.157  4.6011  1.0487  1.2538
  206MOL0     H27188   4.746   1.701  11.148 -0.8750 -1.4883 -1.6915
  206MOL0     H27189   4.643   1.575  11.205  0.0752  0.5572  0.5673
  206MOL0     H27190   4.629   1.878  11.499  2.7963 -1.5220  3.2565
  206MOL0     H27191   5.408   1.708  11.416 -1.4333  0.8620 -0.4513
  206MOL0     H27192   5.637   1.639  11.396  1.1836 -0.6701 -1.2617
  207MOL0     O27193   5.186   7.268   0.510  0.8992  0.2715  0.5283
  207MOL0     C27194   5.238   7.336   0.597 -0.1830 -0.3120 -0.2003
  207MOL0     O27195   5.220   7.467   0.615 -0.0962  0.1031  0.0974
  207MOL0     C27196   5.101   7.528   0.589  1.1080  0.2168 -0.1521
  207MOL0     C27197   4.969   7.463   0.577 -0.0028 -0.3759  0.3545
  207MOL0     C27198   4.848   7.527   0.539 -0.7750 -0.1615 -0.7692
  207MOL0     C27199   4.847   7.667   0.519 -0.1580 -0.2341 -0.9193
  207MOL0     O27200   4.726   7.721   0.472  0.4159 -0.2233  0.3069
  207MOL0     C27201   4.714   7.864   0.496 -0.3975  0.2178 -0.1645
  207MOL0     C27202   4.573   7.900   0.454  0.4945 -0.1723  0.7671
  207MOL0     C27203   4.464   7.851   0.554  0.2796 -0.1072 -0.7927
  207MOL0     C27204   4.316   7.898   0.504 -0.1488 -0.0056 -1.0210
  207MOL0     C27205   4.306   8.047   0.443  0.4674  0.3228  0.5766
  207MOL0     C27206   4.314   8.058   0.288  0.0378  0.1967  0.8191
  207MOL0     C27207   4.215   7.965   0.208 -0.5038  0.3744 -0.5932
  207MOL0     C27208   4.069   7.953   0.260 -1.5941 -0.1272  0.7083
  207MOL0     N27209   3.996   7.846   0.191  0.1449  1.2456  0.1408
  207MOL0     C27210   3.868   7.858   0.135 -0.8784 -0.2277 -0.1035
  207MOL0     C27211   3.831   7.729   0.115  0.0691  0.2067  0.3583
  207MOL0     C27212   3.694   7.700   0.063 -0.5894 -0.7189 -0.5800
  207MOL0     C27213   3.607   7.631   0.166 -0.5535  0.0480  0.4438
  207MOL0     C27214   3.578   7.729   0.284  0.2874  1.2438 -0.3861
  207MOL0     C27215   3.482   7.667   0.390 -0.1995 -0.2699 -0.4812
  207MOL0     O27216   3.351   7.635   0.337 -1.0820 -0.3381  0.3262
  207MOL0     C27217   3.241   7.603   0.405 -0.0369 -0.0493 -0.1212
  207MOL0     C27218   3.239   7.586   0.539  0.6711 -0.4483 -0.6694
  207MOL0     C27219   3.114   7.549   0.605 -0.1643 -1.3579 -0.3019
  207MOL0     C27220   2.993   7.555   0.530  0.1036  0.3778 -0.3973
  207MOL0     C27221   2.868   7.521   0.592  0.7424  0.4482  0.3251
  207MOL0     O27222   2.774   7.463   0.505  0.0418  0.0037 -0.9428
  207MOL0     C27223   2.637   7.464   0.553 -1.1899  0.0014  0.4344
  207MOL0     C27224   2.563   7.342   0.553  0.1796  0.4587 -1.3433
  207MOL0     C27225   2.433   7.336   0.607 -0.1546 -0.7244  0.5032
  207MOL0     C27226   2.368   7.459   0.639 -0.4793 -0.8106  0.9581
  207MOL0     O27227   2.234   7.470   0.667  0.9007 -0.4956  0.6133
  207MOL0     C27228   2.152   7.352   0.687  0.0551  0.6174  0.1586
  207MOL0     C27229   2.039   7.388   0.785  0.5760 -0.1728 -0.3913
  207MOL0     C27230   1.973   7.270   0.861 -0.2600  0.1935  0.6465
  207MOL0     C27231   1.843   7.330   0.928  0.7611  0.0818  0.3880
  207MOL0     C27232   1.773   7.247   1.029  0.4260 -0.3472  0.5444
  207MOL0     C27233   1.643   7.323   1.075 -0.2306  0.0637  0.4413
  207MOL0     C27234   1.550   7.255   1.178  0.2129 -0.3914 -0.0239
  207MOL0     C27235   1.606   7.255   1.327  0.1492 -0.4314  0.5282
  207MOL0    Cl27236   1.556   7.412   1.393  0.3170  0.4661 -0.3357
  207MOL0     C27237   2.450   7.579   0.627  0.9781 -0.1332  0.1264
  207MOL0     C27238   2.577   7.583   0.582 -0.4418 -0.2746  0.3849
  207MOL0     O27239   2.863   7.525   0.714 -0.3977 -0.0283  0.6562
  207MOL0     C27240   3.005   7.572   0.387 -0.0978  0.4485 -0.5920
  207MOL0     C27241   3.126   7.605   0.325 -0.1257  1.1682 -0.1786
  207MOL0     N27242   3.930   7.647   0.159  0.0087  0.1205 -0.0975
  207MOL0     N27243   4.026   7.719   0.200 -1.2336  1.0780 -0.1811
  207MOL0     C27244   4.974   7.734   0.545  0.2688  0.2066  0.7805
  207MOL0     C27245   5.092   7.667   0.580 -0.1518 -0.2290 -0.0658
  207MOL0     C27246   5.353   7.271   0.684  0.6493 -0.0760 -0.5671
  207MOL0     C27247   5.418   7.155   0.659  0.4798 -0.0188  0.9032
  207MOL0     C27248   5.516   7.095   0.743  0.1832  0.5414  0.1582
  207MOL0     C27249   5.547   7.158   0.864 -0.5495 -0.7201  0.0078
  207MOL0     O27250   5.638   7.094   0.942  0.3229  0.1903  0.0222
  207MOL0     C27251   5.666   7.132   1.076  0.3799  0.2884  0.2146
  207MOL0     C27252   5.789   7.062   1.122 -0.1264 -0.0209 -0.6395
  207MOL0     C27253   5.886   7.150   1.215 -0.0457 -0.2318  0.2365
  207MOL0     C27254   6.012   7.086   1.251  0.4478  0.8509  0.4505
  207MOL0     C27255   6.071   7.121   1.384 -0.7063  0.0421  0.5488
  207MOL0     C27256   6.122   7.169   1.484 -0.3912 -0.0526 -0.4685
  207MOL0     C27257   5.474   7.272   0.905  0.0572 -0.9705 -0.2197
  207MOL0     C27258   5.376   7.316   0.815 -0.4725 -0.6010 -0.3403
  207MOL0     H27259   4.966   7.355   0.591 -1.6110 -0.4376 -0.2067
  207MOL0     H27260   4.762   7.462   0.531 -0.2105 -1.1855  1.0466
  207MOL0     H27261   4.791   7.926   0.448 -1.7720  0.3662 -2.3032
  207MOL0     H27262   4.731   7.892   0.600  3.4073  0.7817 -0.7885
  207MOL0     H27263   4.541   7.853   0.361 -3.6848  2.2497  0.7198
  207MOL0     H27264   4.575   8.008   0.432 -2.5569 -0.5309 -2.1194
  207MOL0     H27265   4.483   7.886   0.656  1.8582  0.3649 -1.2270
  207MOL0     H27266   4.462   7.741   0.558  0.8457 -0.1636 -1.8148
  207MOL0     H27267   4.277   7.827   0.431 -2.7844 -1.5461  1.6980
  207MOL0     H27268   4.250   7.886   0.590  3.4169 -1.4373  1.8105
  207MOL0     H27269   4.390   8.105   0.483  2.3385  0.1296 -2.7024
  207MOL0     H27270   4.215   8.090   0.485 -0.0182  1.0998 -1.1682
  207MOL0     H27271   4.412   8.030   0.248 -0.5067  2.2152 -2.2442
  207MOL0     H27272   4.306   8.162   0.254  2.3273  0.5648  1.2381
  207MOL0     H27273   4.216   7.994   0.103 -1.8717 -2.7665 -1.5930
  207MOL0     H27274   4.256   7.865   0.223  0.8716  1.2276  1.8314
  207MOL0     H27275   4.010   8.045   0.260 -5.1228 -2.2097  2.0097
  207MOL0     H27276   4.072   7.928   0.366  1.5538  0.5354  0.8933
  207MOL0     H27277   3.804   7.944   0.118 -1.0384 -0.4668 -0.7553
  207MOL0     H27278   3.705   7.644  -0.030  0.3593 -2.0489  0.3057
  207MOL0     H27279   3.651   7.798   0.038 -2.9110 -0.8555  2.4110
  207MOL0     H27280   3.660   7.547   0.211 -0.6467 -1.2625 -1.7946
  207MOL0     H27281   3.514   7.604   0.116 -0.3182  0.0946 -0.0167
  207MOL0     H27282   3.672   7.764   0.327  2.3352 -2.0564 -1.8262
  207MOL0     H27283   3.533   7.820   0.242 -1.7729  0.9537  1.0145
  207MOL0     H27284   3.468   7.731   0.478 -1.2762 -0.1107 -0.7537
  207MOL0     H27285   3.530   7.576   0.425 -0.2289 -0.3980 -0.7693
  207MOL0     H27286   3.336   7.603   0.586  0.0692  1.0161  0.1376
  207MOL0     H27287   3.103   7.527   0.711  0.9792  1.2146  0.4389
  207MOL0     H27288   2.618   7.249   0.541 -2.1744 -1.3499  0.6636
  207MOL0     H27289   2.370   7.248   0.613 -3.5208  1.5058  0.1721
  207MOL0     H27290   2.202   7.259   0.717 -0.6512  0.3317  0.4837
  207MOL0     H27291   2.097   7.330   0.595  1.3732  0.2636 -0.5626
  207MOL0     H27292   1.961   7.436   0.725 -0.1183  0.2016  0.7805
  207MOL0     H27293   2.065   7.457   0.866 -0.0967 -3.1037  2.5175
  207MOL0     H27294   2.046   7.236   0.935  1.9536  0.3245 -1.3671
  207MOL0     H27295   1.937   7.193   0.792 -2.0567  0.0547  1.6574
  207MOL0     H27296   1.868   7.422   0.981  0.8692  1.1506 -1.4266
  207MOL0     H27297   1.774   7.367   0.852  0.8958  0.4406  0.4365
  207MOL0     H27298   1.844   7.228   1.110  0.3845  1.0842  0.9255
  207MOL0     H27299   1.756   7.157   0.968  3.2933  0.0446 -1.0006
  207MOL0     H27300   1.581   7.355   0.990  0.5837  1.0687  0.2093
  207MOL0     H27301   1.681   7.417   1.115 -1.9983  0.2682  1.7355
  207MOL0     H27302   1.451   7.302   1.178  1.9518  3.8363  2.5010
  207MOL0     H27303   1.538   7.152   1.143 -3.6443 -0.5976  1.4414
  207MOL0     H27304   1.716   7.257   1.326  0.2046  3.3049  0.4501
  207MOL0     H27305   1.572   7.177   1.395 -2.4752 -1.1937 -1.4930
  207MOL0     H27306   2.407   7.677   0.647 -1.6215 -1.0795 -0.4127
  207MOL0     H27307   2.624   7.678   0.556 -0.6470 -0.7357 -1.8906
  207MOL0     H27308   2.917   7.573   0.323 -0.5013  3.2564 -0.1308
  207MOL0     H27309   3.119   7.627   0.219 -3.6529  2.0632  0.1470
  207MOL0     H27310   4.975   7.838   0.513  0.8419 -0.2638 -0.8374
  207MOL0     H27311   5.183   7.726   0.586 -0.4165  0.4275 -2.0633
  207MOL0     H27312   5.399   7.095   0.571  0.2009  1.4320 -0.0550
  207MOL0     H27313   5.574   7.004   0.731 -2.8334 -1.6854  1.2329
  207MOL0     H27314   5.581   7.096   1.136 -2.2535  0.7360 -2.9519
  207MOL0     H27315   5.688   7.239   1.084  1.9385  0.0806 -0.8730
  207MOL0     H27316   5.768   6.964   1.166  0.5685 -0.7166 -1.8016
  207MOL0     H27317   5.836   7.026   1.030 -1.0430 -0.9074 -0.7909
  207MOL0     H27318   5.826   7.159   1.306  0.4203 -2.0949  0.7658
  207MOL0     H27319   5.906   7.244   1.163  1.3109 -0.5266  0.2001
  207MOL0     H27320   6.010   6.978   1.236  0.5254  0.5994  2.0471
  207MOL0     H27321   6.086   7.116   1.176  1.3927 -0.8454  0.6446
  207MOL0     H27322   6.172   7.214   1.568 -1.1059  2.0156 -1.0910
  207MOL0     H27323   5.489   7.315   1.003 -0.1002 -1.3879 -0.0106
  207MOL0     H27324   5.311   7.394   0.854 -0.4116 -0.9592  0.4956
  208MOL0     O27325   1.273   6.014   0.387  0.0872 -0.0092  0.1530
  208MOL0     C27326   1.307   6.121   0.338  0.2138  1.0841  0.3312
  208MOL0     O27327   1.263   6.174   0.215 -0.5980  0.1515  0.2771
  208MOL0     C27328   1.150   6.117   0.157 -0.2771  0.0730 -0.3024
  208MOL0     C27329   1.152   6.122   0.021 -0.4583  0.4319  0.1066
  208MOL0     C27330   1.040   6.113  -0.056  1.0403 -0.7871 -0.6250
  208MOL0     C27331   0.918   6.079   0.001 -0.0616  0.8659  0.2007
  208MOL0     O27332   0.804   6.061  -0.074  0.5102 -0.0212 -0.0725
  208MOL0     C27333   0.684   6.034   0.005  0.5588  0.2671  0.3521
  208MOL0     C27334   0.557   6.047  -0.087  0.2831 -0.0667  0.1546
  208MOL0     C27335   0.437   6.054   0.003  0.5864  0.4453  0.0014
  208MOL0     C27336   0.307   6.112  -0.062 -0.0621  0.7218  0.2035
  208MOL0     C27337   0.272   6.026  -0.189 -0.2575 -0.7425 -0.6117
  208MOL0     C27338   0.129   6.037  -0.221 -0.4261  0.4077 -0.3471
  208MOL0     C27339   0.067   6.175  -0.201 -0.0965  0.1911  0.6215
  208MOL0     C27340  -0.052   6.192  -0.291 -0.2423 -0.1656  0.3366
  208MOL0     N27341  -0.138   6.308  -0.243  0.0030 -1.2941  0.9539
  208MOL0     C27342  -0.118   6.406  -0.142 -1.2536 -0.7678 -0.1647
  208MOL0     C27343  -0.237   6.466  -0.132 -0.6833 -0.9329  0.0666
  208MOL0     C27344  -0.266   6.600  -0.075  0.6989 -0.3171 -0.0280
  208MOL0     C27345  -0.400   6.599   0.007 -0.5080  0.1055 -0.8733
  208MOL0     C27346  -0.390   6.734   0.073  0.8319 -0.0079  0.8628
  208MOL0     C27347  -0.505   6.755   0.176 -0.1677 -0.0052  0.3824
  208MOL0     O27348  -0.452   6.701   0.295  0.3134  1.4018  0.0407
  208MOL0     C27349  -0.508   6.717   0.416  0.0007 -0.2100 -0.5488
  208MOL0     C27350  -0.634   6.773   0.433  0.7423 -0.3654 -0.0604
  208MOL0     C27351  -0.680   6.791   0.563 -0.6201 -0.0409 -0.3702
  208MOL0     C27352  -0.604   6.751   0.681 -0.1558  0.1424 -0.1777
  208MOL0     C27353  -0.665   6.771   0.820 -1.2638  0.2237  0.7214
  208MOL0     O27354  -0.574   6.763   0.921  0.2775  0.3697  0.2686
  208MOL0     C27355  -0.611   6.768   1.057 -1.1474 -0.0167 -0.1182
  208MOL0     C27356  -0.728   6.838   1.102 -0.7451  0.1102 -0.4273
  208MOL0     C27357  -0.754   6.837   1.246 -0.6360  0.9981  0.8699
  208MOL0     C27358  -0.674   6.766   1.338 -0.0523 -0.4342  0.1342
  208MOL0     O27359  -0.708   6.770   1.472  0.3928  0.4933  0.1237
  208MOL0     C27360  -0.616   6.705   1.569 -0.2901  0.6148 -0.3862
  208MOL0     C27361  -0.672   6.729   1.709  0.5451  0.0407  0.2445
  208MOL0     C27362  -0.559   6.728   1.811  0.5095 -0.2245 -0.8441
  208MOL0     C27363  -0.612   6.733   1.955  0.5696  0.0329  0.4027
  208MOL0     C27364  -0.496   6.705   2.041  0.7561  0.0952  0.0313
  208MOL0     C27365  -0.538   6.686   2.192  0.0507 -0.1279 -0.3868
  208MOL0     C27366  -0.537   6.817   2.279  0.1400 -0.0645  0.3467
  208MOL0     C27367  -0.607   6.792   2.417  0.6263  0.4097  0.0239
  208MOL0    Cl27368  -0.493   6.703   2.521  0.0333 -0.3496  0.2994
  208MOL0     C27369  -0.575   6.694   1.286  0.0929  0.0026 -0.2321
  208MOL0     C27370  -0.539   6.692   1.153  0.3294  0.7115  0.3537
  208MOL0     O27371  -0.786   6.779   0.830 -0.4915 -0.0987  1.0704
  208MOL0     C27372  -0.483   6.695   0.660  0.1235 -0.1926 -0.3818
  208MOL0     C27373  -0.435   6.681   0.530 -0.0325 -0.5204  0.1649
  208MOL0     N27374  -0.329   6.411  -0.221  0.4806 -0.3400  0.4189
  208MOL0     N27375  -0.274   6.310  -0.270 -0.4088 -0.3046 -0.2000
  208MOL0     C27376   0.928   6.033   0.138  0.2945 -1.1639  0.7333
  208MOL0     C27377   1.043   6.056   0.218 -0.0139  1.0035  0.1766
  208MOL0     C27378   1.414   6.188   0.412  0.1449 -0.3577  0.7024
  208MOL0     C27379   1.451   6.321   0.376  0.9315 -0.0417  0.2361
  208MOL0     C27380   1.545   6.396   0.445 -0.4564 -0.1540  0.5232
  208MOL0     C27381   1.619   6.338   0.550  0.1790 -0.1318 -0.3534
  208MOL0     O27382   1.705   6.419   0.626  0.9949 -0.2997 -0.0891
  208MOL0     C27383   1.654   6.433   0.770 -0.0123  0.0108 -0.1150
  208MOL0     C27384   1.716   6.558   0.841  0.6834  0.4400  0.0809
  208MOL0     C27385   1.844   6.522   0.912 -0.2738  0.1559 -0.2568
  208MOL0     C27386   1.972   6.467   0.833  0.9354 -0.4418 -0.1198
  208MOL0     C27387   2.030   6.569   0.760  0.2740  0.2549  0.8508
  208MOL0     C27388   2.061   6.666   0.702  0.3530 -0.3832  0.5434
  208MOL0     C27389   1.587   6.205   0.585 -0.1271 -1.0693 -0.5708
  208MOL0     C27390   1.499   6.130   0.508  0.4860  0.1394  0.7046
  208MOL0     H27391   1.242   6.164  -0.025  0.2678 -1.9450 -0.7971
  208MOL0     H27392   1.038   6.139  -0.162  2.2407 -1.1515 -0.7487
  208MOL0     H27393   0.676   6.106   0.087 -0.7739  1.3299 -0.6558
  208MOL0     H27394   0.673   5.934   0.046 -0.8012  0.0738 -0.4040
  208MOL0     H27395   0.545   5.963  -0.156 -0.2267  1.1746 -1.3285
  208MOL0     H27396   0.554   6.131  -0.157 -6.3396 -2.1386 -2.8133
  208MOL0     H27397   0.468   6.121   0.083  1.1136  1.1974 -0.8267
  208MOL0     H27398   0.418   5.955   0.047  2.9183  0.8805  2.1659
  208MOL0     H27399   0.233   6.115   0.019 -1.5812  1.6027 -1.1643
  208MOL0     H27400   0.326   6.216  -0.089 -0.0901  0.6844  0.0392
  208MOL0     H27401   0.284   5.918  -0.178 -2.4491 -0.8348  2.3135
  208MOL0     H27402   0.339   6.066  -0.265 -0.0146 -2.3376 -1.2765
  208MOL0     H27403   0.079   5.965  -0.155 -3.0078  1.0820 -1.4316
  208MOL0     H27404   0.111   6.010  -0.325  1.2251  1.2890 -0.9023
  208MOL0     H27405   0.045   6.187  -0.094 -1.5693 -0.4527  0.4189
  208MOL0     H27406   0.132   6.253  -0.241  3.4125 -3.0201 -0.4757
  208MOL0     H27407  -0.115   6.104  -0.274 -1.8265  0.8714  0.0628
  208MOL0     H27408  -0.025   6.198  -0.396 -0.6235  1.5528  0.3076
  208MOL0     H27409  -0.025   6.426  -0.090 -1.5524  1.5886 -0.4270
  208MOL0     H27410  -0.271   6.680  -0.149 -2.3022 -0.1589  0.2506
  208MOL0     H27411  -0.181   6.634  -0.014  0.0393  0.8201  0.2886
  208MOL0     H27412  -0.403   6.515   0.077  3.5564 -1.9565 -2.8675
  208MOL0     H27413  -0.480   6.590  -0.068 -2.5317 -0.5236  1.2220
  208MOL0     H27414  -0.298   6.746   0.130  2.8720 -2.0617 -1.7458
  208MOL0     H27415  -0.390   6.815  -0.002  2.2008 -0.8944 -0.1379
  208MOL0     H27416  -0.600   6.713   0.145 -0.0594 -1.6555  2.1437
  208MOL0     H27417  -0.509   6.865   0.179 -1.7376 -0.0730  2.0558
  208MOL0     H27418  -0.698   6.804   0.351  0.5229 -0.2967  0.1356
  208MOL0     H27419  -0.761   6.859   0.584  0.0047  0.7643 -0.5014
  208MOL0     H27420  -0.794   6.895   1.037 -1.0168 -1.9210 -2.0270
  208MOL0     H27421  -0.843   6.868   1.299 -2.3164 -0.2421 -1.0829
  208MOL0     H27422  -0.517   6.746   1.546 -1.7792  3.0008 -3.2221
  208MOL0     H27423  -0.619   6.596   1.559  1.4596  0.7465 -3.7463
  208MOL0     H27424  -0.746   6.650   1.728  0.4864 -1.0231 -3.6265
  208MOL0     H27425  -0.712   6.831   1.710 -0.7642 -0.4551  0.3372
  208MOL0     H27426  -0.493   6.815   1.801 -1.5122  1.5815  0.5373
  208MOL0     H27427  -0.500   6.637   1.803  2.0998  0.3685  2.3879
  208MOL0     H27428  -0.665   6.822   1.990 -0.3513 -0.6455  0.7950
  208MOL0     H27429  -0.691   6.658   1.974  0.5783 -0.0211  0.2316
  208MOL0     H27430  -0.424   6.786   2.030  0.0755  0.6062 -0.8349
  208MOL0     H27431  -0.464   6.608   2.002  1.5210 -0.4975  2.0339
  208MOL0     H27432  -0.472   6.617   2.245  0.2771  1.9376  2.2041
  208MOL0     H27433  -0.638   6.640   2.191  0.4185 -0.9713 -2.1869
  208MOL0     H27434  -0.432   6.845   2.291  0.9456 -2.9325  0.7348
  208MOL0     H27435  -0.591   6.896   2.225 -1.9397 -1.1134  0.7857
  208MOL0     H27436  -0.706   6.747   2.416  1.0020 -0.4575  0.8065
  208MOL0     H27437  -0.621   6.888   2.469 -0.1801  0.9890 -1.2076
  208MOL0     H27438  -0.506   6.647   1.356 -1.5096  1.8954  2.8384
  208MOL0     H27439  -0.465   6.629   1.104 -0.1535  0.3988  0.0179
  208MOL0     H27440  -0.418   6.674   0.744 -2.9919 -1.6934  1.8808
  208MOL0     H27441  -0.335   6.639   0.525 -0.6371 -2.0951  0.9998
  208MOL0     H27442   0.844   5.997   0.196 -1.1517 -0.2962 -0.7418
  208MOL0     H27443   1.029   6.037   0.324 -2.2749  1.2406 -0.0274
  208MOL0     H27444   1.385   6.381   0.315  0.3948 -0.4670  0.3909
  208MOL0     H27445   1.568   6.497   0.414 -0.1569 -1.4538 -4.2521
  208MOL0     H27446   1.684   6.345   0.828 -2.9074  0.8307  2.9813
  208MOL0     H27447   1.544   6.440   0.766  0.1237  2.7124 -2.0406
  208MOL0     H27448   1.741   6.634   0.767  0.9825  0.8915  0.6341
  208MOL0     H27449   1.643   6.612   0.904 -0.7353  0.2137 -1.3048
  208MOL0     H27450   1.818   6.448   0.988 -0.9182  1.1584  0.5401
  208MOL0     H27451   1.865   6.610   0.974 -0.4064 -0.5513  0.8333
  208MOL0     H27452   2.045   6.438   0.908  0.0741  1.1259  1.4094
  208MOL0     H27453   1.946   6.382   0.770 -3.0131  0.1419  0.4757
  208MOL0     H27454   2.109   6.758   0.677 -0.5186 -0.2782 -0.8496
  208MOL0     H27455   1.643   6.172   0.672 -0.0795  1.8015  0.6001
  208MOL0     H27456   1.494   6.024   0.532 -4.0651 -0.2003 -0.8476
  209MOL0     O27457   6.502   2.994   3.982 -0.0489  0.6602 -0.3282
  209MOL0     C27458   6.492   3.077   4.071  0.6157  0.3378 -0.4769
  209MOL0     O27459   6.388   3.094   4.169  0.5818  0.2462 -0.8501
  209MOL0     C27460   6.288   2.995   4.180 -0.1212  0.2533  0.3029
  209MOL0     C27461   6.154   3.036   4.182 -0.5603  0.0044 -0.8245
  209MOL0     C27462   6.051   2.949   4.217  0.3226  0.2079 -1.1108
  209MOL0     C27463   6.080   2.815   4.255 -0.4617  0.3020  0.6985
  209MOL0     O27464   5.994   2.728   4.309 -0.1073  0.6995  0.2698
  209MOL0     C27465   5.854   2.769   4.290 -0.1798  0.9576 -0.5745
  209MOL0     C27466   5.808   2.851   4.400 -0.0386 -0.1225 -0.3829
  209MOL0     C27467   5.656   2.892   4.390 -0.2081  0.8390  0.7319
  209MOL0     C27468   5.561   2.776   4.402 -0.0752  0.2023 -0.0553
  209MOL0     C27469   5.589   2.674   4.513  0.1787  0.1451 -0.1950
  209MOL0     C27470   5.591   2.728   4.655  0.2282  0.2843  0.0015
  209MOL0     C27471   5.462   2.803   4.686  0.5181 -0.3530  0.6415
  209MOL0     C27472   5.448   2.865   4.820  0.1560 -0.3687 -0.2810
  209MOL0     N27473   5.327   2.938   4.828  0.5463 -0.7003  0.6835
  209MOL0     C27474   5.305   3.077   4.841 -0.4760  0.3067 -0.0342
  209MOL0     C27475   5.178   3.086   4.865  0.7997 -0.1714 -0.0153
  209MOL0     C27476   5.116   3.213   4.902 -0.6920 -0.1169  0.9472
  209MOL0     C27477   5.164   3.268   5.044  0.3651  0.8583  0.0227
  209MOL0     C27478   5.092   3.202   5.162  0.4366  0.2682 -0.1957
  209MOL0     C27479   4.941   3.233   5.172 -0.8448  0.5047 -0.7603
  209MOL0     O27480   4.875   3.134   5.258 -0.4819 -0.0992 -0.3042
  209MOL0     C27481   4.745   3.137   5.260 -0.0922 -0.5687  1.0593
  209MOL0     C27482   4.667   3.254   5.237 -0.0348  0.4471 -0.4122
  209MOL0     C27483   4.524   3.245   5.248  0.3522 -0.9696  0.5780
  209MOL0     C27484   4.462   3.124   5.296 -0.5622 -0.4498  0.6694
  209MOL0     C27485   4.320   3.122   5.319 -0.3774  0.5845 -0.6669
  209MOL0     O27486   4.247   3.149   5.200  0.2162 -0.3746  0.2444
  209MOL0     C27487   4.112   3.108   5.204  0.4788  0.4676  0.0076
  209MOL0     C27488   4.011   3.195   5.174 -0.4771  1.4112 -1.1911
  209MOL0     C27489   3.882   3.150   5.183  0.4508 -0.5178  0.2076
  209MOL0     C27490   3.839   3.017   5.208  0.6692  0.2491  0.4388
  209MOL0     O27491   3.708   2.970   5.216 -0.3317  0.3792 -0.1998
  209MOL0     C27492   3.607   3.070   5.199 -0.9175 -0.0258  0.0720
  209MOL0     C27493   3.470   3.015   5.240 -0.4518 -0.1386 -0.1246
  209MOL0     C27494   3.371   3.117   5.282  0.0428 -0.2574 -0.2101
  209MOL0     C27495   3.227   3.055   5.288  0.7428  0.1605 -0.1272
  209MOL0     C27496   3.120   3.158   5.313  0.5504 -0.2010  0.6162
  209MOL0     C27497   2.989   3.081   5.314 -0.1166 -0.3762 -1.0012
  209MOL0     C27498   2.898   3.118   5.439  0.2763  0.6473 -0.5054
  209MOL0     C27499   2.799   3.005   5.470  0.3468  0.2548 -0.3555
  209MOL0    Cl27500   2.682   3.051   5.584  0.6176 -0.2571  0.2480
  209MOL0     C27501   3.945   2.930   5.220 -0.3166  0.1304  0.4326
  209MOL0     C27502   4.074   2.977   5.212 -0.2210  1.2405 -0.5862
  209MOL0     O27503   4.282   3.093   5.426  0.2572  0.5018 -0.0170
  209MOL0     C27504   4.548   3.008   5.304  0.3459 -0.6110 -0.8237
  209MOL0     C27505   4.679   3.018   5.281 -0.0539 -0.4189 -0.5119
  209MOL0     N27506   5.115   2.964   4.855  0.1525 -0.0714  0.2886
  209MOL0     N27507   5.205   2.870   4.845 -0.3413 -0.0555  0.4983
  209MOL0     C27508   6.211   2.768   4.240  0.0723 -0.4339  0.3571
  209MOL0     C27509   6.308   2.860   4.202 -0.4726 -0.4786  0.5291
  209MOL0     C27510   6.606   3.176   4.084 -0.7517 -0.0774  0.7225
  209MOL0     C27511   6.718   3.172   3.989  0.8073  0.1515 -0.2403
  209MOL0     C27512   6.819   3.270   3.999 -0.1073 -0.0248  0.7504
  209MOL0     C27513   6.827   3.364   4.102 -0.4767  0.8629  0.0291
  209MOL0     O27514   6.942   3.432   4.120 -0.5422 -0.8833  0.1168
  209MOL0     C27515   7.017   3.391   4.239  0.0820 -0.0468 -0.4117
  209MOL0     C27516   7.160   3.436   4.234 -0.1703  0.1670  0.3842
  209MOL0     C27517   7.237   3.424   4.105 -0.1446  1.3402 -0.6793
  209MOL0     C27518   7.374   3.484   4.129  0.4555  0.1390 -0.6244
  209MOL0     C27519   7.384   3.631   4.108 -0.0965 -0.1927 -0.3109
  209MOL0     C27520   7.372   3.747   4.089 -0.4009  0.5554  0.0778
  209MOL0     C27521   6.722   3.355   4.199  0.2010  0.0236 -0.1160
  209MOL0     C27522   6.601   3.276   4.183 -0.1736  0.1870 -0.1499
  209MOL0     H27523   6.132   3.141   4.167  1.8025  0.8877  1.1919
  209MOL0     H27524   5.947   2.980   4.213 -0.1878 -1.5252 -2.2458
  209MOL0     H27525   5.800   2.674   4.290 -1.9146  1.8843  1.0666
  209MOL0     H27526   5.814   2.813   4.198  0.1491  3.0561  0.2343
  209MOL0     H27527   5.857   2.949   4.407  1.4135 -0.6527 -2.2996
  209MOL0     H27528   5.829   2.797   4.492 -2.5956  1.5534  1.3316
  209MOL0     H27529   5.630   2.945   4.299 -3.8151 -0.9481  0.5528
  209MOL0     H27530   5.648   2.972   4.464  1.6429  1.5059  0.2632
  209MOL0     H27531   5.467   2.828   4.424  0.2647  0.2590  1.3218
  209MOL0     H27532   5.545   2.728   4.305 -3.1064 -1.2302  1.0282
  209MOL0     H27533   5.684   2.620   4.506 -0.1278 -0.9976  2.8188
  209MOL0     H27534   5.518   2.592   4.501  2.1097 -1.2135 -4.1496
  209MOL0     H27535   5.674   2.799   4.664 -0.6128  1.4546 -1.1640
  209MOL0     H27536   5.606   2.647   4.727  1.3858  4.1205  4.5823
  209MOL0     H27537   5.443   2.885   4.617  1.8643 -0.0483  0.5987
  209MOL0     H27538   5.379   2.732   4.684 -0.4285  0.7525 -0.6124
  209MOL0     H27539   5.541   2.919   4.842 -0.8289  0.4563  2.1011
  209MOL0     H27540   5.448   2.786   4.897  3.7693 -1.3679 -1.0806
  209MOL0     H27541   5.371   3.160   4.819 -0.6026 -0.0839 -2.1182
  209MOL0     H27542   5.008   3.209   4.886 -0.3515  1.5460 -2.9713
  209MOL0     H27543   5.164   3.270   4.823  0.6375 -1.9366  0.3770
  209MOL0     H27544   5.142   3.375   5.051 -0.8769  0.6514 -0.3949
  209MOL0     H27545   5.269   3.241   5.050 -0.2501 -1.4347  2.4878
  209MOL0     H27546   5.110   3.094   5.172  0.0034  0.0501 -1.5784
  209MOL0     H27547   5.141   3.245   5.250 -1.0805  1.1417  0.2499
  209MOL0     H27548   4.898   3.218   5.072 -0.7686 -2.9681 -0.3954
  209MOL0     H27549   4.926   3.338   5.199  0.3661  0.4721  0.1009
  209MOL0     H27550   4.703   3.356   5.223 -1.5569  2.0803  5.1538
  209MOL0     H27551   4.471   3.340   5.245  0.6137 -0.8359 -0.0616
  209MOL0     H27552   4.038   3.299   5.155 -0.3965  1.8981  1.2628
  209MOL0     H27553   3.805   3.225   5.165  0.4266 -0.0383  2.0381
  209MOL0     H27554   3.601   3.099   5.094 -1.2069 -0.5391 -0.0514
  209MOL0     H27555   3.625   3.158   5.262  0.4074 -0.4281  0.2864
  209MOL0     H27556   3.468   2.938   5.318 -4.1916  2.4244  2.6632
  209MOL0     H27557   3.425   2.967   5.153 -1.8041  1.7003 -0.4979
  209MOL0     H27558   3.361   3.198   5.210 -2.2711 -0.6629 -0.4301
  209MOL0     H27559   3.394   3.158   5.381  1.5356 -3.4861  0.9202
  209MOL0     H27560   3.206   3.008   5.191 -1.5397 -1.2186  0.9517
  209MOL0     H27561   3.230   2.979   5.366  1.9761 -1.0374 -1.2805
  209MOL0     H27562   3.117   3.239   5.239 -0.0524 -0.9106 -0.1551
  209MOL0     H27563   3.136   3.204   5.410 -0.7363  2.6531 -0.4253
  209MOL0     H27564   3.007   2.973   5.320  0.2899 -0.4883 -3.3254
  209MOL0     H27565   2.954   3.097   5.212 -0.6948 -0.9433 -0.8964
  209MOL0     H27566   2.957   3.121   5.531 -1.1232 -2.5749  0.6503
  209MOL0     H27567   2.845   3.211   5.420 -1.5355  0.8370  4.1621
  209MOL0     H27568   2.861   2.921   5.504 -1.3570 -1.5351 -1.5034
  209MOL0     H27569   2.743   2.966   5.385 -0.6749 -0.0541  0.4314
  209MOL0     H27570   3.913   2.827   5.213  0.0635  0.1051 -2.1388
  209MOL0     H27571   4.148   2.903   5.242 -0.4574  1.5374  0.8374
  209MOL0     H27572   4.516   2.908   5.329  0.5362 -0.2918  0.8040
  209MOL0     H27573   4.733   2.928   5.309  0.0435 -0.0131  0.6716
  209MOL0     H27574   6.240   2.666   4.262  0.1364 -0.5600 -0.2850
  209MOL0     H27575   6.401   2.805   4.194  0.3217  0.8016  0.8072
  209MOL0     H27576   6.731   3.092   3.918 -0.1670 -2.0806  1.9501
  209MOL0     H27577   6.907   3.264   3.936 -1.1976  0.3118 -0.8999
  209MOL0     H27578   7.024   3.283   4.255 -0.9523  0.0801  1.2162
  209MOL0     H27579   6.977   3.431   4.333  1.9915 -0.8326  0.7953
  209MOL0     H27580   7.166   3.543   4.253  0.8145 -0.1690  2.2008
  209MOL0     H27581   7.214   3.381   4.312 -0.3869 -0.3338  0.1879
  209MOL0     H27582   7.187   3.461   4.015  2.6688  0.7804 -2.6221
  209MOL0     H27583   7.250   3.315   4.100  0.2386  1.2509  1.4469
  209MOL0     H27584   7.409   3.469   4.231  0.2941 -0.7605 -0.6909
  209MOL0     H27585   7.446   3.422   4.074 -1.6481 -6.3996  2.8836
  209MOL0     H27586   7.376   3.845   4.046  3.1735  0.2799 -0.5433
  209MOL0     H27587   6.721   3.421   4.286  1.7314  0.0370 -0.0833
  209MOL0     H27588   6.530   3.281   4.265  0.0492 -1.8428  0.2220
  210MOL0     O27589   6.787   8.706   2.204 -0.2251  0.5377 -0.4362
  210MOL0     C27590   6.841   8.652   2.309  0.7543  0.5721  0.4771
  210MOL0     O27591   6.778   8.577   2.411  0.7601 -0.1930  0.7109
  210MOL0     C27592   6.662   8.532   2.373 -0.3601 -0.5974 -0.3497
  210MOL0     C27593   6.547   8.589   2.428  0.0196  0.3147 -0.5298
  210MOL0     C27594   6.425   8.545   2.366  0.0290  0.1612  0.2383
  210MOL0     C27595   6.419   8.455   2.263 -0.2572 -1.1034 -0.0217
  210MOL0     O27596   6.292   8.433   2.222 -0.3584  0.7413 -0.5816
  210MOL0     C27597   6.258   8.305   2.171  0.2654 -0.1153 -0.5352
  210MOL0     C27598   6.218   8.227   2.297  0.6969  0.0221 -0.3827
  210MOL0     C27599   6.076   8.253   2.352 -0.2823 -0.9317 -1.0538
  210MOL0     C27600   6.036   8.158   2.465 -0.6142  0.2506  0.6988
  210MOL0     C27601   5.890   8.129   2.448  0.9983 -0.0690  0.3573
  210MOL0     C27602   5.841   8.043   2.556  0.2904  0.5276 -0.7099
  210MOL0     C27603   5.813   7.898   2.508 -0.4978  0.8115 -0.4776
  210MOL0     C27604   5.729   7.825   2.614 -0.8395  0.0277  0.3464
  210MOL0     N27605   5.658   7.710   2.563  0.7496  0.4487  0.7594
  210MOL0     C27606   5.565   7.716   2.461  0.2375 -0.6526 -0.0277
  210MOL0     C27607   5.548   7.596   2.403  0.0062 -0.3563 -0.6130
  210MOL0     C27608   5.484   7.564   2.266 -0.2223  0.6314  0.0117
  210MOL0     C27609   5.335   7.527   2.260 -1.1023  0.8515  0.0963
  210MOL0     C27610   5.328   7.497   2.112 -0.5586  0.0199  0.2978
  210MOL0     C27611   5.183   7.476   2.068  0.8134  0.2401  0.7749
  210MOL0     O27612   5.104   7.594   2.083 -0.2654 -0.2756  0.4945
  210MOL0     C27613   4.982   7.581   2.012 -0.1721 -1.5757 -0.1447
  210MOL0     C27614   4.956   7.663   1.902 -0.6766  0.5390 -0.2541
  210MOL0     C27615   4.821   7.672   1.853 -0.0114 -0.3846 -0.5594
  210MOL0     C27616   4.726   7.592   1.911  0.4866 -0.3941 -0.3209
  210MOL0     C27617   4.586   7.611   1.867  0.7014 -0.3071  0.1494
  210MOL0     O27618   4.574   7.681   1.747  0.2818  0.3237 -0.2165
  210MOL0     C27619   4.448   7.713   1.694  0.7223 -0.9538 -0.2519
  210MOL0     C27620   4.331   7.763   1.767  0.0189  0.9259  0.3412
  210MOL0     C27621   4.213   7.806   1.703 -0.2018  0.7307 -0.1085
  210MOL0     C27622   4.208   7.806   1.560  0.7859  0.1703 -0.3715
  210MOL0     O27623   4.094   7.836   1.484  0.5544 -0.8575 -0.5055
  210MOL0     C27624   3.968   7.801   1.552 -0.0986 -0.2944 -0.0126
  210MOL0     C27625   3.890   7.936   1.593 -0.5199 -0.9802  0.2867
  210MOL0     C27626   3.867   8.026   1.468  0.2912 -0.2409 -0.1736
  210MOL0     C27627   3.767   8.140   1.502 -0.1644 -0.4533  0.1779
  210MOL0     C27628   3.854   8.252   1.572  0.0438  0.7327 -0.2937
  210MOL0     C27629   3.772   8.374   1.562  0.1873 -0.0902 -1.1552
  210MOL0     C27630   3.822   8.465   1.674 -0.0147 -0.0209 -0.1215
  210MOL0     C27631   3.706   8.488   1.773 -0.5097 -0.1210 -0.4422
  210MOL0    Cl27632   3.765   8.617   1.894 -0.2315 -0.1374 -0.4708
  210MOL0     C27633   4.321   7.770   1.486 -0.2768 -1.0425  0.2094
  210MOL0     C27634   4.436   7.725   1.554  0.6095  0.0796  0.4572
  210MOL0     O27635   4.497   7.567   1.942  0.5100 -0.2041  0.0572
  210MOL0     C27636   4.757   7.508   2.019  0.2797  0.8524  0.1465
  210MOL0     C27637   4.885   7.502   2.066  0.4166  0.2076 -0.6617
  210MOL0     N27638   5.630   7.509   2.475 -0.2733  0.5329  0.0475
  210MOL0     N27639   5.690   7.578   2.568 -0.3393  0.5047  0.2565
  210MOL0     C27640   6.544   8.398   2.220  0.7045 -0.2126 -0.6797
  210MOL0     C27641   6.665   8.427   2.283  0.2909  0.7113 -0.1343
  210MOL0     C27642   6.982   8.700   2.332  0.5917  0.0620  0.0341
  210MOL0     C27643   7.055   8.660   2.440  0.2351  0.5737 -0.3981
  210MOL0     C27644   7.185   8.699   2.480  0.2248 -0.3894 -0.4114
  210MOL0     C27645   7.252   8.781   2.395 -0.6932  0.1351 -0.4375
  210MOL0     O27646   7.386   8.820   2.399  0.6231 -0.0462  0.2823
  210MOL0     C27647   7.451   8.764   2.511 -0.2199  0.7275 -0.3213
  210MOL0     C27648   7.584   8.838   2.525  0.1896 -0.3333 -0.4041
  210MOL0     C27649   7.686   8.803   2.423 -0.4621 -0.0190 -1.7964
  210MOL0     C27650   7.816   8.873   2.446  0.3527  0.7732 -0.3475
  210MOL0     C27651   7.916   8.834   2.348  0.2932 -1.0788 -0.3328
  210MOL0     C27652   8.008   8.807   2.266  0.5332 -0.4452 -0.0156
  210MOL0     C27653   7.186   8.830   2.278 -0.1987  0.0372  0.2055
  210MOL0     C27654   7.046   8.795   2.247 -0.3951 -0.1162 -0.2973
  210MOL0     H27655   6.554   8.673   2.495 -0.2889 -0.9528  1.1562
  210MOL0     H27656   6.338   8.591   2.412  0.2606 -1.8797  2.9696
  210MOL0     H27657   6.352   8.264   2.133  1.7745 -0.0315  2.7669
  210MOL0     H27658   6.185   8.306   2.090  1.5758 -3.4343 -1.9174
  210MOL0     H27659   6.289   8.246   2.377 -0.9284 -1.4031  1.4783
  210MOL0     H27660   6.226   8.124   2.263 -2.5510 -0.1844 -0.8259
  210MOL0     H27661   6.002   8.241   2.271 -0.9862 -0.8102 -0.4382
  210MOL0     H27662   6.068   8.356   2.386 -2.3702 -0.5297 -2.5617
  210MOL0     H27663   6.100   8.069   2.464  0.4242  0.9810  0.0966
  210MOL0     H27664   6.059   8.199   2.564 -1.6088  0.6606  0.7708
  210MOL0     H27665   5.876   8.094   2.345  0.2756  2.2436 -0.3844
  210MOL0     H27666   5.838   8.225   2.451 -0.6837 -0.9545  0.6781
  210MOL0     H27667   5.742   8.078   2.587 -2.2004 -3.4602 -3.2892
  210MOL0     H27668   5.911   8.050   2.640  0.2064 -0.3352 -0.5608
  210MOL0     H27669   5.766   7.898   2.409  0.6265  0.3030 -1.0226
  210MOL0     H27670   5.913   7.856   2.494  1.2620  2.2066  5.2170
  210MOL0     H27671   5.650   7.890   2.652 -1.4422 -0.0852 -0.6879
  210MOL0     H27672   5.798   7.785   2.689  0.6750  0.7028 -0.6315
  210MOL0     H27673   5.509   7.805   2.434  1.2002  0.5871  1.8491
  210MOL0     H27674   5.538   7.474   2.236 -0.9242  0.4599 -0.7547
  210MOL0     H27675   5.515   7.641   2.195 -0.4061 -1.7699 -2.8385
  210MOL0     H27676   5.270   7.612   2.285 -3.2976 -0.9426  0.8679
  210MOL0     H27677   5.299   7.444   2.321 -1.1175 -3.0764 -4.5974
  210MOL0     H27678   5.351   7.584   2.050  1.7578  2.2682  3.8645
  210MOL0     H27679   5.378   7.403   2.090  0.3302  0.4819  0.2770
  210MOL0     H27680   5.135   7.391   2.116  1.0776 -0.3323  0.0503
  210MOL0     H27681   5.190   7.454   1.961  4.8607 -0.2359  0.9894
  210MOL0     H27682   5.031   7.729   1.861 -1.8807  0.7057 -2.3221
  210MOL0     H27683   4.816   7.740   1.768  2.4681  2.2736  1.2345
  210MOL0     H27684   4.342   7.741   1.873 -0.0452  1.0609  0.3756
  210MOL0     H27685   4.129   7.819   1.771 -0.3619  0.8321 -0.3254
  210MOL0     H27686   3.981   7.732   1.635 -2.1113 -1.1736 -0.3628
  210MOL0     H27687   3.911   7.748   1.475  1.4967 -0.6619 -0.9748
  210MOL0     H27688   3.943   7.993   1.670  0.6878 -0.5214 -0.8375
  210MOL0     H27689   3.790   7.905   1.624  0.8353 -2.4909  3.6291
  210MOL0     H27690   3.823   7.969   1.386 -0.5703  0.8115 -0.4680
  210MOL0     H27691   3.962   8.075   1.443  1.9359 -1.1512  3.6046
  210MOL0     H27692   3.722   8.170   1.406  1.4050 -0.8644 -0.7190
  210MOL0     H27693   3.693   8.109   1.577  0.1053  2.8702  2.0227
  210MOL0     H27694   3.957   8.270   1.541  1.2198 -2.3923  1.3781
  210MOL0     H27695   3.864   8.203   1.669  0.6318  2.0043  0.3162
  210MOL0     H27696   3.665   8.358   1.578 -0.1676  4.3539  3.3061
  210MOL0     H27697   3.778   8.427   1.467  1.1357  0.3439 -0.8667
  210MOL0     H27698   3.893   8.414   1.740  1.2984 -1.2405 -2.3319
  210MOL0     H27699   3.867   8.560   1.644 -0.3963  0.9201  2.0548
  210MOL0     H27700   3.685   8.390   1.817  1.0525 -1.1436 -1.8253
  210MOL0     H27701   3.624   8.528   1.712  2.2065  5.0644 -1.2324
  210MOL0     H27702   4.322   7.772   1.378  0.7956 -0.1494  0.2097
  210MOL0     H27703   4.520   7.712   1.486 -1.4680  0.9156 -2.4494
  210MOL0     H27704   4.681   7.446   2.064  1.2028  0.5712  1.3608
  210MOL0     H27705   4.900   7.433   2.149 -3.9698 -3.9425 -2.8482
  210MOL0     H27706   6.547   8.317   2.148  1.5745 -2.7270  1.9794
  210MOL0     H27707   6.759   8.380   2.256  1.1025  1.2056  1.7303
  210MOL0     H27708   7.005   8.583   2.497 -2.4045  0.0511 -3.1631
  210MOL0     H27709   7.219   8.653   2.573 -1.7564  0.8650  1.0039
  210MOL0     H27710   7.463   8.656   2.498  1.1031  0.8711 -0.3978
  210MOL0     H27711   7.399   8.784   2.605  0.9152  3.8504 -0.2304
  210MOL0     H27712   7.575   8.947   2.528 -0.2735 -0.3552  3.7418
  210MOL0     H27713   7.625   8.801   2.619 -0.6189  0.7732  0.3948
  210MOL0     H27714   7.650   8.840   2.326 -1.9879 -0.4343 -1.4206
  210MOL0     H27715   7.701   8.696   2.411  0.1745 -0.4190  1.5750
  210MOL0     H27716   7.814   8.982   2.454  1.1854  0.6343  3.2632
  210MOL0     H27717   7.854   8.838   2.542 -0.5713  1.9300  0.4799
  210MOL0     H27718   8.095   8.782   2.208  2.2032  0.1173  2.1147
  210MOL0     H27719   7.229   8.908   2.217  1.0011 -2.4160 -2.3444
  210MOL0     H27720   7.010   8.846   2.157  1.6480  1.1533 -0.4590
  211MOL0     O27721   2.979   1.692   6.755  0.1580 -0.8057  0.5502
  211MOL0     C27722   3.050   1.792   6.757  0.7184 -0.0047  0.5442
  211MOL0     O27723   3.023   1.921   6.810  0.1868  0.2150 -0.3364
  211MOL0     C27724   2.893   1.954   6.834  0.2328  0.4308 -0.5171
  211MOL0     C27725   2.777   1.894   6.783  0.3968  0.7389  0.5753
  211MOL0     C27726   2.649   1.944   6.814  0.1221  0.3907 -0.2712
  211MOL0     C27727   2.633   2.063   6.877 -0.3823  0.4765 -0.0236
  211MOL0     O27728   2.500   2.102   6.903  0.0987 -0.2492 -0.0114
  211MOL0     C27729   2.470   2.240   6.911  0.9156  0.6162  0.5530
  211MOL0     C27730   2.324   2.251   6.956 -0.2649  0.5013  0.0763
  211MOL0     C27731   2.232   2.220   6.844  0.8251 -1.1165  0.2913
  211MOL0     C27732   2.081   2.200   6.888  0.0111  0.7957  0.2092
  211MOL0     C27733   1.978   2.218   6.776 -0.6722  1.0506 -0.6470
  211MOL0     C27734   1.830   2.171   6.820 -0.2383 -0.6886  0.6933
  211MOL0     C27735   1.755   2.264   6.912 -0.0872  0.0833  0.5769
  211MOL0     C27736   1.659   2.188   6.999  0.0153 -0.7884 -0.2123
  211MOL0     N27737   1.583   2.285   7.089  0.2506 -1.1017  0.0659
  211MOL0     C27738   1.451   2.312   7.065  0.6980  0.6424 -0.1196
  211MOL0     C27739   1.413   2.377   7.184 -1.2600 -0.3039 -0.4383
  211MOL0     C27740   1.284   2.442   7.221  1.1856 -0.1766 -0.0456
  211MOL0     C27741   1.191   2.340   7.278  0.3172 -0.1197 -0.6907
  211MOL0     C27742   1.061   2.398   7.329  1.0120  0.5047  0.2897
  211MOL0     C27743   0.970   2.302   7.417 -0.0531 -0.4433 -0.5548
  211MOL0     O27744   0.848   2.370   7.457  0.6104 -0.0737 -0.5497
  211MOL0     C27745   0.747   2.294   7.505  0.4680 -0.4752  1.3352
  211MOL0     C27746   0.755   2.162   7.533 -0.4094  0.3698  0.5771
  211MOL0     C27747   0.645   2.088   7.579  0.4563  0.4352  1.8033
  211MOL0     C27748   0.523   2.159   7.621 -0.4076 -0.5386  1.5172
  211MOL0     C27749   0.399   2.086   7.665 -0.0395  0.0817 -0.1345
  211MOL0     O27750   0.294   2.165   7.703 -0.0830 -0.1098  1.1666
  211MOL0     C27751   0.169   2.126   7.719  0.7915  0.2001 -0.5368
  211MOL0     C27752   0.073   2.224   7.758  0.4457 -0.1941  0.5459
  211MOL0     C27753  -0.068   2.201   7.774  0.2316 -0.0257 -0.7819
  211MOL0     C27754  -0.113   2.067   7.773 -0.5076 -0.0916 -0.0036
  211MOL0     O27755  -0.242   2.023   7.777  0.6540 -0.4711  1.0646
  211MOL0     C27756  -0.335   2.110   7.833 -0.9924 -0.1555 -0.9460
  211MOL0     C27757  -0.393   2.198   7.723  0.3850 -1.3830  0.6301
  211MOL0     C27758  -0.487   2.114   7.643  0.4287 -0.0040  0.5540
  211MOL0     C27759  -0.540   2.187   7.523  0.1812  0.7698 -0.1858
  211MOL0     C27760  -0.617   2.087   7.430  0.4682 -0.6734 -0.0592
  211MOL0     C27761  -0.693   2.155   7.323 -0.7087 -0.9745  0.4318
  211MOL0     C27762  -0.779   2.068   7.234  0.3622 -0.4887 -1.1325
  211MOL0     C27763  -0.841   2.155   7.126 -0.0030  0.4331 -0.9464
  211MOL0    Cl27764  -0.970   2.261   7.192 -0.3817 -0.3105  0.1096
  211MOL0     C27765  -0.026   1.963   7.734 -0.0755 -0.9322  0.0006
  211MOL0     C27766   0.107   1.999   7.709 -0.3378  0.0846 -0.4294
  211MOL0     O27767   0.407   1.962   7.663  0.4413 -0.2832  1.1904
  211MOL0     C27768   0.520   2.293   7.585  0.5449  0.0594 -0.3058
  211MOL0     C27769   0.630   2.364   7.530  0.2593  0.1790 -0.1719
  211MOL0     N27770   1.528   2.399   7.259  0.0315 -0.0301 -0.5667
  211MOL0     N27771   1.628   2.356   7.193 -0.9801 -0.4553 -0.1047
  211MOL0     C27772   2.747   2.133   6.924  0.5386 -0.9909 -0.2203
  211MOL0     C27773   2.878   2.080   6.903 -0.0774 -0.2229  0.0694
  211MOL0     C27774   3.190   1.771   6.713 -0.1506  0.5963 -0.0382
  211MOL0     C27775   3.291   1.868   6.735  0.4025  0.6206  0.5753
  211MOL0     C27776   3.418   1.851   6.673  0.1332 -0.4370  0.0406
  211MOL0     C27777   3.446   1.731   6.599 -0.3700  0.1277 -0.0528
  211MOL0     O27778   3.555   1.704   6.529 -0.6997 -0.2008  0.3585
  211MOL0     C27779   3.679   1.706   6.596 -0.3639  0.4584 -0.2206
  211MOL0     C27780   3.703   1.614   6.717  0.0432 -0.2392 -1.1015
  211MOL0     C27781   3.851   1.612   6.764  0.7337  0.1643  0.0406
  211MOL0     C27782   3.924   1.490   6.718 -0.1561  0.7362  0.5614
  211MOL0     C27783   4.047   1.477   6.794 -0.7293  0.2269  0.2314
  211MOL0     C27784   4.141   1.484   6.866 -0.8087 -0.8263 -0.1210
  211MOL0     C27785   3.343   1.633   6.589 -0.2345 -0.2377  0.7165
  211MOL0     C27786   3.216   1.656   6.643 -0.1094  1.0391 -0.0254
  211MOL0     H27787   2.776   1.802   6.726  0.6839  0.1571  1.4749
  211MOL0     H27788   2.565   1.888   6.774  0.5631  0.3646 -1.1676
  211MOL0     H27789   2.482   2.287   6.813  5.7134  1.0049  1.0743
  211MOL0     H27790   2.531   2.292   6.985 -0.1844  0.3975  1.6436
  211MOL0     H27791   2.308   2.353   6.992  1.6649  1.4324 -1.5188
  211MOL0     H27792   2.310   2.184   7.041 -0.3272  0.7501  0.2641
  211MOL0     H27793   2.263   2.135   6.782 -0.9486 -3.5981  2.5651
  211MOL0     H27794   2.248   2.309   6.783 -2.3354 -1.2435 -0.8992
  211MOL0     H27795   2.062   2.106   6.942  0.4555  1.4134  1.4945
  211MOL0     H27796   2.064   2.281   6.960  2.6757  0.3111  1.5186
  211MOL0     H27797   2.020   2.173   6.685  2.7080  0.2100  1.1673
  211MOL0     H27798   1.975   2.325   6.751  1.8105  1.9124  2.1521
  211MOL0     H27799   1.839   2.083   6.884 -2.4083 -1.3242  0.1931
  211MOL0     H27800   1.764   2.147   6.736 -1.6722  1.4320  1.1245
  211MOL0     H27801   1.828   2.311   6.978  1.2958 -0.1961 -0.7141
  211MOL0     H27802   1.719   2.348   6.851  1.3422 -0.2541 -0.7849
  211MOL0     H27803   1.723   2.123   7.061  1.1504  0.1560 -0.3558
  211MOL0     H27804   1.592   2.118   6.948 -0.5461  0.2309 -0.9073
  211MOL0     H27805   1.397   2.289   6.973  2.7858 -2.4270 -0.7185
  211MOL0     H27806   1.235   2.485   7.133  2.5382  1.8477  0.1081
  211MOL0     H27807   1.297   2.524   7.292 -3.1510  0.9098 -0.2236
  211MOL0     H27808   1.226   2.291   7.369 -1.6522 -1.0810 -0.3842
  211MOL0     H27809   1.176   2.266   7.199 -0.4909 -0.4602 -0.2297
  211MOL0     H27810   1.081   2.489   7.387 -2.5797  1.1542  0.7608
  211MOL0     H27811   0.996   2.427   7.246  0.2208 -1.0636  0.3187
  211MOL0     H27812   1.020   2.260   7.505 -1.3607 -1.3408 -0.2131
  211MOL0     H27813   0.943   2.213   7.360 -0.7790 -0.0724 -0.7987
  211MOL0     H27814   0.848   2.117   7.497 -0.4682  1.3751 -0.9293
  211MOL0     H27815   0.659   1.983   7.603 -0.5301  0.3980  2.2505
  211MOL0     H27816   0.100   2.329   7.765 -2.0003  0.5804 -0.3091
  211MOL0     H27817  -0.135   2.283   7.798 -0.9589 -1.2340  0.2179
  211MOL0     H27818  -0.284   2.159   7.918 -2.5279 -0.8404  0.4212
  211MOL0     H27819  -0.416   2.049   7.874 -1.9488 -0.1979 -2.8235
  211MOL0     H27820  -0.311   2.235   7.662 -0.5831  1.3653  0.8582
  211MOL0     H27821  -0.442   2.283   7.772  3.9594  0.8840  0.6243
  211MOL0     H27822  -0.569   2.072   7.701 -0.7226  0.8299 -0.4236
  211MOL0     H27823  -0.417   2.035   7.615  0.9394  0.6483 -0.0671
  211MOL0     H27824  -0.616   2.255   7.563  2.6060  2.8716  1.1679
  211MOL0     H27825  -0.462   2.240   7.466 -0.7786  1.4444 -0.9016
  211MOL0     H27826  -0.693   2.033   7.488 -1.3549 -0.1125 -1.7963
  211MOL0     H27827  -0.546   2.021   7.379 -0.8025 -0.1624 -2.6775
  211MOL0     H27828  -0.633   2.213   7.253  2.5732 -2.6403  1.6766
  211MOL0     H27829  -0.765   2.218   7.376 -1.8006 -3.1080  1.6374
  211MOL0     H27830  -0.706   1.996   7.197  1.1100  0.4821 -1.6079
  211MOL0     H27831  -0.855   2.022   7.298  2.7065 -0.0778  2.2401
  211MOL0     H27832  -0.891   2.087   7.057  1.1756 -4.1440  2.2234
  211MOL0     H27833  -0.758   2.207   7.077  0.7182  0.5249  0.3196
  211MOL0     H27834  -0.059   1.863   7.710  0.2592 -1.4924  1.7400
  211MOL0     H27835   0.167   1.923   7.659  2.5636  2.7681 -1.4137
  211MOL0     H27836   0.436   2.354   7.616  1.5060  0.5793  1.4575
  211MOL0     H27837   0.632   2.472   7.516 -1.3530  0.2687  0.1866
  211MOL0     H27838   2.744   2.230   6.972  2.6461 -1.4944  1.0465
  211MOL0     H27839   2.963   2.136   6.940 -1.0510  2.1178 -1.0697
  211MOL0     H27840   3.280   1.961   6.789  3.2404  2.7333 -2.1050
  211MOL0     H27841   3.487   1.933   6.691 -2.1635  0.9290  3.5297
  211MOL0     H27842   3.707   1.807   6.629  3.2771 -0.7404  0.8085
  211MOL0     H27843   3.753   1.677   6.521 -2.2695 -0.4719 -1.8162
  211MOL0     H27844   3.630   1.645   6.793  0.7279 -0.3397 -0.3918
  211MOL0     H27845   3.673   1.514   6.685 -2.0610  0.1243 -0.4440
  211MOL0     H27846   3.850   1.608   6.873  1.6105 -0.8600  0.0270
  211MOL0     H27847   3.905   1.702   6.734 -0.8956  1.0845 -0.2429
  211MOL0     H27848   3.868   1.396   6.716  1.2346 -0.1225  0.6107
  211MOL0     H27849   3.953   1.502   6.613 -1.6892 -0.1796  0.0019
  211MOL0     H27850   4.225   1.492   6.932 -0.2507  4.4709 -1.0306
  211MOL0     H27851   3.367   1.538   6.542  0.1606 -0.0363  0.5105
  211MOL0     H27852   3.143   1.575   6.644  1.8999 -0.9418  2.9047
  212MOL0     O27853   0.511   9.644   4.871  0.4916  0.4599  1.1255
  212MOL0     C27854   0.547   9.663   4.752  1.3785 -0.7397 -0.3427
  212MOL0     O27855   0.470   9.638   4.646  0.4547  0.3636 -0.3615
  212MOL0     C27856   0.344   9.579   4.663  0.3130  1.2138  0.4495
  212MOL0     C27857   0.230   9.653   4.698 -0.9650  0.0784  0.7973
  212MOL0     C27858   0.111   9.594   4.712  0.9776  0.1368 -0.4122
  212MOL0     C27859   0.086   9.458   4.684  0.6238  1.2812  0.3384
  212MOL0     O27860  -0.044   9.409   4.706 -0.8680 -0.4861  0.3775
  212MOL0     C27861  -0.083   9.292   4.645  0.0838 -1.1069 -0.6097
  212MOL0     C27862  -0.230   9.272   4.642 -0.1202 -0.6500  0.5732
  212MOL0     C27863  -0.285   9.262   4.782  0.9433 -0.3247 -1.4808
  212MOL0     C27864  -0.435   9.250   4.761  0.6226 -0.4174  0.7630
  212MOL0     C27865  -0.510   9.371   4.699  0.2755  0.3016 -1.1069
  212MOL0     C27866  -0.494   9.522   4.749  0.5778 -0.1270 -0.9735
  212MOL0     C27867  -0.626   9.595   4.779  0.1968  0.8048  0.0254
  212MOL0     C27868  -0.591   9.732   4.848 -0.0409 -0.0846 -0.4511
  212MOL0     N27869  -0.718   9.785   4.902 -0.2685 -0.1637 -0.4427
  212MOL0     C27870  -0.772   9.768   5.025  0.2635  0.3957  0.3011
  212MOL0     C27871  -0.903   9.776   5.011  0.6960 -0.6671 -1.1867
  212MOL0     C27872  -1.002   9.766   5.125  0.1004  0.9384 -0.0286
  212MOL0     C27873  -1.064   9.626   5.135 -0.0985  0.0217  0.6708
  212MOL0     C27874  -0.981   9.506   5.114 -0.7039  0.1553  0.7798
  212MOL0     C27875  -1.068   9.379   5.108  0.0995 -0.5305 -0.8346
  212MOL0     O27876  -1.145   9.372   5.232  0.6861 -0.4964  0.0801
  212MOL0     C27877  -1.250   9.284   5.236  0.6641  0.5383 -0.4788
  212MOL0     C27878  -1.272   9.183   5.141 -1.2500 -0.2240  0.4032
  212MOL0     C27879  -1.402   9.122   5.136  0.2315  0.1750 -0.3042
  212MOL0     C27880  -1.501   9.154   5.228 -0.2136 -0.1553 -0.1481
  212MOL0     C27881  -1.628   9.081   5.226  0.7157 -0.5387 -0.2607
  212MOL0     O27882  -1.653   9.026   5.104  0.0815  0.0282  0.8868
  212MOL0     C27883  -1.773   8.961   5.071 -0.6033  0.2795  0.1726
  212MOL0     C27884  -1.883   8.954   5.147 -0.5854  0.0015  0.2296
  212MOL0     C27885  -2.005   8.921   5.107 -0.9508  0.6279 -0.7362
  212MOL0     C27886  -2.029   8.887   4.977 -0.4457 -0.4905  0.2720
  212MOL0     O27887  -2.161   8.864   4.939 -0.8278 -0.0540  0.4803
  212MOL0     C27888  -2.186   8.849   4.802  0.7155  0.4195  0.2419
  212MOL0     C27889  -2.331   8.828   4.757 -0.0125 -0.0529 -0.4847
  212MOL0     C27890  -2.439   8.912   4.818  1.9066  0.1196 -1.0762
  212MOL0     C27891  -2.569   8.914   4.732 -0.4792 -0.1666  0.1935
  212MOL0     C27892  -2.687   8.974   4.815 -1.0556  0.6382  0.1401
  212MOL0     C27893  -2.791   9.045   4.732  0.1485 -0.3977 -0.4961
  212MOL0     C27894  -2.878   9.154   4.804 -0.5089 -0.0256 -0.1470
  212MOL0     C27895  -2.993   9.204   4.712  0.7477 -0.5201  0.7666
  212MOL0    Cl27896  -3.058   9.368   4.739  0.2680 -0.2601  0.0133
  212MOL0     C27897  -1.911   8.880   4.893 -0.4123 -0.8356  0.3557
  212MOL0     C27898  -1.785   8.913   4.941 -0.5664 -0.9509  0.1784
  212MOL0     O27899  -1.688   9.065   5.335 -1.0420 -0.2730  0.6874
  212MOL0     C27900  -1.475   9.249   5.329  0.0882  1.0386  0.4267
  212MOL0     C27901  -1.348   9.300   5.335 -0.3722  0.0472  0.4232
  212MOL0     N27902  -0.928   9.829   4.891  0.2851 -0.2147 -0.1571
  212MOL0     N27903  -0.825   9.829   4.819  0.2991  0.4268 -0.1880
  212MOL0     C27904   0.202   9.383   4.647  0.6817 -0.1875 -0.1264
  212MOL0     C27905   0.324   9.446   4.630  0.9591 -0.0552 -0.0863
  212MOL0     C27906   0.692   9.708   4.732 -1.0307  0.1315  0.1808
  212MOL0     C27907   0.772   9.726   4.845 -1.0165 -0.4569 -0.5971
  212MOL0     C27908   0.896   9.789   4.837 -0.2798  0.2929 -0.8044
  212MOL0     C27909   0.956   9.817   4.713  0.2498  0.4493  0.5205
  212MOL0     O27910   1.079   9.855   4.697  0.1139 -0.9508  0.1033
  212MOL0     C27911   1.121   9.982   4.751  0.4870  1.3376  1.4854
  212MOL0     C27912   1.273  10.005   4.709  0.1162 -0.0075 -0.1804
  212MOL0     C27913   1.266  10.080   4.577 -0.0273 -0.2484  0.1403
  212MOL0     C27914   1.398  10.087   4.494 -0.7753  0.6654  0.1681
  212MOL0     C27915   1.517  10.117   4.573 -0.2075 -0.4145  0.1845
  212MOL0     C27916   1.611  10.132   4.647 -0.6213  0.2743 -0.4104
  212MOL0     C27917   0.877   9.794   4.599  0.7515 -0.5816 -0.6712
  212MOL0     C27918   0.743   9.750   4.611  0.5562  1.1210  0.1748
  212MOL0     H27919   0.236   9.760   4.716  2.8905  0.1318  0.1675
  212MOL0     H27920   0.025   9.656   4.736 -0.4561 -0.8453 -2.6605
  212MOL0     H27921  -0.034   9.219   4.711  3.2323  0.6821 -0.8081
  212MOL0     H27922  -0.034   9.278   4.549 -0.4378 -3.1734 -0.6409
  212MOL0     H27923  -0.259   9.181   4.588 -3.0842 -1.1744  2.7776
  212MOL0     H27924  -0.260   9.355   4.576  3.6426 -1.0438 -1.9364
  212MOL0     H27925  -0.261   9.352   4.839 -0.6005 -0.2930 -0.8292
  212MOL0     H27926  -0.251   9.179   4.844 -1.2096  0.6886  1.2679
  212MOL0     H27927  -0.454   9.159   4.704  0.1165 -0.2095  0.5916
  212MOL0     H27928  -0.486   9.232   4.856  0.1597  1.7920  1.0050
  212MOL0     H27929  -0.616   9.353   4.719  0.4327 -0.8557 -1.2675
  212MOL0     H27930  -0.491   9.377   4.591  3.4629  2.1750 -0.5795
  212MOL0     H27931  -0.424   9.576   4.685  1.1849  3.0519  2.0671
  212MOL0     H27932  -0.444   9.504   4.844  2.2461  0.4355 -1.7024
  212MOL0     H27933  -0.690   9.604   4.691 -0.3227  0.1296  0.3259
  212MOL0     H27934  -0.682   9.541   4.856  1.1813  0.9915  0.8905
  212MOL0     H27935  -0.545   9.794   4.770  4.2968 -2.1768  0.1118
  212MOL0     H27936  -0.514   9.717   4.924 -1.5159  3.3330  1.9313
  212MOL0     H27937  -0.728   9.730   5.117 -0.5979 -1.3023  0.0497
  212MOL0     H27938  -1.085   9.836   5.113  0.2358  0.8440 -1.7234
  212MOL0     H27939  -0.957   9.790   5.222  1.7288 -2.4249  0.2001
  212MOL0     H27940  -1.154   9.618   5.074  0.7960  1.1144 -0.8482
  212MOL0     H27941  -1.107   9.630   5.236 -2.0193  1.1530 -0.1320
  212MOL0     H27942  -0.929   9.507   5.018 -1.7316 -0.9429  0.1802
  212MOL0     H27943  -0.904   9.492   5.191 -0.1842  1.1225  0.4514
  212MOL0     H27944  -1.011   9.288   5.089  0.4871 -0.1186 -1.7195
  212MOL0     H27945  -1.143   9.390   5.029 -4.9839  0.3980  3.5636
  212MOL0     H27946  -1.204   9.153   5.062 -0.3286  1.0848  0.6743
  212MOL0     H27947  -1.416   9.057   5.050  0.0968  0.7721 -0.7439
  212MOL0     H27948  -1.861   8.980   5.250  1.7691 -0.3374 -0.1377
  212MOL0     H27949  -2.095   8.933   5.167 -3.7523  1.0156 -4.5996
  212MOL0     H27950  -2.120   8.778   4.751  0.1348  0.4083 -0.5087
  212MOL0     H27951  -2.166   8.947   4.757  0.6916 -1.0325 -3.2543
  212MOL0     H27952  -2.366   8.726   4.777 -3.1106  0.6741 -1.6334
  212MOL0     H27953  -2.341   8.848   4.650 -0.7625  2.8556  0.0376
  212MOL0     H27954  -2.403   9.015   4.827  1.4004  0.1763  0.8499
  212MOL0     H27955  -2.467   8.864   4.913  0.4163 -0.2274 -1.6624
  212MOL0     H27956  -2.552   8.980   4.647 -0.5546  0.2209  0.4711
  212MOL0     H27957  -2.596   8.828   4.671 -0.9678  0.9620 -1.2334
  212MOL0     H27958  -2.638   9.041   4.885  3.0029 -1.9195  0.0842
  212MOL0     H27959  -2.741   8.904   4.879 -1.3397  0.6888 -0.0404
  212MOL0     H27960  -2.857   8.965   4.696  0.3833 -0.9140  0.2022
  212MOL0     H27961  -2.744   9.099   4.649 -1.4399  1.6232 -0.1469
  212MOL0     H27962  -2.918   9.131   4.903  2.3906 -1.1648  0.8612
  212MOL0     H27963  -2.806   9.236   4.811 -0.4156 -0.2364  2.3304
  212MOL0     H27964  -3.073   9.131   4.722 -2.1669  2.5401  1.6100
  212MOL0     H27965  -2.960   9.206   4.607  1.9698  1.4760  1.1435
  212MOL0     H27966  -1.925   8.862   4.787  0.7353 -1.0881  0.2389
  212MOL0     H27967  -1.696   8.931   4.882  0.8307  2.1418  2.9521
  212MOL0     H27968  -1.551   9.270   5.405 -2.7909 -1.4466 -1.5430
  212MOL0     H27969  -1.335   9.383   5.405  0.5906 -1.9616  2.7672
  212MOL0     H27970   0.208   9.276   4.625  1.2227 -0.2002  0.0695
  212MOL0     H27971   0.417   9.395   4.607  2.1837  2.0630 -0.0500
  212MOL0     H27972   0.729   9.701   4.942  1.1969 -0.7063  0.3800
  212MOL0     H27973   0.956   9.811   4.925 -1.2406  0.5852 -0.2126
  212MOL0     H27974   1.128   9.959   4.858 -0.8466  2.2644  1.7896
  212MOL0     H27975   1.044  10.055   4.729  1.0487  1.2296 -1.2299
  212MOL0     H27976   1.323  10.074   4.777  1.3569 -0.7196 -0.3360
  212MOL0     H27977   1.331   9.913   4.721 -1.1875 -0.4632  4.2436
  212MOL0     H27978   1.231  10.180   4.605 -0.3174 -0.7080  1.4935
  212MOL0     H27979   1.198  10.031   4.507  1.9153 -0.5225 -1.6567
  212MOL0     H27980   1.418   9.994   4.439 -0.1811 -0.6088  2.4146
  212MOL0     H27981   1.396  10.174   4.428  0.3610 -0.0278 -0.8441
  212MOL0     H27982   1.697  10.112   4.708  0.8214 -2.4287 -3.0793
  212MOL0     H27983   0.924   9.804   4.501 -0.5400 -1.6510 -1.4280
  212MOL0     H27984   0.679   9.757   4.523  0.4017  2.3842  0.3695
  213MOL0     O27985   2.329   8.096   6.640  0.2724  0.3734 -0.6224
  213MOL0     C27986   2.268   8.063   6.541 -0.4963 -0.1758 -0.7260
  213MOL0     O27987   2.314   8.083   6.415  0.1395 -0.9955  0.2211
  213MOL0     C27988   2.442   8.131   6.396  0.0380 -0.3676  0.5582
  213MOL0     C27989   2.550   8.050   6.407 -0.4899 -0.1451  0.9068
  213MOL0     C27990   2.684   8.107   6.377 -0.2124  0.6918  0.5355
  213MOL0     C27991   2.695   8.235   6.327 -0.2959 -0.1555  0.4022
  213MOL0     O27992   2.825   8.269   6.303 -0.3247 -0.6470  0.2004
  213MOL0     C27993   2.857   8.412   6.292  0.0090 -0.2838 -0.2818
  213MOL0     C27994   2.998   8.447   6.260  0.2322 -0.3959  0.2350
  213MOL0     C27995   3.029   8.593   6.274 -0.0200  0.1909 -0.1807
  213MOL0     C27996   3.173   8.623   6.234  0.5871 -0.1651 -0.4278
  213MOL0     C27997   3.216   8.772   6.262 -0.6694 -0.3115  0.2737
  213MOL0     C27998   3.351   8.812   6.199  0.0309  0.7807 -1.0834
  213MOL0     C27999   3.470   8.756   6.269 -0.6641 -0.4508  0.1473
  213MOL0     C28000   3.602   8.790   6.207  0.0281  0.0560 -0.1765
  213MOL0     N28001   3.632   8.928   6.226 -0.6320  0.0112 -0.6080
  213MOL0     C28002   3.588   9.033   6.155 -0.6621 -0.0649  0.6773
  213MOL0     C28003   3.660   9.143   6.199 -0.2340  0.2271  0.2793
  213MOL0     C28004   3.646   9.281   6.142 -0.0037  0.0932 -0.4136
  213MOL0     C28005   3.691   9.285   6.001 -0.2501 -0.4342  0.9796
  213MOL0     C28006   3.703   9.439   5.953 -0.5438 -0.8220 -0.0079
  213MOL0     C28007   3.573   9.492   5.887 -0.7326 -0.1175 -0.2601
  213MOL0     O28008   3.537   9.430   5.765 -0.6072  0.0219 -0.0465
  213MOL0     C28009   3.406   9.411   5.740  0.8756 -0.3469 -0.5198
  213MOL0     C28010   3.364   9.296   5.681  0.5916 -0.7335  0.7068
  213MOL0     C28011   3.227   9.265   5.670 -0.7516  0.3035 -0.5333
  213MOL0     C28012   3.129   9.361   5.715  0.2158 -0.7044  0.2554
  213MOL0     C28013   2.984   9.312   5.700  1.1842  0.0333 -0.2637
  213MOL0     O28014   2.959   9.194   5.631 -0.2405 -0.1195 -0.0106
  213MOL0     C28015   2.831   9.133   5.619  0.5188 -0.4814  0.2156
  213MOL0     C28016   2.706   9.205   5.628 -0.1323 -0.5832  0.0517
  213MOL0     C28017   2.581   9.139   5.629  0.1356 -0.1131  0.3004
  213MOL0     C28018   2.578   8.999   5.644  0.6459  0.3873 -0.1549
  213MOL0     O28019   2.468   8.921   5.647 -0.2545  0.3045  0.1503
  213MOL0     C28020   2.368   8.962   5.740  0.5529 -0.2556  1.3135
  213MOL0     C28021   2.267   8.850   5.778 -0.3392  1.0085  0.1977
  213MOL0     C28022   2.176   8.797   5.665 -0.6183  0.6274 -0.2338
  213MOL0     C28023   2.086   8.687   5.732 -0.4889  0.1347 -0.2493
  213MOL0     C28024   1.996   8.640   5.618 -0.7682 -0.3688  0.0600
  213MOL0     C28025   1.887   8.543   5.648  0.2834 -0.2884  0.3821
  213MOL0     C28026   1.820   8.492   5.526 -0.6880 -0.0106  0.0510
  213MOL0     C28027   1.678   8.426   5.536 -0.6576  0.4041  0.0960
  213MOL0    Cl28028   1.560   8.531   5.612 -0.0670 -0.0159 -0.0799
  213MOL0     C28029   2.698   8.934   5.637  0.4498  0.9934 -0.6003
  213MOL0     C28030   2.824   8.998   5.621 -0.0314 -1.1499 -0.5240
  213MOL0     O28031   2.898   9.376   5.750 -0.0535 -0.7893 -0.3144
  213MOL0     C28032   3.173   9.486   5.766  0.1708  0.6335 -0.5506
  213MOL0     C28033   3.312   9.508   5.777  0.4623  0.1897  0.0483
  213MOL0     N28034   3.736   9.103   6.310  0.2413  0.0066  0.9701
  213MOL0     N28035   3.718   8.976   6.328  0.7836  0.0544 -0.0368
  213MOL0     C28036   2.580   8.318   6.318  0.4749  0.2536  0.6411
  213MOL0     C28037   2.465   8.261   6.352  0.4525 -0.4190  0.0736
  213MOL0     C28038   2.133   8.011   6.563  0.4770  0.6837 -0.2310
  213MOL0     C28039   2.093   7.968   6.689  0.4732  0.6711 -0.7858
  213MOL0     C28040   1.959   7.935   6.719  0.5204  0.3267 -0.1420
  213MOL0     C28041   1.860   7.935   6.620 -0.0313 -0.1487  0.0693
  213MOL0     O28042   1.731   7.915   6.646 -0.1834  0.1574 -1.0135
  213MOL0     C28043   1.637   8.024   6.615 -0.8935  1.0735  0.0245
  213MOL0     C28044   1.498   7.997   6.678  0.2478  0.2991 -0.4859
  213MOL0     C28045   1.429   7.856   6.659  0.3436 -0.5731  0.3566
  213MOL0     C28046   1.274   7.866   6.659 -0.1649  0.1759 -0.9725
  213MOL0     C28047   1.218   7.953   6.767  0.1776  0.0565 -0.0880
  213MOL0     C28048   1.171   8.031   6.845 -0.6426 -0.4844  0.0780
  213MOL0     C28049   1.905   7.976   6.488 -0.6719 -0.0946 -0.3986
  213MOL0     C28050   2.036   8.009   6.466 -0.0185  0.3436  0.6117
  213MOL0     H28051   2.548   7.946   6.439  3.3142  0.1700  2.8979
  213MOL0     H28052   2.763   8.034   6.394 -0.1721  0.9584  1.5273
  213MOL0     H28053   2.828   8.480   6.374 -0.3671 -0.1003 -0.5604
  213MOL0     H28054   2.799   8.450   6.207 -0.2956  0.0892  0.0842
  213MOL0     H28055   3.020   8.412   6.159 -1.1708  0.9102 -0.5582
  213MOL0     H28056   3.067   8.407   6.335  0.3028  3.4763  2.5030
  213MOL0     H28057   3.020   8.610   6.382  2.9100  0.1000  0.1833
  213MOL0     H28058   2.954   8.650   6.219 -0.0163 -0.2998 -0.6949
  213MOL0     H28059   3.230   8.545   6.286 -0.6662  0.4010  1.9369
  213MOL0     H28060   3.180   8.600   6.127 -3.5539 -0.7741 -0.7214
  213MOL0     H28061   3.219   8.795   6.369  0.1731  0.9758  0.0002
  213MOL0     H28062   3.139   8.834   6.214 -1.5259 -0.6609  1.1547
  213MOL0     H28063   3.352   8.921   6.201 -0.3259  0.8143  1.6417
  213MOL0     H28064   3.368   8.776   6.097  2.8737 -0.4200 -0.2856
  213MOL0     H28065   3.471   8.788   6.374 -5.4843  0.1670  0.2118
  213MOL0     H28066   3.462   8.647   6.275 -0.9589 -0.3624  2.2549
  213MOL0     H28067   3.604   8.771   6.099 -0.4105 -0.6000 -0.0765
  213MOL0     H28068   3.676   8.733   6.264  0.3584  0.5647 -0.0873
  213MOL0     H28069   3.518   9.028   6.072  0.1304  2.7226 -0.2648
  213MOL0     H28070   3.720   9.339   6.197  3.1020 -1.7020 -2.4262
  213MOL0     H28071   3.542   9.311   6.158  0.0380 -0.8668  2.2367
  213MOL0     H28072   3.614   9.226   5.950  0.0013  0.6456 -0.7452
  213MOL0     H28073   3.787   9.234   6.012 -1.0491 -1.5733  3.3777
  213MOL0     H28074   3.725   9.504   6.037  3.5651  1.2296 -2.3643
  213MOL0     H28075   3.788   9.447   5.884 -2.0186 -0.2018 -1.8468
  213MOL0     H28076   3.575   9.602   5.879  1.9400  0.0867  1.6106
  213MOL0     H28077   3.502   9.488   5.970 -1.4400  1.4797 -0.7440
  213MOL0     H28078   3.441   9.229   5.646 -2.4855 -3.1314 -2.1571
  213MOL0     H28079   3.213   9.172   5.616  3.2244 -0.3597 -0.7477
  213MOL0     H28080   2.709   9.312   5.614  0.5055 -0.7183 -1.0799
  213MOL0     H28081   2.495   9.206   5.626 -0.2228 -0.5784 -0.3100
  213MOL0     H28082   2.306   9.042   5.699 -0.8213 -0.9803  1.8716
  213MOL0     H28083   2.418   8.995   5.831 -1.8203  0.0314  2.5989
  213MOL0     H28084   2.204   8.893   5.857 -0.3777  0.8212  0.2688
  213MOL0     H28085   2.328   8.769   5.819 -1.5610 -1.5121 -2.5832
  213MOL0     H28086   2.239   8.761   5.584  0.8102  2.3959  0.0284
  213MOL0     H28087   2.111   8.878   5.630 -0.3942  2.5930  3.3647
  213MOL0     H28088   2.144   8.599   5.763  1.1958  2.0267  2.4655
  213MOL0     H28089   2.029   8.723   5.819  3.3577  0.9526  2.2067
  213MOL0     H28090   2.072   8.604   5.548 -0.1394  0.4399  0.3048
  213MOL0     H28091   1.938   8.719   5.571  0.7473  0.7968  0.0533
  213MOL0     H28092   1.815   8.586   5.720 -1.1188  2.3764 -2.3809
  213MOL0     H28093   1.925   8.456   5.702 -3.1509 -0.9746  2.0136
  213MOL0     H28094   1.806   8.568   5.449 -0.7060 -0.1335 -0.0678
  213MOL0     H28095   1.891   8.416   5.492 -0.9718 -0.0855 -0.3783
  213MOL0     H28096   1.686   8.336   5.597  1.3762  1.5550  1.6400
  213MOL0     H28097   1.640   8.395   5.438 -1.4084 -1.5652  0.9563
  213MOL0     H28098   2.693   8.827   5.655  0.3198  1.4865  2.9811
  213MOL0     H28099   2.917   8.942   5.610  1.6350  1.4759 -0.6385
  213MOL0     H28100   3.102   9.558   5.805 -2.6396 -2.5735  0.8262
  213MOL0     H28101   3.337   9.607   5.816  2.4249 -0.2419 -0.0207
  213MOL0     H28102   2.583   8.419   6.277  1.6957 -0.9848 -2.6836
  213MOL0     H28103   2.375   8.321   6.353 -0.1890 -1.3617  0.1542
  213MOL0     H28104   2.163   7.958   6.772 -1.3666  0.6969  0.8630
  213MOL0     H28105   1.925   7.898   6.815 -1.2201 -3.2041 -1.8802
  213MOL0     H28106   1.615   8.019   6.508 -1.7568 -0.7676  0.2553
  213MOL0     H28107   1.684   8.119   6.643  3.1656 -1.1711  1.5673
  213MOL0     H28108   1.506   8.031   6.782 -1.7872  1.3716 -0.6378
  213MOL0     H28109   1.428   8.066   6.632 -1.7386 -1.6338 -0.5515
  213MOL0     H28110   1.461   7.790   6.741 -2.8723  0.9214  3.0825
  213MOL0     H28111   1.464   7.817   6.564 -0.3984  1.6008 -0.8749
  213MOL0     H28112   1.225   7.920   6.578 -0.1213  0.4080 -0.8446
  213MOL0     H28113   1.234   7.765   6.671  1.9595 -0.5720  0.3850
  213MOL0     H28114   1.126   8.102   6.911  0.7221 -1.3977  2.0873
  213MOL0     H28115   1.839   7.993   6.403  2.7119 -0.7734 -3.4521
  213MOL0     H28116   2.055   8.043   6.364  0.5180  0.0978  0.6233
  214MOL0     O28117   4.017   1.652   0.628 -0.1364  0.5607  0.4969
  214MOL0     C28118   4.067   1.679   0.524 -0.0756  0.1332 -0.2320
  214MOL0     O28119   4.019   1.653   0.401  0.5176 -0.2428  0.3366
  214MOL0     C28120   3.883   1.639   0.379  0.2387  0.2714  0.1231
  214MOL0     C28121   3.795   1.734   0.443 -0.3288  0.6857 -0.6983
  214MOL0     C28122   3.655   1.718   0.416  0.3882 -0.0822 -0.0394
  214MOL0     C28123   3.599   1.639   0.315  0.2691 -0.2161  0.0206
  214MOL0     O28124   3.464   1.632   0.311  0.6264  0.3533  0.3439
  214MOL0     C28125   3.400   1.521   0.246 -0.0719 -0.7752  0.3989
  214MOL0     C28126   3.258   1.526   0.308  0.1493 -0.9298 -0.5558
  214MOL0     C28127   3.175   1.633   0.234 -0.1388 -0.4343  0.1199
  214MOL0     C28128   3.030   1.660   0.292 -0.4851 -0.0478 -0.0686
  214MOL0     C28129   2.956   1.783   0.248 -1.0365  0.2417  0.5433
  214MOL0     C28130   2.817   1.801   0.313 -0.0102 -0.0825  0.4443
  214MOL0     C28131   2.709   1.738   0.230 -0.0468  1.6063 -0.3556
  214MOL0     C28132   2.653   1.836   0.130  1.2144  0.0115  0.8731
  214MOL0     N28133   2.521   1.788   0.073 -0.7289 -0.0107 -0.2404
  214MOL0     C28134   2.500   1.668   0.003 -1.0823 -0.0466  0.5771
  214MOL0     C28135   2.363   1.668  -0.005 -0.3777  0.2292 -0.4483
  214MOL0     C28136   2.282   1.550  -0.043  0.9326 -0.4020 -0.9513
  214MOL0     C28137   2.305   1.540  -0.191 -0.3580 -0.3115  0.4737
  214MOL0     C28138   2.248   1.422  -0.262  0.0789  0.3343 -0.5472
  214MOL0     C28139   2.100   1.441  -0.283  0.3882  0.0485  0.9507
  214MOL0     O28140   2.067   1.544  -0.378 -0.3904 -0.2066  0.2053
  214MOL0     C28141   1.940   1.582  -0.386 -0.5160  0.7756  0.3067
  214MOL0     C28142   1.925   1.688  -0.473  0.0055 -0.1633 -0.9729
  214MOL0     C28143   1.795   1.742  -0.501  0.1552 -0.5357  1.0000
  214MOL0     C28144   1.681   1.691  -0.437  0.6197 -0.2856 -0.4407
  214MOL0     C28145   1.541   1.742  -0.462 -0.8275  0.5304  0.2861
  214MOL0     O28146   1.446   1.666  -0.409  0.0928 -0.0056  0.1613
  214MOL0     C28147   1.316   1.712  -0.446 -0.0460  0.5641 -0.1007
  214MOL0     C28148   1.253   1.667  -0.555 -0.1018 -0.6964  0.4462
  214MOL0     C28149   1.121   1.708  -0.587 -0.2810  1.2135 -0.0786
  214MOL0     C28150   1.051   1.787  -0.492 -0.0018  0.0525 -0.2249
  214MOL0     O28151   0.916   1.828  -0.502  0.0536 -0.4408  0.0102
  214MOL0     C28152   0.840   1.757  -0.609  0.3019 -0.2729 -1.0174
  214MOL0     C28153   0.697   1.805  -0.630  0.1869 -0.0115  0.2841
  214MOL0     C28154   0.707   1.955  -0.681 -0.5035 -0.0945 -0.1561
  214MOL0     C28155   0.586   1.994  -0.782 -0.5157 -0.2609 -0.9590
  214MOL0     C28156   0.604   2.128  -0.841 -0.6372 -1.2320  0.5811
  214MOL0     C28157   0.601   2.229  -0.729  0.4031  0.2963 -0.3361
  214MOL0     C28158   0.535   2.362  -0.778 -0.4021 -0.4864 -1.6734
  214MOL0     C28159   0.594   2.472  -0.686  0.5719 -0.1458  0.0966
  214MOL0    Cl28160   0.502   2.633  -0.689 -0.2214 -0.0786  0.4427
  214MOL0     C28161   1.109   1.819  -0.375 -0.5491  0.5028  0.0356
  214MOL0     C28162   1.245   1.775  -0.352  0.2004 -0.7289 -0.1858
  214MOL0     O28163   1.521   1.843  -0.519 -0.0086 -0.2994  0.4227
  214MOL0     C28164   1.699   1.585  -0.349  0.5352  0.1449  0.0708
  214MOL0     C28165   1.826   1.538  -0.323 -0.5695  0.1101  0.7248
  214MOL0     N28166   2.309   1.782   0.049 -0.6376 -0.8275 -0.3543
  214MOL0     N28167   2.405   1.856   0.096 -0.1705  0.4315 -0.7595
  214MOL0     C28168   3.686   1.567   0.237 -0.3484  0.5115 -1.4773
  214MOL0     C28169   3.835   1.569   0.269 -0.3841  0.0043  0.3728
  214MOL0     C28170   4.197   1.737   0.528  0.4979 -0.6993  0.2380
  214MOL0     C28171   4.267   1.781   0.411  0.4255 -0.0269  0.0968
  214MOL0     C28172   4.398   1.833   0.413  0.3711 -0.3705  0.9143
  214MOL0     C28173   4.467   1.850   0.532  0.2116  0.3572 -0.1269
  214MOL0     O28174   4.595   1.901   0.531  0.6232 -0.3181  0.5184
  214MOL0     C28175   4.665   1.927   0.647 -0.1496 -0.8191 -0.1092
  214MOL0     C28176   4.808   1.983   0.609  0.6154  0.2603 -0.6027
  214MOL0     C28177   4.871   1.909   0.486 -0.2469 -0.4834 -0.1292
  214MOL0     C28178   4.997   1.980   0.434 -0.5429 -0.0036  0.5662
  214MOL0     C28179   5.113   1.952   0.526 -0.0227  0.2766  0.8564
  214MOL0     C28180   5.196   1.921   0.607 -0.8924  0.1546 -1.1286
  214MOL0     C28181   4.397   1.813   0.645 -0.1300  0.2812 -0.4721
  214MOL0     C28182   4.268   1.750   0.644 -0.7594 -0.3635 -0.5235
  214MOL0     H28183   3.827   1.817   0.505 -1.6308  0.6049  0.1139
  214MOL0     H28184   3.596   1.793   0.467  0.9316  1.1101 -1.1280
  214MOL0     H28185   3.448   1.426   0.270  0.4463 -1.4337 -2.8318
  214MOL0     H28186   3.396   1.523   0.137  0.7369  0.0113  0.3774
  214MOL0     H28187   3.277   1.550   0.413 -2.7016  1.4769 -0.4647
  214MOL0     H28188   3.203   1.432   0.307  0.1153 -0.9100 -0.5904
  214MOL0     H28189   3.152   1.613   0.129  0.6488  3.3089 -0.9047
  214MOL0     H28190   3.226   1.729   0.227 -1.0920  0.0085 -1.0311
  214MOL0     H28191   2.982   1.564   0.266  0.9871 -0.2402 -2.4180
  214MOL0     H28192   3.042   1.673   0.400  3.3439  2.2029 -0.5945
  214MOL0     H28193   2.954   1.796   0.140 -1.4418  3.4629  0.8403
  214MOL0     H28194   3.013   1.869   0.283 -0.5063 -0.0938  0.5124
  214MOL0     H28195   2.791   1.906   0.332  1.7765  0.5546 -0.3938
  214MOL0     H28196   2.824   1.757   0.413  0.7621  1.1935  0.9855
  214MOL0     H28197   2.749   1.654   0.173  0.6281  2.4088 -1.0830
  214MOL0     H28198   2.626   1.711   0.296 -2.6522  0.2835 -3.8668
  214MOL0     H28199   2.727   1.848   0.050  3.1768  2.3580  2.8906
  214MOL0     H28200   2.634   1.930   0.182 -0.5222 -0.8032  1.7873
  214MOL0     H28201   2.574   1.593  -0.023 -0.4355  0.9718 -0.6474
  214MOL0     H28202   2.178   1.574  -0.022  1.1387  1.3230 -1.7352
  214MOL0     H28203   2.310   1.462   0.016 -0.5807  1.8043  3.5778
  214MOL0     H28204   2.413   1.524  -0.189 -0.4547 -0.9726  0.4733
  214MOL0     H28205   2.285   1.631  -0.248 -1.1548 -1.1276 -0.5749
  214MOL0     H28206   2.289   1.412  -0.363 -2.6406 -4.7330 -1.5394
  214MOL0     H28207   2.261   1.328  -0.207  0.8431  0.3768 -0.6546
  214MOL0     H28208   2.046   1.458  -0.189  0.3011  1.7351  0.6379
  214MOL0     H28209   2.076   1.338  -0.309 -1.1836  0.0545  2.2169
  214MOL0     H28210   2.015   1.727  -0.520  0.4647 -0.6182 -0.4853
  214MOL0     H28211   1.785   1.826  -0.569 -3.3627 -0.3629  1.5312
  214MOL0     H28212   1.309   1.597  -0.616  0.1983 -0.5510  0.5539
  214MOL0     H28213   1.084   1.668  -0.681  0.6671  0.7427 -0.2738
  214MOL0     H28214   0.848   1.652  -0.579  3.8426  0.6889  2.2633
  214MOL0     H28215   0.892   1.765  -0.705 -2.3804  0.5487 -2.5054
  214MOL0     H28216   0.637   1.792  -0.539  3.7517  1.9450  3.1706
  214MOL0     H28217   0.660   1.746  -0.714 -1.3828 -0.4908  1.2712
  214MOL0     H28218   0.802   1.965  -0.735  2.9510 -1.5127  4.8798
  214MOL0     H28219   0.727   2.030  -0.604  1.2461  0.0066 -0.6576
  214MOL0     H28220   0.576   1.932  -0.872 -1.3169  0.5742 -1.4755
  214MOL0     H28221   0.491   1.974  -0.731 -1.0915 -1.5374 -2.4367
  214MOL0     H28222   0.530   2.146  -0.920  1.7616 -1.3918 -1.8702
  214MOL0     H28223   0.701   2.144  -0.889 -1.3830  0.6576 -0.4567
  214MOL0     H28224   0.694   2.246  -0.674 -0.3988 -0.9280  1.5152
  214MOL0     H28225   0.536   2.193  -0.648 -0.1910  0.8747 -0.5480
  214MOL0     H28226   0.542   2.399  -0.881  1.0320  2.3359 -0.6760
  214MOL0     H28227   0.428   2.351  -0.757  0.2496 -3.3977  0.7500
  214MOL0     H28228   0.696   2.495  -0.716  0.5849 -0.1552  0.1338
  214MOL0     H28229   0.585   2.438  -0.582 -2.3543  1.7230  0.5773
  214MOL0     H28230   1.064   1.871  -0.291  1.0020  0.3849  0.9673
  214MOL0     H28231   1.284   1.792  -0.252 -2.4292 -3.9606  1.5981
  214MOL0     H28232   1.609   1.542  -0.305 -1.2784 -0.6768 -3.9412
  214MOL0     H28233   1.839   1.461  -0.247  3.0125 -0.3825 -0.1902
  214MOL0     H28234   3.639   1.513   0.155 -2.6294  2.6403 -1.6609
  214MOL0     H28235   3.912   1.529   0.204 -0.3227 -3.4638  2.3177
  214MOL0     H28236   4.225   1.757   0.314  1.8396 -3.0408  0.1119
  214MOL0     H28237   4.448   1.866   0.323 -2.0463 -2.4769 -1.3367
  214MOL0     H28238   4.681   1.832   0.698  0.3040 -1.7543 -1.8941
  214MOL0     H28239   4.621   1.998   0.717 -1.6246 -0.8381 -0.9800
  214MOL0     H28240   4.794   2.082   0.565 -3.9016 -1.4473 -3.7698
  214MOL0     H28241   4.874   1.978   0.696 -0.3230  2.9649  0.3535
  214MOL0     H28242   4.795   1.888   0.410 -1.6310 -0.6379  1.2405
  214MOL0     H28243   4.910   1.815   0.528  5.0418  2.4257  2.5058
  214MOL0     H28244   5.019   1.955   0.329 -1.7653  0.1281  0.2644
  214MOL0     H28245   4.974   2.087   0.428 -1.2585 -0.2378 -2.5045
  214MOL0     H28246   5.268   1.898   0.683  0.4259 -1.9077 -2.8680
  214MOL0     H28247   4.445   1.824   0.742 -3.0978 -0.7085  1.2448
  214MOL0     H28248   4.223   1.726   0.739  0.3745  0.9362  0.3817
  215MOL0     O28249   8.784   2.868   7.489 -0.3212 -0.5542  1.1743
  215MOL0     C28250   8.891   2.829   7.446  0.6981  0.1559  0.0235
  215MOL0     O28251   8.910   2.708   7.368  0.5570 -0.8218 -0.3318
  215MOL0     C28252   8.801   2.626   7.359  0.0840 -1.0408  0.2091
  215MOL0     C28253   8.761   2.588   7.230  0.3043  0.7717 -0.2430
  215MOL0     C28254   8.674   2.473   7.212  0.9232 -0.3844 -0.7908
  215MOL0     C28255   8.614   2.422   7.331 -0.6547 -0.1210 -0.2586
  215MOL0     O28256   8.524   2.318   7.309 -0.7282  0.0094  0.3527
  215MOL0     C28257   8.418   2.327   7.216  0.0061  0.8794  0.2461
  215MOL0     C28258   8.352   2.188   7.220  0.6406 -0.0238 -0.6808
  215MOL0     C28259   8.207   2.195   7.177  0.7714  0.1848  0.4160
  215MOL0     C28260   8.195   2.206   7.026  0.4374  0.5458 -0.2952
  215MOL0     C28261   8.054   2.198   6.967  0.5808  0.0313  0.7763
  215MOL0     C28262   8.039   2.130   6.834 -0.1828  0.2994  0.2649
  215MOL0     C28263   8.129   2.187   6.732 -0.1022  0.1766 -0.5937
  215MOL0     C28264   8.102   2.150   6.584  0.4228  0.2134 -0.1312
  215MOL0     N28265   7.998   2.228   6.524  0.0631 -1.3110 -0.4482
  215MOL0     C28266   7.866   2.200   6.540  0.0867  0.1098  0.4725
  215MOL0     C28267   7.806   2.298   6.475  0.5616 -0.1971  0.8638
  215MOL0     C28268   7.653   2.320   6.461  0.3380 -0.1839  0.2067
  215MOL0     C28269   7.565   2.201   6.499  0.1386 -0.0317 -0.6270
  215MOL0     C28270   7.416   2.229   6.452 -0.5798  0.2873 -0.4579
  215MOL0     C28271   7.314   2.121   6.477 -0.0009  0.8064 -0.9856
  215MOL0     O28272   7.181   2.178   6.461 -0.0145  0.4009  0.1556
  215MOL0     C28273   7.070   2.096   6.454  0.6509 -0.6209 -0.3868
  215MOL0     C28274   7.086   1.961   6.494 -0.2373 -0.3029 -0.0203
  215MOL0     C28275   6.977   1.880   6.494  0.3532 -0.0030 -0.9462
  215MOL0     C28276   6.844   1.922   6.470  0.8173  0.1178 -0.2105
  215MOL0     C28277   6.735   1.821   6.467  0.3583  0.1531  0.5286
  215MOL0     O28278   6.768   1.697   6.414  0.1167 -0.5099 -0.4017
  215MOL0     C28279   6.668   1.605   6.402  0.1379 -0.4091  0.7922
  215MOL0     C28280   6.659   1.544   6.274  0.1193 -0.2729  0.0191
  215MOL0     C28281   6.563   1.442   6.246 -1.0691 -0.4630  0.2512
  215MOL0     C28282   6.471   1.401   6.343  0.1512 -0.3354 -0.3014
  215MOL0     O28283   6.368   1.320   6.305  0.2351 -0.3887 -0.2283
  215MOL0     C28284   6.305   1.231   6.396 -0.2347  0.2698 -0.1607
  215MOL0     C28285   6.370   1.098   6.382  0.4131  0.0232  1.2802
  215MOL0     C28286   6.292   1.010   6.473 -0.6266  0.3218  0.0316
  215MOL0     C28287   6.314   0.865   6.430  0.1379  0.0833  0.2970
  215MOL0     C28288   6.460   0.827   6.460 -0.0803  0.0654 -0.7642
  215MOL0     C28289   6.481   0.674   6.502 -0.9292  0.7377 -0.4615
  215MOL0     C28290   6.411   0.574   6.409  0.9417 -0.3504  0.1034
  215MOL0     C28291   6.425   0.425   6.446 -0.3874 -0.0428  0.2057
  215MOL0    Cl28292   6.597   0.366   6.493  0.1261  0.4634  0.3543
  215MOL0     C28293   6.482   1.465   6.469 -0.6204  0.1232  0.1328
  215MOL0     C28294   6.576   1.567   6.495  0.2317 -0.6709  0.1941
  215MOL0     O28295   6.628   1.859   6.506 -0.6181  0.8177  0.0404
  215MOL0     C28296   6.834   2.055   6.430  0.1104 -0.1628 -0.2062
  215MOL0     C28297   6.947   2.146   6.419 -0.2273 -0.7443 -0.7222
  215MOL0     N28298   7.900   2.384   6.418  0.0350 -1.0888  0.3912
  215MOL0     N28299   8.013   2.350   6.466 -0.4484 -0.1289  0.3524
  215MOL0     C28300   8.657   2.462   7.452  0.6534 -0.4079 -0.4654
  215MOL0     C28301   8.752   2.564   7.471 -0.2212  0.7287 -0.0129
  215MOL0     C28302   9.003   2.912   7.489  0.2691 -0.1605  0.5889
  215MOL0     C28303   8.987   3.027   7.564 -0.6061  0.2932  0.0277
  215MOL0     C28304   9.101   3.102   7.611 -0.0586 -0.4613 -0.6663
  215MOL0     C28305   9.234   3.066   7.585  0.0424  0.3236  0.5707
  215MOL0     O28306   9.334   3.152   7.630 -0.2928  0.6372  0.3945
  215MOL0     C28307   9.469   3.122   7.583  0.1902  0.2887 -0.0064
  215MOL0     C28308   9.500   3.149   7.436  0.5219 -0.3053  0.5345
  215MOL0     C28309   9.539   3.295   7.404 -0.2313  1.1091 -0.1501
  215MOL0     C28310   9.579   3.308   7.249 -0.3053 -0.2092  0.2255
  215MOL0     C28311   9.458   3.343   7.174  0.8841  0.1569  0.3956
  215MOL0     C28312   9.359   3.391   7.113 -0.1669 -0.0056  0.4500
  215MOL0     C28313   9.244   2.953   7.503 -0.7134 -0.2113  0.2966
  215MOL0     C28314   9.135   2.873   7.470  0.5366 -0.6481  0.3714
  215MOL0     H28315   8.799   2.638   7.141 -2.6843 -0.5908 -2.4918
  215MOL0     H28316   8.652   2.428   7.116  2.8843 -5.0897  0.6745
  215MOL0     H28317   8.459   2.343   7.116 -0.4106 -2.4934 -0.5773
  215MOL0     H28318   8.357   2.414   7.239  2.8036  2.8834  0.6070
  215MOL0     H28319   8.353   2.126   7.310 -0.0650  0.4947 -0.2981
  215MOL0     H28320   8.405   2.122   7.151 -1.7282 -1.0170 -1.6998
  215MOL0     H28321   8.165   2.286   7.221  1.0609 -0.5648  2.3545
  215MOL0     H28322   8.153   2.115   7.229  1.9390  0.9644  2.9717
  215MOL0     H28323   8.238   2.303   7.000  2.4098 -0.2209 -0.0257
  215MOL0     H28324   8.249   2.123   6.980 -1.2673 -0.6981 -0.1732
  215MOL0     H28325   8.028   2.304   6.952  1.8294 -0.0386 -3.0394
  215MOL0     H28326   7.987   2.156   7.042  0.0372 -1.9944 -0.7594
  215MOL0     H28327   7.933   2.136   6.808 -0.3570 -2.9783 -0.0831
  215MOL0     H28328   8.061   2.023   6.836 -1.9561 -0.1458 -1.5717
  215MOL0     H28329   8.126   2.296   6.739 -1.0767  0.1435 -0.4395
  215MOL0     H28330   8.230   2.163   6.765 -1.0223 -2.2468  0.6851
  215MOL0     H28331   8.078   2.044   6.572 -2.2071  0.9517 -2.6440
  215MOL0     H28332   8.196   2.166   6.530  0.6816  1.3655  0.6241
  215MOL0     H28333   7.811   2.123   6.593  0.6459  0.5653  1.7418
  215MOL0     H28334   7.629   2.363   6.363 -2.4834 -1.8295  0.0420
  215MOL0     H28335   7.624   2.406   6.523 -0.7555  0.3391 -0.9726
  215MOL0     H28336   7.579   2.186   6.606  2.5752 -1.8739 -1.1046
  215MOL0     H28337   7.600   2.113   6.445 -0.6289  0.9797 -2.9198
  215MOL0     H28338   7.374   2.313   6.509 -1.4795 -0.3826 -0.0995
  215MOL0     H28339   7.407   2.263   6.349  1.2907 -1.7163 -1.3436
  215MOL0     H28340   7.329   2.089   6.581  2.4186 -1.4794 -1.9212
  215MOL0     H28341   7.326   2.034   6.413  1.9856 -0.4369  0.9058
  215MOL0     H28342   7.185   1.919   6.508  1.3509  2.8672 -0.8737
  215MOL0     H28343   6.996   1.775   6.515 -1.2673 -0.3567 -1.0541
  215MOL0     H28344   6.732   1.570   6.197  1.8305 -0.3836  1.5246
  215MOL0     H28345   6.565   1.398   6.147 -1.6894  0.4462 -0.1762
  215MOL0     H28346   6.200   1.229   6.364 -0.3792  1.5674  0.1548
  215MOL0     H28347   6.309   1.251   6.503  1.1890  0.6708 -0.2769
  215MOL0     H28348   6.473   1.103   6.418  0.1823 -1.9793  2.3000
  215MOL0     H28349   6.361   1.061   6.279 -0.8930 -1.1207  1.7800
  215MOL0     H28350   6.184   1.021   6.487 -1.3285 -2.9073 -1.7947
  215MOL0     H28351   6.342   1.017   6.570  2.2792  1.1162 -1.4054
  215MOL0     H28352   6.242   0.801   6.483 -1.0412 -1.1845 -2.5857
  215MOL0     H28353   6.289   0.848   6.325  0.6172  0.1842  0.1638
  215MOL0     H28354   6.500   0.887   6.542 -2.6099  1.3283 -0.3643
  215MOL0     H28355   6.526   0.852   6.376  1.3832  2.7870  1.0235
  215MOL0     H28356   6.439   0.666   6.603 -2.3721 -0.7125 -1.1382
  215MOL0     H28357   6.588   0.651   6.504 -1.2575 -0.9251  0.9836
  215MOL0     H28358   6.304   0.599   6.416  1.1035 -0.0065  2.0339
  215MOL0     H28359   6.443   0.592   6.306 -1.8932  2.7938 -0.4075
  215MOL0     H28360   6.403   0.377   6.350  1.3341 -0.0690 -0.1918
  215MOL0     H28361   6.348   0.399   6.520 -1.8403 -0.5132 -1.3998
  215MOL0     H28362   6.422   1.433   6.554 -1.4546  2.1280  0.3546
  215MOL0     H28363   6.577   1.607   6.596  0.2276 -1.0706  0.3529
  215MOL0     H28364   6.736   2.102   6.424  0.3858  0.2216 -3.4341
  215MOL0     H28365   6.938   2.251   6.390 -2.5503 -1.0911 -1.4547
  215MOL0     H28366   8.615   2.406   7.535 -0.7638  1.2113 -0.0152
  215MOL0     H28367   8.778   2.600   7.570  2.0640  1.6784 -0.8982
  215MOL0     H28368   8.887   3.062   7.587 -0.0672  1.0498  1.3400
  215MOL0     H28369   9.104   3.189   7.676  0.5214 -1.0113  0.0651
  215MOL0     H28370   9.490   3.017   7.607  0.2232 -0.1669 -1.8744
  215MOL0     H28371   9.545   3.169   7.647  1.3442 -3.7591  1.9596
  215MOL0     H28372   9.584   3.082   7.415 -1.1405 -2.1261 -0.6048
  215MOL0     H28373   9.419   3.127   7.366 -0.2683 -2.3684  2.0011
  215MOL0     H28374   9.625   3.326   7.465  0.5824  0.4483 -0.9358
  215MOL0     H28375   9.459   3.365   7.430 -2.8286 -0.9821 -2.0647
  215MOL0     H28376   9.657   3.379   7.220 -0.6870  1.2305  2.4818
  215MOL0     H28377   9.626   3.217   7.210 -0.5623 -1.0487  1.8103
  215MOL0     H28378   9.276   3.427   7.055 -0.3701 -0.2717  0.5772
  215MOL0     H28379   9.337   2.908   7.468 -1.7854 -3.7492  1.5684
  215MOL0     H28380   9.148   2.778   7.419 -1.6407 -1.2869  0.8711
  216MOL0     O28381   2.491   0.240   2.851 -0.4669  0.2110 -0.3220
  216MOL0     C28382   2.540   0.318   2.930 -0.5955 -1.2808  0.5715
  216MOL0     O28383   2.477   0.397   3.011 -0.4594  0.1581 -0.8663
  216MOL0     C28384   2.340   0.400   3.005  0.1267 -0.1014  0.1944
  216MOL0     C28385   2.263   0.516   2.990 -0.3553  0.0091 -0.2888
  216MOL0     C28386   2.121   0.506   2.980  0.1493  0.3600  0.0069
  216MOL0     C28387   2.050   0.381   2.980  0.3462  0.2329 -0.8104
  216MOL0     O28388   1.915   0.369   2.974 -0.3209  0.1888  0.0458
  216MOL0     C28389   1.841   0.476   2.914 -0.1857 -0.1151 -0.5801
  216MOL0     C28390   1.693   0.454   2.919 -0.0458  0.0584 -0.5695
  216MOL0     C28391   1.623   0.547   2.816  0.1116  0.7889 -0.5538
  216MOL0     C28392   1.477   0.527   2.814  0.6267  0.1360 -0.2250
  216MOL0     C28393   1.406   0.633   2.731 -0.5403  0.9500  1.0269
  216MOL0     C28394   1.265   0.636   2.768  0.6460  0.0809 -0.4128
  216MOL0     C28395   1.177   0.669   2.650  0.1233  0.0610 -0.8273
  216MOL0     C28396   1.158   0.544   2.561  0.4837 -0.9664 -0.2707
  216MOL0     N28397   1.082   0.579   2.446  0.4542 -0.6234 -0.4291
  216MOL0     C28398   0.953   0.628   2.446 -0.7167 -0.2759 -0.4475
  216MOL0     C28399   0.912   0.624   2.312  0.5660  0.1077  0.6451
  216MOL0     C28400   0.772   0.650   2.266  0.1959  0.2408  0.2781
  216MOL0     C28401   0.694   0.521   2.270 -0.2713 -0.2234 -0.2087
  216MOL0     C28402   0.637   0.503   2.407  0.0330 -0.1366 -1.1118
  216MOL0     C28403   0.524   0.405   2.431  0.6321  1.0651 -0.1014
  216MOL0     O28404   0.569   0.269   2.408  0.6864 -0.6439  0.0971
  216MOL0     C28405   0.582   0.219   2.280  0.8346 -0.2677 -0.5260
  216MOL0     C28406   0.482   0.250   2.185  0.3901 -1.0100 -0.1096
  216MOL0     C28407   0.481   0.215   2.053  0.6921  0.4984  0.9716
  216MOL0     C28408   0.585   0.133   2.011  0.3321  0.6335  0.3418
  216MOL0     C28409   0.599   0.093   1.871  0.7365  0.8714 -0.5155
  216MOL0     O28410   0.630  -0.032   1.835 -0.2215 -0.6368 -0.9975
  216MOL0     C28411   0.646  -0.045   1.703 -0.1109  0.0817  0.5318
  216MOL0     C28412   0.761   0.007   1.634 -0.1149  1.1257 -0.2714
  216MOL0     C28413   0.774  -0.019   1.504 -0.6255 -0.0351  0.1615
  216MOL0     C28414   0.686  -0.100   1.428 -0.2439  0.0512 -0.1232
  216MOL0     O28415   0.720  -0.126   1.301 -0.2035  0.0158 -0.5901
  216MOL0     C28416   0.660  -0.026   1.209 -0.1866  0.6062 -0.3303
  216MOL0     C28417   0.728   0.113   1.208  0.4167 -0.7828  0.1877
  216MOL0     C28418   0.855   0.104   1.129 -0.1230 -0.4679  0.6114
  216MOL0     C28419   0.924   0.234   1.107 -0.2968  0.0471  0.4735
  216MOL0     C28420   1.017   0.231   0.986  0.0877  0.3815  1.0758
  216MOL0     C28421   1.043   0.370   0.926  0.2636 -0.2328 -0.0463
  216MOL0     C28422   1.136   0.377   0.814 -1.0294  0.3461  0.0965
  216MOL0     C28423   1.205   0.520   0.810 -0.6371 -0.2610 -0.4260
  216MOL0    Cl28424   1.341   0.498   0.697 -0.4287 -0.2273 -0.2275
  216MOL0     C28425   0.573  -0.158   1.494  0.3608  0.5898 -0.6253
  216MOL0     C28426   0.553  -0.124   1.634 -1.0292 -0.1735  0.3264
  216MOL0     O28427   0.558   0.180   1.796  0.0022  0.1852  0.0133
  216MOL0     C28428   0.680   0.083   2.101  0.3556 -0.2794 -0.6335
  216MOL0     C28429   0.679   0.118   2.241 -0.6498 -0.3926 -0.0250
  216MOL0     N28430   1.026   0.584   2.238  0.2731 -0.0470 -0.2559
  216MOL0     N28431   1.121   0.564   2.320  0.0521 -0.6031  0.1111
  216MOL0     C28432   2.126   0.263   3.005 -0.3840 -0.1681  0.3274
  216MOL0     C28433   2.268   0.278   3.013 -0.7027  0.2952  0.9627
  216MOL0     C28434   2.688   0.327   2.937  0.0833  0.8134  0.0520
  216MOL0     C28435   2.760   0.400   3.033 -0.1865 -0.0157  0.5867
  216MOL0     C28436   2.898   0.407   3.021  0.7714  0.1331 -0.0295
  216MOL0     C28437   2.977   0.341   2.924 -0.3908 -0.1910 -0.2489
  216MOL0     O28438   3.113   0.351   2.904 -0.0706  0.5203 -0.0373
  216MOL0     C28439   3.178   0.397   3.024 -0.2517  0.1166 -0.1647
  216MOL0     C28440   3.332   0.400   3.002  0.1724 -0.3226  0.0206
  216MOL0     C28441   3.376   0.517   2.911  0.5572  0.2564 -0.5908
  216MOL0     C28442   3.524   0.574   2.937 -1.2361  0.3116 -0.1647
  216MOL0     C28443   3.632   0.472   2.950  0.3039  0.4011  0.2634
  216MOL0     C28444   3.716   0.382   2.959 -0.6774 -0.1610 -1.0916
  216MOL0     C28445   2.899   0.254   2.837  0.2608 -0.4297  0.5371
  216MOL0     C28446   2.762   0.249   2.837  1.1100 -0.0391  0.1319
  216MOL0     H28447   2.311   0.613   2.990  0.6853 -0.4364  1.9467
  216MOL0     H28448   2.074   0.603   2.971  1.5798  0.9789 -1.2681
  216MOL0     H28449   1.872   0.473   2.809 -3.5590 -1.4116 -1.6559
  216MOL0     H28450   1.859   0.577   2.951 -1.2263 -0.0023 -0.3523
  216MOL0     H28451   1.657   0.475   3.020  1.3886 -4.1072  1.0134
  216MOL0     H28452   1.676   0.348   2.898  0.7595 -0.0627 -0.6364
  216MOL0     H28453   1.656   0.523   2.714 -2.4143 -1.8456 -0.8740
  216MOL0     H28454   1.641   0.652   2.843  0.0743  0.2400  1.8054
  216MOL0     H28455   1.451   0.429   2.774 -0.2245 -0.1855  1.0697
  216MOL0     H28456   1.434   0.528   2.914  0.3768 -3.1018 -0.2052
  216MOL0     H28457   1.421   0.607   2.626 -1.5632 -0.2924  1.1553
  216MOL0     H28458   1.450   0.732   2.744 -0.3329  1.4556 -2.4896
  216MOL0     H28459   1.248   0.705   2.851 -0.5569 -0.6691 -0.0072
  216MOL0     H28460   1.235   0.533   2.793 -1.8455 -0.3361 -4.2771
  216MOL0     H28461   1.079   0.696   2.689  0.6335  2.3629 -1.0278
  216MOL0     H28462   1.211   0.758   2.598 -0.8067  1.6675  1.1818
  216MOL0     H28463   1.102   0.465   2.611 -0.5450  0.5925  1.1587
  216MOL0     H28464   1.257   0.514   2.526  1.0870  3.3795 -3.0006
  216MOL0     H28465   0.895   0.658   2.533  1.5010  0.2270  0.9474
  216MOL0     H28466   0.786   0.688   2.164 -0.7124 -0.7030 -0.2181
  216MOL0     H28467   0.721   0.731   2.319 -1.1842  0.6869 -1.6000
  216MOL0     H28468   0.756   0.438   2.233  1.6649  0.2046  1.8611
  216MOL0     H28469   0.610   0.520   2.201  0.8743  0.6515 -1.6746
  216MOL0     H28470   0.706   0.492   2.492 -0.2161  5.0528  0.0898
  216MOL0     H28471   0.594   0.599   2.437 -0.8000 -1.1628  1.3078
  216MOL0     H28472   0.435   0.430   2.373  0.4647  1.0934  0.1655
  216MOL0     H28473   0.491   0.407   2.535 -0.7686 -1.0208 -0.4572
  216MOL0     H28474   0.394   0.303   2.221  1.0665 -0.1148  0.2552
  216MOL0     H28475   0.406   0.246   1.981 -1.3093  0.8018  3.0955
  216MOL0     H28476   0.832   0.054   1.701  1.2647 -3.1834  1.6808
  216MOL0     H28477   0.855   0.028   1.449  1.7540 -3.4869  0.3387
  216MOL0     H28478   0.551  -0.022   1.220 -0.3480  0.0581 -1.5005
  216MOL0     H28479   0.676  -0.068   1.109 -1.8348 -1.1971  0.0985
  216MOL0     H28480   0.756   0.151   1.307  0.7922  5.4300 -1.8812
  216MOL0     H28481   0.668   0.194   1.168  0.7538  0.0083  1.2219
  216MOL0     H28482   0.847   0.060   1.030  3.2684 -1.3680  0.6282
  216MOL0     H28483   0.923   0.027   1.166  0.0804 -0.4379  0.3072
  216MOL0     H28484   0.849   0.314   1.101 -0.5358 -0.2631 -0.9642
  216MOL0     H28485   0.979   0.254   1.200 -0.1306 -0.3764  0.4668
  216MOL0     H28486   0.974   0.165   0.911 -0.9877  0.0737  1.9429
  216MOL0     H28487   1.112   0.190   1.022  1.4749  2.7460  0.3417
  216MOL0     H28488   1.079   0.435   1.006 -2.0781  0.7277  0.3235
  216MOL0     H28489   0.944   0.407   0.900  0.7319  3.5131  2.6834
  216MOL0     H28490   1.205   0.298   0.843 -0.8305  0.7377  0.7137
  216MOL0     H28491   1.106   0.343   0.714  3.1284 -2.1763 -0.5428
  216MOL0     H28492   1.241   0.559   0.906  0.8928 -0.5340 -0.8688
  216MOL0     H28493   1.141   0.596   0.765 -1.0478 -2.5045 -3.9971
  216MOL0     H28494   0.501  -0.231   1.459 -0.1889  1.5376 -1.5378
  216MOL0     H28495   0.487  -0.184   1.696 -0.4954 -0.7387  0.3580
  216MOL0     H28496   0.752   0.008   2.069  0.7654 -0.6066  0.9632
  216MOL0     H28497   0.758   0.086   2.309 -1.7895 -2.5518  0.3687
  216MOL0     H28498   2.070   0.172   3.021 -4.2873  2.0917  0.7139
  216MOL0     H28499   2.328   0.191   3.034 -0.7377 -0.9435 -3.1383
  216MOL0     H28500   2.720   0.466   3.110 -0.6756 -0.1898  0.4831
  216MOL0     H28501   2.944   0.488   3.077  1.8356 -1.2573  1.2003
  216MOL0     H28502   3.150   0.333   3.109 -1.0774  3.1900  2.0569
  216MOL0     H28503   3.147   0.499   3.046 -0.5912  0.3857 -1.8007
  216MOL0     H28504   3.378   0.425   3.098 -0.8673  6.2213 -0.7386
  216MOL0     H28505   3.368   0.303   2.965 -0.2183 -0.2279 -0.6152
  216MOL0     H28506   3.300   0.595   2.922  0.9334  0.2744  3.4159
  216MOL0     H28507   3.374   0.484   2.807  3.4112  1.6732 -1.1924
  216MOL0     H28508   3.552   0.635   2.850 -1.1746 -0.5593 -0.7612
  216MOL0     H28509   3.532   0.643   3.021 -1.0785  0.2635 -0.1394
  216MOL0     H28510   3.787   0.302   2.965 -2.1164 -1.3600  2.8193
  216MOL0     H28511   2.946   0.199   2.756  1.5650 -0.0244  1.0036
  216MOL0     H28512   2.712   0.192   2.759  2.1551 -3.4896  1.7573
  217MOL0     O28513   2.113   2.293   2.909 -0.1674 -0.3032 -0.1586
  217MOL0     C28514   2.049   2.397   2.916  1.0859  0.4941 -0.1455
  217MOL0     O28515   2.078   2.513   2.989 -0.2206 -0.1126 -0.2570
  217MOL0     C28516   2.204   2.529   3.042 -0.1140  0.4075  0.0161
  217MOL0     C28517   2.322   2.475   2.989 -0.6099 -0.3969  0.0346
  217MOL0     C28518   2.454   2.467   3.060  0.3404  0.5446  0.2099
  217MOL0     C28519   2.459   2.536   3.185 -0.1622 -0.1123  0.2624
  217MOL0     O28520   2.574   2.558   3.253  0.8767 -0.4072 -0.0611
  217MOL0     C28521   2.572   2.540   3.395  0.1987  0.3459 -0.5221
  217MOL0     C28522   2.707   2.594   3.447 -0.0516 -0.6233  0.5911
  217MOL0     C28523   2.810   2.486   3.455  0.0389 -0.6301 -0.6013
  217MOL0     C28524   2.940   2.556   3.510 -0.6421  0.2455  0.1397
  217MOL0     C28525   3.025   2.472   3.605  0.0467  0.0784  0.3928
  217MOL0     C28526   3.161   2.551   3.622  0.3973 -0.4443  0.4964
  217MOL0     C28527   3.254   2.461   3.687 -0.0465 -0.7555  0.3341
  217MOL0     C28528   3.400   2.531   3.684  0.1151  0.7063 -1.7204
  217MOL0     N28529   3.411   2.662   3.753 -0.2158  0.3921 -0.7318
  217MOL0     C28530   3.507   2.669   3.852 -0.7436 -0.4094  0.2832
  217MOL0     C28531   3.497   2.800   3.898  0.0965  1.2970  0.2821
  217MOL0     C28532   3.584   2.867   3.997  0.9120 -0.4712 -0.1821
  217MOL0     C28533   3.702   2.934   3.937 -0.1164  0.3228 -0.2486
  217MOL0     C28534   3.670   3.063   3.861  0.1538 -0.5371 -0.1452
  217MOL0     C28535   3.662   3.191   3.946 -0.8863  0.7891  0.2123
  217MOL0     O28536   3.799   3.210   4.008 -0.1786 -0.0895  0.0689
  217MOL0     C28537   3.823   3.187   4.143 -0.2440 -0.1180  1.2775
  217MOL0     C28538   3.730   3.153   4.242 -0.3541  0.2527  0.9155
  217MOL0     C28539   3.776   3.127   4.376 -0.7687 -1.1145 -0.2903
  217MOL0     C28540   3.916   3.140   4.416 -0.2070 -0.1543  1.1428
  217MOL0     C28541   3.959   3.103   4.552 -0.3833 -0.1028  0.0769
  217MOL0     O28542   4.091   3.067   4.573  0.1333 -0.2559  0.2634
  217MOL0     C28543   4.102   2.971   4.678 -0.3474  0.4980 -0.4154
  217MOL0     C28544   4.032   2.845   4.673  0.0820  0.3175  0.3986
  217MOL0     C28545   4.049   2.756   4.779 -0.4654  0.0188 -0.2368
  217MOL0     C28546   4.138   2.788   4.884 -0.1752  0.2400 -0.3951
  217MOL0     O28547   4.157   2.688   4.983 -0.7819 -0.3040 -0.1201
  217MOL0     C28548   4.271   2.683   5.070  0.7975 -0.3864  0.6393
  217MOL0     C28549   4.389   2.640   4.996  0.0417 -0.1371 -0.0781
  217MOL0     C28550   4.358   2.510   4.918 -0.4709  0.6189 -0.1152
  217MOL0     C28551   4.481   2.431   4.865  0.2934  0.8201 -0.6090
  217MOL0     C28552   4.421   2.297   4.794 -1.1230  0.4389  1.1082
  217MOL0     C28553   4.520   2.192   4.740 -0.3732  0.2832  0.2657
  217MOL0     C28554   4.578   2.206   4.605  0.5595 -1.0445 -0.4621
  217MOL0     C28555   4.724   2.162   4.603  0.4715  0.2437 -0.0297
  217MOL0    Cl28556   4.741   1.974   4.589  0.1694 -0.2027  0.1860
  217MOL0     C28557   4.207   2.907   4.891 -0.6594  0.2132  1.3401
  217MOL0     C28558   4.199   2.996   4.783  0.5942  0.4864 -0.0654
  217MOL0     O28559   3.870   3.105   4.631  0.0734 -1.0428  0.4199
  217MOL0     C28560   4.006   3.193   4.315  0.7313  0.3594  0.4080
  217MOL0     C28561   3.959   3.212   4.181 -0.6304  0.3711  0.1315
  217MOL0     N28562   3.399   2.861   3.814 -0.3356  0.1992 -0.4007
  217MOL0     N28563   3.355   2.781   3.726 -0.2590  0.4407  0.0750
  217MOL0     C28564   2.338   2.603   3.230  0.1716 -0.5963  0.1598
  217MOL0     C28565   2.212   2.584   3.167  0.3006 -0.0955 -0.0584
  217MOL0     C28566   1.904   2.398   2.851 -0.5169  1.1316  0.3163
  217MOL0     C28567   1.847   2.278   2.804 -0.3029 -0.1644 -0.4705
  217MOL0     C28568   1.709   2.277   2.760  0.3553 -0.2695 -0.7113
  217MOL0     C28569   1.639   2.393   2.741  0.7346 -0.1044 -0.3838
  217MOL0     O28570   1.510   2.405   2.711  0.0386 -0.6650  0.0430
  217MOL0     C28571   1.437   2.313   2.625 -0.2287 -0.9535 -0.2580
  217MOL0     C28572   1.358   2.398   2.526 -0.5415  0.4486  0.0223
  217MOL0     C28573   1.242   2.340   2.447 -0.9760 -0.5838 -0.4891
  217MOL0     C28574   1.128   2.321   2.554  0.6955  0.8592 -0.7280
  217MOL0     C28575   1.007   2.258   2.497 -0.1399  0.0995 -0.4524
  217MOL0     C28576   0.908   2.199   2.447 -0.3814  0.0685  0.0893
  217MOL0     C28577   1.700   2.513   2.781  0.4623  0.4520 -0.1385
  217MOL0     C28578   1.832   2.513   2.833  0.5832  0.1602 -0.1351
  217MOL0     H28579   2.327   2.440   2.886 -1.4206 -1.2304  0.2714
  217MOL0     H28580   2.546   2.443   3.007  0.3022  1.8909 -0.5214
  217MOL0     H28581   2.549   2.441   3.435  0.3837  0.1740 -0.8385
  217MOL0     H28582   2.496   2.614   3.423  1.1143  2.1279 -2.4619
  217MOL0     H28583   2.696   2.624   3.552 -0.4148 -0.6428  0.5583
  217MOL0     H28584   2.745   2.680   3.390 -2.7234  1.2120  1.3760
  217MOL0     H28585   2.843   2.451   3.357  0.8796 -0.1395 -0.5027
  217MOL0     H28586   2.771   2.410   3.525  1.2295  0.3940  1.2599
  217MOL0     H28587   3.012   2.584   3.433  0.1524 -1.5802  0.1798
  217MOL0     H28588   2.916   2.650   3.561 -2.1170  0.7374 -1.3427
  217MOL0     H28589   3.038   2.372   3.563 -0.4583  1.3227 -2.9586
  217MOL0     H28590   2.977   2.467   3.704 -1.6811  1.7121 -0.3019
  217MOL0     H28591   3.140   2.633   3.691 -0.6400  0.4651 -0.8486
  217MOL0     H28592   3.213   2.581   3.531 -0.8029 -1.1010 -0.4367
  217MOL0     H28593   3.222   2.453   3.791  0.3825 -2.1090  0.3719
  217MOL0     H28594   3.240   2.364   3.640 -1.6537  0.6255 -2.2976
  217MOL0     H28595   3.427   2.543   3.579 -0.5376  0.3141 -1.9383
  217MOL0     H28596   3.457   2.464   3.749 -3.0038  1.4345  2.1693
  217MOL0     H28597   3.573   2.589   3.882 -1.8776 -0.6972  2.1865
  217MOL0     H28598   3.638   2.793   4.058  1.0949  0.7357  1.1587
  217MOL0     H28599   3.535   2.931   4.070  2.9787  0.6522  0.3008
  217MOL0     H28600   3.761   2.863   3.877  1.3065  2.5186 -1.5849
  217MOL0     H28601   3.763   2.957   4.025  0.6276 -0.5385 -0.5195
  217MOL0     H28602   3.756   3.074   3.794  0.9525  0.4966  0.9983
  217MOL0     H28603   3.579   3.055   3.800 -0.5900 -2.2129  1.1033
  217MOL0     H28604   3.580   3.173   4.016 -0.0497 -2.2192  0.5778
  217MOL0     H28605   3.640   3.272   3.877 -2.4749 -1.3721 -1.9948
  217MOL0     H28606   3.626   3.150   4.212  0.5139 -4.8989 -2.9710
  217MOL0     H28607   3.689   3.106   4.438 -0.6004 -2.8621 -0.5865
  217MOL0     H28608   3.965   2.821   4.591  0.4707  1.5029 -0.3045
  217MOL0     H28609   3.987   2.668   4.791 -1.0557  0.2410 -1.5224
  217MOL0     H28610   4.246   2.615   5.152 -3.1437 -1.2646 -1.0708
  217MOL0     H28611   4.295   2.781   5.113  2.2328 -0.4758  0.0961
  217MOL0     H28612   4.479   2.629   5.058 -0.2410 -2.1440  0.0547
  217MOL0     H28613   4.410   2.716   4.920  2.0908 -0.9984 -0.4358
  217MOL0     H28614   4.299   2.536   4.829  1.1587  2.7957 -0.6440
  217MOL0     H28615   4.298   2.447   4.985 -2.9743  2.4496 -0.4801
  217MOL0     H28616   4.547   2.492   4.802  0.3669  1.6276  0.2292
  217MOL0     H28617   4.535   2.397   4.954  2.3617  4.3402 -0.3209
  217MOL0     H28618   4.354   2.319   4.710  1.9787  0.4520 -1.5418
  217MOL0     H28619   4.373   2.242   4.876 -3.3281  1.1997  0.4113
  217MOL0     H28620   4.478   2.091   4.746  0.0033  0.0388 -0.9185
  217MOL0     H28621   4.601   2.208   4.812 -0.1389  4.7296 -0.6929
  217MOL0     H28622   4.522   2.135   4.542 -0.4815 -0.9158  0.2885
  217MOL0     H28623   4.573   2.307   4.563 -2.4386 -1.2661 -0.8652
  217MOL0     H28624   4.780   2.199   4.689 -2.0962  0.3887  1.7102
  217MOL0     H28625   4.768   2.216   4.519 -2.7298 -0.7765 -2.5816
  217MOL0     H28626   4.272   2.927   4.976  1.1378 -6.6101  2.1998
  217MOL0     H28627   4.256   3.088   4.788  5.3788 -2.1515  0.6278
  217MOL0     H28628   4.111   3.208   4.340  0.7423 -1.8150  1.9486
  217MOL0     H28629   4.040   3.236   4.112  0.8125  0.1898  1.7105
  217MOL0     H28630   2.351   2.668   3.315  0.1305 -3.0845  2.1816
  217MOL0     H28631   2.121   2.623   3.212  1.4641  3.5420 -0.5062
  217MOL0     H28632   1.893   2.182   2.822 -1.5665 -0.8570 -0.8147
  217MOL0     H28633   1.653   2.186   2.739 -0.2464  0.1883 -1.1211
  217MOL0     H28634   1.357   2.269   2.686  0.0900  0.3914  1.2050
  217MOL0     H28635   1.505   2.236   2.589  0.8257  0.1732 -0.7691
  217MOL0     H28636   1.316   2.480   2.585  0.9506 -1.1541  3.6210
  217MOL0     H28637   1.423   2.433   2.445 -2.5270  2.0482 -1.0043
  217MOL0     H28638   1.261   2.244   2.398 -0.1109 -0.0162 -1.2976
  217MOL0     H28639   1.201   2.415   2.377  1.6784  0.4315 -1.0948
  217MOL0     H28640   1.152   2.266   2.645 -3.2906 -2.8165 -1.6131
  217MOL0     H28641   1.099   2.421   2.590  1.7404  1.0302 -0.3021
  217MOL0     H28642   0.831   2.145   2.396  2.2869 -1.8138 -2.2759
  217MOL0     H28643   1.663   2.612   2.759 -1.3402 -0.4680 -1.4993
  217MOL0     H28644   1.868   2.612   2.860  1.5625 -0.6649  1.8068
  218MOL0     O28645   5.104   3.023   1.133 -0.1491 -0.4448  0.4234
  218MOL0     C28646   5.156   2.910   1.136  0.1416  0.2329 -0.1683
  218MOL0     O28647   5.091   2.796   1.168 -0.1470  0.5586  0.4766
  218MOL0     C28648   4.958   2.776   1.194  0.4691 -1.5053 -0.2079
  218MOL0     C28649   4.866   2.881   1.205 -0.5123  0.1686  0.4764
  218MOL0     C28650   4.731   2.839   1.232  0.9219  0.2396  0.9127
  218MOL0     C28651   4.686   2.707   1.242 -0.2194  0.4572  0.5191
  218MOL0     O28652   4.558   2.668   1.280 -0.0008  0.3012  0.8330
  218MOL0     C28653   4.453   2.763   1.271 -0.7617  0.6573  0.0518
  218MOL0     C28654   4.319   2.715   1.320 -0.6067  0.6863  0.7055
  218MOL0     C28655   4.305   2.679   1.465  0.1026  0.2977  0.0052
  218MOL0     C28656   4.283   2.805   1.552 -0.7514  0.2628  0.4627
  218MOL0     C28657   4.269   2.789   1.702  0.6893 -0.4459 -0.0730
  218MOL0     C28658   4.229   2.928   1.757  0.0723 -0.5571  0.0025
  218MOL0     C28659   4.071   2.951   1.752 -0.4498 -0.3310  0.2700
  218MOL0     C28660   4.039   3.065   1.846  0.2337  0.0304 -0.4776
  218MOL0     N28661   4.090   3.189   1.785  1.2838  0.3113 -0.8531
  218MOL0     C28662   4.120   3.300   1.860  0.3373 -0.1486 -0.3853
  218MOL0     C28663   4.156   3.402   1.777 -0.7038  0.2913  0.3969
  218MOL0     C28664   4.203   3.545   1.792 -0.8902 -0.3258  0.1881
  218MOL0     C28665   4.105   3.632   1.873 -0.0389  0.3263  0.4082
  218MOL0     C28666   4.152   3.773   1.897  1.2643 -0.3797 -0.2385
  218MOL0     C28667   4.030   3.872   1.916  0.2807 -0.0974  0.6990
  218MOL0     O28668   3.945   3.832   2.018 -0.5491 -0.5575  0.0407
  218MOL0     C28669   3.807   3.843   2.008  1.0119  0.6077 -0.5197
  218MOL0     C28670   3.741   3.920   1.906 -0.3828  0.2968  0.4711
  218MOL0     C28671   3.605   3.931   1.891 -0.2612  0.0833  0.4205
  218MOL0     C28672   3.521   3.860   1.983 -0.8703  0.3761  0.0301
  218MOL0     C28673   3.375   3.858   1.977  0.0699  1.2617  0.2775
  218MOL0     O28674   3.322   3.897   1.861  1.2571 -0.0499 -0.6105
  218MOL0     C28675   3.195   3.933   1.856 -0.0347  0.6865  0.0845
  218MOL0     C28676   3.084   3.850   1.885 -0.0967  0.0283 -1.0029
  218MOL0     C28677   2.959   3.899   1.889  0.0716  0.6031 -0.8605
  218MOL0     C28678   2.932   4.029   1.841  0.2466 -0.3638  0.1353
  218MOL0     O28679   2.802   4.055   1.816  0.4200  0.2473  0.2032
  218MOL0     C28680   2.789   4.031   1.677  0.3663 -0.3345  0.8266
  218MOL0     C28681   2.635   4.051   1.640 -0.9650  0.2287  0.0364
  218MOL0     C28682   2.592   4.197   1.673  0.3252 -1.0208  0.1865
  218MOL0     C28683   2.450   4.239   1.629  0.6841  0.6467  0.0972
  218MOL0     C28684   2.432   4.376   1.672  0.2963 -0.3106  0.4658
  218MOL0     C28685   2.325   4.457   1.575  0.1929  1.0249 -0.2917
  218MOL0     C28686   2.182   4.414   1.593  0.6846  0.0931 -0.3901
  218MOL0     C28687   2.082   4.519   1.536  0.1260 -1.1799  1.3448
  218MOL0    Cl28688   2.135   4.545   1.360  0.1080  0.5226 -0.1493
  218MOL0     C28689   3.040   4.115   1.807 -0.0758  0.2400 -0.1896
  218MOL0     C28690   3.172   4.065   1.818  0.8271 -0.7885  0.4074
  218MOL0     O28691   3.307   3.830   2.074 -0.1732 -0.2549 -0.3897
  218MOL0     C28692   3.586   3.776   2.080  0.5194 -0.4279 -0.6289
  218MOL0     C28693   3.722   3.774   2.099 -0.2930 -0.0443  0.5955
  218MOL0     N28694   4.129   3.346   1.649  0.2886 -0.1264  0.0360
  218MOL0     N28695   4.093   3.217   1.649  0.3324 -0.5320 -0.3071
  218MOL0     C28696   4.785   2.609   1.230 -1.1413 -0.5762  0.0041
  218MOL0     C28697   4.913   2.644   1.217 -0.4586  0.0712  0.3036
  218MOL0     C28698   5.300   2.892   1.105  0.3048 -0.9801  0.3755
  218MOL0     C28699   5.347   2.774   1.057 -0.0543  0.1226 -0.2698
  218MOL0     C28700   5.487   2.762   1.039  0.4627  0.4657  0.0631
  218MOL0     C28701   5.572   2.863   1.069 -0.2166  0.3655  0.6503
  218MOL0     O28702   5.703   2.866   1.030  0.8216  0.3059  0.2165
  218MOL0     C28703   5.753   2.755   0.968  0.2843  0.1475 -0.0525
  218MOL0     C28704   5.903   2.766   0.941 -0.5687 -0.9392  0.4778
  218MOL0     C28705   5.985   2.719   1.057  0.4565  0.1327 -0.1109
  218MOL0     C28706   6.083   2.827   1.112  0.9803 -0.0231 -0.1071
  218MOL0     C28707   6.223   2.808   1.077  0.9587 -1.0936 -0.0304
  218MOL0     C28708   6.337   2.781   1.040 -1.0231 -0.2489  0.1034
  218MOL0     C28709   5.513   2.981   1.112  0.2634 -0.2181 -0.7582
  218MOL0     C28710   5.379   2.994   1.129 -0.0018 -0.5850 -0.4974
  218MOL0     H28711   4.886   2.986   1.187 -4.1071  1.2956  2.0679
  218MOL0     H28712   4.660   2.920   1.242  1.8804  1.2616 -0.2324
  218MOL0     H28713   4.435   2.797   1.169 -1.1787 -2.3875 -0.9683
  218MOL0     H28714   4.490   2.849   1.328  0.7302  0.8443 -1.1312
  218MOL0     H28715   4.286   2.627   1.263  0.3629  1.0199 -0.4173
  218MOL0     H28716   4.250   2.796   1.296  0.5536  1.1079 -1.4566
  218MOL0     H28717   4.393   2.628   1.505  0.1354  0.7569  0.5368
  218MOL0     H28718   4.218   2.614   1.476 -0.6507  1.3976  0.7710
  218MOL0     H28719   4.366   2.874   1.535  3.4723 -4.4155 -0.5673
  218MOL0     H28720   4.188   2.846   1.516 -0.1823  0.9692 -0.2648
  218MOL0     H28721   4.355   2.762   1.764  0.6094 -0.8285 -0.1280
  218MOL0     H28722   4.198   2.708   1.722  2.4867 -1.7474  1.4032
  218MOL0     H28723   4.272   3.009   1.697 -3.7773  1.5024 -0.2404
  218MOL0     H28724   4.269   2.932   1.859  1.6239  1.8408 -0.6349
  218MOL0     H28725   4.032   2.965   1.651 -0.9798  1.9248  0.7509
  218MOL0     H28726   4.029   2.856   1.787  0.4383 -0.7734  0.1920
  218MOL0     H28727   4.091   3.061   1.942 -0.1358 -0.8416 -0.2973
  218MOL0     H28728   3.935   3.067   1.880  0.3147 -0.0151 -0.2247
  218MOL0     H28729   4.132   3.305   1.968  0.8857 -2.3442 -0.3093
  218MOL0     H28730   4.216   3.598   1.697 -2.7435  0.4715  0.3248
  218MOL0     H28731   4.301   3.549   1.841  1.0969  2.6291 -3.4598
  218MOL0     H28732   4.081   3.581   1.967 -0.4562  1.1839  0.7787
  218MOL0     H28733   4.011   3.640   1.817  0.8238  0.5181 -1.0513
  218MOL0     H28734   4.210   3.768   1.989  0.5503  1.7715  0.3799
  218MOL0     H28735   4.217   3.817   1.821  1.2753 -0.5088 -0.3049
  218MOL0     H28736   3.972   3.859   1.824  1.1998  0.0772  0.0858
  218MOL0     H28737   4.063   3.975   1.931  1.1427 -0.6711  3.2426
  218MOL0     H28738   3.800   3.971   1.831 -0.6341 -0.8668 -0.5452
  218MOL0     H28739   3.572   4.002   1.815 -2.4811  2.2092  3.1633
  218MOL0     H28740   3.097   3.744   1.906  1.1077 -0.0078 -1.8196
  218MOL0     H28741   2.883   3.835   1.931 -1.5166  4.0322  2.0096
  218MOL0     H28742   2.818   3.927   1.660  2.2368 -0.3242  3.3119
  218MOL0     H28743   2.839   4.105   1.614 -1.1779 -0.1268 -0.2130
  218MOL0     H28744   2.581   3.980   1.702  0.1407  0.0130  0.7743
  218MOL0     H28745   2.603   4.037   1.536 -1.8936  0.3890  0.2931
  218MOL0     H28746   2.667   4.265   1.630 -0.8505 -0.0553 -0.3980
  218MOL0     H28747   2.602   4.199   1.782  3.9956 -3.6763  0.0705
  218MOL0     H28748   2.435   4.240   1.520  2.3188  2.6514 -0.1946
  218MOL0     H28749   2.382   4.162   1.666  1.6717 -0.5830 -0.5737
  218MOL0     H28750   2.528   4.428   1.659 -0.6318  1.2379 -0.5866
  218MOL0     H28751   2.412   4.383   1.779 -2.4723  1.0706 -0.0471
  218MOL0     H28752   2.354   4.450   1.470  0.7354 -5.0957 -0.0786
  218MOL0     H28753   2.321   4.563   1.605 -1.4970  1.0260 -0.4099
  218MOL0     H28754   2.153   4.323   1.539 -1.8301 -0.6938  2.0321
  218MOL0     H28755   2.169   4.396   1.701 -3.0047 -0.3278 -0.7573
  218MOL0     H28756   2.092   4.614   1.589 -1.7811  0.6320 -1.3324
  218MOL0     H28757   1.975   4.508   1.555 -0.1481  2.2790  2.4714
  218MOL0     H28758   3.017   4.209   1.756  0.8602  0.7593  0.3225
  218MOL0     H28759   3.250   4.140   1.811 -1.6758  1.8141 -1.8420
  218MOL0     H28760   3.520   3.731   2.154  0.7625 -1.1927 -0.8710
  218MOL0     H28761   3.773   3.717   2.177 -1.2244 -1.4890  0.1914
  218MOL0     H28762   4.755   2.508   1.254  0.3141 -0.5239  2.4092
  218MOL0     H28763   4.984   2.563   1.211 -0.8537 -0.3193  0.8448
  218MOL0     H28764   5.280   2.694   1.024  0.3033 -0.6370  0.7909
  218MOL0     H28765   5.523   2.665   1.005  2.7458  0.2108  2.7344
  218MOL0     H28766   5.699   2.745   0.873 -0.4674 -1.6012  0.5182
  218MOL0     H28767   5.741   2.662   1.024 -0.6741 -0.7013 -1.5899
  218MOL0     H28768   5.937   2.705   0.856  0.1787  1.8319 -1.3287
  218MOL0     H28769   5.924   2.871   0.922 -3.2396 -0.4786 -0.1927
  218MOL0     H28770   6.043   2.628   1.040 -0.7423 -0.2384 -2.6363
  218MOL0     H28771   5.914   2.698   1.138 -0.4251  0.2745 -0.8292
  218MOL0     H28772   6.042   2.929   1.116 -1.6104 -0.9288 -1.0831
  218MOL0     H28773   6.082   2.799   1.218  0.3099 -1.1578 -0.3979
  218MOL0     H28774   6.437   2.775   1.002 -1.9732  1.3362 -3.0322
  218MOL0     H28775   5.578   3.064   1.132 -1.6007  0.3947  3.9677
  218MOL0     H28776   5.346   3.092   1.161  4.7625  0.1909  3.2388
  219MOL0     O28777   4.957   7.487   7.414  0.7881 -0.1285  0.0969
  219MOL0     C28778   4.949   7.502   7.536 -0.4264 -0.8606  1.0724
  219MOL0     O28779   4.835   7.536   7.609 -0.3170  0.4684  0.3252
  219MOL0     C28780   4.713   7.558   7.538  0.3338 -0.3345 -0.6152
  219MOL0     C28781   4.592   7.503   7.581 -0.6367  1.0573  0.0366
  219MOL0     C28782   4.474   7.516   7.506 -0.5505 -0.3029 -0.8052
  219MOL0     C28783   4.469   7.610   7.404  0.4058 -0.9450 -0.4078
  219MOL0     O28784   4.353   7.643   7.328 -0.0026 -0.1901 -0.0023
  219MOL0     C28785   4.242   7.548   7.339  0.5294  0.0514 -0.6627
  219MOL0     C28786   4.146   7.574   7.459 -0.1438 -0.2723  0.1548
  219MOL0     C28787   4.028   7.471   7.461 -0.9524  0.6659 -1.1689
  219MOL0     C28788   3.943   7.509   7.587  0.0191 -0.1464  0.6198
  219MOL0     C28789   3.824   7.410   7.614  0.0267 -0.0731  0.6516
  219MOL0     C28790   3.753   7.437   7.749 -0.6323  0.1126  0.0414
  219MOL0     C28791   3.640   7.339   7.761 -0.0319  0.0410 -0.1321
  219MOL0     C28792   3.629   7.285   7.899 -0.3458  1.3533 -0.7392
  219MOL0     N28793   3.593   7.386   7.999  0.4454  0.1343  0.5837
  219MOL0     C28794   3.475   7.459   8.008 -0.2360 -0.6508 -0.3792
  219MOL0     C28795   3.496   7.545   8.111 -0.4306 -0.4212 -0.2309
  219MOL0     C28796   3.409   7.652   8.179 -0.3651  0.4950 -0.2921
  219MOL0     C28797   3.256   7.609   8.167 -0.0801 -0.1227 -0.0901
  219MOL0     C28798   3.169   7.723   8.213  0.1820 -1.0595  0.0715
  219MOL0     C28799   3.020   7.680   8.196 -0.3182 -0.2666  0.2460
  219MOL0     O28800   2.949   7.664   8.317  0.3224 -0.3111 -0.2157
  219MOL0     C28801   2.813   7.681   8.326  0.3038  1.0441 -1.1109
  219MOL0     C28802   2.763   7.697   8.456 -0.0999  0.0322  0.5196
  219MOL0     C28803   2.632   7.738   8.471 -0.3252  0.4149  0.5474
  219MOL0     C28804   2.545   7.761   8.367  0.3178 -0.5059  1.4906
  219MOL0     C28805   2.396   7.802   8.384 -0.0003 -0.5595 -0.1985
  219MOL0     O28806   2.361   7.829   8.514 -0.4075  0.5042 -0.2818
  219MOL0     C28807   2.226   7.840   8.528 -0.2522 -0.1444  0.0766
  219MOL0     C28808   2.163   7.954   8.489  0.2811 -0.2237 -0.5713
  219MOL0     C28809   2.030   7.972   8.514 -1.1384  0.6179  0.5431
  219MOL0     C28810   1.954   7.864   8.552  0.1559 -0.2214 -0.8130
  219MOL0     O28811   1.815   7.854   8.553 -0.4470 -0.7616  0.3091
  219MOL0     C28812   1.759   7.968   8.616  0.2742 -0.1356 -0.2603
  219MOL0     C28813   1.821   8.033   8.749  0.3780  1.1030 -0.4385
  219MOL0     C28814   1.755   8.163   8.792 -0.0168 -0.4980 -0.4930
  219MOL0     C28815   1.784   8.200   8.942  0.6059  0.5517 -0.7986
  219MOL0     C28816   1.752   8.344   8.977  0.0270  0.5112 -0.4663
  219MOL0     C28817   1.832   8.409   9.097  0.4226 -0.4688  0.2137
  219MOL0     C28818   1.976   8.444   9.067 -0.2243 -0.8729  0.5419
  219MOL0     C28819   2.058   8.477   9.193  0.3261 -0.4283 -0.5432
  219MOL0    Cl28820   2.222   8.531   9.138 -0.1874 -0.4020 -0.7364
  219MOL0     C28821   2.012   7.746   8.588 -0.1080 -0.7710  0.2448
  219MOL0     C28822   2.153   7.733   8.575  0.3914  0.4033 -0.0342
  219MOL0     O28823   2.322   7.779   8.285  0.0931 -0.5032  0.3130
  219MOL0     C28824   2.601   7.745   8.241 -0.2429  0.9418  0.2894
  219MOL0     C28825   2.737   7.699   8.216  0.3313 -0.1959 -0.3173
  219MOL0     N28826   3.609   7.518   8.163 -0.9971 -0.2931 -1.1257
  219MOL0     N28827   3.675   7.431   8.093 -0.2775 -0.4573 -1.3829
  219MOL0     C28828   4.585   7.685   7.378  1.2945  1.0323 -0.0455
  219MOL0     C28829   4.703   7.649   7.435 -0.3294 -1.1963  0.8958
  219MOL0     C28830   5.062   7.461   7.621  0.2565  0.0398 -1.0357
  219MOL0     C28831   5.085   7.505   7.756  0.3471  0.1740 -0.3719
  219MOL0     C28832   5.211   7.493   7.818  0.4397 -0.3166 -0.2256
  219MOL0     C28833   5.315   7.427   7.752 -0.3246  0.3684 -1.3673
  219MOL0     O28834   5.429   7.397   7.812 -0.9859  0.0919 -0.6666
  219MOL0     C28835   5.439   7.255   7.846 -0.4295 -0.5018  0.0482
  219MOL0     C28836   5.581   7.218   7.811 -1.7468 -0.3899  0.4100
  219MOL0     C28837   5.681   7.254   7.921 -1.0764 -0.6416  0.0998
  219MOL0     C28838   5.823   7.220   7.873 -0.6381 -0.1087  0.2432
  219MOL0     C28839   5.926   7.269   7.967  0.3772 -0.2016 -0.0918
  219MOL0     C28840   6.001   7.306   8.053 -0.2782 -0.5108  0.0659
  219MOL0     C28841   5.293   7.379   7.619  0.8919 -0.0578 -0.2464
  219MOL0     C28842   5.173   7.401   7.559 -0.1146 -0.8403 -0.5132
  219MOL0     H28843   4.595   7.426   7.658  1.0172  1.9622  0.9339
  219MOL0     H28844   4.383   7.468   7.538 -0.1494 -0.1963  0.5572
  219MOL0     H28845   4.265   7.442   7.354 -2.6679 -0.2801  4.0637
  219MOL0     H28846   4.192   7.543   7.241  1.1168  0.3295 -0.9859
  219MOL0     H28847   4.111   7.677   7.454 -0.7085 -0.3879  1.4229
  219MOL0     H28848   4.196   7.577   7.556 -1.1968 -3.2517  0.9060
  219MOL0     H28849   4.060   7.368   7.475  0.8657  1.4396  0.9893
  219MOL0     H28850   3.967   7.490   7.372  3.4638  3.3779 -4.0533
  219MOL0     H28851   4.010   7.497   7.673 -0.8447  0.2641  1.3708
  219MOL0     H28852   3.914   7.615   7.584 -2.5677 -0.8059 -1.5449
  219MOL0     H28853   3.860   7.308   7.631  0.5254  0.2492  1.6314
  219MOL0     H28854   3.757   7.413   7.528  0.0136  0.2247  0.6700
  219MOL0     H28855   3.718   7.540   7.750  4.9311  2.3867 -1.2237
  219MOL0     H28856   3.826   7.413   7.827  0.4856 -1.3722 -1.3779
  219MOL0     H28857   3.553   7.397   7.728  0.0994  1.0650  1.2175
  219MOL0     H28858   3.659   7.259   7.689  0.5208  1.5823 -1.7348
  219MOL0     H28859   3.719   7.242   7.943 -2.1604  1.6688  3.8930
  219MOL0     H28860   3.556   7.204   7.907 -0.8475  1.4940 -3.2555
  219MOL0     H28861   3.386   7.453   7.947  0.1042  0.4106 -1.0160
  219MOL0     H28862   3.432   7.751   8.138  1.3523  0.3439  0.2326
  219MOL0     H28863   3.432   7.649   8.286  1.0762 -2.7775 -0.5767
  219MOL0     H28864   3.248   7.514   8.219  3.8160  0.2738  1.5637
  219MOL0     H28865   3.231   7.592   8.061  1.1911 -1.8383 -0.1537
  219MOL0     H28866   3.183   7.738   8.321 -2.5544 -0.2689  0.3962
  219MOL0     H28867   3.193   7.816   8.163 -0.1820 -1.3742 -0.7007
  219MOL0     H28868   3.011   7.591   8.132 -0.3146 -0.6256  0.7426
  219MOL0     H28869   2.966   7.758   8.140 -3.0684 -2.6192 -0.6167
  219MOL0     H28870   2.829   7.697   8.543  2.4093 -0.7400 -1.2770
  219MOL0     H28871   2.602   7.772   8.570  2.7414  3.6431  0.5844
  219MOL0     H28872   2.212   8.042   8.448 -2.9413  0.9314 -2.2477
  219MOL0     H28873   1.983   8.069   8.499 -0.9980  0.5247 -0.6261
  219MOL0     H28874   1.655   7.939   8.633 -0.5001  2.4958 -0.1081
  219MOL0     H28875   1.767   8.051   8.545  0.1543 -1.0602 -1.3840
  219MOL0     H28876   1.927   8.057   8.737  0.4009  1.8023  0.8992
  219MOL0     H28877   1.819   7.955   8.827  0.0080  1.6484  0.1044
  219MOL0     H28878   1.648   8.144   8.803 -0.5642  2.9203  1.6686
  219MOL0     H28879   1.787   8.244   8.725  2.1972 -0.6597  0.2793
  219MOL0     H28880   1.733   8.142   9.020  2.4567  0.8812  0.7482
  219MOL0     H28881   1.893   8.187   8.944  0.6915  0.9431  2.2525
  219MOL0     H28882   1.645   8.357   8.998  0.4698 -0.8443  3.4264
  219MOL0     H28883   1.783   8.394   8.885  1.4303 -2.6277 -1.8449
  219MOL0     H28884   1.828   8.326   9.168  2.9330 -1.7197 -0.9880
  219MOL0     H28885   1.772   8.494   9.132 -0.6270 -1.0802 -0.0604
  219MOL0     H28886   2.019   8.353   9.024  2.4796 -1.0294  3.2754
  219MOL0     H28887   1.987   8.525   8.994 -2.1007 -0.7256  0.3874
  219MOL0     H28888   2.070   8.395   9.265 -0.8768  1.0177  1.3877
  219MOL0     H28889   2.002   8.551   9.250 -2.8427 -0.3811 -3.4035
  219MOL0     H28890   1.944   7.668   8.621  0.5842 -1.1949  0.7128
  219MOL0     H28891   2.199   7.641   8.608 -0.2580  0.2093  0.3676
  219MOL0     H28892   2.535   7.765   8.157  0.4379  2.3095  0.0650
  219MOL0     H28893   2.767   7.687   8.113  0.7007 -1.9975 -0.0321
  219MOL0     H28894   4.585   7.779   7.323  0.4616  1.0569 -0.0143
  219MOL0     H28895   4.787   7.715   7.415 -2.8380  2.4800  1.3908
  219MOL0     H28896   5.006   7.556   7.810 -1.5022 -3.4467  0.6598
  219MOL0     H28897   5.236   7.523   7.919  0.4970  2.0220 -0.8608
  219MOL0     H28898   5.374   7.191   7.785  0.9968 -2.6221  0.6444
  219MOL0     H28899   5.415   7.241   7.952  1.1184  0.2052  0.5165
  219MOL0     H28900   5.589   7.110   7.795 -0.4556 -0.0519 -1.6645
  219MOL0     H28901   5.612   7.258   7.714 -2.7536 -0.5417  0.0056
  219MOL0     H28902   5.677   7.193   8.012  3.3992 -1.5986 -0.1313
  219MOL0     H28903   5.683   7.363   7.932  4.1603 -0.5986  1.1154
  219MOL0     H28904   5.824   7.111   7.863 -1.1793  0.0021 -1.4026
  219MOL0     H28905   5.847   7.254   7.772  0.4475 -1.3917  0.0470
  219MOL0     H28906   6.061   7.346   8.133 -1.6186  2.8610 -0.4401
  219MOL0     H28907   5.370   7.321   7.569  2.6054  1.9950 -0.1800
  219MOL0     H28908   5.166   7.369   7.455 -3.3954  2.7365 -1.6066
  220MOL0     O28909   9.019   8.621   5.558 -0.7186  0.1632  0.4964
  220MOL0     C28910   9.059   8.716   5.489  0.3255  0.5570  0.4297
  220MOL0     O28911   8.984   8.792   5.396 -0.5020 -0.3133 -0.0434
  220MOL0     C28912   8.849   8.771   5.374 -0.6514 -0.2546 -0.9270
  220MOL0     C28913   8.780   8.880   5.323 -0.4255  0.1517 -0.4250
  220MOL0     C28914   8.652   8.866   5.295  1.5812  0.6548 -0.1843
  220MOL0     C28915   8.581   8.746   5.299  0.4871  0.4685 -0.5687
  220MOL0     O28916   8.445   8.739   5.278 -0.3123  0.0071  0.0509
  220MOL0     C28917   8.384   8.850   5.205  0.0710  0.3351  0.0673
  220MOL0     C28918   8.245   8.827   5.135 -1.0158 -0.0503  0.1977
  220MOL0     C28919   8.201   8.956   5.054 -0.1119  0.1362 -0.2340
  220MOL0     C28920   8.056   8.948   4.995 -1.8781  0.4046 -0.4645
  220MOL0     C28921   8.009   9.092   4.963 -0.0771  0.5582 -0.0844
  220MOL0     C28922   7.888   9.079   4.868  0.7416 -0.8556 -0.6300
  220MOL0     C28923   7.779   9.190   4.906 -0.2887 -0.2706 -0.0811
  220MOL0     C28924   7.650   9.143   4.827  0.7409 -0.9997  0.4077
  220MOL0     N28925   7.520   9.221   4.848 -0.0924 -0.1847  0.4192
  220MOL0     C28926   7.509   9.351   4.809  0.0667 -0.4411  0.2527
  220MOL0     C28927   7.400   9.395   4.874  0.0538  0.5038 -0.7336
  220MOL0     C28928   7.340   9.530   4.879 -0.3779 -0.4598  0.1204
  220MOL0     C28929   7.184   9.531   4.916  0.2113 -0.7321 -0.4665
  220MOL0     C28930   7.098   9.487   4.797  0.3116 -1.3086 -0.2087
  220MOL0     C28931   6.957   9.556   4.792  0.4902 -0.1189  0.1809
  220MOL0     O28932   6.857   9.501   4.693 -0.0086 -0.5236 -0.3460
  220MOL0     C28933   6.729   9.544   4.723  0.8034 -0.1213  0.9516
  220MOL0     C28934   6.702   9.649   4.812  0.0462  0.3103  0.6185
  220MOL0     C28935   6.563   9.684   4.829  1.0380  0.4211  1.5395
  220MOL0     C28936   6.453   9.617   4.760 -0.6622 -0.7554 -0.3074
  220MOL0     C28937   6.308   9.650   4.796 -0.2991 -0.0819  0.8872
  220MOL0     O28938   6.214   9.585   4.727 -0.2382 -0.1503  0.4446
  220MOL0     C28939   6.088   9.605   4.767 -0.0065  0.5779 -0.7583
  220MOL0     C28940   6.025   9.512   4.860 -1.1063 -0.3814 -0.6167
  220MOL0     C28941   5.894   9.530   4.901 -0.7713  0.0365 -0.5027
  220MOL0     C28942   5.832   9.653   4.869 -1.0597  0.3701 -0.1636
  220MOL0     O28943   5.705   9.674   4.909 -0.8397 -0.7297 -0.3674
  220MOL0     C28944   5.640   9.589   4.994  0.3663 -0.5240 -0.8613
  220MOL0     C28945   5.493   9.638   4.976 -0.2825 -0.7140 -0.1633
  220MOL0     C28946   5.412   9.524   5.052 -0.2932  0.0689  0.4436
  220MOL0     C28947   5.268   9.548   5.056  0.2820  0.1637 -0.5846
  220MOL0     C28948   5.205   9.407   5.041  0.3749 -0.1027 -0.0446
  220MOL0     C28949   5.058   9.403   5.005 -0.0576 -0.1229  0.1932
  220MOL0     C28950   4.959   9.436   5.112  0.2835 -0.3962 -0.7845
  220MOL0     C28951   4.815   9.385   5.081  0.1442  0.2912  1.0844
  220MOL0    Cl28952   4.750   9.479   4.947  0.3698 -0.0977  0.2832
  220MOL0     C28953   5.890   9.747   4.782 -0.5310  0.2777 -0.3163
  220MOL0     C28954   6.014   9.721   4.726 -0.8694  0.2049 -0.8894
  220MOL0     O28955   6.299   9.737   4.884  0.4357  0.8595 -0.0393
  220MOL0     C28956   6.490   9.514   4.673 -0.2459  0.5604  0.4099
  220MOL0     C28957   6.627   9.472   4.660  0.5019 -0.4406 -0.2815
  220MOL0     N28958   7.362   9.299   4.961  0.3290 -0.2057 -0.2416
  220MOL0     N28959   7.432   9.190   4.937 -0.1401 -0.6741 -0.2307
  220MOL0     C28960   8.650   8.634   5.337 -0.5037 -0.2050 -0.8225
  220MOL0     C28961   8.787   8.644   5.370  0.6664  0.4886  0.2204
  220MOL0     C28962   9.189   8.772   5.536  0.0168  0.2909 -0.0175
  220MOL0     C28963   9.236   8.894   5.477  0.0600 -0.0050 -0.3745
  220MOL0     C28964   9.364   8.941   5.518 -0.7687 -0.0558  0.0469
  220MOL0     C28965   9.440   8.879   5.613  0.1404 -0.1994  0.7642
  220MOL0     O28966   9.554   8.945   5.646  0.0237  0.5797  0.2336
  220MOL0     C28967   9.667   8.861   5.662  0.6811 -0.4953  0.2580
  220MOL0     C28968   9.787   8.934   5.717  0.2715  0.5905 -0.5452
  220MOL0     C28969   9.849   9.017   5.609 -0.9641 -1.0890  0.1619
  220MOL0     C28970   9.980   9.091   5.651  0.1621 -0.5157  0.0799
  220MOL0     C28971   9.978   9.133   5.793 -0.4563 -0.2018  0.4204
  220MOL0     C28972   9.960   9.162   5.911 -0.0226 -1.4264 -0.0476
  220MOL0     C28973   9.388   8.761   5.660  0.2967  0.4513 -0.2471
  220MOL0     C28974   9.259   8.717   5.635  0.6087  0.3637 -0.4373
  220MOL0     H28975   8.834   8.969   5.292  1.5686 -0.8519  0.0034
  220MOL0     H28976   8.599   8.956   5.264 -1.2561 -0.5022  0.9963
  220MOL0     H28977   8.442   8.878   5.116  0.2121 -2.3658 -0.7547
  220MOL0     H28978   8.371   8.930   5.278  0.0567  0.8364 -0.4677
  220MOL0     H28979   8.170   8.807   5.212 -1.3658 -1.4176 -0.4584
  220MOL0     H28980   8.251   8.741   5.067  0.9304  1.9629 -2.4105
  220MOL0     H28981   8.270   8.982   4.973 -0.8438 -0.4022 -1.0613
  220MOL0     H28982   8.223   9.033   5.128  3.7477 -1.8711  0.9639
  220MOL0     H28983   8.045   8.888   4.904  0.7427  2.2732 -2.1712
  220MOL0     H28984   7.988   8.905   5.068 -0.8256  0.5369  0.6282
  220MOL0     H28985   8.081   9.155   4.911  0.1346  0.9786  0.7031
  220MOL0     H28986   7.981   9.147   5.053 -1.0454  1.2440 -0.7909
  220MOL0     H28987   7.844   8.980   4.880 -1.8375  0.0395 -1.7913
  220MOL0     H28988   7.918   9.087   4.763 -0.6354 -0.6568 -1.0303
  220MOL0     H28989   7.765   9.192   5.014  1.8930  0.8914  0.2234
  220MOL0     H28990   7.803   9.291   4.871  2.5844 -0.5887  0.7228
  220MOL0     H28991   7.636   9.039   4.857  2.2102 -0.4306  3.4414
  220MOL0     H28992   7.670   9.138   4.719  2.3933 -4.9155  0.7449
  220MOL0     H28993   7.570   9.404   4.737  0.5394 -2.2795 -0.7722
  220MOL0     H28994   7.353   9.594   4.791 -0.9761  1.5543  1.4107
  220MOL0     H28995   7.395   9.576   4.962  1.6625 -2.1138 -0.2267
  220MOL0     H28996   7.164   9.633   4.950 -0.0560 -1.4486  1.6884
  220MOL0     H28997   7.157   9.475   5.006  3.6344 -3.2604 -0.7970
  220MOL0     H28998   7.152   9.512   4.705 -0.7989 -0.9944 -0.7914
  220MOL0     H28999   7.083   9.378   4.800 -1.1658 -1.1092  1.8707
  220MOL0     H29000   6.975   9.658   4.758  0.7735  1.3106  4.1888
  220MOL0     H29001   6.917   9.563   4.893 -3.5364 -0.6103 -1.2030
  220MOL0     H29002   6.772   9.709   4.870  0.7327 -0.0081  0.1341
  220MOL0     H29003   6.538   9.767   4.894  1.4759  0.2931  1.8808
  220MOL0     H29004   6.084   9.429   4.897  1.3292  2.4017  2.2988
  220MOL0     H29005   5.845   9.456   4.963 -1.4101  2.2888  1.8693
  220MOL0     H29006   5.673   9.595   5.098 -2.5442  0.2879  0.0861
  220MOL0     H29007   5.643   9.485   4.960 -0.0713 -0.0981 -2.2986
  220MOL0     H29008   5.465   9.647   4.871 -1.0708  3.1396  0.2319
  220MOL0     H29009   5.471   9.734   5.024 -1.2833 -2.0655  2.2861
  220MOL0     H29010   5.438   9.501   5.156  1.1270 -2.8966 -0.4635
  220MOL0     H29011   5.436   9.428   5.006  1.2994 -0.0717  1.4974
  220MOL0     H29012   5.232   9.595   5.147 -1.1271  0.6800 -1.3820
  220MOL0     H29013   5.245   9.627   4.983  2.5309  2.6331  1.1823
  220MOL0     H29014   5.236   9.356   5.132  1.5692 -1.0102 -0.9349
  220MOL0     H29015   5.253   9.355   4.958  1.2837  0.3939  0.1537
  220MOL0     H29016   5.037   9.301   4.972 -0.7298  0.2383 -0.5334
  220MOL0     H29017   5.042   9.472   4.922 -1.9964  1.4806  1.7880
  220MOL0     H29018   4.992   9.383   5.202 -1.5163  1.1228  0.8506
  220MOL0     H29019   4.960   9.543   5.135  0.0171 -0.7365  0.9434
  220MOL0     H29020   4.747   9.381   5.167  2.3365 -1.0215  2.8760
  220MOL0     H29021   4.820   9.282   5.047  3.2382  1.0331 -1.1345
  220MOL0     H29022   5.833   9.836   4.758 -3.5167 -1.7295 -1.1735
  220MOL0     H29023   6.068   9.794   4.667 -2.3226 -0.2728 -2.8978
  220MOL0     H29024   6.404   9.478   4.619 -0.8686  1.2157  0.9468
  220MOL0     H29025   6.659   9.404   4.581  0.7088 -4.6334  3.0570
  220MOL0     H29026   8.598   8.541   5.359 -0.1412  0.2945  2.7441
  220MOL0     H29027   8.841   8.553   5.395  1.8481  0.6182 -1.6497
  220MOL0     H29028   9.185   8.960   5.406  2.2224  2.2842  0.0542
  220MOL0     H29029   9.392   9.036   5.473 -0.9856  0.6057  1.2730
  220MOL0     H29030   9.702   8.824   5.565 -1.1694  0.4765 -0.8475
  220MOL0     H29031   9.639   8.780   5.730 -3.8738 -0.3627 -1.1133
  220MOL0     H29032   9.747   8.998   5.795  0.3852  0.4032 -0.3330
  220MOL0     H29033   9.859   8.860   5.753 -2.0194 -1.6835 -0.3084
  220MOL0     H29034   9.778   9.088   5.565  0.7631  1.6467  1.5027
  220MOL0     H29035   9.879   8.952   5.526 -0.5054 -0.3216 -0.2796
  220MOL0     H29036  10.054   9.010   5.644 -0.2072 -0.8103 -0.4514
  220MOL0     H29037  10.010   9.174   5.587 -1.9665 -0.2940 -0.6931
  220MOL0     H29038   9.942   9.157   6.016 -2.1220 -1.2845 -0.3591
  220MOL0     H29039   9.459   8.699   5.713 -1.5719 -1.3252  0.2922
  220MOL0     H29040   9.217   8.641   5.700 -0.0927  0.9526 -0.1893
  221MOL0     O29041   1.787   9.061   7.558 -0.0150  0.2335  0.2176
  221MOL0     C29042   1.779   8.941   7.534 -0.4094  0.6060  1.4738
  221MOL0     O29043   1.667   8.860   7.551 -0.5686 -0.1003  0.2808
  221MOL0     C29044   1.547   8.916   7.585  0.8352  0.2224 -0.1600
  221MOL0     C29045   1.496   9.047   7.552  0.7430  0.0125  0.2656
  221MOL0     C29046   1.357   9.077   7.561 -0.9076 -0.3787 -0.4049
  221MOL0     C29047   1.273   8.988   7.632 -1.1245  0.6331  0.7183
  221MOL0     O29048   1.145   9.025   7.655  1.0414 -0.1742  0.1665
  221MOL0     C29049   1.060   8.913   7.691  0.3263 -0.4547  0.0960
  221MOL0     C29050   0.921   8.969   7.672  1.0101 -0.1809  1.3031
  221MOL0     C29051   0.869   9.051   7.790 -0.2168 -0.0149 -1.2867
  221MOL0     C29052   0.732   9.087   7.759  0.4119 -0.6195 -0.4660
  221MOL0     C29053   0.726   9.197   7.650  0.5311  0.0486  0.0196
  221MOL0     C29054   0.617   9.299   7.684  0.0819 -1.3418 -0.3902
  221MOL0     C29055   0.471   9.239   7.683 -0.0143 -0.0250  0.9567
  221MOL0     C29056   0.372   9.336   7.734  0.1265 -0.2872 -0.0613
  221MOL0     N29057   0.235   9.293   7.694  0.0793 -0.1809 -0.1147
  221MOL0     C29058   0.180   9.310   7.572  0.6149 -1.0519 -0.0828
  221MOL0     C29059   0.061   9.238   7.584  0.8032  0.3220  1.7143
  221MOL0     C29060  -0.043   9.208   7.476 -0.9361 -1.0000  0.4718
  221MOL0     C29061  -0.177   9.166   7.543 -1.2692 -0.1558  0.6450
  221MOL0     C29062  -0.291   9.201   7.447  0.2715  0.0120 -0.3361
  221MOL0     C29063  -0.428   9.151   7.515  0.3277  0.3282 -0.5506
  221MOL0     O29064  -0.414   9.013   7.549  0.1350  0.3557  0.2715
  221MOL0     C29065  -0.520   8.936   7.589 -0.5352 -0.2160  0.8637
  221MOL0     C29066  -0.652   8.986   7.600  0.0753 -0.4107  0.2744
  221MOL0     C29067  -0.759   8.901   7.610  0.3490  0.0153 -0.5438
  221MOL0     C29068  -0.746   8.765   7.634 -1.2395  0.1937 -0.1439
  221MOL0     C29069  -0.855   8.678   7.657  0.5611 -1.1345  0.9989
  221MOL0     O29070  -0.830   8.548   7.698 -0.0379  0.2207 -0.3965
  221MOL0     C29071  -0.935   8.459   7.716  0.9257  0.5801 -0.1410
  221MOL0     C29072  -1.055   8.487   7.786 -1.3314 -0.2900  0.8017
  221MOL0     C29073  -1.163   8.391   7.801 -0.0721  0.0294 -0.6094
  221MOL0     C29074  -1.143   8.262   7.748  0.0418  0.8178  0.0555
  221MOL0     O29075  -1.247   8.177   7.767  0.6409  0.0723 -0.2430
  221MOL0     C29076  -1.206   8.033   7.744  0.4675 -0.7943 -1.1092
  221MOL0     C29077  -1.333   7.947   7.750 -0.1395  0.0654  0.0894
  221MOL0     C29078  -1.421   7.979   7.621 -0.4045 -0.0376 -0.2079
  221MOL0     C29079  -1.577   7.941   7.643 -0.1034  0.0374 -0.1289
  221MOL0     C29080  -1.678   8.005   7.549 -0.2889 -0.3338  0.3124
  221MOL0     C29081  -1.830   7.965   7.565 -0.1844  0.2542  0.4291
  221MOL0     C29082  -1.847   7.831   7.507 -0.0281 -0.3397 -0.1678
  221MOL0     C29083  -1.998   7.781   7.517 -0.6748  0.1250  0.1746
  221MOL0    Cl29084  -2.065   7.804   7.690 -0.1565  0.8588 -0.0083
  221MOL0     C29085  -1.021   8.235   7.684 -0.2104 -0.6731  0.9348
  221MOL0     C29086  -0.924   8.333   7.669  0.5603  0.8368  0.2086
  221MOL0     O29087  -0.973   8.723   7.638 -0.3756  0.1690  0.7209
  221MOL0     C29088  -0.611   8.717   7.624  0.2924  0.7773 -0.4048
  221MOL0     C29089  -0.503   8.798   7.595 -0.0915  0.7012  0.1120
  221MOL0     N29090   0.056   9.173   7.705 -0.0947  0.3469  0.0358
  221MOL0     N29091   0.158   9.213   7.772  0.2560  0.7793 -0.6247
  221MOL0     C29092   1.330   8.872   7.697  0.0801  0.0518 -0.0134
  221MOL0     C29093   1.462   8.834   7.672 -0.0546 -0.1622  0.9105
  221MOL0     C29094   1.904   8.883   7.489 -0.0267  0.0223 -0.0945
  221MOL0     C29095   1.916   8.743   7.483  0.8587 -0.6623 -0.0534
  221MOL0     C29096   2.036   8.690   7.443 -0.1202 -0.4594  0.5924
  221MOL0     C29097   2.136   8.775   7.390 -0.6213  0.5294 -0.0036
  221MOL0     O29098   2.256   8.729   7.336 -0.2357 -0.5450 -0.2388
  221MOL0     C29099   2.279   8.595   7.295 -0.2112 -0.2706 -0.4521
  221MOL0     C29100   2.186   8.555   7.180  1.0893 -0.5003 -0.1161
  221MOL0     C29101   2.213   8.650   7.061  0.9549  1.0886 -0.7811
  221MOL0     C29102   2.120   8.620   6.944 -0.2860  0.6204  0.4463
  221MOL0     C29103   2.121   8.484   6.885  0.3164  0.2036 -0.7520
  221MOL0     C29104   2.115   8.375   6.831 -1.0778  0.5624 -0.5514
  221MOL0     C29105   2.124   8.915   7.405 -0.9116 -0.2396  0.5669
  221MOL0     C29106   2.011   8.974   7.455 -0.0906 -0.9767  0.3336
  221MOL0     H29107   1.561   9.115   7.499 -0.8516  0.6294 -0.9621
  221MOL0     H29108   1.306   9.167   7.531 -1.9960 -0.3616  1.3743
  221MOL0     H29109   1.072   8.880   7.795 -0.7908 -1.6437 -0.1303
  221MOL0     H29110   1.085   8.835   7.618 -0.4791 -1.5577  0.9539
  221MOL0     H29111   0.848   8.888   7.661  0.4020  0.3411  1.4374
  221MOL0     H29112   0.927   9.026   7.579 -0.1429 -2.1793 -0.0765
  221MOL0     H29113   0.932   9.137   7.814 -1.0638  0.0465  0.9992
  221MOL0     H29114   0.867   9.001   7.887  2.2740  0.9305 -0.6649
  221MOL0     H29115   0.671   9.005   7.721  2.8448 -1.2538 -3.3817
  221MOL0     H29116   0.686   9.131   7.848 -2.2623 -0.6497 -1.7142
  221MOL0     H29117   0.711   9.139   7.559 -1.2686  1.1343 -0.4325
  221MOL0     H29118   0.824   9.246   7.646  0.0472  1.2536  1.5953
  221MOL0     H29119   0.629   9.385   7.618  2.1293 -2.4198 -1.5158
  221MOL0     H29120   0.640   9.325   7.787  4.8475 -2.8878 -0.8361
  221MOL0     H29121   0.444   9.207   7.582 -1.8438 -2.5586  2.1402
  221MOL0     H29122   0.465   9.153   7.750  0.2303 -0.3002  0.6264
  221MOL0     H29123   0.392   9.438   7.700  0.8815 -0.2930  0.3526
  221MOL0     H29124   0.391   9.353   7.840  3.5222 -0.7300 -0.4994
  221MOL0     H29125   0.212   9.374   7.490  1.5072  2.0098  2.4156
  221MOL0     H29126  -0.008   9.130   7.408 -2.4160 -1.5439  0.2785
  221MOL0     H29127  -0.057   9.295   7.412 -0.7114 -1.1937  0.1607
  221MOL0     H29128  -0.201   9.224   7.632 -0.0737  1.4580 -0.0427
  221MOL0     H29129  -0.177   9.059   7.568  1.6471 -0.2533  0.4706
  221MOL0     H29130  -0.292   9.310   7.453  1.6751 -0.0451  1.7841
  221MOL0     H29131  -0.273   9.162   7.346  1.9149 -1.0502  0.3150
  221MOL0     H29132  -0.517   9.160   7.452  0.5606  1.8232 -0.7179
  221MOL0     H29133  -0.444   9.213   7.604 -2.0125  0.0715 -0.7518
  221MOL0     H29134  -0.684   9.089   7.587 -4.5153 -1.7505 -0.8824
  221MOL0     H29135  -0.860   8.938   7.625  0.4200 -0.2257  0.6030
  221MOL0     H29136  -1.073   8.590   7.814 -2.1425  0.2115 -1.3249
  221MOL0     H29137  -1.252   8.427   7.852 -0.7579 -0.1695 -1.6262
  221MOL0     H29138  -1.124   7.997   7.808  0.6248 -2.3857 -2.1494
  221MOL0     H29139  -1.164   8.027   7.643 -0.7157  2.0138 -1.8447
  221MOL0     H29140  -1.384   7.979   7.841 -0.5084 -1.1055  0.3016
  221MOL0     H29141  -1.313   7.840   7.743  0.3200  0.2218 -1.5216
  221MOL0     H29142  -1.386   7.920   7.535 -1.9544 -0.8261 -0.3365
  221MOL0     H29143  -1.411   8.084   7.594 -0.4639 -0.3605 -1.5756
  221MOL0     H29144  -1.574   7.832   7.634 -1.5542  0.0878 -1.6767
  221MOL0     H29145  -1.613   7.966   7.743  2.1867  2.3098  0.2056
  221MOL0     H29146  -1.639   7.970   7.453  0.5566 -2.4581  1.3584
  221MOL0     H29147  -1.661   8.113   7.551  0.3946 -0.4274 -0.0850
  221MOL0     H29148  -1.883   8.031   7.496  0.1382 -0.6838 -0.7467
  221MOL0     H29149  -1.877   7.970   7.664 -1.3990  0.6240 -0.1495
  221MOL0     H29150  -1.810   7.835   7.404  3.3811  3.0401  0.9750
  221MOL0     H29151  -1.778   7.770   7.566  0.8800  1.2394  0.4622
  221MOL0     H29152  -1.999   7.676   7.486 -0.9899  0.1299  0.1695
  221MOL0     H29153  -2.061   7.841   7.451 -1.9196 -2.2200 -0.8864
  221MOL0     H29154  -0.997   8.139   7.640  0.7786  0.9571 -2.5013
  221MOL0     H29155  -0.835   8.318   7.608 -1.0937  2.9314 -2.9884
  221MOL0     H29156  -0.605   8.609   7.637 -2.5187  0.3308 -1.8805
  221MOL0     H29157  -0.409   8.755   7.565 -0.5570  0.4941 -1.1091
  221MOL0     H29158   1.272   8.805   7.760  0.9731  0.1938  0.9822
  221MOL0     H29159   1.477   8.733   7.708 -0.9936  0.4182  3.1202
  221MOL0     H29160   1.850   8.672   7.531  2.9723 -2.5071  0.2872
  221MOL0     H29161   2.048   8.582   7.448 -2.1390 -0.7687 -0.3445
  221MOL0     H29162   2.286   8.523   7.377  3.8359  1.9174  1.4223
  221MOL0     H29163   2.383   8.598   7.261 -1.1507 -0.0264 -3.6699
  221MOL0     H29164   2.220   8.453   7.160  0.7853 -0.3280 -1.6464
  221MOL0     H29165   2.082   8.555   7.212  0.3961  1.7514 -2.0123
  221MOL0     H29166   2.316   8.627   7.032  1.4204  1.4961  0.4844
  221MOL0     H29167   2.203   8.758   7.078 -2.0293  0.3881  3.5946
  221MOL0     H29168   2.014   8.623   6.972 -0.5851 -4.0272  0.4661
  221MOL0     H29169   2.143   8.695   6.867  2.4071  1.3483  1.8624
  221MOL0     H29170   2.119   8.285   6.773  1.2428  0.9849 -1.1776
  221MOL0     H29171   2.203   8.978   7.364 -3.1200 -0.0430 -3.8753
  221MOL0     H29172   2.014   9.081   7.471  1.7787 -0.3758 -3.0780
  222MOL0     O29173   6.602   8.422   5.782 -0.7011  0.4076 -0.3293
  222MOL0     C29174   6.705   8.387   5.834 -0.8932 -0.6918 -0.4833
  222MOL0     O29175   6.765   8.270   5.816  0.1138  0.8016 -0.1554
  222MOL0     C29176   6.722   8.182   5.725  0.0183 -0.6331 -0.8542
  222MOL0     C29177   6.766   8.204   5.600 -0.3646 -0.1413  1.0604
  222MOL0     C29178   6.741   8.116   5.493 -0.3440  0.9914 -0.0897
  222MOL0     C29179   6.657   8.002   5.522  1.1744  0.5524 -0.1885
  222MOL0     O29180   6.627   7.905   5.427 -0.4109  0.4872 -0.0635
  222MOL0     C29181   6.747   7.837   5.395 -1.7285  0.0365 -0.1084
  222MOL0     C29182   6.735   7.696   5.453 -0.6495 -0.3989  0.3340
  222MOL0     C29183   6.655   7.601   5.357  0.4367  0.2171  1.3770
  222MOL0     C29184   6.497   7.612   5.379 -0.1452  0.8659 -0.6783
  222MOL0     C29185   6.427   7.489   5.313 -0.6059 -0.0842 -0.2734
  222MOL0     C29186   6.273   7.491   5.348 -0.1722 -1.4022 -0.2891
  222MOL0     C29187   6.184   7.382   5.292  0.0082  0.0666 -0.6531
  222MOL0     C29188   6.059   7.450   5.230 -0.2960  0.3813  0.8634
  222MOL0     N29189   6.093   7.544   5.120  0.5511 -0.4065  0.4788
  222MOL0     C29190   6.176   7.514   5.016  0.0379  0.0351  0.4115
  222MOL0     C29191   6.218   7.632   4.964  1.1161  0.7506 -0.4274
  222MOL0     C29192   6.291   7.669   4.847 -0.1447  0.1409  0.7997
  222MOL0     C29193   6.441   7.640   4.863  0.0339 -0.4407  0.9175
  222MOL0     C29194   6.478   7.496   4.865 -0.6515 -0.6617  0.2155
  222MOL0     C29195   6.436   7.406   4.751 -0.0942  0.0128  0.4132
  222MOL0     O29196   6.307   7.359   4.772 -0.3157  0.1489  0.9190
  222MOL0     C29197   6.240   7.307   4.661  0.5756  0.0242  0.5439
  222MOL0     C29198   6.300   7.217   4.568  0.4528 -0.6110 -0.8177
  222MOL0     C29199   6.207   7.152   4.486 -0.4721  1.0768  0.1335
  222MOL0     C29200   6.069   7.164   4.499  0.0876  0.1023 -0.2585
  222MOL0     C29201   5.983   7.081   4.416  0.0746 -0.9049  0.2607
  222MOL0     O29202   6.039   7.007   4.317  0.1686  0.5714 -0.6827
  222MOL0     C29203   5.953   6.948   4.229  0.7438  0.1283 -0.7282
  222MOL0     C29204   5.833   7.001   4.188 -0.2673  0.3129  1.3105
  222MOL0     C29205   5.747   6.929   4.101 -0.2653  0.4034 -0.0209
  222MOL0     C29206   5.777   6.802   4.051 -0.7079  0.1486 -0.2770
  222MOL0     O29207   5.701   6.733   3.962  0.1217 -0.3422  0.7698
  222MOL0     C29208   5.579   6.792   3.917  0.1939  0.1760  0.9256
  222MOL0     C29209   5.513   6.713   3.814 -0.2906 -0.1141 -0.1521
  222MOL0     C29210   5.371   6.768   3.794 -0.7473 -0.0508 -0.5456
  222MOL0     C29211   5.302   6.688   3.680 -0.3767  0.4742 -0.1903
  222MOL0     C29212   5.171   6.743   3.636  0.2479  0.0855 -0.0707
  222MOL0     C29213   5.100   6.629   3.560 -0.0196 -0.0335 -0.6696
  222MOL0     C29214   4.978   6.675   3.472  0.5040 -0.0756  0.2160
  222MOL0     C29215   5.029   6.741   3.344 -0.6380  0.1613  0.2405
  222MOL0    Cl29216   5.048   6.612   3.226 -0.2446  0.3421 -0.0989
  222MOL0     C29217   5.908   6.761   4.081 -0.5736 -0.0333  0.4983
  222MOL0     C29218   5.991   6.832   4.167 -0.6439 -0.1704  0.2736
  222MOL0     O29219   5.869   7.090   4.447  0.5394  0.4076  0.5701
  222MOL0     C29220   6.018   7.262   4.588  0.6548 -0.7968 -0.2883
  222MOL0     C29221   6.108   7.332   4.665  0.3716 -0.4297 -0.2619
  222MOL0     N29222   6.151   7.731   5.033 -0.5573 -0.1079 -0.0694
  222MOL0     N29223   6.077   7.679   5.127 -0.2370  0.4468  0.1064
  222MOL0     C29224   6.602   7.985   5.649 -0.1069  0.1543 -1.1511
  222MOL0     C29225   6.639   8.073   5.746  0.4905  0.8792 -0.7197
  222MOL0     C29226   6.762   8.475   5.932 -0.1657  0.1587 -0.1063
  222MOL0     C29227   6.724   8.605   5.940  0.5569  0.7887  0.6614
  222MOL0     C29228   6.773   8.690   6.034  1.0189  0.3756 -0.1832
  222MOL0     C29229   6.879   8.654   6.124  0.4746  0.1263 -0.1343
  222MOL0     O29230   6.943   8.731   6.215  0.4852  0.1281  0.0434
  222MOL0     C29231   7.028   8.833   6.145  0.9847 -0.0694 -0.4968
  222MOL0     C29232   7.166   8.767   6.152 -0.7202  0.1357  0.3566
  222MOL0     C29233   7.243   8.768   6.295  0.3299  0.0312 -0.0312
  222MOL0     C29234   7.367   8.690   6.292 -0.5616 -0.0462 -0.0885
  222MOL0     C29235   7.481   8.777   6.261 -0.0136 -0.1435 -0.3242
  222MOL0     C29236   7.585   8.841   6.234 -0.1039 -0.2394  1.0989
  222MOL0     C29237   6.913   8.522   6.118 -0.5123 -1.0488  0.4316
  222MOL0     C29238   6.859   8.437   6.021  0.1173  0.3062 -0.4042
  222MOL0     H29239   6.826   8.293   5.586  0.7543 -0.7019  2.0756
  222MOL0     H29240   6.785   8.151   5.400 -0.0371  0.2579 -0.2246
  222MOL0     H29241   6.844   7.878   5.425 -0.9623 -0.4000 -1.8468
  222MOL0     H29242   6.762   7.829   5.287  1.6757  1.3518  0.1372
  222MOL0     H29243   6.689   7.700   5.552  2.1673  1.1336  1.7187
  222MOL0     H29244   6.835   7.654   5.461 -0.1418  0.5665 -0.6686
  222MOL0     H29245   6.669   7.493   5.372  1.4026  0.0955 -0.2343
  222MOL0     H29246   6.677   7.632   5.255  1.2025 -0.3983  1.3478
  222MOL0     H29247   6.471   7.600   5.485  3.7826 -1.0142  0.2454
  222MOL0     H29248   6.452   7.707   5.351 -3.1946 -0.4315 -0.6019
  222MOL0     H29249   6.476   7.394   5.338 -0.3067  0.1265 -0.0573
  222MOL0     H29250   6.446   7.493   5.205  1.8864  2.3201  0.1520
  222MOL0     H29251   6.240   7.590   5.317 -2.0549 -1.3679  1.6126
  222MOL0     H29252   6.254   7.497   5.456 -0.3615 -0.9636 -0.3448
  222MOL0     H29253   6.228   7.329   5.207  0.3865  0.7909 -0.9211
  222MOL0     H29254   6.167   7.305   5.367  1.7104  0.4794  0.2000
  222MOL0     H29255   5.992   7.501   5.301 -2.3052 -1.7051  0.5928
  222MOL0     H29256   6.014   7.360   5.189  2.4246 -2.3250  3.3236
  222MOL0     H29257   6.199   7.409   4.999 -1.5254 -0.1062 -1.0743
  222MOL0     H29258   6.293   7.779   4.839  1.5247 -0.0054 -2.0079
  222MOL0     H29259   6.245   7.627   4.757  2.1586 -0.7027 -0.0630
  222MOL0     H29260   6.468   7.696   4.954  3.7537 -1.1782  0.4255
  222MOL0     H29261   6.498   7.676   4.777  3.0176 -5.1368  0.6033
  222MOL0     H29262   6.586   7.506   4.860 -0.5579 -2.1312 -3.4284
  222MOL0     H29263   6.451   7.456   4.964  0.8729 -3.1507 -0.2917
  222MOL0     H29264   6.492   7.312   4.754 -2.0647 -1.2310  0.4921
  222MOL0     H29265   6.454   7.456   4.655 -0.9060 -0.8918 -0.2317
  222MOL0     H29266   6.406   7.197   4.578  0.3300 -3.2647 -3.4699
  222MOL0     H29267   6.248   7.081   4.416 -1.9918  0.4897 -0.1920
  222MOL0     H29268   5.810   7.102   4.217  2.0761  0.5189  2.6976
  222MOL0     H29269   5.647   6.962   4.073 -0.0493 -0.5319 -2.0920
  222MOL0     H29270   5.592   6.891   3.872 -0.9541  1.0199  2.3447
  222MOL0     H29271   5.508   6.809   3.999 -3.2104  1.0257 -1.9693
  222MOL0     H29272   5.513   6.609   3.848  0.5330 -0.4851 -1.2122
  222MOL0     H29273   5.568   6.707   3.719 -0.5316  2.6141 -0.5580
  222MOL0     H29274   5.383   6.872   3.761  0.3525  0.5806  1.6855
  222MOL0     H29275   5.323   6.754   3.891  2.1020 -1.9105  0.7236
  222MOL0     H29276   5.368   6.671   3.595  1.7469  1.7309  1.1269
  222MOL0     H29277   5.280   6.587   3.715 -0.5238  0.0341 -1.4860
  222MOL0     H29278   5.189   6.831   3.574  0.2473  0.9653  1.1575
  222MOL0     H29279   5.098   6.774   3.712 -2.7962 -1.9858 -1.8819
  222MOL0     H29280   5.063   6.557   3.634 -1.1652  1.4456  0.2497
  222MOL0     H29281   5.172   6.572   3.501  0.5151 -3.1589  2.6516
  222MOL0     H29282   4.919   6.586   3.449  1.4794 -1.1187  1.6040
  222MOL0     H29283   4.909   6.739   3.528 -0.9290 -0.5520 -0.9592
  222MOL0     H29284   5.120   6.800   3.359 -0.1491 -0.4014 -0.4340
  222MOL0     H29285   4.952   6.799   3.292 -0.0725  1.6900  1.0484
  222MOL0     H29286   5.936   6.668   4.031  0.3680  0.3711  0.2607
  222MOL0     H29287   6.079   6.784   4.207 -1.5118 -0.0469  2.4404
  222MOL0     H29288   5.915   7.286   4.610  0.4808 -0.7152 -1.1708
  222MOL0     H29289   6.069   7.406   4.734  0.0146 -2.7195  2.1373
  222MOL0     H29290   6.550   7.891   5.668 -1.1088  0.9811  0.3855
  222MOL0     H29291   6.599   8.058   5.845  1.6937  0.5379 -0.2689
  222MOL0     H29292   6.650   8.655   5.878 -1.3038 -2.8690 -0.3514
  222MOL0     H29293   6.732   8.790   6.043 -1.4067 -0.7169  6.0777
  222MOL0     H29294   7.030   8.927   6.201 -1.4243 -0.0374 -0.3864
  222MOL0     H29295   7.004   8.850   6.039  2.8219  3.2053 -0.5425
  222MOL0     H29296   7.171   8.663   6.120  1.9342  0.2434  0.2357
  222MOL0     H29297   7.220   8.819   6.072  1.9908 -3.6341 -0.5704
  222MOL0     H29298   7.166   8.739   6.367 -0.9061  4.2296  0.6485
  222MOL0     H29299   7.265   8.868   6.334  2.3732 -0.9008  1.3507
  222MOL0     H29300   7.386   8.648   6.391  2.1902 -0.1317 -0.5844
  222MOL0     H29301   7.370   8.610   6.218  0.0158  0.7273 -0.9208
  222MOL0     H29302   7.676   8.889   6.204 -0.9341 -0.4100 -2.0717
  222MOL0     H29303   6.987   8.479   6.185 -0.4869 -2.1190 -0.2541
  222MOL0     H29304   6.897   8.336   6.016  0.3577  0.3616  0.2764
  223MOL0     O29305   5.237   7.504   8.722 -0.3710  0.6690  0.1120
  223MOL0     C29306   5.274   7.603   8.773 -0.9008  0.7714  0.5084
  223MOL0     O29307   5.205   7.718   8.783  0.0690 -0.1467 -0.0781
  223MOL0     C29308   5.071   7.715   8.758  0.3540  0.4229  0.1739
  223MOL0     C29309   5.024   7.774   8.639  0.3586 -0.1467 -1.0695
  223MOL0     C29310   4.890   7.769   8.609  0.3788 -0.5552  0.1638
  223MOL0     C29311   4.797   7.707   8.696  0.2857 -0.4010  0.1187
  223MOL0     O29312   4.662   7.687   8.680  0.1615 -0.1334  0.7107
  223MOL0     C29313   4.590   7.749   8.573 -0.1375 -0.1947 -0.1239
  223MOL0     C29314   4.446   7.717   8.571  0.8979 -0.5817 -0.5963
  223MOL0     C29315   4.369   7.779   8.458  0.2661  0.0384  0.8213
  223MOL0     C29316   4.407   7.713   8.332 -0.3301  0.5555  0.8595
  223MOL0     C29317   4.330   7.763   8.213 -0.5760 -0.3008  0.2211
  223MOL0     C29318   4.361   7.710   8.074  0.7621 -0.3346  0.2398
  223MOL0     C29319   4.271   7.796   7.981  0.5198 -0.1338  0.0606
  223MOL0     C29320   4.285   7.776   7.829 -0.3372  0.0076 -0.7632
  223MOL0     N29321   4.233   7.886   7.748 -0.7029  0.2968  0.0788
  223MOL0     C29322   4.221   8.022   7.761 -0.3092 -0.0208 -0.7217
  223MOL0     C29323   4.128   8.063   7.667 -0.2088  0.3371  1.0031
  223MOL0     C29324   4.078   8.209   7.652  0.2244  0.3824  0.4597
  223MOL0     C29325   3.961   8.239   7.747 -0.0056  0.2744 -0.3602
  223MOL0     C29326   3.864   8.360   7.718  0.3672  0.4001 -0.0286
  223MOL0     C29327   3.729   8.356   7.796 -0.3482  0.1785  0.2995
  223MOL0     O29328   3.637   8.437   7.728  0.1218  0.1597  0.6435
  223MOL0     C29329   3.513   8.479   7.773  0.0815 -0.6826 -0.9673
  223MOL0     C29330   3.455   8.585   7.703 -0.3005 -1.0686 -0.8190
  223MOL0     C29331   3.341   8.651   7.748  0.2150  0.5184  0.7471
  223MOL0     C29332   3.269   8.599   7.853  0.2411 -0.9897  0.3621
  223MOL0     C29333   3.140   8.657   7.897  0.2602  0.2534  0.5619
  223MOL0     O29334   3.080   8.613   8.006 -0.1939  0.1611  0.4276
  223MOL0     C29335   2.954   8.667   8.037 -1.0995  0.3841  0.2160
  223MOL0     C29336   2.948   8.755   8.145  0.3791 -0.0244 -0.9034
  223MOL0     C29337   2.829   8.811   8.184 -0.4367 -0.3009  0.5999
  223MOL0     C29338   2.712   8.782   8.115  0.8474 -0.8999  0.4699
  223MOL0     O29339   2.591   8.841   8.161 -0.5520 -0.2066  0.5684
  223MOL0     C29340   2.511   8.755   8.243  0.3036  0.6323 -1.0077
  223MOL0     C29341   2.376   8.811   8.273  0.0914 -0.4720 -0.7349
  223MOL0     C29342   2.288   8.798   8.146 -0.0559  0.6333 -0.2159
  223MOL0     C29343   2.144   8.773   8.171  0.2842  0.2489  0.1058
  223MOL0     C29344   2.076   8.890   8.245 -0.1910 -0.1996  0.1300
  223MOL0     C29345   1.928   8.864   8.248  0.5667  0.8295  0.2399
  223MOL0     C29346   1.864   8.956   8.356 -0.3160  0.4679  0.5457
  223MOL0     C29347   1.810   8.888   8.482  0.6476  0.3546  0.3281
  223MOL0    Cl29348   1.943   8.804   8.553  0.4087 -0.3248  0.1389
  223MOL0     C29349   2.718   8.686   8.013  0.6847 -0.4961  0.0569
  223MOL0     C29350   2.836   8.631   7.971 -0.4203  0.5116 -0.6919
  223MOL0     O29351   3.093   8.737   7.814 -0.6707  0.2336  0.7008
  223MOL0     C29352   3.314   8.482   7.916 -0.0136 -0.4544 -0.0016
  223MOL0     C29353   3.437   8.421   7.875  0.1036 -0.4652 -0.2217
  223MOL0     N29354   4.085   7.950   7.597  0.5161 -0.3724 -0.3237
  223MOL0     N29355   4.153   7.852   7.639  0.2471  0.1219 -0.2638
  223MOL0     C29356   4.844   7.642   8.815 -0.3016  0.2436  0.6252
  223MOL0     C29357   4.983   7.641   8.840 -0.1354 -0.9333  0.0421
  223MOL0     C29358   5.417   7.610   8.803 -0.3215  0.2337 -0.5173
  223MOL0     C29359   5.510   7.517   8.748 -0.0540  0.2819 -0.2865
  223MOL0     C29360   5.643   7.522   8.782 -0.4302  0.2092  0.5955
  223MOL0     C29361   5.703   7.622   8.859  0.0030  0.1471  0.8520
  223MOL0     O29362   5.836   7.600   8.901  0.0722 -0.4276 -0.1223
  223MOL0     C29363   5.918   7.721   8.897 -0.1201  0.5109  0.2954
  223MOL0     C29364   6.066   7.694   8.864 -0.4073 -0.2238  0.3639
  223MOL0     C29365   6.155   7.811   8.823 -0.2674 -0.1553  0.1421
  223MOL0     C29366   6.293   7.771   8.793 -0.3986  0.3137  0.3813
  223MOL0     C29367   6.360   7.849   8.682 -0.8803  0.3020  0.6230
  223MOL0     C29368   6.397   7.906   8.581  0.3511 -0.3449  0.1011
  223MOL0     C29369   5.617   7.721   8.902 -0.0102 -0.1168  0.0466
  223MOL0     C29370   5.477   7.717   8.872  0.1475 -0.1356  0.4824
  223MOL0     H29371   5.107   7.802   8.575 -0.2722  0.8568 -1.4705
  223MOL0     H29372   4.868   7.812   8.512  1.1722 -2.5337 -0.9466
  223MOL0     H29373   4.642   7.741   8.477  1.8195  2.2653  0.6107
  223MOL0     H29374   4.585   7.855   8.598 -2.7539 -0.6664  1.8374
  223MOL0     H29375   4.409   7.756   8.666 -1.2854  1.3166 -2.1378
  223MOL0     H29376   4.429   7.609   8.574 -0.7203 -0.3653 -1.0968
  223MOL0     H29377   4.387   7.887   8.457  0.4163  0.0330 -1.6880
  223MOL0     H29378   4.263   7.767   8.483 -0.2737  3.5527  0.7051
  223MOL0     H29379   4.513   7.731   8.313  0.1329 -0.7880  2.0108
  223MOL0     H29380   4.397   7.604   8.341  2.0634  0.2991  0.9028
  223MOL0     H29381   4.346   7.871   8.207 -0.6740 -0.3719 -3.1226
  223MOL0     H29382   4.226   7.741   8.239 -0.3861  0.4804  1.7949
  223MOL0     H29383   4.320   7.608   8.073 -0.5903  0.1795  0.6635
  223MOL0     H29384   4.466   7.715   8.045  1.4148  0.0885  2.4807
  223MOL0     H29385   4.166   7.786   8.012 -0.2448  1.8583 -1.6274
  223MOL0     H29386   4.294   7.903   7.991 -1.7975  0.3796  0.5141
  223MOL0     H29387   4.247   7.679   7.798 -0.7706 -0.2536  0.5216
  223MOL0     H29388   4.392   7.775   7.805 -0.3219 -1.2951 -0.6773
  223MOL0     H29389   4.249   8.087   7.844 -5.1337 -0.8706  1.9186
  223MOL0     H29390   4.053   8.233   7.548  0.7099 -0.4580  0.1335
  223MOL0     H29391   4.157   8.282   7.672  2.1352 -1.4737  0.0860
  223MOL0     H29392   4.005   8.262   7.844  2.9758  0.2163 -1.6189
  223MOL0     H29393   3.893   8.153   7.746 -0.6559  0.7315 -2.8595
  223MOL0     H29394   3.910   8.453   7.752  2.7945  1.8554 -5.9297
  223MOL0     H29395   3.830   8.361   7.614  1.1355 -1.3100 -0.3377
  223MOL0     H29396   3.736   8.385   7.901 -0.8014  1.3561  0.0246
  223MOL0     H29397   3.695   8.252   7.790 -2.7875  0.9889 -2.2118
  223MOL0     H29398   3.512   8.625   7.620  1.2809  0.1354  0.7653
  223MOL0     H29399   3.307   8.743   7.700  0.2926 -0.7825 -2.0102
  223MOL0     H29400   3.040   8.782   8.196  0.7845  2.4782 -2.7588
  223MOL0     H29401   2.807   8.872   8.271 -1.6668  0.1769 -0.0231
  223MOL0     H29402   2.571   8.760   8.334  0.0214 -1.2508 -0.6786
  223MOL0     H29403   2.514   8.651   8.208  1.7714  1.7100 -4.5571
  223MOL0     H29404   2.367   8.913   8.310 -0.8426 -1.2978  1.5368
  223MOL0     H29405   2.339   8.742   8.350  1.3857 -0.8013 -0.3853
  223MOL0     H29406   2.316   8.704   8.097 -1.4267 -0.3241  0.7318
  223MOL0     H29407   2.296   8.879   8.074  0.3591  0.9930  0.2275
  223MOL0     H29408   2.082   8.760   8.083 -1.5343 -1.3589  1.5526
  223MOL0     H29409   2.128   8.672   8.210  1.3208 -0.2184 -0.6228
  223MOL0     H29410   2.106   8.985   8.200 -0.7491  0.6353  1.4702
  223MOL0     H29411   2.122   8.899   8.343 -1.9415 -1.9833  1.2050
  223MOL0     H29412   1.910   8.761   8.278  1.7384  0.7538  0.6981
  223MOL0     H29413   1.892   8.880   8.146  0.8967 -3.3853 -0.6837
  223MOL0     H29414   1.940   9.034   8.372  3.8258 -1.1529 -6.8625
  223MOL0     H29415   1.785   9.010   8.304  0.5159  0.7013 -0.4964
  223MOL0     H29416   1.724   8.822   8.470  0.3572  0.8944 -0.6666
  223MOL0     H29417   1.782   8.967   8.552  0.6247 -0.5944  1.4213
  223MOL0     H29418   2.627   8.671   7.956  1.3759  0.5662 -1.4203
  223MOL0     H29419   2.829   8.568   7.883 -5.3087  3.3454 -2.7830
  223MOL0     H29420   3.249   8.435   7.990 -0.4851 -1.5528 -1.0725
  223MOL0     H29421   3.475   8.328   7.915  0.3799  0.0784  0.8138
  223MOL0     H29422   4.767   7.596   8.876 -1.6198 -1.3762 -2.0963
  223MOL0     H29423   5.024   7.592   8.928  2.7633 -0.6199 -1.0258
  223MOL0     H29424   5.476   7.441   8.679  0.0924  1.1392 -1.3381
  223MOL0     H29425   5.697   7.436   8.742 -2.5122 -1.3854  1.0785
  223MOL0     H29426   5.904   7.775   8.991  2.4359 -1.5121  1.9640
  223MOL0     H29427   5.880   7.780   8.813 -2.0951 -1.1323 -0.0475
  223MOL0     H29428   6.118   7.641   8.944  0.4332 -0.8492 -0.5673
  223MOL0     H29429   6.061   7.625   8.780  0.7979 -0.6941  0.6473
  223MOL0     H29430   6.163   7.884   8.904  1.3412 -1.8216  1.6046
  223MOL0     H29431   6.117   7.861   8.734 -1.2475  1.6372  1.5036
  223MOL0     H29432   6.351   7.780   8.885  0.7575 -2.1963 -0.0059
  223MOL0     H29433   6.287   7.664   8.771 -0.0250  0.0299  1.6130
  223MOL0     H29434   6.413   7.972   8.498 -1.1920  0.0455  0.0744
  223MOL0     H29435   5.664   7.802   8.958  0.5643 -0.8668  0.6888
  223MOL0     H29436   5.412   7.802   8.896 -1.7695 -0.9762 -1.3751
  224MOL0     O29437   3.038   4.981   0.490 -0.3004  0.2271  0.3592
  224MOL0     C29438   2.994   4.947   0.599  0.7567 -0.7685 -0.4688
  224MOL0     O29439   3.072   4.895   0.703  0.8769  1.4631  0.3620
  224MOL0     C29440   3.197   4.841   0.673 -0.0274 -1.8063  0.4939
  224MOL0     C29441   3.313   4.883   0.741 -0.0584  0.3501 -0.1516
  224MOL0     C29442   3.440   4.834   0.702  0.5879 -0.9283 -0.1189
  224MOL0     C29443   3.457   4.754   0.592 -0.4386 -0.3230  0.1119
  224MOL0     O29444   3.584   4.710   0.554  0.9672 -1.0852 -0.5694
  224MOL0     C29445   3.602   4.593   0.481  0.1156 -0.3061  0.4922
  224MOL0     C29446   3.753   4.585   0.448  0.4539 -0.0047  1.3681
  224MOL0     C29447   3.847   4.571   0.563 -0.2557  0.1190 -0.3356
  224MOL0     C29448   3.993   4.542   0.512  0.4379 -0.6323  0.0740
  224MOL0     C29449   4.011   4.415   0.422 -0.5006 -0.0347 -1.1552
  224MOL0     C29450   3.925   4.300   0.467 -0.1479  0.0044 -0.7894
  224MOL0     C29451   3.990   4.168   0.418  0.0092  0.5571 -0.3165
  224MOL0     C29452   3.913   4.036   0.441  0.1580  0.6031 -0.7761
  224MOL0     N29453   3.773   4.050   0.392 -0.3126 -0.4168 -0.2597
  224MOL0     C29454   3.652   4.021   0.447  0.5316  0.0779  0.7912
  224MOL0     C29455   3.562   4.048   0.344  0.5769 -0.1042  0.4002
  224MOL0     C29456   3.417   4.053   0.353  0.7207  0.5815 -0.1571
  224MOL0     C29457   3.363   4.159   0.455  0.0612  0.3271  1.0019
  224MOL0     C29458   3.397   4.138   0.602  0.7248  0.2959  0.6192
  224MOL0     C29459   3.339   4.016   0.675 -0.0039 -0.0190  1.0356
  224MOL0     O29460   3.220   3.959   0.616  0.4481  0.6919  0.1065
  224MOL0     C29461   3.095   4.006   0.650 -0.3835 -0.0391  0.1255
  224MOL0     C29462   3.044   3.996   0.773  0.3593  0.0787 -0.1667
  224MOL0     C29463   2.906   4.019   0.794 -0.1676 -1.0302 -0.6524
  224MOL0     C29464   2.821   4.051   0.689 -0.0254  0.2433  0.0607
  224MOL0     C29465   2.675   4.081   0.697  0.1128 -0.0221  0.0723
  224MOL0     O29466   2.594   4.038   0.593 -1.0996  0.0985 -1.0326
  224MOL0     C29467   2.463   4.032   0.610  1.0406 -0.1194  0.3423
  224MOL0     C29468   2.389   3.991   0.726 -1.6278  0.9593 -0.3938
  224MOL0     C29469   2.254   3.956   0.718 -0.6109 -0.9338 -0.4983
  224MOL0     C29470   2.180   3.972   0.598  0.2773  0.2619  0.5338
  224MOL0     O29471   2.043   3.938   0.598  0.4763  1.1598 -0.5124
  224MOL0     C29472   2.006   3.835   0.511 -0.1316  1.1815 -0.3513
  224MOL0     C29473   1.855   3.828   0.522  0.2569  0.6302 -0.2063
  224MOL0     C29474   1.793   3.690   0.511 -0.6914 -0.4658 -0.2435
  224MOL0     C29475   1.641   3.683   0.544  0.0957  0.4887  0.2491
  224MOL0     C29476   1.607   3.544   0.596  0.2221 -0.5688  0.2746
  224MOL0     C29477   1.645   3.431   0.495  0.0061 -0.4357 -0.7375
  224MOL0     C29478   1.541   3.411   0.381  0.0231 -0.0457 -0.2116
  224MOL0     C29479   1.541   3.273   0.319 -0.5319 -0.3890 -0.0298
  224MOL0    Cl29480   1.713   3.236   0.263  0.0036  0.0891  0.3950
  224MOL0     C29481   2.252   4.021   0.492 -0.4123 -0.0503 -0.6544
  224MOL0     C29482   2.387   4.057   0.493  0.0045  1.0220 -0.3558
  224MOL0     O29483   2.639   4.128   0.809  0.0623 -0.1314 -0.3199
  224MOL0     C29484   2.884   4.059   0.562  0.9079  0.2525 -0.0377
  224MOL0     C29485   3.015   4.044   0.543 -0.1064 -0.0005  0.0056
  224MOL0     N29486   3.629   4.098   0.235 -1.0001 -0.0949 -0.3921
  224MOL0     N29487   3.755   4.099   0.263  0.5288  0.4168  0.2482
  224MOL0     C29488   3.350   4.718   0.524 -0.2242 -0.2479  0.1519
  224MOL0     C29489   3.221   4.745   0.574  0.7185 -0.0568 -0.8261
  224MOL0     C29490   2.854   4.977   0.621  1.2010  0.6957  0.2027
  224MOL0     C29491   2.795   5.089   0.562 -0.1119 -0.0034 -0.3264
  224MOL0     C29492   2.659   5.119   0.588  0.0631  0.5156 -0.7095
  224MOL0     C29493   2.582   5.035   0.667  0.0936 -0.7186  0.0416
  224MOL0     O29494   2.448   5.046   0.688  0.6013 -0.0515  0.0581
  224MOL0     C29495   2.355   5.114   0.604 -0.1425  0.2490 -0.4879
  224MOL0     C29496   2.215   5.082   0.650  0.2366  0.4750 -0.9464
  224MOL0     C29497   2.196   5.105   0.805  1.0304  0.1169 -0.4260
  224MOL0     C29498   2.042   5.108   0.841 -0.2681  0.2877  1.1366
  224MOL0     C29499   1.991   5.245   0.820 -0.2701  0.6877  0.1945
  224MOL0     C29500   1.934   5.350   0.801  0.2338 -0.1546 -0.6768
  224MOL0     C29501   2.640   4.927   0.722 -0.3407 -1.0820 -0.0371
  224MOL0     C29502   2.770   4.897   0.702 -0.5463  0.5264 -0.1014
  224MOL0     H29503   3.303   4.957   0.820 -2.0903  0.2649 -0.2791
  224MOL0     H29504   3.516   4.878   0.766  0.0260  3.0317 -1.9131
  224MOL0     H29505   3.540   4.574   0.393  0.1297 -0.6279  0.5514
  224MOL0     H29506   3.581   4.515   0.555  3.1326 -1.1733  0.5814
  224MOL0     H29507   3.763   4.686   0.407  0.0882 -1.1577 -1.8787
  224MOL0     H29508   3.769   4.521   0.361 -2.0444  2.5426 -1.2027
  224MOL0     H29509   3.804   4.493   0.626 -0.1926 -1.0452 -1.6965
  224MOL0     H29510   3.859   4.664   0.620  0.7613  0.9811 -1.8540
  224MOL0     H29511   4.025   4.631   0.458  1.3313  2.1276  4.6706
  224MOL0     H29512   4.055   4.539   0.602  1.3911 -2.6233 -0.5667
  224MOL0     H29513   4.116   4.384   0.425 -1.2274 -2.7284 -0.9237
  224MOL0     H29514   3.982   4.425   0.317 -4.6231  1.2019 -0.0565
  224MOL0     H29515   3.821   4.321   0.439 -0.2457  1.1465  0.3291
  224MOL0     H29516   3.929   4.300   0.576  1.6322  2.9513 -0.7623
  224MOL0     H29517   4.003   4.169   0.309 -1.7832 -0.9528 -0.5830
  224MOL0     H29518   4.090   4.172   0.462  0.1345  0.1415 -0.5595
  224MOL0     H29519   3.920   4.001   0.544 -0.8436 -1.2288 -1.2959
  224MOL0     H29520   3.963   3.963   0.377 -2.0936 -0.0397 -1.8904
  224MOL0     H29521   3.640   3.972   0.543  1.6153 -1.9935 -0.0544
  224MOL0     H29522   3.396   3.954   0.394 -1.7360  0.8650 -0.5866
  224MOL0     H29523   3.370   4.069   0.256  2.1869 -1.2474 -1.2558
  224MOL0     H29524   3.255   4.159   0.438 -0.1652  2.7047  1.9945
  224MOL0     H29525   3.414   4.251   0.423  4.4030 -2.4266 -0.9478
  224MOL0     H29526   3.505   4.143   0.621  1.0175 -1.1353 -0.4568
  224MOL0     H29527   3.351   4.226   0.647  0.4679  1.7712 -2.2775
  224MOL0     H29528   3.336   4.033   0.783  0.5785  0.1604  1.0278
  224MOL0     H29529   3.418   3.943   0.658 -0.4193  0.1111 -1.9580
  224MOL0     H29530   3.107   3.948   0.848  0.4591  1.1118  0.4409
  224MOL0     H29531   2.868   4.023   0.896  1.1980  4.1754 -0.0552
  224MOL0     H29532   2.434   3.984   0.825 -1.3428 -3.1006 -0.6164
  224MOL0     H29533   2.215   3.918   0.811  1.0922  0.2687  0.7721
  224MOL0     H29534   2.043   3.737   0.542 -3.9792  0.5033  2.9672
  224MOL0     H29535   2.028   3.844   0.404  2.2478  0.6103  0.0334
  224MOL0     H29536   1.808   3.900   0.454 -2.1981 -0.0490  0.6567
  224MOL0     H29537   1.823   3.858   0.622  2.5093 -1.5388  1.2744
  224MOL0     H29538   1.845   3.646   0.597  2.1952  0.1515 -1.5490
  224MOL0     H29539   1.824   3.651   0.414  3.0258 -1.4623  1.1742
  224MOL0     H29540   1.617   3.764   0.615 -0.8544 -0.2024  0.7423
  224MOL0     H29541   1.589   3.701   0.450  0.3699  3.6986  0.5799
  224MOL0     H29542   1.502   3.538   0.624  0.4897 -1.2375  1.1850
  224MOL0     H29543   1.666   3.522   0.686  1.3185  0.1687 -0.2298
  224MOL0     H29544   1.664   3.345   0.559  1.8938  0.8208  0.4713
  224MOL0     H29545   1.737   3.458   0.444  0.3044  1.8085  0.8578
  224MOL0     H29546   1.448   3.448   0.426  0.3935 -2.3838  2.8011
  224MOL0     H29547   1.569   3.481   0.302  0.6616  1.0879  0.9715
  224MOL0     H29548   1.472   3.277   0.235 -0.3221 -1.7319 -0.2823
  224MOL0     H29549   1.510   3.193   0.386 -1.8816  0.6372  0.6281
  224MOL0     H29550   2.191   4.036   0.404 -5.1375 -3.4540  1.5746
  224MOL0     H29551   2.440   4.100   0.409  0.7578  3.1884  1.1247
  224MOL0     H29552   2.835   4.088   0.470  2.1911 -1.4036 -1.3034
  224MOL0     H29553   3.049   4.083   0.448 -3.1134  2.3562 -0.2377
  224MOL0     H29554   3.361   4.672   0.426  2.0594  0.6500 -0.0733
  224MOL0     H29555   3.147   4.705   0.505 -0.6998 -1.4064  1.3904
  224MOL0     H29556   2.854   5.149   0.493  1.3438 -0.1801  0.7151
  224MOL0     H29557   2.620   5.213   0.551  0.1729  1.4236  1.3136
  224MOL0     H29558   2.379   5.087   0.501  5.2474  0.9029  0.3099
  224MOL0     H29559   2.372   5.222   0.603 -3.1970  0.8430 -2.7335
  224MOL0     H29560   2.154   5.144   0.583 -1.4020  0.6018  0.6116
  224MOL0     H29561   2.191   4.977   0.633  1.5075  0.1894 -1.0751
  224MOL0     H29562   2.226   5.206   0.836 -1.5951  0.4516  1.3498
  224MOL0     H29563   2.243   5.029   0.868  1.8110  1.9716  1.3752
  224MOL0     H29564   1.983   5.048   0.771  1.0447  0.1451  0.1115
  224MOL0     H29565   2.029   5.064   0.940  0.6435  0.1253  1.1949
  224MOL0     H29566   1.888   5.446   0.796 -2.3662 -1.1805  1.4436
  224MOL0     H29567   2.572   4.865   0.780 -2.9518 -0.0277 -1.7872
  224MOL0     H29568   2.818   4.809   0.745 -1.9418 -0.8043 -1.1700
  225MOL0     O29569   0.230   7.595   0.281 -0.0079 -0.1291 -0.0097
  225MOL0     C29570   0.240   7.692   0.359 -0.0903  0.3047 -0.7706
  225MOL0     O29571   0.354   7.772   0.372 -0.2773  0.6787  0.7354
  225MOL0     C29572   0.472   7.704   0.338  0.6231 -0.4694 -0.5661
  225MOL0     C29573   0.565   7.790   0.284  0.5398  0.4657  0.8615
  225MOL0     C29574   0.692   7.753   0.237 -0.3597  0.0336  0.2537
  225MOL0     C29575   0.738   7.618   0.253  0.2493 -0.3598 -0.2802
  225MOL0     O29576   0.869   7.590   0.215 -0.0624 -0.2293 -0.3503
  225MOL0     C29577   0.974   7.684   0.223 -0.0975  0.0637  0.7150
  225MOL0     C29578   1.110   7.615   0.234 -0.0392 -0.8653  1.1836
  225MOL0     C29579   1.148   7.537   0.110  0.0547 -0.5777 -0.4147
  225MOL0     C29580   1.292   7.483   0.123  0.3583 -0.4193  0.5242
  225MOL0     C29581   1.330   7.383   0.012  0.0998  0.1821  0.4916
  225MOL0     C29582   1.481   7.363  -0.006 -0.5808  0.0059 -0.4004
  225MOL0     C29583   1.534   7.265   0.104 -0.2067 -0.2763  0.3258
  225MOL0     C29584   1.500   7.117   0.086 -0.3043  0.3042 -0.7458
  225MOL0     N29585   1.522   7.043   0.212  0.2623 -0.1279  0.2760
  225MOL0     C29586   1.633   6.975   0.247  0.5891 -0.5422  0.6330
  225MOL0     C29587   1.586   6.897   0.355 -0.5841  0.3354  0.5212
  225MOL0     C29588   1.681   6.815   0.443 -0.4204 -0.2071 -0.3669
  225MOL0     C29589   1.712   6.882   0.577  0.4728 -0.5153  0.1022
  225MOL0     C29590   1.598   6.883   0.675  0.9455  0.6457  0.4506
  225MOL0     C29591   1.644   6.911   0.816 -0.3090 -0.6188  0.5272
  225MOL0     O29592   1.532   6.894   0.907 -0.6400 -0.6012  0.5782
  225MOL0     C29593   1.556   6.875   1.037  0.4079 -0.6061 -0.6208
  225MOL0     C29594   1.684   6.887   1.107 -1.3954  0.5859  0.3916
  225MOL0     C29595   1.702   6.849   1.239  0.0061  1.5370 -0.1809
  225MOL0     C29596   1.588   6.830   1.320 -0.5150  0.0284 -0.1905
  225MOL0     C29597   1.617   6.774   1.459 -0.2349 -0.7621 -0.3737
  225MOL0     O29598   1.500   6.773   1.539 -0.1665  0.4774  0.8088
  225MOL0     C29599   1.499   6.762   1.676  1.4314 -0.2820 -0.5170
  225MOL0     C29600   1.375   6.760   1.747  0.2260 -0.3936 -0.6472
  225MOL0     C29601   1.357   6.734   1.876 -0.2416  0.1013 -0.4526
  225MOL0     C29602   1.467   6.708   1.960  0.4875  0.2371  0.1564
  225MOL0     O29603   1.438   6.672   2.094  0.0349  1.0224 -0.2445
  225MOL0     C29604   1.555   6.631   2.169  0.3127 -0.3241  0.0367
  225MOL0     C29605   1.612   6.497   2.128  0.0153  0.2036  1.0370
  225MOL0     C29606   1.713   6.457   2.225 -0.3207  0.6526  0.5247
  225MOL0     C29607   1.719   6.299   2.239  0.4655 -0.0473  0.3707
  225MOL0     C29608   1.844   6.241   2.160  0.6019 -0.4133  0.0845
  225MOL0     C29609   1.839   6.252   2.012  0.3968 -0.6896 -0.2437
  225MOL0     C29610   1.942   6.173   1.938 -0.3303  0.7134  0.7046
  225MOL0     C29611   1.986   6.229   1.809 -0.4763  0.3553 -0.0479
  225MOL0    Cl29612   2.143   6.161   1.780  0.0964 -0.0921  0.2103
  225MOL0     C29613   1.594   6.729   1.900 -0.4901  0.9858 -0.2626
  225MOL0     C29614   1.606   6.749   1.764  0.0462  0.6974  0.1018
  225MOL0     O29615   1.726   6.751   1.502 -0.6370 -0.1825 -0.0557
  225MOL0     C29616   1.461   6.829   1.263 -0.0915 -0.7437 -0.2402
  225MOL0     C29617   1.449   6.858   1.123 -0.5180 -0.4025  0.0156
  225MOL0     N29618   1.453   6.927   0.381  0.3684  0.9212  0.9596
  225MOL0     N29619   1.418   7.004   0.288 -0.2570  0.0129 -0.6565
  225MOL0     C29620   0.642   7.523   0.301  0.0302 -0.5454 -0.2477
  225MOL0     C29621   0.505   7.565   0.353 -0.0926 -0.7217  1.0403
  225MOL0     C29622   0.117   7.733   0.427 -0.6196  0.2059  0.7242
  225MOL0     C29623   0.023   7.642   0.464  0.0935  0.3399 -0.1990
  225MOL0     C29624  -0.090   7.677   0.539  0.0303 -0.2124 -1.0419
  225MOL0     C29625  -0.123   7.800   0.566  0.0116 -0.3078  0.7274
  225MOL0     O29626  -0.243   7.828   0.623 -0.1806  0.1244 -0.1831
  225MOL0     C29627  -0.273   7.961   0.670 -0.6376  0.0073 -0.0411
  225MOL0     C29628  -0.398   7.949   0.739  0.5714  0.1378 -0.0633
  225MOL0     C29629  -0.429   8.086   0.811 -0.4621  0.5706  0.7811
  225MOL0     C29630  -0.539   8.077   0.914 -0.0977 -0.1971 -0.0305
  225MOL0     C29631  -0.676   8.074   0.859 -0.5652 -0.4220  0.1777
  225MOL0     C29632  -0.794   8.086   0.830  1.0657  0.2295  1.0432
  225MOL0     C29633  -0.033   7.906   0.528  0.7478  0.4746 -0.0915
  225MOL0     C29634   0.083   7.871   0.453 -0.0820 -0.5292  0.1678
  225MOL0     H29635   0.538   7.894   0.265 -3.0472 -0.5448 -0.2265
  225MOL0     H29636   0.758   7.830   0.198  1.5607 -1.1706  0.9843
  225MOL0     H29637   0.966   7.744   0.315  3.4564  1.1820  0.4250
  225MOL0     H29638   0.977   7.756   0.141  1.1814  0.4307  1.0566
  225MOL0     H29639   1.113   7.542   0.315  0.1765 -2.1885  0.0316
  225MOL0     H29640   1.189   7.690   0.247  1.7533 -2.2545 -0.8147
  225MOL0     H29641   1.144   7.601   0.022  1.0733 -0.1345 -0.1456
  225MOL0     H29642   1.076   7.457   0.087  0.7853 -0.7108 -2.3979
  225MOL0     H29643   1.361   7.568   0.118  2.2947 -1.9491 -0.1328
  225MOL0     H29644   1.301   7.440   0.223 -0.0215 -0.3809  0.5765
  225MOL0     H29645   1.296   7.413  -0.087 -0.5295 -0.9929  0.3333
  225MOL0     H29646   1.280   7.286   0.024 -0.4972  0.4475  0.1762
  225MOL0     H29647   1.544   7.452  -0.008 -0.7253  0.1026 -0.7153
  225MOL0     H29648   1.497   7.319  -0.105  2.8805 -1.0306  0.4500
  225MOL0     H29649   1.643   7.273   0.094 -0.2796  0.0612 -0.2358
  225MOL0     H29650   1.500   7.291   0.205 -0.0319 -0.6153  0.4711
  225MOL0     H29651   1.560   7.087  -0.000 -0.3199 -1.3428 -0.2221
  225MOL0     H29652   1.394   7.104   0.062 -0.7290 -0.4847  1.3379
  225MOL0     H29653   1.730   6.984   0.199  0.0827  2.1675 -0.0628
  225MOL0     H29654   1.774   6.806   0.386  0.9065 -2.5629  1.9501
  225MOL0     H29655   1.629   6.722   0.464 -0.5692 -0.0679 -0.1204
  225MOL0     H29656   1.746   6.984   0.561  0.4886  0.0055  2.8649
  225MOL0     H29657   1.802   6.830   0.614  1.4328 -1.2215 -2.9398
  225MOL0     H29658   1.515   6.950   0.652  0.1695 -0.2982  0.4392
  225MOL0     H29659   1.552   6.784   0.668  0.7905  0.6520  1.3304
  225MOL0     H29660   1.709   6.998   0.823  2.3480 -2.5334  0.9134
  225MOL0     H29661   1.715   6.831   0.839  1.2339  0.7245  0.5867
  225MOL0     H29662   1.772   6.889   1.042 -2.1351 -3.1356 -1.0202
  225MOL0     H29663   1.804   6.844   1.277 -0.4649 -3.5715  1.1423
  225MOL0     H29664   1.289   6.767   1.682 -0.4337  1.7598  0.3509
  225MOL0     H29665   1.256   6.725   1.916 -0.0087  1.3718  0.4658
  225MOL0     H29666   1.524   6.626   2.274  0.2023 -1.1658 -0.0241
  225MOL0     H29667   1.621   6.717   2.158 -1.0074  0.8371  0.9124
  225MOL0     H29668   1.644   6.492   2.024 -3.8526 -3.2256 -0.2402
  225MOL0     H29669   1.534   6.421   2.138  0.2369 -0.2676 -0.6047
  225MOL0     H29670   1.692   6.507   2.320 -0.1736  2.0851 -0.1766
  225MOL0     H29671   1.808   6.493   2.184 -0.5929 -0.0209 -0.7677
  225MOL0     H29672   1.739   6.272   2.343  4.9498 -0.5550 -0.4333
  225MOL0     H29673   1.627   6.252   2.204  0.2122  1.0126 -0.4718
  225MOL0     H29674   1.836   6.134   2.180 -0.2996 -0.8148 -2.1138
  225MOL0     H29675   1.941   6.285   2.183 -0.3885  0.6365  2.6174
  225MOL0     H29676   1.856   6.359   1.999  0.1157 -0.2608  2.4194
  225MOL0     H29677   1.746   6.227   1.960  0.0961  2.7249 -1.5648
  225MOL0     H29678   2.020   6.160   2.013  2.4885  1.8772 -1.7964
  225MOL0     H29679   1.887   6.080   1.922 -2.3124  2.0521 -0.8842
  225MOL0     H29680   2.001   6.333   1.839 -0.1436  0.2395  0.1917
  225MOL0     H29681   1.910   6.218   1.731 -3.6867  1.6818  2.6407
  225MOL0     H29682   1.672   6.722   1.975 -0.2946  2.7329 -0.2725
  225MOL0     H29683   1.711   6.745   1.734  0.2577 -0.0445  0.9256
  225MOL0     H29684   1.378   6.787   1.319 -1.7427 -1.3065 -2.9204
  225MOL0     H29685   1.355   6.859   1.069 -0.4468  3.9818 -0.3649
  225MOL0     H29686   0.676   7.420   0.301  1.5878 -0.0646 -0.0188
  225MOL0     H29687   0.430   7.490   0.377 -0.7648 -0.6817 -0.7624
  225MOL0     H29688   0.053   7.543   0.430  0.9686  0.0181  1.4133
  225MOL0     H29689  -0.160   7.602   0.576  0.1763  1.2779  2.5904
  225MOL0     H29690  -0.269   8.027   0.584 -0.8857 -0.7926 -0.6806
  225MOL0     H29691  -0.195   7.991   0.742  0.1817 -0.2421 -0.8004
  225MOL0     H29692  -0.486   7.914   0.685 -0.7257  0.2235  1.8654
  225MOL0     H29693  -0.394   7.864   0.809 -0.7632 -1.5780 -1.9362
  225MOL0     H29694  -0.446   8.163   0.735  0.2534 -0.7685 -0.7975
  225MOL0     H29695  -0.338   8.129   0.856 -0.3827  2.6186 -1.1471
  225MOL0     H29696  -0.517   7.979   0.955  2.6589 -0.7699 -2.5548
  225MOL0     H29697  -0.530   8.167   0.975  3.4226 -0.2841 -0.2256
  225MOL0     H29698  -0.898   8.111   0.816  1.0043  0.4773  1.9124
  225MOL0     H29699  -0.051   8.009   0.557 -1.4747  1.1678 -3.2931
  225MOL0     H29700   0.152   7.947   0.418  0.5590 -0.8041  0.8092
  226MOL0     O29701   1.382   0.559   5.323 -0.0377  0.3322  0.6388
  226MOL0     C29702   1.458   0.475   5.275 -1.0283  0.1551 -0.6596
  226MOL0     O29703   1.432   0.342   5.256  0.4989  0.8627  0.1713
  226MOL0     C29704   1.322   0.286   5.312  0.3085  0.3810 -0.7752
  226MOL0     C29705   1.235   0.212   5.223  1.0301 -0.4956 -0.6474
  226MOL0     C29706   1.104   0.174   5.267 -0.0803 -0.2343 -0.2666
  226MOL0     C29707   1.066   0.181   5.404  0.3118  0.1371 -0.0126
  226MOL0     O29708   0.957   0.117   5.457 -0.3571 -0.0010 -0.4458
  226MOL0     C29709   0.850   0.051   5.371 -0.5172 -0.6025 -0.0842
  226MOL0     C29710   0.764  -0.049   5.444  0.3447  0.5405  0.8309
  226MOL0     C29711   0.646  -0.096   5.357 -0.3203 -0.2272  0.2953
  226MOL0     C29712   0.529  -0.002   5.342 -0.9221 -0.0535  0.7762
  226MOL0     C29713   0.413  -0.090   5.283 -0.8597 -0.4017  0.3057
  226MOL0     C29714   0.290  -0.009   5.246  1.0071  0.6901 -0.3316
  226MOL0     C29715   0.175  -0.090   5.169 -0.6236 -0.5744 -0.0290
  226MOL0     C29716   0.160  -0.245   5.187 -0.4266 -0.0547  0.2101
  226MOL0     N29717   0.058  -0.297   5.088 -0.0965 -0.0486  0.3531
  226MOL0     C29718   0.079  -0.331   4.955 -0.1314 -1.1845  0.2903
  226MOL0     C29719  -0.043  -0.349   4.904 -0.3630  0.4952 -1.0491
  226MOL0     C29720  -0.073  -0.372   4.758 -0.2490 -0.4161 -0.1722
  226MOL0     C29721  -0.221  -0.393   4.735  1.4611  0.1448  0.0289
  226MOL0     C29722  -0.292  -0.262   4.722 -0.1322 -0.0790  0.5687
  226MOL0     C29723  -0.430  -0.273   4.795 -0.2074  0.4334 -0.5992
  226MOL0     O29724  -0.509  -0.358   4.714 -0.2631  0.3973  0.2924
  226MOL0     C29725  -0.636  -0.393   4.761  0.0530 -0.5382  0.0758
  226MOL0     C29726  -0.733  -0.409   4.661 -0.4136  0.8107 -0.1311
  226MOL0     C29727  -0.875  -0.423   4.700  0.6574 -0.1765 -0.2717
  226MOL0     C29728  -0.913  -0.424   4.834  0.6496  0.2884  0.2330
  226MOL0     C29729  -1.052  -0.433   4.867 -0.5911 -0.1690 -0.6549
  226MOL0     O29730  -1.089  -0.377   4.978 -0.7711  0.7253  0.1161
  226MOL0     C29731  -1.219  -0.377   5.030  0.1143 -0.5336 -0.8671
  226MOL0     C29732  -1.304  -0.490   5.044  0.0264  0.2756 -1.5813
  226MOL0     C29733  -1.431  -0.468   5.085  0.4539  0.3776 -0.1478
  226MOL0     C29734  -1.479  -0.341   5.130  0.3141  0.4996  0.3455
  226MOL0     O29735  -1.615  -0.345   5.162  0.5519 -0.2285  0.0002
  226MOL0     C29736  -1.689  -0.228   5.130 -0.9024 -0.0352  0.4008
  226MOL0     C29737  -1.843  -0.260   5.114  0.5596  0.0652 -0.0518
  226MOL0     C29738  -1.937  -0.146   5.110 -0.3027 -0.0543  0.5433
  226MOL0     C29739  -2.081  -0.207   5.108  0.2075  0.0304  0.0694
  226MOL0     C29740  -2.180  -0.091   5.086  0.6156  0.2021 -0.2177
  226MOL0     C29741  -2.323  -0.158   5.105  0.0522 -0.3491 -0.3116
  226MOL0     C29742  -2.429  -0.087   5.022 -0.6978 -0.1507 -0.1609
  226MOL0     C29743  -2.575  -0.120   5.048  0.3962  0.4947 -0.3993
  226MOL0    Cl29744  -2.602  -0.124   5.226  0.3510 -0.0433  0.3618
  226MOL0     C29745  -1.395  -0.230   5.122 -0.2085  0.1141 -0.4628
  226MOL0     C29746  -1.264  -0.247   5.070 -0.5508  0.4737  0.3665
  226MOL0     O29747  -1.133  -0.489   4.791 -0.2988  0.1390  0.1080
  226MOL0     C29748  -0.816  -0.396   4.934  0.5014  0.4155  0.6763
  226MOL0     C29749  -0.678  -0.385   4.895  0.7225  0.2312 -0.3214
  226MOL0     N29750  -0.134  -0.339   5.013  0.1324 -1.0463 -0.2719
  226MOL0     N29751  -0.066  -0.313   5.124  0.0507  0.1318  0.1879
  226MOL0     C29752   1.151   0.235   5.498  0.1203 -0.1368  1.0624
  226MOL0     C29753   1.281   0.281   5.453  0.6716  0.0010  0.0651
  226MOL0     C29754   1.595   0.519   5.228  0.8004 -0.5037  0.7190
  226MOL0     C29755   1.611   0.651   5.203 -0.4427  0.1593  0.3572
  226MOL0     C29756   1.718   0.713   5.136 -0.0522  0.9919  0.4619
  226MOL0     C29757   1.827   0.621   5.103 -0.2834  0.0069  0.9861
  226MOL0     O29758   1.949   0.655   5.055 -0.6018  0.0552  0.1014
  226MOL0     C29759   1.987   0.786   5.030  0.2899  0.4958 -0.0301
  226MOL0     C29760   2.120   0.800   4.967  0.3129 -0.0064  0.0365
  226MOL0     C29761   2.130   0.952   4.924 -0.0119  0.3327 -0.0392
  226MOL0     C29762   2.268   0.994   4.866 -0.5355 -0.0778 -0.6360
  226MOL0     C29763   2.379   0.951   4.953 -0.0241 -0.4956  0.1352
  226MOL0     C29764   2.467   0.909   5.024  0.3710  0.0394 -0.0128
  226MOL0     C29765   1.815   0.485   5.124  0.0417  0.6204 -0.5498
  226MOL0     C29766   1.695   0.429   5.181 -0.8437 -0.3068 -1.0894
  226MOL0     H29767   1.251   0.203   5.116  0.9675  1.3197 -0.8358
  226MOL0     H29768   1.039   0.132   5.191  0.1858 -0.4648 -0.3711
  226MOL0     H29769   0.896  -0.000   5.285  1.7578  1.2619 -0.0647
  226MOL0     H29770   0.786   0.128   5.327 -0.5842 -1.0470 -0.7791
  226MOL0     H29771   0.727  -0.007   5.538  0.1581  1.7206  0.2476
  226MOL0     H29772   0.829  -0.134   5.467 -0.3300  0.2070  1.5543
  226MOL0     H29773   0.617  -0.188   5.408  1.0573 -2.7239 -3.0192
  226MOL0     H29774   0.676  -0.121   5.255  0.8914 -0.5539  0.7155
  226MOL0     H29775   0.498   0.046   5.435  1.4902 -2.2690  2.8907
  226MOL0     H29776   0.555   0.074   5.267  2.1449  0.6585  2.3756
  226MOL0     H29777   0.384  -0.161   5.361 -0.3165  0.1562  1.0289
  226MOL0     H29778   0.438  -0.159   5.202 -0.8938  0.3330 -0.3378
  226MOL0     H29779   0.327   0.075   5.187 -0.5050  3.2514  2.1135
  226MOL0     H29780   0.245   0.038   5.334 -0.1182  0.7694 -0.9321
  226MOL0     H29781   0.080  -0.039   5.191 -0.7003 -0.6297 -0.2319
  226MOL0     H29782   0.198  -0.073   5.064  0.7145  1.5576  0.5395
  226MOL0     H29783   0.128  -0.271   5.288 -2.8645  1.3609 -0.1398
  226MOL0     H29784   0.252  -0.300   5.161 -2.4529 -2.7594 -1.8408
  226MOL0     H29785   0.171  -0.330   4.896  0.1564 -1.0151  0.7406
  226MOL0     H29786  -0.024  -0.467   4.733  0.1434 -1.3647  3.5393
  226MOL0     H29787  -0.032  -0.288   4.701  2.0649 -0.9205  0.6140
  226MOL0     H29788  -0.277  -0.455   4.806  1.1332  2.2272  1.7014
  226MOL0     H29789  -0.236  -0.438   4.637  0.3448  1.6720 -0.5354
  226MOL0     H29790  -0.241  -0.181   4.775  0.9236  1.1181 -2.1273
  226MOL0     H29791  -0.297  -0.235   4.616 -0.5870 -1.9632  0.0716
  226MOL0     H29792  -0.461  -0.169   4.782  0.3548  0.3755 -2.9388
  226MOL0     H29793  -0.417  -0.303   4.899  0.0501 -1.7818 -1.2167
  226MOL0     H29794  -0.700  -0.404   4.557 -1.7870 -1.0017 -0.6916
  226MOL0     H29795  -0.957  -0.413   4.629  1.4961  0.1470 -1.2190
  226MOL0     H29796  -1.268  -0.591   5.027 -2.0039 -0.4427 -1.9057
  226MOL0     H29797  -1.499  -0.552   5.090  1.5834 -0.5225  0.6320
  226MOL0     H29798  -1.648  -0.186   5.038  3.6335 -0.5860  1.9004
  226MOL0     H29799  -1.674  -0.158   5.213  1.9454  0.5977 -0.5235
  226MOL0     H29800  -1.876  -0.323   5.197  0.2227  1.4523  0.9061
  226MOL0     H29801  -1.847  -0.316   5.020  5.8021  1.0579 -1.1841
  226MOL0     H29802  -1.925  -0.088   5.018 -1.2577 -1.7524 -0.7285
  226MOL0     H29803  -1.914  -0.092   5.202 -1.3108  1.5423 -0.1033
  226MOL0     H29804  -2.091  -0.280   5.028 -1.8383 -1.1845  1.3391
  226MOL0     H29805  -2.098  -0.257   5.204  2.3567 -0.4368  0.2564
  226MOL0     H29806  -2.146  -0.059   4.987  2.5705  2.1339  1.0025
  226MOL0     H29807  -2.165  -0.010   5.158 -1.0959  0.7964 -0.5042
  226MOL0     H29808  -2.337  -0.156   5.214  0.3756  0.8963 -0.2699
  226MOL0     H29809  -2.319  -0.260   5.066  1.1558  0.4754 -2.5515
  226MOL0     H29810  -2.422   0.017   5.054  1.4087 -0.7803  1.7010
  226MOL0     H29811  -2.399  -0.096   4.917 -1.3234 -0.8000 -0.2931
  226MOL0     H29812  -2.603  -0.206   4.987  0.9900 -1.1262  1.4704
  226MOL0     H29813  -2.634  -0.038   5.007 -0.3830  0.4686  0.6205
  226MOL0     H29814  -1.428  -0.136   5.164 -3.5520 -1.5958  1.1653
  226MOL0     H29815  -1.193  -0.166   5.060  0.2042 -0.2850 -0.6677
  226MOL0     H29816  -0.842  -0.383   5.039  1.7484 -0.7629  1.1609
  226MOL0     H29817  -0.605  -0.359   4.971 -0.0317  2.1690 -0.1881
  226MOL0     H29818   1.115   0.236   5.601  1.0244  0.5226  1.3849
  226MOL0     H29819   1.350   0.328   5.522  0.9631  2.4870 -1.7805
  226MOL0     H29820   1.535   0.717   5.243  0.8711  0.2280  2.8705
  226MOL0     H29821   1.719   0.817   5.104  1.7222  0.0988 -2.8791
  226MOL0     H29822   1.982   0.844   5.123 -3.6207  1.8631 -0.8995
  226MOL0     H29823   1.908   0.828   4.967 -0.1248  0.1308  0.2409
  226MOL0     H29824   2.205   0.771   5.029  2.1990 -0.9086 -2.7874
  226MOL0     H29825   2.120   0.721   4.891 -0.7695 -0.6835  0.7007
  226MOL0     H29826   2.104   1.016   5.010  5.5585  0.4951  1.9317
  226MOL0     H29827   2.057   0.959   4.844 -1.3402  3.1259  1.2710
  226MOL0     H29828   2.275   0.935   4.775 -4.7705 -0.6578 -0.7898
  226MOL0     H29829   2.279   1.100   4.842  2.8419 -0.7464 -2.6555
  226MOL0     H29830   2.550   0.857   5.068 -0.1301  0.0536  0.9788
  226MOL0     H29831   1.897   0.427   5.081 -0.1406 -0.6659  0.7310
  226MOL0     H29832   1.681   0.323   5.196  0.8840 -0.3315  0.8986
  227MOL0     O29833  10.014   3.096   4.697 -0.2392  0.0042 -1.3691
  227MOL0     C29834  10.058   2.995   4.761 -0.4648 -0.1490 -0.1248
  227MOL0     O29835   9.977   2.907   4.828 -0.5916  0.1502  0.1436
  227MOL0     C29836   9.842   2.917   4.833 -0.3933 -0.3493  0.9892
  227MOL0     C29837   9.785   2.942   4.949  0.3651  0.1134  0.2712
  227MOL0     C29838   9.650   2.957   4.967 -0.2403 -0.7524 -0.0702
  227MOL0     C29839   9.559   2.943   4.860  0.0979 -0.3905  0.0727
  227MOL0     O29840   9.413   2.939   4.875 -0.0993 -0.0512 -0.1266
  227MOL0     C29841   9.365   2.924   5.005  0.1632 -0.6395 -0.4820
  227MOL0     C29842   9.205   2.917   5.008  0.2753  0.0860 -0.5398
  227MOL0     C29843   9.158   2.933   5.152 -0.1337  1.1253 -1.4830
  227MOL0     C29844   9.030   2.855   5.176 -0.4780 -0.4783 -0.3769
  227MOL0     C29845   8.942   2.927   5.275  0.5344 -1.1173 -1.0689
  227MOL0     C29846   8.810   2.860   5.297  0.1166  0.2333  0.3615
  227MOL0     C29847   8.693   2.952   5.332 -0.9359  0.1515 -0.9517
  227MOL0     C29848   8.717   3.014   5.468 -0.5511  0.3148  0.4841
  227MOL0     N29849   8.621   3.127   5.491 -0.3987 -0.0665  0.3487
  227MOL0     C29850   8.496   3.117   5.551 -0.1284 -1.1045 -0.5556
  227MOL0     C29851   8.428   3.232   5.515 -0.5682 -0.4015 -0.8796
  227MOL0     C29852   8.295   3.280   5.561 -0.2626  0.8460  0.0795
  227MOL0     C29853   8.160   3.226   5.500 -0.5728  0.0610  0.3013
  227MOL0     C29854   8.040   3.295   5.566  0.7771 -0.9381 -0.4308
  227MOL0     C29855   7.907   3.219   5.524  0.0328 -0.9950  0.4550
  227MOL0     O29856   7.800   3.276   5.592 -0.5099  0.3094 -0.9166
  227MOL0     C29857   7.675   3.225   5.569 -0.6687  0.4029 -0.4974
  227MOL0     C29858   7.644   3.112   5.494 -0.0708 -0.0758 -0.9286
  227MOL0     C29859   7.512   3.054   5.484  0.3408 -0.2731 -0.5256
  227MOL0     C29860   7.409   3.121   5.552 -0.6392 -0.0014 -0.6127
  227MOL0     C29861   7.271   3.075   5.546 -0.0844 -0.9113  0.2848
  227MOL0     O29862   7.259   2.944   5.515  0.4107 -0.7351  0.3171
  227MOL0     C29863   7.127   2.896   5.493 -0.8039  0.8510  0.3975
  227MOL0     C29864   7.059   2.849   5.601  0.3820 -0.3743 -0.0292
  227MOL0     C29865   6.925   2.789   5.585 -0.5786 -0.5979  0.1614
  227MOL0     C29866   6.867   2.768   5.462  0.3384 -0.0865  0.5870
  227MOL0     O29867   6.730   2.725   5.455  0.2634 -0.2521 -0.4776
  227MOL0     C29868   6.675   2.701   5.322 -0.1681 -0.0334  0.1134
  227MOL0     C29869   6.537   2.623   5.329  0.0816  1.0587  0.5418
  227MOL0     C29870   6.532   2.520   5.444 -0.9286  0.7803  0.5300
  227MOL0     C29871   6.394   2.450   5.450  1.1014 -0.1843 -0.1331
  227MOL0     C29872   6.389   2.357   5.560  0.3845 -0.5859  0.6285
  227MOL0     C29873   6.253   2.286   5.567 -0.1214 -0.1722 -0.3930
  227MOL0     C29874   6.158   2.295   5.448 -0.8170  0.1099 -0.0755
  227MOL0     C29875   6.024   2.234   5.479  0.0010  0.2427  0.7928
  227MOL0    Cl29876   5.926   2.210   5.325 -0.3949  0.2553  0.4157
  227MOL0     C29877   6.943   2.810   5.355  0.5821 -0.8377 -0.0980
  227MOL0     C29878   7.073   2.872   5.368  0.0839  0.6082 -0.0532
  227MOL0     O29879   7.180   3.157   5.566 -0.1301 -0.1713 -0.1444
  227MOL0     C29880   7.427   3.250   5.607 -0.0901 -0.5457 -0.4334
  227MOL0     C29881   7.557   3.295   5.625 -0.3773 -0.0024  1.7732
  227MOL0     N29882   8.518   3.304   5.443 -0.4751 -1.1163  0.5892
  227MOL0     N29883   8.625   3.242   5.419 -0.3042  0.2463  0.2768
  227MOL0     C29884   9.613   2.915   4.734  0.0327 -0.2115  0.3693
  227MOL0     C29885   9.752   2.898   4.720 -0.2186 -0.0724 -1.5349
  227MOL0     C29886  10.205   2.983   4.778  1.4913  0.1974 -1.3461
  227MOL0     C29887  10.285   3.070   4.708  0.4710  0.4604  1.4360
  227MOL0     C29888  10.420   3.050   4.696 -0.3599  0.2605 -0.0600
  227MOL0     C29889  10.477   2.947   4.776 -0.4327  0.0136 -0.1150
  227MOL0     O29890  10.614   2.946   4.808 -0.1133 -0.7986  0.8547
  227MOL0     C29891  10.708   2.984   4.698 -0.9837 -0.8587 -0.2659
  227MOL0     C29892  10.854   3.005   4.738 -0.0826  0.4392 -0.7673
  227MOL0     C29893  10.906   2.882   4.828 -0.7143  0.4692  0.5536
  227MOL0     C29894  11.061   2.883   4.838  0.7679  0.4299  0.0003
  227MOL0     C29895  11.118   2.852   4.701  0.7154  0.9025  0.1194
  227MOL0     C29896  11.156   2.827   4.585  0.0066 -0.6061  0.5182
  227MOL0     C29897  10.402   2.873   4.863 -0.6130 -0.4304 -0.3269
  227MOL0     C29898  10.263   2.893   4.865 -0.4011 -0.3424  0.3451
  227MOL0     H29899   9.853   2.935   5.034  1.9724 -0.4421 -1.0067
  227MOL0     H29900   9.612   2.984   5.065 -3.3495 -0.9790 -1.0802
  227MOL0     H29901   9.389   3.019   5.053 -1.9883  0.0948 -0.7518
  227MOL0     H29902   9.403   2.842   5.066  1.0139  1.0352  1.3725
  227MOL0     H29903   9.184   2.819   4.963  1.5821 -0.5818  0.2604
  227MOL0     H29904   9.149   2.980   4.938 -2.8153 -1.1048  0.6505
  227MOL0     H29905   9.150   3.037   5.184 -0.9946  1.3787 -2.4807
  227MOL0     H29906   9.229   2.882   5.218 -0.3496  1.8583 -0.6659
  227MOL0     H29907   8.978   2.840   5.080  1.4701  0.5121 -1.6604
  227MOL0     H29908   9.046   2.756   5.219  1.8749  0.0144  0.0053
  227MOL0     H29909   8.934   3.032   5.246  0.0226 -1.7057 -3.1950
  227MOL0     H29910   9.002   2.920   5.367  0.1335 -0.0241 -0.7158
  227MOL0     H29911   8.822   2.784   5.375  1.4995  0.7287  0.6586
  227MOL0     H29912   8.797   2.803   5.205  1.3010  1.2345 -0.4562
  227MOL0     H29913   8.685   3.032   5.258  0.0913  0.9261 -0.2495
  227MOL0     H29914   8.597   2.899   5.335 -0.6010 -0.5606  3.3053
  227MOL0     H29915   8.819   3.053   5.463  0.7354 -2.9632 -2.5028
  227MOL0     H29916   8.716   2.942   5.550 -0.8284  1.4699  1.5440
  227MOL0     H29917   8.466   3.037   5.619 -1.2668 -1.4646 -1.4502
  227MOL0     H29918   8.297   3.389   5.551  0.3596  0.7474 -0.9112
  227MOL0     H29919   8.286   3.264   5.669 -0.4430 -1.3068 -0.2073
  227MOL0     H29920   8.165   3.118   5.515 -0.9486  0.3042  2.5677
  227MOL0     H29921   8.154   3.238   5.391 -0.4856 -3.5693 -0.2205
  227MOL0     H29922   8.044   3.295   5.675 -3.7652  2.5334  0.0524
  227MOL0     H29923   8.028   3.402   5.546  1.7368 -0.9550 -1.1478
  227MOL0     H29924   7.924   3.113   5.547  0.2338 -1.1362 -0.3228
  227MOL0     H29925   7.897   3.236   5.417  1.2724 -1.2579  0.2802
  227MOL0     H29926   7.722   3.066   5.434  2.1863  4.2198 -1.6469
  227MOL0     H29927   7.502   2.953   5.445 -1.9046  0.2503 -1.4417
  227MOL0     H29928   7.103   2.866   5.699  2.3815 -1.3193 -0.7102
  227MOL0     H29929   6.879   2.758   5.678  0.9074 -1.6084  0.5898
  227MOL0     H29930   6.743   2.642   5.258 -0.0387 -0.2066  0.4108
  227MOL0     H29931   6.662   2.799   5.275 -1.0993 -0.5768 -0.7974
  227MOL0     H29932   6.525   2.572   5.233 -4.3236 -1.9551  2.3738
  227MOL0     H29933   6.446   2.684   5.332 -2.8380 -2.5525 -3.4864
  227MOL0     H29934   6.564   2.572   5.535 -1.1251  2.1265 -0.1492
  227MOL0     H29935   6.603   2.440   5.420 -2.9158 -0.7438 -0.5324
  227MOL0     H29936   6.316   2.526   5.457  2.2750  1.7780 -4.5574
  227MOL0     H29937   6.372   2.400   5.355  0.0289 -1.1742  0.6098
  227MOL0     H29938   6.413   2.411   5.652  0.5306 -0.1309  0.3271
  227MOL0     H29939   6.458   2.275   5.544 -0.1277 -1.4539  2.6087
  227MOL0     H29940   6.207   2.325   5.658  0.8041 -0.2153  0.1028
  227MOL0     H29941   6.267   2.179   5.587 -1.9395 -0.7677 -1.9665
  227MOL0     H29942   6.145   2.400   5.420 -0.2353  0.5904  1.3240
  227MOL0     H29943   6.198   2.243   5.361 -2.0535  0.8737 -1.1338
  227MOL0     H29944   5.968   2.294   5.551 -2.1178 -0.1496 -0.4646
  227MOL0     H29945   6.042   2.137   5.526  0.6526  0.6607  1.4283
  227MOL0     H29946   6.924   2.791   5.250 -0.7861  0.9280 -0.2264
  227MOL0     H29947   7.132   2.904   5.282  3.1445  1.8901  2.3351
  227MOL0     H29948   7.353   3.314   5.654 -0.3196 -2.2855  1.7384
  227MOL0     H29949   7.556   3.381   5.691  1.7964  0.3563  1.4411
  227MOL0     H29950   9.547   2.911   4.648 -1.5004 -0.0242  1.4835
  227MOL0     H29951   9.789   2.879   4.620  1.1205  1.1285 -1.2993
  227MOL0     H29952  10.240   3.150   4.651 -1.7614 -1.2023  0.6915
  227MOL0     H29953  10.488   3.115   4.642  0.2059  1.4438  1.9486
  227MOL0     H29954  10.675   3.073   4.643 -0.3474 -1.4417 -1.6371
  227MOL0     H29955  10.695   2.899   4.630 -1.9042 -2.1435  1.4359
  227MOL0     H29956  10.909   3.010   4.644 -0.7096  1.7538 -1.0925
  227MOL0     H29957  10.877   3.103   4.783 -0.2552  1.1480 -2.1826
  227MOL0     H29958  10.869   2.790   4.781 -1.6398  0.5309  1.1270
  227MOL0     H29959  10.858   2.892   4.926 -2.2479 -0.9520  0.0038
  227MOL0     H29960  11.093   2.986   4.859 -1.2911  1.1287 -0.1044
  227MOL0     H29961  11.091   2.815   4.919 -1.1878  1.8368  2.0467
  227MOL0     H29962  11.193   2.808   4.486  0.9311 -1.9311  1.0969
  227MOL0     H29963  10.458   2.796   4.916  0.5439 -0.1579 -1.1122
  227MOL0     H29964  10.208   2.829   4.934 -0.3342  1.6357  2.3069
  228MOL0     O29965  10.867   7.805   5.905  0.0562  0.6013  0.7451
  228MOL0     C29966  10.902   7.853   6.020  0.1029 -0.6024 -0.4589
  228MOL0     O29967  10.819   7.917   6.103  0.2997 -0.1462 -0.2701
  228MOL0     C29968  10.686   7.919   6.097  0.1222  0.4121  0.4985
  228MOL0     C29969  10.605   7.822   6.038 -0.4197 -0.4370  0.3211
  228MOL0     C29970  10.467   7.835   6.031  0.0639 -0.5097  0.2122
  228MOL0     C29971  10.399   7.941   6.089  0.3039 -0.5806  1.0983
  228MOL0     O29972  10.268   7.944   6.081 -1.0345  0.7198 -0.6361
  228MOL0     C29973  10.203   8.031   5.982  1.4090  0.0950 -0.2883
  228MOL0     C29974  10.203   8.179   6.029 -0.0847 -0.2169 -0.1155
  228MOL0     C29975  10.150   8.215   6.167 -0.3074 -0.1590 -1.0566
  228MOL0     C29976  10.026   8.143   6.205 -0.1796  0.4019 -0.1369
  228MOL0     C29977   9.954   8.206   6.324  0.5997 -0.1341 -0.0018
  228MOL0     C29978   9.906   8.346   6.315 -0.6519  0.1741  0.8350
  228MOL0     C29979   9.834   8.357   6.180 -0.0116  0.5294  0.4673
  228MOL0     C29980   9.780   8.494   6.168 -0.5271  0.4200 -0.3315
  228MOL0     N29981   9.681   8.491   6.063  0.0852  0.4000 -0.1076
  228MOL0     C29982   9.565   8.427   6.071  0.1087  0.0338  0.4111
  228MOL0     C29983   9.498   8.449   5.954 -0.4213  0.1012  0.1924
  228MOL0     C29984   9.356   8.403   5.916  0.1803  1.1345 -1.1500
  228MOL0     C29985   9.247   8.447   6.017  0.0086  1.0359 -0.0128
  228MOL0     C29986   9.107   8.392   5.993  0.0826  0.9551  0.4383
  228MOL0     C29987   8.991   8.462   6.066 -0.5229 -0.4240 -0.6636
  228MOL0     O29988   8.873   8.378   6.041  0.8532  1.1879  0.3287
  228MOL0     C29989   8.750   8.433   6.051 -0.2170  0.4813  0.7248
  228MOL0     C29990   8.657   8.331   6.053  0.0115 -0.3166  0.1784
  228MOL0     C29991   8.522   8.355   6.076 -0.4022 -0.1533 -0.0587
  228MOL0     C29992   8.469   8.487   6.087 -0.7287  0.1563 -0.6129
  228MOL0     C29993   8.315   8.502   6.094 -0.4806  0.5327  0.0400
  228MOL0     O29994   8.268   8.635   6.082  0.2412 -0.0468  0.2856
  228MOL0     C29995   8.132   8.635   6.061  0.5175 -0.4280  0.0213
  228MOL0     C29996   8.043   8.678   6.165 -0.5652  0.4872  0.2749
  228MOL0     C29997   7.907   8.678   6.161 -0.2700 -0.7809  0.1626
  228MOL0     C29998   7.851   8.623   6.046  0.1994 -0.0749 -0.9444
  228MOL0     O29999   7.712   8.615   6.048 -0.2815  0.6157  0.1512
  228MOL0     C30000   7.646   8.590   5.923  0.8108  0.4085  0.8346
  228MOL0     C30001   7.496   8.593   5.927  0.3348 -0.5825 -0.7725
  228MOL0     C30002   7.421   8.562   5.803 -0.3068 -0.1856 -0.2033
  228MOL0     C30003   7.270   8.568   5.830 -0.4103  0.0230 -0.0921
  228MOL0     C30004   7.180   8.546   5.703 -0.0699  0.4752 -0.2573
  228MOL0     C30005   7.117   8.677   5.659  1.1654  0.6488 -0.6771
  228MOL0     C30006   6.992   8.649   5.577 -0.4469  0.4587 -0.2971
  228MOL0     C30007   6.926   8.783   5.548  0.1930 -0.0928 -0.7585
  228MOL0    Cl30008   6.826   8.833   5.707 -0.1656  0.4330  0.1788
  228MOL0     C30009   7.925   8.601   5.935 -0.1596 -0.0058 -0.5016
  228MOL0     C30010   8.070   8.609   5.936 -0.1117  0.7383 -0.3328
  228MOL0     O30011   8.251   8.394   6.102  0.3827  0.0654  0.0711
  228MOL0     C30012   8.563   8.594   6.074 -0.1271  0.5374  0.1778
  228MOL0     C30013   8.703   8.570   6.066  0.6844 -0.6392  0.6961
  228MOL0     N30014   9.580   8.529   5.876 -0.3290  0.1385 -0.4621
  228MOL0     N30015   9.689   8.546   5.942  0.0046  0.3191 -0.5605
  228MOL0     C30016  10.477   8.040   6.161 -0.1702  0.1086 -0.0690
  228MOL0     C30017  10.618   8.026   6.158 -0.9772 -0.6214  0.0947
  228MOL0     C30018  11.045   7.850   6.057  0.4171  0.1003 -0.5054
  228MOL0     C30019  11.103   7.927   6.164  0.8804 -0.3307  0.8788
  228MOL0     C30020  11.234   7.907   6.202  0.5631  0.2935 -1.1673
  228MOL0     C30021  11.312   7.809   6.144 -0.1556  0.2478  0.1742
  228MOL0     O30022  11.422   7.770   6.204  0.4873 -1.1536  0.4769
  228MOL0     C30023  11.499   7.661   6.161 -0.1882 -0.7757  0.0885
  228MOL0     C30024  11.617   7.640   6.254 -0.0790 -0.2449 -0.2061
  228MOL0     C30025  11.715   7.522   6.214  0.3066 -0.1990 -0.3706
  228MOL0     C30026  11.830   7.530   6.317 -0.0750 -0.2074  0.2401
  228MOL0     C30027  11.920   7.410   6.313  0.0396 -0.5603 -0.2542
  228MOL0     C30028  11.993   7.314   6.315 -0.3267  0.4590  0.2982
  228MOL0     C30029  11.251   7.717   6.049 -0.4335 -0.2286  0.3134
  228MOL0     C30030  11.125   7.750   6.005  0.0668  0.9549  0.1271
  228MOL0     H30031  10.638   7.734   5.984  1.1365  1.9496 -2.9409
  228MOL0     H30032  10.425   7.749   5.979  1.9201 -1.7509  0.6694
  228MOL0     H30033  10.100   7.996   5.984  0.6235  2.2340  1.6512
  228MOL0     H30034  10.244   8.023   5.881  0.2774  1.9061 -0.9290
  228MOL0     H30035  10.133   8.224   5.958  0.8072  0.1656 -0.7717
  228MOL0     H30036  10.298   8.226   6.002 -1.1443  1.3107 -1.3825
  228MOL0     H30037  10.133   8.323   6.163  2.6471  0.4375 -0.2859
  228MOL0     H30038  10.230   8.199   6.240 -0.6728 -2.7173 -1.1565
  228MOL0     H30039   9.961   8.132   6.118  2.0615 -0.7772 -1.7644
  228MOL0     H30040  10.061   8.045   6.239  0.9034  1.1382  0.9679
  228MOL0     H30041  10.007   8.193   6.419 -1.7577 -2.5442  1.1093
  228MOL0     H30042   9.860   8.150   6.333  0.6004  0.0455  1.2052
  228MOL0     H30043   9.990   8.416   6.325 -0.9771  0.8332 -0.7567
  228MOL0     H30044   9.835   8.367   6.396  0.9474  2.2279  1.7834
  228MOL0     H30045   9.897   8.329   6.095  0.8051 -3.5928  2.1756
  228MOL0     H30046   9.748   8.289   6.188  1.3857 -1.0691  4.1387
  228MOL0     H30047   9.852   8.569   6.134 -2.2922  1.6555 -1.5397
  228MOL0     H30048   9.724   8.518   6.259 -1.2989 -0.1476 -0.6408
  228MOL0     H30049   9.521   8.363   6.147 -0.2367 -0.6946 -0.3796
  228MOL0     H30050   9.358   8.294   5.908  1.8614  0.7207  2.5776
  228MOL0     H30051   9.338   8.428   5.811  3.3528 -0.0507 -2.1060
  228MOL0     H30052   9.241   8.556   6.011  0.8677  1.0378 -1.1225
  228MOL0     H30053   9.280   8.421   6.118 -2.2479 -2.5651 -0.0420
  228MOL0     H30054   9.088   8.405   5.886  1.7987 -1.9712 -0.3285
  228MOL0     H30055   9.104   8.284   6.009 -0.6150  1.0314  0.8188
  228MOL0     H30056   8.982   8.566   6.036  0.5542  0.7855  2.7519
  228MOL0     H30057   9.017   8.464   6.172  0.0300 -1.7143 -0.7547
  228MOL0     H30058   8.692   8.228   6.063  0.2013 -0.2607  0.1080
  228MOL0     H30059   8.450   8.276   6.095 -1.6064  1.4352  2.6433
  228MOL0     H30060   8.091   8.720   6.253 -2.0767 -1.4259  2.1393
  228MOL0     H30061   7.838   8.733   6.225  2.2511  2.5946  0.2740
  228MOL0     H30062   7.675   8.489   5.894 -1.8279 -0.5571  1.3335
  228MOL0     H30063   7.682   8.675   5.864  1.3887 -0.4930 -0.1524
  228MOL0     H30064   7.463   8.690   5.965  0.2037  0.0133 -2.3561
  228MOL0     H30065   7.469   8.508   5.991 -1.3356  1.2179  1.0442
  228MOL0     H30066   7.437   8.455   5.786  1.2380 -0.1609  0.8421
  228MOL0     H30067   7.465   8.619   5.720  0.7698  0.3591  0.7158
  228MOL0     H30068   7.244   8.490   5.902 -2.1805 -0.4965 -1.2367
  228MOL0     H30069   7.250   8.669   5.866 -0.2059  0.3828 -0.9606
  228MOL0     H30070   7.106   8.477   5.744  1.7694 -2.2578 -1.3032
  228MOL0     H30071   7.231   8.497   5.620  0.1073  1.8499 -0.9991
  228MOL0     H30072   7.197   8.725   5.601  2.7569 -1.3558 -0.2497
  228MOL0     H30073   7.086   8.735   5.747  0.4796 -1.2906  0.4174
  228MOL0     H30074   7.021   8.612   5.478 -0.5403 -0.9565  0.1753
  228MOL0     H30075   6.930   8.575   5.630  1.5647  0.8308  2.8716
  228MOL0     H30076   6.866   8.767   5.458  1.9278 -1.1773 -1.7957
  228MOL0     H30077   7.000   8.855   5.511  1.0011  0.2780  1.4585
  228MOL0     H30078   7.875   8.569   5.844  0.6118 -1.4962 -0.4311
  228MOL0     H30079   8.129   8.585   5.848  0.2133 -1.0653  0.3327
  228MOL0     H30080   8.535   8.698   6.065  0.2208  0.4721 -2.3749
  228MOL0     H30081   8.770   8.655   6.075 -0.1028  0.3775 -2.1163
  228MOL0     H30082  10.435   8.122   6.219  3.1801  3.0600 -1.4734
  228MOL0     H30083  10.672   8.110   6.200 -3.7186  1.2723  0.0695
  228MOL0     H30084  11.052   8.007   6.217  1.4179  0.4736  0.2111
  228MOL0     H30085  11.264   7.959   6.292 -2.1282  3.0580 -1.6858
  228MOL0     H30086  11.557   7.686   6.072  2.5303  1.1063  2.1899
  228MOL0     H30087  11.447   7.565   6.147  1.3315 -1.9778  2.0676
  228MOL0     H30088  11.669   7.736   6.263  2.7686 -1.7077  0.0353
  228MOL0     H30089  11.586   7.605   6.354 -0.2932  0.5016 -0.0088
  228MOL0     H30090  11.758   7.526   6.113 -0.7420  2.6614 -0.7969
  228MOL0     H30091  11.654   7.432   6.220 -0.1361  0.1644  1.0773
  228MOL0     H30092  11.891   7.618   6.294 -2.4100  0.4108 -4.9330
  228MOL0     H30093  11.790   7.531   6.419  1.9021  1.2473  1.0581
  228MOL0     H30094  12.068   7.237   6.318  0.5922  1.2390 -1.2565
  228MOL0     H30095  11.304   7.626   6.021 -0.3163 -1.3386  3.6657
  228MOL0     H30096  11.080   7.678   5.938 -0.6595 -0.5625  2.1335
  229MOL0     O30097   1.335   7.955   0.196  0.1190  0.4704 -0.2198
  229MOL0     C30098   1.275   8.035   0.119 -0.0437  0.0981  0.0782
  229MOL0     O30099   1.333   8.092   0.010 -0.2436 -0.3311 -0.4409
  229MOL0     C30100   1.468   8.100   0.001 -0.1979 -0.1310 -0.6955
  229MOL0     C30101   1.550   8.167   0.089  0.0523 -0.4355 -0.8151
  229MOL0     C30102   1.682   8.182   0.067 -0.6008  0.0966 -0.3647
  229MOL0     C30103   1.748   8.116  -0.036 -0.5953 -1.1231 -1.0460
  229MOL0     O30104   1.877   8.148  -0.077 -0.9368  0.9412 -0.1639
  229MOL0     C30105   1.969   8.165   0.032  0.4182  0.7959  0.0928
  229MOL0     C30106   2.109   8.145  -0.009  0.1014  0.0682  0.7090
  229MOL0     C30107   2.131   8.040  -0.118  0.2194 -0.4432 -0.7265
  229MOL0     C30108   2.268   8.079  -0.179  0.8610  1.0796  0.1722
  229MOL0     C30109   2.342   7.953  -0.218 -0.6319 -0.0403  0.2388
  229MOL0     C30110   2.453   7.985  -0.308 -0.2068  0.7220  0.0395
  229MOL0     C30111   2.566   7.873  -0.330 -0.3662 -0.3041  0.5257
  229MOL0     C30112   2.639   7.839  -0.201  0.7255 -0.1196  0.4299
  229MOL0     N30113   2.736   7.738  -0.237  0.6163 -0.5581  0.4765
  229MOL0     C30114   2.864   7.771  -0.281 -0.1441  0.0376  0.0369
  229MOL0     C30115   2.918   7.654  -0.313  0.1132 -0.2334  1.1471
  229MOL0     C30116   3.061   7.626  -0.379  0.5520  0.3707  0.4986
  229MOL0     C30117   3.069   7.701  -0.513  0.6832 -0.4018 -0.0573
  229MOL0     C30118   3.165   7.641  -0.616 -0.5771 -0.7400  0.2931
  229MOL0     C30119   3.200   7.727  -0.748 -0.0764  0.8934 -0.8086
  229MOL0     O30120   3.078   7.761  -0.817 -0.0538  0.0408  0.1676
  229MOL0     C30121   3.007   7.669  -0.889  0.9063 -0.7502 -0.4778
  229MOL0     C30122   3.044   7.542  -0.927  0.2056 -0.4303 -0.1709
  229MOL0     C30123   2.964   7.476  -1.021  0.7175 -0.4430 -0.8634
  229MOL0     C30124   2.838   7.527  -1.067 -0.4665  0.2596 -0.1666
  229MOL0     C30125   2.758   7.464  -1.171 -0.1644  0.2507  0.7220
  229MOL0     O30126   2.817   7.347  -1.221  0.3136 -0.4123 -0.3521
  229MOL0     C30127   2.756   7.276  -1.317 -0.0715 -0.7979  0.3289
  229MOL0     C30128   2.786   7.138  -1.311 -0.1436  0.0590  0.3662
  229MOL0     C30129   2.735   7.057  -1.413 -0.3032  0.7482 -0.3793
  229MOL0     C30130   2.650   7.099  -1.514  0.5035  0.5499  0.9198
  229MOL0     O30131   2.584   7.018  -1.608 -0.5759 -0.7113 -0.1607
  229MOL0     C30132   2.662   6.925  -1.682 -0.6798 -0.0615  1.1125
  229MOL0     C30133   2.565   6.841  -1.775  1.3451 -0.1379  0.8841
  229MOL0     C30134   2.481   6.908  -1.894 -0.0884  0.4720 -0.6298
  229MOL0     C30135   2.365   6.817  -1.952  0.1126  0.4587 -0.5352
  229MOL0     C30136   2.290   6.898  -2.060 -0.2403 -0.3895  0.7048
  229MOL0     C30137   2.170   6.809  -2.108  0.1959 -0.0532 -0.3730
  229MOL0     C30138   2.055   6.809  -2.012 -0.1981  1.0488  0.2045
  229MOL0     C30139   2.004   6.958  -1.999  0.0708  0.0746 -0.2605
  229MOL0    Cl30140   1.839   6.970  -1.923  0.0861  0.1503  0.1758
  229MOL0     C30141   2.613   7.232  -1.518  0.3128 -0.9157 -0.0563
  229MOL0     C30142   2.673   7.320  -1.420 -0.3294  0.9339 -0.4715
  229MOL0     O30143   2.648   7.506  -1.197 -0.1780 -0.0428  1.3154
  229MOL0     C30144   2.798   7.647  -1.021 -0.6403 -0.4929 -0.6562
  229MOL0     C30145   2.884   7.718  -0.932  0.3424 -0.5268 -0.4248
  229MOL0     N30146   2.830   7.551  -0.306  0.5802 -0.0404  0.5283
  229MOL0     N30147   2.718   7.607  -0.266  0.4427  0.3511  0.6219
  229MOL0     C30148   1.670   8.045  -0.121  0.1578 -0.1714 -0.1827
  229MOL0     C30149   1.531   8.030  -0.107  0.2515 -0.1632 -0.5412
  229MOL0     C30150   1.134   8.065   0.149  0.2260 -0.2170  0.5851
  229MOL0     C30151   1.069   8.025   0.266 -0.6616 -0.1136  0.1481
  229MOL0     C30152   0.936   8.054   0.298 -0.2873 -0.9287 -0.3764
  229MOL0     C30153   0.856   8.122   0.197  0.2917  0.0463 -0.7837
  229MOL0     O30154   0.721   8.160   0.211 -0.6333 -0.1977  0.3876
  229MOL0     C30155   0.663   8.171   0.348 -1.0351  0.0969  0.8120
  229MOL0     C30156   0.521   8.232   0.324 -0.1785 -0.1063 -0.1415
  229MOL0     C30157   0.413   8.192   0.425  1.0317  0.7696 -0.1652
  229MOL0     C30158   0.273   8.261   0.398 -1.0778 -0.3737  0.1107
  229MOL0     C30159   0.294   8.404   0.421  0.4004  0.6391 -0.0295
  229MOL0     C30160   0.333   8.514   0.445  0.4730 -0.4223 -0.0595
  229MOL0     C30161   0.915   8.154   0.083 -0.1401  0.7379  0.6175
  229MOL0     C30162   1.052   8.127   0.058 -0.3551 -0.0681  0.0216
  229MOL0     H30163   1.523   8.199   0.189  2.7217 -2.6234  0.7457
  229MOL0     H30164   1.744   8.240   0.135  1.4442 -0.2408 -1.8420
  229MOL0     H30165   1.952   8.095   0.114  3.5449 -1.4241 -1.0096
  229MOL0     H30166   1.960   8.266   0.074  1.9785  0.7687  0.5266
  229MOL0     H30167   2.174   8.123   0.076  1.2861  0.4450 -0.0783
  229MOL0     H30168   2.136   8.241  -0.054  1.0783 -1.2793 -1.7948
  229MOL0     H30169   2.057   8.045  -0.199  0.7744  5.7027 -1.3674
  229MOL0     H30170   2.137   7.944  -0.067  2.4029  1.6429  3.4541
  229MOL0     H30171   2.242   8.143  -0.264 -5.4232  1.9113  2.1742
  229MOL0     H30172   2.326   8.138  -0.107  0.5973  4.1476 -1.9649
  229MOL0     H30173   2.282   7.881  -0.274  1.3433  0.1412 -2.2715
  229MOL0     H30174   2.381   7.909  -0.125  3.0111 -2.0760 -2.0005
  229MOL0     H30175   2.504   8.078  -0.281 -1.8712  1.0503  2.3627
  229MOL0     H30176   2.416   8.005  -0.409 -0.4941 -2.2420 -0.5448
  229MOL0     H30177   2.517   7.785  -0.372  0.4812  0.0130 -1.2341
  229MOL0     H30178   2.637   7.905  -0.407  0.1250 -0.4395  0.9158
  229MOL0     H30179   2.560   7.795  -0.139 -0.2179 -0.3592 -0.9023
  229MOL0     H30180   2.671   7.927  -0.145 -2.3111  0.3057  1.7019
  229MOL0     H30181   2.930   7.857  -0.267 -1.3582  1.3062 -1.6916
  229MOL0     H30182   3.068   7.520  -0.406  1.6332  0.6208 -0.2332
  229MOL0     H30183   3.136   7.654  -0.304  0.5478 -2.2256  1.5677
  229MOL0     H30184   3.099   7.802  -0.483  3.3720 -1.8722  2.8334
  229MOL0     H30185   2.967   7.709  -0.551  0.6950  1.9792  0.2478
  229MOL0     H30186   3.256   7.629  -0.556 -0.3496  0.8854  0.3334
  229MOL0     H30187   3.132   7.541  -0.644 -3.5967  0.6118 -1.4114
  229MOL0     H30188   3.266   7.660  -0.803 -0.7734 -0.4179 -0.1095
  229MOL0     H30189   3.251   7.818  -0.715 -1.5400  0.8747  1.8213
  229MOL0     H30190   3.127   7.494  -0.875 -1.1146 -2.6176  0.0417
  229MOL0     H30191   2.993   7.380  -1.063  1.6652 -0.4988 -0.1224
  229MOL0     H30192   2.862   7.111  -1.239  0.0683  2.0781  0.9831
  229MOL0     H30193   2.750   6.951  -1.401 -0.4272  0.9771  2.2140
  229MOL0     H30194   2.715   6.859  -1.613 -0.0649  3.7099  4.6656
  229MOL0     H30195   2.734   6.973  -1.749  0.2606  0.5222  2.5082
  229MOL0     H30196   2.484   6.796  -1.716  0.8700  0.7221  0.8990
  229MOL0     H30197   2.630   6.766  -1.821  2.6525  0.5813  1.5156
  229MOL0     H30198   2.548   6.939  -1.975  0.1444 -0.3532 -0.7617
  229MOL0     H30199   2.438   6.997  -1.848  0.8085  0.2923  0.6179
  229MOL0     H30200   2.402   6.721  -1.991  0.4688  0.9017 -1.3160
  229MOL0     H30201   2.289   6.780  -1.883 -1.4582 -1.5349 -3.1206
  229MOL0     H30202   2.367   6.900  -2.137  0.5775 -2.1433  1.4358
  229MOL0     H30203   2.265   6.995  -2.016 -1.0150 -1.2249  2.1943
  229MOL0     H30204   2.189   6.706  -2.139 -2.0591 -0.2212 -1.4220
  229MOL0     H30205   2.134   6.847  -2.204 -2.6028 -0.2042  0.5311
  229MOL0     H30206   1.981   6.744  -2.060 -1.7328  1.5329  1.8390
  229MOL0     H30207   2.085   6.757  -1.921  0.4384 -0.0199 -0.5776
  229MOL0     H30208   1.999   6.990  -2.103 -0.7743 -5.6145 -2.3202
  229MOL0     H30209   2.066   7.019  -1.933  0.0544 -0.9073  0.7008
  229MOL0     H30210   2.553   7.266  -1.602 -0.6591  1.4991  1.5089
  229MOL0     H30211   2.627   7.419  -1.424 -0.1338  1.0203 -0.6215
  229MOL0     H30212   2.716   7.705  -1.063 -0.0497  1.0654  0.2219
  229MOL0     H30213   2.859   7.819  -0.903  0.8478 -0.7229  0.7741
  229MOL0     H30214   1.718   7.990  -0.202  1.8637 -0.3868  0.9322
  229MOL0     H30215   1.462   7.976  -0.171 -1.6755  2.7262 -1.1095
  229MOL0     H30216   1.135   7.986   0.343  1.1150  3.7676  0.8057
  229MOL0     H30217   0.897   8.028   0.395 -5.5543 -0.5200 -2.0915
  229MOL0     H30218   0.720   8.246   0.403 -1.4342 -1.4651  3.5849
  229MOL0     H30219   0.656   8.079   0.408  2.8269 -1.1118 -0.2680
  229MOL0     H30220   0.529   8.341   0.335  0.9648 -0.2056  0.0735
  229MOL0     H30221   0.492   8.207   0.222  3.9047 -0.6897 -1.3096
  229MOL0     H30222   0.451   8.221   0.523  1.0047 -0.8911  0.3725
  229MOL0     H30223   0.396   8.084   0.427 -0.2958  0.9635  0.0853
  229MOL0     H30224   0.248   8.233   0.295 -0.5161 -2.7964  0.5829
  229MOL0     H30225   0.212   8.222   0.480  0.0278 -2.5546 -0.0253
  229MOL0     H30226   0.373   8.604   0.490 -0.9780  0.0993  0.2254
  229MOL0     H30227   0.861   8.210   0.007  0.8697  0.2154 -0.5370
  229MOL0     H30228   1.095   8.160  -0.035 -0.5702 -1.6675 -0.6802
  230MOL0     O30229   3.974   3.313   7.863 -0.2816  0.0077  0.0514
  230MOL0     C30230   4.084   3.377   7.872  0.6036  0.0692 -0.7284
  230MOL0     O30231   4.088   3.514   7.872  0.5610 -0.2878  0.5357
  230MOL0     C30232   3.963   3.576   7.880 -0.8193 -0.2791  0.3361
  230MOL0     C30233   3.867   3.558   7.774  0.1134 -0.1965 -1.3408
  230MOL0     C30234   3.733   3.607   7.780 -0.4292 -1.6917 -0.1004
  230MOL0     C30235   3.694   3.674   7.898  0.2716  0.1409  0.1437
  230MOL0     O30236   3.562   3.706   7.909  0.6365  0.5785  0.1904
  230MOL0     C30237   3.508   3.800   8.004 -0.9009  0.2333 -0.3500
  230MOL0     C30238   3.382   3.862   7.931 -0.0211  0.2905  0.6635
  230MOL0     C30239   3.430   3.969   7.832 -0.0632  0.1843  0.5511
  230MOL0     C30240   3.325   4.055   7.777 -0.5994  0.2773  0.2318
  230MOL0     C30241   3.238   3.977   7.671 -1.1462 -0.3750 -0.1276
  230MOL0     C30242   3.307   3.988   7.530 -0.0432 -0.6840  0.0904
  230MOL0     C30243   3.202   3.942   7.429  0.0880 -0.5282  1.2355
  230MOL0     C30244   3.266   3.909   7.303  0.5625  0.3791  0.2047
  230MOL0     N30245   3.165   3.907   7.200  0.2271  0.0610 -0.8590
  230MOL0     C30246   3.074   3.809   7.174 -0.5720  0.7252  1.7866
  230MOL0     C30247   3.011   3.842   7.055 -0.5370 -0.0622 -0.3698
  230MOL0     C30248   2.888   3.766   7.007 -0.1018 -0.3934  0.1650
  230MOL0     C30249   2.783   3.850   6.951  0.0684  0.1282  1.3129
  230MOL0     C30250   2.797   3.913   6.818  0.3999  0.8881  0.3389
  230MOL0     C30251   2.689   4.021   6.798 -0.6131  0.6832  0.2478
  230MOL0     O30252   2.702   4.062   6.659 -0.1946 -0.2380  0.5455
  230MOL0     C30253   2.580   4.090   6.601 -0.2028  0.3920  0.1229
  230MOL0     C30254   2.485   4.179   6.648 -0.3968  0.2452  0.6941
  230MOL0     C30255   2.362   4.203   6.592 -0.1797  0.5681  0.3683
  230MOL0     C30256   2.328   4.126   6.477 -0.4791  0.3576  0.1782
  230MOL0     C30257   2.197   4.135   6.418  0.1543  0.8086 -0.3394
  230MOL0     O30258   2.170   4.035   6.330  0.2750 -0.8032  0.9814
  230MOL0     C30259   2.063   4.043   6.235  0.3618 -0.5171  1.1636
  230MOL0     C30260   2.096   4.102   6.113  0.6701 -0.1213 -0.6573
  230MOL0     C30261   1.999   4.130   6.014  0.1732 -0.3942 -0.2204
  230MOL0     C30262   1.861   4.108   6.033 -0.1820  0.1971 -0.3477
  230MOL0     O30263   1.771   4.130   5.934  0.5037 -0.1157 -0.0307
  230MOL0     C30264   1.689   4.014   5.935  0.4219 -0.8937  0.5203
  230MOL0     C30265   1.598   4.009   5.811 -0.3846  0.4062 -0.0682
  230MOL0     C30266   1.678   4.046   5.687  0.1380  0.8119 -0.1409
  230MOL0     C30267   1.598   4.043   5.559  0.0016  0.1851 -0.3132
  230MOL0     C30268   1.679   4.095   5.443  0.1979 -0.4657 -0.2166
  230MOL0     C30269   1.588   4.147   5.332  0.1383  0.6511  0.2240
  230MOL0     C30270   1.476   4.039   5.292 -0.4139 -1.2625  0.0178
  230MOL0     C30271   1.396   4.077   5.166  0.1633 -0.3881  0.0202
  230MOL0    Cl30272   1.271   4.204   5.208  0.3711 -0.3744 -0.8966
  230MOL0     C30273   1.836   4.050   6.163 -0.1843 -0.0680  0.3376
  230MOL0     C30274   1.930   4.019   6.265  0.8638 -1.0952  0.0224
  230MOL0     O30275   2.129   4.232   6.439 -0.1692 -0.8101 -0.6233
  230MOL0     C30276   2.427   4.032   6.427 -0.6839 -0.6352  1.1615
  230MOL0     C30277   2.550   4.022   6.486 -0.2619  0.3442  0.1153
  230MOL0     N30278   3.078   3.961   7.012  0.6118  0.2794 -0.0355
  230MOL0     N30279   3.174   3.997   7.096  0.0249 -0.6938 -0.2201
  230MOL0     C30280   3.794   3.697   7.997  0.4449  0.0002  0.3089
  230MOL0     C30281   3.926   3.654   7.991  0.4018 -0.4773  0.9407
  230MOL0     C30282   4.214   3.319   7.870 -0.4924  0.9071  0.4448
  230MOL0     C30283   4.330   3.396   7.869 -0.4970 -0.6173  0.2081
  230MOL0     C30284   4.451   3.330   7.884 -0.0526 -0.0118  0.1530
  230MOL0     C30285   4.467   3.195   7.909 -0.0106 -0.5318 -0.0850
  230MOL0     O30286   4.594   3.145   7.945 -0.0071 -0.3130 -0.2894
  230MOL0     C30287   4.599   3.002   7.952  0.6515 -0.7521  0.7558
  230MOL0     C30288   4.730   2.957   8.023  0.6965  0.6982  0.5059
  230MOL0     C30289   4.760   2.808   7.975 -0.2008  0.1909  0.9746
  230MOL0     C30290   4.682   2.706   8.060  0.9421  0.0746  0.5374
  230MOL0     C30291   4.708   2.726   8.202  0.5562 -0.0089  0.1929
  230MOL0     C30292   4.719   2.732   8.318 -0.9705 -0.2588 -0.2325
  230MOL0     C30293   4.348   3.122   7.909  0.5663 -0.2873  0.8175
  230MOL0     C30294   4.226   3.182   7.882  0.1758 -0.4660  0.1882
  230MOL0     H30295   3.902   3.506   7.686 -1.4881  0.2798 -2.3005
  230MOL0     H30296   3.675   3.585   7.691  2.1835  0.6329 -2.5958
  230MOL0     H30297   3.573   3.884   8.030 -2.0571  0.1942  3.2670
  230MOL0     H30298   3.474   3.757   8.099 -1.0690 -0.9227 -0.9215
  230MOL0     H30299   3.308   3.903   8.001  0.9509  0.8687  1.3802
  230MOL0     H30300   3.337   3.783   7.871 -2.2227  1.7074  0.3445
  230MOL0     H30301   3.474   3.919   7.745 -2.4331 -1.7839  0.3745
  230MOL0     H30302   3.506   4.037   7.873  1.6912 -1.2500 -0.1885
  230MOL0     H30303   3.251   4.084   7.852  0.0799  3.2758 -0.1315
  230MOL0     H30304   3.378   4.143   7.739  1.9715 -0.1777  2.4123
  230MOL0     H30305   3.142   4.028   7.665  0.0918  2.2106  0.5287
  230MOL0     H30306   3.215   3.877   7.710  2.2583 -2.4662 -2.9317
  230MOL0     H30307   3.395   3.924   7.537  1.4488  1.4799  2.5514
  230MOL0     H30308   3.344   4.089   7.508  1.9575 -1.4221 -0.1746
  230MOL0     H30309   3.158   3.851   7.472 -0.0510 -1.1532 -0.1911
  230MOL0     H30310   3.126   4.020   7.418 -0.0201 -0.3684  2.8923
  230MOL0     H30311   3.315   3.811   7.302 -0.5558 -0.2114 -1.7958
  230MOL0     H30312   3.340   3.988   7.285 -0.4211  1.7706  1.9562
  230MOL0     H30313   3.053   3.714   7.222 -3.1600  0.3085 -0.0289
  230MOL0     H30314   2.839   3.723   7.095  0.6515 -0.8262  0.3826
  230MOL0     H30315   2.918   3.685   6.940 -0.3030  0.0678 -0.4880
  230MOL0     H30316   2.776   3.931   7.025  3.5965  1.1494  0.7202
  230MOL0     H30317   2.699   3.782   6.934  1.2501 -1.6619  2.3760
  230MOL0     H30318   2.893   3.963   6.802  0.8504 -0.2460 -0.6044
  230MOL0     H30319   2.781   3.841   6.738 -3.1068 -0.7253  2.2558
  230MOL0     H30320   2.693   4.102   6.871 -1.3282  0.2032  0.8277
  230MOL0     H30321   2.592   3.971   6.812 -0.4998 -0.8868 -3.3259
  230MOL0     H30322   2.497   4.231   6.742 -0.6642 -0.3004  1.0370
  230MOL0     H30323   2.294   4.276   6.636 -0.4064  0.8219 -0.3899
  230MOL0     H30324   2.197   4.141   6.101  1.7907 -2.5205  0.3639
  230MOL0     H30325   2.021   4.169   5.915 -1.2830 -1.3247 -0.9354
  230MOL0     H30326   1.624   4.004   6.023  3.6818 -3.5973  2.9041
  230MOL0     H30327   1.755   3.927   5.930  1.6314  0.0319 -0.0766
  230MOL0     H30328   1.522   4.086   5.821 -0.0934  0.4705  2.1340
  230MOL0     H30329   1.544   3.914   5.806 -1.5970  0.8841  2.3277
  230MOL0     H30330   1.769   3.986   5.687  0.3101  1.0701 -0.3854
  230MOL0     H30331   1.718   4.146   5.706 -1.1619  1.3895 -0.3826
  230MOL0     H30332   1.562   3.941   5.545  1.0522  0.0067 -1.9752
  230MOL0     H30333   1.512   4.109   5.572  0.1509  0.8904 -2.5057
  230MOL0     H30334   1.753   4.024   5.404  1.8054  0.9203  0.1741
  230MOL0     H30335   1.734   4.181   5.483  0.0507 -0.7203  0.5446
  230MOL0     H30336   1.649   4.177   5.245 -1.4890  2.2328 -0.4359
  230MOL0     H30337   1.535   4.234   5.373  0.7695  1.3014 -0.3075
  230MOL0     H30338   1.522   3.942   5.271  1.4182 -0.2600 -0.8782
  230MOL0     H30339   1.413   4.031   5.381  0.7623 -0.0951  1.0074
  230MOL0     H30340   1.338   3.989   5.135 -3.2785  1.5927  0.3264
  230MOL0     H30341   1.463   4.112   5.088 -1.5518  0.6435 -1.0534
  230MOL0     H30342   1.734   4.026   6.191  0.1583 -1.3441  0.5488
  230MOL0     H30343   1.905   3.972   6.359  1.2000  0.8719  1.1384
  230MOL0     H30344   2.410   3.959   6.349  1.2944  0.7643 -0.7059
  230MOL0     H30345   2.617   3.943   6.455 -0.7832  0.2798 -0.8921
  230MOL0     H30346   3.767   3.751   8.087 -0.6765 -1.4195  0.8669
  230MOL0     H30347   4.001   3.683   8.063  2.0375 -0.3959 -0.7215
  230MOL0     H30348   4.324   3.504   7.869 -1.9356 -0.6315  2.7888
  230MOL0     H30349   4.538   3.394   7.895  0.7642 -1.2261  0.9910
  230MOL0     H30350   4.569   2.945   7.863 -1.5106 -1.2175  1.7079
  230MOL0     H30351   4.532   2.961   8.028  1.1895 -2.5473  0.3128
  230MOL0     H30352   4.817   3.018   7.995 -2.3020  4.0586 -2.5497
  230MOL0     H30353   4.718   2.952   8.131  2.7354  1.8241  0.8367
  230MOL0     H30354   4.869   2.810   7.984 -0.0649  0.2710 -0.5744
  230MOL0     H30355   4.735   2.786   7.871  1.8370  1.2355  0.2006
  230MOL0     H30356   4.574   2.701   8.042  0.7258 -1.3448  1.9768
  230MOL0     H30357   4.705   2.602   8.033 -0.3628 -0.3686  1.0307
  230MOL0     H30358   4.739   2.750   8.421  0.1016  3.8374 -1.0063
  230MOL0     H30359   4.356   3.019   7.940 -0.4755 -1.1302 -1.5104
  230MOL0     H30360   4.138   3.120   7.887 -0.6898  0.7927  1.4103
  231MOL0     O30361   0.409   4.345   3.163 -0.6603  0.1942 -0.4060
  231MOL0     C30362   0.488   4.410   3.226 -0.3263  0.1944 -0.0425
  231MOL0     O30363   0.486   4.429   3.361 -0.2496 -0.4827  0.7611
  231MOL0     C30364   0.378   4.384   3.427  0.4829 -0.8344 -0.7813
  231MOL0     C30365   0.298   4.483   3.480  0.9362 -0.1234 -1.1441
  231MOL0     C30366   0.176   4.448   3.550  1.2263  0.2370  0.1683
  231MOL0     C30367   0.150   4.317   3.572  0.4738  0.5484  0.3071
  231MOL0     O30368   0.024   4.282   3.623 -0.4094  0.1023 -0.2784
  231MOL0     C30369  -0.005   4.335   3.751  0.5175 -0.1794 -0.5684
  231MOL0     C30370  -0.152   4.355   3.767  1.3998  0.0950 -0.6092
  231MOL0     C30371  -0.199   4.420   3.910 -0.4870  0.5032  0.0356
  231MOL0     C30372  -0.357   4.415   3.910 -0.2689 -0.1309 -0.6941
  231MOL0     C30373  -0.405   4.490   4.029  0.2147  0.6185  0.5022
  231MOL0     C30374  -0.539   4.540   4.016  0.9851  0.5434 -0.2775
  231MOL0     C30375  -0.648   4.438   4.056 -0.1253 -0.2638  0.0292
  231MOL0     C30376  -0.788   4.481   3.996 -0.0250  0.8639 -0.4020
  231MOL0     N30377  -0.824   4.614   4.051 -0.7005  0.2255 -1.1220
  231MOL0     C30378  -0.867   4.727   3.985  0.4989  0.2540  0.0635
  231MOL0     C30379  -0.872   4.821   4.083  0.1690  0.0205  0.3945
  231MOL0     C30380  -0.918   4.962   4.052  0.6321 -0.0932 -0.0603
  231MOL0     C30381  -1.068   4.978   4.033 -0.1974 -0.2623 -0.7088
  231MOL0     C30382  -1.148   4.937   4.158 -0.0170 -0.7008 -0.2130
  231MOL0     C30383  -1.160   5.051   4.260 -0.3701  0.3201  0.0371
  231MOL0     O30384  -1.259   5.142   4.215 -0.0202  0.3405 -0.4002
  231MOL0     C30385  -1.388   5.131   4.249 -0.5174 -0.2881 -1.0097
  231MOL0     C30386  -1.448   5.007   4.280 -1.1526  0.6107  0.9503
  231MOL0     C30387  -1.585   4.988   4.282  0.6853  0.1272 -0.5600
  231MOL0     C30388  -1.672   5.101   4.289 -1.1685  0.6780  0.3014
  231MOL0     C30389  -1.817   5.092   4.302 -0.0246 -0.6689 -0.4775
  231MOL0     O30390  -1.893   5.203   4.268 -0.4918 -0.8003  0.7438
  231MOL0     C30391  -2.023   5.212   4.314 -0.0179 -1.0570  0.6158
  231MOL0     C30392  -2.127   5.258   4.223 -1.1961 -0.0117  0.6869
  231MOL0     C30393  -2.264   5.267   4.267 -0.6410  0.3788 -0.0102
  231MOL0     C30394  -2.293   5.248   4.405 -0.6276  0.1857  0.2230
  231MOL0     O30395  -2.417   5.260   4.438  0.1268  0.3186  0.2982
  231MOL0     C30396  -2.461   5.185   4.554  0.7916  0.1955  0.1719
  231MOL0     C30397  -2.615   5.172   4.553  0.2025  0.1045  0.5644
  231MOL0     C30398  -2.690   5.101   4.673  0.7222 -0.3030  0.5335
  231MOL0     C30399  -2.828   5.063   4.647 -1.0816 -0.6754 -0.1588
  231MOL0     C30400  -2.891   4.988   4.769  0.1755  0.8564 -1.1570
  231MOL0     C30401  -3.037   4.939   4.739 -0.7394  0.3053 -0.3461
  231MOL0     C30402  -3.149   5.044   4.742  0.9358 -0.0487  0.1646
  231MOL0     C30403  -3.286   4.979   4.739 -0.1589 -0.2678  1.0099
  231MOL0    Cl30404  -3.409   5.096   4.681  0.6001  0.0789 -0.0490
  231MOL0     C30405  -2.191   5.221   4.495 -0.1786 -0.3619 -1.3652
  231MOL0     C30406  -2.060   5.196   4.444 -0.1051  0.1310 -0.2904
  231MOL0     O30407  -1.868   4.987   4.338  0.2962 -0.1590 -1.1897
  231MOL0     C30408  -1.608   5.227   4.261  1.6406 -0.1997 -0.2279
  231MOL0     C30409  -1.476   5.239   4.244 -0.4060 -0.6695 -0.0883
  231MOL0     N30410  -0.833   4.766   4.202 -0.0365  0.1331  0.9755
  231MOL0     N30411  -0.813   4.642   4.189  0.0361  0.4931 -0.0729
  231MOL0     C30412   0.231   4.223   3.521 -0.6553 -0.3162 -0.2760
  231MOL0     C30413   0.348   4.249   3.449 -0.4630 -0.4614 -0.1169
  231MOL0     C30414   0.593   4.472   3.145  0.4508  0.3100 -0.0144
  231MOL0     C30415   0.703   4.533   3.204  0.1625  0.5712 -0.0108
  231MOL0     C30416   0.794   4.603   3.129 -0.8805  0.0421 -0.2641
  231MOL0     C30417   0.794   4.608   2.992  0.5990  0.0698 -0.0759
  231MOL0     O30418   0.906   4.656   2.935  0.1476 -0.3546  0.3799
  231MOL0     C30419   0.914   4.643   2.792  0.6567 -0.9815  0.1868
  231MOL0     C30420   1.050   4.681   2.758 -0.5756 -0.9908  0.2273
  231MOL0     C30421   1.090   4.822   2.806  0.2380 -0.4417 -0.1698
  231MOL0     C30422   1.144   4.913   2.692  0.1104 -0.3680  0.7901
  231MOL0     C30423   1.177   5.039   2.746  0.0019 -0.5890  0.0953
  231MOL0     C30424   1.207   5.145   2.807  0.2601  0.9950  0.1557
  231MOL0     C30425   0.688   4.541   2.933  0.9465 -0.5076 -0.4644
  231MOL0     C30426   0.581   4.478   3.007  0.0048  0.2566 -0.1849
  231MOL0     H30427   0.305   4.590   3.464 -3.9476  0.4051 -1.1060
  231MOL0     H30428   0.103   4.520   3.586  1.3425  0.0352  0.8108
  231MOL0     H30429   0.045   4.432   3.764 -0.4153  0.2006  0.3519
  231MOL0     H30430   0.049   4.262   3.812  1.2432 -2.1108 -3.3472
  231MOL0     H30431  -0.190   4.253   3.761 -0.3219  0.6493  0.3098
  231MOL0     H30432  -0.193   4.410   3.682 -0.1612 -2.5970 -1.6921
  231MOL0     H30433  -0.166   4.524   3.917  1.8431 -0.0807 -1.4372
  231MOL0     H30434  -0.167   4.360   3.996  1.6585 -1.0662 -1.7490
  231MOL0     H30435  -0.394   4.462   3.819  1.6004 -2.0966 -2.5866
  231MOL0     H30436  -0.390   4.311   3.902 -0.0496 -0.2796  0.2253
  231MOL0     H30437  -0.340   4.578   4.033 -0.1299  0.9149 -0.2666
  231MOL0     H30438  -0.386   4.436   4.122  3.0715  1.5179  0.5355
  231MOL0     H30439  -0.550   4.570   3.912 -0.3205 -0.5140 -0.4765
  231MOL0     H30440  -0.549   4.626   4.083  0.8495  0.3187 -0.0076
  231MOL0     H30441  -0.628   4.340   4.013 -2.0624 -0.4983 -0.4465
  231MOL0     H30442  -0.665   4.433   4.164 -1.3528 -3.3587 -0.2125
  231MOL0     H30443  -0.869   4.413   4.022  1.2813 -0.8658 -0.6867
  231MOL0     H30444  -0.775   4.483   3.888  1.0730  2.2621 -0.2797
  231MOL0     H30445  -0.905   4.735   3.884 -3.6491  0.0051  1.4369
  231MOL0     H30446  -0.865   4.995   3.962 -1.1709  1.7150 -0.5252
  231MOL0     H30447  -0.885   5.031   4.130 -1.3640  0.6562  0.1660
  231MOL0     H30448  -1.093   4.908   3.953 -4.2834  0.3025 -0.1598
  231MOL0     H30449  -1.083   5.079   3.993  1.3185  0.2349 -0.1045
  231MOL0     H30450  -1.248   4.902   4.132  0.4776 -0.1093 -3.3066
  231MOL0     H30451  -1.103   4.845   4.197 -1.7479 -1.4413  0.0970
  231MOL0     H30452  -1.059   5.091   4.274  1.1601 -3.7655  2.7835
  231MOL0     H30453  -1.183   5.002   4.355  3.1885  0.5547  1.1697
  231MOL0     H30454  -1.386   4.918   4.276 -0.6711  0.9680  0.2204
  231MOL0     H30455  -1.630   4.889   4.283  0.2671  0.1827 -3.4859
  231MOL0     H30456  -2.097   5.278   4.121 -0.8941 -1.6707  0.4103
  231MOL0     H30457  -2.344   5.298   4.201 -0.0021  1.3709 -0.3484
  231MOL0     H30458  -2.432   5.223   4.652 -2.0935 -1.6300  1.8811
  231MOL0     H30459  -2.416   5.086   4.544  0.0135 -0.3357  1.6369
  231MOL0     H30460  -2.634   5.115   4.462 -1.3778  1.7287 -0.1778
  231MOL0     H30461  -2.661   5.270   4.534  0.4281 -0.3920 -3.4276
  231MOL0     H30462  -2.711   5.177   4.749 -2.2469  0.3810 -0.8336
  231MOL0     H30463  -2.623   5.026   4.715  0.7586 -0.7519 -0.3052
  231MOL0     H30464  -2.872   5.160   4.619  2.6658  0.7510 -1.8255
  231MOL0     H30465  -2.828   4.993   4.564  0.4801 -1.5818  0.5683
  231MOL0     H30466  -2.897   5.048   4.859 -1.1844 -0.8696 -0.0243
  231MOL0     H30467  -2.841   4.894   4.796 -2.6734 -0.3300  0.4127
  231MOL0     H30468  -3.064   4.872   4.821  0.5605 -0.1257 -0.2477
  231MOL0     H30469  -3.046   4.874   4.652 -1.0454  1.0243 -0.8649
  231MOL0     H30470  -3.142   5.109   4.830 -0.0320  0.2251  0.0525
  231MOL0     H30471  -3.136   5.103   4.651  1.1591 -0.8628 -0.3425
  231MOL0     H30472  -3.317   4.957   4.842  0.5988 -0.2796  1.2430
  231MOL0     H30473  -3.280   4.892   4.673  3.4144 -0.1014  0.9126
  231MOL0     H30474  -2.196   5.222   4.604  2.3075 -1.2653 -1.1762
  231MOL0     H30475  -1.982   5.189   4.519 -0.5725 -2.6565  0.0581
  231MOL0     H30476  -1.676   5.311   4.256  0.0582 -1.5025 -3.0752
  231MOL0     H30477  -1.452   5.343   4.226 -4.5156  0.9393  2.2306
  231MOL0     H30478   0.196   4.122   3.539  0.3396 -0.6989 -0.4209
  231MOL0     H30479   0.406   4.167   3.408 -0.7269 -1.0017  0.5611
  231MOL0     H30480   0.721   4.516   3.309  3.6734 -0.7272 -0.6847
  231MOL0     H30481   0.873   4.659   3.179 -0.9737 -0.4892  0.4887
  231MOL0     H30482   0.843   4.715   2.750 -0.7803 -1.7455  1.2309
  231MOL0     H30483   0.887   4.541   2.762  1.6207 -0.7288 -1.6643
  231MOL0     H30484   1.122   4.609   2.797  1.7104  1.6424  1.2742
  231MOL0     H30485   1.064   4.669   2.650  0.6827 -1.6049  0.4411
  231MOL0     H30486   1.165   4.826   2.885  1.4218 -0.0788 -1.2773
  231MOL0     H30487   1.001   4.873   2.846  1.8652  2.4109  0.0673
  231MOL0     H30488   1.234   4.872   2.646  0.3653 -1.2458  2.0119
  231MOL0     H30489   1.071   4.924   2.611  1.2033 -2.2462 -0.5149
  231MOL0     H30490   1.216   5.238   2.858 -1.9787  1.2450  0.2270
  231MOL0     H30491   0.674   4.556   2.826  2.1493  0.8877 -0.4651
  231MOL0     H30492   0.491   4.442   2.958 -2.9771  1.7354  3.6884
  232MOL0     O30493   9.421   2.075   8.764  0.4388  0.3188 -0.0960
  232MOL0     C30494   9.402   1.962   8.803  0.1958 -0.6791 -0.4442
  232MOL0     O30495   9.473   1.892   8.894 -0.0159  0.0408 -0.4581
  232MOL0     C30496   9.595   1.941   8.925 -0.4910 -0.3647  0.7478
  232MOL0     C30497   9.686   2.014   8.842  0.6251  1.6099 -0.2055
  232MOL0     C30498   9.807   2.067   8.896  0.4148  0.3664  0.7944
  232MOL0     C30499   9.848   2.029   9.031 -0.3504 -1.1097 -0.4997
  232MOL0     O30500   9.969   2.059   9.090  0.2001  0.2717  0.1916
  232MOL0     C30501  10.036   2.182   9.066 -0.6163 -0.2176 -0.5037
  232MOL0     C30502  10.188   2.155   9.045  0.4489 -0.1852  0.0522
  232MOL0     C30503  10.262   2.144   9.180 -0.0890 -0.3782 -0.4974
  232MOL0     C30504  10.413   2.104   9.165  0.4474  1.4156  0.1206
  232MOL0     C30505  10.426   1.966   9.092 -0.8288 -0.5776  0.2161
  232MOL0     C30506  10.579   1.922   9.111 -0.4482  0.4752 -0.0401
  232MOL0     C30507  10.676   2.016   9.038  0.4240 -0.5014 -0.1028
  232MOL0     C30508  10.814   1.974   9.037 -0.4652 -0.9729 -0.2845
  232MOL0     N30509  10.900   2.087   8.992  0.2525 -0.4122  0.2055
  232MOL0     C30510  10.924   2.099   8.851  0.1379  0.4661 -0.3450
  232MOL0     C30511  11.044   2.159   8.837 -0.5851  0.0014 -0.0199
  232MOL0     C30512  11.112   2.193   8.706  0.7171  0.1119 -0.0908
  232MOL0     C30513  11.159   2.075   8.631  1.1431  0.0404  0.4627
  232MOL0     C30514  11.298   2.020   8.663 -0.4581 -0.3256  0.0551
  232MOL0     C30515  11.336   1.915   8.559  0.2644  0.2912  0.3341
  232MOL0     O30516  11.458   1.945   8.489  0.0648  0.5521  0.7111
  232MOL0     C30517  11.585   1.916   8.534  0.0957  0.3375 -0.6115
  232MOL0     C30518  11.614   1.872   8.663  0.0092  0.3048 -0.6658
  232MOL0     C30519  11.735   1.812   8.698 -0.6134  0.1634 -0.1285
  232MOL0     C30520  11.844   1.816   8.605  0.3530 -0.1030  0.1400
  232MOL0     C30521  11.979   1.755   8.639  0.3869  0.1964  0.1475
  232MOL0     O30522  12.053   1.733   8.528 -1.0215  1.0071 -0.8090
  232MOL0     C30523  12.179   1.687   8.549 -0.1456 -0.1252 -0.3459
  232MOL0     C30524  12.284   1.777   8.522 -0.7634 -0.4489  0.3269
  232MOL0     C30525  12.414   1.738   8.556  0.1429 -0.7904 -0.4891
  232MOL0     C30526  12.438   1.619   8.620  0.6172 -0.2977 -1.2845
  232MOL0     O30527  12.560   1.570   8.670  0.8467 -0.9035  1.0871
  232MOL0     C30528  12.655   1.670   8.718 -0.5086  0.6058  0.1759
  232MOL0     C30529  12.785   1.597   8.770 -0.0409 -1.1341 -0.2368
  232MOL0     C30530  12.878   1.540   8.672  0.5617  0.6216 -0.1170
  232MOL0     C30531  12.809   1.439   8.578  0.3824 -0.2683  0.3679
  232MOL0     C30532  12.918   1.354   8.499  0.1518 -0.4144  0.5598
  232MOL0     C30533  12.874   1.222   8.433  0.4159  0.2731  0.4715
  232MOL0     C30534  12.837   1.240   8.286  0.4990 -0.2321 -0.7811
  232MOL0     C30535  12.697   1.289   8.266  0.3817 -0.4221 -0.0329
  232MOL0    Cl30536  12.565   1.165   8.309 -0.0577 -0.4872  0.4851
  232MOL0     C30537  12.331   1.529   8.629 -0.0575  0.5446  0.6058
  232MOL0     C30538  12.207   1.564   8.608  0.2437 -0.1024  0.3276
  232MOL0     O30539  12.015   1.727   8.752 -0.4129 -0.3210  0.3749
  232MOL0     C30540  11.818   1.867   8.479  0.0192 -0.6022  0.0243
  232MOL0     C30541  11.688   1.909   8.438 -0.5213 -0.2708 -0.0273
  232MOL0     N30542  11.091   2.185   8.967 -0.0683 -0.1527 -0.0459
  232MOL0     N30543  11.004   2.146   9.057  0.8503  0.1188  0.1898
  232MOL0     C30544   9.760   1.947   9.108 -0.0398 -0.7908 -0.6716
  232MOL0     C30545   9.643   1.899   9.050 -0.9293 -0.3254 -0.7891
  232MOL0     C30546   9.293   1.888   8.734 -0.5601  0.4551  0.3740
  232MOL0     C30547   9.198   1.957   8.656  0.4447  0.5189 -1.8567
  232MOL0     C30548   9.090   1.891   8.597  0.0086  0.9752  0.0070
  232MOL0     C30549   9.072   1.751   8.604 -0.0870 -1.0431 -0.5242
  232MOL0     O30550   8.951   1.697   8.553 -0.1592  0.0933 -0.3026
  232MOL0     C30551   8.910   1.576   8.616  0.0242 -1.3543  0.1866
  232MOL0     C30552   8.761   1.559   8.572  0.8163 -0.2015 -0.0300
  232MOL0     C30553   8.715   1.436   8.655  0.2577 -0.4651  0.2619
  232MOL0     C30554   8.572   1.382   8.638  0.4355  0.6070 -1.1273
  232MOL0     C30555   8.551   1.257   8.733 -0.1630 -0.3369 -0.1731
  232MOL0     C30556   8.534   1.171   8.811  0.1103  0.3522  0.6818
  232MOL0     C30557   9.176   1.679   8.676  0.5796 -0.0980 -0.0569
  232MOL0     C30558   9.274   1.746   8.749  0.3057  0.5261 -0.2740
  232MOL0     H30559   9.654   2.035   8.740 -0.9854 -0.7706 -0.2743
  232MOL0     H30560   9.870   2.116   8.822 -2.6381  3.1662 -0.2092
  232MOL0     H30561  10.013   2.246   9.152 -2.4062 -1.2126 -0.1976
  232MOL0     H30562  10.005   2.239   8.978 -2.0943  0.1293  0.2148
  232MOL0     H30563  10.223   2.246   8.996  0.5343  0.5299  1.3978
  232MOL0     H30564  10.204   2.072   8.975 -2.1173  0.4194 -1.3626
  232MOL0     H30565  10.206   2.073   9.240  3.2672  0.7142  4.6355
  232MOL0     H30566  10.240   2.235   9.237 -0.4994 -0.2161 -0.9112
  232MOL0     H30567  10.457   2.181   9.101 -1.0319  1.3475 -1.0488
  232MOL0     H30568  10.462   2.090   9.261 -0.3741 -0.8377  0.2869
  232MOL0     H30569  10.419   1.983   8.984 -1.6776 -0.2523  0.3109
  232MOL0     H30570  10.347   1.898   9.126 -0.0455 -1.8651 -0.4607
  232MOL0     H30571  10.603   1.826   9.064  0.2906  1.2357 -1.2541
  232MOL0     H30572  10.611   1.919   9.215 -1.4564  2.0904  0.3485
  232MOL0     H30573  10.642   2.029   8.935  0.3797  0.3534  0.0053
  232MOL0     H30574  10.675   2.113   9.089 -0.7863  0.9231 -2.6389
  232MOL0     H30575  10.835   1.890   8.971  0.9015 -1.0514  0.2136
  232MOL0     H30576  10.842   1.931   9.134 -2.1134  0.1879  0.7773
  232MOL0     H30577  10.856   2.085   8.767  0.2640  1.5694 -0.6488
  232MOL0     H30578  11.199   2.257   8.726 -0.2479  0.5996  3.1221
  232MOL0     H30579  11.052   2.254   8.637  1.7989 -0.2202 -1.3630
  232MOL0     H30580  11.164   2.119   8.531  3.0438  3.9048  2.0634
  232MOL0     H30581  11.086   1.994   8.643 -1.4453  1.8515 -1.6305
  232MOL0     H30582  11.367   2.104   8.652  0.1508 -0.6531  1.1634
  232MOL0     H30583  11.311   1.971   8.760  0.1367  1.0639  0.6978
  232MOL0     H30584  11.258   1.892   8.487 -0.0236 -2.2940  1.3606
  232MOL0     H30585  11.354   1.819   8.609  0.9332  0.8745  1.2572
  232MOL0     H30586  11.537   1.851   8.737  0.3414 -0.6893 -0.5890
  232MOL0     H30587  11.749   1.767   8.796 -1.0858  0.1260 -0.0724
  232MOL0     H30588  12.255   1.873   8.480 -0.1419 -1.1277 -1.7797
  232MOL0     H30589  12.506   1.795   8.543  0.0674 -0.7903 -1.0132
  232MOL0     H30590  12.608   1.729   8.798  1.6458 -0.4156  2.3283
  232MOL0     H30591  12.695   1.730   8.636 -1.4789 -0.8467 -1.4135
  232MOL0     H30592  12.769   1.509   8.832  1.4525 -2.0088 -1.0624
  232MOL0     H30593  12.841   1.668   8.832 -1.1562  0.7590 -1.2688
  232MOL0     H30594  12.953   1.490   8.733  0.6255  1.2653  0.3454
  232MOL0     H30595  12.919   1.623   8.613 -2.9355 -0.8268 -5.2999
  232MOL0     H30596  12.754   1.369   8.643  0.8545 -2.0936 -1.1182
  232MOL0     H30597  12.740   1.482   8.505  0.5126  0.5206  0.6969
  232MOL0     H30598  13.008   1.349   8.562  0.7727  1.7573 -0.0660
  232MOL0     H30599  12.949   1.418   8.416 -1.6184 -0.0352  0.1563
  232MOL0     H30600  12.779   1.201   8.483  0.1251  1.1821  0.3265
  232MOL0     H30601  12.941   1.137   8.449  0.4696  0.0646 -0.7646
  232MOL0     H30602  12.910   1.312   8.246  0.9220  1.7008  3.0338
  232MOL0     H30603  12.842   1.149   8.226 -2.3493 -0.0609 -1.4097
  232MOL0     H30604  12.684   1.314   8.160  3.2372  2.1565  0.0944
  232MOL0     H30605  12.668   1.381   8.319 -2.4065  0.5036 -2.8668
  232MOL0     H30606  12.354   1.432   8.671  0.6976 -0.6727 -2.3275
  232MOL0     H30607  12.125   1.495   8.625  2.3098 -3.3488 -1.7065
  232MOL0     H30608  11.898   1.857   8.407  1.8996  1.2246  1.7257
  232MOL0     H30609  11.659   1.936   8.337 -0.2745 -0.5123 -0.1613
  232MOL0     H30610   9.797   1.924   9.208  1.2875 -0.5955 -1.0906
  232MOL0     H30611   9.586   1.828   9.108 -0.5760  1.2650  1.6551
  232MOL0     H30612   9.225   2.062   8.651  2.8140  0.0550 -0.2681
  232MOL0     H30613   9.021   1.944   8.532  0.2446 -0.1118 -1.1619
  232MOL0     H30614   8.908   1.586   8.724 -1.9639 -2.2140  0.2821
  232MOL0     H30615   8.971   1.489   8.589 -0.9558 -1.5874 -1.4283
  232MOL0     H30616   8.707   1.650   8.601 -1.2959 -1.0996 -0.9175
  232MOL0     H30617   8.724   1.548   8.469 -4.9234 -1.4725  1.7836
  232MOL0     H30618   8.728   1.461   8.761  2.2115 -0.5695  0.0793
  232MOL0     H30619   8.769   1.342   8.640  1.7344 -0.0213  2.4360
  232MOL0     H30620   8.492   1.455   8.653 -0.0826  0.1479 -1.6024
  232MOL0     H30621   8.559   1.348   8.535  2.2657 -3.4331 -0.1974
  232MOL0     H30622   8.521   1.100   8.890 -0.4879 -2.5393 -1.8362
  232MOL0     H30623   9.175   1.570   8.677 -0.0852 -0.1226  2.4728
  232MOL0     H30624   9.331   1.676   8.809 -1.5857 -1.6917 -0.8711
  233MOL0     O30625  11.164   3.060   2.310 -0.7827 -0.0189  0.4932
  233MOL0     C30626  11.156   3.089   2.430  0.5457 -0.3916  0.6838
  233MOL0     O30627  11.043   3.111   2.504 -0.4704  0.0862  0.1821
  233MOL0     C30628  10.921   3.085   2.454 -0.5593  0.1696 -1.1078
  233MOL0     C30629  10.877   3.069   2.316  1.0165  0.5190 -0.0966
  233MOL0     C30630  10.740   3.038   2.288  0.2490 -0.8866 -0.1511
  233MOL0     C30631  10.644   3.036   2.390  0.1833 -0.3768 -0.1167
  233MOL0     O30632  10.516   2.998   2.351 -0.1329  0.1275  0.6109
  233MOL0     C30633  10.417   3.098   2.385  0.4208  0.3567  1.0759
  233MOL0     C30634  10.303   3.060   2.292  0.4704  0.0914 -0.1775
  233MOL0     C30635  10.203   3.171   2.292 -0.4188  0.1545 -0.8977
  233MOL0     C30636  10.089   3.147   2.196 -0.0816 -0.3499  0.4290
  233MOL0     C30637  10.125   3.171   2.042  0.4311  0.3850 -0.1207
  233MOL0     C30638  10.000   3.145   1.937  0.8281 -0.4110  0.9844
  233MOL0     C30639  10.050   3.124   1.794  0.4434 -1.2222 -0.6020
  233MOL0     C30640  10.176   3.211   1.753 -0.4644 -0.1284  0.9688
  233MOL0     N30641  10.229   3.162   1.625  0.6351 -0.4673  0.3064
  233MOL0     C30642  10.349   3.113   1.619 -0.7554 -0.1265 -0.4555
  233MOL0     C30643  10.369   3.093   1.481 -0.4081  0.6929  1.1601
  233MOL0     C30644  10.499   3.044   1.415 -0.7186  0.1218  0.1039
  233MOL0     C30645  10.611   3.151   1.412  0.4465  0.3196 -0.1493
  233MOL0     C30646  10.593   3.259   1.303  0.1209 -0.2899  0.1816
  233MOL0     C30647  10.458   3.326   1.303  0.4829  0.1329 -0.2879
  233MOL0     O30648  10.450   3.464   1.265  0.2850 -0.2636 -0.3479
  233MOL0     C30649  10.448   3.471   1.131 -0.6944  0.0014  0.3113
  233MOL0     C30650  10.330   3.443   1.062 -0.0089  0.4450 -0.7277
  233MOL0     C30651  10.324   3.453   0.926 -0.4019 -0.0644 -0.1933
  233MOL0     C30652  10.436   3.498   0.850  0.7126  0.6608 -0.0904
  233MOL0     C30653  10.424   3.511   0.700 -0.7270 -0.2319  0.1680
  233MOL0     O30654  10.306   3.479   0.647 -0.3219  0.4844  0.2083
  233MOL0     C30655  10.285   3.534   0.518 -0.2908 -0.8028 -0.1566
  233MOL0     C30656  10.362   3.499   0.407 -0.3879 -1.3713  0.1889
  233MOL0     C30657  10.337   3.553   0.278  1.4234 -0.5985 -0.2755
  233MOL0     C30658  10.231   3.656   0.266  0.0519  0.6756 -0.6664
  233MOL0     O30659  10.221   3.701   0.143  0.5463  0.0867  0.0277
  233MOL0     C30660  10.225   3.843   0.120 -0.3816 -0.2604 -0.3664
  233MOL0     C30661  10.365   3.888   0.119 -1.2470 -0.0404  0.3646
  233MOL0     C30662  10.398   4.038   0.178 -0.0135 -0.4560 -0.5342
  233MOL0     C30663  10.546   4.049   0.232  0.3787 -0.4886  0.0535
  233MOL0     C30664  10.598   4.186   0.234  0.0686  0.0386 -0.4885
  233MOL0     C30665  10.724   4.191   0.320  0.5309  0.1546  0.4562
  233MOL0     C30666  10.793   4.325   0.296  0.0323  0.5435 -0.4926
  233MOL0     C30667  10.942   4.304   0.332 -0.0956 -0.7531 -0.2114
  233MOL0    Cl30668  11.035   4.244   0.186  0.2004 -0.2941  0.4379
  233MOL0     C30669  10.167   3.695   0.383  0.8175  0.3615  0.4396
  233MOL0     C30670  10.186   3.636   0.507 -0.4341  1.1113  0.0187
  233MOL0     O30671  10.523   3.538   0.641  0.6159 -0.0847  1.0279
  233MOL0     C30672  10.559   3.541   0.916 -0.0480  0.6095 -0.1721
  233MOL0     C30673  10.566   3.514   1.056 -0.0606  0.1060  0.4492
  233MOL0     N30674  10.255   3.140   1.424  0.2824  1.2018  0.1878
  233MOL0     N30675  10.166   3.170   1.507  0.6430 -0.4952  0.2882
  233MOL0     C30676  10.683   3.064   2.517 -0.0050 -0.4277  0.1485
  233MOL0     C30677  10.817   3.091   2.547  0.8773  0.5292 -0.0612
  233MOL0     C30678  11.281   3.124   2.491  0.5072 -0.9228  0.2618
  233MOL0     C30679  11.286   3.216   2.592 -0.0585 -0.3523 -0.6327
  233MOL0     C30680  11.397   3.278   2.643  0.1676 -0.0490 -1.2069
  233MOL0     C30681  11.517   3.250   2.583  0.3045 -0.1748 -0.4760
  233MOL0     O30682  11.637   3.307   2.619 -0.4487 -0.2835 -0.7295
  233MOL0     C30683  11.650   3.399   2.729  0.6522 -0.1298 -0.3910
  233MOL0     C30684  11.673   3.330   2.868  0.4381 -0.0119  0.6744
  233MOL0     C30685  11.786   3.223   2.872 -0.4775  0.3424  0.1307
  233MOL0     C30686  11.736   3.099   2.810 -0.1278  0.4260 -0.2277
  233MOL0     C30687  11.836   2.991   2.821  0.6890  0.0351  0.3703
  233MOL0     C30688  11.932   2.919   2.844 -0.3418 -0.6364 -0.3401
  233MOL0     C30689  11.515   3.166   2.474 -0.7776 -0.0831  0.1808
  233MOL0     C30690  11.403   3.099   2.431  0.6309  0.4701  0.5754
  233MOL0     H30691  10.941   3.083   2.229 -0.1270 -0.0779 -1.0755
  233MOL0     H30692  10.707   3.023   2.186 -2.5180  0.8685  0.3884
  233MOL0     H30693  10.454   3.200   2.374  1.4039 -0.0690  0.2799
  233MOL0     H30694  10.390   3.086   2.490 -3.2441 -2.0285  0.0806
  233MOL0     H30695  10.258   2.966   2.326 -0.7235  0.2768 -1.1972
  233MOL0     H30696  10.342   3.038   2.192 -1.4647 -2.0729 -0.5326
  233MOL0     H30697  10.257   3.265   2.276 -3.4165  2.2339  0.4551
  233MOL0     H30698  10.164   3.177   2.394  2.2371  1.6203  0.1369
  233MOL0     H30699  10.057   3.044   2.215  1.3882 -0.8594  0.2294
  233MOL0     H30700  10.013   3.218   2.229  1.5577  0.6497  2.2532
  233MOL0     H30701  10.195   3.090   2.022  1.3908  0.5538  2.2007
  233MOL0     H30702  10.163   3.272   2.020 -1.3039  0.4405 -3.4904
  233MOL0     H30703   9.939   3.236   1.934 -2.5659 -2.5115 -1.8686
  233MOL0     H30704   9.935   3.063   1.971  1.2770  0.4756  4.3534
  233MOL0     H30705  10.070   3.017   1.784  1.9230 -1.1859  1.4464
  233MOL0     H30706   9.966   3.143   1.726  0.3572  1.4992  0.1518
  233MOL0     H30707  10.256   3.192   1.826  3.1198  4.2261 -1.2598
  233MOL0     H30708  10.166   3.320   1.763  4.2721  0.4921  1.3793
  233MOL0     H30709  10.419   3.101   1.701 -0.9273  0.8480 -0.1466
  233MOL0     H30710  10.481   3.009   1.313  0.5578 -1.1376  0.2904
  233MOL0     H30711  10.533   2.972   1.490  0.2056  1.7238  1.3046
  233MOL0     H30712  10.695   3.087   1.383 -1.6867 -1.5270 -2.8260
  233MOL0     H30713  10.623   3.203   1.507 -2.1218 -1.3984  1.2519
  233MOL0     H30714  10.671   3.335   1.295 -0.2733  0.1492  0.4509
  233MOL0     H30715  10.598   3.209   1.206 -1.7636  2.2138 -1.3109
  233MOL0     H30716  10.413   3.327   1.403 -1.0346 -2.5031 -0.8814
  233MOL0     H30717  10.391   3.271   1.237  1.1128  0.6159 -1.3483
  233MOL0     H30718  10.239   3.415   1.115 -1.9161  3.0341 -2.4120
  233MOL0     H30719  10.228   3.427   0.882 -1.8691  1.9439  1.6279
  233MOL0     H30720  10.427   3.414   0.425  1.5663  0.2107  1.0085
  233MOL0     H30721  10.388   3.512   0.192 -0.6625 -3.5163 -0.2632
  233MOL0     H30722  10.155   3.892   0.188  1.7487  1.7676  0.4870
  233MOL0     H30723  10.185   3.854   0.019  0.8574 -1.1130 -0.9802
  233MOL0     H30724  10.403   3.878   0.016 -0.5265  1.3451  0.4747
  233MOL0     H30725  10.425   3.824   0.184  1.0240  0.2915 -1.2668
  233MOL0     H30726  10.336   4.067   0.263  0.3795 -1.5918  0.1493
  233MOL0     H30727  10.373   4.108   0.097  1.9821  0.6796 -0.2361
  233MOL0     H30728  10.546   4.004   0.332  1.4579 -1.6646 -0.4454
  233MOL0     H30729  10.603   3.996   0.155  1.3785 -1.6281  1.5129
  233MOL0     H30730  10.521   4.259   0.260 -0.0661  0.6209 -2.3438
  233MOL0     H30731  10.632   4.206   0.132 -0.2491 -1.1425 -0.8478
  233MOL0     H30732  10.787   4.109   0.287 -0.2833 -0.1524 -0.3615
  233MOL0     H30733  10.718   4.177   0.429 -0.3878  4.3745  1.1427
  233MOL0     H30734  10.779   4.360   0.193  1.5973  3.4669  0.1744
  233MOL0     H30735  10.752   4.389   0.374  1.3932  0.5487  0.2509
  233MOL0     H30736  10.960   4.223   0.403 -0.7880  1.3973  2.5869
  233MOL0     H30737  10.983   4.402   0.354 -2.6854 -0.3338  3.7043
  233MOL0     H30738  10.096   3.777   0.381  2.0087  1.4303 -1.9603
  233MOL0     H30739  10.139   3.666   0.601 -0.3229  0.9686  0.1212
  233MOL0     H30740  10.646   3.588   0.871  1.5533 -1.2825  0.8075
  233MOL0     H30741  10.646   3.524   1.129 -1.9279 -0.2449  2.6741
  233MOL0     H30742  10.610   3.052   2.597 -0.3465 -1.1963 -0.2758
  233MOL0     H30743  10.853   3.102   2.648 -1.6446  4.5250  0.6470
  233MOL0     H30744  11.189   3.252   2.624  1.2023  1.9469  0.8520
  233MOL0     H30745  11.395   3.351   2.724  2.8086 -0.3735 -0.7555
  233MOL0     H30746  11.577   3.479   2.741  0.6324 -0.2822  0.6437
  233MOL0     H30747  11.743   3.454   2.711  1.3150 -0.9904  0.2987
  233MOL0     H30748  11.698   3.408   2.940 -2.3130 -0.4543  2.2778
  233MOL0     H30749  11.577   3.288   2.900 -0.9735 -0.0058 -3.1395
  233MOL0     H30750  11.811   3.216   2.978 -1.0646  0.5017  0.2821
  233MOL0     H30751  11.868   3.259   2.810 -0.0701 -0.4635  0.1991
  233MOL0     H30752  11.642   3.069   2.857  0.8723 -0.3766  1.3594
  233MOL0     H30753  11.723   3.107   2.702  1.9844 -0.3000 -0.5780
  233MOL0     H30754  12.023   2.868   2.869  1.4040  1.8133 -1.3055
  233MOL0     H30755  11.613   3.155   2.429  0.1834 -1.3433  2.4050
  233MOL0     H30756  11.399   3.038   2.342  0.2055 -0.5727  1.2841
  234MOL0     O30757   5.776   8.905   0.601 -0.2597  0.1462  0.3300
  234MOL0     C30758   5.715   8.799   0.608 -0.6491 -0.1714 -0.0110
  234MOL0     O30759   5.764   8.677   0.560 -0.2902 -0.7593  0.2513
  234MOL0     C30760   5.865   8.664   0.463 -0.2927  0.4923 -0.2437
  234MOL0     C30761   5.914   8.533   0.449  0.3188 -0.7105  0.0022
  234MOL0     C30762   6.024   8.510   0.358  0.2070 -0.0399 -0.4647
  234MOL0     C30763   6.075   8.608   0.284  0.0975  0.0425  0.3081
  234MOL0     O30764   6.179   8.587   0.200 -0.0357  0.4665  0.2681
  234MOL0     C30765   6.210   8.458   0.128  1.6129 -0.5140  0.2721
  234MOL0     C30766   6.098   8.372   0.074  0.4454  0.9183 -0.3739
  234MOL0     C30767   6.008   8.446  -0.035  0.5964 -0.5926  0.2205
  234MOL0     C30768   5.897   8.366  -0.098 -0.2618  0.6307 -0.2722
  234MOL0     C30769   5.762   8.410  -0.034  0.8276  0.8357  0.2310
  234MOL0     C30770   5.658   8.334  -0.110  0.2649  0.5830 -0.8849
  234MOL0     C30771   5.518   8.374  -0.059  0.7302  0.3159  0.8221
  234MOL0     C30772   5.408   8.334  -0.155 -0.7012  0.6582  0.4898
  234MOL0     N30773   5.279   8.393  -0.118 -0.4417 -0.6217  0.1918
  234MOL0     C30774   5.167   8.339  -0.150 -0.6069 -1.3355  0.3438
  234MOL0     C30775   5.068   8.426  -0.133 -0.5411  0.0219 -0.0198
  234MOL0     C30776   4.929   8.397  -0.149  1.2202  0.2265  0.1420
  234MOL0     C30777   4.877   8.295  -0.041 -0.6614  0.5667 -0.5827
  234MOL0     C30778   4.920   8.337   0.099  0.2220 -0.3424 -1.0030
  234MOL0     C30779   4.845   8.260   0.199  1.2297  0.8507 -0.2645
  234MOL0     O30780   4.886   8.121   0.183 -0.3165 -0.3692  0.1371
  234MOL0     C30781   4.994   8.067   0.250 -0.5443 -0.0955 -0.1245
  234MOL0     C30782   5.069   7.967   0.189 -0.1469 -0.1815 -0.5651
  234MOL0     C30783   5.193   7.922   0.240 -0.8172 -0.3562 -0.3823
  234MOL0     C30784   5.236   7.960   0.372 -0.6132  0.0317  0.7374
  234MOL0     C30785   5.353   7.893   0.438 -0.3169  0.3015  0.3081
  234MOL0     O30786   5.411   7.790   0.366 -0.2202  0.2981 -0.0878
  234MOL0     C30787   5.514   7.725   0.438  0.0366 -0.8103 -0.3106
  234MOL0     C30788   5.627   7.791   0.490  0.5952  0.5462  0.2369
  234MOL0     C30789   5.723   7.715   0.561 -0.4533  0.2674 -0.8604
  234MOL0     C30790   5.710   7.572   0.576 -0.2226  0.5437  0.1005
  234MOL0     O30791   5.814   7.495   0.628  0.3688  0.2020  1.0864
  234MOL0     C30792   5.777   7.423   0.746 -0.3942  0.7187 -0.1939
  234MOL0     C30793   5.850   7.284   0.749 -0.6840  0.8097  0.1582
  234MOL0     C30794   6.002   7.292   0.760  0.9525  0.0410 -0.1712
  234MOL0     C30795   6.065   7.159   0.786  0.3752  0.4129 -0.6940
  234MOL0     C30796   6.221   7.165   0.789  0.3453 -0.4137 -0.5829
  234MOL0     C30797   6.284   7.163   0.654 -0.2074  0.3488  0.3746
  234MOL0     C30798   6.436   7.180   0.647 -0.0133  1.2349  0.1580
  234MOL0     C30799   6.488   7.306   0.718 -0.1486  0.4566 -0.1135
  234MOL0    Cl30800   6.663   7.298   0.754  0.2017 -0.6172 -0.0534
  234MOL0     C30801   5.615   7.503   0.509 -0.0800 -0.6048  0.3135
  234MOL0     C30802   5.509   7.583   0.458  0.0777  0.2091  0.5364
  234MOL0     O30803   5.378   7.932   0.550  0.1056 -0.1381 -0.1179
  234MOL0     C30804   5.148   8.046   0.436 -0.1866  0.5528  0.5770
  234MOL0     C30805   5.046   8.114   0.371 -0.3882 -0.6419 -0.2155
  234MOL0     N30806   5.126   8.542  -0.086  0.6165 -0.1172  1.3991
  234MOL0     N30807   5.250   8.523  -0.090 -0.8592 -0.2085  0.5294
  234MOL0     C30808   6.024   8.743   0.294  0.5363 -0.1627 -0.0484
  234MOL0     C30809   5.919   8.769   0.380  0.4997 -0.5417 -0.0778
  234MOL0     C30810   5.580   8.806   0.660 -0.0516  0.2049 -0.6751
  234MOL0     C30811   5.495   8.701   0.626 -0.0522 -0.2828 -0.2084
  234MOL0     C30812   5.356   8.721   0.657 -0.6190  1.1436 -0.0028
  234MOL0     C30813   5.305   8.844   0.696 -0.3668  0.4875  0.2882
  234MOL0     O30814   5.172   8.880   0.709  0.0442  0.2296  0.5253
  234MOL0     C30815   5.070   8.793   0.676 -0.0625  0.0007  0.5610
  234MOL0     C30816   4.933   8.873   0.648  0.2745 -0.5431  0.3039
  234MOL0     C30817   4.943   8.949   0.524 -0.5265 -0.2501 -0.3450
  234MOL0     C30818   4.815   9.040   0.497  0.2597 -0.0490  0.8260
  234MOL0     C30819   4.692   8.965   0.467  0.1869 -0.2244 -0.4230
  234MOL0     C30820   4.587   8.907   0.442  0.6191  0.3765 -0.2482
  234MOL0     C30821   5.390   8.947   0.739 -0.0373  0.1076  0.0309
  234MOL0     C30822   5.527   8.920   0.724 -0.5008 -0.0777 -0.1184
  234MOL0     H30823   5.878   8.447   0.505  1.6036 -1.0483  0.3477
  234MOL0     H30824   6.053   8.406   0.346 -0.3262 -0.1551 -0.8484
  234MOL0     H30825   6.273   8.388   0.183  0.1737 -0.1581  2.5053
  234MOL0     H30826   6.273   8.489   0.045  0.3709 -2.5955 -1.5515
  234MOL0     H30827   6.036   8.332   0.155  1.1719 -0.6254 -0.5402
  234MOL0     H30828   6.131   8.282   0.020  3.1900  1.4964  0.2015
  234MOL0     H30829   6.077   8.475  -0.115  1.5496  1.3376  1.6548
  234MOL0     H30830   5.955   8.535  -0.002 -1.0598 -0.3824 -2.6747
  234MOL0     H30831   5.896   8.369  -0.207 -2.6428 -1.2260 -0.3951
  234MOL0     H30832   5.905   8.262  -0.067 -0.5860  1.1197  1.6210
  234MOL0     H30833   5.741   8.517  -0.042 -0.8362  0.6558  1.4970
  234MOL0     H30834   5.765   8.380   0.071 -2.7428 -0.4938  0.0801
  234MOL0     H30835   5.678   8.226  -0.102  1.3954  0.8566  0.3822
  234MOL0     H30836   5.678   8.355  -0.216  2.0926  0.9255 -0.5103
  234MOL0     H30837   5.503   8.332   0.041 -0.2349 -0.0968  0.5154
  234MOL0     H30838   5.510   8.483  -0.062 -2.0186  0.1848  0.2838
  234MOL0     H30839   5.412   8.225  -0.163 -0.5062  0.8031 -2.5844
  234MOL0     H30840   5.435   8.374  -0.253  1.6307 -2.0146 -0.0947
  234MOL0     H30841   5.155   8.240  -0.194 -0.0365 -1.3242  0.1597
  234MOL0     H30842   4.900   8.389  -0.254  0.8254 -0.5880  0.3023
  234MOL0     H30843   4.884   8.491  -0.115  1.0928 -1.2598  4.8813
  234MOL0     H30844   4.909   8.192  -0.054  2.0999  0.7801  2.9274
  234MOL0     H30845   4.768   8.290  -0.040 -0.6120 -1.6280 -1.0416
  234MOL0     H30846   5.026   8.321   0.117  1.2746  0.8590 -5.0865
  234MOL0     H30847   4.902   8.443   0.120 -0.3642 -0.7134  0.5334
  234MOL0     H30848   4.738   8.264   0.176  1.5601 -1.8878 -2.9513
  234MOL0     H30849   4.847   8.274   0.307 -2.2743 -2.9019  0.5143
  234MOL0     H30850   5.044   7.944   0.086  1.5910 -0.4644 -0.9535
  234MOL0     H30851   5.265   7.866   0.181 -0.3823  1.6018 -1.8149
  234MOL0     H30852   5.631   7.899   0.497  0.2811  0.4489  3.2247
  234MOL0     H30853   5.807   7.758   0.614 -1.7280 -0.5637  2.0135
  234MOL0     H30854   5.669   7.407   0.760 -0.2561 -0.0104  0.0594
  234MOL0     H30855   5.815   7.486   0.826  1.6889  2.4770 -2.4157
  234MOL0     H30856   5.820   7.230   0.659 -0.7622 -1.8493  1.6907
  234MOL0     H30857   5.816   7.216   0.827  0.8932 -1.2966 -0.9020
  234MOL0     H30858   6.018   7.362   0.843 -4.5605 -1.0527  2.2261
  234MOL0     H30859   6.053   7.333   0.672  2.8034  1.9856  1.6756
  234MOL0     H30860   6.040   7.117   0.884  4.1481  1.2204  0.8232
  234MOL0     H30861   6.032   7.100   0.700  0.5118  2.6343 -2.3397
  234MOL0     H30862   6.248   7.079   0.851 -1.7785 -0.8915 -0.2557
  234MOL0     H30863   6.253   7.255   0.842 -0.6366  0.0445 -0.7578
  234MOL0     H30864   6.254   7.253   0.599  3.6867 -0.3692 -3.5068
  234MOL0     H30865   6.262   7.074   0.595  0.4249 -0.9602  2.0100
  234MOL0     H30866   6.484   7.090   0.687 -0.9529  1.0231  0.8426
  234MOL0     H30867   6.467   7.167   0.543 -1.6019 -2.4819  0.0107
  234MOL0     H30868   6.442   7.306   0.817  0.3512  0.6634  0.1209
  234MOL0     H30869   6.464   7.395   0.658  0.8112  0.4842 -0.4764
  234MOL0     H30870   5.616   7.395   0.497  1.2991 -0.5887  0.2089
  234MOL0     H30871   5.433   7.519   0.414 -0.3324 -1.6044  3.5798
  234MOL0     H30872   5.172   8.064   0.540  0.5827  0.9962  0.3322
  234MOL0     H30873   4.988   8.184   0.429 -0.1364  1.3758 -2.2622
  234MOL0     H30874   6.049   8.819   0.221  0.3966  0.5290  0.6214
  234MOL0     H30875   5.861   8.861   0.382 -1.1204 -1.3721 -2.6324
  234MOL0     H30876   5.531   8.602   0.601 -1.5989 -1.3879  1.6331
  234MOL0     H30877   5.284   8.643   0.638 -1.4608  1.5415  1.4239
  234MOL0     H30878   5.055   8.734   0.768  1.3349 -2.8550 -0.9069
  234MOL0     H30879   5.086   8.735   0.585 -3.5301  3.3985 -2.5980
  234MOL0     H30880   4.852   8.800   0.648  1.4364 -1.8756  1.0177
  234MOL0     H30881   4.912   8.942   0.731  2.7436 -0.7887  1.2061
  234MOL0     H30882   4.955   8.878   0.441  0.8093 -2.2627  1.4484
  234MOL0     H30883   5.032   9.013   0.524  0.1985 -1.2237 -0.0006
  234MOL0     H30884   4.792   9.102   0.585 -1.7548  0.2679  0.1498
  234MOL0     H30885   4.835   9.104   0.411  0.4116 -2.1640 -0.7822
  234MOL0     H30886   4.506   8.840   0.417  0.3477  0.9255 -0.8581
  234MOL0     H30887   5.351   9.036   0.787 -1.0297 -0.2409 -0.1115
  234MOL0     H30888   5.602   8.993   0.754 -1.1759  0.6141 -0.0745
  235MOL0     O30889   6.098   0.794  10.678 -0.5921  0.2485 -0.1558
  235MOL0     C30890   6.055   0.858  10.771 -0.5298  0.1746  0.7211
  235MOL0     O30891   6.135   0.904  10.882 -0.6243  0.0024  0.6197
  235MOL0     C30892   6.270   0.869  10.885  0.2049  0.7112  0.2377
  235MOL0     C30893   6.321   0.782  10.983  0.2630  0.3274 -0.3517
  235MOL0     C30894   6.451   0.731  10.970 -0.6575 -1.0444 -0.1780
  235MOL0     C30895   6.539   0.779  10.869  0.0730 -0.6681  0.2878
  235MOL0     O30896   6.674   0.749  10.847 -0.0123  0.4746  0.0711
  235MOL0     C30897   6.740   0.676  10.957  0.9598  0.0089  0.7826
  235MOL0     C30898   6.880   0.633  10.905  0.0757  0.4690  0.9221
  235MOL0     C30899   6.982   0.583  11.012  0.3312 -0.0394  0.1575
  235MOL0     C30900   7.115   0.563  10.938 -0.0792  0.1335  0.1743
  235MOL0     C30901   7.213   0.508  11.040  0.0736 -0.9000  0.2982
  235MOL0     C30902   7.242   0.604  11.167 -1.0798  0.0825 -0.9404
  235MOL0     C30903   7.312   0.741  11.125  0.0043  1.2047 -0.2398
  235MOL0     C30904   7.369   0.817  11.245  0.7619 -0.0194  0.2774
  235MOL0     N30905   7.264   0.815  11.348 -0.2371  0.1538 -0.6380
  235MOL0     C30906   7.137   0.870  11.350 -0.6107  0.2829 -0.2723
  235MOL0     C30907   7.077   0.835  11.467 -1.1188 -0.8468  0.3656
  235MOL0     C30908   6.945   0.871  11.510 -0.3221  0.5347  0.3096
  235MOL0     C30909   6.838   0.777  11.445  0.2822  0.8009  0.4871
  235MOL0     C30910   6.704   0.838  11.456  0.0623  0.0532 -0.7320
  235MOL0     C30911   6.654   0.826  11.605  0.1432 -0.1799  0.0327
  235MOL0     O30912   6.516   0.801  11.600  0.5163 -0.6431 -0.3262
  235MOL0     C30913   6.437   0.828  11.704  0.3905  0.2161 -0.9482
  235MOL0     C30914   6.477   0.871  11.829  0.0404  0.4159 -0.4961
  235MOL0     C30915   6.393   0.913  11.927 -0.6131  0.2559  0.2367
  235MOL0     C30916   6.255   0.897  11.914 -0.3752  0.6051  0.2166
  235MOL0     C30917   6.165   0.932  12.021  1.2085 -0.6292  0.6834
  235MOL0     O30918   6.034   0.907  11.992  0.2242 -0.6492 -1.0316
  235MOL0     C30919   5.941   0.908  12.090  0.2428 -0.5888 -0.2852
  235MOL0     C30920   5.821   0.960  12.050  0.1428 -0.9443 -1.4670
  235MOL0     C30921   5.714   0.943  12.141 -0.2716  0.6518 -0.2526
  235MOL0     C30922   5.734   0.913  12.279 -0.6656  0.0109  0.1571
  235MOL0     O30923   5.639   0.924  12.377 -0.0064  0.0950  0.0214
  235MOL0     C30924   5.541   1.034  12.342 -0.1293 -0.3062  0.1728
  235MOL0     C30925   5.464   1.058  12.474  0.6122  0.0023 -0.1592
  235MOL0     C30926   5.359   1.169  12.469  0.6182 -0.8077 -0.4957
  235MOL0     C30927   5.280   1.192  12.601  0.0539  0.1519  0.8151
  235MOL0     C30928   5.222   1.331  12.613  0.4236  0.8582 -0.2931
  235MOL0     C30929   5.109   1.367  12.515 -0.8069  0.3838  0.5222
  235MOL0     C30930   4.983   1.376  12.597  0.1683  0.0567  0.8931
  235MOL0     C30931   4.870   1.426  12.511  0.7020  0.4005  1.1829
  235MOL0    Cl30932   4.774   1.283  12.459 -0.0117 -0.1832  0.4313
  235MOL0     C30933   5.860   0.864  12.321 -0.1253  0.7181 -0.2605
  235MOL0     C30934   5.965   0.862  12.230 -0.2154 -0.6463  0.0603
  235MOL0     O30935   6.210   0.976  12.129 -0.0141  0.3335  0.1630
  235MOL0     C30936   6.205   0.844  11.787  0.1287 -0.2934 -0.5224
  235MOL0     C30937   6.299   0.819  11.686  0.2726 -0.1078  0.5625
  235MOL0     N30938   7.176   0.768  11.537  0.5314  0.4894 -0.0178
  235MOL0     N30939   7.279   0.756  11.470 -0.6130 -0.0034  0.5356
  235MOL0     C30940   6.490   0.858  10.772 -0.2956  0.4511  0.1247
  235MOL0     C30941   6.355   0.898  10.772  0.5925  0.6541 -0.3680
  235MOL0     C30942   5.912   0.879  10.772 -1.0875  0.0914  0.1784
  235MOL0     C30943   5.861   0.968  10.868  0.0231  0.0280 -0.0185
  235MOL0     C30944   5.719   0.992  10.886 -0.5567 -0.3703 -0.0465
  235MOL0     C30945   5.629   0.928  10.795 -0.2068 -0.6411  0.4165
  235MOL0     O30946   5.487   0.952  10.788 -0.1596  0.0042 -0.1880
  235MOL0     C30947   5.421   1.011  10.906  0.2880 -0.3422 -1.4016
  235MOL0     C30948   5.395   0.910  11.014  0.6336 -1.1930 -0.4194
  235MOL0     C30949   5.261   0.940  11.082 -0.9835  0.7644  0.8881
  235MOL0     C30950   5.154   0.876  10.997 -0.0563 -0.1784  0.6509
  235MOL0     C30951   5.024   0.932  11.033  0.6965 -0.4428 -0.7525
  235MOL0     C30952   4.905   0.971  11.042  0.0626  0.4836 -0.3267
  235MOL0     C30953   5.688   0.834  10.704  0.8607  0.0125  0.0532
  235MOL0     C30954   5.822   0.812  10.687  0.0199  0.3879 -0.1045
  235MOL0     H30955   6.253   0.749  11.061  0.1397 -0.7518 -0.8888
  235MOL0     H30956   6.483   0.661  11.046  0.4150 -0.1488  0.2234
  235MOL0     H30957   6.686   0.595  11.007  1.1320  1.0244  2.7116
  235MOL0     H30958   6.755   0.745  11.040 -0.2740 -0.0463  1.0661
  235MOL0     H30959   6.927   0.711  10.845  2.9320 -2.2620 -0.6603
  235MOL0     H30960   6.875   0.555  10.828 -1.2033 -1.2968  2.6714
  235MOL0     H30961   6.939   0.485  11.033  0.6240 -0.0757  0.5911
  235MOL0     H30962   6.986   0.644  11.103  1.3308 -3.1077  2.3332
  235MOL0     H30963   7.104   0.494  10.854  0.4528 -1.1076  1.1016
  235MOL0     H30964   7.147   0.659  10.895  0.5780  0.5832  1.6250
  235MOL0     H30965   7.305   0.494  10.983 -0.7641 -0.8196 -1.1454
  235MOL0     H30966   7.196   0.403  11.067  0.3523 -1.4564 -1.5307
  235MOL0     H30967   7.309   0.547  11.232 -1.3874 -0.7330 -1.3298
  235MOL0     H30968   7.146   0.620  11.217 -1.5461 -2.1994 -1.0266
  235MOL0     H30969   7.400   0.716  11.065  0.8613 -3.6559  2.4769
  235MOL0     H30970   7.234   0.791  11.066 -2.4631 -0.5536  1.3427
  235MOL0     H30971   7.391   0.918  11.208 -0.9323  0.7979  1.3523
  235MOL0     H30972   7.458   0.767  11.284 -0.1216 -2.4723 -0.6636
  235MOL0     H30973   7.079   0.908  11.267  1.7118 -1.8088 -3.0428
  235MOL0     H30974   6.940   0.976  11.481  2.3559  0.4070 -0.9516
  235MOL0     H30975   6.941   0.851  11.618 -1.9661 -1.4086 -0.0529
  235MOL0     H30976   6.832   0.673  11.478 -1.3588  0.6821 -0.0769
  235MOL0     H30977   6.859   0.762  11.338  0.2385  1.3826  0.3895
  235MOL0     H30978   6.715   0.944  11.433 -0.8079 -0.0518 -1.7029
  235MOL0     H30979   6.637   0.791  11.383 -3.2334 -0.5753  2.3964
  235MOL0     H30980   6.673   0.921  11.656  1.7900  1.3689 -3.1601
  235MOL0     H30981   6.705   0.751  11.667 -0.1647 -2.8229 -2.6524
  235MOL0     H30982   6.584   0.877  11.848 -0.1155  0.1988  0.4876
  235MOL0     H30983   6.425   0.946  12.025  0.0293  0.4226 -0.0231
  235MOL0     H30984   5.808   0.990  11.946 -1.1820 -1.2280 -1.4032
  235MOL0     H30985   5.614   0.958  12.101  0.1685 -1.1049 -2.1182
  235MOL0     H30986   5.470   1.012  12.261  1.6352 -0.7076 -1.3311
  235MOL0     H30987   5.603   1.119  12.312 -2.8496  0.7626 -3.0742
  235MOL0     H30988   5.534   1.077  12.556  1.2962 -2.1100 -0.2022
  235MOL0     H30989   5.423   0.962  12.505  2.3572 -0.0582  2.2153
  235MOL0     H30990   5.291   1.159  12.384  1.1702  1.8561 -1.3374
  235MOL0     H30991   5.406   1.266  12.454  0.3920 -0.0689  2.8656
  235MOL0     H30992   5.203   1.115  12.609 -1.2343  0.9390 -2.2797
  235MOL0     H30993   5.355   1.175  12.678  0.9558 -0.2938 -0.1304
  235MOL0     H30994   5.299   1.409  12.607 -1.0294  2.4725  0.7996
  235MOL0     H30995   5.184   1.330  12.716  0.8680 -2.8065 -0.0469
  235MOL0     H30996   5.109   1.286  12.441  1.0666  0.4816  0.3462
  235MOL0     H30997   5.125   1.460  12.459 -3.4949  0.3972 -0.3631
  235MOL0     H30998   4.951   1.280  12.640 -2.4674  0.9786  1.2272
  235MOL0     H30999   5.002   1.449  12.676 -2.2139 -1.6966  3.2728
  235MOL0     H31000   4.912   1.487  12.431  0.2269 -2.8419 -1.7705
  235MOL0     H31001   4.799   1.491  12.562 -1.7726 -1.5743  0.4865
  235MOL0     H31002   5.883   0.821  12.418  1.5342  1.9075 -0.0769
  235MOL0     H31003   6.065   0.839  12.266 -0.3845 -2.8374 -0.7155
  235MOL0     H31004   6.101   0.856  11.762  0.1421  1.9397  0.3230
  235MOL0     H31005   6.261   0.777  11.594 -2.6680 -1.6968  2.3465
  235MOL0     H31006   6.551   0.880  10.684  2.6123  0.3474  1.9853
  235MOL0     H31007   6.322   0.966  10.694  0.2902  1.7447  0.6780
  235MOL0     H31008   5.934   1.007  10.938  2.0428 -3.1615 -0.1165
  235MOL0     H31009   5.676   1.052  10.965 -1.0216 -0.6880 -0.0533
  235MOL0     H31010   5.322   1.043  10.873 -0.2128  0.1994  0.5018
  235MOL0     H31011   5.476   1.098  10.943 -1.7302 -0.6251  2.8774
  235MOL0     H31012   5.399   0.814  10.963 -0.8126  0.3530 -3.7488
  235MOL0     H31013   5.476   0.913  11.088 -0.7242 -0.7070  1.0976
  235MOL0     H31014   5.248   1.048  11.093 -2.2768  0.8330 -0.8927
  235MOL0     H31015   5.270   0.894  11.181 -0.5813  1.8950  1.3886
  235MOL0     H31016   5.167   0.905  10.893  1.1676 -0.1183  0.8165
  235MOL0     H31017   5.162   0.767  10.997  0.3490 -0.2104  2.8199
  235MOL0     H31018   4.798   0.982  11.049 -0.3024 -0.7931 -2.9024
  235MOL0     H31019   5.623   0.795  10.625  0.9975 -1.0851  0.4611
  235MOL0     H31020   5.852   0.739  10.613  0.9751  1.0299 -0.3696
  236MOL0     O31021   6.490   4.502   2.274 -0.3137  0.9284  0.7451
  236MOL0     C31022   6.552   4.451   2.180  0.1165  0.3124 -1.1659
  236MOL0     O31023   6.501   4.372   2.089  0.8641  0.1354  0.4298
  236MOL0     C31024   6.364   4.335   2.100  0.0795  0.0284  0.5168
  236MOL0     C31025   6.291   4.344   1.972  0.4345 -0.1840  0.3877
  236MOL0     C31026   6.157   4.317   1.969  0.4678 -0.2736  1.1614
  236MOL0     C31027   6.094   4.279   2.089  0.2157 -0.0142  0.6762
  236MOL0     O31028   5.959   4.247   2.077 -0.5380 -0.3698  0.0497
  236MOL0     C31029   5.876   4.252   2.190  0.3914  0.2297 -0.6325
  236MOL0     C31030   5.732   4.206   2.156 -1.9610  0.3247  0.8406
  236MOL0     C31031   5.741   4.067   2.088 -0.3576 -1.0900  0.5045
  236MOL0     C31032   5.608   4.018   2.057  0.1676 -0.0101  0.0288
  236MOL0     C31033   5.613   3.876   2.006 -0.1323  0.1618  0.6625
  236MOL0     C31034   5.477   3.812   1.998 -0.1748 -0.3628  0.8015
  236MOL0     C31035   5.484   3.687   1.908 -0.6300 -0.3529  0.3572
  236MOL0     C31036   5.363   3.605   1.890 -0.7623  0.0258  0.1309
  236MOL0     N31037   5.245   3.689   1.862 -0.2579  0.2504 -0.6895
  236MOL0     C31038   5.215   3.762   1.746 -0.4223  0.2449 -0.2402
  236MOL0     C31039   5.103   3.839   1.777  0.6936  0.2141  0.5977
  236MOL0     C31040   5.040   3.932   1.676  0.3661 -0.1797  0.6707
  236MOL0     C31041   4.966   4.053   1.743 -0.9090  0.2590 -0.7843
  236MOL0     C31042   4.819   4.028   1.773  1.0202  0.7594 -0.1472
  236MOL0     C31043   4.746   4.149   1.841 -0.0438 -0.3293 -0.1796
  236MOL0     O31044   4.611   4.100   1.864 -0.2484 -0.5920 -0.3990
  236MOL0     C31045   4.517   4.184   1.927  0.8271  0.1140 -0.7812
  236MOL0     C31046   4.387   4.132   1.945  0.6925 -1.0137 -0.8840
  236MOL0     C31047   4.298   4.219   2.013  0.8473 -0.5849  0.4882
  236MOL0     C31048   4.325   4.353   2.043 -1.2626  0.6694  0.7097
  236MOL0     C31049   4.223   4.434   2.118  0.0043  0.4033  0.6352
  236MOL0     O31050   4.114   4.374   2.154 -0.4120  0.1572 -0.5062
  236MOL0     C31051   4.010   4.464   2.168  0.1705 -0.0686  0.8740
  236MOL0     C31052   3.981   4.524   2.291 -0.4338  0.4365 -0.4176
  236MOL0     C31053   3.860   4.592   2.309  0.4496  0.1502 -0.5059
  236MOL0     C31054   3.762   4.594   2.219  0.3229 -0.1667  0.4413
  236MOL0     O31055   3.636   4.638   2.234  0.0319  0.0570 -0.0233
  236MOL0     C31056   3.576   4.590   2.355  0.0368  0.4614  0.1175
  236MOL0     C31057   3.416   4.586   2.348  0.5690  0.1852 -0.8492
  236MOL0     C31058   3.353   4.721   2.325  0.0179 -0.0717 -0.1756
  236MOL0     C31059   3.195   4.715   2.329 -0.4359 -0.4744 -0.7914
  236MOL0     C31060   3.133   4.853   2.321  1.1049 -0.1386  0.3670
  236MOL0     C31061   2.989   4.828   2.353  0.3279  0.3423 -1.3040
  236MOL0     C31062   2.908   4.952   2.299  0.9563 -0.1293 -0.6491
  236MOL0     C31063   2.756   4.936   2.332  0.6130 -0.7081 -0.2107
  236MOL0    Cl31064   2.691   5.105   2.325  0.3035  0.0235  0.1646
  236MOL0     C31065   3.794   4.554   2.088  0.2650 -0.7226 -1.0880
  236MOL0     C31066   3.919   4.493   2.064  0.8858  0.3003  0.7035
  236MOL0     O31067   4.260   4.545   2.157  0.1275  0.2526 -0.0143
  236MOL0     C31068   4.449   4.402   2.022 -0.3319  0.1088 -0.2045
  236MOL0     C31069   4.547   4.315   1.963  0.2627 -0.1563 -0.1401
  236MOL0     N31070   5.063   3.811   1.901 -0.2540  0.7659 -0.9480
  236MOL0     N31071   5.151   3.723   1.954 -0.7451  0.4100 -0.1929
  236MOL0     C31072   6.166   4.263   2.209 -0.6059  0.3805 -0.6961
  236MOL0     C31073   6.304   4.295   2.216  0.6361  0.1333 -0.0841
  236MOL0     C31074   6.695   4.489   2.155 -0.2629  0.0693 -0.7921
  236MOL0     C31075   6.789   4.512   2.259  0.9236  0.1604 -0.0421
  236MOL0     C31076   6.920   4.527   2.230 -0.1274 -0.6732 -0.3190
  236MOL0     C31077   6.971   4.518   2.103 -0.0557  0.4445 -0.5649
  236MOL0     O31078   7.104   4.530   2.097  0.2143  0.1559 -0.4333
  236MOL0     C31079   7.191   4.481   1.991 -0.6245 -0.0612 -0.5165
  236MOL0     C31080   7.222   4.600   1.903  0.2561  0.7529 -0.3022
  236MOL0     C31081   7.276   4.571   1.772  0.2204 -0.5226 -0.9475
  236MOL0     C31082   7.417   4.637   1.770 -0.0403  0.1632 -0.0682
  236MOL0     C31083   7.510   4.567   1.860 -1.0603 -0.2493 -1.0440
  236MOL0     C31084   7.583   4.512   1.947  0.2288 -0.6409 -0.0602
  236MOL0     C31085   6.885   4.496   1.996 -0.7435 -0.3049  0.3048
  236MOL0     C31086   6.748   4.481   2.022 -1.1211  0.7027 -0.3062
  236MOL0     H31087   6.341   4.357   1.876  0.5732 -3.6319 -0.1499
  236MOL0     H31088   6.103   4.316   1.875  2.6693 -2.6123 -0.2072
  236MOL0     H31089   5.858   4.356   2.218  0.3267 -0.0951  0.5743
  236MOL0     H31090   5.906   4.182   2.269  0.5891  0.1113 -0.8096
  236MOL0     H31091   5.685   4.286   2.098  1.0071  1.5111 -0.0896
  236MOL0     H31092   5.672   4.194   2.247 -3.3961 -1.0017 -0.2240
  236MOL0     H31093   5.794   3.992   2.149  2.9693 -0.2046 -1.1012
  236MOL0     H31094   5.794   4.069   1.993 -3.4054 -1.7693 -1.3414
  236MOL0     H31095   5.547   4.023   2.147  0.2581  2.2892  0.0289
  236MOL0     H31096   5.553   4.069   1.976 -1.0910 -0.3880  0.6207
  236MOL0     H31097   5.673   3.811   2.071 -1.0770  0.1378  1.5348
  236MOL0     H31098   5.670   3.873   1.913 -2.7411 -1.9596 -0.9852
  236MOL0     H31099   5.413   3.886   1.947  1.3043 -0.5669 -1.5222
  236MOL0     H31100   5.445   3.788   2.100 -0.6337  2.2467  1.3566
  236MOL0     H31101   5.518   3.708   1.806 -0.8627 -1.6824 -0.0099
  236MOL0     H31102   5.568   3.628   1.945 -0.4696 -0.7206 -0.5457
  236MOL0     H31103   5.343   3.550   1.982 -1.3225 -0.8453 -0.4877
  236MOL0     H31104   5.392   3.536   1.809 -0.1889  1.2089 -0.7014
  236MOL0     H31105   5.281   3.764   1.660 -0.6946 -0.4470 -0.4705
  236MOL0     H31106   4.971   3.876   1.612  1.8902  1.4759 -2.7513
  236MOL0     H31107   5.122   3.964   1.611  2.4151 -1.4968  2.4782
  236MOL0     H31108   4.961   4.137   1.674  1.6690  2.2904  1.2711
  236MOL0     H31109   5.030   4.080   1.828 -0.1101 -1.0204 -0.9515
  236MOL0     H31110   4.768   4.013   1.677  0.4728 -1.4947  0.4513
  236MOL0     H31111   4.801   3.938   1.832 -1.0270 -0.0164 -1.8277
  236MOL0     H31112   4.753   4.244   1.789 -1.5132 -1.1029 -1.8968
  236MOL0     H31113   4.794   4.157   1.939  2.6029 -0.6267 -1.3639
  236MOL0     H31114   4.362   4.029   1.925 -1.4057 -0.6177 -0.5642
  236MOL0     H31115   4.195   4.190   2.031 -0.0761  1.0342 -1.7248
  236MOL0     H31116   4.058   4.514   2.367 -1.4708  1.1931  0.7528
  236MOL0     H31117   3.831   4.646   2.398 -3.0280  0.5923 -1.7327
  236MOL0     H31118   3.602   4.655   2.439 -1.3326 -2.3544  2.9541
  236MOL0     H31119   3.615   4.492   2.385 -1.0335 -0.8842 -2.6159
  236MOL0     H31120   3.382   4.551   2.446  1.1876  1.5845 -0.1073
  236MOL0     H31121   3.393   4.510   2.272 -2.0454 -0.1619  0.1635
  236MOL0     H31122   3.375   4.768   2.229 -2.7583  2.1195  0.1012
  236MOL0     H31123   3.386   4.784   2.409 -0.8503 -1.8125  1.5603
  236MOL0     H31124   3.159   4.668   2.237  2.4595 -1.4647 -1.5189
  236MOL0     H31125   3.158   4.652   2.411  0.2913  0.9086  0.6595
  236MOL0     H31126   3.147   4.897   2.221 -0.3636  1.1350  0.6831
  236MOL0     H31127   3.169   4.930   2.390 -1.6535  1.9597 -0.3464
  236MOL0     H31128   2.984   4.820   2.462  0.0447 -1.7808 -1.4323
  236MOL0     H31129   2.962   4.731   2.308 -0.6440 -0.7064  1.3603
  236MOL0     H31130   2.955   5.044   2.336  1.4749  0.2503 -2.2041
  236MOL0     H31131   2.923   4.948   2.191  0.3779 -0.7243 -0.7107
  236MOL0     H31132   2.726   4.894   2.428 -2.0490 -0.5476 -0.8974
  236MOL0     H31133   2.708   4.870   2.258 -0.7047 -3.1023  2.5794
  236MOL0     H31134   3.727   4.584   2.009 -0.4509 -2.1064 -1.0479
  236MOL0     H31135   3.935   4.461   1.962 -2.3447  0.0105  0.1611
  236MOL0     H31136   4.475   4.505   2.041 -0.1206  1.0554 -4.6271
  236MOL0     H31137   4.644   4.362   1.949 -0.3250  1.1851  0.1050
  236MOL0     H31138   6.113   4.214   2.291  0.0443 -0.7639 -0.9514
  236MOL0     H31139   6.368   4.275   2.301 -2.8711  1.3515  3.1909
  236MOL0     H31140   6.765   4.519   2.364  2.1103 -0.8181  0.3281
  236MOL0     H31141   7.000   4.548   2.300 -0.1440 -0.7423 -0.2788
  236MOL0     H31142   7.164   4.383   1.951 -0.0132 -0.6087  0.3600
  236MOL0     H31143   7.277   4.457   2.054 -1.5313  0.5795  1.0484
  236MOL0     H31144   7.134   4.664   1.893  1.1770  2.0689 -0.2044
  236MOL0     H31145   7.293   4.657   1.963 -0.9022  1.5907  0.3057
  236MOL0     H31146   7.208   4.625   1.706  1.4606  0.8240 -1.1847
  236MOL0     H31147   7.271   4.464   1.749  4.5944 -0.6602 -2.0363
  236MOL0     H31148   7.438   4.620   1.664  0.9925  3.2735 -0.4836
  236MOL0     H31149   7.429   4.745   1.782  1.2603 -0.0770  1.0404
  236MOL0     H31150   7.640   4.468   2.026  1.3342  1.1453  0.1938
  236MOL0     H31151   6.922   4.489   1.894 -1.9644 -1.6527 -0.0755
  236MOL0     H31152   6.678   4.472   1.939 -1.3996  2.8048 -0.3768
  237MOL0     O31153   1.037   8.263   3.463  0.9297  0.3043 -0.1200
  237MOL0     C31154   1.094   8.270   3.569 -0.3319  0.2889  0.1640
  237MOL0     O31155   1.035   8.260   3.699  0.0830  0.0483  0.1534
  237MOL0     C31156   0.900   8.247   3.696  0.7462 -1.1904  0.1219
  237MOL0     C31157   0.844   8.137   3.759 -0.1839 -0.1701  0.6256
  237MOL0     C31158   0.700   8.142   3.776  0.6773  0.0815  0.3221
  237MOL0     C31159   0.610   8.241   3.722 -0.5433  0.6079  0.8057
  237MOL0     O31160   0.477   8.223   3.731 -0.1453  0.4054  0.5106
  237MOL0     C31161   0.389   8.306   3.651 -0.7468 -0.5683  0.3733
  237MOL0     C31162   0.236   8.273   3.686 -0.3180 -0.4687  0.5070
  237MOL0     C31163   0.188   8.338   3.822  0.1739 -0.2015 -0.2997
  237MOL0     C31164   0.037   8.313   3.845  0.6205  0.7178 -0.4568
  237MOL0     C31165  -0.053   8.382   3.741 -0.1145  1.4515 -0.4289
  237MOL0     C31166  -0.200   8.330   3.756  0.2048  0.0950 -0.1384
  237MOL0     C31167  -0.298   8.368   3.650 -0.0578  0.0512 -0.9702
  237MOL0     C31168  -0.441   8.314   3.684 -0.5262 -0.0186 -0.1914
  237MOL0     N31169  -0.542   8.375   3.595  0.0050  0.0598  0.4722
  237MOL0     C31170  -0.548   8.513   3.570  0.8488 -0.1447 -0.2044
  237MOL0     C31171  -0.676   8.523   3.523 -0.4814 -0.4930  0.7961
  237MOL0     C31172  -0.736   8.652   3.483 -0.0808  0.3455  0.0859
  237MOL0     C31173  -0.885   8.660   3.527  0.2646  0.5321 -0.0028
  237MOL0     C31174  -0.890   8.614   3.676 -0.0428  0.1965  0.4083
  237MOL0     C31175  -0.825   8.715   3.768 -0.7946  0.0780  0.6318
  237MOL0     O31176  -0.681   8.719   3.789 -0.3396 -0.1350  0.1641
  237MOL0     C31177  -0.617   8.628   3.867 -0.3645 -0.0401 -0.2962
  237MOL0     C31178  -0.678   8.530   3.951 -0.5987  0.0614 -0.2360
  237MOL0     C31179  -0.605   8.464   4.046  0.6420 -0.0868 -0.3519
  237MOL0     C31180  -0.474   8.494   4.072 -0.3763  0.3082  0.2825
  237MOL0     C31181  -0.402   8.403   4.172 -0.2923  0.1087  0.6027
  237MOL0     O31182  -0.267   8.389   4.148 -0.0820 -0.0254  0.5133
  237MOL0     C31183  -0.179   8.325   4.233  0.0694  0.5806  0.8418
  237MOL0     C31184  -0.043   8.362   4.243 -1.0959  0.1755  0.1176
  237MOL0     C31185   0.042   8.289   4.333  0.6050  0.4614 -0.8220
  237MOL0     C31186   0.003   8.179   4.403  0.0133  0.1867  0.0727
  237MOL0     O31187   0.100   8.129   4.500  0.3953 -0.4401  0.0313
  237MOL0     C31188   0.116   7.984   4.496  0.1338  1.1019  0.3136
  237MOL0     C31189   0.255   7.958   4.538 -0.5778 -0.3318 -0.2740
  237MOL0     C31190   0.281   7.807   4.509  0.5124 -0.7438  0.5513
  237MOL0     C31191   0.408   7.737   4.568 -0.4344  0.2697 -0.2604
  237MOL0     C31192   0.452   7.611   4.495 -0.0242  0.5772  0.6337
  237MOL0     C31193   0.566   7.654   4.389  0.5242  0.3830 -0.4702
  237MOL0     C31194   0.686   7.705   4.461 -0.2072 -0.6352  0.5479
  237MOL0     C31195   0.813   7.695   4.376  0.3308  0.0887 -0.5870
  237MOL0    Cl31196   0.888   7.535   4.363 -0.3479  0.2391  0.1595
  237MOL0     C31197  -0.127   8.139   4.395  0.6172 -0.4823  0.2433
  237MOL0     C31198  -0.222   8.213   4.310  0.1744  0.7567  0.0937
  237MOL0     O31199  -0.470   8.375   4.278  0.1793  0.1473  0.3727
  237MOL0     C31200  -0.412   8.587   3.990 -0.2635 -0.2492  0.1139
  237MOL0     C31201  -0.483   8.654   3.887 -0.0933 -0.1021 -0.3168
  237MOL0     N31202  -0.730   8.398   3.498 -0.3676  1.0929  0.2203
  237MOL0     N31203  -0.650   8.306   3.542  0.1070  0.4350 -0.3781
  237MOL0     C31204   0.678   8.356   3.677 -0.4989  0.5298  0.0248
  237MOL0     C31205   0.822   8.359   3.658  0.3848  0.9069  0.0195
  237MOL0     C31206   1.232   8.318   3.568  0.8680 -0.2995 -0.3802
  237MOL0     C31207   1.294   8.341   3.438  0.9263  0.2353  0.0503
  237MOL0     C31208   1.420   8.387   3.426  0.0941  0.1607  0.4105
  237MOL0     C31209   1.490   8.416   3.543 -0.3955 -0.0218  0.1769
  237MOL0     O31210   1.620   8.464   3.551 -0.0655 -0.0754  0.2633
  237MOL0     C31211   1.686   8.485   3.419  0.6023 -0.1862  0.3816
  237MOL0     C31212   1.830   8.520   3.440  0.1212 -0.6702 -0.8804
  237MOL0     C31213   1.893   8.412   3.527 -0.3524  0.3692  0.8232
  237MOL0     C31214   2.039   8.444   3.571  0.6073 -0.3900  0.2248
  237MOL0     C31215   2.126   8.435   3.453  0.4353  0.0711  0.0077
  237MOL0     C31216   2.184   8.416   3.343  0.4735 -0.0736 -0.5124
  237MOL0     C31217   1.432   8.395   3.668  0.1314  0.4020  0.3488
  237MOL0     C31218   1.306   8.340   3.684 -0.3859 -1.1585  0.9892
  237MOL0     H31219   0.900   8.058   3.809  0.0927  1.4214  2.9811
  237MOL0     H31220   0.658   8.060   3.834 -1.4939  2.8173  2.9706
  237MOL0     H31221   0.405   8.292   3.543 -1.8561 -0.0233  0.1277
  237MOL0     H31222   0.405   8.412   3.673 -3.6799  0.0086  0.1160
  237MOL0     H31223   0.221   8.165   3.684 -1.9366 -0.2563 -0.0620
  237MOL0     H31224   0.184   8.318   3.601  1.3632  0.3637 -0.1347
  237MOL0     H31225   0.204   8.447   3.816 -1.9751  0.1771  0.2387
  237MOL0     H31226   0.249   8.308   3.907  3.3817  4.4021 -0.5776
  237MOL0     H31227   0.020   8.206   3.838 -0.4318  0.6650  1.8412
  237MOL0     H31228   0.002   8.337   3.946  0.5711 -0.1281 -0.2716
  237MOL0     H31229  -0.021   8.362   3.639 -0.5005  3.1564 -0.9108
  237MOL0     H31230  -0.062   8.490   3.754  3.0493  1.7060  0.4067
  237MOL0     H31231  -0.238   8.372   3.849  2.1519  1.7341 -0.0068
  237MOL0     H31232  -0.189   8.221   3.760  4.6858  0.3143 -0.4721
  237MOL0     H31233  -0.306   8.477   3.651  0.6853  0.1176  0.7596
  237MOL0     H31234  -0.273   8.328   3.551  1.0673 -0.4997 -0.4804
  237MOL0     H31235  -0.470   8.335   3.787 -2.2237 -1.0074 -0.4385
  237MOL0     H31236  -0.435   8.206   3.674  0.5504 -0.0873  0.9605
  237MOL0     H31237  -0.477   8.585   3.610  2.1125 -1.4451 -0.0048
  237MOL0     H31238  -0.744   8.649   3.374  3.8066 -0.9517 -0.3266
  237MOL0     H31239  -0.676   8.741   3.505  0.2445  0.5950 -1.7328
  237MOL0     H31240  -0.952   8.593   3.472 -0.6903  0.1304  1.6017
  237MOL0     H31241  -0.924   8.761   3.515 -1.6992 -0.0735  1.0020
  237MOL0     H31242  -0.991   8.598   3.713  0.2241 -1.8448  0.3577
  237MOL0     H31243  -0.852   8.512   3.681  0.0898  0.2301  0.1438
  237MOL0     H31244  -0.880   8.698   3.861 -1.8540  1.1163  0.2196
  237MOL0     H31245  -0.865   8.804   3.720  1.0391  0.5702 -0.0696
  237MOL0     H31246  -0.783   8.507   3.938 -0.5745  1.3392 -3.6953
  237MOL0     H31247  -0.667   8.393   4.102 -1.4129  0.4284 -1.8477
  237MOL0     H31248  -0.008   8.452   4.192 -0.7696  2.2871  3.7109
  237MOL0     H31249   0.144   8.326   4.337  0.1801  1.5344  1.4358
  237MOL0     H31250   0.099   7.950   4.394 -1.9726  1.0615  0.6413
  237MOL0     H31251   0.055   7.937   4.573  3.1496 -1.2184  1.4931
  237MOL0     H31252   0.264   7.981   4.645  1.2659 -2.3215  0.0708
  237MOL0     H31253   0.337   8.014   4.492  1.5900 -1.7760  1.6103
  237MOL0     H31254   0.311   7.803   4.404 -0.0573  0.3058  0.3364
  237MOL0     H31255   0.190   7.750   4.527  0.5130 -0.8371  0.2574
  237MOL0     H31256   0.485   7.813   4.580  0.4133 -0.7237  0.7060
  237MOL0     H31257   0.379   7.702   4.667 -1.6969 -2.0329 -1.3540
  237MOL0     H31258   0.378   7.560   4.433 -0.1745 -0.2430  1.4597
  237MOL0     H31259   0.493   7.543   4.571  1.9701 -0.1579 -0.9994
  237MOL0     H31260   0.516   7.727   4.325  0.8361  1.8621  0.9061
  237MOL0     H31261   0.593   7.562   4.337 -0.4577 -1.5144  2.1165
  237MOL0     H31262   0.674   7.813   4.480  0.7826 -0.3417 -0.3872
  237MOL0     H31263   0.699   7.650   4.554  2.9449 -1.7537 -0.4437
  237MOL0     H31264   0.884   7.764   4.421  0.1285  0.1397 -0.3460
  237MOL0     H31265   0.787   7.726   4.274  2.3444 -0.1395 -1.2006
  237MOL0     H31266  -0.167   8.064   4.463 -1.5289 -0.8532 -1.3190
  237MOL0     H31267  -0.324   8.177   4.313  1.0158 -1.9195  3.5287
  237MOL0     H31268  -0.305   8.599   4.002 -0.1332 -2.3892  1.5737
  237MOL0     H31269  -0.439   8.733   3.827 -2.7524  1.2387 -0.6338
  237MOL0     H31270   0.618   8.442   3.648 -0.1919  0.8236  0.2541
  237MOL0     H31271   0.876   8.443   3.615  0.4872 -0.2942 -2.3756
  237MOL0     H31272   1.234   8.315   3.352  0.3038  2.8393 -0.4108
  237MOL0     H31273   1.462   8.406   3.327 -0.5782 -1.0300 -0.1192
  237MOL0     H31274   1.637   8.560   3.357  0.7940 -0.7745 -0.4900
  237MOL0     H31275   1.697   8.396   3.356  3.4982  1.9782 -2.4795
  237MOL0     H31276   1.879   8.531   3.343 -0.8378  0.1557 -1.2935
  237MOL0     H31277   1.820   8.616   3.492 -1.7806 -1.4144  0.2375
  237MOL0     H31278   1.901   8.317   3.473 -1.7680  0.6992 -0.0278
  237MOL0     H31279   1.823   8.394   3.609 -3.3281  0.1439 -1.5866
  237MOL0     H31280   2.041   8.535   3.631  1.5716 -1.8833  2.6072
  237MOL0     H31281   2.071   8.366   3.642  0.4387 -1.2619 -0.6367
  237MOL0     H31282   2.238   8.411   3.251  1.5211 -1.4323  0.1204
  237MOL0     H31283   1.485   8.418   3.760  0.4772  0.2847  0.1809
  237MOL0     H31284   1.278   8.317   3.787  0.5824 -2.2659  1.0291
  238MOL0     O31285   3.366   7.512  11.002 -0.6129 -0.7533 -0.4652
  238MOL0     C31286   3.374   7.394  10.978  0.0690  0.1137  0.5907
  238MOL0     O31287   3.297   7.297  11.036 -0.8354  0.5482  0.0860
  238MOL0     C31288   3.219   7.329  11.148 -0.3698 -0.7074 -0.5356
  238MOL0     C31289   3.082   7.316  11.139  0.1117  0.1915 -0.0076
  238MOL0     C31290   3.006   7.339  11.250  0.3615  0.4193 -0.9938
  238MOL0     C31291   3.054   7.378  11.374 -0.4537 -0.9525  0.0088
  238MOL0     O31292   2.973   7.397  11.488  0.0799 -0.6077  0.6915
  238MOL0     C31293   2.831   7.395  11.476 -0.3596  0.2229  0.3647
  238MOL0     C31294   2.781   7.254  11.483 -0.3517 -0.9722 -0.2058
  238MOL0     C31295   2.638   7.254  11.537  0.0247 -0.0653 -0.8254
  238MOL0     C31296   2.517   7.316  11.465  0.0322 -0.1937 -0.6985
  238MOL0     C31297   2.365   7.277  11.510 -0.2444  0.1458 -0.0669
  238MOL0     C31298   2.317   7.379  11.606 -0.6395 -1.1809  0.5796
  238MOL0     C31299   2.197   7.331  11.680 -0.0789  0.2296 -0.0264
  238MOL0     C31300   2.075   7.312  11.584 -0.5616  0.0302  0.6240
  238MOL0     N31301   1.951   7.293  11.664 -0.7967 -0.3662  0.5226
  238MOL0     C31302   1.873   7.393  11.721  0.0013  0.1023 -0.1896
  238MOL0     C31303   1.772   7.331  11.790  0.1652 -0.5388 -0.4888
  238MOL0     C31304   1.672   7.377  11.900 -0.6569  0.1942 -0.8789
  238MOL0     C31305   1.525   7.364  11.861 -0.6732 -0.5013  0.6931
  238MOL0     C31306   1.422   7.337  11.979 -0.1049 -0.2199 -0.1871
  238MOL0     C31307   1.282   7.375  11.943 -0.0175 -0.2790 -0.3708
  238MOL0     O31308   1.260   7.517  11.907  0.3961 -0.4800 -0.2008
  238MOL0     C31309   1.139   7.576  11.925  0.1017 -0.1807  0.8160
  238MOL0     C31310   1.137   7.720  11.946 -0.0620 -0.4677 -0.3984
  238MOL0     C31311   1.011   7.792  11.956 -0.2640  1.4608 -0.8618
  238MOL0     C31312   0.896   7.714  11.953 -0.1540  0.2331  0.2900
  238MOL0     C31313   0.761   7.782  11.951 -0.0750  0.7383 -0.1181
  238MOL0     O31314   0.658   7.702  11.998 -0.5320  0.1541 -0.2019
  238MOL0     C31315   0.526   7.737  12.024 -0.1765  0.3067 -0.0306
  238MOL0     C31316   0.436   7.631  12.017  0.2757 -0.7454 -0.1789
  238MOL0     C31317   0.298   7.648  12.052  0.3724  0.3119  0.9296
  238MOL0     C31318   0.256   7.778  12.093  0.4256 -0.0750 -0.0723
  238MOL0     O31319   0.133   7.802  12.149  0.4986  0.5994  0.5457
  238MOL0     C31320   0.061   7.691  12.204  0.2693 -0.2639 -0.1808
  238MOL0     C31321  -0.043   7.751  12.301  0.0294  0.4525 -0.8128
  238MOL0     C31322  -0.173   7.671  12.319 -0.9183 -1.0799 -0.9290
  238MOL0     C31323  -0.280   7.729  12.414 -1.1391 -0.7335  0.5613
  238MOL0     C31324  -0.403   7.633  12.431 -0.1130 -0.6118  1.1604
  238MOL0     C31325  -0.512   7.695  12.525  0.2102 -1.0779  0.3871
  238MOL0     C31326  -0.645   7.619  12.519  0.3202  0.2249 -0.6503
  238MOL0     C31327  -0.754   7.654  12.625  0.6027  0.6216  1.0071
  238MOL0    Cl31328  -0.737   7.814  12.721  0.3852 -0.3335 -0.1925
  238MOL0     C31329   0.351   7.880  12.104  0.4427 -0.1366  0.5519
  238MOL0     C31330   0.479   7.856  12.071 -1.1589  1.0341 -0.7011
  238MOL0     O31331   0.754   7.900  11.913 -0.6332 -0.0931 -0.0688
  238MOL0     C31332   0.899   7.576  11.946  0.7892 -0.0121  0.7835
  238MOL0     C31333   1.017   7.507  11.922  0.6077  0.1077 -1.2373
  238MOL0     N31334   1.789   7.200  11.768  0.1065 -0.8784 -0.5468
  238MOL0     N31335   1.895   7.175  11.690  0.3336  0.0561 -0.0088
  238MOL0     C31336   3.194   7.374  11.384  0.1262  0.8233  0.4491
  238MOL0     C31337   3.274   7.349  11.278  0.3168 -0.4466 -0.1780
  238MOL0     C31338   3.488   7.347  10.892 -0.3126  0.2553 -0.5348
  238MOL0     C31339   3.478   7.235  10.817  1.2428  1.0028 -0.9300
  238MOL0     C31340   3.578   7.206  10.726  0.3542 -0.3379 -0.5172
  238MOL0     C31341   3.686   7.287  10.704  0.2121 -1.3141 -0.0432
  238MOL0     O31342   3.780   7.252  10.610 -0.0930 -0.9801 -0.4024
  238MOL0     C31343   3.909   7.312  10.605  0.4552  0.3871 -0.5768
  238MOL0     C31344   4.000   7.235  10.502  0.1757 -0.3217 -0.5541
  238MOL0     C31345   3.964   7.265  10.363  0.3582  0.3619  0.6290
  238MOL0     C31346   4.059   7.197  10.271 -0.3837 -0.0444  0.5355
  238MOL0     C31347   4.042   7.054  10.248 -0.3316  0.4863  0.8124
  238MOL0     C31348   4.039   6.935  10.224  0.9298 -0.5701 -0.1517
  238MOL0     C31349   3.699   7.403  10.789  0.1037  0.8750  0.5660
  238MOL0     C31350   3.603   7.421  10.891  0.5808 -0.4165  1.0187
  238MOL0     H31351   3.036   7.283  11.046  0.3902 -1.4369  0.3974
  238MOL0     H31352   2.901   7.314  11.241  0.7815 -1.5166 -1.1282
  238MOL0     H31353   2.787   7.444  11.389  2.1044  0.8645 -0.6009
  238MOL0     H31354   2.794   7.456  11.558 -2.2238 -0.9470  0.4502
  238MOL0     H31355   2.837   7.199  11.559  0.5880  1.3703  0.8938
  238MOL0     H31356   2.798   7.204  11.387 -4.1966 -0.1243 -1.4929
  238MOL0     H31357   2.646   7.303  11.634  2.1303  2.7074 -2.2403
  238MOL0     H31358   2.606   7.151  11.552 -0.1623  0.2608  1.2858
  238MOL0     H31359   2.520   7.425  11.464 -2.5336 -0.0434 -2.1638
  238MOL0     H31360   2.527   7.291  11.359  1.8696 -0.6837 -0.4331
  238MOL0     H31361   2.360   7.180  11.561 -1.0991  0.7732  1.0756
  238MOL0     H31362   2.310   7.280  11.416 -0.4177 -0.1381  0.0255
  238MOL0     H31363   2.292   7.470  11.550  2.5181  0.7162  1.9613
  238MOL0     H31364   2.396   7.406  11.676 -0.7356 -2.4621  1.2047
  238MOL0     H31365   2.209   7.236  11.732  0.2375  0.2209 -0.1145
  238MOL0     H31366   2.189   7.411  11.755  3.7163  1.5588 -0.8294
  238MOL0     H31367   2.080   7.221  11.523 -2.8788 -0.5257  1.1619
  238MOL0     H31368   2.070   7.395  11.513  3.6515 -1.4524 -1.7756
  238MOL0     H31369   1.901   7.497  11.735  1.1914 -0.2823  0.4077
  238MOL0     H31370   1.687   7.481  11.928 -0.3113 -0.6776  2.7706
  238MOL0     H31371   1.688   7.314  11.989  0.0608  1.3606 -0.1542
  238MOL0     H31372   1.514   7.275  11.799 -2.6786 -1.4571  2.3268
  238MOL0     H31373   1.490   7.453  11.808  0.0533 -1.4846 -1.5534
  238MOL0     H31374   1.428   7.233  12.013  2.0331 -0.4319 -1.0482
  238MOL0     H31375   1.432   7.392  12.073 -1.6487 -3.9659  2.4150
  238MOL0     H31376   1.233   7.361  12.040 -1.3505 -0.6534 -1.0702
  238MOL0     H31377   1.245   7.299  11.873 -1.0628 -2.2469  2.1234
  238MOL0     H31378   1.229   7.777  11.954 -0.1280 -0.5000  0.7380
  238MOL0     H31379   0.997   7.896  11.984 -0.5343  0.2745  4.4798
  238MOL0     H31380   0.470   7.531  11.991  2.6481 -0.3931  1.2804
  238MOL0     H31381   0.226   7.567  12.060  0.3028  0.3650  0.8388
  238MOL0     H31382   0.133   7.616  12.240  1.1169  0.8914  0.6161
  238MOL0     H31383   0.007   7.643  12.122 -1.1876  1.0557 -0.0440
  238MOL0     H31384  -0.070   7.852  12.270 -0.5363  1.2911  2.0710
  238MOL0     H31385   0.007   7.755  12.399  0.7017 -3.6932 -0.7746
  238MOL0     H31386  -0.147   7.569  12.351  1.7122 -0.5574 -1.1966
  238MOL0     H31387  -0.222   7.664  12.221 -2.1125  1.6781 -0.6160
  238MOL0     H31388  -0.232   7.747  12.511 -1.8456  2.1345  0.4621
  238MOL0     H31389  -0.300   7.819  12.355  1.3238 -3.7000 -5.6652
  238MOL0     H31390  -0.361   7.544  12.478 -2.5679 -0.0641  4.7714
  238MOL0     H31391  -0.438   7.610  12.330  0.4132  1.2074  0.5170
  238MOL0     H31392  -0.524   7.802  12.503 -3.4221 -1.0795  1.6254
  238MOL0     H31393  -0.474   7.695  12.627 -0.4766 -2.1938  0.6612
  238MOL0     H31394  -0.691   7.636  12.421  0.6043 -1.7111 -1.1665
  238MOL0     H31395  -0.608   7.517  12.529  1.2899  0.7515  1.7492
  238MOL0     H31396  -0.751   7.569  12.694  2.4003 -1.1471 -1.0637
  238MOL0     H31397  -0.855   7.653  12.583  1.6533 -1.0205 -1.8247
  238MOL0     H31398   0.329   7.972  12.156 -2.2120 -0.9544  1.0466
  238MOL0     H31399   0.549   7.939  12.076 -0.3319  0.3153  0.3170
  238MOL0     H31400   0.806   7.521  11.943  1.9121 -2.5159  4.6925
  238MOL0     H31401   1.013   7.399  11.908  1.1057 -0.1299  0.2801
  238MOL0     H31402   3.234   7.393  11.482 -2.3526  0.5154  1.6026
  238MOL0     H31403   3.381   7.357  11.294  0.1915 -0.0381  0.4722
  238MOL0     H31404   3.393   7.168  10.828  0.3349  2.5683  3.5097
  238MOL0     H31405   3.559   7.118  10.664 -3.1513  1.9963 -3.1437
  238MOL0     H31406   3.956   7.290  10.702  2.5904 -1.3237 -1.9035
  238MOL0     H31407   3.910   7.420  10.588 -0.8916  0.0746 -3.0316
  238MOL0     H31408   4.100   7.277  10.516 -0.2111  0.4072  0.1452
  238MOL0     H31409   4.005   7.127  10.515  1.6232 -0.1982  0.0777
  238MOL0     H31410   3.959   7.372  10.338 -2.1663  0.5210  1.6156
  238MOL0     H31411   3.867   7.219  10.342  0.1467 -0.3740  2.9694
  238MOL0     H31412   4.034   7.238  10.173  1.2092 -0.8462 -0.2484
  238MOL0     H31413   4.161   7.225  10.301 -0.8004 -1.3077  3.4328
  238MOL0     H31414   4.034   6.832  10.195 -1.3077  0.1755 -2.7652
  238MOL0     H31415   3.790   7.462  10.788  0.1725  0.7633 -0.2625
  238MOL0     H31416   3.604   7.499  10.967  3.2532 -2.8208  3.7343
  239MOL0     O31417   7.502   6.417   5.936 -0.6545 -0.5634 -0.0805
  239MOL0     C31418   7.573   6.369   5.852  0.6974 -1.2713  0.9167
  239MOL0     O31419   7.534   6.285   5.743 -0.3649  0.0339 -0.7430
  239MOL0     C31420   7.403   6.272   5.719 -0.3153 -0.5714  0.0318
  239MOL0     C31421   7.353   6.144   5.697 -0.0394  0.6083 -0.3917
  239MOL0     C31422   7.221   6.120   5.650 -0.5312  0.5923 -0.1042
  239MOL0     C31423   7.139   6.231   5.633  0.2432 -0.2951 -0.3890
  239MOL0     O31424   7.003   6.221   5.618  0.2136 -0.0012  0.7657
  239MOL0     C31425   6.922   6.136   5.700 -0.1699 -0.3903 -0.9792
  239MOL0     C31426   6.796   6.095   5.620  0.3034  0.4636 -0.4112
  239MOL0     C31427   6.697   6.015   5.713 -0.2953  0.4811 -0.1132
  239MOL0     C31428   6.585   5.967   5.627  0.4132  0.1156 -0.3046
  239MOL0     C31429   6.467   5.909   5.716 -0.8866  0.2690 -0.6380
  239MOL0     C31430   6.328   5.937   5.667  0.3047  0.0873 -0.4626
  239MOL0     C31431   6.303   5.867   5.535 -0.0215 -0.2916 -0.3428
  239MOL0     C31432   6.153   5.884   5.515 -0.5401 -0.7472  0.6391
  239MOL0     N31433   6.072   5.773   5.554  1.0718 -0.3298  0.0784
  239MOL0     C31434   6.065   5.656   5.481  0.2441 -0.1205 -0.6487
  239MOL0     C31435   5.975   5.579   5.549 -0.7689  0.5690  0.4986
  239MOL0     C31436   5.927   5.446   5.507 -0.1277 -0.5058  1.0065
  239MOL0     C31437   5.843   5.451   5.385 -0.6958 -0.0527 -0.3647
  239MOL0     C31438   5.802   5.315   5.335  0.0835  0.6923  0.4119
  239MOL0     C31439   5.692   5.314   5.234 -0.0684  0.5744  0.2628
  239MOL0     O31440   5.588   5.417   5.246 -0.1248 -0.4399  0.6270
  239MOL0     C31441   5.473   5.400   5.163 -0.8567 -0.2169 -0.0776
  239MOL0     C31442   5.432   5.280   5.110  0.1511  0.7635 -0.4130
  239MOL0     C31443   5.324   5.263   5.026 -0.3648  0.6377  0.8973
  239MOL0     C31444   5.240   5.366   5.002  0.3565 -0.3509 -0.1758
  239MOL0     C31445   5.121   5.356   4.924  0.4821 -1.2998  0.2053
  239MOL0     O31446   5.044   5.470   4.904 -0.4525  0.3138  0.1267
  239MOL0     C31447   4.917   5.452   4.854 -0.2949  0.2730 -0.0496
  239MOL0     C31448   4.885   5.471   4.716 -0.2866  0.8945 -0.1359
  239MOL0     C31449   4.755   5.455   4.665 -0.8956  0.5834  0.0209
  239MOL0     C31450   4.650   5.434   4.753  0.0594  0.3537 -0.2804
  239MOL0     O31451   4.523   5.423   4.709 -0.3975 -0.0313 -0.6182
  239MOL0     C31452   4.467   5.543   4.653 -0.0708  0.4710 -0.0463
  239MOL0     C31453   4.346   5.498   4.577  0.2991  0.8411 -0.4827
  239MOL0     C31454   4.387   5.429   4.440  0.0810 -0.1592 -0.2332
  239MOL0     C31455   4.272   5.402   4.337 -0.2697 -0.6149 -1.1000
  239MOL0     C31456   4.150   5.340   4.405  0.0753 -0.6619 -0.3070
  239MOL0     C31457   4.044   5.325   4.297 -0.1696 -0.0189 -0.5654
  239MOL0     C31458   3.943   5.216   4.335  0.0249  0.4512  0.1609
  239MOL0     C31459   3.825   5.221   4.238  0.4919  1.0551  0.4187
  239MOL0    Cl31460   3.715   5.344   4.268  0.1727  0.2582  0.4307
  239MOL0     C31461   4.674   5.430   4.891  0.3972 -0.2162  0.2625
  239MOL0     C31462   4.814   5.445   4.940 -0.7118  0.7741 -0.2836
  239MOL0     O31463   5.098   5.239   4.887  0.2269  0.5351 -0.1079
  239MOL0     C31464   5.273   5.495   5.070 -0.0676 -0.2294  0.6567
  239MOL0     C31465   5.391   5.502   5.143 -0.4011 -0.8456 -1.2617
  239MOL0     N31466   5.944   5.642   5.669 -0.1157 -0.3422  0.2822
  239MOL0     N31467   5.992   5.758   5.661  0.0257  0.3827  0.0901
  239MOL0     C31468   7.195   6.359   5.645  0.5401  0.4812 -0.3926
  239MOL0     C31469   7.322   6.382   5.702 -0.1242  0.1915 -0.8534
  239MOL0     C31470   7.718   6.405   5.856 -0.0928  0.7222 -0.1662
  239MOL0     C31471   7.818   6.308   5.798  0.7242 -0.4061 -0.0043
  239MOL0     C31472   7.952   6.345   5.797 -0.9316 -0.0062 -0.6810
  239MOL0     C31473   7.999   6.469   5.851  0.3999 -0.1322  0.7718
  239MOL0     O31474   8.127   6.520   5.847  0.1351 -0.1401  0.4930
  239MOL0     C31475   8.221   6.447   5.761  0.0402 -1.5746  0.4283
  239MOL0     C31476   8.280   6.319   5.823 -0.4201 -0.6535  0.8347
  239MOL0     C31477   8.346   6.349   5.960  0.5933 -0.4173 -0.5728
  239MOL0     C31478   8.428   6.232   6.015 -0.3999 -0.8555 -0.6299
  239MOL0     C31479   8.554   6.199   5.933 -0.2036 -0.7071 -0.3837
  239MOL0     C31480   8.648   6.158   5.877 -0.5072  0.6075 -0.0298
  239MOL0     C31481   7.893   6.546   5.905 -0.0806  0.5355 -0.2868
  239MOL0     C31482   7.766   6.521   5.907 -0.0819 -0.5688 -0.2826
  239MOL0     H31483   7.415   6.058   5.718  0.0993  0.7825 -0.0835
  239MOL0     H31484   7.185   6.019   5.632 -1.3698  0.9542 -0.5184
  239MOL0     H31485   6.905   6.186   5.796  0.0615 -0.4660 -0.8971
  239MOL0     H31486   6.979   6.051   5.739  2.2480  0.7242 -1.9127
  239MOL0     H31487   6.831   6.036   5.535  2.3228  0.3848  0.4351
  239MOL0     H31488   6.752   6.184   5.572 -1.5685  0.6245  1.4535
  239MOL0     H31489   6.653   6.072   5.795  0.5741  2.0246 -0.6702
  239MOL0     H31490   6.744   5.924   5.750 -1.3050  1.0480  2.8312
  239MOL0     H31491   6.538   6.049   5.571 -3.0933 -0.4984  1.4359
  239MOL0     H31492   6.623   5.891   5.558  0.4682 -0.4025  0.2948
  239MOL0     H31493   6.479   5.937   5.821 -2.9398 -2.7247  0.5394
  239MOL0     H31494   6.485   5.801   5.723  0.8641  0.5541 -0.2247
  239MOL0     H31495   6.315   6.046   5.661  0.6682  0.0785 -1.8365
  239MOL0     H31496   6.257   5.900   5.741  0.0644 -0.7480 -1.0915
  239MOL0     H31497   6.347   5.915   5.447  0.1423  0.1943  0.0015
  239MOL0     H31498   6.326   5.761   5.547  0.0202 -0.2424  0.0220
  239MOL0     H31499   6.145   5.896   5.407 -0.5363  0.8689  0.8030
  239MOL0     H31500   6.119   5.980   5.555 -1.5718  0.2537 -2.3960
  239MOL0     H31501   6.125   5.624   5.396 -1.2988 -0.1650 -1.7719
  239MOL0     H31502   5.883   5.408   5.600  1.2495 -2.3263  0.9747
  239MOL0     H31503   6.014   5.385   5.482 -0.5642 -1.1200  0.9704
  239MOL0     H31504   5.898   5.496   5.302 -1.4580  0.3828 -0.6440
  239MOL0     H31505   5.762   5.517   5.417  0.6947  1.7817 -0.4843
  239MOL0     H31506   5.894   5.284   5.284 -0.4457  0.6005 -0.5168
  239MOL0     H31507   5.765   5.246   5.411  0.1425  1.2732  0.9778
  239MOL0     H31508   5.644   5.216   5.246 -2.7166  1.7991  0.4889
  239MOL0     H31509   5.737   5.327   5.135 -2.4656 -0.4051 -1.0577
  239MOL0     H31510   5.487   5.188   5.131 -2.5519 -0.2305  3.6189
  239MOL0     H31511   5.309   5.165   4.984  2.4087  0.3595  0.3412
  239MOL0     H31512   4.970   5.490   4.652  0.0188 -0.2328 -0.0797
  239MOL0     H31513   4.734   5.464   4.558  1.4083 -2.6410 -0.8594
  239MOL0     H31514   4.539   5.598   4.590  3.3780 -4.6739 -1.2004
  239MOL0     H31515   4.427   5.604   4.734 -2.2434 -1.4576  0.4299
  239MOL0     H31516   4.285   5.588   4.563 -0.7460  0.3080  0.4320
  239MOL0     H31517   4.285   5.432   4.639 -0.5955  1.7040 -0.4058
  239MOL0     H31518   4.454   5.345   4.460  0.4465 -1.1896 -4.8103
  239MOL0     H31519   4.455   5.505   4.401 -0.7629  0.4493 -0.5501
  239MOL0     H31520   4.229   5.487   4.285 -0.9315 -1.4840 -2.0158
  239MOL0     H31521   4.322   5.333   4.268 -1.3491 -3.1608  0.5091
  239MOL0     H31522   4.112   5.409   4.481  0.4992  0.3616 -1.0015
  239MOL0     H31523   4.180   5.248   4.454  0.5514  0.4579  1.6148
  239MOL0     H31524   4.103   5.290   4.212  0.0061 -1.0085 -0.0426
  239MOL0     H31525   3.994   5.418   4.270 -1.6098 -1.2920 -2.5123
  239MOL0     H31526   3.990   5.118   4.321 -0.1268  0.6304 -1.9022
  239MOL0     H31527   3.903   5.226   4.437 -0.0579  1.2466  0.0549
  239MOL0     H31528   3.777   5.123   4.239  0.3812  1.0379  3.2908
  239MOL0     H31529   3.857   5.236   4.134 -0.9169 -0.9481 -0.3574
  239MOL0     H31530   4.603   5.422   4.973  2.0420 -3.9741  1.5344
  239MOL0     H31531   4.832   5.437   5.047  1.5659 -0.1654 -0.6913
  239MOL0     H31532   5.212   5.583   5.057 -0.8500 -0.4957  2.2352
  239MOL0     H31533   5.424   5.592   5.194 -0.3622 -1.8870  0.6474
  239MOL0     H31534   7.126   6.433   5.607 -0.3409 -1.2029 -2.2234
  239MOL0     H31535   7.358   6.483   5.718 -1.6933  0.9338 -1.7869
  239MOL0     H31536   7.781   6.213   5.762  0.6322 -1.9732  3.7474
  239MOL0     H31537   8.023   6.273   5.758  1.3246  0.9659  1.3912
  239MOL0     H31538   8.301   6.516   5.729 -0.6241 -1.0720 -0.1876
  239MOL0     H31539   8.174   6.431   5.664 -1.4102  1.2058  0.5700
  239MOL0     H31540   8.209   6.236   5.824 -2.5278  1.0436 -0.3275
  239MOL0     H31541   8.355   6.276   5.757 -0.4978 -2.7028  1.9942
  239MOL0     H31542   8.267   6.375   6.031 -0.1925  1.3522 -2.0192
  239MOL0     H31543   8.403   6.441   5.951  1.9660 -0.9273  2.0260
  239MOL0     H31544   8.456   6.240   6.121 -2.6482  1.6488 -0.1389
  239MOL0     H31545   8.359   6.147   6.012 -2.6008  0.8504 -0.2830
  239MOL0     H31546   8.732   6.122   5.820  1.0199 -1.0247  3.0469
  239MOL0     H31547   7.913   6.637   5.962 -1.4106  0.5702  0.1481
  239MOL0     H31548   7.698   6.595   5.948  1.2455 -0.5245  2.0044
  240MOL0     O31549   0.486   8.802   6.768 -0.4243  0.2893  0.4999
  240MOL0     C31550   0.462   8.865   6.868 -0.0158 -0.4603  0.0174
  240MOL0     O31551   0.552   8.945   6.933  0.1364 -0.1969 -0.5013
  240MOL0     C31552   0.670   8.980   6.873 -0.9899  0.4684  0.7352
  240MOL0     C31553   0.676   9.068   6.760 -0.7615  0.4715 -0.0466
  240MOL0     C31554   0.806   9.083   6.707 -0.4404  0.9347  0.3982
  240MOL0     C31555   0.924   9.043   6.769 -0.4090  1.2481  1.4865
  240MOL0     O31556   1.040   9.092   6.722 -0.4195 -0.3596 -0.4404
  240MOL0     C31557   1.064   9.222   6.771  0.0618 -0.0645  0.0738
  240MOL0     C31558   1.103   9.221   6.918 -0.1266 -0.8287 -0.4412
  240MOL0     C31559   1.222   9.131   6.953  0.3886  0.1933  0.6021
  240MOL0     C31560   1.349   9.157   6.871 -0.0431 -0.1504 -0.0784
  240MOL0     C31561   1.395   9.306   6.877 -0.2840  0.1178  0.9926
  240MOL0     C31562   1.508   9.355   6.782 -0.1872  0.5719 -0.3668
  240MOL0     C31563   1.475   9.357   6.631  0.6803 -0.1414 -0.3600
  240MOL0     C31564   1.601   9.397   6.551  0.0604 -0.0772  0.6864
  240MOL0     N31565   1.566   9.445   6.416  0.1097  0.6572  0.1364
  240MOL0     C31566   1.545   9.353   6.303  0.0962  0.9830 -0.2328
  240MOL0     C31567   1.540   9.428   6.194 -0.7452 -0.2085 -0.6953
  240MOL0     C31568   1.505   9.397   6.056  0.1358 -0.1749  0.5797
  240MOL0     C31569   1.622   9.368   5.966 -0.1643 -0.8423 -0.1318
  240MOL0     C31570   1.691   9.483   5.884 -0.1743  0.8327  0.1634
  240MOL0     C31571   1.738   9.608   5.959 -0.9222  0.1370  0.2349
  240MOL0     O31572   1.818   9.700   5.869  0.4317  0.2597  0.1184
  240MOL0     C31573   1.891   9.798   5.920  0.5923 -0.4927  0.1503
  240MOL0     C31574   1.942   9.894   5.834 -0.1670  1.5655  0.0608
  240MOL0     C31575   2.018   9.999   5.874 -0.1496  0.0434  0.7673
  240MOL0     C31576   2.045  10.019   6.010 -0.8522  0.2444 -0.1082
  240MOL0     C31577   2.116  10.146   6.063 -0.6371  0.0055  0.3497
  240MOL0     O31578   2.135  10.151   6.200 -0.2574 -0.8147 -0.3881
  240MOL0     C31579   2.208  10.261   6.240  0.1363  0.1759 -0.2143
  240MOL0     C31580   2.340  10.255   6.244 -0.7911 -0.3079  0.5589
  240MOL0     C31581   2.409  10.372   6.277 -0.6795  0.4591  0.0669
  240MOL0     C31582   2.343  10.488   6.323  0.1715 -0.2537 -0.3688
  240MOL0     O31583   2.402  10.594   6.384  0.2949 -0.3400  0.5730
  240MOL0     C31584   2.541  10.613   6.378  0.2559  1.1856 -0.7479
  240MOL0     C31585   2.587  10.749   6.433 -0.3787 -0.3981 -0.1030
  240MOL0     C31586   2.531  10.751   6.582 -0.2160 -1.1026  1.0411
  240MOL0     C31587   2.580  10.886   6.636  0.0518 -0.0796 -0.7436
  240MOL0     C31588   2.542  10.904   6.786 -0.6920 -0.0995  0.1705
  240MOL0     C31589   2.628  11.016   6.860 -0.2528 -0.3760  1.5050
  240MOL0     C31590   2.610  11.001   7.006 -0.0556 -0.7431 -0.2885
  240MOL0     C31591   2.722  11.077   7.073 -0.4092  0.1233  0.3546
  240MOL0    Cl31592   2.712  11.247   7.020 -0.1064 -0.3442 -0.1179
  240MOL0     C31593   2.207  10.488   6.329 -0.8621  0.1040  0.5698
  240MOL0     C31594   2.142  10.378   6.283  0.5005  0.2085  0.5419
  240MOL0     O31595   2.163  10.227   5.981  0.4424  0.1446  0.4088
  240MOL0     C31596   2.015   9.913   6.095 -0.2915  0.2132 -0.5784
  240MOL0     C31597   1.943   9.800   6.052  0.1518 -0.3861 -0.2656
  240MOL0     N31598   1.542   9.560   6.244 -0.7616 -0.3686 -0.2054
  240MOL0     N31599   1.574   9.568   6.367 -0.0898 -0.1661 -0.1424
  240MOL0     C31600   0.909   8.963   6.883  0.6175 -0.4616 -0.0949
  240MOL0     C31601   0.787   8.924   6.925 -0.3481  0.1473 -0.6272
  240MOL0     C31602   0.347   8.831   6.946  0.5176 -0.5017 -0.2091
  240MOL0     C31603   0.314   8.890   7.070 -0.0776 -0.4444  0.9206
  240MOL0     C31604   0.192   8.861   7.140  0.2846 -0.2871 -0.9195
  240MOL0     C31605   0.098   8.776   7.086  0.8255  0.0641  0.2050
  240MOL0     O31606  -0.015   8.728   7.158 -0.2831 -0.3422 -0.2053
  240MOL0     C31607  -0.102   8.822   7.212 -0.1287 -0.2188 -0.1832
  240MOL0     C31608  -0.234   8.753   7.227 -0.3243  0.1373 -0.1214
  240MOL0     C31609  -0.232   8.636   7.325 -0.5690 -0.6422  0.3886
  240MOL0     C31610  -0.361   8.560   7.302  0.0748 -0.1551 -0.6488
  240MOL0     C31611  -0.388   8.470   7.411  1.1139  0.1229 -0.8883
  240MOL0     C31612  -0.445   8.400   7.495 -0.4103 -0.4591 -0.0753
  240MOL0     C31613   0.127   8.715   6.964  0.5339  0.5991  0.6597
  240MOL0     C31614   0.249   8.729   6.898 -0.4001 -0.7846 -0.1919
  240MOL0     H31615   0.585   9.085   6.703 -1.4772 -2.1349  0.1984
  240MOL0     H31616   0.811   9.123   6.607  0.7994 -2.8362 -1.2245
  240MOL0     H31617   0.970   9.278   6.762  0.7083  1.0479 -0.0386
  240MOL0     H31618   1.145   9.259   6.708  2.2919 -2.3618  1.4109
  240MOL0     H31619   1.010   9.194   6.968  0.5684  2.0640  2.7957
  240MOL0     H31620   1.122   9.319   6.963 -3.6502  0.3507 -1.2852
  240MOL0     H31621   1.190   9.026   6.948 -1.3545  0.6018  2.0616
  240MOL0     H31622   1.249   9.132   7.059  1.6965 -0.7517  0.3003
  240MOL0     H31623   1.430   9.099   6.916  0.9319  2.5586  1.9133
  240MOL0     H31624   1.341   9.122   6.768  0.9442  1.8671 -0.9083
  240MOL0     H31625   1.426   9.322   6.981 -0.8700  3.3480  0.7828
  240MOL0     H31626   1.306   9.368   6.859 -1.4894 -0.9817  2.8582
  240MOL0     H31627   1.587   9.280   6.775  0.5703  1.3193  0.0311
  240MOL0     H31628   1.544   9.454   6.810  0.2056  0.8300 -1.7323
  240MOL0     H31629   1.431   9.266   6.587  1.9427  0.2648 -2.6393
  240MOL0     H31630   1.402   9.437   6.617  0.7712 -0.1303 -0.8100
  240MOL0     H31631   1.672   9.314   6.543  0.9594  0.7905 -0.7900
  240MOL0     H31632   1.648   9.480   6.604  2.2790 -2.4749  2.7704
  240MOL0     H31633   1.535   9.245   6.301  2.5406  0.7038 -1.8229
  240MOL0     H31634   1.446   9.482   6.022  5.0908  2.9902 -1.1919
  240MOL0     H31635   1.443   9.307   6.059  2.7302 -2.0831  0.1600
  240MOL0     H31636   1.571   9.313   5.887  1.1416  0.7014 -2.1846
  240MOL0     H31637   1.696   9.304   6.016 -0.4393 -2.3637 -1.5947
  240MOL0     H31638   1.781   9.445   5.835 -0.4948  1.9088 -1.3651
  240MOL0     H31639   1.615   9.516   5.812  1.0009  1.1936 -0.9608
  240MOL0     H31640   1.785   9.572   6.051  1.6777 -2.3404 -1.8978
  240MOL0     H31641   1.645   9.663   5.979 -2.8312 -3.1674  1.3185
  240MOL0     H31642   1.915   9.895   5.728  0.4197 -1.5097 -0.2183
  240MOL0     H31643   2.028  10.073   5.795  3.1072 -1.1152 -0.0974
  240MOL0     H31644   2.394  10.164   6.219  0.3135  0.2089  1.0368
  240MOL0     H31645   2.517  10.359   6.286 -0.5535  1.8665  0.8031
  240MOL0     H31646   2.569  10.614   6.272  3.4193  1.6687 -0.0063
  240MOL0     H31647   2.580  10.527   6.434 -1.8071  1.6694  1.6007
  240MOL0     H31648   2.552  10.831   6.370  1.7304  1.5609  1.1254
  240MOL0     H31649   2.695  10.763   6.429 -0.0792 -1.6178  2.2217
  240MOL0     H31650   2.568  10.661   6.631 -0.3234 -2.3683 -1.0786
  240MOL0     H31651   2.422  10.750   6.577 -0.2061 -3.7042 -2.5672
  240MOL0     H31652   2.689  10.878   6.627 -0.2541 -4.1954 -3.5710
  240MOL0     H31653   2.540  10.970   6.579 -1.2930  1.2288  1.9545
  240MOL0     H31654   2.567  10.805   6.826 -2.7256 -1.4123 -1.5766
  240MOL0     H31655   2.435  10.925   6.793 -0.8947 -0.6091 -1.1376
  240MOL0     H31656   2.605  11.117   6.826  0.1515 -1.2819 -1.7941
  240MOL0     H31657   2.732  11.000   6.831 -0.5532  0.8012 -0.3983
  240MOL0     H31658   2.507  11.027   7.031 -0.2940 -2.0039  0.1353
  240MOL0     H31659   2.615  10.903   7.056 -0.0382 -0.3470  0.5109
  240MOL0     H31660   2.819  11.033   7.052 -0.4445  0.4163 -0.4643
  240MOL0     H31661   2.710  11.080   7.182  0.2003 -0.1402  0.4301
  240MOL0     H31662   2.160  10.579   6.365  1.4297  1.6660 -0.0928
  240MOL0     H31663   2.034  10.382   6.269  0.4160 -0.5091  0.9700
  240MOL0     H31664   2.037   9.929   6.200 -0.2528 -0.3006 -0.5077
  240MOL0     H31665   1.912   9.723   6.123  1.9144  1.4246  2.7187
  240MOL0     H31666   1.000   8.923   6.926  0.0563  0.5339  2.1380
  240MOL0     H31667   0.773   8.859   7.010  1.7087  1.2371  0.6132
  240MOL0     H31668   0.380   8.968   7.105  0.4064 -0.5605  0.2879
  240MOL0     H31669   0.165   8.907   7.235  1.5294 -2.4853  0.6069
  240MOL0     H31670  -0.113   8.910   7.148 -0.2627 -0.8384 -1.0480
  240MOL0     H31671  -0.053   8.850   7.305  2.1974 -1.1035 -1.0731
  240MOL0     H31672  -0.310   8.825   7.257  2.6625  2.0043  3.8403
  240MOL0     H31673  -0.246   8.700   7.132  1.7947 -0.7770  0.0721
  240MOL0     H31674  -0.232   8.671   7.429  0.6948 -1.3486  0.6426
  240MOL0     H31675  -0.153   8.565   7.303 -1.5159 -0.4920 -4.4111
  240MOL0     H31676  -0.445   8.629   7.312  1.5008  1.2928  3.6799
  240MOL0     H31677  -0.362   8.521   7.200 -1.2029  1.4018 -1.2772
  240MOL0     H31678  -0.480   8.325   7.564  0.6569 -0.0080  1.0049
  240MOL0     H31679   0.047   8.648   6.931 -2.6194  0.6661  6.7028
  240MOL0     H31680   0.266   8.661   6.815  3.8913  0.4166 -0.5466
  241MOL0     O31681   5.887   0.204   8.564  0.5047 -1.1065  0.3331
  241MOL0     C31682   5.980   0.275   8.537  1.0090 -0.2522  0.3243
  241MOL0     O31683   5.972   0.408   8.516 -0.8143 -0.2669  0.9108
  241MOL0     C31684   5.862   0.485   8.517 -0.4793  0.0130  0.3715
  241MOL0     C31685   5.883   0.621   8.542  0.0269  0.6919 -0.1484
  241MOL0     C31686   5.776   0.714   8.540 -1.0975 -0.0989 -0.2835
  241MOL0     C31687   5.645   0.675   8.502 -0.1740  0.3737 -0.3388
  241MOL0     O31688   5.554   0.777   8.499 -0.2022  0.2364 -0.7435
  241MOL0     C31689   5.427   0.751   8.443  0.1815  0.1871 -1.0658
  241MOL0     C31690   5.359   0.865   8.375 -0.2486  0.1938 -0.7581
  241MOL0     C31691   5.208   0.840   8.340  2.0468  0.1183 -0.9163
  241MOL0     C31692   5.116   0.813   8.469 -0.1647  0.2946  0.1423
  241MOL0     C31693   4.975   0.800   8.425 -0.1620  0.4574  0.7766
  241MOL0     C31694   4.887   0.740   8.534 -0.0459  0.5445  0.6027
  241MOL0     C31695   4.738   0.739   8.506 -0.5471  0.3200 -0.5273
  241MOL0     C31696   4.701   0.723   8.357  0.5867  0.4221 -0.3840
  241MOL0     N31697   4.558   0.708   8.339  0.1408 -0.2313 -0.2924
  241MOL0     C31698   4.487   0.610   8.394 -0.5648  0.6717  0.3007
  241MOL0     C31699   4.360   0.633   8.355  0.2000  0.7384  0.6000
  241MOL0     C31700   4.237   0.547   8.369  0.3118 -0.0026  0.6836
  241MOL0     C31701   4.165   0.585   8.502  0.1673  0.3317 -0.0850
  241MOL0     C31702   4.022   0.529   8.511 -0.6178 -0.1889 -0.0050
  241MOL0     C31703   3.969   0.567   8.643  0.5656 -0.7933  0.2230
  241MOL0     O31704   3.889   0.456   8.694  0.2863  0.3051 -1.0468
  241MOL0     C31705   3.780   0.486   8.772  0.5678 -0.3676 -0.1738
  241MOL0     C31706   3.684   0.389   8.794  0.3364  0.8345  0.0127
  241MOL0     C31707   3.573   0.400   8.879  0.1177  0.1284 -0.0800
  241MOL0     C31708   3.556   0.525   8.951  1.0629 -0.2517  0.4674
  241MOL0     C31709   3.440   0.554   9.035 -0.1837  0.1602  0.4105
  241MOL0     O31710   3.435   0.672   9.121  0.0860 -0.5940 -0.4134
  241MOL0     C31711   3.331   0.658   9.212 -0.5093 -0.3077 -0.5099
  241MOL0     C31712   3.209   0.718   9.196  0.4029 -0.6307 -0.7685
  241MOL0     C31713   3.100   0.697   9.279  0.3544  0.1182 -0.3983
  241MOL0     C31714   3.124   0.615   9.394  0.6952 -0.7687  0.2012
  241MOL0     O31715   3.018   0.601   9.481  0.1040  0.1581  0.0740
  241MOL0     C31716   3.038   0.531   9.608  1.0915 -0.0447 -0.4814
  241MOL0     C31717   2.906   0.541   9.691 -0.1642  0.1683 -1.4095
  241MOL0     C31718   2.872   0.686   9.726 -0.4788 -0.2702  0.3314
  241MOL0     C31719   2.751   0.689   9.821  0.8495 -0.0403  0.1810
  241MOL0     C31720   2.687   0.827   9.835  0.2508  1.4024 -0.4658
  241MOL0     C31721   2.567   0.820   9.917  0.3322  0.1002 -0.4140
  241MOL0     C31722   2.598   0.796  10.069 -0.4707  0.9358  1.3248
  241MOL0     C31723   2.645   0.918  10.143 -0.0998 -0.5054  0.0395
  241MOL0    Cl31724   2.672   0.860  10.311  0.0678 -0.0754 -0.3153
  241MOL0     C31725   3.253   0.563   9.419 -0.8118 -0.0268 -0.3603
  241MOL0     C31726   3.361   0.580   9.324 -0.4941 -0.5875 -0.8569
  241MOL0     O31727   3.351   0.466   9.028 -0.6332  0.3610  0.1632
  241MOL0     C31728   3.651   0.631   8.926 -0.2530 -0.0172 -0.7015
  241MOL0     C31729   3.757   0.608   8.833  0.2644 -0.2448 -0.1956
  241MOL0     N31730   4.361   0.755   8.292 -0.8404  0.3863 -0.0349
  241MOL0     N31731   4.477   0.804   8.291 -0.1076  0.8862 -0.7993
  241MOL0     C31732   5.624   0.541   8.476  0.7998 -0.5375 -0.3077
  241MOL0     C31733   5.731   0.448   8.478 -0.2017  0.1953  0.3729
  241MOL0     C31734   6.115   0.226   8.544 -0.9891  0.1061 -0.1057
  241MOL0     C31735   6.226   0.311   8.554  0.0078 -0.2466 -0.7779
  241MOL0     C31736   6.356   0.250   8.556  0.3544  0.2464  0.9821
  241MOL0     C31737   6.367   0.113   8.553  0.7066 -0.2123  0.2364
  241MOL0     O31738   6.494   0.066   8.563 -0.1217 -0.1001 -0.6868
  241MOL0     C31739   6.531  -0.071   8.547 -0.5325  0.8047 -0.7518
  241MOL0     C31740   6.502  -0.154   8.675 -0.9475 -0.0397  0.0321
  241MOL0     C31741   6.480  -0.298   8.627  0.3054 -0.2088 -0.8831
  241MOL0     C31742   6.617  -0.363   8.590  0.2760 -0.2643  1.0869
  241MOL0     C31743   6.690  -0.448   8.682  0.9937 -0.2217 -1.1103
  241MOL0     C31744   6.739  -0.535   8.758  0.2524 -0.4362  0.2857
  241MOL0     C31745   6.253   0.030   8.552  0.4629  0.5400  0.4118
  241MOL0     C31746   6.131   0.091   8.562  0.9907  0.2902  0.4477
  241MOL0     H31747   5.986   0.647   8.565 -0.3972  2.3387  0.0427
  241MOL0     H31748   5.782   0.817   8.574  4.5875 -0.1720 -0.0152
  241MOL0     H31749   5.369   0.707   8.526  3.1482 -4.0973 -0.9492
  241MOL0     H31750   5.432   0.675   8.364  0.9692 -1.0416  0.1154
  241MOL0     H31751   5.406   0.911   8.288 -0.8128  2.8826  0.2724
  241MOL0     H31752   5.356   0.951   8.443 -1.3142 -0.3706 -0.0568
  241MOL0     H31753   5.201   0.755   8.272  2.4387 -1.4530  0.9150
  241MOL0     H31754   5.170   0.922   8.278 -1.1506 -2.1486 -2.1848
  241MOL0     H31755   5.145   0.714   8.503  0.6843 -0.4416 -2.4870
  241MOL0     H31756   5.135   0.885   8.550 -1.3706 -0.3427  1.0309
  241MOL0     H31757   4.969   0.724   8.347  3.3895  1.4408 -0.6156
  241MOL0     H31758   4.954   0.901   8.389  3.1960  1.3868  1.1194
  241MOL0     H31759   4.901   0.782   8.634 -0.4144 -2.9111  2.2488
  241MOL0     H31760   4.922   0.637   8.549  3.8877  1.9055  2.1107
  241MOL0     H31761   4.698   0.653   8.560 -1.5334  1.6516  0.9620
  241MOL0     H31762   4.698   0.835   8.537  1.4493  1.7475 -2.0681
  241MOL0     H31763   4.754   0.639   8.312 -0.0215 -0.1905  0.0431
  241MOL0     H31764   4.728   0.819   8.311  2.1590  0.9702  1.5606
  241MOL0     H31765   4.509   0.517   8.447 -0.6574  1.4840  1.7963
  241MOL0     H31766   4.247   0.438   8.358 -0.6789 -0.1198  0.8793
  241MOL0     H31767   4.177   0.595   8.291  3.4210  2.1264 -0.6267
  241MOL0     H31768   4.180   0.693   8.514  3.9918 -0.1496  1.1583
  241MOL0     H31769   4.224   0.550   8.588 -0.0490 -0.5477 -0.2837
  241MOL0     H31770   3.962   0.560   8.424  2.2685 -0.1379 -2.1331
  241MOL0     H31771   4.046   0.422   8.512 -1.9072 -0.5771  3.7833
  241MOL0     H31772   3.915   0.661   8.627  2.0049  0.2317  1.0986
  241MOL0     H31773   4.044   0.587   8.720 -0.5091  0.0030  1.0919
  241MOL0     H31774   3.705   0.302   8.733  2.8490  0.8636  0.7134
  241MOL0     H31775   3.506   0.315   8.888  1.0485 -0.4551  2.2374
  241MOL0     H31776   3.197   0.774   9.104  1.6471 -1.4492 -1.4627
  241MOL0     H31777   3.002   0.741   9.269  0.9973  1.3910 -1.3618
  241MOL0     H31778   3.113   0.567   9.679  2.0482 -0.8187 -1.0691
  241MOL0     H31779   3.064   0.427   9.586  1.6123  0.2218 -1.1748
  241MOL0     H31780   2.928   0.485   9.783 -2.9151  0.7917 -0.2649
  241MOL0     H31781   2.834   0.491   9.626 -0.4056  1.2335 -1.9762
  241MOL0     H31782   2.865   0.752   9.640 -1.4448  2.8317  2.5996
  241MOL0     H31783   2.952   0.730   9.786 -1.6326  1.7957  0.4598
  241MOL0     H31784   2.679   0.615   9.786  0.8926 -0.0402  0.0918
  241MOL0     H31785   2.785   0.641   9.914  0.1929 -1.6142 -0.3577
  241MOL0     H31786   2.665   0.858   9.732  0.1862 -1.3946 -1.3761
  241MOL0     H31787   2.758   0.898   9.879 -1.7313  2.3115  1.4504
  241MOL0     H31788   2.506   0.737   9.880 -1.1052  0.0844  1.8006
  241MOL0     H31789   2.503   0.908   9.912 -2.2928 -1.6681  0.0326
  241MOL0     H31790   2.502   0.770  10.115 -0.2403  1.3659  2.0587
  241MOL0     H31791   2.659   0.709  10.095 -0.1050  1.1744  1.2575
  241MOL0     H31792   2.576   1.003  10.138  0.5380  0.1302  1.4172
  241MOL0     H31793   2.733   0.968  10.101 -2.0970  2.0138 -1.4451
  241MOL0     H31794   3.276   0.509   9.510 -3.6381 -0.7313  0.0142
  241MOL0     H31795   3.460   0.545   9.350 -0.9992 -0.0199  2.1643
  241MOL0     H31796   3.652   0.732   8.965  0.5645 -0.4839  0.5461
  241MOL0     H31797   3.814   0.699   8.817  1.2040 -1.1396 -2.3399
  241MOL0     H31798   5.528   0.503   8.442  1.6335 -0.8655 -2.4827
  241MOL0     H31799   5.718   0.347   8.440  1.0673 -1.4857  3.9724
  241MOL0     H31800   6.226   0.420   8.555 -1.5564 -0.1891  1.2940
  241MOL0     H31801   6.449   0.307   8.560  1.1631 -1.0107  0.6711
  241MOL0     H31802   6.639  -0.076   8.528 -0.3369  5.0550 -1.9918
  241MOL0     H31803   6.473  -0.104   8.460  0.4042  0.1947 -1.1584
  241MOL0     H31804   6.588  -0.149   8.743  1.5351  0.6574 -2.9477
  241MOL0     H31805   6.408  -0.117   8.716 -0.0521  0.4738  1.7344
  241MOL0     H31806   6.412  -0.300   8.542  0.6458 -0.6432 -1.1539
  241MOL0     H31807   6.432  -0.359   8.705  0.7949 -0.5343 -0.8321
  241MOL0     H31808   6.601  -0.414   8.494  1.6750 -0.9933  1.2264
  241MOL0     H31809   6.699  -0.293   8.573  0.9757 -1.2663  0.2134
  241MOL0     H31810   6.776  -0.606   8.829 -4.7358  0.2516  4.0876
  241MOL0     H31811   6.263  -0.077   8.536 -1.4595  0.3575  0.2782
  241MOL0     H31812   6.042   0.030   8.570  0.5642  0.7263 -0.7996
  242MOL0     O31813   9.201   3.560   8.946 -0.1220  0.3530  0.5566
  242MOL0     C31814   9.096   3.533   8.999  0.9664  0.2097 -0.0460
  242MOL0     O31815   9.071   3.543   9.136  0.2145 -0.8189  0.1954
  242MOL0     C31816   9.171   3.572   9.228  1.2494 -0.3670  0.3776
  242MOL0     C31817   9.123   3.557   9.353  0.0616 -1.0151 -0.3884
  242MOL0     C31818   9.197   3.587   9.470 -0.6693  0.3220 -0.1951
  242MOL0     C31819   9.320   3.656   9.451  0.1842 -1.1457  0.7954
  242MOL0     O31820   9.395   3.704   9.557  0.3933  0.1391  0.1931
  242MOL0     C31821   9.451   3.841   9.544 -0.5375  0.3974  0.3989
  242MOL0     C31822   9.606   3.838   9.521  0.0460  0.0378  0.5972
  242MOL0     C31823   9.674   3.970   9.533  1.5169  0.8460  0.6090
  242MOL0     C31824   9.701   4.015   9.679  0.2214  0.0835  0.2441
  242MOL0     C31825   9.753   4.151   9.689 -0.1111 -0.8707  1.1704
  242MOL0     C31826   9.870   4.206   9.596  0.7293  0.0547 -0.1372
  242MOL0     C31827  10.005   4.130   9.600  0.8945 -0.5599 -0.0171
  242MOL0     C31828  10.107   4.191   9.498  1.0126 -0.1000  0.2628
  242MOL0     N31829  10.104   4.157   9.354  0.1708  0.1702 -0.2875
  242MOL0     C31830  10.104   4.034   9.294  0.7682  0.5895  0.2213
  242MOL0     C31831  10.147   4.053   9.169 -0.0940  0.2630  0.8723
  242MOL0     C31832  10.166   3.947   9.057 -0.3185 -0.0671 -0.3605
  242MOL0     C31833  10.306   3.890   9.070  0.1821  1.1499  0.1032
  242MOL0     C31834  10.326   3.789   8.945  0.0658 -1.8325 -0.8440
  242MOL0     C31835  10.273   3.639   8.985  0.4554  0.6414 -0.1668
  242MOL0     O31836  10.274   3.556   8.872  0.0388 -0.3997  0.2436
  242MOL0     C31837  10.181   3.590   8.772 -0.2622  0.7402 -0.6541
  242MOL0     C31838  10.056   3.657   8.786  0.6779  0.6534  0.1786
  242MOL0     C31839   9.986   3.686   8.679 -0.5084 -0.8270  0.2012
  242MOL0     C31840  10.040   3.677   8.558  0.0229  0.5210  0.6189
  242MOL0     C31841   9.955   3.713   8.442 -1.1801  0.3242  0.0901
  242MOL0     O31842  10.023   3.765   8.339 -0.1534 -0.1012 -0.1602
  242MOL0     C31843   9.953   3.774   8.224  0.4064  0.5911  0.0588
  242MOL0     C31844   9.872   3.894   8.210  0.2384 -0.0465 -0.6183
  242MOL0     C31845   9.787   3.900   8.095  0.6764  0.1627 -0.1161
  242MOL0     C31846   9.770   3.784   8.009 -0.5574  0.7403  0.0329
  242MOL0     O31847   9.668   3.795   7.909  0.2172  0.1063 -0.3425
  242MOL0     C31848   9.591   3.679   7.864 -0.1461 -0.2087  0.1725
  242MOL0     C31849   9.488   3.730   7.762 -0.3169 -0.6396  0.4849
  242MOL0     C31850   9.413   3.607   7.709  1.3532  1.2870  0.2828
  242MOL0     C31851   9.280   3.653   7.648 -1.2890  0.1583  0.3959
  242MOL0     C31852   9.191   3.520   7.614 -0.3926 -0.3838  0.3547
  242MOL0     C31853   9.056   3.538   7.551 -0.4763 -0.1266 -0.1601
  242MOL0     C31854   9.046   3.605   7.418  0.7026 -0.8295 -0.0130
  242MOL0     C31855   9.149   3.548   7.316  0.1263  0.1805  0.7555
  242MOL0    Cl31856   9.107   3.637   7.159 -0.3990  0.1174 -0.2558
  242MOL0     C31857   9.852   3.669   8.020 -1.3830 -0.1153 -0.3208
  242MOL0     C31858   9.939   3.672   8.140  0.5494  0.4401  0.3155
  242MOL0     O31859   9.834   3.698   8.447 -0.1147  0.1253 -0.0206
  242MOL0     C31860  10.166   3.614   8.533  0.1397 -0.0823  0.7365
  242MOL0     C31861  10.233   3.576   8.642 -0.0386  0.4535  0.3631
  242MOL0     N31862  10.141   4.194   9.140 -0.9393 -0.1265  0.0151
  242MOL0     N31863  10.117   4.250   9.255  0.0035 -0.1318  0.5665
  242MOL0     C31864   9.373   3.682   9.325 -0.6501  0.1294 -0.1489
  242MOL0     C31865   9.296   3.634   9.215  0.2581 -0.8913 -0.0764
  242MOL0     C31866   8.992   3.481   8.914  0.0152  0.2914 -0.0019
  242MOL0     C31867   8.858   3.499   8.956 -0.3055  0.0003  0.3734
  242MOL0     C31868   8.759   3.415   8.897 -1.1680 -0.5303 -1.0635
  242MOL0     C31869   8.782   3.339   8.789 -0.6949  0.3434  0.5727
  242MOL0     O31870   8.685   3.261   8.719  0.3611  0.5355  0.2468
  242MOL0     C31871   8.541   3.287   8.727 -1.1669  0.1616 -0.5456
  242MOL0     C31872   8.494   3.251   8.581  0.6899  0.7340 -0.4797
  242MOL0     C31873   8.557   3.342   8.479  0.2849 -0.8904  0.1402
  242MOL0     C31874   8.505   3.305   8.340  0.0926 -0.6526 -0.1780
  242MOL0     C31875   8.374   3.368   8.299  0.1378  0.4252  0.7021
  242MOL0     C31876   8.272   3.405   8.241  0.5501 -0.7614 -0.0125
  242MOL0     C31877   8.910   3.352   8.730  0.0945 -0.6393 -0.1680
  242MOL0     C31878   9.016   3.408   8.798  0.3294 -1.1272 -0.2332
  242MOL0     H31879   9.025   3.510   9.357 -1.3790  1.8122  0.4166
  242MOL0     H31880   9.171   3.559   9.572 -0.5657  0.3555 -0.1596
  242MOL0     H31881   9.430   3.883   9.643 -0.1173  1.3030  0.1124
  242MOL0     H31882   9.409   3.894   9.458 -0.6898 -0.8304 -0.3069
  242MOL0     H31883   9.620   3.804   9.418 -2.2134  0.6833  0.0205
  242MOL0     H31884   9.640   3.756   9.585 -0.7550  0.0770  1.0856
  242MOL0     H31885   9.614   4.033   9.467  2.7502  0.9311 -0.4688
  242MOL0     H31886   9.767   3.965   9.475  0.3892 -0.1909 -1.1890
  242MOL0     H31887   9.608   4.007   9.736 -0.4559  1.5955 -0.5714
  242MOL0     H31888   9.770   3.945   9.726  1.2287 -0.3282 -1.7385
  242MOL0     H31889   9.784   4.167   9.792  3.9311  2.5906 -0.3112
  242MOL0     H31890   9.668   4.216   9.666  0.5073 -0.0811  1.0919
  242MOL0     H31891   9.886   4.312   9.613 -0.0718 -0.0735  1.6544
  242MOL0     H31892   9.836   4.188   9.493  0.5933 -0.4870 -0.0031
  242MOL0     H31893  10.050   4.147   9.698 -1.0546  1.8051  0.5681
  242MOL0     H31894  10.003   4.020   9.600 -0.4308 -0.5676  0.4078
  242MOL0     H31895  10.201   4.147   9.533  1.6143  1.1530  0.2554
  242MOL0     H31896  10.094   4.299   9.507 -0.6741 -0.2808  0.4350
  242MOL0     H31897  10.074   3.936   9.331  3.9813 -1.1951 -1.4053
  242MOL0     H31898  10.149   3.980   8.954 -0.9239  0.7618  0.0008
  242MOL0     H31899  10.091   3.871   9.077  0.8233 -0.8300  1.2693
  242MOL0     H31900  10.333   3.835   9.161  0.0401  0.0660 -0.4949
  242MOL0     H31901  10.366   3.982   9.067 -0.3651  1.5807  1.4848
  242MOL0     H31902  10.265   3.814   8.858 -1.3502 -4.2231 -0.6407
  242MOL0     H31903  10.432   3.793   8.921  1.1022 -0.8320  3.1622
  242MOL0     H31904  10.171   3.647   9.025  0.6163  0.3497  0.3113
  242MOL0     H31905  10.345   3.602   9.059  0.6284  0.2639 -0.5203
  242MOL0     H31906  10.008   3.685   8.880 -0.3773 -0.9785  0.1673
  242MOL0     H31907   9.890   3.733   8.700  0.9762  2.1203  0.8466
  242MOL0     H31908   9.879   3.974   8.283 -1.5383 -0.1638 -0.2776
  242MOL0     H31909   9.722   3.984   8.076 -1.6873 -1.2909  1.0891
  242MOL0     H31910   9.544   3.627   7.949 -2.9163  1.4293 -0.2355
  242MOL0     H31911   9.661   3.610   7.816  1.1450  0.6963  0.7150
  242MOL0     H31912   9.544   3.780   7.683  1.3862  0.1976  2.1378
  242MOL0     H31913   9.416   3.799   7.806  0.6822 -1.2303  3.2606
  242MOL0     H31914   9.399   3.529   7.785  2.8397 -0.2981 -0.9645
  242MOL0     H31915   9.461   3.559   7.623  0.3325  2.4273 -0.9728
  242MOL0     H31916   9.232   3.716   7.724 -2.0468  0.0304  0.0412
  242MOL0     H31917   9.302   3.717   7.562 -0.6352  0.3254  0.6881
  242MOL0     H31918   9.160   3.461   7.701 -2.9219 -0.0839 -0.2865
  242MOL0     H31919   9.254   3.460   7.548  3.3129  2.3473  1.0861
  242MOL0     H31920   8.988   3.591   7.619 -0.9992 -0.6315 -0.2841
  242MOL0     H31921   9.022   3.435   7.536 -0.8198 -0.2156  1.1080
  242MOL0     H31922   8.943   3.594   7.381  0.2853  3.7197 -0.7404
  242MOL0     H31923   9.060   3.713   7.425 -3.5454 -0.0830 -0.2221
  242MOL0     H31924   9.118   3.445   7.300 -0.7915  0.3548  1.2995
  242MOL0     H31925   9.253   3.553   7.349  1.4536  2.3183 -3.1161
  242MOL0     H31926   9.847   3.578   7.963 -0.9631 -1.1545  1.2327
  242MOL0     H31927   9.994   3.580   8.159 -1.1542 -0.3779  1.5646
  242MOL0     H31928  10.209   3.590   8.436 -3.3088 -1.5546 -0.5740
  242MOL0     H31929  10.331   3.534   8.623  1.0470  2.8952  0.1444
  242MOL0     H31930   9.461   3.744   9.314 -0.2017 -0.1090  1.7291
  242MOL0     H31931   9.340   3.661   9.120 -0.7807 -0.7810 -0.5368
  242MOL0     H31932   8.831   3.570   9.034 -0.2758  0.8057 -0.3296
  242MOL0     H31933   8.660   3.422   8.940 -0.4738  1.4620  0.4084
  242MOL0     H31934   8.524   3.394   8.744  1.0521  0.4847 -0.1102
  242MOL0     H31935   8.498   3.231   8.809  1.0169  0.6178  1.0017
  242MOL0     H31936   8.524   3.149   8.558  1.8321  0.6731  1.0703
  242MOL0     H31937   8.385   3.256   8.572  0.1975 -0.3716  3.0652
  242MOL0     H31938   8.666   3.327   8.483  0.8606  2.1731 -1.4581
  242MOL0     H31939   8.541   3.448   8.501 -0.6756 -1.0124  0.0834
  242MOL0     H31940   8.573   3.325   8.257 -0.5585 -3.2298 -1.4593
  242MOL0     H31941   8.491   3.196   8.337 -2.2574 -0.3794 -1.3284
  242MOL0     H31942   8.195   3.445   8.179  2.4638  0.1144 -1.9542
  242MOL0     H31943   8.927   3.307   8.632  2.6312  2.7927 -1.4710
  242MOL0     H31944   9.117   3.402   8.759 -0.1424  0.7246 -1.8807
  243MOL0     O31945   4.265   2.439  11.271  0.0523 -0.4233 -0.0641
  243MOL0     C31946   4.292   2.389  11.378 -0.5262 -0.5657 -0.6827
  243MOL0     O31947   4.216   2.399  11.488 -0.2991  0.9086  0.1646
  243MOL0     C31948   4.085   2.402  11.460 -0.2397  0.1998  0.5355
  243MOL0     C31949   4.026   2.307  11.372 -0.2068  0.2788 -0.3772
  243MOL0     C31950   3.888   2.321  11.346  0.3644 -1.0145  0.0510
  243MOL0     C31951   3.812   2.418  11.415 -0.2967  0.1333 -0.9020
  243MOL0     O31952   3.681   2.394  11.388 -0.5551 -0.4584 -0.4070
  243MOL0     C31953   3.580   2.469  11.455 -0.0597  0.1563  0.5467
  243MOL0     C31954   3.443   2.423  11.405  0.1427 -0.5035 -0.3088
  243MOL0     C31955   3.331   2.502  11.484 -0.0624 -0.2574  0.0156
  243MOL0     C31956   3.320   2.474  11.633 -0.1589 -0.1178 -0.3696
  243MOL0     C31957   3.200   2.537  11.704 -0.2039  0.3995  0.1481
  243MOL0     C31958   3.182   2.687  11.665 -0.3288 -0.3585  1.2461
  243MOL0     C31959   3.067   2.747  11.755 -0.1763 -0.2128  0.3458
  243MOL0     C31960   2.929   2.686  11.732  0.0958  0.2307 -0.0272
  243MOL0     N31961   2.814   2.762  11.776  0.5179 -0.0216 -0.3473
  243MOL0     C31962   2.733   2.739  11.884  0.6065  0.3403 -0.1876
  243MOL0     C31963   2.612   2.789  11.843 -0.5928 -0.7305 -0.2572
  243MOL0     C31964   2.478   2.780  11.905  0.1209  0.0946 -0.0908
  243MOL0     C31965   2.460   2.831  12.043  0.1544 -0.0685 -0.3903
  243MOL0     C31966   2.316   2.797  12.082 -0.0019 -0.1992  0.3889
  243MOL0     C31967   2.269   2.840  12.216 -0.8959 -0.8959 -0.5462
  243MOL0     O31968   2.136   2.780  12.239 -0.0652  0.0218  0.2567
  243MOL0     C31969   2.075   2.828  12.352 -0.3169 -0.3898  0.2914
  243MOL0     C31970   2.131   2.917  12.448 -0.9531  0.9600  0.1133
  243MOL0     C31971   2.055   2.968  12.551  0.6673 -0.8440  0.7954
  243MOL0     C31972   1.920   2.939  12.558  0.9319  0.0351  0.9092
  243MOL0     C31973   1.834   2.992  12.669 -0.8405 -0.6803  0.4366
  243MOL0     O31974   1.721   2.927  12.702 -0.5523 -0.2297  0.1152
  243MOL0     C31975   1.667   2.968  12.817  0.4731  0.4196 -0.2422
  243MOL0     C31976   1.726   2.931  12.947 -0.5674  0.5677 -0.1191
  243MOL0     C31977   1.661   2.963  13.064 -0.9703  0.0756 -0.1156
  243MOL0     C31978   1.536   3.018  13.062  0.8970 -0.5607  1.1760
  243MOL0     O31979   1.460   3.040  13.175  0.4869  0.4252  0.2848
  243MOL0     C31980   1.466   2.937  13.274  0.8910  0.1467  0.9699
  243MOL0     C31981   1.362   2.968  13.387  0.0064  0.0315 -0.3112
  243MOL0     C31982   1.216   2.960  13.339 -0.1853 -0.1849 -0.0735
  243MOL0     C31983   1.111   2.985  13.443 -0.2614 -0.1723 -0.9409
  243MOL0     C31984   1.102   2.878  13.550 -0.1838  0.4711 -0.1087
  243MOL0     C31985   0.962   2.885  13.612  0.5390  0.3965 -0.4289
  243MOL0     C31986   0.946   2.788  13.729 -0.8889 -0.4079  0.3001
  243MOL0     C31987   0.949   2.637  13.688 -0.1076 -0.0634  0.2043
  243MOL0    Cl31988   0.842   2.606  13.542 -0.3992 -0.2080 -0.5177
  243MOL0     C31989   1.480   3.065  12.937 -0.1055 -0.0275 -0.4921
  243MOL0     C31990   1.544   3.039  12.819 -0.6075 -0.2004  0.2616
  243MOL0     O31991   1.894   3.074  12.737  1.1685  0.3941  0.5230
  243MOL0     C31992   1.869   2.841  12.473 -0.4578 -0.0717 -0.7345
  243MOL0     C31993   1.941   2.796  12.362 -1.0938  0.4355  0.3510
  243MOL0     N31994   2.631   2.845  11.709  0.2647  0.6905  0.0452
  243MOL0     N31995   2.752   2.826  11.671  0.2727 -0.6398 -0.6140
  243MOL0     C31996   3.861   2.504  11.509  0.1561  0.6947  0.5786
  243MOL0     C31997   3.999   2.497  11.527  1.2021  0.2118 -0.5992
  243MOL0     C31998   4.428   2.327  11.391  0.0038 -0.5189 -0.6487
  243MOL0     C31999   4.529   2.351  11.293 -0.1065 -0.5334 -0.4762
  243MOL0     C32000   4.650   2.276  11.307  0.0786  0.4088  0.5719
  243MOL0     C32001   4.681   2.208  11.429 -0.1784 -0.1436  0.9657
  243MOL0     O32002   4.801   2.134  11.438  0.1442 -1.1334 -0.3554
  243MOL0     C32003   4.896   2.114  11.333 -0.5826  0.5954  0.3825
  243MOL0     C32004   4.996   2.006  11.378 -0.8081 -0.0415  0.6367
  243MOL0     C32005   5.124   2.064  11.446 -0.2055 -0.1145  0.5811
  243MOL0     C32006   5.213   1.946  11.497  0.7894 -0.2886  0.2599
  243MOL0     C32007   5.330   1.994  11.568  0.3819 -0.8150  0.9423
  243MOL0     C32008   5.436   2.019  11.617  0.0455 -1.0074 -0.5477
  243MOL0     C32009   4.577   2.186  11.520  1.0536  0.9466 -0.2587
  243MOL0     C32010   4.462   2.258  11.508  0.1940 -0.8784 -0.4824
  243MOL0     H32011   4.076   2.222  11.326 -2.8121 -1.8182  0.3661
  243MOL0     H32012   3.849   2.246  11.279 -1.8728 -1.6910  1.9959
  243MOL0     H32013   3.587   2.575  11.428 -0.7712 -0.5776 -2.9871
  243MOL0     H32014   3.594   2.463  11.564  2.6917  0.7956  0.3240
  243MOL0     H32015   3.445   2.316  11.428  1.5938 -0.4332 -0.0067
  243MOL0     H32016   3.421   2.431  11.299 -2.6170 -0.3447  0.1951
  243MOL0     H32017   3.235   2.464  11.450  0.0644 -1.1613  0.6394
  243MOL0     H32018   3.321   2.608  11.458  2.0482 -0.6827 -3.1485
  243MOL0     H32019   3.301   2.367  11.651 -0.0006  0.2723  2.5904
  243MOL0     H32020   3.414   2.505  11.681  0.8099  0.6175 -2.6122
  243MOL0     H32021   3.213   2.525  11.812 -1.7839 -1.4379  0.1923
  243MOL0     H32022   3.112   2.480  11.672 -1.2677  2.2701 -0.3954
  243MOL0     H32023   3.140   2.683  11.564 -0.5889  0.9214  1.2937
  243MOL0     H32024   3.275   2.744  11.668 -1.3899  1.5317 -0.3368
  243MOL0     H32025   3.100   2.734  11.859  1.5465 -0.2809 -0.1739
  243MOL0     H32026   3.067   2.856  11.744  2.2689 -0.3022 -1.3114
  243MOL0     H32027   2.926   2.587  11.779  0.7305  0.9175  1.5145
  243MOL0     H32028   2.919   2.681  11.623  0.3458  0.6451 -0.0682
  243MOL0     H32029   2.746   2.683  11.976  1.0964  1.4500  0.4483
  243MOL0     H32030   2.457   2.673  11.914  0.6567 -0.2799 -2.6252
  243MOL0     H32031   2.407   2.820  11.832  0.7130  1.2770 -0.0462
  243MOL0     H32032   2.483   2.937  12.046  0.4393 -0.1567  1.5760
  243MOL0     H32033   2.537   2.772  12.094 -0.3301 -2.4647 -2.1882
  243MOL0     H32034   2.262   2.844  12.000  1.1622 -2.2817 -1.7084
  243MOL0     H32035   2.306   2.688  12.080  3.5330 -0.6499  0.9821
  243MOL0     H32036   2.254   2.948  12.208  1.1735 -0.6201 -1.1329
  243MOL0     H32037   2.338   2.819  12.298  0.8511  1.4177 -1.3166
  243MOL0     H32038   2.231   2.957  12.437 -0.1980 -1.0496 -0.7552
  243MOL0     H32039   2.101   3.044  12.614  0.9506 -2.1453  2.2113
  243MOL0     H32040   1.824   2.890  12.925  0.4843  2.3137  1.0498
  243MOL0     H32041   1.717   2.930  13.150 -2.2158 -0.0105  0.6975
  243MOL0     H32042   1.570   2.935  13.310  1.3271 -1.0539 -0.2199
  243MOL0     H32043   1.438   2.849  13.214  0.6953  1.6586 -1.2930
  243MOL0     H32044   1.389   3.068  13.421 -0.2037  0.1824 -0.5846
  243MOL0     H32045   1.366   2.892  13.465 -0.7912 -1.5653 -1.7518
  243MOL0     H32046   1.200   2.859  13.302 -3.4974 -0.1798  1.0313
  243MOL0     H32047   1.213   3.035  13.259 -2.1068  3.2231  2.8507
  243MOL0     H32048   1.123   3.081  13.493 -1.0240 -1.2688  1.5139
  243MOL0     H32049   1.013   2.994  13.393 -1.0549  0.3571  0.6475
  243MOL0     H32050   1.186   2.880  13.620  1.1835 -0.6444 -1.6330
  243MOL0     H32051   1.122   2.787  13.493  1.6018  2.5913 -3.1790
  243MOL0     H32052   0.880   2.877  13.540 -0.3563 -0.9672  0.6745
  243MOL0     H32053   0.941   2.983  13.656 -3.9627  0.1993 -1.6174
  243MOL0     H32054   1.015   2.806  13.812 -0.9450  0.8440  0.1017
  243MOL0     H32055   0.849   2.809  13.774 -0.5363  0.2524  0.7734
  243MOL0     H32056   0.923   2.565  13.766  1.1370 -0.1651  0.5389
  243MOL0     H32057   1.053   2.613  13.663  0.1872 -0.7528  1.9764
  243MOL0     H32058   1.381   3.107  12.922 -0.6477 -0.9576  0.3498
  243MOL0     H32059   1.489   3.060  12.728  3.5505  0.6243 -2.2737
  243MOL0     H32060   1.764   2.811  12.476 -0.1810 -1.0515 -0.6378
  243MOL0     H32061   1.890   2.747  12.280 -1.4129 -2.9494  2.3455
  243MOL0     H32062   3.796   2.573  11.561 -0.5265 -0.3045  1.0721
  243MOL0     H32063   4.044   2.562  11.601 -0.1482 -0.6881  1.0719
  243MOL0     H32064   4.513   2.411  11.203  1.1602  1.9852  0.8583
  243MOL0     H32065   4.715   2.279  11.221 -1.3145 -0.0982 -0.5355
  243MOL0     H32066   4.942   2.208  11.302  0.4248 -0.0702 -0.2142
  243MOL0     H32067   4.840   2.050  11.263  0.0365 -2.2569  2.3206
  243MOL0     H32068   4.942   1.939  11.446  0.8162 -0.7377  1.3048
  243MOL0     H32069   5.039   1.954  11.291  1.9117  2.2517  0.4577
  243MOL0     H32070   5.081   2.119  11.530 -0.1806 -0.6871  0.9729
  243MOL0     H32071   5.182   2.126  11.377 -0.7020 -0.6807 -0.3570
  243MOL0     H32072   5.159   1.871  11.555  0.5020 -0.7501 -0.5840
  243MOL0     H32073   5.249   1.891  11.410  5.0179  1.5771  0.5622
  243MOL0     H32074   5.533   2.025  11.661  0.2134  0.8930 -1.1168
  243MOL0     H32075   4.599   2.119  11.603  0.5660 -1.7169 -2.1455
  243MOL0     H32076   4.392   2.233  11.587  1.5453 -0.6321  0.8197
  244MOL0     O32077   8.315   1.323   0.577  0.2862 -0.1199  0.3779
  244MOL0     C32078   8.224   1.333   0.492 -0.0308 -0.4514 -0.2865
  244MOL0     O32079   8.231   1.297   0.367 -0.1200  0.0546  0.5351
  244MOL0     C32080   8.336   1.226   0.317  0.3683  0.0372  0.1420
  244MOL0     C32081   8.390   1.274   0.194  0.5414 -0.5747  0.0098
  244MOL0     C32082   8.483   1.202   0.127 -0.6510 -0.0122 -0.2328
  244MOL0     C32083   8.526   1.075   0.187 -0.8869 -0.1267 -0.0977
  244MOL0     O32084   8.619   0.996   0.117  0.4927 -0.3965  1.1492
  244MOL0     C32085   8.660   0.874   0.171 -0.9005  0.1227  0.2301
  244MOL0     C32086   8.766   0.828   0.082  0.5357 -0.2375  0.9261
  244MOL0     C32087   8.793   0.688   0.118  0.1740 -0.0808 -0.2378
  244MOL0     C32088   8.900   0.629   0.031 -0.1169 -0.2291  0.4424
  244MOL0     C32089   8.946   0.482   0.067  0.2778 -0.0083  0.7001
  244MOL0     C32090   8.967   0.465   0.214 -0.7037 -0.8192 -0.1946
  244MOL0     C32091   9.060   0.349   0.260 -0.0040  1.1392  0.4934
  244MOL0     C32092   9.012   0.210   0.209 -0.5025 -0.2181 -0.2622
  244MOL0     N32093   8.877   0.171   0.243  0.1186  0.7145 -0.0241
  244MOL0     C32094   8.833   0.120   0.369  0.0680 -0.6590 -0.6067
  244MOL0     C32095   8.696   0.113   0.352  0.1679 -0.5451  0.0154
  244MOL0     C32096   8.603   0.034   0.444  0.2107 -0.4248  0.3347
  244MOL0     C32097   8.460   0.068   0.420  0.5241 -0.0314  0.1648
  244MOL0     C32098   8.364   0.001   0.530 -0.5384 -0.7884  0.6252
  244MOL0     C32099   8.366   0.064   0.663  0.1117 -1.0415 -0.0342
  244MOL0     O32100   8.306   0.192   0.670  0.5571 -0.2696  0.3587
  244MOL0     C32101   8.173   0.220   0.658  0.5807  0.3310 -0.1529
  244MOL0     C32102   8.145   0.347   0.665  0.5080 -0.7862  0.4535
  244MOL0     C32103   8.009   0.393   0.657 -0.2679  0.4865  1.3797
  244MOL0     C32104   7.902   0.310   0.630 -0.2692  0.4052  0.6502
  244MOL0     C32105   7.765   0.364   0.624 -0.1692  0.1029  0.6171
  244MOL0     O32106   7.738   0.498   0.651  0.3328  0.2267 -0.6163
  244MOL0     C32107   7.612   0.540   0.630 -0.1191 -0.6697  0.8911
  244MOL0     C32108   7.514   0.514   0.722 -0.0688  0.4942  0.4009
  244MOL0     C32109   7.381   0.557   0.716  0.1117  0.4483  0.0426
  244MOL0     C32110   7.339   0.622   0.599  0.4039 -0.0423 -0.9035
  244MOL0     O32111   7.211   0.644   0.569  0.0194  0.2528 -0.5771
  244MOL0     C32112   7.145   0.713   0.681 -0.1712  1.1221  0.2248
  244MOL0     C32113   7.028   0.799   0.621  0.4523 -0.3488  0.3176
  244MOL0     C32114   6.891   0.770   0.681  0.0533 -0.0585  0.3940
  244MOL0     C32115   6.889   0.803   0.828  0.1549 -0.1976 -0.4584
  244MOL0     C32116   6.740   0.806   0.873 -1.4990  0.5089  0.8375
  244MOL0     C32117   6.731   0.820   1.035  0.8348  0.4426  0.8655
  244MOL0     C32118   6.775   0.964   1.074 -0.6559  1.4036 -0.1405
  244MOL0     C32119   6.667   1.049   1.137  0.1851  0.0274  0.0656
  244MOL0    Cl32120   6.525   1.075   1.032  0.3242 -0.0276  0.2562
  244MOL0     C32121   7.436   0.663   0.504  0.3875  0.4418 -0.5583
  244MOL0     C32122   7.571   0.628   0.527 -0.3475  0.3169 -0.7597
  244MOL0     O32123   7.678   0.279   0.600 -0.6572 -0.7915 -0.0777
  244MOL0     C32124   7.935   0.172   0.619 -0.1835  0.3488  0.1155
  244MOL0     C32125   8.070   0.132   0.621 -0.0550 -0.0945  0.3295
  244MOL0     N32126   8.665   0.187   0.237  0.0682  0.2456  0.3034
  244MOL0     N32127   8.767   0.218   0.172 -0.7805 -0.0702 -0.7204
  244MOL0     C32128   8.462   1.026   0.305 -0.3473  0.5202  0.2530
  244MOL0     C32129   8.374   1.112   0.373  0.6791  0.2847  0.7083
  244MOL0     C32130   8.086   1.384   0.530  0.6715 -0.2150  0.3535
  244MOL0     C32131   8.070   1.478   0.633 -0.3573  0.3835  0.4695
  244MOL0     C32132   7.942   1.513   0.682 -0.0014 -0.5312 -0.0446
  244MOL0     C32133   7.828   1.481   0.614 -0.4363 -0.5034  0.4437
  244MOL0     O32134   7.701   1.536   0.633  0.0669  0.2147  0.6431
  244MOL0     C32135   7.663   1.589   0.766  1.2694  0.2944  0.1425
  244MOL0     C32136   7.530   1.673   0.757 -0.0764 -0.0094 -0.3791
  244MOL0     C32137   7.417   1.580   0.748 -0.1920  0.4672 -0.4194
  244MOL0     C32138   7.276   1.649   0.741 -0.2129 -0.3829 -0.7097
  244MOL0     C32139   7.277   1.710   0.609  0.1074  0.7210 -0.2894
  244MOL0     C32140   7.275   1.775   0.509 -0.5791  0.4368 -0.5703
  244MOL0     C32141   7.855   1.426   0.491  0.8793  0.2400 -0.2985
  244MOL0     C32142   7.973   1.357   0.458 -0.0856  0.5853 -0.0556
  244MOL0     H32143   8.366   1.370   0.149  2.6336  0.5314  1.1074
  244MOL0     H32144   8.527   1.233   0.033 -2.8998 -1.8955 -2.0589
  244MOL0     H32145   8.577   0.804   0.165 -1.9309  1.1741  1.5523
  244MOL0     H32146   8.686   0.872   0.277 -1.8719 -3.9438  0.5697
  244MOL0     H32147   8.855   0.892   0.096  0.3771 -0.0989  1.3269
  244MOL0     H32148   8.739   0.829  -0.023 -0.4186 -0.6461  1.1617
  244MOL0     H32149   8.700   0.630   0.116 -0.8559  1.4216  1.7222
  244MOL0     H32150   8.827   0.694   0.221  0.3770  3.3454 -0.4106
  244MOL0     H32151   8.874   0.625  -0.075 -2.0417 -0.7740  0.9026
  244MOL0     H32152   8.987   0.695   0.032 -1.2159  1.2666  1.7834
  244MOL0     H32153   9.032   0.450   0.008 -1.9756 -0.0763 -2.8670
  244MOL0     H32154   8.870   0.406   0.048 -0.2314  0.6905 -0.1864
  244MOL0     H32155   8.867   0.441   0.250 -0.7003 -2.9364 -1.4474
  244MOL0     H32156   9.009   0.553   0.263 -1.0909  0.1504 -1.5291
  244MOL0     H32157   9.158   0.369   0.217 -0.1281  1.7159  0.4657
  244MOL0     H32158   9.056   0.343   0.370 -1.1950  1.9782  0.5193
  244MOL0     H32159   9.079   0.137   0.255  0.9304  0.0052 -1.8805
  244MOL0     H32160   9.038   0.199   0.103 -1.2548 -1.2847 -0.3560
  244MOL0     H32161   8.884   0.063   0.446 -2.0741 -0.3947  1.1080
  244MOL0     H32162   8.636   0.050   0.547  1.5524  2.0467 -0.4004
  244MOL0     H32163   8.612  -0.071   0.416  2.5083 -0.1210 -0.2584
  244MOL0     H32164   8.431   0.044   0.317 -0.7979  5.5243 -1.1341
  244MOL0     H32165   8.441   0.176   0.412 -0.4517 -0.1258  0.9799
  244MOL0     H32166   8.263   0.008   0.488  1.4295  3.9361 -4.6868
  244MOL0     H32167   8.391  -0.103   0.546 -1.0112 -0.9424  0.4208
  244MOL0     H32168   8.467   0.089   0.697  0.2478  0.9166 -1.6785
  244MOL0     H32169   8.318  -0.004   0.735 -0.4949 -0.7419 -0.1510
  244MOL0     H32170   8.219   0.420   0.696  0.7912 -0.7922 -0.1883
  244MOL0     H32171   7.993   0.499   0.673 -0.9824  0.0668  4.0004
  244MOL0     H32172   7.534   0.465   0.817 -1.4059 -1.6859 -0.3636
  244MOL0     H32173   7.311   0.527   0.794 -0.2703  0.1948 -0.3944
  244MOL0     H32174   7.223   0.775   0.728  2.8204 -2.7984  0.9267
  244MOL0     H32175   7.114   0.639   0.754  0.4956 -1.3996 -1.8916
  244MOL0     H32176   7.023   0.761   0.518 -0.7579 -0.2797  0.3271
  244MOL0     H32177   7.040   0.907   0.626 -0.3795 -0.2097 -0.3523
  244MOL0     H32178   6.869   0.665   0.660  0.3795  0.3936 -2.6134
  244MOL0     H32179   6.810   0.826   0.632  0.0915 -1.2390 -1.0798
  244MOL0     H32180   6.950   0.734   0.887 -0.6350 -0.2627  0.3045
  244MOL0     H32181   6.943   0.897   0.841  2.5477 -1.7405  1.5084
  244MOL0     H32182   6.690   0.715   0.838  3.8996 -1.5943 -2.7214
  244MOL0     H32183   6.680   0.887   0.830 -1.4435 -0.0541 -0.3615
  244MOL0     H32184   6.790   0.746   1.091 -0.6432  1.0316  3.3615
  244MOL0     H32185   6.629   0.800   1.070  1.5859  1.2935  3.8604
  244MOL0     H32186   6.857   0.944   1.143 -0.5884 -1.5284 -0.9232
  244MOL0     H32187   6.818   1.015   0.987  2.4259 -1.3853 -0.4588
  244MOL0     H32188   6.708   1.147   1.163  0.5900  0.0338 -0.5777
  244MOL0     H32189   6.628   1.015   1.233  1.1351  1.9843  1.2086
  244MOL0     H32190   7.410   0.706   0.408  0.7507 -1.5137 -1.5772
  244MOL0     H32191   7.644   0.670   0.459  0.3325 -0.3521 -0.4666
  244MOL0     H32192   7.859   0.095   0.614  0.7597 -0.6781  1.1404
  244MOL0     H32193   8.084   0.026   0.601 -1.6290 -0.8149  2.7020
  244MOL0     H32194   8.491   0.935   0.356  4.3102  0.6424 -1.5993
  244MOL0     H32195   8.320   1.073   0.458 -0.4023  1.4960  0.6126
  244MOL0     H32196   8.159   1.506   0.689  1.3992  0.4866 -2.1857
  244MOL0     H32197   7.931   1.576   0.770 -2.5065  2.7374 -2.4488
  244MOL0     H32198   7.739   1.661   0.799  0.9932  0.0419  1.3802
  244MOL0     H32199   7.664   1.507   0.838 -0.2867 -1.8133 -2.0794
  244MOL0     H32200   7.530   1.729   0.851  1.7545  0.6379 -0.7042
  244MOL0     H32201   7.544   1.746   0.676 -0.1739 -0.1991 -0.5681
  244MOL0     H32202   7.418   1.516   0.837 -3.5724  2.0737  0.9639
  244MOL0     H32203   7.425   1.527   0.653 -3.6193  3.3544 -2.5894
  244MOL0     H32204   7.201   1.569   0.744  1.1067 -1.6722 -1.3533
  244MOL0     H32205   7.256   1.725   0.817  2.7753  1.3531 -1.5032
  244MOL0     H32206   7.270   1.845   0.428 -0.2926  0.3801 -0.6361
  244MOL0     H32207   7.775   1.412   0.419 -0.0935 -1.1423  0.9847
  244MOL0     H32208   7.979   1.310   0.360  4.0641 -0.7882  0.6464
  245MOL0     O32209   8.624   9.331   4.484  0.1586 -0.2015  0.2809
  245MOL0     C32210   8.597   9.426   4.553 -0.0918  0.0004 -0.1994
  245MOL0     O32211   8.669   9.467   4.656 -0.3527  0.1498 -0.3877
  245MOL0     C32212   8.795   9.430   4.674 -0.0977  1.0170 -1.0137
  245MOL0     C32213   8.837   9.366   4.795  0.1449  0.1626 -0.4074
  245MOL0     C32214   8.964   9.320   4.814  0.1535 -0.6809 -0.4765
  245MOL0     C32215   9.066   9.327   4.714 -0.1138 -0.0552  0.1142
  245MOL0     O32216   9.181   9.250   4.738 -0.0192 -0.1176  0.2117
  245MOL0     C32217   9.293   9.327   4.692 -1.0234  0.1829  0.1614
  245MOL0     C32218   9.419   9.259   4.747  0.0284 -0.7992 -0.0380
  245MOL0     C32219   9.411   9.235   4.897 -0.6307  0.8076  0.0698
  245MOL0     C32220   9.414   9.364   4.978  1.0302  0.3080 -0.2860
  245MOL0     C32221   9.427   9.333   5.129  0.0998  0.1238 -0.5775
  245MOL0     C32222   9.427   9.460   5.221 -0.1965 -0.3542 -0.0596
  245MOL0     C32223   9.441   9.430   5.368  0.1874  0.1758 -0.3377
  245MOL0     C32224   9.455   9.573   5.434  0.1908  0.4135 -0.8589
  245MOL0     N32225   9.316   9.616   5.478 -0.1796  0.0893  0.5484
  245MOL0     C32226   9.259   9.586   5.601  0.3746 -0.3768  0.9657
  245MOL0     C32227   9.132   9.650   5.591 -0.2080  0.0769  0.3190
  245MOL0     C32228   9.048   9.663   5.709  0.1562  0.3459 -0.0318
  245MOL0     C32229   8.901   9.635   5.668 -0.1404  0.1827  0.2665
  245MOL0     C32230   8.796   9.641   5.778  0.2620 -0.6444 -0.2804
  245MOL0     C32231   8.659   9.672   5.711 -0.8528  0.6684 -0.2260
  245MOL0     O32232   8.574   9.555   5.694 -0.8482 -0.1715  0.5124
  245MOL0     C32233   8.460   9.585   5.625 -0.3089  0.0700 -0.0531
  245MOL0     C32234   8.469   9.621   5.488  0.5132 -0.6075 -1.2612
  245MOL0     C32235   8.347   9.658   5.423 -0.9711  0.3255  0.2595
  245MOL0     C32236   8.226   9.657   5.489 -0.5431  0.5419  0.0439
  245MOL0     C32237   8.095   9.697   5.423  1.0945  0.3201 -0.2755
  245MOL0     O32238   7.987   9.691   5.503  0.3816  0.3428  0.1866
  245MOL0     C32239   7.868   9.758   5.474 -0.7082 -0.0283 -0.5339
  245MOL0     C32240   7.747   9.688   5.495  0.8373 -0.0244  0.1192
  245MOL0     C32241   7.626   9.762   5.492 -0.2761 -0.6578  0.0747
  245MOL0     C32242   7.627   9.901   5.478  0.6487 -0.4709  0.3465
  245MOL0     O32243   7.512   9.979   5.472 -0.0260 -0.5370 -0.5398
  245MOL0     C32244   7.389   9.929   5.429  0.0286 -1.0946 -0.2835
  245MOL0     C32245   7.291  10.053   5.424 -1.0186  0.8056  0.2987
  245MOL0     C32246   7.140  10.037   5.443  0.3482  0.6042 -0.1568
  245MOL0     C32247   7.091   9.986   5.585  0.1754  0.1326  0.4051
  245MOL0     C32248   6.944   9.948   5.574  0.7068 -0.5436 -0.7384
  245MOL0     C32249   6.853  10.055   5.619  0.5830  0.4054 -0.2015
  245MOL0     C32250   6.701  10.029   5.597  0.0278  0.0607  0.5792
  245MOL0     C32251   6.624  10.156   5.616  0.9393  0.6416 -0.6316
  245MOL0    Cl32252   6.459  10.125   5.555 -0.1639  0.0890  0.1009
  245MOL0     C32253   7.749   9.976   5.464  0.7496  0.7907 -0.1826
  245MOL0     C32254   7.868   9.898   5.467  0.2620  0.1075  0.2583
  245MOL0     O32255   8.090   9.731   5.304  0.1647  0.5370 -0.5897
  245MOL0     C32256   8.217   9.603   5.621  0.5645 -0.5992 -0.1208
  245MOL0     C32257   8.333   9.575   5.691 -0.5700 -0.8808 -0.0889
  245MOL0     N32258   9.115   9.698   5.458 -0.1354  0.3916 -0.4368
  245MOL0     N32259   9.224   9.675   5.395 -0.6580 -0.5078 -0.0658
  245MOL0     C32260   9.021   9.371   4.588 -0.3417  0.5992  0.2731
  245MOL0     C32261   8.893   9.432   4.571  0.2245  1.4709  1.3907
  245MOL0     C32262   8.487   9.509   4.511  0.4481 -0.1156  0.2480
  245MOL0     C32263   8.382   9.472   4.427 -0.6801 -0.0110  1.0286
  245MOL0     C32264   8.268   9.544   4.413 -0.5348 -0.1551  1.2098
  245MOL0     C32265   8.255   9.667   4.479 -0.4390 -0.2487 -0.1946
  245MOL0     O32266   8.146   9.742   4.461 -0.8553  0.6258 -0.6062
  245MOL0     C32267   8.054   9.756   4.566 -0.9657  0.1141  0.0027
  245MOL0     C32268   8.109   9.870   4.667 -0.4077  1.2141 -0.1158
  245MOL0     C32269   8.009   9.923   4.775 -0.2989 -0.2998  0.2872
  245MOL0     C32270   8.033  10.064   4.820  0.5565 -0.3193  0.1206
  245MOL0     C32271   8.001  10.157   4.713 -0.4603 -0.8670 -0.2705
  245MOL0     C32272   7.942  10.235   4.650 -0.7896  0.1139  0.6611
  245MOL0     C32273   8.370   9.719   4.555 -0.4190  0.4849 -0.4356
  245MOL0     C32274   8.482   9.641   4.563 -0.0718  0.9097 -1.0313
  245MOL0     H32275   8.773   9.358   4.882  0.4310 -2.0355 -0.3202
  245MOL0     H32276   8.989   9.267   4.906 -1.3198 -1.0783 -0.2819
  245MOL0     H32277   9.288   9.428   4.734 -5.7097  0.0244  0.4657
  245MOL0     H32278   9.315   9.322   4.585  0.3897 -0.7338  0.4593
  245MOL0     H32279   9.514   9.312   4.734  0.4119  0.1481  4.7942
  245MOL0     H32280   9.430   9.163   4.694 -0.3929 -1.8803  1.7461
  245MOL0     H32281   9.499   9.177   4.926 -2.1044 -0.6141  1.9435
  245MOL0     H32282   9.320   9.181   4.925 -1.7559  2.3604 -0.4485
  245MOL0     H32283   9.493   9.427   4.937  1.0984  1.5265  1.5793
  245MOL0     H32284   9.320   9.417   4.962  1.6764  1.5923  0.0368
  245MOL0     H32285   9.521   9.277   5.131 -1.8259 -3.4060  1.7674
  245MOL0     H32286   9.354   9.261   5.166 -0.7870  1.0550 -0.4721
  245MOL0     H32287   9.338   9.521   5.204  0.0213 -0.3314 -1.2270
  245MOL0     H32288   9.514   9.523   5.198 -0.8390  0.0563 -1.5079
  245MOL0     H32289   9.360   9.376   5.417  0.3872 -0.9917 -1.2530
  245MOL0     H32290   9.532   9.372   5.388  0.8642  1.1168 -0.6335
  245MOL0     H32291   9.506   9.648   5.372 -1.5105  1.7922 -0.6529
  245MOL0     H32292   9.513   9.566   5.526 -0.2804  1.3993 -0.4701
  245MOL0     H32293   9.298   9.530   5.685  2.8540 -0.6165 -0.2586
  245MOL0     H32294   9.048   9.763   5.753 -1.4571 -0.0000  0.8413
  245MOL0     H32295   9.081   9.594   5.787  2.4546  0.5803 -0.7412
  245MOL0     H32296   8.894   9.533   5.630 -0.9322  0.5490 -0.6313
  245MOL0     H32297   8.873   9.698   5.583 -3.3494 -2.3464 -0.7645
  245MOL0     H32298   8.778   9.548   5.831 -0.9123 -0.8518 -0.9936
  245MOL0     H32299   8.815   9.718   5.853 -0.0837  1.8545 -2.5988
  245MOL0     H32300   8.668   9.746   5.631  2.4361  1.9623  1.1493
  245MOL0     H32301   8.609   9.737   5.784 -1.8686  2.4680 -2.3981
  245MOL0     H32302   8.565   9.644   5.444 -0.1212  0.0608 -2.3377
  245MOL0     H32303   8.357   9.682   5.318  0.7887  0.1982  0.3696
  245MOL0     H32304   7.759   9.584   5.523  0.0006 -0.9574 -2.7437
  245MOL0     H32305   7.531   9.718   5.519 -0.8426 -0.7010 -1.8545
  245MOL0     H32306   7.347   9.863   5.505  0.6531 -0.0753  0.9874
  245MOL0     H32307   7.407   9.894   5.327 -0.9169  0.9788 -1.2218
  245MOL0     H32308   7.312  10.116   5.338  1.1811  0.7299  0.7076
  245MOL0     H32309   7.312  10.121   5.507 -3.7755  1.1013  0.8352
  245MOL0     H32310   7.106   9.961   5.372 -0.0457  0.6362 -0.0027
  245MOL0     H32311   7.088  10.132   5.428 -1.1985  0.0910  1.5860
  245MOL0     H32312   7.148   9.893   5.600 -1.2099 -0.9977 -0.9528
  245MOL0     H32313   7.112  10.064   5.658  3.0845 -1.1897  1.1326
  245MOL0     H32314   6.941   9.850   5.622  4.3393 -0.3505  0.1469
  245MOL0     H32315   6.917   9.913   5.474 -0.8028 -1.9977  0.1206
  245MOL0     H32316   6.873  10.146   5.561 -3.1178  2.5581  1.5329
  245MOL0     H32317   6.876  10.065   5.726  1.6758  2.1295 -0.5549
  245MOL0     H32318   6.695   9.988   5.496 -1.2200 -1.3560  1.1842
  245MOL0     H32319   6.676   9.944   5.662  2.6890 -0.7363  0.6981
  245MOL0     H32320   6.674  10.244   5.575  1.7921  0.2047 -0.5590
  245MOL0     H32321   6.620  10.177   5.724  1.6797  2.2665 -0.8973
  245MOL0     H32322   7.748  10.084   5.455 -2.6856  0.7820 -1.5278
  245MOL0     H32323   7.960   9.951   5.444 -0.6283  1.0112 -1.4880
  245MOL0     H32324   8.124   9.609   5.676  0.3995  2.4471 -0.5623
  245MOL0     H32325   8.330   9.551   5.796 -0.9891 -3.3387 -0.5839
  245MOL0     H32326   9.089   9.368   4.503 -1.6168  1.6924 -0.8512
  245MOL0     H32327   8.856   9.472   4.477 -0.6095  1.3067  1.6339
  245MOL0     H32328   8.403   9.379   4.375  4.1391  1.4094 -0.0753
  245MOL0     H32329   8.185   9.519   4.347  0.3398 -0.8981  0.3647
  245MOL0     H32330   8.040   9.663   4.623  0.0315 -0.8067 -1.1712
  245MOL0     H32331   7.958   9.788   4.525 -0.3477 -0.2819 -1.8399
  245MOL0     H32332   8.191   9.819   4.719 -1.4286  0.3787  0.7058
  245MOL0     H32333   8.157   9.945   4.604  0.5966 -1.1402 -2.3358
  245MOL0     H32334   8.018   9.865   4.868 -2.4766  2.3224  2.2909
  245MOL0     H32335   7.908   9.930   4.733 -1.1929  0.4879  2.3888
  245MOL0     H32336   7.964  10.076   4.904 -1.3237 -2.2550 -1.0256
  245MOL0     H32337   8.131  10.085   4.864  0.4426 -2.0028  1.2950
  245MOL0     H32338   7.910  10.305   4.575  1.8037  0.7261  0.0278
  245MOL0     H32339   8.362   9.821   4.592  2.4711  0.3966  0.6552
  245MOL0     H32340   8.565   9.675   4.624 -0.4356  1.7447 -0.9945
  246MOL0     O32341   3.924   6.221  10.693 -0.3134  0.4292 -0.0280
  246MOL0     C32342   3.954   6.105  10.731  0.4866 -0.3769 -0.3866
  246MOL0     O32343   3.889   5.989  10.698  0.5890 -0.3495  0.4555
  246MOL0     C32344   3.761   5.990  10.652  0.4169 -0.2315  0.3972
  246MOL0     C32345   3.733   5.940  10.522 -0.8113 -0.3538  1.0597
  246MOL0     C32346   3.602   5.931  10.480 -0.2979 -0.3495  0.1591
  246MOL0     C32347   3.492   5.965  10.562 -0.6442  0.6527 -0.1341
  246MOL0     O32348   3.357   5.961  10.535  0.8481 -0.3793 -0.4663
  246MOL0     C32349   3.298   5.869  10.442 -0.3441 -0.9554  0.5222
  246MOL0     C32350   3.286   5.728  10.484 -0.3734 -0.6216 -0.2716
  246MOL0     C32351   3.155   5.690  10.538 -0.5396 -0.1904  0.3694
  246MOL0     C32352   3.125   5.758  10.680  0.3618 -0.6337  0.7652
  246MOL0     C32353   3.009   5.706  10.751  1.2138  0.6872 -0.0460
  246MOL0     C32354   2.982   5.752  10.898 -0.5544  0.4464 -0.1727
  246MOL0     C32355   2.934   5.899  10.917 -0.6037  0.0109 -0.4352
  246MOL0     C32356   2.781   5.911  10.902  0.1939 -0.7107 -0.8487
  246MOL0     N32357   2.746   6.052  10.920 -0.4402  1.2462  0.0859
  246MOL0     C32358   2.745   6.148  10.828 -0.6440 -0.1550  0.6245
  246MOL0     C32359   2.689   6.251  10.893 -0.0694 -0.2061  0.4062
  246MOL0     C32360   2.649   6.358  10.794  1.0681  0.1281  0.2533
  246MOL0     C32361   2.500   6.392  10.818 -0.3870 -0.0333 -0.0879
  246MOL0     C32362   2.402   6.304  10.734 -0.8728 -0.5429 -0.3834
  246MOL0     C32363   2.248   6.327  10.765 -0.6210  0.1510 -0.0044
  246MOL0     O32364   2.225   6.463  10.715  0.1750 -0.0010 -0.2484
  246MOL0     C32365   2.101   6.518  10.712 -0.3561 -0.4369  1.0849
  246MOL0     C32366   2.002   6.473  10.798 -0.2956  0.7389 -0.0106
  246MOL0     C32367   1.874   6.528  10.789 -0.2606  0.7829  0.1112
  246MOL0     C32368   1.844   6.629  10.696 -0.0928 -0.5919  0.4886
  246MOL0     C32369   1.713   6.688  10.682  0.2689 -0.4025 -0.9489
  246MOL0     O32370   1.611   6.613  10.728 -0.0793 -0.0689  0.0439
  246MOL0     C32371   1.493   6.633  10.677 -0.0284 -0.4053  0.4497
  246MOL0     C32372   1.392   6.680  10.757 -0.1996  0.2516  0.4886
  246MOL0     C32373   1.265   6.708  10.706  0.1802  0.3150  0.7434
  246MOL0     C32374   1.227   6.669  10.574 -0.5904 -0.2804  0.0109
  246MOL0     O32375   1.106   6.692  10.519 -0.0159  0.2212 -0.7114
  246MOL0     C32376   1.106   6.812  10.448  0.0152 -1.5057 -0.5226
  246MOL0     C32377   0.968   6.867  10.449 -0.1919  0.0019 -0.4833
  246MOL0     C32378   0.914   6.883  10.592  0.0105 -0.0127  0.1233
  246MOL0     C32379   0.780   6.974  10.596  0.5880 -0.1518 -0.2261
  246MOL0     C32380   0.650   6.912  10.543  0.9499  0.0353 -0.1735
  246MOL0     C32381   0.559   7.025  10.499 -0.3497 -0.2948 -0.2128
  246MOL0     C32382   0.470   7.072  10.611  0.2352  0.6365  0.2708
  246MOL0     C32383   0.355   7.162  10.571 -0.4201  0.3438 -0.3865
  246MOL0    Cl32384   0.275   7.237  10.714 -0.0717  0.0345  0.0489
  246MOL0     C32385   1.333   6.606  10.495 -0.2615  0.6680  0.5287
  246MOL0     C32386   1.458   6.581  10.549  0.6593 -1.0937 -0.8529
  246MOL0     O32387   1.706   6.795  10.622 -0.4736  0.1547  0.9250
  246MOL0     C32388   1.952   6.684  10.616 -0.8394 -0.6495 -0.1440
  246MOL0     C32389   2.078   6.626  10.627 -0.0914  0.9890 -0.0952
  246MOL0     N32390   2.665   6.222  11.021 -0.5520 -0.2816 -0.4812
  246MOL0     N32391   2.696   6.101  11.044 -0.4452  0.1844  0.7104
  246MOL0     C32392   3.522   6.006  10.692  0.7198  0.9238 -0.3362
  246MOL0     C32393   3.654   6.018  10.734 -0.2703 -1.0609  0.0034
  246MOL0     C32394   4.081   6.102  10.806 -0.0020  0.0918  0.1233
  246MOL0     C32395   4.124   5.982  10.861 -0.3950 -0.2053 -0.7226
  246MOL0     C32396   4.251   5.977  10.926 -0.2481  0.8125  0.7733
  246MOL0     C32397   4.340   6.084  10.922 -0.6558 -0.6555  0.5815
  246MOL0     O32398   4.469   6.062  10.938  0.5226 -0.9467 -0.6829
  246MOL0     C32399   4.553   6.074  10.816  0.3596 -0.3231 -0.5744
  246MOL0     C32400   4.687   6.026  10.845 -0.2764  0.4632 -0.0291
  246MOL0     C32401   4.705   5.868  10.874  0.2449  0.6547  0.5912
  246MOL0     C32402   4.713   5.767  10.754 -0.1140 -0.2482 -0.2637
  246MOL0     C32403   4.592   5.769  10.677  0.2787 -0.3751  0.7860
  246MOL0     C32404   4.482   5.769  10.614  0.3402  0.7558 -0.6922
  246MOL0     C32405   4.297   6.207  10.866  0.4489  1.2165 -0.0823
  246MOL0     C32406   4.168   6.219  10.819  0.3324  1.0481 -0.6943
  246MOL0     H32407   3.812   5.914  10.453 -1.1911  2.0534 -0.3931
  246MOL0     H32408   3.583   5.892  10.380  2.6377 -1.1900 -0.1711
  246MOL0     H32409   3.365   5.875  10.356 -0.3519  1.2750  0.6003
  246MOL0     H32410   3.196   5.894  10.411 -0.3456 -1.0890  0.4205
  246MOL0     H32411   3.369   5.705  10.552  0.8824 -1.7137 -2.0693
  246MOL0     H32412   3.309   5.658  10.403  1.5956 -2.8256  2.0052
  246MOL0     H32413   3.163   5.585  10.568  0.5751 -0.0322  0.6711
  246MOL0     H32414   3.080   5.695  10.459  0.7114 -1.8779 -1.0122
  246MOL0     H32415   3.216   5.756  10.741  0.7726 -1.6972  0.1411
  246MOL0     H32416   3.107   5.864  10.659  0.4075 -0.5273  1.2392
  246MOL0     H32417   3.029   5.599  10.758  0.4331  0.5821  0.6894
  246MOL0     H32418   2.929   5.713  10.676 -0.0694 -2.3738  0.8885
  246MOL0     H32419   3.066   5.742  10.967 -3.3731 -0.6568  3.3467
  246MOL0     H32420   2.899   5.701  10.947  1.7063  0.3093  3.9958
  246MOL0     H32421   2.960   5.945  11.012  0.6810 -0.6596 -0.4520
  246MOL0     H32422   2.977   5.959  10.836 -0.6178  0.6984  0.0529
  246MOL0     H32423   2.732   5.855  10.982 -2.7230  2.5050 -0.1848
  246MOL0     H32424   2.733   5.871  10.812 -1.5067 -0.1903 -0.2149
  246MOL0     H32425   2.758   6.134  10.721 -2.0527  1.4970  0.1733
  246MOL0     H32426   2.664   6.321  10.692  0.1733 -1.0016  0.5211
  246MOL0     H32427   2.701   6.453  10.814  0.9773  1.3843 -4.3583
  246MOL0     H32428   2.486   6.499  10.803  1.1840  0.4020  1.3170
  246MOL0     H32429   2.478   6.384  10.925  0.1789  1.9160  0.2083
  246MOL0     H32430   2.415   6.331  10.628 -0.3378  1.8100  0.2199
  246MOL0     H32431   2.419   6.201  10.766 -0.7267 -0.5271 -0.4089
  246MOL0     H32432   2.221   6.317  10.870 -1.2252  0.1716 -0.1551
  246MOL0     H32433   2.188   6.256  10.708  1.2195 -2.1184  0.7316
  246MOL0     H32434   2.018   6.391  10.868 -1.8997 -1.5446 -2.1168
  246MOL0     H32435   1.798   6.481  10.850 -0.1668 -0.7260 -0.8815
  246MOL0     H32436   1.414   6.706  10.860  0.8162 -0.3256  0.4348
  246MOL0     H32437   1.194   6.751  10.776 -0.0740 -1.5559  1.6857
  246MOL0     H32438   1.158   6.797  10.352 -1.5239 -2.8134 -1.1903
  246MOL0     H32439   1.179   6.882  10.490 -1.3878 -0.3223  0.0396
  246MOL0     H32440   0.901   6.808  10.386 -1.6096  2.6264 -1.6129
  246MOL0     H32441   0.977   6.964  10.398 -0.0673 -1.1176 -2.7159
  246MOL0     H32442   0.986   6.940  10.651  0.9491 -0.3421 -0.6931
  246MOL0     H32443   0.899   6.794  10.654  0.0696 -0.3780 -0.3860
  246MOL0     H32444   0.769   6.999  10.702  0.5325 -1.6885  0.1620
  246MOL0     H32445   0.801   7.065  10.539 -1.7522 -1.0865 -2.7929
  246MOL0     H32446   0.598   6.857  10.623 -1.3211 -0.8271 -2.1178
  246MOL0     H32447   0.662   6.841  10.461  0.3392  0.2572 -0.4632
  246MOL0     H32448   0.491   6.982  10.425  0.2353  1.0180 -1.5751
  246MOL0     H32449   0.616   7.104  10.450  3.2100 -1.7125  1.2560
  246MOL0     H32450   0.441   6.984  10.670  0.9303  0.1508 -0.0985
  246MOL0     H32451   0.542   7.125  10.674  0.9388 -1.4631  1.3536
  246MOL0     H32452   0.280   7.101  10.519 -2.4837  1.9510  0.5657
  246MOL0     H32453   0.394   7.231  10.495 -2.7694  1.1406 -0.9393
  246MOL0     H32454   1.307   6.579  10.393 -1.1984 -0.3787  1.0194
  246MOL0     H32455   1.534   6.533  10.490  1.4380  0.5809 -1.2834
  246MOL0     H32456   1.944   6.772  10.552  3.1242  0.5304  0.6740
  246MOL0     H32457   2.158   6.658  10.562 -0.8883  0.8539 -1.1806
  246MOL0     H32458   3.439   6.031  10.757 -0.5199 -1.1919 -1.0105
  246MOL0     H32459   3.662   6.049  10.837  1.7596  0.0239 -0.4309
  246MOL0     H32460   4.057   5.897  10.859 -1.6750  0.7933 -0.9748
  246MOL0     H32461   4.294   5.885  10.961  1.9102  1.1610 -0.7361
  246MOL0     H32462   4.567   6.179  10.789 -0.7470 -0.2393 -0.8940
  246MOL0     H32463   4.530   6.037  10.715  5.7847  0.5007 -2.4310
  246MOL0     H32464   4.755   6.038  10.761 -0.3500  2.8572  0.1965
  246MOL0     H32465   4.721   6.076  10.936 -2.8440 -0.1194  1.3478
  246MOL0     H32466   4.616   5.844  10.934 -0.7992  1.1143 -0.7265
  246MOL0     H32467   4.791   5.840  10.936 -0.4519  0.2615  1.4094
  246MOL0     H32468   4.794   5.809  10.693 -2.8598  1.9381 -2.7042
  246MOL0     H32469   4.716   5.662  10.782 -3.1811  0.2858  2.7735
  246MOL0     H32470   4.389   5.755  10.564 -1.7371  0.3686  2.9317
  246MOL0     H32471   4.370   6.287  10.869 -0.1868  1.8265 -0.4112
  246MOL0     H32472   4.129   6.312  10.778  0.1883  0.4950 -1.8601
  247MOL0     O32473  10.702   0.759   0.639 -0.6893  0.0976  0.3479
  247MOL0     C32474  10.758   0.675   0.714 -0.0976 -0.7187 -0.3158
  247MOL0     O32475  10.698   0.570   0.771 -0.4060  0.3752 -0.0378
  247MOL0     C32476  10.567   0.541   0.733 -1.5017 -0.6209  0.0772
  247MOL0     C32477  10.471   0.638   0.705  0.0219  0.2576  0.0785
  247MOL0     C32478  10.352   0.615   0.649 -0.3233  0.9162  0.0912
  247MOL0     C32479  10.311   0.485   0.633 -0.5176 -0.5159  0.2936
  247MOL0     O32480  10.188   0.464   0.585  0.1095  0.3600 -0.4864
  247MOL0     C32481  10.133   0.329   0.580 -0.4386 -0.0058  0.4088
  247MOL0     C32482   9.979   0.336   0.565 -0.1262  0.9196  0.4824
  247MOL0     C32483   9.947   0.392   0.422  0.4143  0.3427  0.5976
  247MOL0     C32484   9.901   0.540   0.432 -0.2106 -0.0895 -0.1428
  247MOL0     C32485   9.889   0.624   0.306 -0.5462 -0.5447 -0.5002
  247MOL0     C32486   9.756   0.604   0.230 -0.5524 -0.9078 -0.4855
  247MOL0     C32487   9.733   0.698   0.114 -0.1571  0.0391  0.2347
  247MOL0     C32488   9.749   0.837   0.166 -0.9612 -0.4055 -0.2557
  247MOL0     N32489   9.695   0.928   0.073  0.7589 -0.9050 -0.0501
  247MOL0     C32490   9.724   0.937  -0.065  0.2090 -0.4249 -0.3675
  247MOL0     C32491   9.650   1.039  -0.110 -0.6280  1.2174  0.5054
  247MOL0     C32492   9.627   1.087  -0.252  0.3737  0.5170  0.5169
  247MOL0     C32493   9.743   1.172  -0.287 -0.5185 -0.2517 -0.0006
  247MOL0     C32494   9.767   1.296  -0.182  0.7009  0.5623  0.3526
  247MOL0     C32495   9.900   1.364  -0.213 -0.5548 -1.3460  0.7347
  247MOL0     O32496  10.009   1.269  -0.207  0.8726 -0.0149 -0.8275
  247MOL0     C32497  10.133   1.293  -0.257 -0.1866  0.9941 -0.4261
  247MOL0     C32498  10.238   1.214  -0.224 -0.3639 -0.1967 -0.8363
  247MOL0     C32499  10.366   1.233  -0.268  0.9755  0.5248  0.3106
  247MOL0     C32500  10.396   1.342  -0.356  0.1579 -0.6221 -0.4716
  247MOL0     C32501  10.527   1.373  -0.416 -0.5536 -0.4558 -0.2242
  247MOL0     O32502  10.534   1.466  -0.514 -1.1089 -0.1879 -0.3768
  247MOL0     C32503  10.654   1.493  -0.573  0.5950 -0.1336 -0.6365
  247MOL0     C32504  10.702   1.395  -0.658  0.4492 -0.6748  0.5391
  247MOL0     C32505  10.816   1.418  -0.737  0.0244 -0.4555  0.3966
  247MOL0     C32506  10.888   1.539  -0.729 -0.4191  0.0654 -0.2970
  247MOL0     O32507  10.995   1.555  -0.811 -0.6810 -0.2977 -0.0041
  247MOL0     C32508  11.112   1.493  -0.752 -0.3095 -0.3559  0.9915
  247MOL0     C32509  11.194   1.608  -0.681 -0.2947  1.1105 -0.2604
  247MOL0     C32510  11.265   1.706  -0.760  0.8174  0.6725  0.6420
  247MOL0     C32511  11.384   1.754  -0.687 -0.9397  0.3206  0.2521
  247MOL0     C32512  11.454   1.866  -0.753 -0.0324  0.2229  0.3171
  247MOL0     C32513  11.568   1.916  -0.660 -0.3056  0.1324 -0.4011
  247MOL0     C32514  11.510   1.990  -0.537 -0.3318 -0.7473 -0.1628
  247MOL0     C32515  11.418   2.115  -0.565 -0.4634  0.3130 -0.0324
  247MOL0    Cl32516  11.519   2.246  -0.647  0.2570 -0.0484  0.2005
  247MOL0     C32517  10.853   1.630  -0.629  0.6575 -0.3005  0.2549
  247MOL0     C32518  10.734   1.602  -0.547 -0.4853  0.6694  0.6008
  247MOL0     O32519  10.626   1.311  -0.377  0.8678  0.1559 -0.3399
  247MOL0     C32520  10.286   1.413  -0.388  0.1442  0.2818  0.4491
  247MOL0     C32521  10.162   1.403  -0.332  0.6797  0.4337  0.4947
  247MOL0     N32522   9.577   1.094   0.002  0.5798 -0.3293 -0.5668
  247MOL0     N32523   9.613   1.035   0.108 -0.4486  0.2361 -0.2653
  247MOL0     C32524  10.397   0.386   0.683 -0.5225 -0.0255 -0.5014
  247MOL0     C32525  10.524   0.413   0.737  1.0023 -0.1312  0.8600
  247MOL0     C32526  10.902   0.681   0.739  0.6586 -1.1634 -0.9645
  247MOL0     C32527  10.963   0.578   0.818 -0.4908 -0.6180  0.1532
  247MOL0     C32528  11.097   0.582   0.844  0.1949  0.0527  0.5038
  247MOL0     C32529  11.174   0.687   0.799  0.0820  0.0020 -0.8874
  247MOL0     O32530  11.313   0.666   0.824 -0.3788  0.2251 -0.3204
  247MOL0     C32531  11.408   0.761   0.771  0.2264  0.5331  0.1479
  247MOL0     C32532  11.427   0.735   0.619  0.2790 -0.5973  0.4675
  247MOL0     C32533  11.465   0.585   0.614 -0.1811  0.1557  0.3468
  247MOL0     C32534  11.592   0.543   0.536 -0.8467 -1.0039 -0.7322
  247MOL0     C32535  11.711   0.606   0.584 -0.4263  0.4380 -0.2946
  247MOL0     C32536  11.815   0.664   0.630  0.0646  0.4054 -0.5684
  247MOL0     C32537  11.113   0.798   0.726 -0.5315 -0.0143  0.0414
  247MOL0     C32538  10.970   0.796   0.710  0.3248  0.2984 -0.3180
  247MOL0     H32539  10.491   0.744   0.719  0.6057 -0.1960  3.2200
  247MOL0     H32540  10.282   0.694   0.626 -1.5118  1.2752  4.2157
  247MOL0     H32541  10.150   0.269   0.670 -0.9852 -2.5604 -1.1089
  247MOL0     H32542  10.178   0.272   0.499 -3.0726 -1.4576 -0.1713
  247MOL0     H32543   9.942   0.400   0.646 -4.6897 -0.1619 -0.4680
  247MOL0     H32544   9.940   0.235   0.580  1.1523  0.0735 -1.5946
  247MOL0     H32545   9.867   0.334   0.374  2.5808  0.3644 -3.5199
  247MOL0     H32546  10.024   0.379   0.345  0.0270 -0.7257  0.3626
  247MOL0     H32547   9.810   0.553   0.493 -0.4355  1.4376 -0.7392
  247MOL0     H32548   9.989   0.584   0.479  0.5873 -1.1377 -0.6282
  247MOL0     H32549   9.979   0.607   0.245  1.0557 -1.6875  1.9956
  247MOL0     H32550   9.901   0.722   0.351 -0.4298 -0.5759 -0.4620
  247MOL0     H32551   9.674   0.620   0.301 -1.5241  1.6057 -2.0603
  247MOL0     H32552   9.753   0.501   0.193 -1.2515 -1.3304  0.6737
  247MOL0     H32553   9.800   0.688   0.028  1.0268  0.0533  1.1279
  247MOL0     H32554   9.634   0.667   0.080  0.2500 -1.2493  0.1581
  247MOL0     H32555   9.852   0.873   0.175 -1.6597  1.6092  0.2370
  247MOL0     H32556   9.704   0.855   0.264 -0.9299 -0.6487 -0.1973
  247MOL0     H32557   9.788   0.880  -0.130  0.7703  1.6501 -1.7523
  247MOL0     H32558   9.534   1.145  -0.256  1.0054  1.6112  1.2244
  247MOL0     H32559   9.619   0.996  -0.311  0.2578  0.3001  0.8621
  247MOL0     H32560   9.727   1.213  -0.387  1.5143 -2.6777 -1.4313
  247MOL0     H32561   9.831   1.108  -0.288 -1.6652 -1.9878 -2.8467
  247MOL0     H32562   9.690   1.373  -0.191  1.4759  1.5778  1.9687
  247MOL0     H32563   9.771   1.256  -0.080  1.0692 -3.1010 -0.9253
  247MOL0     H32564   9.921   1.447  -0.144 -0.1592 -1.2849  0.5444
  247MOL0     H32565   9.883   1.410  -0.311 -0.1423 -1.2154  0.7221
  247MOL0     H32566  10.216   1.133  -0.155 -1.1023  1.1983  0.6378
  247MOL0     H32567  10.437   1.162  -0.228  0.5086  0.3630  0.8600
  247MOL0     H32568  10.646   1.303  -0.668 -2.7344  1.0069  1.1527
  247MOL0     H32569  10.849   1.344  -0.809 -0.0260 -1.6546  1.5577
  247MOL0     H32570  11.174   1.443  -0.828 -0.4728  0.0283  0.6026
  247MOL0     H32571  11.097   1.408  -0.684 -1.1502 -1.1464 -0.1379
  247MOL0     H32572  11.279   1.566  -0.626  0.0401  3.1994  0.9073
  247MOL0     H32573  11.128   1.664  -0.615 -1.7978 -0.1193 -0.6699
  247MOL0     H32574  11.197   1.789  -0.784  2.5773  1.6788 -1.1595
  247MOL0     H32575  11.293   1.656  -0.853 -1.9379  2.0105 -1.0386
  247MOL0     H32576  11.359   1.784  -0.585 -2.4363 -1.7640  0.5644
  247MOL0     H32577  11.452   1.669  -0.673 -1.6111 -0.2396  0.1415
  247MOL0     H32578  11.380   1.946  -0.769 -2.3039 -1.7400  0.5192
  247MOL0     H32579  11.495   1.836  -0.850  1.7611 -2.6685  1.8420
  247MOL0     H32580  11.633   1.981  -0.718  2.1760  1.1742  3.1807
  247MOL0     H32581  11.631   1.832  -0.628 -1.8289 -0.3121  1.6706
  247MOL0     H32582  11.449   1.924  -0.476  0.4988 -1.1659  0.2375
  247MOL0     H32583  11.595   2.020  -0.474  0.4303 -0.1090 -1.4476
  247MOL0     H32584  11.384   2.160  -0.471 -0.1671 -1.4493  0.9588
  247MOL0     H32585  11.328   2.091  -0.622 -1.3033 -0.5642  1.5982
  247MOL0     H32586  10.897   1.729  -0.633  0.0373 -0.0121  0.4545
  247MOL0     H32587  10.698   1.664  -0.466 -0.0666  0.4197  0.9839
  247MOL0     H32588  10.301   1.493  -0.461 -2.1145  0.8370  0.5025
  247MOL0     H32589  10.088   1.475  -0.367 -1.5588 -2.4201 -1.1316
  247MOL0     H32590  10.367   0.282   0.691  2.2564 -1.0384 -2.0376
  247MOL0     H32591  10.574   0.325   0.776 -0.8723 -1.8291 -0.3546
  247MOL0     H32592  10.910   0.489   0.850 -0.0679 -1.5439 -1.5886
  247MOL0     H32593  11.140   0.491   0.885  0.2718 -0.0106  0.2859
  247MOL0     H32594  11.508   0.745   0.813 -0.9791 -0.0493  2.9873
  247MOL0     H32595  11.397   0.866   0.800 -1.4717 -0.0519  1.8063
  247MOL0     H32596  11.333   0.764   0.573  1.0090  1.8972  0.3932
  247MOL0     H32597  11.505   0.799   0.576  0.1589 -1.2891 -0.8250
  247MOL0     H32598  11.374   0.536   0.577 -0.6177  2.1722 -1.4718
  247MOL0     H32599  11.486   0.537   0.710  1.1600 -2.8482 -1.2733
  247MOL0     H32600  11.603   0.437   0.559 -3.4965 -1.5421 -1.5275
  247MOL0     H32601  11.586   0.560   0.428  1.3825 -0.6288 -0.8356
  247MOL0     H32602  11.899   0.727   0.649  0.0481 -0.1688  1.5892
  247MOL0     H32603  11.159   0.886   0.681 -1.1880  0.4752  0.3090
  247MOL0     H32604  10.930   0.880   0.654  1.5822  1.1879  0.0933
  248MOL0     O32605   8.669   6.173   3.268 -0.1549  0.5857  0.2510
  248MOL0     C32606   8.737   6.075   3.248  0.0969 -0.2249 -0.0042
  248MOL0     O32607   8.878   6.067   3.272  0.0349 -0.3369  0.3323
  248MOL0     C32608   8.946   6.188   3.302  0.2275 -0.8638  0.0963
  248MOL0     C32609   9.056   6.223   3.222 -0.0182 -0.1054 -0.3607
  248MOL0     C32610   9.136   6.336   3.252 -0.0344  1.3384 -0.2211
  248MOL0     C32611   9.111   6.428   3.361 -0.4189  0.1331  0.7473
  248MOL0     O32612   9.191   6.537   3.405 -0.0846  0.1547  0.1940
  248MOL0     C32613   9.304   6.565   3.321 -0.5559 -0.9913  0.4860
  248MOL0     C32614   9.419   6.475   3.334  0.2588  0.7195  0.4440
  248MOL0     C32615   9.513   6.485   3.216  0.2321  0.1556 -1.2441
  248MOL0     C32616   9.638   6.393   3.239 -0.2753  0.7105  0.5800
  248MOL0     C32617   9.726   6.400   3.104  0.2149  0.3992  0.6061
  248MOL0     C32618   9.806   6.531   3.088  0.1211 -0.4251  0.1547
  248MOL0     C32619   9.887   6.536   2.958  0.9329  0.3155  1.1612
  248MOL0     C32620  10.003   6.452   2.960  0.9033 -0.2579 -0.7925
  248MOL0     N32621  10.104   6.500   3.058 -0.3084  0.4072  0.3022
  248MOL0     C32622  10.215   6.578   3.040 -0.4488 -0.5391  0.1224
  248MOL0     C32623  10.274   6.586   3.159  0.1024 -0.1415 -0.1907
  248MOL0     C32624  10.395   6.672   3.180 -0.4501  0.1840  0.4279
  248MOL0     C32625  10.440   6.669   3.322  1.1016  0.3429  0.3290
  248MOL0     C32626  10.553   6.758   3.369 -0.3107 -0.3772  1.0715
  248MOL0     C32627  10.679   6.750   3.289 -0.1675 -0.2491  0.9916
  248MOL0     O32628  10.722   6.620   3.271  0.3547  0.1716 -0.0166
  248MOL0     C32629  10.832   6.606   3.190 -0.3528 -0.9775 -0.2225
  248MOL0     C32630  10.806   6.547   3.068  0.2285  0.4334 -0.1520
  248MOL0     C32631  10.909   6.540   2.963  0.4586 -1.0482 -0.4931
  248MOL0     C32632  11.029   6.606   2.984 -0.5364  0.0292 -0.5168
  248MOL0     C32633  11.129   6.609   2.882  0.4188 -0.0360  0.8499
  248MOL0     O32634  11.251   6.653   2.921  0.5337  0.5138 -0.6503
  248MOL0     C32635  11.359   6.625   2.843 -0.2915  0.1065  0.2119
  248MOL0     C32636  11.368   6.512   2.765 -0.2418  0.5144  0.5150
  248MOL0     C32637  11.488   6.479   2.701 -0.8241  0.1807  0.4589
  248MOL0     C32638  11.597   6.564   2.692  0.2416 -0.9216  0.1755
  248MOL0     O32639  11.707   6.543   2.612  0.2490 -0.5196 -0.2665
  248MOL0     C32640  11.771   6.416   2.601 -0.0137  0.1939 -0.7597
  248MOL0     C32641  11.754   6.362   2.456  0.2294 -0.2453  0.4002
  248MOL0     C32642  11.874   6.395   2.372  0.1273  0.1231  0.0491
  248MOL0     C32643  11.847   6.436   2.220  0.1294  0.4009 -0.9244
  248MOL0     C32644  11.964   6.434   2.136  0.1898  0.3271  1.0204
  248MOL0     C32645  11.935   6.460   1.981  0.1317 -1.1429 -0.0875
  248MOL0     C32646  12.069   6.481   1.896  0.6356  0.7187  0.6259
  248MOL0     C32647  12.139   6.607   1.915 -0.5646  0.0941  0.0736
  248MOL0    Cl32648  12.282   6.599   1.812 -0.1882 -0.1534 -0.4138
  248MOL0     C32649  11.580   6.686   2.765 -0.1571 -0.1506 -0.2231
  248MOL0     C32650  11.468   6.715   2.847 -0.1835  0.3701  0.8308
  248MOL0     O32651  11.090   6.581   2.770  0.3205 -0.7136  0.5127
  248MOL0     C32652  11.046   6.676   3.110 -0.0831  0.4152 -0.4286
  248MOL0     C32653  10.947   6.679   3.207 -0.4815  0.5872 -0.8339
  248MOL0     N32654  10.197   6.519   3.258 -0.1008  0.0890  0.1482
  248MOL0     N32655  10.106   6.459   3.191  0.6926  0.6577 -0.3442
  248MOL0     C32656   8.987   6.395   3.428 -0.9960 -0.5412  0.0773
  248MOL0     C32657   8.913   6.283   3.398 -0.2271 -0.2118  0.4812
  248MOL0     C32658   8.669   5.955   3.200 -0.3410 -0.0841 -0.6337
  248MOL0     C32659   8.759   5.853   3.163  0.9330 -0.0765  0.3088
  248MOL0     C32660   8.702   5.739   3.111  0.5618  0.7209  0.4932
  248MOL0     C32661   8.564   5.721   3.105 -0.6662  0.5210  0.6802
  248MOL0     O32662   8.497   5.600   3.076 -0.2865  0.2187 -0.4360
  248MOL0     C32663   8.572   5.499   3.001 -0.2838  0.1669 -0.5961
  248MOL0     C32664   8.497   5.371   2.992 -1.3063 -0.7250  0.1182
  248MOL0     C32665   8.370   5.404   2.904  0.5566  0.1458  0.1170
  248MOL0     C32666   8.283   5.277   2.923  0.9090  0.7543 -0.1194
  248MOL0     C32667   8.185   5.267   2.820  0.1503  0.1987  0.5741
  248MOL0     C32668   8.100   5.273   2.735  0.2131 -0.4372 -0.7323
  248MOL0     C32669   8.480   5.834   3.132  0.4751 -0.4700  0.4601
  248MOL0     C32670   8.532   5.937   3.198  0.3593 -0.0586 -0.6373
  248MOL0     H32671   9.086   6.143   3.155  3.4725 -0.8334  1.7912
  248MOL0     H32672   9.231   6.343   3.199  1.6117 -2.3048  1.8831
  248MOL0     H32673   9.352   6.657   3.356 -0.3661 -1.6378  2.0346
  248MOL0     H32674   9.277   6.573   3.216  0.4453 -1.6382  0.1630
  248MOL0     H32675   9.391   6.370   3.346  0.8289  0.6011  0.7998
  248MOL0     H32676   9.471   6.499   3.427  0.5125  0.0451  0.4832
  248MOL0     H32677   9.554   6.586   3.202  0.1551  0.0965 -1.9779
  248MOL0     H32678   9.458   6.459   3.125  2.3327 -1.5636 -2.1101
  248MOL0     H32679   9.704   6.414   3.323 -0.2208 -1.0500  1.0094
  248MOL0     H32680   9.590   6.295   3.245  0.1066  0.4864  0.0208
  248MOL0     H32681   9.670   6.398   3.010  0.4205  2.3746  0.3909
  248MOL0     H32682   9.805   6.326   3.109  1.1282  1.2656 -0.4882
  248MOL0     H32683   9.872   6.533   3.176  3.2390  1.4726 -2.0214
  248MOL0     H32684   9.734   6.613   3.091 -0.3628 -0.7819 -1.0947
  248MOL0     H32685   9.822   6.496   2.880 -0.0683 -0.5933  2.4193
  248MOL0     H32686   9.921   6.639   2.941  0.1870  0.5704  1.2108
  248MOL0     H32687  10.043   6.450   2.859  0.2205 -0.8627 -1.0507
  248MOL0     H32688   9.978   6.350   2.989 -4.3313  0.0540 -3.0604
  248MOL0     H32689  10.240   6.624   2.945 -0.2487 -0.1955  0.3355
  248MOL0     H32690  10.385   6.773   3.139 -3.4870 -0.1002  0.2744
  248MOL0     H32691  10.457   6.613   3.111 -0.7484 -1.0209  1.1665
  248MOL0     H32692  10.466   6.568   3.353  2.4988  0.9132  1.1170
  248MOL0     H32693  10.354   6.712   3.374  0.0848  2.0643 -2.5355
  248MOL0     H32694  10.523   6.863   3.374  0.9719 -0.0084  1.5689
  248MOL0     H32695  10.587   6.729   3.469  1.7111  0.6397  0.7497
  248MOL0     H32696  10.755   6.808   3.342 -0.1084  0.2501  0.3769
  248MOL0     H32697  10.673   6.804   3.194 -0.7435  0.5156  1.4528
  248MOL0     H32698  10.716   6.486   3.068  0.3913 -0.0896  3.8585
  248MOL0     H32699  10.887   6.484   2.872  0.8329 -1.3849 -0.3808
  248MOL0     H32700  11.288   6.440   2.751 -1.2728  1.8367 -0.7131
  248MOL0     H32701  11.484   6.391   2.637  0.7570 -0.9421  1.8295
  248MOL0     H32702  11.718   6.346   2.667  0.8400 -0.7735 -1.0879
  248MOL0     H32703  11.875   6.436   2.627 -0.7495  0.3693  2.4780
  248MOL0     H32704  11.666   6.404   2.408 -1.6085 -3.7297  0.3965
  248MOL0     H32705  11.746   6.255   2.477  4.0978 -0.1572  3.7678
  248MOL0     H32706  11.940   6.308   2.370 -0.1630 -0.0917 -0.8624
  248MOL0     H32707  11.941   6.466   2.421  0.3814 -1.1232  1.6003
  248MOL0     H32708  11.775   6.367   2.176 -0.2105 -0.8137  1.4108
  248MOL0     H32709  11.795   6.532   2.219 -1.5884 -0.4837  0.2256
  248MOL0     H32710  12.008   6.334   2.141  1.8364  1.0610  2.1442
  248MOL0     H32711  12.038   6.502   2.180  1.5146 -2.1522  2.8503
  248MOL0     H32712  11.867   6.542   1.957  4.7052  2.5898 -1.7129
  248MOL0     H32713  11.878   6.376   1.939 -3.4761  1.3654 -0.6754
  248MOL0     H32714  12.125   6.391   1.921 -1.0477 -0.8657 -1.0368
  248MOL0     H32715  12.038   6.468   1.792 -2.8744 -1.2106  1.7541
  248MOL0     H32716  12.171   6.621   2.019  2.0610  0.5360 -0.7100
  248MOL0     H32717  12.064   6.682   1.888 -2.8292 -1.8249  0.7562
  248MOL0     H32718  11.662   6.758   2.761  0.4933 -0.7849  1.2368
  248MOL0     H32719  11.479   6.799   2.915  0.4985 -0.6472  2.0052
  248MOL0     H32720  11.138   6.730   3.134  0.9873 -2.7627  3.7357
  248MOL0     H32721  10.966   6.747   3.289  1.9123  1.0603 -1.7090
  248MOL0     H32722   8.946   6.451   3.511 -1.5032  2.4138 -2.0462
  248MOL0     H32723   8.824   6.258   3.455 -0.6593 -1.9799 -0.8622
  248MOL0     H32724   8.867   5.855   3.170  1.2413  3.3292 -2.5855
  248MOL0     H32725   8.756   5.654   3.071 -0.4361  0.3061 -0.0202
  248MOL0     H32726   8.663   5.467   3.053 -0.0415 -1.5411 -1.9811
  248MOL0     H32727   8.595   5.537   2.901  0.5992  2.7019  0.4748
  248MOL0     H32728   8.571   5.301   2.952  3.4645  2.0176  3.1003
  248MOL0     H32729   8.464   5.335   3.090  4.6064 -2.8485  1.8003
  248MOL0     H32730   8.392   5.416   2.797  1.4897 -2.8968 -0.1378
  248MOL0     H32731   8.318   5.495   2.934 -0.9279 -0.7118  0.2342
  248MOL0     H32732   8.333   5.180   2.921  0.8212  0.7030  0.0874
  248MOL0     H32733   8.227   5.282   3.017  0.9402  1.6571 -0.1413
  248MOL0     H32734   8.022   5.277   2.661  1.5178  1.6111 -2.0957
  248MOL0     H32735   8.375   5.818   3.109  0.6467 -1.6591  0.4365
  248MOL0     H32736   8.465   6.018   3.227 -2.8369 -1.6482 -2.9397
  249MOL0     O32737  10.778  11.150   8.156 -0.4022 -0.5252 -0.4760
  249MOL0     C32738  10.687  11.227   8.174 -0.0957  0.6776  0.2872
  249MOL0     O32739  10.677  11.357   8.123 -0.8223  0.4569 -0.4215
  249MOL0     C32740  10.766  11.413   8.029 -1.0651 -1.2125  0.4543
  249MOL0     C32741  10.719  11.536   7.987 -0.3245 -0.5059  0.4154
  249MOL0     C32742  10.794  11.615   7.893 -0.5372 -0.0640 -0.4074
  249MOL0     C32743  10.918  11.562   7.838 -0.4845 -0.1077 -0.0614
  249MOL0     O32744  10.982  11.647   7.751  0.8328  0.0676  0.1856
  249MOL0     C32745  11.117  11.641   7.733  0.5202 -0.1302  0.0018
  249MOL0     C32746  11.163  11.783   7.739 -0.2381  0.4348 -0.9492
  249MOL0     C32747  11.320  11.803   7.712 -1.0876 -0.1146  0.6818
  249MOL0     C32748  11.355  11.948   7.738 -0.3781 -0.7324 -0.1151
  249MOL0     C32749  11.510  11.964   7.735  0.5563 -0.1818  0.8576
  249MOL0     C32750  11.572  11.917   7.606 -0.6649  0.2106  1.1034
  249MOL0     C32751  11.715  11.958   7.586 -0.2945 -0.2060  0.3807
  249MOL0     C32752  11.815  11.903   7.689  0.2608 -0.3456  0.2675
  249MOL0     N32753  11.954  11.936   7.659  0.1540  0.6070  0.6498
  249MOL0     C32754  12.033  12.006   7.741  0.4396 -0.7096 -1.2749
  249MOL0     C32755  12.157  11.989   7.685 -0.7301 -0.5102 -0.3046
  249MOL0     C32756  12.292  12.057   7.731  0.0001 -0.8530  0.7564
  249MOL0     C32757  12.304  12.193   7.654  0.0069 -0.1804 -0.5929
  249MOL0     C32758  12.449  12.235   7.652 -0.3784 -0.7639  0.0115
  249MOL0     C32759  12.524  12.169   7.531 -0.0418 -0.1778  0.6366
  249MOL0     O32760  12.641  12.247   7.507 -0.3389  0.3659 -0.4874
  249MOL0     C32761  12.732  12.184   7.420  0.3972  0.6398 -0.0189
  249MOL0     C32762  12.710  12.064   7.330 -0.5169 -0.4457  0.4210
  249MOL0     C32763  12.820  12.016   7.251  0.4080 -0.9209  0.0100
  249MOL0     C32764  12.948  12.080   7.263 -0.4905 -0.6892 -0.1239
  249MOL0     C32765  13.058  12.028   7.175 -0.7593 -0.1585  0.0746
  249MOL0     O32766  13.170  12.097   7.198  0.1248 -0.3811 -0.3739
  249MOL0     C32767  13.273  12.063   7.117  0.1124  0.8866 -0.5749
  249MOL0     C32768  13.296  12.144   7.001  1.0942  0.2832  0.1158
  249MOL0     C32769  13.402  12.108   6.921 -0.9132  0.9276  0.4764
  249MOL0     C32770  13.490  12.003   6.948 -0.3437  0.6206 -0.5532
  249MOL0     O32771  13.594  11.989   6.862 -0.2711 -1.0886  0.1155
  249MOL0     C32772  13.685  11.879   6.878  0.5915 -0.4773  0.3265
  249MOL0     C32773  13.811  11.881   6.800  0.0318  0.2629 -0.0864
  249MOL0     C32774  13.901  12.004   6.821 -0.3909  0.6413 -0.5380
  249MOL0     C32775  13.939  12.019   6.969 -0.4717 -0.3729 -0.1345
  249MOL0     C32776  14.047  12.123   7.017  0.6710 -1.2448  0.2608
  249MOL0     C32777  14.193  12.094   6.993  1.5219  0.6002 -0.8401
  249MOL0     C32778  14.223  11.976   7.083 -0.4270  0.5197  0.1791
  249MOL0     C32779  14.375  11.954   7.076  0.4719  0.3802 -0.5917
  249MOL0    Cl32780  14.429  11.783   7.114  0.0002  0.7066  0.0526
  249MOL0     C32781  13.468  11.921   7.059 -0.0612  0.5633  0.0714
  249MOL0     C32782  13.359  11.953   7.147 -0.4852 -0.5466  0.5925
  249MOL0     O32783  13.038  11.945   7.087  0.1179  0.4159 -0.0066
  249MOL0     C32784  12.970  12.194   7.351  0.3379 -0.3366 -0.7838
  249MOL0     C32785  12.862  12.239   7.425 -0.2391 -0.7538  0.9562
  249MOL0     N32786  12.143  11.920   7.567 -0.9167 -0.2069  0.6153
  249MOL0     N32787  12.024  11.880   7.555 -0.7877  0.4974 -0.2214
  249MOL0     C32788  10.964  11.434   7.884 -0.1831  0.0473 -0.0401
  249MOL0     C32789  10.888  11.360   7.978  1.1909 -0.2435 -1.0080
  249MOL0     C32790  10.571  11.170   8.236  0.3950  0.4406  0.7796
  249MOL0     C32791  10.461  11.254   8.248 -0.1224  0.5604 -0.3307
  249MOL0     C32792  10.354  11.213   8.331 -0.6152  0.5012  0.7525
  249MOL0     C32793  10.341  11.078   8.382 -0.0742 -0.9886  0.3989
  249MOL0     O32794  10.242  11.021   8.446  0.2454  0.6546 -0.9980
  249MOL0     C32795  10.138  11.099   8.507 -0.3210  0.5201 -0.0072
  249MOL0     C32796  10.008  11.084   8.435  0.0699  1.0408  0.6786
  249MOL0     C32797   9.890  11.124   8.511 -0.5272  0.7179  0.0899
  249MOL0     C32798   9.766  11.080   8.427  0.6989  0.2008  0.0689
  249MOL0     C32799   9.640  11.124   8.488  0.5914  0.1102 -1.6215
  249MOL0     C32800   9.533  11.168   8.532 -0.7729  0.5221  0.3265
  249MOL0     C32801  10.448  10.998   8.364  0.3071  0.3628  0.0071
  249MOL0     C32802  10.560  11.041   8.287 -0.4964 -0.9618  0.7105
  249MOL0     H32803  10.625  11.576   8.024 -0.5850  1.6296 -2.1942
  249MOL0     H32804  10.770  11.716   7.862 -0.9897 -0.3543 -1.0260
  249MOL0     H32805  11.147  11.595   7.639  2.1094 -2.6414  1.5937
  249MOL0     H32806  11.162  11.585   7.816 -0.9410 -2.1356 -0.4927
  249MOL0     H32807  11.140  11.831   7.834 -2.4538  1.3924 -1.9213
  249MOL0     H32808  11.094  11.844   7.680 -2.3564  1.3409  2.1935
  249MOL0     H32809  11.336  11.769   7.609 -0.7863 -1.2393  1.0780
  249MOL0     H32810  11.384  11.747   7.781  0.0719 -1.7809 -1.5975
  249MOL0     H32811  11.315  12.000   7.651 -0.8362 -2.6356 -1.0961
  249MOL0     H32812  11.307  11.969   7.834  1.1588 -0.0443  0.5254
  249MOL0     H32813  11.558  11.904   7.813  1.3597 -1.5003 -0.5883
  249MOL0     H32814  11.532  12.070   7.754  1.0340  0.1698 -1.3712
  249MOL0     H32815  11.513  11.970   7.530 -1.2288  1.8598  2.6206
  249MOL0     H32816  11.565  11.809   7.590 -1.7657  0.0113  2.6524
  249MOL0     H32817  11.742  11.934   7.483  1.9797  0.6483  0.7209
  249MOL0     H32818  11.712  12.068   7.590  2.1974 -0.0716 -0.2722
  249MOL0     H32819  11.807  11.794   7.696  1.0408 -0.3253  2.0343
  249MOL0     H32820  11.782  11.936   7.788 -0.2821 -1.4545  0.4647
  249MOL0     H32821  11.996  12.052   7.832 -1.4062 -2.5090 -1.0257
  249MOL0     H32822  12.382  11.997   7.718  0.1450 -0.5330  0.2614
  249MOL0     H32823  12.286  12.094   7.834 -0.2084  0.3335  0.3311
  249MOL0     H32824  12.247  12.266   7.712  0.8236 -2.4714  3.4947
  249MOL0     H32825  12.262  12.185   7.553  1.2037 -1.4828 -1.0221
  249MOL0     H32826  12.448  12.343   7.632  0.7687 -0.3565  1.8928
  249MOL0     H32827  12.492  12.214   7.750 -0.1290  0.8898  0.2878
  249MOL0     H32828  12.465  12.177   7.439  0.6567 -1.0553  0.1083
  249MOL0     H32829  12.546  12.063   7.541 -2.4747 -1.2614 -3.1282
  249MOL0     H32830  12.620  12.004   7.344  1.1675 -2.6101  2.8424
  249MOL0     H32831  12.797  11.930   7.189  2.1090 -2.1699  1.0091
  249MOL0     H32832  13.230  12.222   6.966 -3.3088 -2.3752  1.6137
  249MOL0     H32833  13.422  12.179   6.841  2.2184  0.0043  0.3156
  249MOL0     H32834  13.632  11.783   6.867 -1.2024  0.0789  3.1889
  249MOL0     H32835  13.719  11.871   6.982 -0.8842 -0.4747  0.8224
  249MOL0     H32836  13.776  11.869   6.697 -0.9830 -1.2716  0.4067
  249MOL0     H32837  13.863  11.787   6.822 -1.3580 -0.1772  1.5175
  249MOL0     H32838  13.851  12.100   6.808 -1.8698 -0.0609 -0.2693
  249MOL0     H32839  13.998  12.000   6.771 -0.1357 -0.2291 -0.0078
  249MOL0     H32840  13.844  12.046   7.017 -0.1323  2.1973 -0.8126
  249MOL0     H32841  13.967  11.918   7.002 -0.6995 -0.5003 -0.3283
  249MOL0     H32842  14.032  12.124   7.125  0.9396  2.9506  0.4355
  249MOL0     H32843  14.023  12.221   6.974  1.9935 -0.2317  1.7008
  249MOL0     H32844  14.258  12.181   7.003 -1.3655  2.8902 -0.5448
  249MOL0     H32845  14.208  12.053   6.892  1.0547 -0.1665 -0.6111
  249MOL0     H32846  14.199  11.992   7.188  1.2215  0.6223  0.5680
  249MOL0     H32847  14.165  11.887   7.056  1.7110 -0.6791 -0.7163
  249MOL0     H32848  14.420  12.024   7.147 -0.4141 -0.4367  0.8390
  249MOL0     H32849  14.407  11.981   6.975  0.4917 -0.2089 -0.7456
  249MOL0     H32850  13.518  11.828   7.085  1.2823  1.3708  0.4794
  249MOL0     H32851  13.338  11.900   7.240 -2.5804 -1.5456 -0.3939
  249MOL0     H32852  13.068  12.240   7.355 -1.0317  2.7609  0.0790
  249MOL0     H32853  12.869  12.318   7.500 -0.0594  0.8154 -0.6414
  249MOL0     H32854  11.058  11.401   7.840 -0.6531  1.1550 -2.0066
  249MOL0     H32855  10.926  11.264   8.011  2.7504  0.1282 -1.5974
  249MOL0     H32856  10.454  11.357   8.215 -1.1196  0.5412 -0.1962
  249MOL0     H32857  10.285  11.294   8.352  3.3263  3.2257  4.9767
  249MOL0     H32858  10.161  11.206   8.505  0.3020  0.3984  0.3726
  249MOL0     H32859  10.128  11.071   8.612  2.4466 -0.8845 -0.0295
  249MOL0     H32860  10.014  11.142   8.343  0.8048 -0.9186 -0.5685
  249MOL0     H32861   9.987  10.981   8.405  0.2058  0.1714  3.2971
  249MOL0     H32862   9.892  11.233   8.527  4.7267  0.8165  0.3671
  249MOL0     H32863   9.899  11.081   8.611 -0.7044 -0.0901 -0.2331
  249MOL0     H32864   9.768  11.123   8.326  0.9532  0.9275  0.3723
  249MOL0     H32865   9.766  10.973   8.406 -0.6989  0.3895 -0.9796
  249MOL0     H32866   9.445  11.207   8.579 -0.2542  2.2950 -0.1021
  249MOL0     H32867  10.436  10.894   8.394 -3.6547  0.9149  0.9454
  249MOL0     H32868  10.638  10.966   8.276  0.0015 -0.2218 -1.1407
  250MOL0     O32869   9.922   7.903   0.110 -0.4323  0.0677 -0.6577
  250MOL0     C32870   9.968   7.995   0.042  0.5266 -0.2476 -1.0295
  250MOL0     O32871   9.916   8.037  -0.076 -0.0742 -0.3569  0.1114
  250MOL0     C32872   9.803   7.974  -0.112 -0.1998 -0.1337 -0.2800
  250MOL0     C32873   9.688   7.994  -0.037 -0.0122  0.2658  0.3300
  250MOL0     C32874   9.576   7.925  -0.085  0.3669 -0.6165  0.9549
  250MOL0     C32875   9.576   7.843  -0.205  0.5131  0.8992  0.0791
  250MOL0     O32876   9.453   7.818  -0.264  0.0292  0.2638 -0.1544
  250MOL0     C32877   9.365   7.745  -0.181  0.4153  1.4175 -0.0045
  250MOL0     C32878   9.239   7.713  -0.264 -0.0576  0.1193 -0.6815
  250MOL0     C32879   9.131   7.621  -0.201 -0.8159  0.3603 -1.1898
  250MOL0     C32880   9.103   7.652  -0.048 -0.5029 -0.1220  0.1093
  250MOL0     C32881   8.975   7.583  -0.007 -0.0414  0.8819 -0.0597
  250MOL0     C32882   8.997   7.424   0.001  1.1665  0.7093 -0.1167
  250MOL0     C32883   8.856   7.363  -0.011 -0.2198 -0.3322 -0.2813
  250MOL0     C32884   8.865   7.213   0.021  0.1184  1.0045  0.5055
  250MOL0     N32885   8.890   7.192   0.169 -0.3701 -0.1150 -0.6939
  250MOL0     C32886   9.003   7.165   0.249  0.0322  0.2844  0.2541
  250MOL0     C32887   8.969   7.176   0.378 -0.6207  0.9514  0.6441
  250MOL0     C32888   9.082   7.181   0.470  0.7867 -0.9235 -0.3327
  250MOL0     C32889   9.117   7.036   0.522  0.5670 -0.3167  0.4182
  250MOL0     C32890   9.081   7.006   0.670  1.1936 -0.5852  0.2904
  250MOL0     C32891   8.930   7.029   0.710 -0.4687  0.6124  0.1343
  250MOL0     O32892   8.932   7.040   0.858  0.2722  0.5661  0.0974
  250MOL0     C32893   8.818   7.050   0.939 -0.5780 -0.3913  1.2218
  250MOL0     C32894   8.830   7.075   1.074 -0.3956 -0.9785 -0.2359
  250MOL0     C32895   8.706   7.090   1.150  0.5607  0.2879 -1.1413
  250MOL0     C32896   8.584   7.069   1.092  0.4291 -0.6279 -1.0437
  250MOL0     C32897   8.451   7.081   1.166 -1.2083 -0.0023  0.8282
  250MOL0     O32898   8.341   7.073   1.084  0.1266  0.2755  0.3879
  250MOL0     C32899   8.221   7.039   1.143 -0.5840  0.9552  0.2426
  250MOL0     C32900   8.206   6.903   1.176 -0.1589 -0.0407  0.1272
  250MOL0     C32901   8.090   6.851   1.234  0.0372  0.0059  0.6025
  250MOL0     C32902   7.982   6.940   1.245 -0.3383 -0.1895  0.2089
  250MOL0     O32903   7.859   6.898   1.289 -0.5823  0.6967  0.1632
  250MOL0     C32904   7.805   6.792   1.209  0.4865  0.3188 -0.1332
  250MOL0     C32905   7.716   6.697   1.294 -0.9423 -0.2721  1.4254
  250MOL0     C32906   7.591   6.755   1.350 -0.2949 -0.4681  1.2438
  250MOL0     C32907   7.511   6.632   1.416 -0.0560 -0.1289 -0.7300
  250MOL0     C32908   7.397   6.693   1.510 -0.3078  0.5614 -0.1480
  250MOL0     C32909   7.321   6.575   1.567  0.3280 -1.0262  0.2297
  250MOL0     C32910   7.199   6.624   1.651  0.5006 -0.1315  0.1872
  250MOL0     C32911   7.217   6.703   1.771  0.0005  0.2645  0.7563
  250MOL0    Cl32912   7.118   6.641   1.910 -0.0428  0.0457  0.1085
  250MOL0     C32913   7.987   7.074   1.202 -0.4663  0.1019  0.8092
  250MOL0     C32914   8.107   7.118   1.136 -0.1104  0.5483 -0.4743
  250MOL0     O32915   8.451   7.077   1.287 -0.2136 -0.0218 -0.3444
  250MOL0     C32916   8.573   7.047   0.953 -0.3957 -0.1387 -0.0321
  250MOL0     C32917   8.691   7.043   0.876  0.2353  1.2239 -0.2483
  250MOL0     N32918   8.833   7.201   0.383 -0.1753 -1.1633  0.0960
  250MOL0     N32919   8.788   7.201   0.265 -0.3313 -0.7023 -1.4471
  250MOL0     C32920   9.687   7.818  -0.275  0.2510 -0.1217  0.7607
  250MOL0     C32921   9.808   7.884  -0.224  0.0438 -0.1920  0.4296
  250MOL0     C32922  10.116   8.019   0.058 -0.4969 -0.2414 -0.0217
  250MOL0     C32923  10.164   8.142   0.002 -0.2916  0.5058  0.6369
  250MOL0     C32924  10.296   8.169  -0.017  0.1821 -1.4157 -0.0468
  250MOL0     C32925  10.387   8.075   0.037 -1.0845 -0.6493  0.7000
  250MOL0     O32926  10.518   8.104   0.029  0.4049 -0.2313 -0.6911
  250MOL0     C32927  10.612   7.999   0.054  0.4425 -0.6534  0.1757
  250MOL0     C32928  10.739   8.065  -0.012 -0.8339 -0.2110 -0.1651
  250MOL0     C32929  10.845   7.952  -0.021  0.9060 -0.3754  0.1468
  250MOL0     C32930  10.987   7.990  -0.005  0.1760  1.2718 -0.0469
  250MOL0     C32931  11.029   8.017   0.138 -0.7364 -0.6758  0.0123
  250MOL0     C32932  11.037   8.051   0.255  1.0468  0.1549  0.2119
  250MOL0     C32933  10.340   7.954   0.096  0.4370 -0.2376  0.2714
  250MOL0     C32934  10.206   7.923   0.104 -0.1929 -0.4764 -1.3766
  250MOL0     H32935   9.686   8.049   0.057  1.8725 -0.2677  0.7268
  250MOL0     H32936   9.482   7.950  -0.037  1.2377 -1.1507  3.0044
  250MOL0     H32937   9.324   7.799  -0.095  2.2489  1.2963  0.9737
  250MOL0     H32938   9.409   7.654  -0.141 -0.5238  1.2048  0.5770
  250MOL0     H32939   9.267   7.670  -0.360 -2.2572 -3.8697  0.2690
  250MOL0     H32940   9.186   7.809  -0.255 -0.6921 -0.3822  1.8527
  250MOL0     H32941   9.147   7.513  -0.211 -4.7068 -0.9053  2.6354
  250MOL0     H32942   9.037   7.622  -0.258 -0.5884 -1.2370 -1.6578
  250MOL0     H32943   9.179   7.606   0.016  1.5401  0.5880 -1.6880
  250MOL0     H32944   9.093   7.760  -0.033 -0.7156  0.4895 -3.6048
  250MOL0     H32945   8.892   7.616  -0.069  0.9861  3.3534 -0.2482
  250MOL0     H32946   8.941   7.613   0.093 -0.9675 -0.1531 -0.0451
  250MOL0     H32947   9.056   7.395   0.089  0.7334 -1.4673 -0.5077
  250MOL0     H32948   9.051   7.383  -0.084 -0.0658  0.5000 -0.8179
  250MOL0     H32949   8.780   7.412   0.050  1.2699 -1.1074  2.3736
  250MOL0     H32950   8.825   7.366  -0.116  2.6725 -1.1501 -1.2586
  250MOL0     H32951   8.943   7.162  -0.035 -2.0328  0.7400 -2.5407
  250MOL0     H32952   8.771   7.161   0.001  0.5397  1.1366 -2.2032
  250MOL0     H32953   9.104   7.163   0.210 -0.2836  0.7900 -0.6054
  250MOL0     H32954   9.061   7.240   0.560  1.6250 -1.2148  0.0699
  250MOL0     H32955   9.166   7.236   0.426  0.7329  0.0643  0.7310
  250MOL0     H32956   9.225   7.023   0.514  0.8747  2.2732 -0.8875
  250MOL0     H32957   9.069   6.963   0.457 -1.7986 -0.0121  1.7109
  250MOL0     H32958   9.104   6.903   0.699 -2.9713 -2.8580 -3.2929
  250MOL0     H32959   9.145   7.070   0.732  1.5964 -1.0214  0.3400
  250MOL0     H32960   8.866   6.943   0.687 -1.2074  0.7594  1.5366
  250MOL0     H32961   8.887   7.112   0.654 -2.2444 -1.4653 -1.7793
  250MOL0     H32962   8.921   7.105   1.125  0.0994  0.5127 -1.9031
  250MOL0     H32963   8.716   7.101   1.258 -1.4194 -1.6434 -0.6963
  250MOL0     H32964   8.285   6.828   1.170  1.0367  1.0942  0.9861
  250MOL0     H32965   8.088   6.752   1.278 -0.3225  0.5693  1.9037
  250MOL0     H32966   7.882   6.736   1.156 -0.9568  0.8498 -3.0548
  250MOL0     H32967   7.742   6.836   1.130 -1.1088 -1.9870 -0.2306
  250MOL0     H32968   7.778   6.680   1.382 -1.3428  1.9599  2.1954
  250MOL0     H32969   7.695   6.601   1.246 -0.9375  1.7879 -3.2420
  250MOL0     H32970   7.538   6.793   1.263 -1.5812 -1.7535  1.4234
  250MOL0     H32971   7.612   6.825   1.432  1.6284  0.1992  0.2349
  250MOL0     H32972   7.462   6.580   1.333 -0.2634  1.9550 -1.9850
  250MOL0     H32973   7.576   6.557   1.461 -1.0546 -1.8783 -2.0607
  250MOL0     H32974   7.321   6.747   1.453 -1.0435 -0.7393 -0.4243
  250MOL0     H32975   7.437   6.759   1.589 -1.5166  1.5945 -0.3734
  250MOL0     H32976   7.384   6.506   1.624  0.2970 -0.8729  0.4517
  250MOL0     H32977   7.281   6.523   1.480  1.9149 -1.3005 -0.3818
  250MOL0     H32978   7.123   6.679   1.595 -0.4807 -2.0279 -0.4361
  250MOL0     H32979   7.148   6.533   1.684 -1.1749  0.8840  0.5234
  250MOL0     H32980   7.197   6.807   1.748 -1.3272 -0.2087 -0.3701
  250MOL0     H32981   7.313   6.698   1.824 -0.4695 -1.4264  1.5557
  250MOL0     H32982   7.899   7.135   1.221  0.1795  1.4499 -0.3761
  250MOL0     H32983   8.110   7.222   1.104  1.6701  0.7032  0.1026
  250MOL0     H32984   8.477   7.043   0.903  0.2396 -1.6570 -1.2328
  250MOL0     H32985   8.695   7.018   0.770 -0.3223 -2.2477  0.4478
  250MOL0     H32986   9.687   7.768  -0.371 -0.1715 -0.8033  1.1139
  250MOL0     H32987   9.899   7.877  -0.283 -0.5244 -2.3291 -0.2888
  250MOL0     H32988  10.096   8.222  -0.026 -0.9256  0.0864  0.9322
  250MOL0     H32989  10.307   8.264  -0.068 -3.1840 -1.0531 -0.3316
  250MOL0     H32990  10.581   7.908   0.001 -4.4485  1.1992 -0.6600
  250MOL0     H32991  10.631   7.975   0.159 -0.9251  0.7398  0.7697
  250MOL0     H32992  10.728   8.084  -0.119 -1.7912 -1.1533 -0.2503
  250MOL0     H32993  10.770   8.154   0.044  0.5329  0.9185 -2.5842
  250MOL0     H32994  10.837   7.908  -0.121 -0.4536 -3.9135  1.6352
  250MOL0     H32995  10.819   7.868   0.044  0.7632 -2.3272 -2.2947
  250MOL0     H32996  11.057   7.914  -0.041 -1.2334 -1.0119  1.6924
  250MOL0     H32997  11.001   8.083  -0.061  0.4599  3.2580  3.0367
  250MOL0     H32998  11.033   8.089   0.355 -1.1903 -0.9405  0.6107
  250MOL0     H32999  10.414   7.881   0.128  2.6717  1.9077  0.3556
  250MOL0     H33000  10.185   7.823   0.141 -1.6886 -0.5323 -2.3343
  251MOL0     O33001   7.218   1.210   6.901 -1.0183 -0.4965  0.2123
  251MOL0     C33002   7.199   1.212   7.019  0.2024 -0.5118 -0.6307
  251MOL0     O33003   7.145   1.111   7.092  0.1658 -0.0350 -0.1944
  251MOL0     C33004   7.126   0.990   7.032  1.5364  0.5484 -0.4294
  251MOL0     C33005   7.228   0.908   6.986 -0.0351 -0.8774  0.6777
  251MOL0     C33006   7.193   0.784   6.923 -0.1169  1.9276 -0.5016
  251MOL0     C33007   7.067   0.736   6.897 -0.3778 -0.1347  1.1492
  251MOL0     O33008   7.047   0.607   6.858  0.5175 -0.2245  1.0574
  251MOL0     C33009   6.911   0.574   6.825 -1.3384 -0.1350 -0.0060
  251MOL0     C33010   6.908   0.431   6.776 -0.0459 -0.1273 -0.3668
  251MOL0     C33011   6.992   0.375   6.657 -0.1421 -0.0851  0.5624
  251MOL0     C33012   6.983   0.456   6.532  0.1793  0.7549  0.7339
  251MOL0     C33013   7.088   0.414   6.425  0.4254 -0.0657  0.0549
  251MOL0     C33014   7.050   0.271   6.363 -0.2250 -0.7083 -0.7927
  251MOL0     C33015   6.930   0.280   6.263  1.4263  0.0517 -0.2438
  251MOL0     C33016   6.874   0.140   6.230  0.5763  0.6867 -0.1515
  251MOL0     N33017   6.804   0.076   6.340  0.6591  0.9324  0.2089
  251MOL0     C33018   6.857   0.024   6.457 -0.2624  0.1151 -0.1076
  251MOL0     C33019   6.748  -0.010   6.537 -0.1254 -0.7304  0.7901
  251MOL0     C33020   6.726  -0.064   6.677 -0.5212 -0.3864 -0.0264
  251MOL0     C33021   6.660   0.032   6.779  0.4251 -0.3750  0.1072
  251MOL0     C33022   6.601  -0.031   6.903  0.0131  2.0760  0.4833
  251MOL0     C33023   6.625   0.034   7.044  0.0191  0.0495  0.3044
  251MOL0     O33024   6.522   0.124   7.081  0.0697  0.2025  0.1448
  251MOL0     C33025   6.525   0.176   7.206  0.3887 -0.0713  0.0271
  251MOL0     C33026   6.404   0.225   7.260 -1.1927 -0.1819  0.1184
  251MOL0     C33027   6.401   0.303   7.374 -0.2130 -0.3246 -0.1817
  251MOL0     C33028   6.520   0.336   7.446 -0.8951  0.5268  1.0470
  251MOL0     C33029   6.520   0.423   7.571 -0.9502 -0.0749  0.1755
  251MOL0     O33030   6.404   0.482   7.594 -0.5205 -0.7706  0.0652
  251MOL0     C33031   6.363   0.532   7.719 -0.2268 -0.2544  0.2618
  251MOL0     C33032   6.450   0.585   7.822 -0.0049 -0.3648 -0.4036
  251MOL0     C33033   6.390   0.634   7.942 -0.5198 -0.4894  0.0136
  251MOL0     C33034   6.254   0.630   7.958 -0.9097 -0.1498 -0.0442
  251MOL0     O33035   6.196   0.687   8.066  0.1706 -0.7601  0.3402
  251MOL0     C33036   6.271   0.683   8.193  0.4219 -0.0995 -0.4187
  251MOL0     C33037   6.172   0.723   8.306 -0.1501  0.4542  0.1349
  251MOL0     C33038   6.136   0.872   8.281  0.3936 -0.0376 -0.1811
  251MOL0     C33039   6.034   0.916   8.391  0.4240 -0.2443 -0.6765
  251MOL0     C33040   5.967   1.042   8.356 -0.0894 -0.2818  0.6322
  251MOL0     C33041   5.868   1.076   8.465  0.1940 -0.8255  0.1110
  251MOL0     C33042   5.824   1.224   8.468 -0.2261 -0.2679  0.0681
  251MOL0     C33043   5.701   1.250   8.557  0.4564  0.2807 -0.4273
  251MOL0    Cl33044   5.738   1.249   8.726 -0.1169 -0.2033 -0.1261
  251MOL0     C33045   6.176   0.586   7.852 -0.5312 -0.5348 -0.2172
  251MOL0     C33046   6.232   0.549   7.728 -0.2101  1.9197 -0.9465
  251MOL0     O33047   6.619   0.429   7.638  0.5038 -0.4675 -0.5130
  251MOL0     C33048   6.642   0.276   7.396  0.9757  0.4685  0.2052
  251MOL0     C33049   6.647   0.196   7.278  0.7815  0.1844 -0.3082
  251MOL0     N33050   6.636   0.024   6.454  0.6464 -0.1454  0.0282
  251MOL0     N33051   6.671   0.073   6.345  0.4707  0.0463 -0.0483
  251MOL0     C33052   6.970   0.836   6.930  0.0007  0.1676 -0.0328
  251MOL0     C33053   6.996   0.953   7.000  0.0451  0.2063 -0.0100
  251MOL0     C33054   7.207   1.341   7.097  0.2215 -0.1571 -0.7280
  251MOL0     C33055   7.143   1.358   7.228  0.5137 -0.2977 -0.5132
  251MOL0     C33056   7.161   1.475   7.298  0.0037  0.4350  0.2456
  251MOL0     C33057   7.236   1.581   7.247 -0.0386  0.0600  0.0536
  251MOL0     O33058   7.247   1.687   7.330  0.2657 -0.2133  0.3050
  251MOL0     C33059   7.294   1.813   7.277 -0.0439 -1.0151  0.7943
  251MOL0     C33060   7.274   1.930   7.371  0.1572 -0.2938 -0.2641
  251MOL0     C33061   7.354   1.916   7.500  0.2913 -0.2494 -0.1772
  251MOL0     C33062   7.338   2.063   7.567  0.2966  0.3154  0.8972
  251MOL0     C33063   7.473   2.120   7.573 -0.2760 -0.2923  0.5786
  251MOL0     C33064   7.585   2.174   7.583  0.3465 -0.5134  0.4520
  251MOL0     C33065   7.299   1.564   7.122  0.2530  0.2636  0.5575
  251MOL0     C33066   7.276   1.448   7.043 -0.3598  0.0482 -0.9645
  251MOL0     H33067   7.330   0.944   6.992  0.3007 -1.6955  0.1906
  251MOL0     H33068   7.284   0.731   6.897  2.5794  3.5497  4.3977
  251MOL0     H33069   6.867   0.651   6.761  3.2012  0.9121 -2.2757
  251MOL0     H33070   6.867   0.584   6.924 -2.8700 -0.7917 -0.6056
  251MOL0     H33071   6.802   0.408   6.763  0.2732 -2.0177 -0.0702
  251MOL0     H33072   6.951   0.373   6.859  0.5369  3.6373  2.2412
  251MOL0     H33073   6.958   0.274   6.632  1.8071 -0.2907 -1.6720
  251MOL0     H33074   7.099   0.371   6.680  0.1525  1.0616 -0.4910
  251MOL0     H33075   6.881   0.460   6.493  0.7762 -1.4045 -1.2699
  251MOL0     H33076   7.002   0.557   6.570 -1.8541  1.0884  0.9781
  251MOL0     H33077   7.190   0.414   6.464 -0.2436  1.7044  2.0227
  251MOL0     H33078   7.092   0.489   6.346 -0.7219  0.0069  0.0465
  251MOL0     H33079   7.029   0.210   6.451 -4.0592  0.6927 -0.5510
  251MOL0     H33080   7.141   0.233   6.315  1.2142 -0.6205  1.6926
  251MOL0     H33081   6.849   0.341   6.302 -0.7989  0.6743 -5.1228
  251MOL0     H33082   6.955   0.332   6.170 -1.6577  1.2681 -0.4817
  251MOL0     H33083   6.961   0.082   6.199  1.5573  0.5571  2.5310
  251MOL0     H33084   6.801   0.140   6.149  0.8310 -2.8067 -0.5467
  251MOL0     H33085   6.965   0.025   6.471  0.0908  0.8721 -2.4181
  251MOL0     H33086   6.815  -0.105   6.726 -1.0342 -3.2817 -1.3126
  251MOL0     H33087   6.660  -0.151   6.663  1.7657 -2.2359 -0.0630
  251MOL0     H33088   6.575   0.085   6.736  2.0300  1.5971 -0.7785
  251MOL0     H33089   6.736   0.107   6.803  0.4687 -1.2462  3.1331
  251MOL0     H33090   6.494  -0.047   6.887  0.7436 -0.9220 -2.7158
  251MOL0     H33091   6.636  -0.135   6.907 -3.2209  0.9161  1.3875
  251MOL0     H33092   6.714   0.092   7.020 -2.0524  3.3823  0.1004
  251MOL0     H33093   6.645  -0.035   7.127  1.2666 -0.0793 -0.0767
  251MOL0     H33094   6.313   0.209   7.203  0.9280 -2.7727 -2.8857
  251MOL0     H33095   6.308   0.330   7.422 -1.5916 -2.8507 -1.2067
  251MOL0     H33096   6.558   0.585   7.816  0.1445  0.5127  1.4573
  251MOL0     H33097   6.453   0.667   8.024  0.8290  1.7216 -1.7929
  251MOL0     H33098   6.348   0.759   8.177 -0.7763  1.0654 -0.7744
  251MOL0     H33099   6.316   0.584   8.202 -1.9037 -1.1609  0.2363
  251MOL0     H33100   6.224   0.698   8.398 -1.3771 -0.8584  0.4998
  251MOL0     H33101   6.080   0.663   8.305 -0.4617  0.8062  2.7032
  251MOL0     H33102   6.087   0.882   8.184 -1.4258  0.7638  0.7599
  251MOL0     H33103   6.225   0.935   8.290 -0.2852  0.6418  3.7020
  251MOL0     H33104   5.959   0.836   8.402 -0.7135  0.8386 -0.2662
  251MOL0     H33105   6.090   0.927   8.483  0.2536 -2.2690 -0.2914
  251MOL0     H33106   5.908   1.058   8.265 -1.8778  3.3106  2.2091
  251MOL0     H33107   6.041   1.122   8.344 -0.2529 -0.1170  0.7162
  251MOL0     H33108   5.908   1.071   8.567  1.4574  1.5727 -0.1842
  251MOL0     H33109   5.778   1.014   8.467 -0.4663  0.1179  0.4575
  251MOL0     H33110   5.901   1.295   8.499  0.0736 -0.1393 -0.9239
  251MOL0     H33111   5.810   1.251   8.362  3.6960 -1.4944 -0.9392
  251MOL0     H33112   5.613   1.187   8.543  1.6053 -0.8356 -3.5995
  251MOL0     H33113   5.670   1.354   8.549  0.0925  0.3561  1.4141
  251MOL0     H33114   6.067   0.582   7.853 -0.5664  0.2993 -0.6435
  251MOL0     H33115   6.171   0.525   7.641 -0.8560 -0.1722  0.0368
  251MOL0     H33116   6.737   0.295   7.445  0.6629 -0.1946  1.0851
  251MOL0     H33117   6.736   0.151   7.237  3.8442  3.5398  2.0385
  251MOL0     H33118   6.868   0.821   6.895 -0.6880  0.6959  1.6589
  251MOL0     H33119   6.914   1.017   7.032  0.9910  1.4288  0.0471
  251MOL0     H33120   7.089   1.281   7.283  1.6778 -0.3461  0.6126
  251MOL0     H33121   7.107   1.475   7.393 -0.6662  1.1961 -0.1244
  251MOL0     H33122   7.237   1.828   7.185  4.1620 -0.2280 -1.9656
  251MOL0     H33123   7.403   1.812   7.265  0.0367 -1.3458  1.4575
  251MOL0     H33124   7.317   2.017   7.320 -1.9525 -0.0928 -1.8447
  251MOL0     H33125   7.169   1.950   7.392 -0.4645 -1.3693 -2.1168
  251MOL0     H33126   7.454   1.889   7.465  0.5232  1.1204 -0.6130
  251MOL0     H33127   7.308   1.832   7.553  1.7512 -2.6196 -2.4406
  251MOL0     H33128   7.264   2.128   7.521  0.6405 -0.8555 -1.4996
  251MOL0     H33129   7.313   2.037   7.670  2.6039  1.2245  1.7681
  251MOL0     H33130   7.683   2.215   7.595 -0.0125  0.4362  0.1786
  251MOL0     H33131   7.363   1.642   7.080 -1.1901  1.3041  0.2177
  251MOL0     H33132   7.344   1.445   6.959  2.0158  2.4472  0.6609
  252MOL0     O33133   5.908   6.221   0.153 -0.6622 -0.7485  0.3298
  252MOL0     C33134   6.012   6.189   0.215  0.8745 -0.0565  0.6221
  252MOL0     O33135   6.009   6.154   0.345 -0.0902 -0.2801 -0.0307
  252MOL0     C33136   5.884   6.119   0.391 -0.1246  0.0139  0.1159
  252MOL0     C33137   5.810   6.002   0.360  0.1707 -1.1626  0.8211
  252MOL0     C33138   5.683   5.976   0.411  0.0869  0.7889 -1.1039
  252MOL0     C33139   5.618   6.071   0.497  0.5182 -0.7154 -0.2215
  252MOL0     O33140   5.496   6.037   0.548  0.0941  0.4017 -0.4595
  252MOL0     C33141   5.414   6.144   0.594  0.2306 -0.0364 -0.1107
  252MOL0     C33142   5.349   6.114   0.731  0.9770  1.1187 -0.0920
  252MOL0     C33143   5.336   5.958   0.746  0.0125  0.2530  0.5413
  252MOL0     C33144   5.282   5.918   0.889  0.2738  0.2547 -0.0893
  252MOL0     C33145   5.301   5.767   0.912  0.7941  0.1085  0.6987
  252MOL0     C33146   5.301   5.727   1.058 -0.2706 -0.1614 -0.6342
  252MOL0     C33147   5.314   5.574   1.064 -0.0920 -0.1989  0.2248
  252MOL0     C33148   5.174   5.502   1.049  0.3337  0.0606 -0.1062
  252MOL0     N33149   5.186   5.349   1.062  0.0781 -1.0502  0.6234
  252MOL0     C33150   5.245   5.266   0.980  0.0532  0.0899  0.2051
  252MOL0     C33151   5.193   5.145   1.018 -0.4269  0.3192 -0.6074
  252MOL0     C33152   5.226   5.014   0.944 -0.4150 -0.7591 -1.0182
  252MOL0     C33153   5.123   4.905   0.976  0.3712  0.5281 -0.8415
  252MOL0     C33154   5.118   4.858   1.124  0.5989  0.6013 -0.9460
  252MOL0     C33155   5.163   4.718   1.148  0.2623  0.9597 -0.0707
  252MOL0     O33156   5.305   4.696   1.122  0.4647  0.1024  0.2479
  252MOL0     C33157   5.354   4.566   1.138 -0.1254  0.7502  0.7338
  252MOL0     C33158   5.285   4.446   1.141 -0.3950 -0.0992 -0.9133
  252MOL0     C33159   5.358   4.324   1.139  1.8021  0.3495  0.5036
  252MOL0     C33160   5.495   4.309   1.145 -0.3672 -1.1537  0.5347
  252MOL0     C33161   5.571   4.188   1.140 -1.0368 -0.2382  0.1724
  252MOL0     O33162   5.705   4.209   1.120 -0.7791  0.6900 -0.5258
  252MOL0     C33163   5.800   4.115   1.086  0.4914  0.2699  0.0207
  252MOL0     C33164   5.769   4.001   1.023  0.1442  0.0647 -0.4507
  252MOL0     C33165   5.857   3.899   0.988  0.0172  0.8078  0.5175
  252MOL0     C33166   5.996   3.926   1.010  0.7921 -0.6113 -0.2067
  252MOL0     O33167   6.087   3.822   1.005 -0.1726 -0.6408  0.5067
  252MOL0     C33168   6.218   3.846   1.056 -0.5012  0.1469  0.1826
  252MOL0     C33169   6.305   3.716   1.045  0.1741 -0.3543 -0.2128
  252MOL0     C33170   6.425   3.728   1.141  0.6934 -0.0841 -0.1171
  252MOL0     C33171   6.528   3.823   1.094 -0.6517  0.3472 -0.1170
  252MOL0     C33172   6.630   3.866   1.209  1.3740  0.6254  0.5329
  252MOL0     C33173   6.724   3.752   1.267 -0.4754  0.8796 -0.3488
  252MOL0     C33174   6.849   3.815   1.332 -0.2219 -0.8160 -1.0467
  252MOL0     C33175   6.940   3.918   1.257 -0.2489  0.2200  0.6882
  252MOL0    Cl33176   7.033   3.845   1.123 -0.4779 -0.0777  0.2922
  252MOL0     C33177   6.027   4.051   1.089  0.7956 -0.1382  0.6500
  252MOL0     C33178   5.929   4.146   1.127 -0.0342 -0.1853  0.1399
  252MOL0     O33179   5.512   4.086   1.148  0.0472 -0.1595 -0.0706
  252MOL0     C33180   5.557   4.435   1.150 -0.0991 -0.0819  0.5673
  252MOL0     C33181   5.495   4.556   1.147  0.6055 -0.5121 -0.7061
  252MOL0     N33182   5.118   5.162   1.136  0.3154 -0.0234 -0.1237
  252MOL0     N33183   5.124   5.282   1.163  0.1589 -0.1216  0.4795
  252MOL0     C33184   5.693   6.181   0.539  0.2619 -0.0164  0.1643
  252MOL0     C33185   5.821   6.208   0.490  0.0636 -0.2314 -0.3965
  252MOL0     C33186   6.135   6.207   0.152  0.1636  0.2980  0.9378
  252MOL0     C33187   6.245   6.202   0.235 -0.0747  0.3171 -0.5189
  252MOL0     C33188   6.367   6.209   0.181  0.6900  0.7527  0.6526
  252MOL0     C33189   6.394   6.233   0.050 -0.0651 -0.3760  0.9780
  252MOL0     O33190   6.529   6.247   0.014  0.3879  0.1239  0.0512
  252MOL0     C33191   6.583   6.247  -0.119 -0.9197  0.4893 -0.1622
  252MOL0     C33192   6.580   6.108  -0.192 -0.3422  0.4817  0.1645
  252MOL0     C33193   6.633   6.106  -0.340 -0.4517 -0.8305  0.6091
  252MOL0     C33194   6.786   6.103  -0.334  0.1188 -0.2148 -0.6384
  252MOL0     C33195   6.835   6.053  -0.460  0.3107 -0.1506  0.7211
  252MOL0     C33196   6.855   5.987  -0.559 -0.8192 -0.1010  0.3956
  252MOL0     C33197   6.288   6.242  -0.041 -0.0348 -0.1059 -0.2676
  252MOL0     C33198   6.163   6.229   0.009  0.1652 -1.2599 -0.1299
  252MOL0     H33199   5.865   5.934   0.295  3.3181  2.5193 -0.7488
  252MOL0     H33200   5.643   5.875   0.402  1.9653 -0.2023  0.8423
  252MOL0     H33201   5.331   6.157   0.524  2.6857 -0.2690 -3.2433
  252MOL0     H33202   5.467   6.240   0.593  1.4588 -0.7023 -1.4402
  252MOL0     H33203   5.249   6.155   0.750 -0.0805 -0.3070 -2.1308
  252MOL0     H33204   5.424   6.139   0.806 -0.1018 -1.8773  2.2339
  252MOL0     H33205   5.437   5.917   0.738  0.1786  0.9164 -1.2738
  252MOL0     H33206   5.272   5.914   0.669  0.7869 -1.2838  0.7534
  252MOL0     H33207   5.322   5.982   0.968 -1.8317 -0.1881  1.4373
  252MOL0     H33208   5.175   5.944   0.897 -0.9252 -4.2323  1.8297
  252MOL0     H33209   5.400   5.742   0.872  0.2955  0.5142 -0.8400
  252MOL0     H33210   5.229   5.714   0.849  0.4784  1.0325  0.2627
  252MOL0     H33211   5.210   5.765   1.105  1.8284  3.6325  0.7874
  252MOL0     H33212   5.382   5.782   1.105 -1.0514  1.4361 -1.0668
  252MOL0     H33213   5.377   5.546   0.979 -0.4456  1.3410 -0.5817
  252MOL0     H33214   5.366   5.557   1.159 -0.1149 -0.6900  0.1507
  252MOL0     H33215   5.124   5.528   0.956 -0.1113  0.1134  0.1429
  252MOL0     H33216   5.103   5.531   1.128 -3.2163 -0.5464 -2.8034
  252MOL0     H33217   5.304   5.276   0.889  1.2902 -1.4700  0.7890
  252MOL0     H33218   5.314   4.979   0.999 -0.9412 -0.3747  0.1096
  252MOL0     H33219   5.243   5.028   0.837 -0.5846  0.3792 -0.9123
  252MOL0     H33220   5.151   4.820   0.912 -0.0633  2.8012 -4.3309
  252MOL0     H33221   5.022   4.944   0.963 -0.5326 -0.5948  2.0675
  252MOL0     H33222   5.164   4.927   1.196  0.5379  1.0531 -1.3332
  252MOL0     H33223   5.013   4.863   1.155  1.7579  3.4431  3.5078
  252MOL0     H33224   5.095   4.644   1.105  0.3340 -1.2338  3.2203
  252MOL0     H33225   5.150   4.707   1.256  4.2369  2.9164  0.7852
  252MOL0     H33226   5.180   4.470   1.141 -0.7220 -1.2996 -2.8375
  252MOL0     H33227   5.293   4.238   1.147 -2.5668  3.0632 -1.9244
  252MOL0     H33228   5.669   3.989   0.981  0.0840  1.8888 -0.9286
  252MOL0     H33229   5.828   3.803   0.947  3.3332  1.5152 -4.2309
  252MOL0     H33230   6.219   3.868   1.163 -2.0291  3.3727 -0.3432
  252MOL0     H33231   6.258   3.932   1.002  0.8932  0.4992  1.7006
  252MOL0     H33232   6.350   3.697   0.948  0.2147 -2.7184  0.2121
  252MOL0     H33233   6.235   3.634   1.064 -0.2078 -0.6068 -2.5068
  252MOL0     H33234   6.470   3.628   1.140 -0.0461 -0.4203 -1.2307
  252MOL0     H33235   6.402   3.748   1.246  1.5690 -0.7872  0.2233
  252MOL0     H33236   6.582   3.773   1.013 -0.6506  0.4936 -0.2073
  252MOL0     H33237   6.486   3.914   1.051 -0.8634 -1.2159 -3.6200
  252MOL0     H33238   6.571   3.915   1.287 -1.4772 -0.2141 -0.9266
  252MOL0     H33239   6.690   3.939   1.153  0.0236  0.3831 -1.3504
  252MOL0     H33240   6.756   3.686   1.186  0.7406  0.1062  0.7163
  252MOL0     H33241   6.668   3.696   1.342 -1.3113  0.8090 -1.0187
  252MOL0     H33242   6.806   3.865   1.419  1.1757 -0.0650 -0.7569
  252MOL0     H33243   6.903   3.726   1.366  0.2832  0.1426  0.8049
  252MOL0     H33244   7.012   3.957   1.329  0.3129 -1.1811  0.9202
  252MOL0     H33245   6.881   4.008   1.236 -1.7631 -0.9387 -0.2732
  252MOL0     H33246   6.131   4.076   1.109  0.9764 -1.4764  1.5186
  252MOL0     H33247   5.947   4.246   1.163 -0.5488 -0.7880  2.2109
  252MOL0     H33248   5.665   4.448   1.151 -0.2644  1.5202  0.3381
  252MOL0     H33249   5.534   4.657   1.146 -1.1989  0.2246 -0.9978
  252MOL0     H33250   5.665   6.243   0.624  2.7215 -2.0801  2.6666
  252MOL0     H33251   5.886   6.283   0.533  0.1764  0.1202 -1.1578
  252MOL0     H33252   6.242   6.204   0.344 -2.2178  1.8810 -0.5409
  252MOL0     H33253   6.448   6.178   0.247 -0.0911 -0.5689  1.0224
  252MOL0     H33254   6.688   6.271  -0.101 -0.5383 -1.9398  1.2405
  252MOL0     H33255   6.528   6.323  -0.175  0.5522  0.3089 -1.9487
  252MOL0     H33256   6.647   6.045  -0.133 -0.7622 -0.3234 -0.1949
  252MOL0     H33257   6.478   6.070  -0.181  0.0184  0.2405  4.4120
  252MOL0     H33258   6.589   6.185  -0.402  1.8290 -1.3687 -1.8826
  252MOL0     H33259   6.595   6.016  -0.387 -1.0002 -0.6314  0.6651
  252MOL0     H33260   6.806   6.208  -0.309 -1.1274  0.0648 -0.7046
  252MOL0     H33261   6.832   6.046  -0.253  3.4688  2.6133 -0.2772
  252MOL0     H33262   6.875   5.947  -0.656  0.8462  0.6146  0.4209
  252MOL0     H33263   6.296   6.272  -0.145 -1.2160  1.9266  0.1860
  252MOL0     H33264   6.082   6.256  -0.059  2.5372  4.0718 -1.3144
  253MOL0     O33265   4.374   8.350   7.665  0.0102 -0.1010 -0.0572
  253MOL0     C33266   4.476   8.366   7.593 -0.4726 -0.6333 -0.3358
  253MOL0     O33267   4.485   8.454   7.496 -0.4103  0.4140  0.2355
  253MOL0     C33268   4.377   8.532   7.473  1.5436  0.1314 -0.5438
  253MOL0     C33269   4.394   8.671   7.470  0.1765 -0.2721 -0.4312
  253MOL0     C33270   4.284   8.753   7.460  0.3657 -0.1519 -0.3178
  253MOL0     C33271   4.152   8.705   7.437 -0.4496  0.1914  0.3187
  253MOL0     O33272   4.050   8.799   7.436  0.7224 -0.5714  0.4035
  253MOL0     C33273   3.920   8.751   7.463  0.3862 -0.0193  0.0014
  253MOL0     C33274   3.809   8.810   7.373 -0.3315 -0.7674 -0.0153
  253MOL0     C33275   3.665   8.773   7.420 -0.3282  1.0533  0.4883
  253MOL0     C33276   3.541   8.823   7.342 -0.6392 -0.0423  0.3627
  253MOL0     C33277   3.409   8.753   7.391 -0.4496 -0.0835 -0.7677
  253MOL0     C33278   3.283   8.814   7.330  0.4556  0.0434 -0.6002
  253MOL0     C33279   3.159   8.729   7.330  0.0829 -1.0652  0.4492
  253MOL0     C33280   3.031   8.816   7.315  0.5935 -0.0810 -0.2574
  253MOL0     N33281   2.911   8.751   7.369  0.1295 -0.3396 -1.0993
  253MOL0     C33282   2.874   8.737   7.501  0.5892  0.6456 -0.5507
  253MOL0     C33283   2.743   8.693   7.500  0.7283  0.3418 -0.1919
  253MOL0     C33284   2.668   8.648   7.613  0.0690 -0.0318  0.3152
  253MOL0     C33285   2.512   8.636   7.598  0.3977 -0.5328  0.1260
  253MOL0     C33286   2.443   8.624   7.736 -0.8877  0.3412  0.5252
  253MOL0     C33287   2.296   8.617   7.736  0.0626 -0.0076  0.6090
  253MOL0     O33288   2.248   8.486   7.763 -0.2378  0.1360 -0.5460
  253MOL0     C33289   2.110   8.483   7.766 -0.0342  0.5883 -0.8314
  253MOL0     C33290   2.027   8.563   7.838  0.6701  0.3483  0.2147
  253MOL0     C33291   1.894   8.539   7.841  1.5206  0.6584  0.0277
  253MOL0     C33292   1.834   8.426   7.784  0.4664  0.1258 -0.3347
  253MOL0     C33293   1.691   8.385   7.811 -1.3180  0.8336  0.1280
  253MOL0     O33294   1.629   8.468   7.902 -0.0470 -0.0247 -0.5311
  253MOL0     C33295   1.491   8.486   7.911 -0.0715 -0.0180 -0.4133
  253MOL0     C33296   1.432   8.501   8.034 -0.4749 -0.2753  0.2099
  253MOL0     C33297   1.291   8.501   8.049 -0.1720 -0.8690 -0.1511
  253MOL0     C33298   1.213   8.496   7.931 -0.4780  0.2801 -0.2272
  253MOL0     O33299   1.074   8.506   7.933  0.1729 -0.5336  0.1752
  253MOL0     C33300   1.013   8.535   8.056 -0.0483 -0.3091  0.3180
  253MOL0     C33301   0.864   8.568   8.037 -0.7152 -0.0240  0.8591
  253MOL0     C33302   0.838   8.651   7.909 -0.0803  0.2913  0.6270
  253MOL0     C33303   0.692   8.690   7.911 -0.4009 -0.0028  0.0343
  253MOL0     C33304   0.645   8.807   7.988 -0.1798 -0.2255  0.1601
  253MOL0     C33305   0.492   8.830   7.984 -1.3615 -0.8832  0.0290
  253MOL0     C33306   0.443   8.965   8.039 -1.1271 -0.1977  0.1244
  253MOL0     C33307   0.299   8.988   8.002 -0.0135 -0.9144 -0.0267
  253MOL0    Cl33308   0.172   8.854   8.044 -0.3850  0.5091 -0.3567
  253MOL0     C33309   1.275   8.484   7.808  0.3242 -0.6012 -0.2812
  253MOL0     C33310   1.411   8.491   7.797 -0.0239  0.9122 -0.2671
  253MOL0     O33311   1.638   8.300   7.736 -0.5622 -0.5885 -0.1682
  253MOL0     C33312   1.924   8.348   7.704  0.1252  0.3842 -0.2159
  253MOL0     C33313   2.052   8.378   7.699 -0.0056 -0.5403 -1.0897
  253MOL0     N33314   2.704   8.689   7.372 -0.2375 -0.4034  0.6884
  253MOL0     N33315   2.804   8.711   7.296  0.2314 -0.1441  0.3842
  253MOL0     C33316   4.146   8.571   7.411 -0.1012 -0.1198 -0.1418
  253MOL0     C33317   4.254   8.481   7.433  0.0269 -1.0727 -0.7190
  253MOL0     C33318   4.589   8.267   7.601  0.5576  0.4665 -0.3468
  253MOL0     C33319   4.586   8.159   7.689 -0.6900  0.0487 -0.0813
  253MOL0     C33320   4.681   8.061   7.687  0.3183  0.3064 -0.2366
  253MOL0     C33321   4.791   8.074   7.614  0.6619 -0.3557 -0.1895
  253MOL0     O33322   4.894   7.991   7.636  0.0022 -0.0331  0.3487
  253MOL0     C33323   4.941   7.979   7.773  0.0361 -0.3040 -0.1727
  253MOL0     C33324   5.057   8.080   7.786  1.1941  0.1640 -0.2852
  253MOL0     C33325   5.164   8.047   7.682  0.3044  0.8402 -0.1324
  253MOL0     C33326   5.273   8.156   7.686 -0.1346  0.7904  0.7417
  253MOL0     C33327   5.215   8.281   7.623  0.7658 -0.4657 -0.4713
  253MOL0     C33328   5.167   8.367   7.551 -0.3578 -0.4091 -0.9465
  253MOL0     C33329   4.800   8.180   7.526 -0.4245  0.7622 -0.2577
  253MOL0     C33330   4.702   8.276   7.512  0.0686 -0.5880  1.2755
  253MOL0     H33331   4.487   8.725   7.485 -0.9727  1.2466  1.8183
  253MOL0     H33332   4.306   8.859   7.460  1.0373 -0.2403 -2.5343
  253MOL0     H33333   3.904   8.776   7.568  3.6293 -1.0404  0.8664
  253MOL0     H33334   3.911   8.642   7.472  3.0481 -0.4843 -1.8316
  253MOL0     H33335   3.833   8.783   7.270 -1.7863 -2.8976  0.1317
  253MOL0     H33336   3.818   8.919   7.376 -2.9759 -0.4834  0.0731
  253MOL0     H33337   3.664   8.814   7.522 -1.3464  1.7059  0.2330
  253MOL0     H33338   3.652   8.665   7.428  2.3244  0.5642 -0.7053
  253MOL0     H33339   3.517   8.930   7.348 -1.6760 -0.0253 -2.4647
  253MOL0     H33340   3.550   8.808   7.234 -1.9510  0.9586  0.0928
  253MOL0     H33341   3.394   8.749   7.499 -0.3757 -4.4940 -0.7392
  253MOL0     H33342   3.414   8.648   7.362  1.5779 -0.2269 -0.0276
  253MOL0     H33343   3.308   8.835   7.226  0.7245  0.6805 -0.4147
  253MOL0     H33344   3.250   8.907   7.378 -1.2082 -0.8675  0.0824
  253MOL0     H33345   3.174   8.656   7.250  4.4065  1.1338 -1.0888
  253MOL0     H33346   3.148   8.674   7.424 -0.1590 -0.7629  0.5986
  253MOL0     H33347   3.027   8.824   7.206  0.4864  1.1522 -0.1838
  253MOL0     H33348   3.037   8.908   7.374  0.9450 -2.5834  3.9547
  253MOL0     H33349   2.919   8.767   7.595 -1.1106  3.3141 -0.4860
  253MOL0     H33350   2.681   8.722   7.692  0.4171 -0.3405  0.5492
  253MOL0     H33351   2.701   8.546   7.635  0.8352  0.5251  1.9501
  253MOL0     H33352   2.470   8.549   7.547 -2.8968  0.5073  0.8081
  253MOL0     H33353   2.479   8.727   7.546 -1.6770  0.1693  2.4856
  253MOL0     H33354   2.480   8.533   7.786 -0.6332 -2.6368 -4.4649
  253MOL0     H33355   2.474   8.708   7.799  0.5003 -0.5098  1.0269
  253MOL0     H33356   2.259   8.637   7.635 -2.4235  1.8528  1.8112
  253MOL0     H33357   2.260   8.691   7.807 -0.0857  0.9195 -0.4174
  253MOL0     H33358   2.071   8.650   7.886 -1.1806  2.1807 -1.2463
  253MOL0     H33359   1.838   8.609   7.902 -2.1113  0.3279 -2.5590
  253MOL0     H33360   1.497   8.491   8.120 -1.8070 -1.8162  1.1046
  253MOL0     H33361   1.243   8.517   8.144  1.6016  1.2559  0.4572
  253MOL0     H33362   1.047   8.619   8.117  3.0593 -1.9543  1.0453
  253MOL0     H33363   1.015   8.441   8.113  1.5460 -0.1237  0.6008
  253MOL0     H33364   0.833   8.627   8.124  1.1509  2.5713 -0.0949
  253MOL0     H33365   0.814   8.472   8.025 -2.0727  0.6903  0.5849
  253MOL0     H33366   0.845   8.587   7.821 -2.5799  0.9272 -0.1373
  253MOL0     H33367   0.905   8.737   7.901  0.3770 -0.0288  1.0344
  253MOL0     H33368   0.676   8.718   7.806 -0.0534 -3.2736 -1.0088
  253MOL0     H33369   0.634   8.603   7.943 -1.7228  1.1410  0.8412
  253MOL0     H33370   0.677   8.897   7.936  2.2827 -1.6784 -1.0298
  253MOL0     H33371   0.690   8.816   8.088  2.1649 -2.9105 -0.5308
  253MOL0     H33372   0.447   8.749   8.041 -0.3955 -2.3947 -1.2687
  253MOL0     H33373   0.467   8.813   7.879 -0.7300 -3.0113  0.1916
  253MOL0     H33374   0.465   8.974   8.146  1.1876  0.8153 -0.3658
  253MOL0     H33375   0.491   9.047   7.985  0.8576 -1.4459 -0.1086
  253MOL0     H33376   0.286   9.011   7.896 -3.1496  1.8560  0.7903
  253MOL0     H33377   0.265   9.075   8.059  0.3387  0.3074 -1.6159
  253MOL0     H33378   1.208   8.486   7.722 -2.0981 -2.3409  1.4095
  253MOL0     H33379   1.433   8.483   7.691 -2.7305 -0.1992 -0.8362
  253MOL0     H33380   1.874   8.283   7.633 -2.1551  3.7671 -1.9872
  253MOL0     H33381   2.113   8.303   7.651 -1.9453 -3.0409  0.1266
  253MOL0     H33382   4.052   8.522   7.387  0.2573 -1.3320  0.7720
  253MOL0     H33383   4.243   8.373   7.433  0.1234 -1.0854  0.0325
  253MOL0     H33384   4.515   8.155   7.771  0.1412  1.7794  0.7860
  253MOL0     H33385   4.681   7.970   7.746  0.5612  0.9262  0.7507
  253MOL0     H33386   4.982   7.878   7.783  1.9187  0.6334  2.9583
  253MOL0     H33387   4.862   7.989   7.847 -2.9738  3.4101 -3.4302
  253MOL0     H33388   5.020   8.181   7.765  0.0351 -0.3319 -0.7656
  253MOL0     H33389   5.101   8.079   7.886  1.0652 -0.6866 -0.2234
  253MOL0     H33390   5.135   8.028   7.578  1.5674 -1.7332 -0.1028
  253MOL0     H33391   5.206   7.954   7.722  1.0707  0.3307 -1.9903
  253MOL0     H33392   5.298   8.171   7.791 -2.4970  0.3683  1.4284
  253MOL0     H33393   5.357   8.126   7.623 -1.0134 -0.9749  0.3652
  253MOL0     H33394   5.122   8.440   7.487  0.3771  3.1156  2.1714
  253MOL0     H33395   4.896   8.194   7.478  0.9700  0.6467  2.3781
  253MOL0     H33396   4.723   8.359   7.446 -0.0504 -0.1687  1.7539
  254MOL0     O33397   2.107   4.731   3.918 -0.2347  0.5557  0.2173
  254MOL0     C33398   2.179   4.629   3.945  0.0128  0.3540  0.2268
  254MOL0     O33399   2.132   4.499   3.956 -0.3266  0.1848  0.2085
  254MOL0     C33400   1.999   4.476   3.936  0.0735  0.7752 -0.5005
  254MOL0     C33401   1.918   4.482   4.046 -0.0047  0.6751  0.0882
  254MOL0     C33402   1.778   4.459   4.050  0.1420 -0.0881 -0.5186
  254MOL0     C33403   1.717   4.437   3.926  0.1456  0.0147 -0.6852
  254MOL0     O33404   1.577   4.419   3.936  0.2366 -0.7025  0.4053
  254MOL0     C33405   1.507   4.416   3.805  0.2860 -0.3609  0.0011
  254MOL0     C33406   1.355   4.403   3.817 -0.6757  0.1182  0.0820
  254MOL0     C33407   1.318   4.294   3.922 -0.3273  1.4197 -0.5291
  254MOL0     C33408   1.174   4.253   3.919  0.1915  0.1307 -0.2226
  254MOL0     C33409   1.139   4.142   4.022 -0.2756 -0.4257  1.3241
  254MOL0     C33410   0.999   4.077   3.976  0.5128  0.5839 -0.5661
  254MOL0     C33411   0.965   3.948   4.043 -1.3597  0.0615 -0.8120
  254MOL0     C33412   0.812   3.939   4.056 -0.4188  0.1046 -0.0628
  254MOL0     N33413   0.724   3.961   3.939 -1.1510  0.1312 -0.7500
  254MOL0     C33414   0.645   4.076   3.908 -0.1777 -0.3136  0.0857
  254MOL0     C33415   0.549   4.032   3.820  0.3812  0.5586  0.5103
  254MOL0     C33416   0.423   4.112   3.772 -0.4844  0.3048  0.2534
  254MOL0     C33417   0.304   4.108   3.868  0.3718  0.6958  0.1576
  254MOL0     C33418   0.342   4.110   4.023  0.3484  0.8426 -0.4387
  254MOL0     C33419   0.233   4.193   4.090  0.0460 -0.2552 -1.3919
  254MOL0     O33420   0.104   4.149   4.064 -0.4252  0.5809 -0.1111
  254MOL0     C33421  -0.002   4.194   4.132  0.3241  0.1204  0.6764
  254MOL0     C33422  -0.017   4.296   4.226 -1.3781  0.5605  0.0627
  254MOL0     C33423  -0.141   4.328   4.290  0.5479 -0.2121  0.0418
  254MOL0     C33424  -0.254   4.247   4.268  0.1182  0.2061 -0.7173
  254MOL0     C33425  -0.393   4.286   4.326  0.0770  0.0981 -1.3448
  254MOL0     O33426  -0.418   4.393   4.409  0.3623  0.3593  0.2174
  254MOL0     C33427  -0.539   4.396   4.461  0.3253  0.2181  0.1583
  254MOL0     C33428  -0.608   4.295   4.526  0.5528  0.7762 -0.1117
  254MOL0     C33429  -0.739   4.300   4.557  0.6966 -0.4154  0.5225
  254MOL0     C33430  -0.814   4.412   4.528  0.3180 -0.9629 -0.0268
  254MOL0     O33431  -0.950   4.406   4.556 -0.3204 -0.1489  0.4762
  254MOL0     C33432  -1.036   4.516   4.527  0.4296 -0.8459  0.6173
  254MOL0     C33433  -1.173   4.480   4.574  0.4714  0.6958 -0.2904
  254MOL0     C33434  -1.190   4.454   4.727  0.7412  0.3331  0.6408
  254MOL0     C33435  -1.329   4.392   4.752  0.1167 -0.6280  0.1265
  254MOL0     C33436  -1.355   4.382   4.904  0.8280  0.6122  0.5033
  254MOL0     C33437  -1.507   4.412   4.946 -0.4637 -0.9359  0.6419
  254MOL0     C33438  -1.608   4.345   4.859  0.8018  0.5043 -0.2027
  254MOL0     C33439  -1.746   4.355   4.922  0.2486 -1.1126  0.7505
  254MOL0    Cl33440  -1.794   4.517   4.977  0.0261 -0.1947 -0.0544
  254MOL0     C33441  -0.745   4.520   4.474 -0.0830 -0.1080 -0.5246
  254MOL0     C33442  -0.613   4.510   4.436 -0.7226  0.5546 -0.1832
  254MOL0     O33443  -0.481   4.221   4.266  0.2012 -0.0371 -0.2382
  254MOL0     C33444  -0.238   4.145   4.173  0.0160 -0.5134  1.1364
  254MOL0     C33445  -0.121   4.127   4.105 -0.7186 -0.2089  0.2147
  254MOL0     N33446   0.561   3.898   3.798 -0.3969  0.2909  0.0346
  254MOL0     N33447   0.661   3.859   3.876  0.1790 -0.5252 -0.1356
  254MOL0     C33448   1.803   4.419   3.810 -0.5381 -0.2779  0.9887
  254MOL0     C33449   1.943   4.447   3.809 -0.5501 -0.0627 -0.7950
  254MOL0     C33450   2.319   4.650   3.951 -0.1805  0.2375  1.3942
  254MOL0     C33451   2.372   4.785   3.937  1.0540 -0.1260 -0.3161
  254MOL0     C33452   2.512   4.802   3.942  0.5769 -1.1773  0.1894
  254MOL0     C33453   2.597   4.702   3.962 -0.1887  0.0219  0.1169
  254MOL0     O33454   2.728   4.739   3.963  0.5985 -0.2277 -0.1105
  254MOL0     C33455   2.827   4.637   3.990  0.2488  0.4608  0.5192
  254MOL0     C33456   2.959   4.717   4.029 -0.7132  0.2406 -0.2529
  254MOL0     C33457   3.074   4.608   4.028  0.1229  1.0867  0.3994
  254MOL0     C33458   3.195   4.667   4.101 -0.1286  0.7556 -0.0955
  254MOL0     C33459   3.188   4.643   4.247  0.0788  0.2542 -0.0320
  254MOL0     C33460   3.188   4.613   4.361  0.3840  1.0822 -0.7634
  254MOL0     C33461   2.546   4.578   3.991  0.2342  0.2177  0.4894
  254MOL0     C33462   2.417   4.546   3.972  1.1589  0.2124 -0.6690
  254MOL0     H33463   1.978   4.514   4.131  1.2746 -3.6583  1.0357
  254MOL0     H33464   1.720   4.480   4.139 -0.4354 -0.6163 -0.7648
  254MOL0     H33465   1.540   4.326   3.753 -0.4726 -1.3576  1.1921
  254MOL0     H33466   1.537   4.498   3.739 -1.0305  0.8254  0.8053
  254MOL0     H33467   1.319   4.381   3.716 -0.1201 -1.8538  0.2581
  254MOL0     H33468   1.304   4.494   3.849 -0.8315  0.0057  0.1594
  254MOL0     H33469   1.344   4.346   4.015  0.2997  1.5618 -0.7817
  254MOL0     H33470   1.385   4.209   3.905  1.3563  1.9860  2.4145
  254MOL0     H33471   1.114   4.339   3.952  1.8116  0.8955  0.8732
  254MOL0     H33472   1.143   4.231   3.817  2.2671  3.2494 -1.6809
  254MOL0     H33473   1.141   4.190   4.120 -3.8820  0.5605  1.0323
  254MOL0     H33474   1.219   4.067   4.015  0.6178  0.6241 -0.2910
  254MOL0     H33475   0.997   4.070   3.867  2.1978  0.4102 -0.6209
  254MOL0     H33476   0.930   4.158   4.000  1.9235  2.2259 -1.7537
  254MOL0     H33477   1.012   3.863   3.992 -0.2654 -1.0020  1.7769
  254MOL0     H33478   1.018   3.947   4.138 -0.8196 -0.3509 -1.1080
  254MOL0     H33479   0.782   4.003   4.139 -1.4120 -3.0004  2.1470
  254MOL0     H33480   0.786   3.837   4.087 -0.7993 -0.5091 -2.2085
  254MOL0     H33481   0.656   4.175   3.952 -1.1756 -0.3792  0.5002
  254MOL0     H33482   0.393   4.071   3.675 -1.7509  0.3426  0.6143
  254MOL0     H33483   0.449   4.216   3.748 -0.1677  1.1316  3.5758
  254MOL0     H33484   0.242   4.019   3.864  1.0755  0.2012 -0.0036
  254MOL0     H33485   0.235   4.190   3.848 -2.9709 -1.7713  0.8227
  254MOL0     H33486   0.332   4.008   4.061 -2.1424  1.2214  0.1027
  254MOL0     H33487   0.444   4.145   4.043  0.9559 -1.0032 -0.1520
  254MOL0     H33488   0.243   4.301   4.070  0.0211  0.3159  1.2720
  254MOL0     H33489   0.241   4.190   4.199 -4.8147  1.0366 -0.7748
  254MOL0     H33490   0.061   4.370   4.236 -0.5200 -0.3404  0.1900
  254MOL0     H33491  -0.154   4.407   4.364  2.2960  1.9446 -1.8142
  254MOL0     H33492  -0.559   4.199   4.540 -0.7484 -0.0277 -0.9136
  254MOL0     H33493  -0.774   4.213   4.610  0.3813 -0.1016  0.8362
  254MOL0     H33494  -1.039   4.536   4.419  0.0663  0.5351  0.8604
  254MOL0     H33495  -1.009   4.612   4.573  1.4145 -0.5837 -0.4312
  254MOL0     H33496  -1.198   4.384   4.528 -2.1470  0.3944  1.5003
  254MOL0     H33497  -1.253   4.543   4.533  0.1299  0.1309 -0.5090
  254MOL0     H33498  -1.185   4.556   4.765 -0.3844  0.8565 -0.5462
  254MOL0     H33499  -1.116   4.391   4.777 -0.3893 -2.1631 -0.6618
  254MOL0     H33500  -1.394   4.455   4.690  0.0106 -1.4868 -0.6538
  254MOL0     H33501  -1.332   4.290   4.714 -1.2290 -0.7627  0.5430
  254MOL0     H33502  -1.275   4.437   4.955  0.8225  2.2528 -1.1853
  254MOL0     H33503  -1.338   4.279   4.936  2.4293  0.5068 -0.5837
  254MOL0     H33504  -1.525   4.520   4.940 -0.0011 -0.9407 -1.4910
  254MOL0     H33505  -1.514   4.380   5.050  2.2976 -1.5730  0.7098
  254MOL0     H33506  -1.620   4.389   4.759  0.8743 -1.8787 -1.3310
  254MOL0     H33507  -1.580   4.240   4.848 -0.0222  0.3163 -0.6302
  254MOL0     H33508  -1.745   4.294   5.013  2.3867 -1.9533  0.2258
  254MOL0     H33509  -1.808   4.312   4.842 -0.5168 -0.5815  1.0520
  254MOL0     H33510  -0.798   4.615   4.479 -2.1243 -1.2326  1.5986
  254MOL0     H33511  -0.550   4.587   4.394  0.4272 -0.9940 -1.4470
  254MOL0     H33512  -0.327   4.086   4.156  0.2419 -0.6426  0.3755
  254MOL0     H33513  -0.111   4.046   4.033 -0.8770 -0.2487  0.2364
  254MOL0     H33514   1.757   4.396   3.714 -3.4574  0.0110  2.2178
  254MOL0     H33515   2.007   4.430   3.724  1.3764  2.8871 -0.0825
  254MOL0     H33516   2.306   4.867   3.910  1.7539  0.8086  0.7252
  254MOL0     H33517   2.543   4.905   3.938  0.2402 -0.9002  2.7308
  254MOL0     H33518   2.826   4.573   3.901  0.9184 -1.4538  1.8389
  254MOL0     H33519   2.798   4.571   4.072 -0.6929 -0.6298 -0.6562
  254MOL0     H33520   2.978   4.794   3.955  0.8194 -0.2562 -0.4061
  254MOL0     H33521   2.944   4.759   4.129 -2.3175 -0.6098 -0.1003
  254MOL0     H33522   3.095   4.579   3.924  0.7731 -1.6924  1.2192
  254MOL0     H33523   3.044   4.507   4.058 -0.7317  0.2259 -2.8842
  254MOL0     H33524   3.287   4.630   4.054 -2.2347 -0.8312 -3.3671
  254MOL0     H33525   3.191   4.776   4.102 -1.1656  0.7469  2.3209
  254MOL0     H33526   3.179   4.604   4.468 -0.5922  2.9697 -0.6560
  254MOL0     H33527   2.610   4.493   4.012 -1.9040 -1.9941 -1.2660
  254MOL0     H33528   2.390   4.445   4.003  0.6898  0.9906  1.7062
  255MOL0     O33529   9.068   3.533   0.382  0.1874  0.8303  0.9190
  255MOL0     C33530   9.125   3.557   0.271  0.3473  0.1789  0.3392
  255MOL0     O33531   9.075   3.615   0.154  0.3980  0.3762 -0.1647
  255MOL0     C33532   8.943   3.642   0.143 -0.2418 -0.3703 -0.5203
  255MOL0     C33533   8.844   3.569   0.206  0.6806  1.0408  0.1622
  255MOL0     C33534   8.708   3.605   0.199 -0.6706 -1.5180  0.1036
  255MOL0     C33535   8.669   3.710   0.117 -0.4792  0.2911 -0.7205
  255MOL0     O33536   8.538   3.762   0.109  0.1919  0.5540  0.3455
  255MOL0     C33537   8.438   3.729   0.206  0.9224  0.4011 -0.1960
  255MOL0     C33538   8.345   3.621   0.154 -0.2939 -0.2468 -0.3553
  255MOL0     C33539   8.245   3.687   0.050 -0.3041  0.5495  0.2747
  255MOL0     C33540   8.128   3.588   0.034  0.5375  0.5422  0.3417
  255MOL0     C33541   8.015   3.639  -0.045 -0.4787 -0.2506  0.7855
  255MOL0     C33542   7.904   3.538  -0.063  0.3080  0.2019  0.6869
  255MOL0     C33543   7.816   3.543   0.063  0.0114 -0.5895 -0.2588
  255MOL0     C33544   7.668   3.516   0.036 -0.6793 -0.5413  0.2783
  255MOL0     N33545   7.595   3.627  -0.036 -0.4804 -0.5321 -0.5731
  255MOL0     C33546   7.574   3.747   0.023  1.3731 -0.3598  0.1818
  255MOL0     C33547   7.475   3.802  -0.044  0.3092  0.2117  0.5227
  255MOL0     C33548   7.422   3.939  -0.019 -0.2435 -0.4063  0.4952
  255MOL0     C33549   7.270   3.912  -0.009  0.1999 -0.1894  1.1171
  255MOL0     C33550   7.182   4.032   0.014 -0.6344  0.0574 -0.5332
  255MOL0     C33551   7.032   4.008   0.020  0.2510  0.6392 -0.6917
  255MOL0     O33552   6.974   3.991  -0.109  0.3583  0.6967  0.6096
  255MOL0     C33553   6.844   4.009  -0.117  0.4964 -0.0704  0.5709
  255MOL0     C33554   6.756   4.003  -0.014 -0.3945 -0.3015 -0.3317
  255MOL0     C33555   6.622   4.037  -0.032  0.1950 -0.6972  0.1728
  255MOL0     C33556   6.573   4.101  -0.150 -0.8303  0.3712  0.4489
  255MOL0     C33557   6.428   4.140  -0.174 -0.4934  0.4345  0.6239
  255MOL0     O33558   6.365   4.153  -0.055 -0.2831 -0.1420  0.4303
  255MOL0     C33559   6.226   4.159  -0.053 -0.6657 -0.1729  0.1913
  255MOL0     C33560   6.145   4.257  -0.112  0.9389 -1.1854  0.0243
  255MOL0     C33561   6.005   4.264  -0.088 -0.2317  0.4574 -0.0765
  255MOL0     C33562   5.955   4.159  -0.012  0.1904  0.4752 -0.0374
  255MOL0     O33563   5.817   4.140   0.008 -0.0540  0.1595 -0.1752
  255MOL0     C33564   5.749   4.257   0.062  0.4538  0.4078 -0.6914
  255MOL0     C33565   5.668   4.352  -0.028 -0.6845 -0.7999 -0.4370
  255MOL0     C33566   5.585   4.455   0.056  0.0632 -0.0036 -0.2092
  255MOL0     C33567   5.496   4.552  -0.022  0.2001  0.9917 -0.1859
  255MOL0     C33568   5.390   4.597   0.079 -0.0345  0.9224  0.7340
  255MOL0     C33569   5.320   4.722   0.006 -0.6671 -0.0731  0.1173
  255MOL0     C33570   5.193   4.746   0.081  0.8055  0.3712  0.0007
  255MOL0     C33571   5.116   4.863   0.032 -0.3722 -0.4136 -0.2648
  255MOL0    Cl33572   5.188   5.008   0.090 -0.0650 -0.2744 -0.3056
  255MOL0     C33573   6.035   4.069   0.066  0.6844 -0.1463  0.1843
  255MOL0     C33574   6.172   4.084   0.049  1.0700 -0.0255 -0.7386
  255MOL0     O33575   6.381   4.148  -0.287 -0.3236 -0.1942 -0.3712
  255MOL0     C33576   6.666   4.106  -0.253  0.1214 -0.9776 -0.8852
  255MOL0     C33577   6.801   4.059  -0.239 -0.7409 -0.6135  0.3954
  255MOL0     N33578   7.446   3.723  -0.153  1.4320  0.0805 -0.4129
  255MOL0     N33579   7.523   3.620  -0.151 -0.6482  0.4327 -0.5093
  255MOL0     C33580   8.767   3.778   0.050  0.0888  0.3698  0.1040
  255MOL0     C33581   8.901   3.748   0.067  0.0920  0.6168 -0.0070
  255MOL0     C33582   9.268   3.522   0.259  0.6580  0.1442  0.1209
  255MOL0     C33583   9.318   3.488   0.137 -0.0658  0.0761 -0.4491
  255MOL0     C33584   9.448   3.446   0.119 -0.0860 -0.5649  0.0125
  255MOL0     C33585   9.526   3.423   0.232  0.8662  0.4194  0.1080
  255MOL0     O33586   9.656   3.384   0.207 -0.0923 -0.1124 -0.9192
  255MOL0     C33587   9.757   3.469   0.272  0.2780 -0.0068  0.4383
  255MOL0     C33588   9.805   3.407   0.405 -0.0908 -0.2250 -0.1712
  255MOL0     C33589   9.835   3.523   0.501  0.0878 -0.0483  0.2736
  255MOL0     C33590   9.827   3.478   0.646 -0.6001  0.8251 -0.9409
  255MOL0     C33591   9.691   3.438   0.689 -0.4240  0.2048  0.5661
  255MOL0     C33592   9.576   3.393   0.702  0.7944  0.3140 -0.8889
  255MOL0     C33593   9.478   3.444   0.358 -0.1625 -0.3589  0.1436
  255MOL0     C33594   9.352   3.499   0.369  0.6114 -0.8388 -0.0999
  255MOL0     H33595   8.864   3.478   0.261 -0.8398  0.1139 -0.7424
  255MOL0     H33596   8.636   3.537   0.243 -0.4145 -2.6672 -1.1961
  255MOL0     H33597   8.379   3.816   0.237 -1.0403  0.1559 -2.9263
  255MOL0     H33598   8.471   3.684   0.300 -0.4033  0.5639  0.3616
  255MOL0     H33599   8.284   3.590   0.239  0.5304 -0.6699  0.0950
  255MOL0     H33600   8.400   3.532   0.119  2.8946  0.7666  1.6269
  255MOL0     H33601   8.310   3.687  -0.039  1.0702 -2.5793  1.1502
  255MOL0     H33602   8.208   3.785   0.080 -0.5951  0.9848 -1.3810
  255MOL0     H33603   8.166   3.501  -0.020 -0.4997  3.1709 -5.4012
  255MOL0     H33604   8.080   3.561   0.128 -0.5773  1.3022  0.0116
  255MOL0     H33605   8.037   3.663  -0.149 -1.3661 -1.2420  0.3592
  255MOL0     H33606   7.981   3.733  -0.000 -2.6795 -0.7751  0.3244
  255MOL0     H33607   7.937   3.437  -0.089 -1.6660 -0.9512  2.3197
  255MOL0     H33608   7.847   3.574  -0.149 -0.3193  0.3848  1.1717
  255MOL0     H33609   7.849   3.465   0.132  1.4311  1.7509  1.8897
  255MOL0     H33610   7.830   3.632   0.125 -0.6445 -0.1540 -0.7349
  255MOL0     H33611   7.620   3.487   0.129 -2.9439  0.3166 -0.5478
  255MOL0     H33612   7.642   3.431  -0.029 -1.6981  0.1656 -0.2631
  255MOL0     H33613   7.627   3.796   0.105  1.2497 -0.4899  0.3395
  255MOL0     H33614   7.449   3.994  -0.110  2.2578 -1.1934  0.6905
  255MOL0     H33615   7.463   3.992   0.067  1.8734 -1.8846  0.4732
  255MOL0     H33616   7.253   3.850   0.079  1.6325 -0.6388  1.0965
  255MOL0     H33617   7.221   3.874  -0.099 -0.9701 -0.7889  1.9754
  255MOL0     H33618   7.207   4.078   0.110  0.7413  0.0765 -0.8904
  255MOL0     H33619   7.193   4.110  -0.062 -1.3510  2.0637  1.2850
  255MOL0     H33620   6.986   4.088   0.079  2.1140 -0.4093  2.3966
  255MOL0     H33621   7.022   3.914   0.075 -2.6191  0.8474 -0.6803
  255MOL0     H33622   6.784   3.971   0.086  0.5873 -0.2754 -0.5920
  255MOL0     H33623   6.545   4.020   0.043 -0.0923  2.9591  0.8710
  255MOL0     H33624   6.189   4.344  -0.159 -2.2532  2.5728  3.3287
  255MOL0     H33625   5.945   4.336  -0.143  1.0435  0.9481 -0.8711
  255MOL0     H33626   5.820   4.306   0.129  0.5634 -1.5862  0.7461
  255MOL0     H33627   5.665   4.209   0.113  0.5492  0.1543 -0.7689
  255MOL0     H33628   5.592   4.286  -0.072 -2.4669 -0.1743  1.5014
  255MOL0     H33629   5.733   4.409  -0.095  0.1815 -3.8704 -2.4246
  255MOL0     H33630   5.651   4.520   0.115  0.2919 -0.8318  0.4728
  255MOL0     H33631   5.517   4.396   0.118 -0.6278  2.7687  1.9155
  255MOL0     H33632   5.546   4.643  -0.058  0.2970  0.9888 -0.0564
  255MOL0     H33633   5.450   4.499  -0.106  0.1447 -0.6795  0.8584
  255MOL0     H33634   5.427   4.626   0.178 -0.4106  0.8117  0.9104
  255MOL0     H33635   5.318   4.516   0.097  1.7422 -1.4077 -1.8322
  255MOL0     H33636   5.294   4.714  -0.100 -4.4519  2.7003  0.6249
  255MOL0     H33637   5.397   4.800   0.007  1.0477 -1.6701 -0.9318
  255MOL0     H33638   5.136   4.653   0.076  1.1318 -0.1116  3.1735
  255MOL0     H33639   5.198   4.752   0.190 -5.8234 -0.5866  0.8160
  255MOL0     H33640   5.016   4.858   0.077  0.2745 -0.6719  1.1867
  255MOL0     H33641   5.114   4.864  -0.078  0.7405  2.1784 -0.3285
  255MOL0     H33642   5.989   3.997   0.132  0.8687 -0.3016  0.1443
  255MOL0     H33643   6.235   4.027   0.116 -0.1914  1.4396  1.8333
  255MOL0     H33644   6.632   4.139  -0.351  3.4952 -2.5096 -2.7441
  255MOL0     H33645   6.866   4.074  -0.325 -0.7119 -2.0755  0.1325
  255MOL0     H33646   8.723   3.846  -0.022 -1.5746 -0.6474  0.1000
  255MOL0     H33647   8.981   3.798   0.013 -0.2738 -2.1205 -3.4325
  255MOL0     H33648   9.249   3.490   0.053  1.2721 -1.5195 -1.6626
  255MOL0     H33649   9.492   3.429   0.022 -1.3915  2.0104 -1.1396
  255MOL0     H33650   9.718   3.569   0.292 -4.2731 -1.7575  1.6085
  255MOL0     H33651   9.846   3.479   0.209  0.4860 -0.7133  0.6064
  255MOL0     H33652   9.728   3.338   0.442 -2.2206  2.5171  0.8286
  255MOL0     H33653   9.899   3.357   0.382  1.6970  2.6591  0.4239
  255MOL0     H33654   9.772   3.611   0.486  1.1777  0.4918 -1.4480
  255MOL0     H33655   9.937   3.558   0.482 -0.5897  2.1538  0.3901
  255MOL0     H33656   9.899   3.398   0.667 -2.4143 -0.8336 -0.7729
  255MOL0     H33657   9.862   3.563   0.706  0.2991  0.0320 -0.3170
  255MOL0     H33658   9.480   3.361   0.737  1.4408 -0.0061  0.6822
  255MOL0     H33659   9.532   3.432   0.451 -2.9515  2.8640  2.4121
  255MOL0     H33660   9.307   3.521   0.465  0.7101  2.9134 -0.7604
  256MOL0     O33661   1.841   1.925   4.178 -0.2679  0.4889 -0.6044
  256MOL0     C33662   1.943   1.946   4.115 -0.0477  0.0836 -1.1934
  256MOL0     O33663   1.948   1.980   3.979 -0.5872  0.3273 -0.9750
  256MOL0     C33664   1.841   2.030   3.907  0.3324  0.0511 -1.4845
  256MOL0     C33665   1.724   2.103   3.959  0.4608 -0.8759  0.8392
  256MOL0     C33666   1.625   2.153   3.868 -0.1154  1.3081 -0.1599
  256MOL0     C33667   1.653   2.141   3.730  0.2196 -0.4851  0.0371
  256MOL0     O33668   1.562   2.195   3.645  0.3881  0.1618  0.1297
  256MOL0     C33669   1.427   2.140   3.656 -0.4110 -0.2534  0.3471
  256MOL0     C33670   1.355   2.200   3.529  0.1600  0.8106 -0.6165
  256MOL0     C33671   1.206   2.179   3.528  0.7103  0.3239 -0.2219
  256MOL0     C33672   1.112   2.222   3.637 -0.1713  0.3563 -0.1749
  256MOL0     C33673   0.964   2.197   3.619 -0.1811 -0.0136 -0.0265
  256MOL0     C33674   0.938   2.057   3.663  0.0530  0.4612  0.3833
  256MOL0     C33675   0.792   2.014   3.622 -0.9813 -0.3867 -1.2504
  256MOL0     C33676   0.683   2.102   3.688  0.6340 -0.9431 -0.3362
  256MOL0     N33677   0.557   2.026   3.659  0.1110  0.3936 -0.5258
  256MOL0     C33678   0.509   1.928   3.739 -0.9931  0.8393  0.3713
  256MOL0     C33679   0.413   1.865   3.668 -0.4667 -0.4652  0.0651
  256MOL0     C33680   0.333   1.759   3.731  0.4057 -0.0719  0.0965
  256MOL0     C33681   0.184   1.792   3.711  0.1598 -0.4943  0.2702
  256MOL0     C33682   0.108   1.707   3.800  0.4059 -0.0739 -0.3070
  256MOL0     C33683  -0.044   1.749   3.780  0.4863  0.2051 -0.5448
  256MOL0     O33684  -0.118   1.693   3.668 -0.1188 -0.6009 -0.5280
  256MOL0     C33685  -0.255   1.698   3.682  0.3174 -0.4378  0.9841
  256MOL0     C33686  -0.326   1.817   3.722 -0.4776  0.0161 -0.7080
  256MOL0     C33687  -0.464   1.814   3.741 -0.6622  0.0029  0.0997
  256MOL0     C33688  -0.533   1.702   3.702  0.6801 -0.1837 -0.0463
  256MOL0     C33689  -0.680   1.692   3.736 -0.7892  0.4938 -0.3445
  256MOL0     O33690  -0.733   1.568   3.719 -0.3749 -0.0086  0.9206
  256MOL0     C33691  -0.864   1.557   3.758 -0.6595 -0.0039 -0.2993
  256MOL0     C33692  -0.893   1.552   3.894  0.4838 -0.0062 -0.9284
  256MOL0     C33693  -1.018   1.502   3.932  0.2886 -0.2389 -0.9669
  256MOL0     C33694  -1.114   1.480   3.836 -0.5034 -0.3950 -1.0702
  256MOL0     O33695  -1.235   1.441   3.880  0.3642 -0.5839 -0.3076
  256MOL0     C33696  -1.340   1.398   3.791 -1.1159  0.0083  0.0270
  256MOL0     C33697  -1.434   1.306   3.869  0.4995 -0.3241  0.5017
  256MOL0     C33698  -1.558   1.285   3.772  0.2124  0.7237  0.0708
  256MOL0     C33699  -1.681   1.224   3.850  0.0050 -0.1613  0.3660
  256MOL0     C33700  -1.796   1.206   3.752 -0.3859  0.4865  0.0137
  256MOL0     C33701  -1.886   1.328   3.775  0.2644 -0.0562  1.0682
  256MOL0     C33702  -1.987   1.329   3.666  0.2668  0.2234  0.2283
  256MOL0     C33703  -2.072   1.449   3.658 -0.5201  0.2361 -0.8383
  256MOL0    Cl33704  -2.160   1.455   3.497  0.0687  0.2222 -0.2502
  256MOL0     C33705  -1.089   1.499   3.706 -0.0240 -0.5272  0.1314
  256MOL0     C33706  -0.960   1.532   3.664  0.8845 -0.0422 -0.3719
  256MOL0     O33707  -0.737   1.793   3.786 -0.2826  0.1518 -0.4765
  256MOL0     C33708  -0.466   1.585   3.660 -0.9119 -0.5347  0.0014
  256MOL0     C33709  -0.321   1.583   3.651  0.1048  0.3095  0.7185
  256MOL0     N33710   0.403   1.931   3.547 -0.4198 -0.3781  1.1311
  256MOL0     N33711   0.490   2.020   3.539 -0.5372 -0.7812 -0.2696
  256MOL0     C33712   1.764   2.069   3.678  0.1562 -0.6720  0.0575
  256MOL0     C33713   1.860   2.015   3.770  0.7269  0.3142  0.2348
  256MOL0     C33714   2.059   1.971   4.200 -0.7460  0.2750  0.7491
  256MOL0     C33715   2.059   1.928   4.329 -0.6597 -0.1096 -0.0589
  256MOL0     C33716   2.167   1.960   4.403 -0.7270 -0.5778 -0.3574
  256MOL0     C33717   2.286   2.009   4.348 -0.6279  0.6431  0.0023
  256MOL0     O33718   2.380   2.025   4.443 -0.9178 -1.5394 -0.3804
  256MOL0     C33719   2.514   1.995   4.405  1.0829  0.5291  0.0510
  256MOL0     C33720   2.601   2.113   4.362  0.1065 -0.7655  0.4541
  256MOL0     C33721   2.751   2.095   4.351 -0.3948 -0.5499 -0.7569
  256MOL0     C33722   2.822   2.082   4.486 -0.1794  0.5869  0.1930
  256MOL0     C33723   2.961   2.062   4.458  0.3347 -0.2817 -0.3521
  256MOL0     C33724   3.074   2.033   4.428  0.9196  0.0125  0.0930
  256MOL0     C33725   2.292   2.045   4.208  0.0374 -0.1518 -0.4328
  256MOL0     C33726   2.171   2.030   4.137 -0.5707  0.2010  0.8078
  256MOL0     H33727   1.718   2.129   4.064 -0.6592  0.2378  0.5262
  256MOL0     H33728   1.548   2.223   3.901  0.4105  0.7942  2.3251
  256MOL0     H33729   1.373   2.165   3.748 -1.1178 -0.2487 -0.0646
  256MOL0     H33730   1.441   2.031   3.659  2.2420 -0.0085 -0.5302
  256MOL0     H33731   1.404   2.160   3.440  0.8853  1.2114 -0.4109
  256MOL0     H33732   1.372   2.306   3.506 -0.9469  0.4655 -3.3361
  256MOL0     H33733   1.178   2.073   3.524  0.9512  0.1003  2.2378
  256MOL0     H33734   1.163   2.227   3.440 -3.0842 -0.0514  1.1962
  256MOL0     H33735   1.150   2.171   3.726  0.0758 -0.6917 -0.8677
  256MOL0     H33736   1.134   2.327   3.659 -0.0396 -0.2534  3.1663
  256MOL0     H33737   0.929   2.219   3.518 -1.4181 -0.2875  0.3347
  256MOL0     H33738   0.906   2.267   3.681 -1.3396  1.4490 -2.6256
  256MOL0     H33739   0.951   2.052   3.772  2.3050 -0.9412  0.1187
  256MOL0     H33740   1.001   1.972   3.634 -1.8613 -0.7764 -0.3424
  256MOL0     H33741   0.771   2.027   3.515  0.2593  1.1674 -1.3494
  256MOL0     H33742   0.796   1.905   3.629  0.8857 -0.3186 -0.5899
  256MOL0     H33743   0.682   2.205   3.652  3.0816 -0.6361  0.3045
  256MOL0     H33744   0.707   2.107   3.795  1.9039 -5.3755 -0.2413
  256MOL0     H33745   0.546   1.898   3.837  0.7081  1.3253 -0.0800
  256MOL0     H33746   0.347   1.759   3.840 -0.2146 -0.3622  0.1811
  256MOL0     H33747   0.358   1.660   3.691  4.0610  0.6414  0.2608
  256MOL0     H33748   0.156   1.771   3.607  0.2706 -0.4003  0.2215
  256MOL0     H33749   0.168   1.898   3.731 -3.5405 -0.7744 -0.4685
  256MOL0     H33750   0.131   1.601   3.783  2.4405  0.1929  0.5403
  256MOL0     H33751   0.137   1.725   3.904 -0.4923  1.7622 -0.3459
  256MOL0     H33752  -0.048   1.858   3.782  0.7938  0.2211 -0.7660
  256MOL0     H33753  -0.090   1.714   3.873  1.0701 -1.2299 -0.7556
  256MOL0     H33754  -0.271   1.907   3.749  0.6428 -0.3366 -1.7484
  256MOL0     H33755  -0.509   1.902   3.784  1.1785  0.7184  0.6764
  256MOL0     H33756  -0.829   1.570   3.980 -1.6647 -1.1774  1.0330
  256MOL0     H33757  -1.035   1.483   4.038 -0.5423 -1.9586 -1.3691
  256MOL0     H33758  -1.304   1.336   3.709  1.8949 -0.9679  1.9335
  256MOL0     H33759  -1.394   1.488   3.757 -0.6386  0.2669 -0.0515
  256MOL0     H33760  -1.473   1.353   3.960 -0.8699 -2.1283  0.9164
  256MOL0     H33761  -1.389   1.211   3.899 -1.8390 -1.0179  2.1217
  256MOL0     H33762  -1.530   1.228   3.683 -2.2997 -0.8217  0.1831
  256MOL0     H33763  -1.588   1.385   3.738 -0.9484  1.1750  2.2175
  256MOL0     H33764  -1.654   1.129   3.898  1.1312 -0.3157 -0.5408
  256MOL0     H33765  -1.716   1.299   3.921 -1.9147  0.2961 -0.9929
  256MOL0     H33766  -1.843   1.111   3.776 -1.6579  0.2815 -2.8805
  256MOL0     H33767  -1.767   1.189   3.648  0.0529 -3.5564  0.6351
  256MOL0     H33768  -1.830   1.423   3.777 -0.5754  0.4753  0.0490
  256MOL0     H33769  -1.938   1.311   3.869 -0.1756 -3.6117  0.3132
  256MOL0     H33770  -1.927   1.325   3.575  2.3377 -0.2828  1.5290
  256MOL0     H33771  -2.048   1.239   3.677 -1.8271  0.9717 -3.7909
  256MOL0     H33772  -2.018   1.540   3.685 -0.3208  0.0986 -0.7691
  256MOL0     H33773  -2.150   1.436   3.735  0.8196 -0.4002  0.4585
  256MOL0     H33774  -1.169   1.485   3.634 -1.1146  0.2909  1.1216
  256MOL0     H33775  -0.929   1.543   3.561 -0.9091  2.1306 -0.7505
  256MOL0     H33776  -0.506   1.485   3.653  0.9109 -1.3423  0.4143
  256MOL0     H33777  -0.256   1.506   3.611 -1.3587 -0.6338  0.0212
  256MOL0     H33778   1.781   2.053   3.572 -0.4893  1.9577 -0.5276
  256MOL0     H33779   1.947   1.968   3.725 -0.7799 -0.3574 -2.2321
  256MOL0     H33780   1.979   1.870   4.374  0.8487  0.2682  3.4728
  256MOL0     H33781   2.176   1.926   4.506 -0.6181  0.6183  0.0441
  256MOL0     H33782   2.509   1.919   4.327  0.2065 -1.8311  2.2932
  256MOL0     H33783   2.558   1.953   4.496 -1.8346 -2.8758  0.0520
  256MOL0     H33784   2.572   2.153   4.265 -2.4376  2.7703  2.4369
  256MOL0     H33785   2.583   2.192   4.435  1.0432  0.0574 -0.1928
  256MOL0     H33786   2.800   2.179   4.300  0.9205 -2.1169 -2.1657
  256MOL0     H33787   2.773   2.008   4.289 -0.8960  0.5090 -2.4868
  256MOL0     H33788   2.812   2.174   4.545 -0.1443  0.3401  0.5901
  256MOL0     H33789   2.772   2.001   4.541  0.7562 -2.4136 -3.0315
  256MOL0     H33790   3.171   2.004   4.393  1.2259 -0.0650  0.9883
  256MOL0     H33791   2.385   2.089   4.173  0.3425  0.6548  1.2487
  256MOL0     H33792   2.184   2.066   4.035  2.5239 -3.2838 -0.2398
  257MOL0     O33793   5.657  10.537   9.019 -0.5268  0.3327 -0.6718
  257MOL0     C33794   5.715  10.634   8.966 -0.1774  0.1824 -0.8779
  257MOL0     O33795   5.687  10.759   8.991 -0.0247 -0.5407 -0.6108
  257MOL0     C33796   5.549  10.783   8.987 -0.7550  0.0738  0.1158
  257MOL0     C33797   5.461  10.784   9.095 -0.3035  0.2990  0.5067
  257MOL0     C33798   5.320  10.799   9.082  0.1618  0.2145 -0.1325
  257MOL0     C33799   5.263  10.827   8.952  0.8250 -0.1642 -0.2382
  257MOL0     O33800   5.132  10.859   8.943 -0.5441  0.8498  0.2344
  257MOL0     C33801   5.063  10.865   8.817  0.1691  1.0865  1.0272
  257MOL0     C33802   5.050  10.739   8.724  0.6563 -1.4327 -0.1903
  257MOL0     C33803   4.920  10.746   8.634 -0.3351  0.5392 -0.0753
  257MOL0     C33804   4.916  10.658   8.510  0.3198  0.5675  0.0988
  257MOL0     C33805   4.754  10.640   8.479  1.1501  0.1836 -0.4061
  257MOL0     C33806   4.707  10.767   8.405 -0.3420  0.1548  1.4512
  257MOL0     C33807   4.557  10.756   8.357 -0.8814 -0.4149  0.3622
  257MOL0     C33808   4.521  10.882   8.281  0.6627 -0.9415  0.4489
  257MOL0     N33809   4.375  10.917   8.280 -0.5699  0.1795  0.2741
  257MOL0     C33810   4.284  10.857   8.189  0.9063 -0.5406 -0.1406
  257MOL0     C33811   4.171  10.914   8.213 -0.2878  0.2428  0.4512
  257MOL0     C33812   4.055  10.894   8.127  0.6041 -0.0825 -0.1023
  257MOL0     C33813   3.947  10.792   8.182 -0.0569  0.0486 -0.4522
  257MOL0     C33814   3.827  10.737   8.099 -0.0453  0.3487 -0.0929
  257MOL0     C33815   3.790  10.821   7.982 -0.1971  0.9133 -0.0333
  257MOL0     O33816   3.725  10.940   8.011  0.2936 -0.0675 -0.7541
  257MOL0     C33817   3.588  10.944   8.016  0.3628 -0.4746 -0.3064
  257MOL0     C33818   3.504  10.838   8.007 -0.1692 -0.0709  1.3999
  257MOL0     C33819   3.371  10.843   8.010 -0.2014  0.2647  1.1282
  257MOL0     C33820   3.308  10.961   8.029  0.0753 -0.7151  0.5522
  257MOL0     C33821   3.156  10.958   8.024 -0.9488 -1.0635 -0.1677
  257MOL0     O33822   3.104  10.834   8.019 -0.0870  0.3399 -0.4158
  257MOL0     C33823   2.970  10.846   7.991 -0.5202  0.5441  0.8731
  257MOL0     C33824   2.926  10.846   7.864 -0.1718 -0.5112  0.2822
  257MOL0     C33825   2.796  10.846   7.820  0.2266 -0.1277  0.3395
  257MOL0     C33826   2.693  10.847   7.920 -0.2690 -0.2154  0.3423
  257MOL0     O33827   2.556  10.812   7.901  0.1975 -0.1650 -0.4277
  257MOL0     C33828   2.512  10.790   7.764 -0.2498  0.5348  0.4193
  257MOL0     C33829   2.365  10.801   7.770  0.5144 -1.3050  0.2109
  257MOL0     C33830   2.294  10.712   7.675 -0.0144  0.5194  0.3371
  257MOL0     C33831   2.146  10.717   7.711 -0.6638  0.3558 -0.9558
  257MOL0     C33832   2.054  10.631   7.620 -0.6858  0.1885 -0.6321
  257MOL0     C33833   1.906  10.650   7.620  0.0008 -0.7697  0.1354
  257MOL0     C33834   1.860  10.798   7.616 -0.5718  1.2720  0.5275
  257MOL0     C33835   1.715  10.819   7.637 -0.2034 -0.9115 -0.2332
  257MOL0    Cl33836   1.608  10.706   7.540 -0.1144 -0.1824  0.3211
  257MOL0     C33837   2.737  10.854   8.052  0.7245 -0.7816  0.1939
  257MOL0     C33838   2.872  10.861   8.084 -0.4495  0.5419 -0.0320
  257MOL0     O33839   3.104  11.067   8.034 -0.1030 -0.1675  0.0783
  257MOL0     C33840   3.389  11.082   8.047 -0.6315  0.0854 -0.9021
  257MOL0     C33841   3.533  11.070   8.044  0.3877  0.6189  0.4213
  257MOL0     N33842   4.188  10.999   8.315 -0.4831 -0.3104 -0.2957
  257MOL0     N33843   4.314  11.001   8.362  0.8144 -0.2417  0.3874
  257MOL0     C33844   5.348  10.829   8.839  0.6289  0.4019  0.6962
  257MOL0     C33845   5.487  10.804   8.862 -0.2563 -0.1601  0.7482
  257MOL0     C33846   5.840  10.612   8.903 -0.0398 -0.2907  0.6906
  257MOL0     C33847   5.915  10.495   8.929 -0.1635 -0.2738 -0.3897
  257MOL0     C33848   6.049  10.479   8.874 -0.0464  0.1115  0.5297
  257MOL0     C33849   6.116  10.583   8.818  0.0921  0.0354  0.4574
  257MOL0     O33850   6.237  10.550   8.768 -0.0293 -0.1670  0.1598
  257MOL0     C33851   6.317  10.653   8.727 -0.9687 -0.2940 -0.9162
  257MOL0     C33852   6.458  10.602   8.685  0.2477 -0.1599 -0.4501
  257MOL0     C33853   6.537  10.526   8.788  0.9013 -0.1032 -0.1179
  257MOL0     C33854   6.470  10.389   8.811 -0.3266 -0.4836 -0.2952
  257MOL0     C33855   6.575  10.295   8.880 -0.1545 -0.2464 -0.7882
  257MOL0     C33856   6.656  10.222   8.932  0.0584 -0.1664 -0.5489
  257MOL0     C33857   6.037  10.692   8.798  0.2290 -0.4043  0.5686
  257MOL0     C33858   5.902  10.707   8.832 -0.7082  0.6138 -0.3656
  257MOL0     H33859   5.502  10.778   9.196  0.2030 -0.1525  0.2796
  257MOL0     H33860   5.253  10.796   9.167 -0.7478 -0.8488 -0.8598
  257MOL0     H33861   5.100  10.952   8.761  2.4043  0.4963  1.4907
  257MOL0     H33862   4.960  10.894   8.842 -0.0112  0.0311  1.5579
  257MOL0     H33863   5.059  10.649   8.786  3.1043  0.5541  2.6036
  257MOL0     H33864   5.136  10.748   8.657  1.3013 -0.8393  0.7049
  257MOL0     H33865   4.917  10.851   8.605 -0.1022  1.6407  3.4467
  257MOL0     H33866   4.846  10.708   8.705 -0.3078 -1.4397 -1.0475
  257MOL0     H33867   4.975  10.714   8.436  0.4636  1.5690  0.9476
  257MOL0     H33868   4.962  10.560   8.523 -1.5008 -0.2389  0.8245
  257MOL0     H33869   4.685  10.616   8.561 -0.7551  1.0746 -1.6722
  257MOL0     H33870   4.751  10.562   8.403  3.2936  0.7863 -1.1736
  257MOL0     H33871   4.769  10.781   8.317 -4.4552 -0.7220 -1.8962
  257MOL0     H33872   4.714  10.847   8.479  1.5650  1.2063  0.2045
  257MOL0     H33873   4.551  10.674   8.285  2.2635 -2.2423  1.9442
  257MOL0     H33874   4.496  10.744   8.447 -0.2861  1.6620  1.1010
  257MOL0     H33875   4.555  10.874   8.178 -2.1069  0.4241 -0.6693
  257MOL0     H33876   4.579  10.964   8.325  0.1370 -1.6493  2.6006
  257MOL0     H33877   4.312  10.799   8.102 -2.0169  1.2391 -2.4424
  257MOL0     H33878   4.110  10.854   8.041 -0.0774  2.2671 -1.7281
  257MOL0     H33879   4.004  10.987   8.100  0.9744 -0.4066 -2.1365
  257MOL0     H33880   3.910  10.831   8.278 -0.4660  0.0603 -0.6144
  257MOL0     H33881   3.993  10.699   8.220 -1.1835  0.4197  1.9969
  257MOL0     H33882   3.848  10.636   8.063  1.1044  0.4226  0.3230
  257MOL0     H33883   3.734  10.729   8.155  0.6825 -1.0862  0.9794
  257MOL0     H33884   3.732  10.763   7.910 -1.8074  2.0785  0.2535
  257MOL0     H33885   3.878  10.848   7.923 -0.7763  1.5298 -0.6444
  257MOL0     H33886   3.545  10.737   8.006 -2.0616 -0.9019 -0.6113
  257MOL0     H33887   3.323  10.746   8.002  2.2006 -1.0913  2.1079
  257MOL0     H33888   3.001  10.839   7.786 -0.3234  3.4095 -0.4062
  257MOL0     H33889   2.784  10.840   7.712  2.5771  1.5959 -0.0995
  257MOL0     H33890   2.538  10.693   7.723  0.7576  1.0623 -0.2249
  257MOL0     H33891   2.554  10.870   7.702 -1.5595 -0.3408 -1.6994
  257MOL0     H33892   2.344  10.897   7.722  5.1046  0.1882  0.6737
  257MOL0     H33893   2.320  10.790   7.870 -4.4937 -1.2342 -1.7329
  257MOL0     H33894   2.338  10.613   7.687  0.7777  0.8197 -0.0177
  257MOL0     H33895   2.316  10.740   7.571  1.4697 -0.9766  0.2249
  257MOL0     H33896   2.134  10.688   7.816  3.1724  0.1950 -0.4211
  257MOL0     H33897   2.129  10.824   7.694 -1.8308  0.9850  3.1172
  257MOL0     H33898   2.080  10.529   7.650 -2.2370 -0.2478 -0.7041
  257MOL0     H33899   2.097  10.654   7.522  0.4816 -2.4834 -0.8571
  257MOL0     H33900   1.876  10.591   7.708  2.5899 -1.4797  0.6162
  257MOL0     H33901   1.866  10.609   7.527 -0.5576 -1.0334  0.4832
  257MOL0     H33902   1.901  10.856   7.699  0.4063  1.3805 -0.0215
  257MOL0     H33903   1.887  10.841   7.519 -0.1318 -0.9126 -0.3773
  257MOL0     H33904   1.698  10.921   7.601  1.8126 -0.9300 -1.3961
  257MOL0     H33905   1.686  10.802   7.741  0.0710  0.9262  0.1810
  257MOL0     H33906   2.666  10.844   8.133  0.1295 -0.8109 -0.3232
  257MOL0     H33907   2.918  10.868   8.182  1.4114 -0.1219 -0.7998
  257MOL0     H33908   3.332  11.171   8.070 -3.2716 -2.1118  1.7548
  257MOL0     H33909   3.610  11.146   8.034  1.5113 -0.8059 -4.0956
  257MOL0     H33910   5.310  10.853   8.739 -0.1675 -1.1878  0.5786
  257MOL0     H33911   5.551  10.824   8.777 -1.7652 -1.4776 -0.7672
  257MOL0     H33912   5.878  10.412   8.989  0.9554 -0.3513  0.2164
  257MOL0     H33913   6.093  10.380   8.879 -4.1552 -2.2061 -2.6023
  257MOL0     H33914   6.340  10.719   8.812  3.6435 -1.7638 -0.7688
  257MOL0     H33915   6.279  10.697   8.634  0.1993 -0.5386 -1.5184
  257MOL0     H33916   6.449  10.545   8.592  2.8064 -0.7806 -0.3890
  257MOL0     H33917   6.507  10.694   8.652  0.1109 -0.0216 -0.2668
  257MOL0     H33918   6.546  10.568   8.889  0.0032 -0.4009  0.1061
  257MOL0     H33919   6.631  10.512   8.735  0.3597  0.6896 -1.3104
  257MOL0     H33920   6.381  10.400   8.873  0.7107  0.1165  1.1312
  257MOL0     H33921   6.445  10.356   8.710 -1.7189  3.5933 -1.4918
  257MOL0     H33922   6.737  10.161   8.967 -1.2552 -1.2679  0.6910
  257MOL0     H33923   6.090  10.775   8.753 -0.9463  0.1812  0.2240
  257MOL0     H33924   5.861  10.803   8.804  1.4926  1.7097 -0.0605
  258MOL0     O33925  10.196   1.685  10.902  0.9762 -0.1027  0.1205
  258MOL0     C33926  10.180   1.798  10.852  0.2951  0.1183  0.0847
  258MOL0     O33927  10.067   1.877  10.860 -0.3998  0.5101 -0.1801
  258MOL0     C33928   9.950   1.819  10.901 -0.5970 -0.3078 -1.3017
  258MOL0     C33929   9.902   1.704  10.839  0.9947  0.1786 -0.5799
  258MOL0     C33930   9.773   1.655  10.878 -0.6078 -0.3359 -0.2062
  258MOL0     C33931   9.698   1.713  10.977 -0.4152  0.2050  0.3330
  258MOL0     O33932   9.582   1.651  11.012 -1.2351 -0.4712 -0.3664
  258MOL0     C33933   9.506   1.704  11.127  0.1176 -0.0343  0.8114
  258MOL0     C33934   9.375   1.621  11.148 -0.6213 -0.3268 -0.4120
  258MOL0     C33935   9.285   1.663  11.260 -0.6135 -0.0182  0.0497
  258MOL0     C33936   9.215   1.785  11.200 -0.8737 -0.1305  1.4897
  258MOL0     C33937   9.136   1.848  11.301  0.1170  0.3715 -0.0068
  258MOL0     C33938   8.983   1.816  11.303  0.3750 -0.1187  0.6004
  258MOL0     C33939   8.946   1.669  11.347 -0.4973 -0.1299  0.1816
  258MOL0     C33940   9.011   1.635  11.481 -0.2361  0.4131 -0.6815
  258MOL0     N33941   8.985   1.723  11.593  0.1783 -0.2718 -0.9114
  258MOL0     C33942   8.873   1.799  11.621  0.2704  0.3335 -0.2622
  258MOL0     C33943   8.902   1.875  11.721 -1.1883 -0.0868 -0.0027
  258MOL0     C33944   8.815   1.982  11.775  0.2410  0.5092  0.1447
  258MOL0     C33945   8.881   2.116  11.787 -0.1128  0.3524  0.1902
  258MOL0     C33946   8.907   2.176  11.651 -0.0864  1.0336  0.0625
  258MOL0     C33947   9.053   2.170  11.611  0.1401 -0.1240  0.1510
  258MOL0     O33948   9.069   2.172  11.462 -0.5546 -0.3555 -0.1392
  258MOL0     C33949   9.042   2.293  11.400 -0.1028  0.4808 -0.1530
  258MOL0     C33950   9.027   2.420  11.460 -0.8294 -0.7075  0.4217
  258MOL0     C33951   8.989   2.528  11.383  0.3498  0.0260 -1.0196
  258MOL0     C33952   8.961   2.520  11.247  0.4055 -0.7855  0.2066
  258MOL0     C33953   8.922   2.649  11.182 -0.1165 -0.2956  0.5773
  258MOL0     O33954   8.864   2.635  11.060 -0.7817  0.0311 -0.3273
  258MOL0     C33955   8.801   2.744  11.016 -1.0181 -0.4822  0.4390
  258MOL0     C33956   8.664   2.754  11.024  0.7187  0.0129  0.3076
  258MOL0     C33957   8.600   2.876  10.982 -0.6374  0.2746  0.0995
  258MOL0     C33958   8.673   2.983  10.935 -0.0410 -0.1973 -0.9120
  258MOL0     O33959   8.605   3.101  10.916 -0.4790 -0.1916  0.0988
  258MOL0     C33960   8.646   3.189  10.815  0.3221 -0.8457  0.3120
  258MOL0     C33961   8.523   3.211  10.728 -0.4147  1.0276 -0.0564
  258MOL0     C33962   8.404   3.288  10.787 -0.4518 -1.0934  0.1245
  258MOL0     C33963   8.279   3.283  10.699  0.2367  0.5482  0.2570
  258MOL0     C33964   8.227   3.134  10.713  0.2652  0.7247 -0.1115
  258MOL0     C33965   8.112   3.119  10.612 -0.1625  0.1165  0.2253
  258MOL0     C33966   8.145   3.159  10.462 -0.6215 -0.0411  0.3912
  258MOL0     C33967   8.040   3.123  10.355 -0.2093  0.0768  0.7927
  258MOL0    Cl33968   8.024   2.949  10.338  0.3614  0.3675 -0.1339
  258MOL0     C33969   8.816   2.970  10.919 -0.0003  0.2110 -0.0420
  258MOL0     C33970   8.877   2.854  10.970  0.1332  0.1144  0.6433
  258MOL0     O33971   8.939   2.759  11.237  0.0319  0.6953 -0.0621
  258MOL0     C33972   8.961   2.397  11.181  0.0414 -0.0640 -0.2046
  258MOL0     C33973   9.001   2.287  11.261 -0.6712 -0.7855 -0.8150
  258MOL0     N33974   9.030   1.848  11.759 -1.3537 -0.4661  0.5791
  258MOL0     N33975   9.084   1.755  11.680  0.3500 -0.1010  0.3344
  258MOL0     C33976   9.753   1.826  11.038 -0.5526 -0.0699 -0.4338
  258MOL0     C33977   9.874   1.879  11.001 -0.6278 -0.7225  1.3815
  258MOL0     C33978  10.297   1.858  10.786 -0.7157 -0.0917 -0.4005
  258MOL0     C33979  10.431   1.804  10.802  0.3497 -0.5699  0.5524
  258MOL0     C33980  10.541   1.880  10.753 -0.2785  0.4830  0.8133
  258MOL0     C33981  10.519   2.003  10.692 -0.5818  1.0062 -0.1006
  258MOL0     O33982  10.626   2.074  10.648  0.5856  0.2265  0.3466
  258MOL0     C33983  10.609   2.129  10.517  0.5782  0.6253 -0.5595
  258MOL0     C33984  10.720   2.072  10.417 -0.2986  0.7898  0.0168
  258MOL0     C33985  10.854   2.096  10.478 -0.2310 -0.1722 -0.0044
  258MOL0     C33986  10.894   2.241  10.520  0.6098 -0.0399 -0.6137
  258MOL0     C33987  11.036   2.253  10.528  0.1864  0.5248 -0.5787
  258MOL0     C33988  11.154   2.282  10.546 -0.5242  0.2760 -0.2614
  258MOL0     C33989  10.389   2.051  10.684  0.8718  0.2495  0.4870
  258MOL0     C33990  10.277   1.978  10.723 -0.1228  0.1294  0.4791
  258MOL0     H33991   9.939   1.652  10.751 -0.9580 -0.7707 -0.9062
  258MOL0     H33992   9.724   1.575  10.823  0.9579 -1.9019  0.5521
  258MOL0     H33993   9.474   1.808  11.115 -1.7890 -0.7775 -1.2553
  258MOL0     H33994   9.578   1.693  11.208  0.3003  1.3365  0.8564
  258MOL0     H33995   9.415   1.521  11.166  0.4745  0.2746  0.6057
  258MOL0     H33996   9.314   1.626  11.057 -1.8006  0.4335  0.3848
  258MOL0     H33997   9.338   1.695  11.350 -1.3957  2.2316 -0.2197
  258MOL0     H33998   9.221   1.578  11.287  1.3057 -1.6820 -0.4337
  258MOL0     H33999   9.288   1.856  11.161 -1.5085  1.4439  3.0636
  258MOL0     H34000   9.152   1.754  11.115 -0.7996 -0.6116  1.6041
  258MOL0     H34001   9.132   1.957  11.288 -3.0181  0.2910 -0.4240
  258MOL0     H34002   9.172   1.828  11.402 -2.0144 -1.6157  0.4265
  258MOL0     H34003   8.930   1.845  11.212  1.8752  1.5269  0.1984
  258MOL0     H34004   8.941   1.883  11.379 -2.8161  0.8487 -1.8251
  258MOL0     H34005   8.837   1.659  11.351 -0.4233 -0.9975  4.1694
  258MOL0     H34006   8.989   1.593  11.280  2.5739  2.0824 -0.5790
  258MOL0     H34007   9.120   1.625  11.475 -0.3175 -0.2010 -1.3403
  258MOL0     H34008   8.967   1.536  11.493  0.5753 -0.2044 -2.3670
  258MOL0     H34009   8.783   1.809  11.561  1.0452  2.0156 -1.2086
  258MOL0     H34010   8.783   1.953  11.876  0.7058 -2.2096 -0.3949
  258MOL0     H34011   8.731   1.998  11.707  2.4808  1.4664 -2.5404
  258MOL0     H34012   8.966   2.110  11.856  1.7754 -1.2605 -2.1117
  258MOL0     H34013   8.809   2.187  11.828 -1.4231 -1.8146  1.8651
  258MOL0     H34014   8.857   2.119  11.572  0.9567  2.2906 -1.5536
  258MOL0     H34015   8.873   2.280  11.647  4.5950  2.7755 -0.1294
  258MOL0     H34016   9.093   2.073  11.643  0.9101 -0.0677 -0.5953
  258MOL0     H34017   9.116   2.243  11.662 -0.1952 -0.7712  1.5450
  258MOL0     H34018   9.059   2.440  11.562 -0.5217 -0.8032  0.3468
  258MOL0     H34019   8.992   2.624  11.434  2.4926 -0.8092  0.5735
  258MOL0     H34020   8.610   2.668  11.063 -1.5940  0.2679 -2.0508
  258MOL0     H34021   8.492   2.879  10.976 -0.8742 -2.9584  0.6750
  258MOL0     H34022   8.714   3.146  10.741  0.0758 -0.6682 -0.0247
  258MOL0     H34023   8.681   3.280  10.865 -0.1451 -0.9549  0.8498
  258MOL0     H34024   8.493   3.110  10.699  0.8871 -0.1133  2.1848
  258MOL0     H34025   8.558   3.264  10.639  4.9600 -1.6860 -0.0314
  258MOL0     H34026   8.439   3.391  10.790 -1.0826 -0.8017 -1.6829
  258MOL0     H34027   8.385   3.254  10.890  1.5307 -1.1404  0.5172
  258MOL0     H34028   8.201   3.343  10.747  1.8414  1.2704  2.0600
  258MOL0     H34029   8.297   3.318  10.597  1.5894  0.1091  0.3254
  258MOL0     H34030   8.190   3.117  10.814 -0.9107  2.8573 -0.1281
  258MOL0     H34031   8.299   3.051  10.707 -1.2978 -1.1300  3.6001
  258MOL0     H34032   8.028   3.183  10.643 -0.5063 -0.1643 -0.1327
  258MOL0     H34033   8.082   3.014  10.612  0.9846 -0.2403  1.2150
  258MOL0     H34034   8.162   3.267  10.464 -1.4140  0.0883  2.5200
  258MOL0     H34035   8.234   3.113  10.419 -0.0542  0.5056  0.9488
  258MOL0     H34036   8.069   3.167  10.259 -1.2105  0.1657  0.5175
  258MOL0     H34037   7.939   3.153  10.385  0.6512  2.1809  1.7959
  258MOL0     H34038   8.873   3.045  10.865  0.7102 -1.1532 -1.2714
  258MOL0     H34039   8.984   2.839  10.973  0.2266  0.3592 -0.6969
  258MOL0     H34040   8.946   2.382  11.075  2.6201  2.8961 -1.1272
  258MOL0     H34041   9.014   2.189  11.215 -4.4511 -0.3830 -3.1359
  258MOL0     H34042   9.709   1.864  11.129  4.1663 -0.9146  2.5436
  258MOL0     H34043   9.908   1.967  11.054 -2.5447  0.2614  1.0493
  258MOL0     H34044  10.446   1.706  10.847  0.6018  0.0375  1.8396
  258MOL0     H34045  10.645   1.847  10.755 -0.6453 -0.7927 -0.4408
  258MOL0     H34046  10.629   2.237  10.518  2.8060  0.2525  0.2385
  258MOL0     H34047  10.515   2.099  10.470  1.8229 -0.6977 -2.3526
  258MOL0     H34048  10.700   1.966  10.401 -1.0264  1.2563 -2.7818
  258MOL0     H34049  10.702   2.113  10.317  0.4299  3.4390  0.8962
  258MOL0     H34050  10.916   2.071  10.391 -1.1011  0.1417 -0.7311
  258MOL0     H34051  10.876   2.021  10.554  0.8926 -2.2762 -2.2508
  258MOL0     H34052  10.849   2.317  10.455 -0.2586  0.8975  1.0144
  258MOL0     H34053  10.855   2.263  10.620 -2.0506  0.7059 -1.7223
  258MOL0     H34054  11.259   2.300  10.561 -0.6008 -0.9227  2.0971
  258MOL0     H34055  10.383   2.147  10.635  0.2111  1.1232  2.1837
  258MOL0     H34056  10.179   2.026  10.720 -0.7379 -1.1476 -1.5415
  259MOL0     O34057  11.237   5.253   8.586  0.3525 -0.1408  0.0405
  259MOL0     C34058  11.259   5.144   8.635 -0.1096  1.4564 -0.1705
  259MOL0     O34059  11.168   5.058   8.662 -0.2449 -1.0478  0.1869
  259MOL0     C34060  11.038   5.072   8.637 -0.0974  1.2677  0.1616
  259MOL0     C34061  10.959   4.958   8.677 -0.5381  0.5202 -1.4423
  259MOL0     C34062  10.823   4.951   8.666 -0.1022  1.2374  0.3401
  259MOL0     C34063  10.751   5.060   8.615 -0.9002  0.2274 -0.0115
  259MOL0     O34064  10.616   5.052   8.640 -0.1372 -0.3972  0.1476
  259MOL0     C34065  10.525   5.159   8.608 -1.1778  0.0256 -0.1241
  259MOL0     C34066  10.412   5.148   8.703  0.5778  0.7669  0.9316
  259MOL0     C34067  10.446   5.216   8.837  0.4193  0.5437  0.4991
  259MOL0     C34068  10.330   5.212   8.936  0.5229 -0.3844 -0.4685
  259MOL0     C34069  10.350   5.331   9.034  0.5842 -0.2850 -0.2551
  259MOL0     C34070  10.248   5.326   9.148 -0.2422  0.1213  0.3763
  259MOL0     C34071  10.102   5.352   9.115  0.4513 -0.7521  0.1305
  259MOL0     C34072  10.027   5.376   9.246 -0.7291 -0.3098  0.0942
  259MOL0     N34073   9.888   5.420   9.212  0.1225 -0.0329  0.0683
  259MOL0     C34074   9.778   5.418   9.296  0.2056 -0.3854 -0.4004
  259MOL0     C34075   9.670   5.468   9.225  0.7535 -0.5801 -1.0065
  259MOL0     C34076   9.540   5.485   9.290  1.0505  0.3292 -0.4055
  259MOL0     C34077   9.540   5.593   9.395  0.3224  0.2401  0.3707
  259MOL0     C34078   9.403   5.648   9.435  0.5484  0.2086  0.2415
  259MOL0     C34079   9.321   5.583   9.545  0.0504 -0.5604 -0.6555
  259MOL0     O34080   9.213   5.670   9.587 -0.0578  0.1283 -0.0197
  259MOL0     C34081   9.091   5.664   9.530  0.4945  0.3349  0.0942
  259MOL0     C34082   8.986   5.736   9.594  0.4941  0.3136  0.5744
  259MOL0     C34083   8.865   5.762   9.526 -0.1783 -0.5454  0.3042
  259MOL0     C34084   8.843   5.701   9.399  0.3384 -0.4025 -0.4862
  259MOL0     C34085   8.713   5.704   9.331 -0.1952  1.1655 -1.1551
  259MOL0     O34086   8.620   5.781   9.390 -0.0302 -0.3939  0.4777
  259MOL0     C34087   8.491   5.787   9.332  0.0358 -1.1091 -0.4699
  259MOL0     C34088   8.383   5.695   9.364  0.5098  0.1410  0.4053
  259MOL0     C34089   8.260   5.703   9.300 -1.2291  0.0554 -0.3006
  259MOL0     C34090   8.249   5.785   9.195 -0.2599 -0.4309 -0.2817
  259MOL0     O34091   8.130   5.776   9.125  0.3303 -0.4845  0.0712
  259MOL0     C34092   8.107   5.849   9.006 -0.0257 -0.6025  0.1120
  259MOL0     C34093   7.975   5.827   8.936  0.3997 -0.1831 -1.0512
  259MOL0     C34094   7.851   5.873   9.018  0.5404  0.2133  0.0191
  259MOL0     C34095   7.710   5.865   8.951 -1.0439  0.6643  0.4277
  259MOL0     C34096   7.604   5.931   9.037  0.4482  0.5458  0.6157
  259MOL0     C34097   7.470   5.945   8.965 -0.5389  0.2274 -0.0851
  259MOL0     C34098   7.345   5.934   9.064 -0.3817 -0.3450  0.9516
  259MOL0     C34099   7.316   5.779   9.090  0.2045  0.3126  0.6316
  259MOL0    Cl34100   7.161   5.778   9.196 -0.2075 -0.2755  0.0778
  259MOL0     C34101   8.350   5.872   9.153 -0.2736  0.0449  0.6287
  259MOL0     C34102   8.469   5.875   9.225 -0.4270 -0.5644 -0.4470
  259MOL0     O34103   8.687   5.609   9.253 -0.2596 -0.3588 -0.6148
  259MOL0     C34104   8.950   5.631   9.344  0.3801 -0.7383 -0.2814
  259MOL0     C34105   9.074   5.616   9.402 -0.0203 -0.1159  1.3018
  259MOL0     N34106   9.715   5.510   9.105 -0.1054  0.0384 -0.3516
  259MOL0     N34107   9.843   5.468   9.097  0.4409  0.7140  0.6278
  259MOL0     C34108  10.826   5.168   8.560  0.2635  0.3986 -0.3489
  259MOL0     C34109  10.965   5.167   8.569 -0.5493  0.3014 -0.7073
  259MOL0     C34110  11.407   5.102   8.665 -0.5372 -1.3927 -0.0352
  259MOL0     C34111  11.500   5.168   8.584  0.3388  0.6840  0.9091
  259MOL0     C34112  11.634   5.140   8.600 -0.2501  0.1194  0.6250
  259MOL0     C34113  11.672   5.035   8.688  0.1796  0.1638  0.4393
  259MOL0     O34114  11.800   4.988   8.687 -0.0220  0.2052 -0.0877
  259MOL0     C34115  11.880   4.988   8.566 -0.0460 -0.5824  0.2464
  259MOL0     C34116  11.995   5.075   8.598 -0.3834 -0.1911  0.5220
  259MOL0     C34117  12.092   5.032   8.712 -0.0983  0.0227 -0.5077
  259MOL0     C34118  12.205   5.138   8.730  0.6596  0.3867  0.4169
  259MOL0     C34119  12.150   5.267   8.778  0.1697 -0.0816  0.7275
  259MOL0     C34120  12.120   5.375   8.824 -0.3818  0.5195 -0.6752
  259MOL0     C34121  11.581   4.971   8.784 -0.0698 -0.8495  0.5543
  259MOL0     C34122  11.448   5.004   8.765  0.1063  0.1436  0.8247
  259MOL0     H34123  11.013   4.874   8.720 -1.8670  0.2735 -0.1591
  259MOL0     H34124  10.779   4.859   8.705 -0.8229  1.9190  1.1829
  259MOL0     H34125  10.498   5.143   8.503  0.2623 -0.0364 -0.5181
  259MOL0     H34126  10.569   5.260   8.612 -2.2982  0.5370 -0.4676
  259MOL0     H34127  10.378   5.044   8.707  1.9978  0.2811  1.1377
  259MOL0     H34128  10.334   5.207   8.655 -1.2189 -0.8023  1.8035
  259MOL0     H34129  10.474   5.319   8.816  2.0634  0.1229  0.4995
  259MOL0     H34130  10.541   5.182   8.879  1.1973  2.7390  0.6144
  259MOL0     H34131  10.233   5.222   8.887  0.7566 -1.1502 -1.1143
  259MOL0     H34132  10.336   5.118   8.992 -3.8518  1.6216  4.2682
  259MOL0     H34133  10.322   5.423   8.981  1.2108 -0.1407 -0.3464
  259MOL0     H34134  10.454   5.339   9.065  0.6142  1.1745 -0.6425
  259MOL0     H34135  10.276   5.391   9.232 -1.3250  1.3885 -0.1888
  259MOL0     H34136  10.244   5.222   9.181 -2.0146  0.0022 -0.1250
  259MOL0     H34137  10.092   5.444   9.057  0.6214  0.3753  1.8114
  259MOL0     H34138  10.052   5.269   9.065 -0.5851  0.7760 -1.4727
  259MOL0     H34139  10.073   5.449   9.313  1.4222 -1.8367  0.3686
  259MOL0     H34140  10.018   5.284   9.303 -1.9448  1.1123  2.3465
  259MOL0     H34141   9.771   5.384   9.399  1.4482 -1.4306 -0.6393
  259MOL0     H34142   9.512   5.385   9.325  1.9365  0.1747 -0.1136
  259MOL0     H34143   9.475   5.517   9.208  2.1387 -2.6237 -2.5973
  259MOL0     H34144   9.597   5.677   9.353 -2.2221  1.2680 -1.3083
  259MOL0     H34145   9.590   5.565   9.488  1.4068 -1.1410 -0.6014
  259MOL0     H34146   9.417   5.752   9.465  4.5873  0.1153 -0.7599
  259MOL0     H34147   9.345   5.644   9.342  1.5121 -0.2487 -0.3580
  259MOL0     H34148   9.391   5.569   9.629 -0.0604  0.8310 -0.3058
  259MOL0     H34149   9.282   5.487   9.511 -0.7785  0.3556 -2.3919
  259MOL0     H34150   9.004   5.788   9.688 -1.3180  1.8462  0.1498
  259MOL0     H34151   8.785   5.808   9.583 -0.7149 -2.1327  0.8821
  259MOL0     H34152   8.395   5.626   9.447  1.7831  1.6342  1.5343
  259MOL0     H34153   8.174   5.639   9.320 -3.6666  3.1121 -0.2009
  259MOL0     H34154   8.196   5.828   8.947  1.6882 -2.9638  3.2171
  259MOL0     H34155   8.121   5.954   9.033 -0.3749 -0.6959  0.6922
  259MOL0     H34156   7.964   5.721   8.912  1.6895 -0.5662 -0.1009
  259MOL0     H34157   7.984   5.882   8.842  2.6778  1.4984  0.0592
  259MOL0     H34158   7.875   5.978   9.034  1.6693  0.3523 -2.1906
  259MOL0     H34159   7.845   5.830   9.119 -0.5882  1.7275  0.6365
  259MOL0     H34160   7.720   5.918   8.856  1.7836 -0.7099 -0.1564
  259MOL0     H34161   7.691   5.759   8.932 -1.7533  0.8413  0.1523
  259MOL0     H34162   7.636   6.023   9.086 -2.1220  0.9911  1.5524
  259MOL0     H34163   7.584   5.859   9.117  1.0173  0.1970  0.4512
  259MOL0     H34164   7.452   5.874   8.884 -1.8947 -2.7769  2.6504
  259MOL0     H34165   7.478   6.048   8.928  2.5198  0.5863  1.2787
  259MOL0     H34166   7.371   5.995   9.151  1.8839  1.0618 -0.5957
  259MOL0     H34167   7.258   5.983   9.019  1.0783  1.6924  0.1622
  259MOL0     H34168   7.401   5.724   9.130  1.5437 -1.4455 -3.9656
  259MOL0     H34169   7.295   5.727   8.996  0.3706  0.6494  0.4073
  259MOL0     H34170   8.337   5.938   9.068  1.2286 -2.4514 -1.6687
  259MOL0     H34171   8.545   5.947   9.199 -0.2477 -1.0237 -1.2196
  259MOL0     H34172   8.927   5.593   9.245 -1.7967 -2.3207  0.7238
  259MOL0     H34173   9.143   5.563   9.338 -0.6480  0.0675  0.4628
  259MOL0     H34174  10.771   5.249   8.512 -1.6327 -0.3119  0.5042
  259MOL0     H34175  11.017   5.245   8.513  1.0443 -0.3775 -0.2395
  259MOL0     H34176  11.461   5.232   8.506 -0.8101 -1.5252 -0.4240
  259MOL0     H34177  11.708   5.202   8.552  0.6281 -0.2550  1.4560
  259MOL0     H34178  11.815   5.024   8.485  2.0037 -0.3846 -1.3873
  259MOL0     H34179  11.917   4.888   8.542  1.6394 -0.1616  0.9680
  259MOL0     H34180  12.055   5.078   8.507 -0.4066 -1.1797  0.4698
  259MOL0     H34181  11.956   5.177   8.605 -0.6119 -0.2370 -0.0757
  259MOL0     H34182  12.122   4.931   8.685 -1.8962 -1.0200  1.1894
  259MOL0     H34183  12.041   5.026   8.809  4.3580  0.1975  2.0872
  259MOL0     H34184  12.268   5.093   8.807  1.1029 -0.0885 -0.2142
  259MOL0     H34185  12.263   5.139   8.637 -1.8799  0.2517 -1.2845
  259MOL0     H34186  12.095   5.471   8.864 -1.0354  0.2895 -0.5182
  259MOL0     H34187  11.611   4.898   8.858  0.2640 -0.5526  0.7140
  259MOL0     H34188  11.374   4.962   8.831 -0.4027  0.3778  0.4098
  260MOL0     O34189   2.221   6.583   4.516  1.4260  0.1758  0.3885
  260MOL0     C34190   2.303   6.565   4.429 -0.5689  0.1991  0.2163
  260MOL0     O34191   2.272   6.522   4.296 -0.5139  0.3711  0.3665
  260MOL0     C34192   2.138   6.508   4.250  0.3066  0.5075 -0.3406
  260MOL0     C34193   2.044   6.612   4.269  0.4398  0.8281  1.2857
  260MOL0     C34194   1.925   6.599   4.205 -0.9483 -0.1917  0.8003
  260MOL0     C34195   1.901   6.488   4.113 -0.5687 -0.9152 -0.6412
  260MOL0     O34196   1.786   6.464   4.045 -0.1141 -0.4570  0.0622
  260MOL0     C34197   1.661   6.504   4.091  0.0624 -0.5588 -0.3361
  260MOL0     C34198   1.567   6.463   3.985 -0.5824 -0.7711  0.1601
  260MOL0     C34199   1.566   6.309   3.952  1.4821  0.2233  1.1959
  260MOL0     C34200   1.447   6.266   3.857  0.4004 -0.2278 -0.2357
  260MOL0     C34201   1.440   6.114   3.838  0.1761  0.3285 -0.1747
  260MOL0     C34202   1.345   6.044   3.933  0.0590 -0.0268 -0.2768
  260MOL0     C34203   1.311   5.916   3.855  1.3528 -0.5874 -0.4257
  260MOL0     C34204   1.248   5.806   3.941 -0.7008 -0.2525  0.8727
  260MOL0     N34205   1.110   5.856   3.970  0.6064  0.1815 -0.0144
  260MOL0     C34206   1.062   5.886   4.102 -0.1569  0.2574  0.0199
  260MOL0     C34207   0.941   5.949   4.081 -0.0126 -0.6686 -0.2495
  260MOL0     C34208   0.854   6.005   4.200 -0.2502  0.0978  0.0074
  260MOL0     C34209   0.702   6.010   4.188 -0.2160  0.8940  0.4329
  260MOL0     C34210   0.634   6.053   4.309 -0.9273 -0.3822 -0.2112
  260MOL0     C34211   0.475   6.070   4.293  0.9168  0.1373 -0.4598
  260MOL0     O34212   0.432   6.180   4.369 -0.0492  0.7621 -0.0415
  260MOL0     C34213   0.317   6.244   4.355  0.9668 -0.0781  0.2804
  260MOL0     C34214   0.296   6.362   4.426 -0.3196  0.0659  0.3613
  260MOL0     C34215   0.181   6.440   4.420 -0.4676 -0.2055  1.0266
  260MOL0     C34216   0.069   6.391   4.351 -0.1226 -0.1547 -0.2541
  260MOL0     C34217  -0.057   6.467   4.337  0.7553  0.0046  0.5937
  260MOL0     O34218  -0.153   6.425   4.255  0.0239 -0.9297  0.3214
  260MOL0     C34219  -0.269   6.507   4.231  0.0255  0.6755 -0.0148
  260MOL0     C34220  -0.370   6.501   4.332 -0.5710  0.6672 -0.5074
  260MOL0     C34221  -0.489   6.570   4.300 -0.3862 -0.7965 -0.0912
  260MOL0     C34222  -0.509   6.630   4.178  0.3812  0.4499 -0.2201
  260MOL0     O34223  -0.636   6.680   4.151 -0.3752  0.7620 -0.2179
  260MOL0     C34224  -0.710   6.755   4.257  0.0311  0.1269 -0.5900
  260MOL0     C34225  -0.816   6.845   4.194  0.4265 -0.0222 -0.2507
  260MOL0     C34226  -0.926   6.758   4.134  1.1465  0.0339 -0.2269
  260MOL0     C34227  -1.029   6.834   4.044  0.6914 -0.2913  0.1807
  260MOL0     C34228  -1.127   6.755   3.959  0.1894  0.1407 -0.3947
  260MOL0     C34229  -1.231   6.842   3.894 -0.0094 -0.3817 -0.7210
  260MOL0     C34230  -1.173   6.941   3.787  0.0688  0.0938  0.1484
  260MOL0     C34231  -1.057   6.882   3.703  0.1049 -0.5284  0.7642
  260MOL0    Cl34232  -0.978   7.021   3.612  0.5136  0.1691 -0.1051
  260MOL0     C34233  -0.402   6.634   4.086  0.0803 -0.1420 -0.2596
  260MOL0     C34234  -0.290   6.558   4.106  0.1978 -0.5208  0.2649
  260MOL0     O34235  -0.059   6.575   4.396  0.0433  0.0323 -0.6740
  260MOL0     C34236   0.083   6.274   4.272  0.1674 -0.1889 -0.4194
  260MOL0     C34237   0.206   6.212   4.270  0.2328 -0.2093 -0.1325
  260MOL0     N34238   0.923   5.965   3.939  0.4559 -1.0618 -0.4086
  260MOL0     N34239   1.018   5.903   3.878  0.0719 -0.2377 -0.1871
  260MOL0     C34240   1.996   6.386   4.100  0.5736  0.1206 -1.5130
  260MOL0     C34241   2.115   6.404   4.167  0.6254  1.2381 -0.7982
  260MOL0     C34242   2.450   6.564   4.470 -0.1733 -0.3062  0.3136
  260MOL0     C34243   2.497   6.564   4.606  0.4479 -0.6543  0.3176
  260MOL0     C34244   2.624   6.546   4.635 -1.0488  0.8330 -0.3706
  260MOL0     C34245   2.722   6.526   4.538 -0.3811  0.7513 -0.4730
  260MOL0     O34246   2.854   6.525   4.580  0.3244  0.6008  0.0584
  260MOL0     C34247   2.949   6.529   4.463  0.6197 -0.2740  0.6593
  260MOL0     C34248   2.968   6.401   4.394 -0.9855 -0.2410  0.5535
  260MOL0     C34249   2.969   6.281   4.491 -0.0119 -0.1031  0.7181
  260MOL0     C34250   3.037   6.152   4.433 -0.9516 -1.5571 -0.2424
  260MOL0     C34251   3.158   6.118   4.516  0.2397  0.4603  0.3096
  260MOL0     C34252   3.243   6.069   4.588  0.2791 -0.0388  0.1733
  260MOL0     C34253   2.681   6.527   4.405 -0.2572  0.6162  0.3509
  260MOL0     C34254   2.547   6.549   4.367 -0.6078  0.7077 -0.2857
  260MOL0     H34255   2.068   6.701   4.327  1.6791  2.1582 -1.0758
  260MOL0     H34256   1.853   6.680   4.215 -0.3417  0.3531  0.8598
  260MOL0     H34257   1.656   6.612   4.109 -3.5445 -0.7322  0.4217
  260MOL0     H34258   1.635   6.454   4.185  0.4281 -2.4663 -1.1981
  260MOL0     H34259   1.594   6.516   3.893 -1.7800  2.4658  1.5215
  260MOL0     H34260   1.466   6.502   4.000 -0.7160  0.6844 -3.5390
  260MOL0     H34261   1.564   6.243   4.039  0.2157 -2.2109 -0.5797
  260MOL0     H34262   1.653   6.292   3.887  0.3096 -1.9359  0.0910
  260MOL0     H34263   1.351   6.292   3.902  0.1414  0.3544 -1.1207
  260MOL0     H34264   1.468   6.325   3.768  2.0604 -1.1588 -0.5075
  260MOL0     H34265   1.536   6.063   3.848 -0.3660 -0.3155  2.4687
  260MOL0     H34266   1.419   6.095   3.732  1.5043  3.2114 -1.0527
  260MOL0     H34267   1.255   6.104   3.948  0.5728  0.9893 -1.1544
  260MOL0     H34268   1.392   6.025   4.030 -1.5892  2.5479  1.1342
  260MOL0     H34269   1.239   5.938   3.775  0.7170 -0.7859  0.0912
  260MOL0     H34270   1.407   5.866   3.840  0.7060 -2.6967  1.8712
  260MOL0     H34271   1.312   5.792   4.029 -1.5018 -0.3814  1.4456
  260MOL0     H34272   1.251   5.713   3.884 -2.9635  0.6565 -0.9168
  260MOL0     H34273   1.102   5.861   4.199  0.0395 -1.5197 -0.4883
  260MOL0     H34274   0.885   6.109   4.219 -0.0950  0.3018 -1.3042
  260MOL0     H34275   0.881   5.943   4.286  3.0164  1.4716  0.0857
  260MOL0     H34276   0.650   5.914   4.178 -1.6208  1.2212  3.3561
  260MOL0     H34277   0.676   6.076   4.104  1.6398  0.6132 -0.4122
  260MOL0     H34278   0.652   5.972   4.380  0.6553 -1.0277 -1.3064
  260MOL0     H34279   0.687   6.145   4.337  3.4463 -2.1178 -1.8466
  260MOL0     H34280   0.414   5.986   4.327  0.6880  0.8413  0.9720
  260MOL0     H34281   0.443   6.092   4.191 -2.0571  2.4103  0.8025
  260MOL0     H34282   0.383   6.394   4.482  2.8353 -0.5170 -3.7588
  260MOL0     H34283   0.187   6.534   4.475 -1.4808  0.4168  0.1180
  260MOL0     H34284  -0.350   6.453   4.427 -3.1677 -1.1593 -0.7670
  260MOL0     H34285  -0.574   6.567   4.366 -0.8644  0.4736 -0.6001
  260MOL0     H34286  -0.647   6.813   4.325 -0.5555 -0.4883  0.5095
  260MOL0     H34287  -0.761   6.679   4.319  2.0343 -1.4271 -0.7359
  260MOL0     H34288  -0.771   6.894   4.107 -1.7463 -0.1640 -1.5230
  260MOL0     H34289  -0.856   6.923   4.260 -0.2485 -0.8335  0.3069
  260MOL0     H34290  -0.977   6.696   4.209  1.0134 -1.3310 -1.4111
  260MOL0     H34291  -0.880   6.686   4.066 -1.3151  1.0063 -3.1298
  260MOL0     H34292  -1.099   6.892   4.105 -1.4927 -2.7619  0.1993
  260MOL0     H34293  -0.972   6.911   3.990  0.1063  0.8393  1.1179
  260MOL0     H34294  -1.168   6.673   4.019  2.9299  0.2605  1.8342
  260MOL0     H34295  -1.069   6.707   3.879 -0.6280 -0.5122 -0.6149
  260MOL0     H34296  -1.297   6.893   3.965  0.3736 -2.7737  1.4905
  260MOL0     H34297  -1.304   6.776   3.847 -1.0889 -0.5727  1.1143
  260MOL0     H34298  -1.256   6.975   3.725  0.2945  0.8439  0.2462
  260MOL0     H34299  -1.144   7.035   3.836 -5.9514  3.5774 -1.9480
  260MOL0     H34300  -1.090   6.802   3.636  0.1274 -0.1072  0.2421
  260MOL0     H34301  -0.980   6.841   3.769  2.0625  1.3009 -0.2565
  260MOL0     H34302  -0.423   6.692   3.997  0.2722 -1.2069 -1.0224
  260MOL0     H34303  -0.208   6.540   4.037  0.5132  0.5254  0.3483
  260MOL0     H34304   0.004   6.254   4.200 -0.6749  2.0246 -0.1974
  260MOL0     H34305   0.220   6.139   4.190 -1.3245 -0.6739 -0.0095
  260MOL0     H34306   1.982   6.313   4.022  2.8931  0.6051 -2.4425
  260MOL0     H34307   2.199   6.337   4.151  1.3389  2.5756 -3.1658
  260MOL0     H34308   2.424   6.575   4.686 -1.8929 -0.9167 -1.6537
  260MOL0     H34309   2.665   6.553   4.735 -0.8869 -0.8769 -0.2858
  260MOL0     H34310   3.044   6.567   4.502 -0.2102  0.6742  1.8412
  260MOL0     H34311   2.918   6.611   4.397  1.8127 -1.6621 -1.7425
  260MOL0     H34312   2.896   6.378   4.315 -0.3091 -0.1400 -0.0990
  260MOL0     H34313   3.067   6.415   4.352 -0.1548 -1.2756  2.0708
  260MOL0     H34314   2.866   6.260   4.520 -1.6268  1.0383 -3.4257
  260MOL0     H34315   3.022   6.305   4.584  1.4243 -1.6382  0.3348
  260MOL0     H34316   2.976   6.061   4.427 -2.4690 -0.9063  2.9863
  260MOL0     H34317   3.075   6.173   4.333  0.2737 -0.8996  0.3258
  260MOL0     H34318   3.306   6.007   4.648 -0.2837 -2.9345 -2.0476
  260MOL0     H34319   2.743   6.525   4.316  0.5782 -2.9172  0.8459
  260MOL0     H34320   2.518   6.532   4.264  0.0293 -3.5713  0.0576
  261MOL0     O34321   3.082   7.857   2.249  0.5068  0.1373 -0.2573
  261MOL0     C34322   3.003   7.863   2.347 -0.2399  0.1597  0.0963
  261MOL0     O34323   2.974   7.983   2.416 -0.1201 -0.3195 -0.2939
  261MOL0     C34324   2.967   8.093   2.338  0.2219  0.5842 -0.0615
  261MOL0     C34325   3.079   8.160   2.277 -0.0179  0.1177 -0.0065
  261MOL0     C34326   3.056   8.275   2.198  0.6691 -0.1894 -0.3057
  261MOL0     C34327   2.924   8.312   2.163 -1.7157  0.0958  0.1623
  261MOL0     O34328   2.929   8.426   2.085 -0.1216  0.2537 -0.9552
  261MOL0     C34329   2.804   8.479   2.026  0.4020 -0.0566  0.1769
  261MOL0     C34330   2.750   8.581   2.118  0.1519  0.3140  0.1086
  261MOL0     C34331   2.597   8.605   2.114 -0.5677 -0.1518  0.1303
  261MOL0     C34332   2.558   8.746   2.163  0.1169  0.4660  0.9246
  261MOL0     C34333   2.409   8.778   2.118 -0.3705  1.1367  0.4871
  261MOL0     C34334   2.299   8.688   2.166  0.1874  0.6947  0.2008
  261MOL0     C34335   2.163   8.745   2.118  0.9106  0.8709  0.6683
  261MOL0     C34336   2.055   8.640   2.127 -0.4130  0.2705 -0.4964
  261MOL0     N34337   1.996   8.649   2.269  0.2343  0.1817 -0.1567
  261MOL0     C34338   2.014   8.560   2.368 -0.1815  0.6187 -0.4093
  261MOL0     C34339   1.967   8.621   2.479  0.4051 -0.7339  0.6749
  261MOL0     C34340   1.957   8.573   2.620  0.6064  0.9535  0.7831
  261MOL0     C34341   1.827   8.490   2.645 -0.0201 -0.0231  0.3200
  261MOL0     C34342   1.704   8.578   2.637  1.4034 -0.3673 -0.7574
  261MOL0     C34343   1.581   8.489   2.635  0.1020 -0.1191 -0.0846
  261MOL0     O34344   1.560   8.438   2.502 -0.0033  0.1524  0.9545
  261MOL0     C34345   1.520   8.305   2.500  0.0022 -0.0590 -0.1129
  261MOL0     C34346   1.580   8.211   2.415 -1.3856 -0.2110  0.9912
  261MOL0     C34347   1.561   8.067   2.426  0.6875 -0.3630 -0.1427
  261MOL0     C34348   1.474   8.021   2.522 -0.1821 -0.1447  0.1505
  261MOL0     C34349   1.458   7.875   2.531  0.5428 -0.3647 -1.0825
  261MOL0     O34350   1.431   7.826   2.659 -0.7217  0.7864  0.3539
  261MOL0     C34351   1.376   7.700   2.671 -0.3689 -0.2360 -0.3997
  261MOL0     C34352   1.252   7.671   2.636 -0.5282 -0.6159 -0.4058
  261MOL0     C34353   1.198   7.545   2.660  0.8104 -0.0200  0.6173
  261MOL0     C34354   1.281   7.446   2.722 -0.1246 -0.3758 -0.0525
  261MOL0     O34355   1.216   7.323   2.751 -0.6674  0.6437  0.0665
  261MOL0     C34356   1.242   7.261   2.873 -0.3314  0.1632 -0.3486
  261MOL0     C34357   1.148   7.142   2.871 -0.1459 -0.5961 -0.7098
  261MOL0     C34358   1.166   7.049   2.996 -1.0916 -1.2522 -1.1316
  261MOL0     C34359   1.065   6.941   3.009  0.7426 -0.5388 -0.1600
  261MOL0     C34360   1.069   6.853   3.130  0.6036 -0.2572  0.0598
  261MOL0     C34361   0.946   6.749   3.125  0.5580 -1.0945 -0.4416
  261MOL0     C34362   0.944   6.682   3.263 -0.9744 -0.4010 -0.3460
  261MOL0     C34363   0.946   6.772   3.380 -0.5241 -0.8155  0.3665
  261MOL0    Cl34364   0.914   6.663   3.520 -0.4458  0.1821  0.2510
  261MOL0     C34365   1.411   7.481   2.765 -0.0142 -0.1202  0.0841
  261MOL0     C34366   1.454   7.608   2.747 -0.6092 -0.3868  0.7905
  261MOL0     O34367   1.475   7.810   2.429  0.0896 -0.0302  0.6355
  261MOL0     C34368   1.415   8.109   2.604 -0.1016 -0.8180  0.3075
  261MOL0     C34369   1.443   8.245   2.603  0.0967 -1.1207  0.1925
  261MOL0     N34370   1.905   8.735   2.437  0.0188 -0.4964  0.6453
  261MOL0     N34371   1.918   8.749   2.308  0.3989  0.8372 -0.6994
  261MOL0     C34372   2.819   8.246   2.220  0.5694  1.0767  0.1674
  261MOL0     C34373   2.838   8.135   2.305  1.0485 -0.1987 -0.7959
  261MOL0     C34374   2.962   7.737   2.406  0.4738  0.0171 -0.7922
  261MOL0     C34375   2.980   7.620   2.330  0.6712 -0.3942 -0.0015
  261MOL0     C34376   2.935   7.498   2.377  0.1840 -0.6819  0.4151
  261MOL0     C34377   2.869   7.496   2.502 -0.4190 -0.6576  0.0595
  261MOL0     O34378   2.832   7.384   2.574  0.2238 -0.1338  0.1511
  261MOL0     C34379   2.844   7.251   2.520 -0.1734 -0.2051 -0.3562
  261MOL0     C34380   2.991   7.204   2.530  0.6112  0.4937  0.1559
  261MOL0     C34381   3.054   7.237   2.662 -0.3879  0.4706 -0.6055
  261MOL0     C34382   3.195   7.174   2.672 -0.1637 -0.7933 -0.2419
  261MOL0     C34383   3.239   7.214   2.807 -0.4824  0.4194  0.1695
  261MOL0     C34384   3.271   7.257   2.917  0.5354  0.0455  0.5972
  261MOL0     C34385   2.856   7.613   2.581  0.7235 -0.2636  0.5938
  261MOL0     C34386   2.894   7.732   2.532 -0.0158 -0.0750  0.0387
  261MOL0     H34387   3.177   8.116   2.287  0.3301  0.9197  0.1878
  261MOL0     H34388   3.145   8.322   2.158  1.0733 -0.0122  0.7755
  261MOL0     H34389   2.735   8.398   2.002 -0.7668  0.6043  1.2253
  261MOL0     H34390   2.833   8.531   1.934  3.4819  0.9704  1.5836
  261MOL0     H34391   2.793   8.671   2.074  0.0932  0.5183  0.4659
  261MOL0     H34392   2.792   8.597   2.217  1.9473 -0.8918 -0.4147
  261MOL0     H34393   2.535   8.530   2.163 -1.1460 -0.9526 -1.7224
  261MOL0     H34394   2.574   8.597   2.007  0.6537 -0.7730 -0.1047
  261MOL0     H34395   2.573   8.755   2.271 -2.3692  0.4136  1.3373
  261MOL0     H34396   2.628   8.817   2.118  0.8375 -1.2675 -0.7963
  261MOL0     H34397   2.403   8.752   2.012 -2.9507 -0.3423  0.9239
  261MOL0     H34398   2.384   8.883   2.131 -0.9228  1.3904 -2.1029
  261MOL0     H34399   2.287   8.663   2.272 -3.0218  1.0674  0.0466
  261MOL0     H34400   2.317   8.590   2.120  1.2643  1.5890 -1.3582
  261MOL0     H34401   2.137   8.833   2.178 -1.0740  0.9647 -0.2486
  261MOL0     H34402   2.177   8.780   2.016  0.8441  1.2167  0.7758
  261MOL0     H34403   2.092   8.537   2.118 -2.2268 -0.6511  1.4939
  261MOL0     H34404   1.978   8.650   2.050 -1.5517 -0.8471  0.4351
  261MOL0     H34405   2.058   8.461   2.362  0.1978  0.8447 -1.4425
  261MOL0     H34406   1.969   8.656   2.690  2.3311  2.0858 -0.7552
  261MOL0     H34407   2.046   8.513   2.638 -0.7007 -2.0761 -1.9498
  261MOL0     H34408   1.830   8.442   2.743 -1.5932 -2.3657 -0.6742
  261MOL0     H34409   1.835   8.405   2.576  0.6508 -0.4247  0.8831
  261MOL0     H34410   1.697   8.644   2.724  0.3619  2.1117 -2.6210
  261MOL0     H34411   1.703   8.638   2.546  2.9046  0.6451 -0.1635
  261MOL0     H34412   1.493   8.542   2.673 -1.4727 -3.9875  2.1679
  261MOL0     H34413   1.593   8.412   2.711  1.1962  0.9143  0.8360
  261MOL0     H34414   1.657   8.252   2.350  0.0814  2.1625  3.9676
  261MOL0     H34415   1.609   7.996   2.360  0.9545 -1.2425  0.9632
  261MOL0     H34416   1.173   7.736   2.602  0.1876  1.0579  0.9570
  261MOL0     H34417   1.098   7.513   2.634  0.6048  0.6226  0.6011
  261MOL0     H34418   1.210   7.335   2.947 -0.9224 -0.4960  0.0718
  261MOL0     H34419   1.348   7.236   2.877  0.4870  3.1069 -0.9668
  261MOL0     H34420   1.162   7.081   2.782  0.4906  1.1496 -1.8460
  261MOL0     H34421   1.045   7.176   2.861 -0.9237 -1.8240  1.9530
  261MOL0     H34422   1.155   7.116   3.082  3.3938 -2.0115  0.2797
  261MOL0     H34423   1.270   7.018   2.987 -0.3573  1.3511 -2.8065
  261MOL0     H34424   0.966   6.984   2.990  0.8000  0.2374  1.1410
  261MOL0     H34425   1.085   6.883   2.918 -2.3455  2.9263 -3.4406
  261MOL0     H34426   1.059   6.915   3.219  1.5307 -0.9150  0.6347
  261MOL0     H34427   1.160   6.793   3.135  1.0867  0.5359  1.1081
  261MOL0     H34428   0.965   6.676   3.046 -1.3023 -0.9840 -1.0136
  261MOL0     H34429   0.852   6.804   3.118  2.1152  1.8091 -0.1997
  261MOL0     H34430   0.856   6.617   3.271 -1.4287  0.2315 -0.1597
  261MOL0     H34431   1.028   6.613   3.276  0.9052  2.0099  0.9704
  261MOL0     H34432   0.877   6.856   3.368  2.5633  2.0084  1.0057
  261MOL0     H34433   1.042   6.812   3.414 -1.1256  1.5858 -0.6123
  261MOL0     H34434   1.475   7.412   2.818  1.7140  1.0123 -0.4469
  261MOL0     H34435   1.556   7.638   2.771 -1.0291 -0.2633  2.5677
  261MOL0     H34436   1.360   8.078   2.692 -2.2202  0.0967 -0.6100
  261MOL0     H34437   1.412   8.307   2.686  0.3473 -1.6339  0.6813
  261MOL0     H34438   2.714   8.273   2.221  0.0940 -0.5965 -0.7667
  261MOL0     H34439   2.745   8.090   2.339 -0.7333  3.3488 -0.4459
  261MOL0     H34440   3.038   7.607   2.239  1.2012 -2.7076  0.6095
  261MOL0     H34441   2.940   7.405   2.321 -1.9300 -0.3908 -0.3446
  261MOL0     H34442   2.796   7.231   2.423  1.3666  1.0690 -1.4277
  261MOL0     H34443   2.792   7.193   2.597  1.6581 -0.4840  0.7324
  261MOL0     H34444   3.017   7.103   2.499  3.2143  0.9445  0.6702
  261MOL0     H34445   3.040   7.255   2.446  0.8665 -1.4573 -0.9391
  261MOL0     H34446   2.998   7.191   2.744  0.8219  0.4155  0.2109
  261MOL0     H34447   3.048   7.344   2.686 -2.1686 -0.1289  2.1048
  261MOL0     H34448   3.188   7.066   2.664 -5.0205 -0.9540  2.6470
  261MOL0     H34449   3.263   7.232   2.608  0.0881 -2.4123 -1.4970
  261MOL0     H34450   3.284   7.290   3.018 -1.3357  1.9897  0.2829
  261MOL0     H34451   2.814   7.619   2.681  1.2750 -1.2262  0.8882
  261MOL0     H34452   2.882   7.822   2.591  1.4500 -0.6858  1.3100
  262MOL0     O34453  10.366   0.957   7.440 -0.6292  0.0619 -0.1052
  262MOL0     C34454  10.355   1.080   7.452  0.6627  0.1626 -0.3676
  262MOL0     O34455  10.233   1.150   7.443 -0.5281 -0.5756 -0.7618
  262MOL0     C34456  10.111   1.085   7.429 -0.4566 -0.7269 -0.1355
  262MOL0     C34457  10.012   1.159   7.478  0.4069  1.0423 -0.5076
  262MOL0     C34458   9.881   1.112   7.470  0.2028 -0.0624  0.2498
  262MOL0     C34459   9.851   0.984   7.414 -0.2366 -0.7082 -0.6801
  262MOL0     O34460   9.718   0.947   7.414 -0.3521  0.8255 -0.2678
  262MOL0     C34461   9.675   0.807   7.409 -0.8247  0.0040 -1.0916
  262MOL0     C34462   9.537   0.781   7.467  0.3021 -0.4680 -0.4186
  262MOL0     C34463   9.537   0.824   7.611  0.4855  0.7264 -0.8496
  262MOL0     C34464   9.413   0.812   7.689  0.2332  0.1680 -0.4555
  262MOL0     C34465   9.378   0.668   7.716  0.0580 -0.7523 -0.1102
  262MOL0     C34466   9.252   0.652   7.792 -0.0447 -0.3105  0.6429
  262MOL0     C34467   9.236   0.509   7.832 -0.1202  0.4307 -1.1939
  262MOL0     C34468   9.111   0.489   7.930 -0.3334  0.5055  0.3299
  262MOL0     N34469   9.107   0.358   8.010  0.1973  0.1825  0.2107
  262MOL0     C34470   9.214   0.289   8.059  0.5802 -0.6315  1.4568
  262MOL0     C34471   9.161   0.195   8.140 -0.8289 -0.1661 -0.3515
  262MOL0     C34472   9.223   0.082   8.217 -0.2851 -0.4389  0.5411
  262MOL0     C34473   9.209   0.087   8.367  0.0661 -0.5236 -0.1180
  262MOL0     C34474   9.318   0.167   8.432  0.5788 -0.5613 -0.4890
  262MOL0     C34475   9.262   0.226   8.562 -0.0325 -0.3794  0.1295
  262MOL0     O34476   9.261   0.130   8.668  0.6807  0.9926 -0.3071
  262MOL0     C34477   9.220   0.175   8.790 -0.3220  0.3838  0.2777
  262MOL0     C34478   9.117   0.268   8.810 -0.0612 -0.0649  0.0983
  262MOL0     C34479   9.068   0.308   8.933 -0.0125 -0.0272 -0.3176
  262MOL0     C34480   9.123   0.260   9.050  0.1360  0.1692 -0.1386
  262MOL0     C34481   9.059   0.290   9.179 -0.4661  0.2070  0.3889
  262MOL0     O34482   8.931   0.347   9.184 -0.0296 -0.3175 -0.5835
  262MOL0     C34483   8.848   0.308   9.289  0.0331  0.6256  0.0266
  262MOL0     C34484   8.820   0.394   9.388 -1.0132 -1.2209 -0.1510
  262MOL0     C34485   8.723   0.360   9.489 -0.1805 -0.2136 -0.2324
  262MOL0     C34486   8.668   0.227   9.489 -0.0609  0.3416  0.2996
  262MOL0     O34487   8.600   0.180   9.597 -0.0293  0.5402  0.2893
  262MOL0     C34488   8.459   0.208   9.591  0.0294 -0.2252  0.9515
  262MOL0     C34489   8.376   0.131   9.694 -0.0438 -0.0500 -0.6644
  262MOL0     C34490   8.427   0.161   9.840  1.3675 -0.9064  0.6754
  262MOL0     C34491   8.345   0.061   9.926 -0.2614  0.7320  0.4023
  262MOL0     C34492   8.226   0.133   9.998  0.6863  0.4610  0.5459
  262MOL0     C34493   8.110   0.031  10.036  0.7541 -1.0260 -1.0325
  262MOL0     C34494   8.000   0.115  10.116  0.0342  0.4260 -0.2588
  262MOL0     C34495   7.878   0.045  10.168 -0.5201  0.5071  0.5743
  262MOL0    Cl34496   7.774   0.167  10.234 -0.1855  0.2016  0.1272
  262MOL0     C34497   8.707   0.140   9.386  0.3565 -0.4698 -0.2537
  262MOL0     C34498   8.801   0.183   9.289  0.6122  0.4679  0.0725
  262MOL0     O34499   9.120   0.257   9.285 -0.5746  0.9550 -0.1437
  262MOL0     C34500   9.237   0.173   9.024 -0.1861 -1.2471 -0.3579
  262MOL0     C34501   9.278   0.122   8.903 -0.4933 -0.0770  0.1453
  262MOL0     N34502   9.026   0.221   8.142  0.0343  0.5050  0.5903
  262MOL0     N34503   8.997   0.313   8.069 -0.0474 -0.1059 -0.2958
  262MOL0     C34504   9.956   0.913   7.354  0.5340 -0.0296  0.0174
  262MOL0     C34505  10.086   0.964   7.365 -0.2415 -0.0662 -0.5289
  262MOL0     C34506  10.484   1.151   7.477  0.4453  0.0509  0.0634
  262MOL0     C34507  10.612   1.085   7.488  0.2868  0.5833 -0.0618
  262MOL0     C34508  10.733   1.153   7.500 -0.3746  0.5297 -0.8222
  262MOL0     C34509  10.735   1.288   7.491  0.1638  0.2969 -0.0787
  262MOL0     O34510  10.841   1.375   7.487  1.1012 -0.8766 -0.2450
  262MOL0     C34511  10.982   1.340   7.519 -1.1066  0.1052  0.4233
  262MOL0     C34512  11.065   1.467   7.513  0.3935  0.1231 -0.5630
  262MOL0     C34513  11.085   1.510   7.369  0.7277 -0.1462  0.5695
  262MOL0     C34514  11.165   1.636   7.365 -0.1257 -0.7676 -0.7423
  262MOL0     C34515  11.309   1.610   7.385 -0.3012 -0.2723 -0.8086
  262MOL0     C34516  11.430   1.613   7.377 -0.1153  0.5213 -0.8173
  262MOL0     C34517  10.616   1.352   7.478 -0.1812 -0.9933 -1.1341
  262MOL0     C34518  10.492   1.291   7.469 -0.3835 -0.0174  0.5878
  262MOL0     H34519  10.018   1.262   7.513 -1.5146  0.2262  2.6187
  262MOL0     H34520   9.801   1.181   7.496 -0.0092 -0.1195 -0.2296
  262MOL0     H34521   9.735   0.745   7.476  0.7074  3.5520  1.1404
  262MOL0     H34522   9.684   0.776   7.305 -0.0083 -0.0695 -1.0067
  262MOL0     H34523   9.509   0.675   7.465 -5.3631  0.6148  1.8569
  262MOL0     H34524   9.448   0.820   7.416  0.2596 -1.4884 -1.1713
  262MOL0     H34525   9.558   0.930   7.624 -2.0175  1.3230 -0.9944
  262MOL0     H34526   9.607   0.770   7.675  0.5454 -0.4140 -1.8489
  262MOL0     H34527   9.438   0.864   7.782 -1.3582 -0.6653  0.4958
  262MOL0     H34528   9.326   0.855   7.640 -2.3906 -1.6691  2.1654
  262MOL0     H34529   9.448   0.638   7.794  0.7949  1.7219  0.2572
  262MOL0     H34530   9.375   0.599   7.630 -1.9959  0.9229 -1.4812
  262MOL0     H34531   9.166   0.661   7.725  1.6727  1.7115 -1.4460
  262MOL0     H34532   9.252   0.727   7.871  0.9404 -1.8878  2.2019
  262MOL0     H34533   9.224   0.445   7.743  3.3516  0.8661 -2.1444
  262MOL0     H34534   9.329   0.481   7.882 -0.6809 -0.7072 -0.7551
  262MOL0     H34535   9.016   0.506   7.878 -0.4282 -3.3931 -1.1280
  262MOL0     H34536   9.121   0.562   8.010  1.3522 -0.5045  1.0922
  262MOL0     H34537   9.318   0.316   8.046  0.6722 -0.5730  2.2363
  262MOL0     H34538   9.331   0.084   8.198 -0.6168  0.5856 -1.5392
  262MOL0     H34539   9.191  -0.013   8.173  1.9912 -0.4850 -1.1732
  262MOL0     H34540   9.213  -0.015   8.407  2.0233 -0.6485 -0.5499
  262MOL0     H34541   9.113   0.137   8.389 -0.7693 -2.1343  0.0542
  262MOL0     H34542   9.400   0.101   8.460 -0.0381 -0.8380  0.7069
  262MOL0     H34543   9.356   0.249   8.370  4.0101  1.2373  3.5445
  262MOL0     H34544   9.166   0.277   8.552  1.0636  1.5381 -1.1261
  262MOL0     H34545   9.330   0.304   8.597  1.9983 -0.9112 -2.3028
  262MOL0     H34546   9.065   0.297   8.719 -1.0983 -1.9012  0.0628
  262MOL0     H34547   8.984   0.376   8.942  0.3151  0.5131 -1.2371
  262MOL0     H34548   8.875   0.487   9.387  0.5972 -2.1247 -1.5241
  262MOL0     H34549   8.705   0.418   9.578 -0.3497  0.1072 -0.4743
  262MOL0     H34550   8.426   0.182   9.491  2.3195  2.0962 -0.5374
  262MOL0     H34551   8.443   0.316   9.597  1.6892  0.0691  0.5005
  262MOL0     H34552   8.394   0.027   9.666  0.9084 -0.6830  2.0294
  262MOL0     H34553   8.268   0.144   9.690 -0.1172  0.0970  1.0855
  262MOL0     H34554   8.404   0.266   9.860  4.8473  0.3144 -0.9944
  262MOL0     H34555   8.536   0.151   9.847  1.6612  1.0233 -0.5421
  262MOL0     H34556   8.302  -0.022   9.870 -2.7072  0.6562  2.2467
  262MOL0     H34557   8.412   0.011   9.997 -0.4208  0.4399  0.3481
  262MOL0     H34558   8.171   0.192   9.924 -1.4975 -2.3846 -0.2964
  262MOL0     H34559   8.263   0.198  10.078  1.8906 -0.8290  1.0991
  262MOL0     H34560   8.157  -0.049  10.095 -2.4597 -3.2176 -1.1800
  262MOL0     H34561   8.064  -0.026   9.955 -0.4111  0.0793 -1.1757
  262MOL0     H34562   8.042   0.150  10.211  2.0808 -0.4742 -0.7695
  262MOL0     H34563   7.969   0.207  10.067  2.6953  1.1474 -0.7497
  262MOL0     H34564   7.891  -0.039  10.237 -1.7855  0.2903  0.5699
  262MOL0     H34565   7.836   0.005  10.075  3.4995 -0.6000 -0.9948
  262MOL0     H34566   8.693   0.033   9.380 -0.7989 -0.2809 -1.2847
  262MOL0     H34567   8.826   0.124   9.202 -1.2316 -1.5128  0.8063
  262MOL0     H34568   9.293   0.151   9.115 -0.5208  1.7294  0.6870
  262MOL0     H34569   9.364   0.056   8.908 -0.4953  0.0018  2.0848
  262MOL0     H34570   9.952   0.818   7.302  0.1005  1.3612 -2.6629
  262MOL0     H34571  10.174   0.912   7.329  0.4688 -1.2351  2.6049
  262MOL0     H34572  10.622   0.977   7.495 -0.2209  0.1866 -3.6260
  262MOL0     H34573  10.826   1.100   7.513 -0.8574 -0.1448 -0.0247
  262MOL0     H34574  11.013   1.265   7.446  0.0197  2.8522 -2.0728
  262MOL0     H34575  10.976   1.303   7.622 -2.9564  2.5329  1.2743
  262MOL0     H34576  11.022   1.555   7.562  1.0715 -0.2777  0.7859
  262MOL0     H34577  11.156   1.436   7.565 -1.0128 -1.0345  1.3112
  262MOL0     H34578  10.988   1.521   7.320  1.7001  0.5244 -1.3079
  262MOL0     H34579  11.135   1.435   7.307  1.0665  1.2990 -0.9930
  262MOL0     H34580  11.162   1.677   7.264  1.3176  0.5157 -0.3043
  262MOL0     H34581  11.124   1.712   7.433 -1.4887 -3.2129  1.3551
  262MOL0     H34582  11.537   1.627   7.378 -0.3675  3.5871  2.1112
  262MOL0     H34583  10.613   1.460   7.477 -2.5448 -0.9990 -1.4464
  262MOL0     H34584  10.405   1.356   7.468 -0.8966 -0.6273  2.4163
  263MOL0     O34585   6.691   4.974   3.788 -0.1362 -0.1074  0.1664
  263MOL0     C34586   6.775   4.940   3.701  0.3557  0.4035 -0.0884
  263MOL0     O34587   6.753   4.856   3.593 -0.0185  0.2844  0.0696
  263MOL0     C34588   6.627   4.845   3.537  0.1115  0.5087 -0.1446
  263MOL0     C34589   6.547   4.725   3.546 -0.1929  0.4422 -0.6340
  263MOL0     C34590   6.413   4.718   3.493 -1.0146 -0.0220 -0.2299
  263MOL0     C34591   6.370   4.826   3.409  0.4434 -0.1015 -1.0600
  263MOL0     O34592   6.244   4.836   3.347  0.2123  0.6087 -0.2723
  263MOL0     C34593   6.144   4.745   3.388  0.3292  0.9710 -0.2668
  263MOL0     C34594   6.019   4.761   3.318  1.2117  0.7815  0.7376
  263MOL0     C34595   5.907   4.666   3.376  0.1859 -0.0264 -0.0861
  263MOL0     C34596   5.798   4.632   3.267  0.0144  0.7347  0.3352
  263MOL0     C34597   5.656   4.618   3.329 -1.1046  0.5119 -0.2352
  263MOL0     C34598   5.648   4.494   3.424 -0.3330 -0.1748  0.3830
  263MOL0     C34599   5.495   4.468   3.436 -0.8280 -0.0528  0.0059
  263MOL0     C34600   5.477   4.347   3.522 -0.6335 -0.9425 -0.1193
  263MOL0     N34601   5.461   4.226   3.453  1.0323  0.5436  0.0999
  263MOL0     C34602   5.514   4.191   3.326 -0.2394 -0.7776 -0.2120
  263MOL0     C34603   5.481   4.062   3.306 -0.5394 -0.3189  0.3892
  263MOL0     C34604   5.500   3.988   3.169 -0.2434 -0.7958  0.6757
  263MOL0     C34605   5.384   3.894   3.143 -0.4176  0.4674  0.8188
  263MOL0     C34606   5.256   3.966   3.100 -1.0197 -0.0429  0.4321
  263MOL0     C34607   5.144   3.868   3.081  0.5381 -0.7337 -0.5141
  263MOL0     O34608   5.046   3.945   3.003 -1.2236  0.4500  0.7055
  263MOL0     C34609   4.924   3.973   3.052  0.1030  0.9520  0.5936
  263MOL0     C34610   4.850   3.882   3.133  0.1790  0.1356  1.0223
  263MOL0     C34611   4.731   3.921   3.182 -0.1010 -0.2715 -0.0628
  263MOL0     C34612   4.666   4.037   3.146 -0.0739  0.4528  0.4611
  263MOL0     C34613   4.520   4.064   3.176  0.3663  0.1319  0.3013
  263MOL0     O34614   4.451   4.153   3.088  0.1802  0.3250  0.4110
  263MOL0     C34615   4.331   4.219   3.111  0.3276 -0.8689 -1.0582
  263MOL0     C34616   4.274   4.298   3.004 -0.2697  0.1537  0.2698
  263MOL0     C34617   4.166   4.381   3.019  0.2114 -0.1015 -1.2103
  263MOL0     C34618   4.103   4.388   3.144 -0.3740 -0.1466  0.6276
  263MOL0     O34619   3.997   4.467   3.175  0.0702 -0.1157 -0.4266
  263MOL0     C34620   3.894   4.460   3.075  0.4606  0.0734 -0.2039
  263MOL0     C34621   3.760   4.512   3.152  0.2685 -0.4795  0.4912
  263MOL0     C34622   3.721   4.431   3.278  0.9874  0.5747 -0.6687
  263MOL0     C34623   3.651   4.298   3.249  0.0106 -0.4593 -0.2551
  263MOL0     C34624   3.610   4.224   3.376 -0.1124 -0.4146 -0.1940
  263MOL0     C34625   3.566   4.076   3.338 -0.4086  0.8195  0.0873
  263MOL0     C34626   3.574   3.985   3.463 -0.3498  0.1821 -0.2903
  263MOL0     C34627   3.621   3.846   3.436  0.3058  0.0025  0.4252
  263MOL0    Cl34628   3.518   3.739   3.320 -0.0644 -0.1392 -0.0651
  263MOL0     C34629   4.151   4.313   3.247  0.9400  1.5245  0.0045
  263MOL0     C34630   4.263   4.232   3.231 -0.2185 -0.7148 -0.4500
  263MOL0     O34631   4.482   4.019   3.284  0.7834  0.1737  0.1338
  263MOL0     C34632   4.743   4.131   3.068 -1.1913 -0.0369  0.1490
  263MOL0     C34633   4.871   4.095   3.018  0.8715  0.4952 -0.0575
  263MOL0     N34634   5.410   4.019   3.417 -0.8706  0.2937 -0.7992
  263MOL0     N34635   5.401   4.108   3.503  0.4352  0.2425 -0.1463
  263MOL0     C34636   6.454   4.941   3.394 -0.7549 -0.9999  0.3952
  263MOL0     C34637   6.583   4.946   3.456 -0.4176  0.3705 -0.4617
  263MOL0     C34638   6.903   5.008   3.714 -0.6065  0.8344 -0.1211
  263MOL0     C34639   7.012   4.961   3.641  0.0080  0.4576 -0.1823
  263MOL0     C34640   7.139   5.016   3.662  0.0432 -0.0217  0.4584
  263MOL0     C34641   7.173   5.131   3.744  1.1022  0.0944  0.1848
  263MOL0     O34642   7.288   5.199   3.755 -0.1397 -0.0107 -0.3084
  263MOL0     C34643   7.394   5.166   3.668  0.0841 -0.8422 -0.3420
  263MOL0     C34644   7.520   5.243   3.722  0.6432  0.0169 -0.7631
  263MOL0     C34645   7.633   5.262   3.624  0.0042  0.0418  0.3354
  263MOL0     C34646   7.747   5.357   3.666  0.7462  0.6679 -0.8154
  263MOL0     C34647   7.716   5.495   3.648  0.0363 -0.3654  0.9330
  263MOL0     C34648   7.685   5.610   3.617 -0.5412  0.2912 -0.2123
  263MOL0     C34649   7.062   5.172   3.816  0.9718  0.4403  0.5802
  263MOL0     C34650   6.927   5.116   3.801  0.6527 -0.8974  0.4651
  263MOL0     H34651   6.591   4.643   3.602 -1.1206  0.5586  0.2901
  263MOL0     H34652   6.348   4.635   3.518 -2.5654  0.4712 -2.3580
  263MOL0     H34653   6.126   4.762   3.495 -1.4347 -0.5011 -0.2916
  263MOL0     H34654   6.190   4.646   3.389  3.8498  2.3615  3.1706
  263MOL0     H34655   6.026   4.727   3.214  2.1839 -0.8220  1.2833
  263MOL0     H34656   5.982   4.864   3.319 -2.7497 -0.3878 -1.5913
  263MOL0     H34657   5.860   4.719   3.460  0.1697 -0.0429 -0.0849
  263MOL0     H34658   5.936   4.567   3.413 -3.0743 -0.6135  1.2564
  263MOL0     H34659   5.798   4.696   3.178  0.3905  2.2343  1.3804
  263MOL0     H34660   5.831   4.536   3.225  1.2346  1.4168 -0.3202
  263MOL0     H34661   5.572   4.613   3.260 -0.8400 -3.7125 -0.5149
  263MOL0     H34662   5.636   4.707   3.390 -1.9741  0.5604 -0.5752
  263MOL0     H34663   5.691   4.507   3.524 -1.4311 -1.3891  1.0405
  263MOL0     H34664   5.685   4.401   3.380 -2.4131 -0.9415  0.1425
  263MOL0     H34665   5.450   4.554   3.486 -0.0729 -0.6668  1.7940
  263MOL0     H34666   5.447   4.450   3.339 -1.7824  0.4840  0.3617
  263MOL0     H34667   5.387   4.362   3.583  0.5214  0.8559  1.2508
  263MOL0     H34668   5.563   4.335   3.589 -1.4891 -3.3988  0.6440
  263MOL0     H34669   5.550   4.270   3.261 -0.3346  1.7392  2.5993
  263MOL0     H34670   5.599   3.941   3.173  0.0203 -0.3297 -0.1285
  263MOL0     H34671   5.505   4.060   3.087  1.1687 -0.1717  1.2758
  263MOL0     H34672   5.372   3.836   3.235 -1.3864  0.4811  0.7108
  263MOL0     H34673   5.409   3.827   3.060  1.0609  0.2253  1.4175
  263MOL0     H34674   5.237   4.043   3.175 -0.2932 -0.8604  1.4811
  263MOL0     H34675   5.269   4.022   3.007 -2.5992  0.5656  0.5456
  263MOL0     H34676   5.100   3.834   3.175 -4.7417  1.5753 -1.7565
  263MOL0     H34677   5.193   3.790   3.022  0.0599 -0.4623 -1.2845
  263MOL0     H34678   4.897   3.793   3.174  1.0630 -0.5332 -1.2930
  263MOL0     H34679   4.682   3.850   3.249 -0.6191  0.8589  0.7984
  263MOL0     H34680   4.324   4.302   2.907 -0.1219  0.2012  0.3484
  263MOL0     H34681   4.142   4.457   2.945  2.0295  1.4009 -0.3307
  263MOL0     H34682   3.872   4.356   3.046 -2.2049  0.5863 -0.2609
  263MOL0     H34683   3.925   4.526   2.993  3.0111  0.2562  0.8147
  263MOL0     H34684   3.675   4.501   3.083 -1.8100 -3.0229  3.1813
  263MOL0     H34685   3.774   4.615   3.185  0.5512 -0.8424  1.5476
  263MOL0     H34686   3.657   4.497   3.336  1.3844  0.2123  0.2129
  263MOL0     H34687   3.804   4.401   3.343 -0.9382 -3.0918  0.3874
  263MOL0     H34688   3.552   4.312   3.205 -0.0481  1.6487  0.4024
  263MOL0     H34689   3.707   4.234   3.181  0.9749 -0.3052  0.3686
  263MOL0     H34690   3.520   4.263   3.424 -1.5827 -1.0982 -2.2379
  263MOL0     H34691   3.688   4.211   3.451 -1.2114 -2.0995  0.7226
  263MOL0     H34692   3.647   4.038   3.274 -1.0765  0.1782 -0.3912
  263MOL0     H34693   3.465   4.073   3.296 -1.3610 -1.1046  2.2922
  263MOL0     H34694   3.628   4.035   3.545  0.4991 -0.7643 -0.2526
  263MOL0     H34695   3.476   3.976   3.511 -0.1711 -0.1854  0.0133
  263MOL0     H34696   3.643   3.798   3.532  1.0995  0.9891  0.7452
  263MOL0     H34697   3.713   3.845   3.377 -0.3322  1.8616 -0.6876
  263MOL0     H34698   4.085   4.308   3.333 -0.8320 -1.1878 -1.3894
  263MOL0     H34699   4.322   4.184   3.310 -1.0537 -1.6273 -0.3628
  263MOL0     H34700   4.699   4.222   3.028  0.0444 -0.5015 -2.4722
  263MOL0     H34701   4.923   4.159   2.948 -0.9423 -0.4694 -2.4017
  263MOL0     H34702   6.431   5.021   3.324  3.7558 -1.2974 -1.7454
  263MOL0     H34703   6.656   5.025   3.443 -0.1899  0.2341 -0.0297
  263MOL0     H34704   7.000   4.870   3.583  3.5920  1.1483 -2.3668
  263MOL0     H34705   7.219   4.972   3.602  3.3963 -0.2411  4.6158
  263MOL0     H34706   7.393   5.190   3.561  1.2348  2.6942  0.3035
  263MOL0     H34707   7.404   5.058   3.676 -2.5441 -0.9972  2.7572
  263MOL0     H34708   7.484   5.342   3.749 -1.2173 -0.7020 -0.4891
  263MOL0     H34709   7.550   5.192   3.814 -4.1391 -2.4157 -0.2243
  263MOL0     H34710   7.585   5.311   3.539  1.6294 -0.2666 -0.8146
  263MOL0     H34711   7.675   5.164   3.599  2.2668  1.3454 -1.4356
  263MOL0     H34712   7.790   5.346   3.767 -1.5155  3.5046  0.5953
  263MOL0     H34713   7.832   5.331   3.603  0.2978 -2.5802 -0.2399
  263MOL0     H34714   7.661   5.709   3.584  1.7797  1.2347  0.7223
  263MOL0     H34715   7.067   5.263   3.875 -0.8218  1.3339 -0.5426
  263MOL0     H34716   6.852   5.168   3.860  1.5943 -0.1991  1.0759
  264MOL0     O34717  10.756   1.423   6.779 -0.6303  0.7319 -0.5493
  264MOL0     C34718  10.779   1.395   6.663  0.5288 -0.3476 -0.0413
  264MOL0     O34719  10.684   1.380   6.561  1.0190  0.3524 -0.5518
  264MOL0     C34720  10.552   1.404   6.579  0.4431 -0.0862 -0.6179
  264MOL0     C34721  10.468   1.346   6.692 -0.9159 -0.1752  0.8235
  264MOL0     C34722  10.331   1.357   6.683 -0.5492  0.4523 -0.2303
  264MOL0     C34723  10.264   1.422   6.587 -0.3290 -0.6361  0.6322
  264MOL0     O34724  10.129   1.451   6.584 -0.0981  0.0996  0.2167
  264MOL0     C34725  10.028   1.418   6.684  0.3712  0.9355 -0.0657
  264MOL0     C34726   9.958   1.295   6.626 -0.3401  0.9170 -0.4817
  264MOL0     C34727  10.025   1.156   6.657  0.0770  0.9506  0.7446
  264MOL0     C34728  10.028   1.115   6.808 -0.1107  0.2845  0.0722
  264MOL0     C34729   9.933   1.003   6.840 -0.4899  0.3950 -0.6586
  264MOL0     C34730   9.971   0.947   6.976  0.4076 -0.4228 -0.4296
  264MOL0     C34731   9.915   0.806   7.008 -0.2035  0.4715  0.4922
  264MOL0     C34732   9.760   0.797   7.010  0.5891 -0.4365 -0.7937
  264MOL0     N34733   9.702   0.663   7.043  0.0107  0.4662  0.5509
  264MOL0     C34734   9.573   0.632   7.046 -0.8364 -0.3302  0.2567
  264MOL0     C34735   9.557   0.502   7.085  0.6384 -0.2273 -0.0633
  264MOL0     C34736   9.429   0.418   7.100 -0.6314 -0.3085  0.2635
  264MOL0     C34737   9.346   0.479   7.201  0.0625  0.6230 -0.0088
  264MOL0     C34738   9.220   0.394   7.238  0.1319 -0.6836 -0.6676
  264MOL0     C34739   9.253   0.284   7.338 -0.2752 -0.3380 -0.8530
  264MOL0     O34740   9.184   0.299   7.469  0.2889  0.4628 -0.3533
  264MOL0     C34741   9.053   0.242   7.497 -0.5206 -0.5516 -0.3396
  264MOL0     C34742   8.999   0.139   7.419 -0.5627 -0.4973 -0.7454
  264MOL0     C34743   8.872   0.087   7.444 -0.1823 -0.8103  0.3439
  264MOL0     C34744   8.789   0.141   7.551  1.3350  0.0633 -0.0469
  264MOL0     C34745   8.666   0.075   7.591  0.3383  0.4445 -0.3087
  264MOL0     O34746   8.599   0.117   7.712  0.0805 -0.2111 -0.1005
  264MOL0     C34747   8.475   0.063   7.744  0.0792 -0.0606 -0.8743
  264MOL0     C34748   8.450  -0.072   7.763  0.4073 -0.3765  0.0863
  264MOL0     C34749   8.327  -0.125   7.805 -0.3743  0.1519 -0.2652
  264MOL0     C34750   8.219  -0.040   7.831  0.2893 -0.0709  0.7475
  264MOL0     O34751   8.096  -0.067   7.881  0.2978  0.2790 -0.2493
  264MOL0     C34752   8.055  -0.203   7.903 -0.0387 -0.4721 -0.8388
  264MOL0     C34753   7.897  -0.211   7.940 -0.5063  0.1065  1.0022
  264MOL0     C34754   7.866  -0.348   8.000 -0.5902  0.1996 -0.4548
  264MOL0     C34755   7.904  -0.468   7.901  0.4932  0.8049  0.3146
  264MOL0     C34756   7.889  -0.614   7.961  0.1333  0.1111  0.3663
  264MOL0     C34757   8.008  -0.653   8.041 -0.2494  0.3625 -0.1872
  264MOL0     C34758   8.007  -0.800   8.099 -1.1184 -0.0308 -0.1235
  264MOL0     C34759   8.089  -0.900   8.006  0.2659  0.1908 -0.6594
  264MOL0    Cl34760   8.053  -1.071   8.045 -0.0451  0.0308 -0.3355
  264MOL0     C34761   8.242   0.101   7.824  0.7234  0.7830 -0.7322
  264MOL0     C34762   8.365   0.146   7.775  0.6622 -1.0022 -0.7204
  264MOL0     O34763   8.629  -0.011   7.516 -0.1083 -0.4521 -0.5654
  264MOL0     C34764   8.859   0.231   7.639  0.7116 -0.1944  0.4661
  264MOL0     C34765   8.985   0.286   7.615  1.2662 -0.2121  0.5570
  264MOL0     N34766   9.683   0.457   7.116  0.4092 -0.4525  0.1968
  264MOL0     N34767   9.767   0.550   7.093 -0.2400  0.2389 -0.0496
  264MOL0     C34768  10.346   1.481   6.486 -1.1838  0.5604  0.0249
  264MOL0     C34769  10.484   1.472   6.479  0.0214 -0.2598 -0.4784
  264MOL0     C34770  10.920   1.380   6.618  0.2583 -0.8247 -0.0553
  264MOL0     C34771  11.025   1.366   6.717  0.1082  0.6595 -0.0745
  264MOL0     C34772  11.153   1.347   6.674 -0.3390  1.1015 -0.1176
  264MOL0     C34773  11.195   1.357   6.536 -0.5033 -0.1017 -0.5719
  264MOL0     O34774  11.329   1.355   6.509  0.3690 -0.1491  0.1373
  264MOL0     C34775  11.379   1.322   6.380  0.3234 -0.1849 -0.1203
  264MOL0     C34776  11.399   1.170   6.359  0.5581 -0.9917  0.8839
  264MOL0     C34777  11.491   1.095   6.452 -0.6444  0.0394 -0.8046
  264MOL0     C34778  11.402   1.029   6.561 -0.4401  0.3082  0.6241
  264MOL0     C34779  11.478   0.931   6.643 -1.0365 -0.4281  0.3839
  264MOL0     C34780  11.539   0.836   6.691 -0.3273 -0.3290  0.3247
  264MOL0     C34781  11.093   1.361   6.439  0.2659 -0.2897  0.6935
  264MOL0     C34782  10.956   1.374   6.483 -0.7276 -0.8958  0.7981
  264MOL0     H34783  10.524   1.299   6.772  1.7935 -3.3098 -2.5046
  264MOL0     H34784  10.270   1.301   6.753 -0.1302 -0.0642 -0.2677
  264MOL0     H34785   9.963   1.505   6.671  3.5791  3.3987 -0.8515
  264MOL0     H34786  10.056   1.431   6.789  1.3185  0.4274 -0.2452
  264MOL0     H34787   9.954   1.298   6.516  0.0701  3.3415 -0.4871
  264MOL0     H34788   9.853   1.301   6.656 -0.8623 -0.0468 -1.9601
  264MOL0     H34789  10.128   1.147   6.622 -0.6737 -2.6232 -1.0069
  264MOL0     H34790   9.975   1.076   6.602 -0.4330  0.0607  2.4374
  264MOL0     H34791  10.132   1.090   6.832 -0.2890 -0.1662  0.4039
  264MOL0     H34792   9.998   1.200   6.869 -0.7684 -0.5544  0.9525
  264MOL0     H34793   9.944   0.930   6.759 -2.9880  2.7161 -3.3181
  264MOL0     H34794   9.827   1.030   6.845 -1.2226 -2.2689  0.0008
  264MOL0     H34795   9.935   1.017   7.052  2.6295 -0.4929  0.7612
  264MOL0     H34796  10.079   0.940   6.988  0.1053 -2.2148  1.8097
  264MOL0     H34797   9.943   0.737   6.928 -1.2784  1.7019 -0.9873
  264MOL0     H34798   9.952   0.768   7.104 -2.1589 -1.9429  0.3784
  264MOL0     H34799   9.723   0.842   6.918 -0.0338 -0.0268 -0.3522
  264MOL0     H34800   9.731   0.866   7.090  1.9677 -1.4670  0.6494
  264MOL0     H34801   9.484   0.681   7.010  0.0674 -0.2820 -2.0768
  264MOL0     H34802   9.471   0.320   7.126 -2.0463 -1.2008 -0.6456
  264MOL0     H34803   9.383   0.422   7.000  0.7055 -1.7319 -0.4676
  264MOL0     H34804   9.307   0.569   7.152  1.8959  0.2646 -2.2982
  264MOL0     H34805   9.407   0.497   7.290  1.0078 -1.0051 -0.2824
  264MOL0     H34806   9.149   0.466   7.280 -1.1151 -1.7115 -0.9509
  264MOL0     H34807   9.172   0.355   7.148 -2.4266  1.4131 -0.3309
  264MOL0     H34808   9.359   0.287   7.365 -0.6213 -0.5032  0.6075
  264MOL0     H34809   9.241   0.180   7.305  4.7445 -1.5471  0.3185
  264MOL0     H34810   9.044   0.106   7.326  1.3166 -3.4197  1.0521
  264MOL0     H34811   8.826   0.020   7.373  0.4842  0.8633 -1.7539
  264MOL0     H34812   8.527  -0.146   7.744  0.7780 -0.8603  2.9153
  264MOL0     H34813   8.324  -0.233   7.812  0.1298  0.2486  2.9922
  264MOL0     H34814   8.122  -0.249   7.977  1.3303 -0.0597 -1.7924
  264MOL0     H34815   8.069  -0.269   7.817 -0.9228 -3.4410  1.1353
  264MOL0     H34816   7.843  -0.188   7.847 -0.4668  1.2016  1.2401
  264MOL0     H34817   7.868  -0.137   8.015 -1.3913  0.0801  0.7009
  264MOL0     H34818   7.758  -0.343   8.017 -0.2396  2.4399  1.6970
  264MOL0     H34819   7.915  -0.362   8.097 -0.7117  0.3576 -0.3700
  264MOL0     H34820   7.833  -0.463   7.817  2.0411 -3.4416 -1.5507
  264MOL0     H34821   8.002  -0.450   7.856 -0.6835  3.1393 -1.5520
  264MOL0     H34822   7.882  -0.679   7.873 -0.2549  0.6648 -0.0209
  264MOL0     H34823   7.809  -0.624   8.035  1.4559  2.1581  2.1795
  264MOL0     H34824   8.008  -0.583   8.125 -1.6552 -0.0728  0.2137
  264MOL0     H34825   8.093  -0.631   7.976 -1.6570 -1.2579 -2.7570
  264MOL0     H34826   8.076  -0.812   8.184  3.0609 -1.1381 -3.3270
  264MOL0     H34827   7.904  -0.830   8.122 -1.1548  0.4987  0.4276
  264MOL0     H34828   8.196  -0.880   8.016  0.0541  0.3597  2.3772
  264MOL0     H34829   8.058  -0.869   7.906 -3.7151 -2.8775 -0.6145
  264MOL0     H34830   8.169   0.171   7.864  3.0788  1.3240  3.0369
  264MOL0     H34831   8.380   0.251   7.751  0.3645 -0.7975 -0.0539
  264MOL0     H34832   8.807   0.251   7.732 -0.4431  1.3539 -0.4492
  264MOL0     H34833   9.021   0.359   7.687  0.8145  0.2010  0.3730
  264MOL0     H34834  10.299   1.542   6.408 -2.6587 -0.9174 -0.2942
  264MOL0     H34835  10.533   1.509   6.389  0.5493 -1.0470 -0.5206
  264MOL0     H34836  11.007   1.358   6.824  1.5167 -1.4240  0.0780
  264MOL0     H34837  11.225   1.336   6.755  2.7920 -0.0070 -2.7847
  264MOL0     H34838  11.481   1.362   6.382  0.5356 -0.7449  0.6974
  264MOL0     H34839  11.339   1.381   6.297  1.7808 -0.4815 -1.0650
  264MOL0     H34840  11.300   1.126   6.351 -0.2655  1.0062 -1.1453
  264MOL0     H34841  11.443   1.159   6.259  0.4168 -1.8634  0.9109
  264MOL0     H34842  11.558   1.168   6.500 -0.6571  0.1261 -0.9179
  264MOL0     H34843  11.560   1.027   6.401  0.6470  0.3126  0.5118
  264MOL0     H34844  11.368   1.102   6.635 -2.1744  0.1813  0.0103
  264MOL0     H34845  11.325   0.974   6.506  0.4233  0.4364 -0.7695
  264MOL0     H34846  11.605   0.766   6.738 -0.0353  1.2035  2.3248
  264MOL0     H34847  11.114   1.352   6.333 -1.3113 -0.6417  0.3981
  264MOL0     H34848  10.881   1.394   6.407  0.3471 -2.4085 -0.7253
  265MOL0     O34849   0.770   7.154   3.491 -0.6209 -0.2806 -0.6497
  265MOL0     C34850   0.714   7.142   3.379 -0.5154 -0.1521 -0.8497
  265MOL0     O34851   0.611   7.064   3.344 -0.3799  0.0524  0.2421
  265MOL0     C34852   0.559   6.977   3.435  0.0775 -0.4881 -0.2297
  265MOL0     C34853   0.528   7.007   3.571  0.5471 -0.9421  0.4127
  265MOL0     C34854   0.466   6.920   3.657  0.4574 -0.4865  1.0746
  265MOL0     C34855   0.450   6.787   3.617 -0.1477  0.8820  0.0772
  265MOL0     O34856   0.401   6.703   3.712  0.3163  0.0358  0.2204
  265MOL0     C34857   0.465   6.573   3.732 -0.0828  0.4746 -0.7027
  265MOL0     C34858   0.618   6.595   3.764 -0.1678  0.2797  0.4201
  265MOL0     C34859   0.691   6.458   3.773  0.0301 -0.5141  0.1791
  265MOL0     C34860   0.833   6.478   3.829 -0.1605  0.5998  0.7524
  265MOL0     C34861   0.923   6.347   3.828  0.2404 -0.1838 -0.8495
  265MOL0     C34862   0.989   6.325   3.693 -0.0120 -0.2970 -0.5768
  265MOL0     C34863   1.116   6.409   3.669 -0.0375 -0.4583  1.3899
  265MOL0     C34864   1.181   6.378   3.539 -0.6473  0.1058  0.0603
  265MOL0     N34865   1.328   6.402   3.533  0.1323 -0.0201 -0.1736
  265MOL0     C34866   1.395   6.515   3.562 -0.1624 -0.2528 -0.2592
  265MOL0     C34867   1.528   6.486   3.560 -0.5372  0.6140 -1.1230
  265MOL0     C34868   1.636   6.583   3.593 -0.5624 -1.1248  0.2660
  265MOL0     C34869   1.781   6.534   3.594 -0.2900  0.5359 -0.0750
  265MOL0     C34870   1.880   6.644   3.608  1.1819 -0.2278 -0.1818
  265MOL0     C34871   2.027   6.605   3.586  1.8466 -0.0132  0.3925
  265MOL0     O34872   2.118   6.717   3.606  0.6189 -0.0791 -0.7008
  265MOL0     C34873   2.231   6.700   3.689  0.7519 -0.8938  0.5613
  265MOL0     C34874   2.356   6.729   3.642 -0.1709 -0.1648 -0.5680
  265MOL0     C34875   2.466   6.708   3.726  0.8087  0.1721  0.9715
  265MOL0     C34876   2.453   6.651   3.847 -0.2500  0.5403  0.0751
  265MOL0     C34877   2.579   6.645   3.936  0.2275 -0.8423  0.0350
  265MOL0     O34878   2.692   6.711   3.889  0.3822  0.3723 -0.0707
  265MOL0     C34879   2.793   6.731   3.979  0.3896 -0.2539  0.1002
  265MOL0     C34880   2.878   6.623   4.009  0.9862  0.1258 -0.0721
  265MOL0     C34881   2.977   6.639   4.106 -0.4308 -0.0157 -0.2244
  265MOL0     C34882   2.994   6.759   4.181  0.0192 -0.7383  0.0748
  265MOL0     O34883   3.095   6.770   4.267  0.3414  0.1068 -0.0411
  265MOL0     C34884   3.184   6.883   4.244  1.1385 -0.4762 -0.2652
  265MOL0     C34885   3.319   6.824   4.306  0.3783 -0.5560 -0.0995
  265MOL0     C34886   3.436   6.900   4.245 -0.3045 -0.1828 -0.1656
  265MOL0     C34887   3.559   6.875   4.342 -0.2544 -0.1993 -0.5306
  265MOL0     C34888   3.678   6.959   4.286  0.4662  0.2325 -1.1312
  265MOL0     C34889   3.813   6.946   4.362  0.0817 -0.1415  0.6223
  265MOL0     C34890   3.868   6.802   4.349 -0.5169 -0.5744  0.7776
  265MOL0     C34891   4.014   6.789   4.393 -0.5486  0.6840 -0.4173
  265MOL0    Cl34892   4.017   6.835   4.574 -0.6111 -0.0308  0.0117
  265MOL0     C34893   2.921   6.867   4.139  0.0232  0.4450 -0.4758
  265MOL0     C34894   2.827   6.858   4.038  0.7395 -0.3711 -0.6402
  265MOL0     O34895   2.578   6.575   4.032 -0.1475  0.1379  0.1628
  265MOL0     C34896   2.328   6.604   3.887 -0.1655 -0.2177  0.0355
  265MOL0     C34897   2.220   6.632   3.805  0.4427  0.7306 -0.4375
  265MOL0     N34898   1.539   6.359   3.513 -0.6893  0.2820  0.3673
  265MOL0     N34899   1.423   6.309   3.501 -0.2861 -0.2095  0.3506
  265MOL0     C34900   0.492   6.746   3.488  0.0185  0.3223  0.0566
  265MOL0     C34901   0.540   6.844   3.394 -0.3959 -0.5112 -0.3012
  265MOL0     C34902   0.780   7.223   3.273  0.8659  1.1668  0.0454
  265MOL0     C34903   0.845   7.346   3.302 -0.0256 -1.0766  0.9537
  265MOL0     C34904   0.904   7.430   3.204  0.0691  0.0270 -0.2852
  265MOL0     C34905   0.894   7.397   3.068  0.4658 -0.5704  0.2913
  265MOL0     O34906   0.951   7.475   2.968 -0.3005  0.0870 -0.5188
  265MOL0     C34907   0.871   7.579   2.906 -0.2990 -0.4076  0.4715
  265MOL0     C34908   0.917   7.704   2.991  0.4340  0.3285  0.4187
  265MOL0     C34909   1.057   7.754   2.945  0.2909  0.1053  1.1242
  265MOL0     C34910   1.182   7.685   3.004 -0.2037 -0.1939  0.6821
  265MOL0     C34911   1.205   7.706   3.143 -0.4449  0.5769  0.4261
  265MOL0     C34912   1.223   7.714   3.264  0.5714 -0.4141 -0.4668
  265MOL0     C34913   0.831   7.277   3.034  0.4152  0.7341 -0.4099
  265MOL0     C34914   0.775   7.189   3.140  0.7883  1.2233 -0.3534
  265MOL0     H34915   0.542   7.105   3.615  2.5590 -1.4860  1.1031
  265MOL0     H34916   0.423   6.947   3.753 -5.4595 -2.9140 -0.4377
  265MOL0     H34917   0.461   6.510   3.643  1.2609 -2.1141  0.9465
  265MOL0     H34918   0.418   6.527   3.818  1.6664  1.8248  1.0670
  265MOL0     H34919   0.628   6.633   3.866 -0.8935  0.4471  0.4294
  265MOL0     H34920   0.660   6.661   3.687 -2.1168  2.2125  0.9170
  265MOL0     H34921   0.696   6.423   3.670  0.0215  0.4683 -0.1576
  265MOL0     H34922   0.636   6.385   3.834 -0.4874 -1.6865 -1.6228
  265MOL0     H34923   0.891   6.557   3.782  2.0190 -1.5880 -0.4464
  265MOL0     H34924   0.835   6.501   3.936  3.1412 -0.0275  0.9276
  265MOL0     H34925   0.865   6.262   3.867  0.2134 -0.0827 -0.6686
  265MOL0     H34926   1.000   6.350   3.906  0.0646  1.1723 -0.7041
  265MOL0     H34927   0.913   6.344   3.617 -0.4555 -0.5014 -0.1908
  265MOL0     H34928   1.028   6.223   3.693  1.2730  0.0779 -3.5700
  265MOL0     H34929   1.085   6.513   3.668 -0.8903 -0.7112  0.2536
  265MOL0     H34930   1.189   6.393   3.749  0.5198  1.0700  1.2220
  265MOL0     H34931   1.135   6.432   3.456  3.3800 -0.0443 -2.5346
  265MOL0     H34932   1.175   6.271   3.516  1.6456 -0.3487  1.2567
  265MOL0     H34933   1.349   6.611   3.584  1.2860  0.4746 -0.3381
  265MOL0     H34934   1.611   6.629   3.689  0.4000  3.2342 -1.3605
  265MOL0     H34935   1.630   6.670   3.527 -0.6971 -0.3122  1.3213
  265MOL0     H34936   1.796   6.478   3.501  0.3693  2.1275 -0.9665
  265MOL0     H34937   1.782   6.457   3.672  0.0603  0.0965 -0.5048
  265MOL0     H34938   1.840   6.722   3.543 -2.4047 -2.0995 -0.4444
  265MOL0     H34939   1.872   6.684   3.709  0.3089 -0.5881 -0.1023
  265MOL0     H34940   2.037   6.568   3.484 -0.4799 -1.0332  0.4687
  265MOL0     H34941   2.033   6.528   3.662 -2.3856  1.5512  2.6425
  265MOL0     H34942   2.369   6.769   3.542 -1.2895 -5.4967 -3.2435
  265MOL0     H34943   2.562   6.734   3.683 -1.3144  2.7820 -2.8220
  265MOL0     H34944   2.875   6.530   3.954 -0.5304  0.2303 -0.2347
  265MOL0     H34945   3.042   6.553   4.119  0.4793  0.7235  0.1771
  265MOL0     H34946   3.151   6.977   4.287  0.5422  0.0553 -1.8346
  265MOL0     H34947   3.200   6.896   4.137 -0.1147  0.6364 -0.3405
  265MOL0     H34948   3.328   6.720   4.273  0.1802 -0.3988 -0.6648
  265MOL0     H34949   3.317   6.820   4.415 -1.2550 -0.4986 -0.0942
  265MOL0     H34950   3.414   7.007   4.258  0.6631  0.2129 -1.4923
  265MOL0     H34951   3.437   6.864   4.142  0.9598 -2.5739  0.6221
  265MOL0     H34952   3.529   6.910   4.441  1.2540  0.4137 -0.2706
  265MOL0     H34953   3.598   6.773   4.335  0.7445 -0.1684  2.9646
  265MOL0     H34954   3.653   7.066   4.284  1.6051  0.5130 -1.0732
  265MOL0     H34955   3.684   6.929   4.181  2.4149 -1.6816 -0.5391
  265MOL0     H34956   3.794   6.968   4.467  0.2210 -0.7709  0.7763
  265MOL0     H34957   3.883   7.022   4.325 -1.0167  1.0593  0.9103
  265MOL0     H34958   3.808   6.732   4.408  0.8417 -0.4850  2.3402
  265MOL0     H34959   3.861   6.771   4.244  2.0024  0.7190  0.1488
  265MOL0     H34960   4.075   6.852   4.328  1.5284 -2.4847 -1.7589
  265MOL0     H34961   4.045   6.684   4.391 -3.8606 -0.4117 -1.4371
  265MOL0     H34962   2.933   6.964   4.186 -1.9416 -0.0791  1.2452
  265MOL0     H34963   2.760   6.942   4.028  0.9337  0.3336  2.7627
  265MOL0     H34964   2.317   6.560   3.986  1.1959  0.3021  0.4474
  265MOL0     H34965   2.121   6.598   3.833  1.5696 -3.3604 -0.7593
  265MOL0     H34966   0.486   6.639   3.471 -0.0719  0.3878 -0.3188
  265MOL0     H34967   0.588   6.812   3.302 -0.7340 -1.3820 -0.1865
  265MOL0     H34968   0.863   7.377   3.405 -1.6909 -2.2157  1.6309
  265MOL0     H34969   0.953   7.523   3.231  2.9739 -1.0511 -1.4086
  265MOL0     H34970   0.763   7.560   2.915 -0.0837 -1.5292  0.8179
  265MOL0     H34971   0.867   7.577   2.797 -0.1432  0.7591  0.4289
  265MOL0     H34972   0.839   7.779   2.980 -1.1145 -0.8895  2.3880
  265MOL0     H34973   0.926   7.693   3.100 -0.1219 -0.2844  0.4121
  265MOL0     H34974   1.066   7.861   2.967  0.7957  0.3342 -0.1451
  265MOL0     H34975   1.062   7.758   2.836 -4.8033  1.9493  0.6800
  265MOL0     H34976   1.157   7.578   3.002 -0.2193 -0.2249  1.8080
  265MOL0     H34977   1.279   7.710   2.961 -0.3707 -1.9206 -0.8347
  265MOL0     H34978   1.242   7.714   3.370 -2.9286 -0.8350  0.2766
  265MOL0     H34979   0.827   7.230   2.937 -2.8419 -3.6689  1.4617
  265MOL0     H34980   0.736   7.095   3.102 -2.1815  1.5089  1.6384
  266MOL0     O34981   2.545   0.631   6.113 -0.0083  0.1612 -0.0344
  266MOL0     C34982   2.552   0.680   6.003 -0.1466  0.5851 -0.3833
  266MOL0     O34983   2.455   0.756   5.945 -0.3030  0.2079  1.2389
  266MOL0     C34984   2.341   0.792   6.010 -0.1766  0.7902  0.3613
  266MOL0     C34985   2.333   0.822   6.148  0.6529 -0.0159  0.2958
  266MOL0     C34986   2.214   0.857   6.207 -1.0850  0.0806 -0.5084
  266MOL0     C34987   2.104   0.879   6.127  0.7862 -0.8559 -0.1563
  266MOL0     O34988   1.991   0.941   6.184 -0.2753  0.4933 -0.9064
  266MOL0     C34989   1.900   0.861   6.261  0.3890  0.8260 -0.0961
  266MOL0     C34990   1.764   0.928   6.232 -0.2367 -0.3124  0.3921
  266MOL0     C34991   1.651   0.845   6.303 -0.4471  0.1559 -0.4584
  266MOL0     C34992   1.510   0.907   6.282  0.6466 -0.4091  0.4963
  266MOL0     C34993   1.411   0.839   6.384 -0.6460 -0.5169 -1.1302
  266MOL0     C34994   1.269   0.902   6.384 -0.0753 -0.0662 -0.2553
  266MOL0     C34995   1.161   0.802   6.422  0.5842 -0.2115  0.1967
  266MOL0     C34996   1.160   0.760   6.568 -0.0711  0.4261  0.5385
  266MOL0     N34997   1.026   0.695   6.600  0.0563 -0.1037  0.0608
  266MOL0     C34998   1.004   0.560   6.588 -0.2875  0.8871 -0.3721
  266MOL0     C34999   0.881   0.543   6.646 -0.2997  0.2416 -0.5578
  266MOL0     C35000   0.811   0.409   6.683  0.2151 -0.5798 -0.7168
  266MOL0     C35001   0.663   0.436   6.691  0.0262  0.2313  0.0656
  266MOL0     C35002   0.617   0.509   6.817 -0.4980 -0.0986  0.3412
  266MOL0     C35003   0.468   0.518   6.826  0.4039  0.0522 -0.2751
  266MOL0     O35004   0.428   0.385   6.857  0.3677  0.2564 -0.0109
  266MOL0     C35005   0.294   0.345   6.850 -0.0668 -0.0117 -0.6135
  266MOL0     C35006   0.265   0.209   6.883  0.7533 -0.8954 -0.2991
  266MOL0     C35007   0.134   0.157   6.886 -0.2382 -0.5506  0.0932
  266MOL0     C35008   0.017   0.244   6.860 -0.0895 -0.2202 -0.4579
  266MOL0     C35009  -0.120   0.189   6.874  0.5023 -0.1641  0.4422
  266MOL0     O35010  -0.229   0.272   6.842  0.1482  0.6326  0.2510
  266MOL0     C35011  -0.364   0.226   6.857  0.6875 -0.1417 -0.0268
  266MOL0     C35012  -0.459   0.270   6.763  0.3605  0.2122  0.7879
  266MOL0     C35013  -0.596   0.228   6.765 -0.8096 -0.0466 -0.3198
  266MOL0     C35014  -0.637   0.158   6.888  0.1243 -0.4990  0.4466
  266MOL0     O35015  -0.777   0.140   6.901  0.3138 -0.2571 -0.0203
  266MOL0     C35016  -0.828   0.094   7.017  0.1772 -0.1192 -0.4682
  266MOL0     C35017  -0.963   0.161   7.040 -2.0620  0.4582  0.6074
  266MOL0     C35018  -1.077   0.111   6.950 -0.6418  0.3686 -0.3921
  266MOL0     C35019  -1.220   0.162   6.992 -0.2200  0.1120  0.3686
  266MOL0     C35020  -1.288   0.097   7.108 -0.1751  0.9622 -0.4985
  266MOL0     C35021  -1.432   0.156   7.121  0.9672  0.1157 -0.6555
  266MOL0     C35022  -1.503   0.103   7.238  0.3634 -0.1755  0.5863
  266MOL0     C35023  -1.541  -0.046   7.217  0.2512 -0.2086 -0.6110
  266MOL0    Cl35024  -1.666  -0.109   7.329  0.3386 -0.0233  0.2808
  266MOL0     C35025  -0.546   0.121   6.978  0.4758  0.3995 -0.0123
  266MOL0     C35026  -0.407   0.156   6.969  0.1132  0.3445 -0.3321
  266MOL0     O35027  -0.128   0.073   6.919  0.0383 -0.8207 -0.5387
  266MOL0     C35028   0.050   0.377   6.829  0.0721 -0.2453  0.3722
  266MOL0     C35029   0.182   0.428   6.818  0.4909 -0.5889  0.3254
  266MOL0     N35030   0.845   0.667   6.692  0.7271  0.2972 -0.5645
  266MOL0     N35031   0.924   0.758   6.662  0.1921 -0.5992 -0.3665
  266MOL0     C35032   2.116   0.860   5.990  1.3497  0.5563 -0.5187
  266MOL0     C35033   2.225   0.803   5.932 -0.5284  0.2091  0.2936
  266MOL0     C35034   2.685   0.670   5.937  0.1842 -0.3985  0.9096
  266MOL0     C35035   2.768   0.561   5.962  0.3290 -0.7951  0.5882
  266MOL0     C35036   2.881   0.545   5.881  0.8153  0.5250  0.2491
  266MOL0     C35037   2.921   0.654   5.800 -0.0180 -0.1196 -0.3687
  266MOL0     O35038   3.044   0.663   5.730  0.1400 -0.3007 -0.6809
  266MOL0     C35039   3.138   0.562   5.752  0.1186  0.4790  0.4152
  266MOL0     C35040   3.272   0.617   5.704  0.3784  0.0287  0.1210
  266MOL0     C35041   3.374   0.505   5.678  0.5340  0.2332  0.4388
  266MOL0     C35042   3.494   0.557   5.624  0.5027 -0.6703  0.0887
  266MOL0     C35043   3.566   0.659   5.705 -0.4016  1.2284 -0.0715
  266MOL0     C35044   3.614   0.749   5.774 -0.7997  0.1072  0.2483
  266MOL0     C35045   2.844   0.772   5.802 -0.4313  0.0109  0.6197
  266MOL0     C35046   2.725   0.782   5.865  0.1573  0.3546  0.0623
  266MOL0     H35047   2.420   0.814   6.213  0.8355 -2.1107 -0.1312
  266MOL0     H35048   2.207   0.867   6.315 -1.8531 -4.9000  0.1362
  266MOL0     H35049   1.914   0.855   6.370 -1.1634 -3.5580  0.0568
  266MOL0     H35050   1.893   0.761   6.217  0.4043  1.1552 -0.8652
  266MOL0     H35051   1.746   0.938   6.124 -0.0205  0.3256  0.4132
  266MOL0     H35052   1.761   1.030   6.270 -1.9670 -0.6598  1.2889
  266MOL0     H35053   1.673   0.833   6.409 -1.4458 -1.6138 -0.4048
  266MOL0     H35054   1.650   0.741   6.268 -2.8866  0.4882 -1.6208
  266MOL0     H35055   1.497   1.013   6.306 -0.4552 -0.1273 -1.1351
  266MOL0     H35056   1.459   0.881   6.188 -0.4043  1.8047  0.3905
  266MOL0     H35057   1.440   0.842   6.489 -1.9081 -2.0258 -0.6910
  266MOL0     H35058   1.409   0.732   6.358  1.3204 -0.5909 -1.1560
  266MOL0     H35059   1.261   0.930   6.279  3.6529  2.1647 -0.1164
  266MOL0     H35060   1.260   1.000   6.432 -1.3933  1.3529 -3.1407
  266MOL0     H35061   1.074   0.866   6.409 -0.1672 -1.6440 -2.6203
  266MOL0     H35062   1.157   0.716   6.355  0.2711 -0.1147  0.0916
  266MOL0     H35063   1.173   0.847   6.633  0.2408  1.8437 -1.3472
  266MOL0     H35064   1.236   0.682   6.580 -1.0593 -0.4412  1.3531
  266MOL0     H35065   1.066   0.487   6.539 -1.5395 -0.7037  0.3206
  266MOL0     H35066   0.852   0.373   6.778  1.0101 -1.0928 -1.2412
  266MOL0     H35067   0.834   0.332   6.608  1.2502 -2.2552  1.2253
  266MOL0     H35068   0.610   0.340   6.683 -1.1907  0.9570 -1.0997
  266MOL0     H35069   0.644   0.507   6.610  1.8963  0.5773 -0.1110
  266MOL0     H35070   0.657   0.463   6.909  0.6107  1.0871  0.4840
  266MOL0     H35071   0.660   0.609   6.823  1.2947 -0.7507 -0.8642
  266MOL0     H35072   0.423   0.557   6.735 -0.4820 -0.6422 -0.1439
  266MOL0     H35073   0.442   0.574   6.916  1.7400  1.0635 -0.4918
  266MOL0     H35074   0.339   0.137   6.915  0.9709 -0.0858  1.1218
  266MOL0     H35075   0.121   0.054   6.917  3.2681 -1.5816 -1.3731
  266MOL0     H35076  -0.427   0.344   6.691  0.7348  0.2406  0.9821
  266MOL0     H35077  -0.684   0.268   6.716 -0.3300 -1.1678 -2.2212
  266MOL0     H35078  -0.767   0.116   7.105  1.6692 -0.1634 -1.4547
  266MOL0     H35079  -0.846  -0.013   6.999 -0.2898  0.4293 -3.7874
  266MOL0     H35080  -0.947   0.265   7.008  2.7879  0.2243  1.5345
  266MOL0     H35081  -0.984   0.154   7.147 -0.5207  2.2696  1.0898
  266MOL0     H35082  -1.072   0.001   6.949  2.6060  0.4069  0.6229
  266MOL0     H35083  -1.039   0.137   6.851  4.2957  0.6357  1.3209
  266MOL0     H35084  -1.218   0.271   7.001  1.7407  0.2437 -1.0202
  266MOL0     H35085  -1.270   0.144   6.897  0.3303  1.6613 -0.2400
  266MOL0     H35086  -1.229   0.111   7.198 -1.5164 -3.4176  1.3362
  266MOL0     H35087  -1.286  -0.012   7.092 -0.0266 -0.0332  4.5451
  266MOL0     H35088  -1.488   0.135   7.030 -0.2385 -0.8409  0.2572
  266MOL0     H35089  -1.424   0.265   7.124  0.5450  0.1825 -1.5687
  266MOL0     H35090  -1.423   0.113   7.313  1.3969 -0.9425 -0.3751
  266MOL0     H35091  -1.594   0.158   7.263 -0.4454 -0.4608 -1.5348
  266MOL0     H35092  -1.451  -0.107   7.229  0.1152  0.0460  2.4116
  266MOL0     H35093  -1.566  -0.061   7.111  2.2960  2.6740 -1.6117
  266MOL0     H35094  -0.565   0.065   7.069  0.4515 -1.9231 -1.3570
  266MOL0     H35095  -0.340   0.127   7.050  3.1023  4.0330 -1.1671
  266MOL0     H35096  -0.035   0.444   6.816  1.2692  1.1503 -0.5551
  266MOL0     H35097   0.188   0.533   6.791 -0.8002 -0.3146  1.0530
  266MOL0     H35098   2.025   0.854   5.932  0.6849 -0.9413  0.5983
  266MOL0     H35099   2.236   0.781   5.826  0.6638 -2.3802  0.8531
  266MOL0     H35100   2.743   0.481   6.030 -2.2065 -1.3130 -0.8140
  266MOL0     H35101   2.947   0.464   5.908 -2.7367 -2.1647  1.7620
  266MOL0     H35102   3.108   0.477   5.690  0.2408  0.1564  0.7945
  266MOL0     H35103   3.148   0.523   5.854 -2.2231 -1.8042 -0.1173
  266MOL0     H35104   3.246   0.671   5.612 -1.8914 -2.8112 -1.0400
  266MOL0     H35105   3.304   0.690   5.779 -1.7255  3.6206 -2.1849
  266MOL0     H35106   3.332   0.432   5.609 -1.8797 -0.2374  2.2634
  266MOL0     H35107   3.401   0.461   5.774  0.7844  0.5243  0.5040
  266MOL0     H35108   3.577   0.489   5.600  0.0200 -0.5860 -2.0603
  266MOL0     H35109   3.472   0.608   5.530 -0.5139  2.6311  1.9954
  266MOL0     H35110   3.671   0.827   5.820  1.7633  0.5344 -3.2566
  266MOL0     H35111   2.902   0.852   5.757 -1.1756  0.5095  0.5357
  266MOL0     H35112   2.666   0.871   5.846  1.5904  1.5609  1.0303
  267MOL0     O35113   6.061   6.566   4.336 -0.0424  0.0416  0.4817
  267MOL0     C35114   6.135   6.478   4.302  0.3337 -0.1564 -0.0129
  267MOL0     O35115   6.107   6.362   4.239  0.3691 -0.0268  0.3660
  267MOL0     C35116   5.985   6.334   4.188  0.7916 -0.3958 -0.1689
  267MOL0     C35117   5.992   6.272   4.070  0.1504 -0.4989 -0.2839
  267MOL0     C35118   5.865   6.240   4.008 -0.0956  0.0081 -1.0268
  267MOL0     C35119   5.744   6.281   4.059 -0.6329 -0.0219  0.7209
  267MOL0     O35120   5.623   6.256   3.996 -1.1423  0.1344  0.8527
  267MOL0     C35121   5.611   6.285   3.863  0.7607  0.0794  0.0652
  267MOL0     C35122   5.451   6.291   3.845 -0.5150  0.9388 -0.0174
  267MOL0     C35123   5.413   6.141   3.814  0.4810 -0.4424 -0.0325
  267MOL0     C35124   5.261   6.117   3.768 -0.3717  0.4734  0.4596
  267MOL0     C35125   5.186   6.223   3.678  0.5094  0.4536  0.5854
  267MOL0     C35126   5.054   6.167   3.632 -0.3007  0.5493 -0.6571
  267MOL0     C35127   4.979   6.278   3.554  0.6430  0.0703 -0.0284
  267MOL0     C35128   4.879   6.221   3.454 -0.1917  0.3400 -0.2021
  267MOL0     N35129   4.760   6.160   3.510  0.1441  0.2458  0.2436
  267MOL0     C35130   4.627   6.210   3.532 -0.0952  0.1486  0.6577
  267MOL0     C35131   4.546   6.102   3.541 -0.7651  0.2833  0.2531
  267MOL0     C35132   4.397   6.092   3.548 -0.5443  0.1118 -0.4606
  267MOL0     C35133   4.309   6.205   3.485  0.2200  0.0713 -0.5629
  267MOL0     C35134   4.293   6.177   3.334 -0.0419 -0.7401  0.8131
  267MOL0     C35135   4.176   6.251   3.285  0.2694  0.6556  0.2455
  267MOL0     O35136   4.052   6.226   3.364 -0.2012 -0.3567  0.0726
  267MOL0     C35137   3.931   6.271   3.311 -1.4191 -0.4769  0.1390
  267MOL0     C35138   3.810   6.271   3.385 -0.6615  0.5189 -0.1142
  267MOL0     C35139   3.687   6.309   3.331  0.2507 -0.1233 -0.0004
  267MOL0     C35140   3.679   6.363   3.195  0.3412  1.1005  0.3831
  267MOL0     C35141   3.552   6.409   3.130  0.5824  0.3012  0.0158
  267MOL0     O35142   3.456   6.402   3.217 -0.5441 -0.3104  0.5803
  267MOL0     C35143   3.329   6.419   3.175  0.7656 -0.4826  0.9338
  267MOL0     C35144   3.247   6.506   3.244 -0.5106 -0.8937 -0.4237
  267MOL0     C35145   3.117   6.543   3.205 -0.8201  1.0364 -0.1112
  267MOL0     C35146   3.064   6.482   3.086 -0.7090  0.2093 -0.4465
  267MOL0     O35147   2.931   6.496   3.055  0.3649  0.2695 -0.9624
  267MOL0     C35148   2.847   6.382   3.028  0.5769 -0.1414  0.3880
  267MOL0     C35149   2.821   6.300   3.163  0.0867 -0.0026 -0.1469
  267MOL0     C35150   2.687   6.236   3.166 -0.6741 -0.2571 -0.2717
  267MOL0     C35151   2.633   6.181   3.303 -1.1308 -1.2575  0.1200
  267MOL0     C35152   2.617   6.296   3.402  0.2271 -0.9686 -0.1310
  267MOL0     C35153   2.527   6.417   3.357 -0.7760 -0.6039  0.6498
  267MOL0     C35154   2.387   6.358   3.321  0.0404  0.5673  0.0705
  267MOL0     C35155   2.284   6.467   3.302  0.3566 -0.1519  0.2195
  267MOL0    Cl35156   2.333   6.599   3.186  0.0675 -0.5689 -0.1587
  267MOL0     C35157   3.144   6.393   3.010  0.2301  0.1392 -0.9673
  267MOL0     C35158   3.279   6.365   3.058  0.6532 -0.6224  0.2233
  267MOL0     O35159   3.546   6.450   3.016  1.2021  0.1304  0.2376
  267MOL0     C35160   3.799   6.367   3.119  0.5960 -0.4787 -0.2148
  267MOL0     C35161   3.924   6.323   3.182  0.1247  0.7782 -0.5977
  267MOL0     N35162   4.626   5.986   3.544 -0.5423  0.5233  0.5828
  267MOL0     N35163   4.754   6.023   3.528  0.4565  0.0874 -0.1103
  267MOL0     C35164   5.739   6.334   4.188 -0.6979  0.8573  0.1544
  267MOL0     C35165   5.856   6.365   4.249  0.3196  1.0022 -0.6863
  267MOL0     C35166   6.275   6.497   4.349  0.2689  0.0624 -0.2928
  267MOL0     C35167   6.361   6.383   4.360  0.3938 -0.5523 -0.8136
  267MOL0     C35168   6.481   6.403   4.420 -0.0049 -0.3941 -0.0542
  267MOL0     C35169   6.528   6.525   4.465  0.6949  0.5136  0.8742
  267MOL0     O35170   6.655   6.523   4.505 -0.5379  0.2639 -0.3575
  267MOL0     C35171   6.734   6.643   4.475  0.4044 -0.1408  0.0667
  267MOL0     C35172   6.765   6.658   4.321  0.3993  0.4272  0.2240
  267MOL0     C35173   6.862   6.553   4.261 -0.3821  0.5637  0.9819
  267MOL0     C35174   6.888   6.574   4.109  0.2245 -0.1348  0.5367
  267MOL0     C35175   6.996   6.661   4.064 -1.0941  0.9307  0.5270
  267MOL0     C35176   7.074   6.742   4.027  0.0278  0.2499  0.5534
  267MOL0     C35177   6.442   6.633   4.459  0.5771  0.0354 -0.5790
  267MOL0     C35178   6.314   6.620   4.400 -0.0043  0.2909 -0.7078
  267MOL0     H35179   6.082   6.233   4.025 -0.6220 -0.6018 -1.7987
  267MOL0     H35180   5.859   6.195   3.909 -3.6423 -2.3948  0.1153
  267MOL0     H35181   5.658   6.214   3.794  2.3486 -1.5651  2.6686
  267MOL0     H35182   5.647   6.387   3.853 -0.8563  0.7066  0.3803
  267MOL0     H35183   5.429   6.348   3.754  1.6792 -0.5054 -1.5365
  267MOL0     H35184   5.392   6.319   3.933  1.1471 -0.4448  1.6222
  267MOL0     H35185   5.423   6.079   3.903 -3.8781 -2.1739 -0.4858
  267MOL0     H35186   5.474   6.102   3.732  0.2683  0.0831 -0.4502
  267MOL0     H35187   5.244   6.017   3.727 -0.3857  0.2908  0.9034
  267MOL0     H35188   5.217   6.119   3.868  3.5003  0.6947  2.3696
  267MOL0     H35189   5.237   6.252   3.585 -0.7792  0.5581 -0.1137
  267MOL0     H35190   5.172   6.315   3.735  1.4413 -0.4254  2.3025
  267MOL0     H35191   4.993   6.126   3.713  1.2735 -0.2841  0.1450
  267MOL0     H35192   5.073   6.077   3.572 -0.7554  1.3032 -1.9762
  267MOL0     H35193   4.917   6.345   3.613  0.4189  1.8891 -2.2135
  267MOL0     H35194   5.049   6.343   3.501  1.1506  0.6399  1.3073
  267MOL0     H35195   4.928   6.137   3.404  0.8275  1.2392 -0.7528
  267MOL0     H35196   4.855   6.304   3.386 -1.3997  0.5913  0.4926
  267MOL0     H35197   4.589   6.304   3.494 -2.0203 -2.7235 -6.2759
  267MOL0     H35198   4.377   6.083   3.655 -3.3756 -1.7926 -1.0293
  267MOL0     H35199   4.373   5.997   3.499  1.1529 -0.2521 -0.6470
  267MOL0     H35200   4.350   6.303   3.510 -2.4148  1.2625 -0.5722
  267MOL0     H35201   4.216   6.197   3.542  1.8504 -4.6027  2.0116
  267MOL0     H35202   4.387   6.199   3.282 -2.0478  1.7480 -2.1262
  267MOL0     H35203   4.278   6.074   3.302  2.0874 -0.2264 -2.2560
  267MOL0     H35204   4.152   6.216   3.184  2.0428  0.9140 -0.3001
  267MOL0     H35205   4.196   6.359   3.280  2.0886  0.3906  0.9957
  267MOL0     H35206   3.808   6.234   3.487 -0.3640 -1.4888 -0.7875
  267MOL0     H35207   3.594   6.297   3.385  0.6759 -0.5140  0.6600
  267MOL0     H35208   3.284   6.545   3.338  2.5208 -0.3813 -1.7127
  267MOL0     H35209   3.063   6.609   3.272  2.7022  1.1514  2.9253
  267MOL0     H35210   2.880   6.306   2.957  1.1433 -0.4058  0.9257
  267MOL0     H35211   2.752   6.425   2.995  0.3198 -0.8123  0.2403
  267MOL0     H35212   2.824   6.368   3.249 -1.0910  0.7188 -0.6466
  267MOL0     H35213   2.899   6.224   3.169 -0.0202 -0.0085  3.7825
  267MOL0     H35214   2.670   6.160   3.088 -1.2285 -2.3091  1.7399
  267MOL0     H35215   2.621   6.312   3.123 -0.2339  1.0376  1.2795
  267MOL0     H35216   2.538   6.129   3.288 -3.4780  1.7747  3.0325
  267MOL0     H35217   2.708   6.109   3.337  1.2782  2.0826  2.5688
  267MOL0     H35218   2.716   6.339   3.422  0.9060 -2.0631 -1.0092
  267MOL0     H35219   2.585   6.254   3.498  3.7359 -1.5430  0.9652
  267MOL0     H35220   2.565   6.464   3.266  1.5660 -2.9843  0.2637
  267MOL0     H35221   2.521   6.480   3.446 -1.8510  0.8415 -0.4009
  267MOL0     H35222   2.392   6.288   3.238  0.3558  0.2633  0.3442
  267MOL0     H35223   2.360   6.292   3.404  2.8497  0.5952  1.1066
  267MOL0     H35224   2.259   6.512   3.398 -0.5480 -0.8847  0.3479
  267MOL0     H35225   2.186   6.424   3.281  0.4981 -0.6542  0.5643
  267MOL0     H35226   3.091   6.333   2.937  1.1649  2.3644 -3.6485
  267MOL0     H35227   3.331   6.293   2.995 -2.8198 -1.4650 -1.9496
  267MOL0     H35228   3.808   6.401   3.016 -0.0030 -2.5752 -1.0142
  267MOL0     H35229   4.003   6.309   3.108  2.8950 -2.2993  2.5674
  267MOL0     H35230   5.635   6.353   4.216 -1.9720 -2.1607 -1.9358
  267MOL0     H35231   5.837   6.420   4.340 -2.9544 -0.8475 -0.0975
  267MOL0     H35232   6.342   6.283   4.325  1.3444 -1.8602  2.0851
  267MOL0     H35233   6.541   6.314   4.441 -0.0190 -0.2326  0.7149
  267MOL0     H35234   6.829   6.633   4.528  1.7788  1.2292 -1.9786
  267MOL0     H35235   6.683   6.733   4.510  0.1218  0.4259 -1.7065
  267MOL0     H35236   6.666   6.668   4.276 -1.3142 -0.8918  3.3660
  267MOL0     H35237   6.816   6.755   4.312 -1.0025  1.0462 -1.6367
  267MOL0     H35238   6.829   6.449   4.268  1.8012 -0.2713 -0.1398
  267MOL0     H35239   6.956   6.556   4.318  1.2162 -0.0362 -1.4492
  267MOL0     H35240   6.897   6.473   4.067 -0.9398  0.9448 -2.5645
  267MOL0     H35241   6.801   6.611   4.054  1.0498 -0.0702 -0.7634
  267MOL0     H35242   7.147   6.817   4.003  0.7654  0.1468  2.3297
  267MOL0     H35243   6.485   6.723   4.500  1.0047  0.6948 -2.3864
  267MOL0     H35244   6.239   6.698   4.401 -0.7475 -0.3645  1.6082
  268MOL0     O35245  11.252  10.506   9.212  0.0601 -0.2576  0.5280
  268MOL0     C35246  11.234  10.550   9.101 -1.2426 -0.4492 -0.5699
  268MOL0     O35247  11.337  10.592   9.017  0.5111 -0.9389  0.0804
  268MOL0     C35248  11.463  10.582   9.070  0.2434  0.8178  0.1190
  268MOL0     C35249  11.562  10.546   8.971 -0.4861 -0.2657 -0.0780
  268MOL0     C35250  11.699  10.564   8.995 -0.2098  0.8338  0.8058
  268MOL0     C35251  11.740  10.617   9.122 -0.0313 -0.7076 -0.1848
  268MOL0     O35252  11.870  10.614   9.154  0.3140 -0.3714 -0.1956
  268MOL0     C35253  11.922  10.741   9.161 -0.3192 -0.5428 -0.1790
  268MOL0     C35254  12.055  10.740   9.230 -0.0343 -0.3727  0.2224
  268MOL0     C35255  12.121  10.870   9.191 -0.4443 -0.8028  0.7572
  268MOL0     C35256  12.260  10.887   9.264  0.2902 -0.8790 -0.3670
  268MOL0     C35257  12.358  10.991   9.209 -0.0008  0.3036 -0.3639
  268MOL0     C35258  12.415  10.985   9.064 -0.3147 -0.4558 -0.1405
  268MOL0     C35259  12.509  10.864   9.038  0.9929 -0.3247 -0.9899
  268MOL0     C35260  12.515  10.835   8.889  0.0580  0.1576  0.7144
  268MOL0     N35261  12.549  10.947   8.806 -0.2690 -0.2294 -0.3626
  268MOL0     C35262  12.671  11.002   8.803 -0.7673 -0.1216 -1.0372
  268MOL0     C35263  12.672  11.099   8.713  0.4502 -0.7768  0.6836
  268MOL0     C35264  12.793  11.176   8.675 -0.5802 -0.1048  0.7493
  268MOL0     C35265  12.890  11.096   8.585  0.1344  0.4767 -0.4491
  268MOL0     C35266  13.007  11.174   8.511  0.5059 -0.6730 -0.0814
  268MOL0     C35267  13.116  11.224   8.603 -0.3908 -0.2282  0.0421
  268MOL0     O35268  13.086  11.282   8.730  0.0744  0.6612  0.1130
  268MOL0     C35269  13.193  11.312   8.818 -0.3059  0.3324 -0.0453
  268MOL0     C35270  13.317  11.319   8.784 -0.8396  0.4002  0.5277
  268MOL0     C35271  13.413  11.365   8.875  0.3646 -0.4560 -0.4851
  268MOL0     C35272  13.383  11.402   9.008 -0.1577 -0.2055  1.1392
  268MOL0     C35273  13.477  11.451   9.109 -0.8639 -0.3986 -0.7435
  268MOL0     O35274  13.602  11.422   9.087  0.2667 -0.0109  0.0046
  268MOL0     C35275  13.710  11.446   9.170 -0.1732  0.7753 -0.3113
  268MOL0     C35276  13.816  11.355   9.160  0.2134 -0.6868 -0.7434
  268MOL0     C35277  13.936  11.369   9.239 -0.6170  0.8091 -0.3932
  268MOL0     C35278  13.943  11.455   9.346 -0.2869 -0.3879  0.0279
  268MOL0     O35279  14.060  11.458   9.415  0.4353  0.0851  0.2732
  268MOL0     C35280  14.070  11.540   9.538  0.1155  0.6367 -0.3894
  268MOL0     C35281  13.996  11.480   9.654  0.7410  1.2320 -0.5807
  268MOL0     C35282  14.063  11.354   9.699  0.6583  0.4159  0.7804
  268MOL0     C35283  13.998  11.284   9.822  0.8418  0.3262  0.9175
  268MOL0     C35284  14.080  11.288   9.948 -0.5535 -0.0348  0.1861
  268MOL0     C35285  14.205  11.196   9.950  0.8510  0.0129  0.1911
  268MOL0     C35286  14.301  11.246  10.054 -0.7239 -0.3136  0.1023
  268MOL0     C35287  14.436  11.175  10.056 -0.5570 -1.0677 -0.1769
  268MOL0    Cl35288  14.554  11.244  10.166  0.2591 -0.2688  0.2007
  268MOL0     C35289  13.823  11.530   9.367  0.0104  0.6925 -0.3689
  268MOL0     C35290  13.722  11.540   9.274  1.0655 -0.9172 -0.6577
  268MOL0     O35291  13.432  11.488   9.212 -0.1008 -0.6378  0.0091
  268MOL0     C35292  13.251  11.391   9.041 -0.2345 -0.3619  0.5002
  268MOL0     C35293  13.156  11.336   8.952  0.4075 -0.3750  1.3108
  268MOL0     N35294  12.552  11.113   8.658 -0.1797  0.3591 -0.8824
  268MOL0     N35295  12.473  11.024   8.723 -0.0707 -0.0114 -0.1811
  268MOL0     C35296  11.644  10.642   9.219 -0.2454  0.4044 -0.5000
  268MOL0     C35297  11.506  10.636   9.200 -0.8925 -0.2931  0.9793
  268MOL0     C35298  11.104  10.514   9.043 -1.2128  0.2416  0.3889
  268MOL0     C35299  10.997  10.453   9.115  0.3160  0.1307  0.7646
  268MOL0     C35300  10.882  10.407   9.044  0.3554  0.2732  0.7272
  268MOL0     C35301  10.877  10.425   8.902  0.1189 -0.4969 -0.3344
  268MOL0     O35302  10.781  10.381   8.816 -0.1356  0.0808 -0.3602
  268MOL0     C35303  10.649  10.384   8.870 -0.7176  0.2754  0.1092
  268MOL0     C35304  10.547  10.426   8.759  0.0760 -1.0338 -0.1811
  268MOL0     C35305  10.405  10.463   8.804 -0.4776 -0.4008  0.0311
  268MOL0     C35306  10.328  10.366   8.892  0.4470  0.7388 -0.0847
  268MOL0     C35307  10.187  10.386   8.892  0.4791  0.5734 -0.3377
  268MOL0     C35308  10.070  10.410   8.887 -0.0991  1.0063  0.1793
  268MOL0     C35309  10.977  10.499   8.832  0.1600 -0.3575 -0.8513
  268MOL0     C35310  11.084  10.544   8.906 -0.1310  0.3834 -0.3989
  268MOL0     H35311  11.552  10.512   8.868  1.7820  0.9550 -0.7752
  268MOL0     H35312  11.784  10.534   8.935  1.5161  1.8952  2.5769
  268MOL0     H35313  11.856  10.802   9.225  3.0488  0.2791  2.8364
  268MOL0     H35314  11.939  10.788   9.064  3.7037  1.1369  1.1118
  268MOL0     H35315  12.121  10.656   9.205 -0.5260 -0.4678 -0.7976
  268MOL0     H35316  12.035  10.734   9.338 -0.8876 -0.8849  0.0453
  268MOL0     H35317  12.051  10.954   9.198 -1.4509 -0.9386 -4.1825
  268MOL0     H35318  12.154  10.862   9.087  0.6290 -0.3956  1.0550
  268MOL0     H35319  12.236  10.899   9.370  2.9857 -0.1813  0.2210
  268MOL0     H35320  12.310  10.790   9.266  2.1972  0.0865  0.5583
  268MOL0     H35321  12.441  10.985   9.280  1.0693 -0.0603 -1.6058
  268MOL0     H35322  12.320  11.094   9.215  1.1862  1.1167 -3.8581
  268MOL0     H35323  12.462  11.082   9.041 -1.1093 -0.5852 -2.5850
  268MOL0     H35324  12.323  10.990   9.005 -2.2683  0.3665  2.7538
  268MOL0     H35325  12.610  10.883   9.077 -0.7533  2.0982  3.0027
  268MOL0     H35326  12.481  10.778   9.098  0.7345  1.3269  1.4088
  268MOL0     H35327  12.427  10.791   8.840  2.2657 -0.9335 -2.5717
  268MOL0     H35328  12.581  10.752   8.862 -1.6834 -1.4560  1.2008
  268MOL0     H35329  12.750  10.978   8.874  0.9672  2.1249 -2.0618
  268MOL0     H35330  12.835  11.226   8.762  2.3154  2.1897 -1.7729
  268MOL0     H35331  12.743  11.253   8.615  0.0776  0.5955  1.0873
  268MOL0     H35332  12.827  11.046   8.511  0.1788  1.5817 -1.2502
  268MOL0     H35333  12.941  11.015   8.638 -3.0880 -2.9765 -2.1818
  268MOL0     H35334  13.041  11.098   8.440 -2.6130 -3.9491  1.5642
  268MOL0     H35335  12.952  11.257   8.467  0.0926  0.8559  3.0672
  268MOL0     H35336  13.172  11.307   8.559 -1.5609  0.1942 -0.6910
  268MOL0     H35337  13.184  11.141   8.624  1.5485  1.2671 -0.1228
  268MOL0     H35338  13.348  11.302   8.681 -0.4037 -1.1148  0.8875
  268MOL0     H35339  13.514  11.372   8.835 -0.4015 -1.4655 -2.7421
  268MOL0     H35340  13.808  11.279   9.083  2.1272 -0.3445 -1.3176
  268MOL0     H35341  14.017  11.304   9.208 -1.2482  0.6224 -1.7196
  268MOL0     H35342  14.036  11.643   9.526 -2.5992 -0.2643 -1.4031
  268MOL0     H35343  14.176  11.552   9.559 -0.3665  3.3095  0.8378
  268MOL0     H35344  13.890  11.462   9.630  1.3239 -0.1691 -2.3185
  268MOL0     H35345  13.995  11.551   9.737  1.4319 -0.1725  0.6860
  268MOL0     H35346  14.164  11.389   9.723  0.6497  1.2107 -0.3091
  268MOL0     H35347  14.066  11.272   9.627 -0.7565 -0.4733  1.6803
  268MOL0     H35348  13.907  11.339   9.845  1.5302  2.2509 -0.6583
  268MOL0     H35349  13.971  11.180   9.801  3.5636 -0.4225  0.7442
  268MOL0     H35350  14.007  11.239  10.014 -1.3172 -0.6669 -1.1000
  268MOL0     H35351  14.107  11.393   9.962  2.6198 -0.2984 -2.7516
  268MOL0     H35352  14.254  11.206   9.852 -1.2438 -0.1735 -0.9395
  268MOL0     H35353  14.175  11.093   9.972  1.3526 -0.8448 -2.6289
  268MOL0     H35354  14.327  11.351  10.038  1.7889 -1.0083 -0.8468
  268MOL0     H35355  14.257  11.239  10.154  0.8181  4.3346  1.3681
  268MOL0     H35356  14.478  11.172   9.955 -0.0839  1.2228 -0.1029
  268MOL0     H35357  14.427  11.071  10.087 -2.6477 -1.0013 -0.4534
  268MOL0     H35358  13.829  11.608   9.442 -2.6182 -1.0806  1.8759
  268MOL0     H35359  13.645  11.616   9.284 -0.6050 -2.8260  2.2328
  268MOL0     H35360  13.222  11.415   9.143  2.6052 -1.0762  1.5680
  268MOL0     H35361  13.054  11.311   8.980  0.8694 -2.5814  1.1883
  268MOL0     H35362  11.668  10.662   9.323 -1.3934 -2.3499  0.4026
  268MOL0     H35363  11.431  10.673   9.269 -0.7357  0.4144  0.7845
  268MOL0     H35364  11.024  10.434   9.219  0.9050  0.9666  0.7749
  268MOL0     H35365  10.802  10.351   9.091 -3.5676  2.1942 -2.9958
  268MOL0     H35366  10.640  10.454   8.954  0.7254 -0.4863  0.9400
  268MOL0     H35367  10.628  10.283   8.907  3.6434 -0.0505  2.4743
  268MOL0     H35368  10.595  10.510   8.707  0.3882 -2.0707 -1.6367
  268MOL0     H35369  10.537  10.349   8.683  1.0392  0.4959 -1.9610
  268MOL0     H35370  10.350  10.473   8.710  1.1300 -1.0258 -1.0025
  268MOL0     H35371  10.392  10.561   8.850 -2.7414 -0.9266  0.6856
  268MOL0     H35372  10.350  10.264   8.859  1.9056  0.6460  1.0988
  268MOL0     H35373  10.367  10.371   8.994 -0.0813  2.7653  0.0759
  268MOL0     H35374   9.967  10.435   8.871 -1.3491 -3.5513 -0.4207
  268MOL0     H35375  10.956  10.517   8.727 -1.9976  3.4794  0.0379
  268MOL0     H35376  11.164  10.585   8.844  3.4888 -2.5697  1.9042
  269MOL0     O35377   3.368   5.666   0.630 -0.1865 -0.7258 -0.5256
  269MOL0     C35378   3.305   5.658   0.522 -0.1269  0.5967 -0.2556
  269MOL0     O35379   3.320   5.556   0.431 -0.0803  0.6731  0.3132
  269MOL0     C35380   3.428   5.470   0.447  0.1150  0.2343  0.2674
  269MOL0     C35381   3.413   5.342   0.485  0.6911 -0.1380  0.5118
  269MOL0     C35382   3.521   5.258   0.490  0.8944  0.1316 -0.7960
  269MOL0     C35383   3.651   5.307   0.473 -0.0249  0.1267  0.3767
  269MOL0     O35384   3.759   5.225   0.477 -0.0152  0.3351  0.7041
  269MOL0     C35385   3.757   5.120   0.580  0.1954 -0.6685 -0.2235
  269MOL0     C35386   3.895   5.098   0.641 -0.0477  0.0471  0.4244
  269MOL0     C35387   3.989   5.031   0.552  0.5688 -0.5275  0.0908
  269MOL0     C35388   4.120   5.006   0.622  0.0743  0.1654 -1.1603
  269MOL0     C35389   4.206   4.942   0.515 -0.5704 -0.0245  0.3422
  269MOL0     C35390   4.331   4.894   0.587 -0.1356  0.6599 -1.0110
  269MOL0     C35391   4.425   4.830   0.480  0.2108 -0.6483 -0.0902
  269MOL0     C35392   4.380   4.695   0.426  0.9518  0.2701  0.2112
  269MOL0     N35393   4.416   4.581   0.516 -0.7793 -0.1337 -0.4774
  269MOL0     C35394   4.477   4.470   0.471  0.1617 -0.7515  0.0919
  269MOL0     C35395   4.487   4.387   0.572  0.0514 -0.6172  0.6011
  269MOL0     C35396   4.595   4.278   0.600  0.5171 -0.1756 -0.7607
  269MOL0     C35397   4.570   4.135   0.534  0.7614 -0.2746  0.5571
  269MOL0     C35398   4.449   4.052   0.575 -0.3293 -0.2196  1.0308
  269MOL0     C35399   4.447   4.026   0.727 -0.6390 -0.5134 -0.7136
  269MOL0     O35400   4.340   3.932   0.756 -0.7657 -0.7685  0.1576
  269MOL0     C35401   4.217   3.995   0.769  1.0970 -0.0970  0.4716
  269MOL0     C35402   4.190   4.134   0.770 -0.2767  0.1554  0.0949
  269MOL0     C35403   4.055   4.181   0.795  0.5842 -0.5186  0.0665
  269MOL0     C35404   3.944   4.096   0.811 -0.3775 -0.0062 -0.1475
  269MOL0     C35405   3.805   4.144   0.823 -0.9628  0.0598  0.0038
  269MOL0     O35406   3.773   4.262   0.875  0.7745 -0.2961 -0.4973
  269MOL0     C35407   3.642   4.297   0.890 -0.1586  0.4309  1.0678
  269MOL0     C35408   3.591   4.407   0.831  0.5500  0.4328 -0.8507
  269MOL0     C35409   3.454   4.437   0.837  0.4368 -0.4116  0.0530
  269MOL0     C35410   3.361   4.354   0.893  0.2056  0.7001 -0.7645
  269MOL0     O35411   3.235   4.404   0.883 -0.0603 -0.9041  0.0790
  269MOL0     C35412   3.132   4.352   0.966  0.2354 -0.0076  0.3533
  269MOL0     C35413   2.996   4.407   0.932 -0.5342 -0.4096 -0.6487
  269MOL0     C35414   2.891   4.361   1.037  0.4071  0.3667  0.3045
  269MOL0     C35415   2.762   4.438   0.993 -0.9255  0.2378 -0.4104
  269MOL0     C35416   2.648   4.382   1.064  1.3881  0.0150 -0.3751
  269MOL0     C35417   2.535   4.488   1.076 -0.0032  0.6567  0.0740
  269MOL0     C35418   2.394   4.448   1.117 -0.8354  0.3280 -0.2071
  269MOL0     C35419   2.326   4.375   0.998 -0.5089  0.2799  0.1134
  269MOL0    Cl35420   2.153   4.320   1.044  0.3157 -0.5741  0.0890
  269MOL0     C35421   3.410   4.240   0.957 -0.1881 -0.2108 -0.4194
  269MOL0     C35422   3.553   4.213   0.956  0.8525 -0.1639 -1.0089
  269MOL0     O35423   3.724   4.066   0.771  0.0095  0.0932 -0.0420
  269MOL0     C35424   3.978   3.958   0.804  0.2789 -0.6174 -0.1042
  269MOL0     C35425   4.107   3.911   0.786  0.1247  0.1613 -0.1884
  269MOL0     N35426   4.407   4.433   0.674 -0.9625 -0.3084  0.2393
  269MOL0     N35427   4.361   4.558   0.642 -0.0711 -0.0490  0.1579
  269MOL0     C35428   3.663   5.445   0.427 -0.6095 -0.0040  0.8419
  269MOL0     C35429   3.553   5.519   0.416 -1.2097  1.2680 -0.3075
  269MOL0     C35430   3.186   5.741   0.506 -0.4446  0.0500  1.5109
  269MOL0     C35431   3.115   5.733   0.386 -0.3470  0.1516  0.3518
  269MOL0     C35432   2.995   5.801   0.360 -0.5382  0.3314 -0.3184
  269MOL0     C35433   2.957   5.901   0.450 -0.8670  0.3696 -0.4704
  269MOL0     O35434   2.859   5.986   0.411 -0.4834  0.0489 -0.2848
  269MOL0     C35435   2.763   5.940   0.321  0.4064  0.4425  0.2085
  269MOL0     C35436   2.629   6.023   0.342 -0.2739 -0.1828  0.0972
  269MOL0     C35437   2.598   6.047   0.479  0.5530 -0.7198  0.6749
  269MOL0     C35438   2.566   5.923   0.556 -0.8300 -0.2104 -0.6417
  269MOL0     C35439   2.453   5.850   0.507  0.4994  0.2444  0.0464
  269MOL0     C35440   2.354   5.802   0.464  0.1083  0.6567  1.0855
  269MOL0     C35441   3.027   5.916   0.572  0.1510  0.1787  0.0463
  269MOL0     C35442   3.143   5.834   0.599 -0.2043 -0.6899 -0.7878
  269MOL0     H35443   3.307   5.319   0.498 -0.2669  2.8254 -1.1187
  269MOL0     H35444   3.518   5.153   0.517  0.3435  0.0347 -1.2246
  269MOL0     H35445   3.729   5.025   0.536 -2.0397  0.5487 -1.5800
  269MOL0     H35446   3.684   5.135   0.661  1.3957 -1.1300  0.9934
  269MOL0     H35447   3.882   5.036   0.731 -0.4452  0.8009  0.8912
  269MOL0     H35448   3.930   5.199   0.663 -1.3884  0.7144 -0.4414
  269MOL0     H35449   3.995   5.101   0.468 -1.2486  1.2624  1.3459
  269MOL0     H35450   3.938   4.941   0.516  0.0647 -0.5599  0.8454
  269MOL0     H35451   4.150   5.102   0.667  2.4711 -2.1251  2.6997
  269MOL0     H35452   4.095   4.952   0.714  1.1230 -2.0580 -2.1080
  269MOL0     H35453   4.211   5.014   0.432 -0.2805 -0.1858  0.2214
  269MOL0     H35454   4.151   4.857   0.474  1.4838 -1.7297  0.9960
  269MOL0     H35455   4.310   4.820   0.665 -2.7602  1.3000 -1.0383
  269MOL0     H35456   4.391   4.976   0.628  2.6871 -0.4669 -2.5598
  269MOL0     H35457   4.435   4.895   0.394 -0.0717  0.5379  0.7496
  269MOL0     H35458   4.523   4.818   0.527  1.1185  1.8267 -1.2091
  269MOL0     H35459   4.434   4.673   0.334  0.0325 -1.8342  0.1172
  269MOL0     H35460   4.272   4.685   0.412  0.7852  1.8249  0.2428
  269MOL0     H35461   4.530   4.460   0.377 -0.0809  0.9983 -0.2673
  269MOL0     H35462   4.614   4.271   0.707 -1.1128  3.3636 -0.0896
  269MOL0     H35463   4.684   4.324   0.556  1.5654 -0.3641  1.0579
  269MOL0     H35464   4.653   4.073   0.567  1.3967 -0.3116 -1.0445
  269MOL0     H35465   4.567   4.154   0.426 -1.3017 -0.0984  0.5940
  269MOL0     H35466   4.367   4.115   0.539  3.2075  2.5108 -3.2486
  269MOL0     H35467   4.456   3.965   0.510  1.2978  2.5011 -2.7979
  269MOL0     H35468   4.439   4.118   0.785 -0.7083 -1.6481  1.1724
  269MOL0     H35469   4.541   3.975   0.750 -1.4577 -1.1193  1.5078
  269MOL0     H35470   4.256   4.221   0.771 -1.1695  0.8836  1.7193
  269MOL0     H35471   4.050   4.289   0.793  3.2503 -0.3388 -0.6560
  269MOL0     H35472   3.665   4.473   0.787  2.2572 -0.9625 -0.2153
  269MOL0     H35473   3.416   4.530   0.796 -0.9847 -1.4924 -1.1974
  269MOL0     H35474   3.156   4.356   1.073 -4.1161  0.8639  1.4875
  269MOL0     H35475   3.116   4.249   0.935 -2.3430 -0.3593  2.4945
  269MOL0     H35476   2.973   4.379   0.828 -2.2511 -0.0096 -0.4061
  269MOL0     H35477   2.996   4.517   0.929 -2.0016 -0.2909  1.3773
  269MOL0     H35478   2.907   4.385   1.142 -2.0163  1.7085  0.4401
  269MOL0     H35479   2.885   4.252   1.028  4.4144  0.0137  0.0909
  269MOL0     H35480   2.773   4.541   1.028  2.1691 -0.9337  2.5276
  269MOL0     H35481   2.755   4.443   0.884  0.5046 -0.2893 -0.5423
  269MOL0     H35482   2.671   4.343   1.164  0.2521  0.6593  0.1574
  269MOL0     H35483   2.618   4.296   1.003 -3.4745 -0.1739  1.8164
  269MOL0     H35484   2.523   4.530   0.975 -2.3613 -2.3055 -1.0350
  269MOL0     H35485   2.562   4.557   1.156  0.5157 -1.3927  1.7352
  269MOL0     H35486   2.407   4.390   1.208  2.8434  1.9405  0.4638
  269MOL0     H35487   2.344   4.541   1.148  0.3649  1.0761 -0.4560
  269MOL0     H35488   2.389   4.288   0.979  0.8875  1.2109  0.3640
  269MOL0     H35489   2.331   4.432   0.905  1.0780  3.8858  2.2307
  269MOL0     H35490   3.336   4.180   1.010 -1.4751  1.2302 -0.5050
  269MOL0     H35491   3.585   4.130   1.019 -2.6367  0.9984  2.6762
  269MOL0     H35492   3.896   3.886   0.808  0.7698 -1.1701  0.0916
  269MOL0     H35493   4.116   3.803   0.783 -1.3935 -0.0194 -4.1978
  269MOL0     H35494   3.757   5.493   0.400 -0.4153 -0.0952  1.3565
  269MOL0     H35495   3.561   5.624   0.390  0.6585  1.5588  1.1814
  269MOL0     H35496   3.142   5.671   0.301 -0.0930 -0.2583  0.7246
  269MOL0     H35497   2.960   5.776   0.261  0.3917  0.8680 -0.7956
  269MOL0     H35498   2.744   5.834   0.337  4.4917 -0.2049  1.8588
  269MOL0     H35499   2.794   5.950   0.217 -1.8751  1.1648 -0.4807
  269MOL0     H35500   2.636   6.118   0.289  1.3682 -1.3535 -1.9460
  269MOL0     H35501   2.544   5.976   0.291 -0.5912  0.0198  0.4421
  269MOL0     H35502   2.510   6.111   0.486  1.3304  0.2165  2.6420
  269MOL0     H35503   2.679   6.098   0.531  0.8157  1.5372 -1.7373
  269MOL0     H35504   2.650   5.853   0.556 -0.4919  0.1840 -1.6202
  269MOL0     H35505   2.549   5.942   0.662 -3.7236 -0.0245 -1.0431
  269MOL0     H35506   2.271   5.756   0.413  1.8729 -0.8583 -0.6347
  269MOL0     H35507   2.983   5.996   0.630  0.3510  0.4663 -0.1965
  269MOL0     H35508   3.204   5.841   0.688  3.6327 -2.5283 -2.9902
  270MOL0     O35509   3.006   0.672   0.420  0.0428  0.2980 -0.1982
  270MOL0     C35510   3.034   0.789   0.454  0.6294  0.2074  0.4710
  270MOL0     O35511   2.945   0.898   0.438 -0.2211  0.3807  0.0046
  270MOL0     C35512   2.817   0.880   0.417 -0.3443  0.8208  0.9904
  270MOL0     C35513   2.750   0.991   0.392 -0.5144  0.1685  0.4217
  270MOL0     C35514   2.609   1.007   0.392  0.2966 -0.0706 -1.1558
  270MOL0     C35515   2.523   0.897   0.413 -0.2333  0.0929  1.1722
  270MOL0     O35516   2.386   0.901   0.398  0.8141  0.4985 -0.1973
  270MOL0     C35517   2.330   1.007   0.473  0.4156 -0.3449  0.4115
  270MOL0     C35518   2.176   1.013   0.444  0.0177  0.8791  0.1124
  270MOL0     C35519   2.086   0.898   0.507 -0.3828 -0.0603  0.0129
  270MOL0     C35520   1.942   0.937   0.524  0.5871 -0.3311 -0.7813
  270MOL0     C35521   1.842   0.833   0.577 -0.1519 -0.5223 -0.4445
  270MOL0     C35522   1.706   0.902   0.595  0.5852 -1.2959  0.7061
  270MOL0     C35523   1.601   0.826   0.671  1.0854 -0.1623 -1.2028
  270MOL0     C35524   1.511   0.924   0.759 -0.1739 -0.1238 -0.1037
  270MOL0     N35525   1.564   0.962   0.892  0.1136 -0.1949  0.2510
  270MOL0     C35526   1.688   0.913   0.940  0.3432  0.5677 -0.6764
  270MOL0     C35527   1.707   0.954   1.065  0.0183  0.0796 -0.1155
  270MOL0     C35528   1.831   0.929   1.154  0.7721  0.4462  0.2845
  270MOL0     C35529   1.798   0.868   1.286 -0.6014 -0.0890  0.6597
  270MOL0     C35530   1.747   0.719   1.270  0.4100  0.0311  0.1260
  270MOL0     C35531   1.592   0.718   1.228 -0.5913 -0.3856 -0.7164
  270MOL0     O35532   1.525   0.608   1.285  0.0015  0.0532  0.0228
  270MOL0     C35533   1.389   0.608   1.284 -0.5507  0.3169 -0.1689
  270MOL0     C35534   1.329   0.491   1.332 -1.1479 -1.0146  0.1414
  270MOL0     C35535   1.188   0.474   1.348  0.6237  0.2898  0.6564
  270MOL0     C35536   1.113   0.586   1.302  0.0771 -0.5285 -0.3123
  270MOL0     C35537   0.965   0.581   1.313 -0.7789 -0.1892 -0.4802
  270MOL0     O35538   0.904   0.456   1.327 -0.2444  0.0122  0.3101
  270MOL0     C35539   0.774   0.452   1.366 -0.0900  0.2741 -0.0327
  270MOL0     C35540   0.674   0.527   1.307  0.2641  0.3182 -0.5439
  270MOL0     C35541   0.545   0.503   1.341  1.5384  0.4216  1.0556
  270MOL0     C35542   0.493   0.402   1.416  0.5514 -0.0466 -1.1027
  270MOL0     O35543   0.355   0.377   1.441  0.8193 -0.4463  0.5551
  270MOL0     C35544   0.316   0.274   1.526  0.7153  0.0993 -0.0397
  270MOL0     C35545   0.313   0.131   1.458 -0.4262  0.2034 -0.3449
  270MOL0     C35546   0.207   0.130   1.348 -0.0219 -0.3670 -0.0404
  270MOL0     C35547   0.200  -0.001   1.281  0.6756  0.0599  0.5365
  270MOL0     C35548   0.064  -0.023   1.220 -0.7304 -0.8367 -0.1973
  270MOL0     C35549   0.037   0.032   1.085  0.7495 -0.1970 -0.8609
  270MOL0     C35550  -0.084  -0.025   1.009  0.2575 -0.2053  0.7606
  270MOL0     C35551  -0.216   0.010   1.078  0.4850 -0.0895  0.2513
  270MOL0    Cl35552  -0.344  -0.071   0.978  0.1462 -0.0268  0.2627
  270MOL0     C35553   0.598   0.332   1.483 -0.2732 -0.2001 -0.3396
  270MOL0     C35554   0.732   0.360   1.465 -0.0894  0.6726 -0.8871
  270MOL0     O35555   0.912   0.692   1.331 -0.7113  0.5634 -0.1168
  270MOL0     C35556   1.165   0.701   1.246  0.2758  0.4827 -0.5947
  270MOL0     C35557   1.301   0.716   1.237 -0.4854 -0.2153  0.1630
  270MOL0     N35558   1.587   1.016   1.101  0.6812  0.3899  0.5728
  270MOL0     N35559   1.502   1.029   0.999  0.7720  0.0433 -0.2578
  270MOL0     C35560   2.590   0.774   0.439  0.3594 -0.7290 -1.0671
  270MOL0     C35561   2.731   0.774   0.451 -0.5045 -0.1097  0.9873
  270MOL0     C35562   3.165   0.812   0.505  0.9459 -0.5358 -0.0074
  270MOL0     C35563   3.191   0.896   0.614 -0.6902 -0.1812 -0.0916
  270MOL0     C35564   3.326   0.915   0.661  0.7391 -0.3195 -0.4383
  270MOL0     C35565   3.435   0.839   0.615  0.1622  0.6657 -1.4749
  270MOL0     O35566   3.564   0.844   0.667 -0.9936 -0.2365  0.4129
  270MOL0     C35567   3.586   0.933   0.782  0.9310  0.3514  0.2920
  270MOL0     C35568   3.538   0.880   0.917  0.5594 -0.3409 -0.6748
  270MOL0     C35569   3.638   0.769   0.951  0.1790 -0.0814 -0.2944
  270MOL0     C35570   3.637   0.725   1.102  0.2823  0.8978 -0.0886
  270MOL0     C35571   3.742   0.627   1.129  0.0173  0.8512 -0.7979
  270MOL0     C35572   3.820   0.534   1.156  0.7104 -0.2288 -0.1367
  270MOL0     C35573   3.411   0.768   0.496  0.3850  0.1708 -0.5613
  270MOL0     C35574   3.276   0.745   0.449  0.8176  0.1348  0.1298
  270MOL0     H35575   2.807   1.083   0.381 -0.8424  0.1337 -2.3018
  270MOL0     H35576   2.566   1.105   0.373 -0.0368 -0.7563 -4.7216
  270MOL0     H35577   2.359   1.109   0.448 -2.6181  0.0894 -1.8935
  270MOL0     H35578   2.346   0.993   0.581  0.7997  0.1247  0.4178
  270MOL0     H35579   2.163   1.017   0.335  0.1420  1.2404  0.1118
  270MOL0     H35580   2.136   1.105   0.486 -0.1959 -0.0068  1.9412
  270MOL0     H35581   2.134   0.878   0.603 -1.8993 -1.1408  0.5896
  270MOL0     H35582   2.111   0.809   0.448 -0.9324  1.4999 -2.7613
  270MOL0     H35583   1.943   1.020   0.594  1.6943  0.5790 -1.8302
  270MOL0     H35584   1.913   0.967   0.423  1.9690  0.7246 -0.9056
  270MOL0     H35585   1.887   0.786   0.665 -0.5941 -3.0401 -1.4937
  270MOL0     H35586   1.839   0.759   0.496 -1.2275  0.3325 -1.2200
  270MOL0     H35587   1.668   0.930   0.496 -0.2256 -1.2014  1.0377
  270MOL0     H35588   1.731   0.995   0.648 -2.4688  0.4448 -0.6355
  270MOL0     H35589   1.546   0.767   0.598  1.6598 -0.7809 -1.1471
  270MOL0     H35590   1.652   0.767   0.747 -2.4653 -1.2744  0.5149
  270MOL0     H35591   1.413   0.883   0.785  0.1589  0.4205  2.3210
  270MOL0     H35592   1.488   1.017   0.706  0.0664 -0.7175 -1.2882
  270MOL0     H35593   1.768   0.866   0.884 -1.5209 -2.3093 -1.1290
  270MOL0     H35594   1.881   1.025   1.170  0.7815  1.0665 -2.8349
  270MOL0     H35595   1.903   0.870   1.097  2.9597  1.2941  1.9968
  270MOL0     H35596   1.722   0.935   1.328 -0.4383  0.1228  0.6198
  270MOL0     H35597   1.889   0.862   1.346 -0.8079 -0.7097  0.9197
  270MOL0     H35598   1.815   0.664   1.204  0.7423  0.4955  0.0750
  270MOL0     H35599   1.754   0.675   1.370 -2.2365 -2.9613 -0.8569
  270MOL0     H35600   1.580   0.696   1.121 -1.4375  1.7690 -1.1118
  270MOL0     H35601   1.538   0.809   1.256 -0.1211 -0.7845  1.7220
  270MOL0     H35602   1.399   0.415   1.363 -1.1262 -2.4166 -2.9697
  270MOL0     H35603   1.145   0.395   1.408 -1.3969  3.1862  3.3364
  270MOL0     H35604   0.709   0.601   1.235  1.4727  0.7142  0.4238
  270MOL0     H35605   0.460   0.552   1.293  1.9444  0.3290  0.2207
  270MOL0     H35606   0.214   0.292   1.561 -0.3307 -1.4558 -2.0905
  270MOL0     H35607   0.371   0.296   1.618 -0.8867 -0.7155  1.1473
  270MOL0     H35608   0.294   0.052   1.530  0.3549 -1.0631 -1.4629
  270MOL0     H35609   0.412   0.107   1.418 -0.1474  1.7102 -0.6251
  270MOL0     H35610   0.249   0.193   1.269 -2.3954  1.8944  0.3893
  270MOL0     H35611   0.113   0.180   1.371  1.4690  1.4645  2.7758
  270MOL0     H35612   0.275  -0.008   1.201  3.8248  1.0513  3.1515
  270MOL0     H35613   0.230  -0.073   1.358 -1.1038  0.9861  2.1456
  270MOL0     H35614  -0.016   0.016   1.285  1.8146  0.3509  2.4420
  270MOL0     H35615   0.051  -0.132   1.215 -3.5126 -0.6545  1.0111
  270MOL0     H35616   0.128   0.026   1.025  1.8947  1.7344  0.5553
  270MOL0     H35617   0.006   0.136   1.098 -0.0141 -0.5661  0.4292
  270MOL0     H35618  -0.089   0.033   0.916 -1.0375 -0.5824  0.5758
  270MOL0     H35619  -0.087  -0.132   0.985 -1.8526  0.4620 -2.6640
  270MOL0     H35620  -0.225   0.119   1.076 -1.5627 -0.1838 -3.4641
  270MOL0     H35621  -0.210  -0.025   1.182  0.0851 -0.8895  0.0128
  270MOL0     H35622   0.576   0.237   1.531  0.5097 -0.0821  0.2640
  270MOL0     H35623   0.805   0.290   1.506  0.8350  1.9690 -0.2430
  270MOL0     H35624   1.102   0.788   1.233  0.9772  1.6874  3.0393
  270MOL0     H35625   1.344   0.805   1.192 -1.2022  0.1070  0.1152
  270MOL0     H35626   2.530   0.687   0.462 -0.9142  0.7487  1.7073
  270MOL0     H35627   2.768   0.680   0.489  1.4424  1.5171  3.4037
  270MOL0     H35628   3.109   0.950   0.661  0.1361  1.3204 -0.2845
  270MOL0     H35629   3.343   0.975   0.750 -1.4318  0.1608 -0.2847
  270MOL0     H35630   3.547   1.032   0.755  0.7011  0.4668  1.0320
  270MOL0     H35631   3.691   0.962   0.784  1.0709 -0.1571  0.2588
  270MOL0     H35632   3.547   0.968   0.982 -2.0371  1.2691 -2.3208
  270MOL0     H35633   3.437   0.839   0.916  0.5800 -0.4831  0.5290
  270MOL0     H35634   3.738   0.789   0.914 -0.8293  0.9280 -2.6577
  270MOL0     H35635   3.613   0.680   0.893 -1.6154 -0.4970  0.9900
  270MOL0     H35636   3.652   0.813   1.165  2.9005  0.7144 -0.3483
  270MOL0     H35637   3.535   0.690   1.120  0.7457 -0.2403  0.4528
  270MOL0     H35638   3.885   0.448   1.155  0.3901 -0.5553 -3.1323
  270MOL0     H35639   3.496   0.710   0.462  1.6121  1.7855 -0.3551
  270MOL0     H35640   3.257   0.678   0.366  1.2144  2.1784 -1.7297
  271MOL0     O35641   6.322  10.173  11.048 -0.5770  0.0603  0.0893
  271MOL0     C35642   6.342  10.283  11.105  0.4603  0.2027  0.3082
  271MOL0     O35643   6.247  10.383  11.122 -0.0847  0.7562 -0.0424
  271MOL0     C35644   6.111  10.351  11.116  0.1668  0.6009 -0.7042
  271MOL0     C35645   6.048  10.230  11.154  0.0889  0.9481 -1.1410
  271MOL0     C35646   5.911  10.219  11.149 -0.4364  0.0983  0.1710
  271MOL0     C35647   5.827  10.326  11.128 -0.7396  0.1362  0.0183
  271MOL0     O35648   5.695  10.297  11.138  0.2642 -0.1040 -0.9069
  271MOL0     C35649   5.602  10.393  11.108  0.0299 -0.1398  0.4176
  271MOL0     C35650   5.475  10.355  11.161 -0.0402 -0.1120 -0.2487
  271MOL0     C35651   5.459  10.366  11.323  0.1248  0.1695 -0.3247
  271MOL0     C35652   5.307  10.351  11.345  0.3078  0.2506  0.9862
  271MOL0     C35653   5.269  10.385  11.489 -0.1289  0.6880  0.2068
  271MOL0     C35654   5.107  10.384  11.503  0.2669 -0.1244 -0.7794
  271MOL0     C35655   5.071  10.391  11.654  0.3845  0.6660  0.5772
  271MOL0     C35656   5.129  10.269  11.734  0.4002 -0.0406 -0.2303
  271MOL0     N35657   5.037  10.219  11.835 -0.1462 -0.1950  0.0081
  271MOL0     C35658   4.997  10.303  11.941 -0.8500  0.4359  0.7322
  271MOL0     C35659   4.881  10.250  11.988 -0.3821  1.0462  0.4477
  271MOL0     C35660   4.791  10.292  12.101  0.7011  0.4231  1.1883
  271MOL0     C35661   4.702  10.409  12.059  0.1363  0.6046  1.0356
  271MOL0     C35662   4.577  10.350  11.983 -0.5116  0.0022  0.2786
  271MOL0     C35663   4.458  10.445  11.968 -0.2023  0.1055  0.3868
  271MOL0     O35664   4.384  10.451  12.090  0.5314 -0.4562 -0.2140
  271MOL0     C35665   4.289  10.356  12.112  0.7407  0.2384 -0.0243
  271MOL0     C35666   4.262  10.241  12.033  0.7691  0.3919  0.6740
  271MOL0     C35667   4.151  10.160  12.061 -0.0169 -0.3106  0.4835
  271MOL0     C35668   4.065  10.195  12.164 -0.9350  0.2428  0.0952
  271MOL0     C35669   3.951  10.107  12.188 -0.5157 -0.9572 -1.0032
  271MOL0     O35670   3.855  10.165  12.270  0.2588 -0.0592  0.4472
  271MOL0     C35671   3.729  10.107  12.301  0.2435  0.3328 -0.1999
  271MOL0     C35672   3.636  10.191  12.367 -0.7265 -0.5822 -0.0076
  271MOL0     C35673   3.519  10.145  12.419  0.2985  0.0491  0.7300
  271MOL0     C35674   3.481  10.010  12.389 -0.3418  0.0678  0.2812
  271MOL0     O35675   3.357   9.963  12.422  0.1130  0.1178  0.1894
  271MOL0     C35676   3.247  10.046  12.379 -0.5538 -1.2911 -0.4039
  271MOL0     C35677   3.110   9.976  12.386 -0.4331  0.1590 -0.1735
  271MOL0     C35678   3.124   9.833  12.347 -0.0809 -0.3461  0.0259
  271MOL0     C35679   3.000   9.764  12.316  0.0755 -0.3251 -0.1869
  271MOL0     C35680   2.898   9.750  12.431  0.2857  0.2317 -0.1706
  271MOL0     C35681   2.783   9.652  12.402 -0.4016 -0.1566 -0.2731
  271MOL0     C35682   2.676   9.664  12.511  0.1253  0.8317 -0.1981
  271MOL0     C35683   2.570   9.555  12.513 -0.5226  0.2680  0.1005
  271MOL0    Cl35684   2.494   9.546  12.350 -0.0831  0.5922 -0.1027
  271MOL0     C35685   3.573   9.919  12.334  1.0212  0.3569  0.8510
  271MOL0     C35686   3.693   9.969  12.283  0.4798  0.4299  0.9389
  271MOL0     O35687   3.946   9.994  12.143  0.3219 -0.6928 -0.0249
  271MOL0     C35688   4.091  10.304  12.239 -0.2387  0.0375  1.0164
  271MOL0     C35689   4.201  10.383  12.219  0.8420  0.2838  0.2766
  271MOL0     N35690   4.852  10.136  11.909  0.2253 -0.5650  0.3049
  271MOL0     N35691   4.943  10.120  11.819 -0.8585  0.0804 -0.4696
  271MOL0     C35692   5.890  10.450  11.109  0.5207 -0.3025  0.2072
  271MOL0     C35693   6.026  10.457  11.094 -0.1937  0.8342  0.0077
  271MOL0     C35694   6.481  10.322  11.129  0.4752  0.1456 -0.5503
  271MOL0     C35695   6.585  10.251  11.067  1.1636 -0.3466 -0.1271
  271MOL0     C35696   6.715  10.293  11.092 -0.3985 -0.0686  0.6670
  271MOL0     C35697   6.744  10.392  11.183 -0.7694  0.2998  0.3307
  271MOL0     O35698   6.866  10.453  11.202  0.3096 -0.1369 -0.0580
  271MOL0     C35699   6.991  10.409  11.134  0.0693  0.0513 -0.3617
  271MOL0     C35700   7.048  10.288  11.210 -0.1193 -0.3266 -0.5026
  271MOL0     C35701   7.114  10.335  11.350 -0.2835 -0.4020  0.3709
  271MOL0     C35702   7.265  10.333  11.342  1.4317 -0.3018  0.2019
  271MOL0     C35703   7.313  10.198  11.342 -0.1639 -0.7562  1.4942
  271MOL0     C35704   7.365  10.094  11.316  0.3940  0.4536 -0.6262
  271MOL0     C35705   6.644  10.467  11.244  1.0290 -0.6321  0.8672
  271MOL0     C35706   6.512  10.434  11.211 -0.2311 -0.3547 -1.2431
  271MOL0     H35707   6.103  10.138  11.171 -3.5237 -0.7529  3.2813
  271MOL0     H35708   5.867  10.125  11.182 -2.9023  1.2894  0.4762
  271MOL0     H35709   5.587  10.414  11.001 -0.6688 -1.6153  0.1966
  271MOL0     H35710   5.623  10.495  11.142 -1.1175  2.5757 -5.6043
  271MOL0     H35711   5.462  10.251  11.130 -3.3978  0.4960 -1.2152
  271MOL0     H35712   5.399  10.415  11.111 -2.7359 -1.7058  1.6686
  271MOL0     H35713   5.467  10.461  11.375  0.7633 -0.4116  0.6575
  271MOL0     H35714   5.532  10.294  11.361  0.0958 -0.0919 -0.7502
  271MOL0     H35715   5.257  10.409  11.268  2.8069  0.4411 -0.6251
  271MOL0     H35716   5.287  10.244  11.333  2.0258 -0.0938  0.9418
  271MOL0     H35717   5.306  10.482  11.523 -2.2393  1.7387 -0.3269
  271MOL0     H35718   5.309  10.312  11.560 -1.3563  0.5376  0.7580
  271MOL0     H35719   5.067  10.289  11.467  0.3282 -1.2765  1.9568
  271MOL0     H35720   5.064  10.456  11.433  1.0032  0.1421 -0.9704
  271MOL0     H35721   5.096  10.491  11.691 -3.4741  1.7585  0.6867
  271MOL0     H35722   4.962  10.385  11.656  0.4050 -0.7403 -0.3875
  271MOL0     H35723   5.222  10.297  11.784  1.1722  1.0739 -2.1887
  271MOL0     H35724   5.145  10.189  11.662  3.7345 -2.5337  2.8824
  271MOL0     H35725   5.042  10.398  11.970  0.6681 -0.0470  0.0872
  271MOL0     H35726   4.853  10.301  12.192 -0.2214 -3.1296  2.3388
  271MOL0     H35727   4.723  10.208  12.116 -1.9984  1.7203 -2.4342
  271MOL0     H35728   4.762  10.473  11.994 -0.7510  0.8057  0.3935
  271MOL0     H35729   4.673  10.453  12.155  2.3504  1.4078  1.3829
  271MOL0     H35730   4.607  10.336  11.879 -0.5760  1.8411 -0.0208
  271MOL0     H35731   4.553  10.254  12.029  1.4222 -1.6663 -1.9835
  271MOL0     H35732   4.387  10.412  11.892 -1.5345 -0.2776  1.7379
  271MOL0     H35733   4.489  10.544  11.932 -0.9618 -0.6528 -2.6033
  271MOL0     H35734   4.328  10.196  11.960 -1.8810 -0.7668 -1.1591
  271MOL0     H35735   4.132  10.068  12.005 -0.6105 -0.2218  0.5247
  271MOL0     H35736   3.671  10.292  12.384 -0.7682 -0.9584  2.6888
  271MOL0     H35737   3.446  10.195  12.481 -0.8095  1.3979 -1.5460
  271MOL0     H35738   3.269  10.078  12.276  1.5730 -1.3627 -0.0308
  271MOL0     H35739   3.246  10.136  12.441  2.6017 -0.1619 -1.7616
  271MOL0     H35740   3.040  10.024  12.317  1.1149  2.1247 -0.4468
  271MOL0     H35741   3.076   9.995  12.488  0.8215 -1.4115  0.5722
  271MOL0     H35742   3.165   9.776  12.431 -2.0185 -1.1336  0.4937
  271MOL0     H35743   3.187   9.819  12.259  2.0815 -0.2561  1.4814
  271MOL0     H35744   2.948   9.823  12.240 -0.0119  3.7351  2.7321
  271MOL0     H35745   3.019   9.663  12.279  0.5620  0.0641 -1.0383
  271MOL0     H35746   2.872   9.854  12.453  3.7276  0.5092  3.8548
  271MOL0     H35747   2.940   9.711  12.525 -1.4940  1.5883  1.2427
  271MOL0     H35748   2.824   9.550  12.407 -3.2188 -1.3246  2.4195
  271MOL0     H35749   2.742   9.658  12.301 -3.2836 -0.0502  0.8199
  271MOL0     H35750   2.717   9.648  12.611 -3.3654 -0.3877  1.2151
  271MOL0     H35751   2.622   9.759  12.517 -2.3576 -0.5681  1.2321
  271MOL0     H35752   2.495   9.589  12.585  1.4714  1.7632  1.6019
  271MOL0     H35753   2.611   9.462  12.552 -2.2557 -0.0909  1.2095
  271MOL0     H35754   3.545   9.815  12.331 -2.7927  1.1636  2.5109
  271MOL0     H35755   3.752   9.888  12.241  0.6658  0.4095  1.2309
  271MOL0     H35756   4.014  10.335  12.309 -2.6349 -1.0912 -0.9760
  271MOL0     H35757   4.220  10.477  12.270 -1.8254 -0.2104  2.4075
  271MOL0     H35758   5.818  10.528  11.088 -0.0185 -0.8658 -0.0644
  271MOL0     H35759   6.074  10.552  11.069 -1.3324  1.6482  0.7814
  271MOL0     H35760   6.546  10.175  11.000 -2.0428  0.3037  0.8371
  271MOL0     H35761   6.792  10.249  11.030  0.3894  0.7620  1.0227
  271MOL0     H35762   7.059  10.494  11.130  2.7698 -1.6566  3.5932
  271MOL0     H35763   6.970  10.376  11.031  2.0199 -0.5521 -0.6044
  271MOL0     H35764   6.961  10.229  11.242 -1.1759  1.2188 -0.4191
  271MOL0     H35765   7.119  10.223  11.159  2.9380  0.6896  2.1392
  271MOL0     H35766   7.091  10.269  11.434 -2.0058 -2.7695 -1.8396
  271MOL0     H35767   7.084  10.438  11.372  1.0878  0.0107  0.4398
  271MOL0     H35768   7.292  10.396  11.256  1.7044  0.7479  1.0416
  271MOL0     H35769   7.315  10.365  11.434  1.2173 -0.3123  0.3210
  271MOL0     H35770   7.406   9.996  11.304 -0.7956  0.1302 -2.6260
  271MOL0     H35771   6.662  10.545  11.317  2.0008  0.1423 -0.1775
  271MOL0     H35772   6.428  10.482  11.259  0.4253 -2.6889  2.7602
  272MOL0     O35773  10.034  10.992   1.953 -0.4391 -0.8131 -0.3124
  272MOL0     C35774   9.992  11.010   2.066  0.0681  0.3772  0.1103
  272MOL0     O35775   9.869  11.051   2.101 -0.1456  0.0875  0.8053
  272MOL0     C35776   9.779  11.067   1.994  0.6078 -0.1146  0.0519
  272MOL0     C35777   9.716  11.185   1.957 -0.4033 -0.3956 -0.5914
  272MOL0     C35778   9.624  11.183   1.849 -0.6495  0.8361 -0.1990
  272MOL0     C35779   9.575  11.068   1.790 -0.4466  0.7236 -0.4546
  272MOL0     O35780   9.497  11.054   1.680  0.5764 -0.5123 -0.3346
  272MOL0     C35781   9.486  11.165   1.598  0.3296 -0.5414  0.1073
  272MOL0     C35782   9.406  11.126   1.474 -0.9935  0.1770  0.1767
  272MOL0     C35783   9.369  11.244   1.386 -0.6020 -0.3374  0.6297
  272MOL0     C35784   9.268  11.200   1.282 -0.5275  0.6377 -0.3080
  272MOL0     C35785   9.173  11.313   1.248  0.5837  0.2581 -0.0139
  272MOL0     C35786   9.073  11.268   1.144  0.8393  1.1254 -0.5620
  272MOL0     C35787   8.954  11.362   1.115 -0.2730 -0.2108 -0.4815
  272MOL0     C35788   8.845  11.319   1.023  0.0577  0.8514 -0.1687
  272MOL0     N35789   8.750  11.426   0.989 -0.3769  0.1033 -0.3379
  272MOL0     C35790   8.672  11.507   1.070 -0.9218  0.2473  0.3589
  272MOL0     C35791   8.610  11.593   0.978  0.0946  0.9076  0.0794
  272MOL0     C35792   8.515  11.707   0.996 -0.2242 -0.0074  0.5157
  272MOL0     C35793   8.554  11.815   0.904  0.3825 -0.1226  0.5076
  272MOL0     C35794   8.476  11.945   0.941  0.2590 -0.6725  0.0089
  272MOL0     C35795   8.329  11.938   0.948 -0.1428 -0.1107 -0.2030
  272MOL0     O35796   8.276  11.855   1.056 -0.1896  0.0290  0.2010
  272MOL0     C35797   8.145  11.814   1.040 -0.3924 -1.3580  0.0657
  272MOL0     C35798   8.047  11.908   1.009 -1.3080  0.0731  0.2771
  272MOL0     C35799   7.911  11.863   0.999 -0.3094  0.7059  1.0316
  272MOL0     C35800   7.882  11.728   1.017  0.7511  0.4622 -0.4855
  272MOL0     C35801   7.744  11.693   1.017 -0.1175 -0.2225 -0.2119
  272MOL0     O35802   7.719  11.560   1.014  0.3190  0.5125  0.2111
  272MOL0     C35803   7.594  11.517   0.972 -0.0853  0.2033  1.3728
  272MOL0     C35804   7.483  11.569   1.030  0.5742  0.6416  0.1329
  272MOL0     C35805   7.363  11.511   0.990  0.4468 -0.9499 -0.2452
  272MOL0     C35806   7.350  11.426   0.881  0.7515 -0.3707  0.5192
  272MOL0     O35807   7.223  11.382   0.840  0.2380  0.0132 -0.7366
  272MOL0     C35808   7.194  11.245   0.878 -0.5786  0.3359  0.0504
  272MOL0     C35809   7.057  11.221   0.951 -0.4103 -0.4067 -0.5108
  272MOL0     C35810   6.943  11.264   0.873 -1.2019  0.5243  0.5593
  272MOL0     C35811   6.824  11.247   0.964  0.2071 -0.7071  0.0547
  272MOL0     C35812   6.693  11.274   0.889 -0.2829 -0.9249 -0.9511
  272MOL0     C35813   6.585  11.330   0.989  0.7457  0.1678 -0.5495
  272MOL0     C35814   6.449  11.345   0.924  0.5209  0.2482  0.7946
  272MOL0     C35815   6.353  11.412   1.015 -0.6652 -0.0909 -0.3367
  272MOL0    Cl35816   6.212  11.456   0.928 -0.0714  0.0227  0.1658
  272MOL0     C35817   7.467  11.373   0.826  0.9261 -0.2779 -0.6144
  272MOL0     C35818   7.588  11.420   0.871  0.3568 -0.6110 -0.3824
  272MOL0     O35819   7.662  11.785   1.028 -0.4205 -0.3752 -0.0620
  272MOL0     C35820   7.983  11.644   1.048 -0.4048  0.6127 -1.3495
  272MOL0     C35821   8.117  11.682   1.059 -0.4605 -0.6999 -0.2084
  272MOL0     N35822   8.663  11.559   0.851  1.1316 -0.2365  1.3955
  272MOL0     N35823   8.742  11.459   0.859  1.4718  0.1472 -0.5008
  272MOL0     C35824   9.628  10.947   1.835 -0.0011  0.9337 -0.0586
  272MOL0     C35825   9.727  10.947   1.944  0.8203  1.1254 -0.0137
  272MOL0     C35826  10.091  10.965   2.173 -0.9645 -0.7528 -0.0208
  272MOL0     C35827  10.045  10.932   2.297 -0.3219 -0.0607 -0.1576
  272MOL0     C35828  10.124  10.866   2.395  0.1282 -0.4995 -0.4808
  272MOL0     C35829  10.261  10.836   2.366  0.2691 -0.5227  0.0620
  272MOL0     O35830  10.348  10.779   2.454 -0.2728  0.2711  0.0771
  272MOL0     C35831  10.343  10.808   2.592 -0.4207 -0.3894  0.2098
  272MOL0     C35832  10.401  10.953   2.601  0.1701 -0.0337  0.0378
  272MOL0     C35833  10.539  10.967   2.532 -0.9607 -0.3781  0.1330
  272MOL0     C35834  10.641  10.851   2.554 -0.1129 -0.2376 -0.1452
  272MOL0     C35835  10.726  10.835   2.444 -1.2506  0.1294 -0.0600
  272MOL0     C35836  10.794  10.835   2.345 -0.0469  0.1836  0.5762
  272MOL0     C35837  10.312  10.879   2.248 -0.3287  0.6925  1.3256
  272MOL0     C35838  10.229  10.953   2.152 -0.4674  1.3064 -0.7926
  272MOL0     H35839   9.727  11.282   2.004 -0.1749  0.4746 -2.3385
  272MOL0     H35840   9.582  11.277   1.812 -0.2673  1.1971  0.2658
  272MOL0     H35841   9.590  11.194   1.582 -0.1888  1.9162  0.7933
  272MOL0     H35842   9.438  11.256   1.635  3.4844  1.8067 -1.1094
  272MOL0     H35843   9.320  11.062   1.492 -1.5073 -0.1732 -2.9560
  272MOL0     H35844   9.478  11.068   1.416 -1.6148  0.2158 -0.6575
  272MOL0     H35845   9.453  11.296   1.340 -0.5416 -1.0542 -0.0939
  272MOL0     H35846   9.318  11.318   1.449  2.2170  2.4785 -0.1560
  272MOL0     H35847   9.323  11.169   1.193 -0.0474  3.8141 -1.2536
  272MOL0     H35848   9.211  11.118   1.325 -0.4405 -0.2337 -1.7753
  272MOL0     H35849   9.234  11.395   1.209 -0.9474  1.9963  1.0543
  272MOL0     H35850   9.125  11.348   1.340 -0.7102 -0.8255 -0.2517
  272MOL0     H35851   9.021  11.180   1.184  0.3058  1.1160 -1.2521
  272MOL0     H35852   9.126  11.237   1.053 -0.0844  1.0447 -1.0937
  272MOL0     H35853   8.906  11.384   1.211 -2.0833 -1.3614 -1.0718
  272MOL0     H35854   8.996  11.451   1.068 -0.0004  0.8896  1.7427
  272MOL0     H35855   8.795  11.228   1.058  1.1560  0.1294 -0.3942
  272MOL0     H35856   8.892  11.296   0.927  0.3725  1.0360 -0.0635
  272MOL0     H35857   8.671  11.507   1.179  0.6023  0.2269  0.3919
  272MOL0     H35858   8.515  11.741   1.100 -2.4736  0.9661  0.2574
  272MOL0     H35859   8.418  11.676   0.955 -1.0218  2.9270 -0.0361
  272MOL0     H35860   8.544  11.792   0.797 -2.0762  2.4915  0.0385
  272MOL0     H35861   8.663  11.826   0.907  0.5395 -1.3271 -0.3213
  272MOL0     H35862   8.500  11.972   1.044  0.1737  2.0634 -0.5977
  272MOL0     H35863   8.513  12.028   0.880  1.0969 -1.1910 -0.2082
  272MOL0     H35864   8.294  11.898   0.852 -1.7558  0.0083  0.2928
  272MOL0     H35865   8.288  12.039   0.947 -0.1458 -0.0804  1.1027
  272MOL0     H35866   8.069  12.014   0.995  0.5652 -0.7135 -4.8894
  272MOL0     H35867   7.830  11.932   0.977  0.3774  1.3884  0.6258
  272MOL0     H35868   7.481  11.633   1.117 -0.2765 -1.2440  1.5821
  272MOL0     H35869   7.274  11.552   1.038  0.0182 -0.0926 -1.6918
  272MOL0     H35870   7.274  11.209   0.943 -0.2895  0.4399 -0.2464
  272MOL0     H35871   7.197  11.189   0.784 -0.2725  2.3416 -1.1991
  272MOL0     H35872   7.045  11.260   1.052  1.0189  0.9099 -0.8130
  272MOL0     H35873   7.039  11.114   0.964 -1.2362 -0.1830  0.3100
  272MOL0     H35874   6.935  11.203   0.782 -3.3951  1.7777 -0.1579
  272MOL0     H35875   6.973  11.366   0.848  0.6471  0.8339  3.5217
  272MOL0     H35876   6.821  11.157   1.025  2.5256 -1.2124 -0.4685
  272MOL0     H35877   6.851  11.324   1.036 -0.1123  1.0340 -1.5946
  272MOL0     H35878   6.659  11.186   0.833  2.3336 -0.2343 -3.8825
  272MOL0     H35879   6.721  11.352   0.818  2.6650  0.7701  1.8083
  272MOL0     H35880   6.616  11.426   1.030 -3.8516  1.7563 -0.2124
  272MOL0     H35881   6.567  11.264   1.074 -0.4858 -1.2839 -1.8689
  272MOL0     H35882   6.458  11.401   0.831 -0.9081 -1.2286 -0.2816
  272MOL0     H35883   6.426  11.241   0.901  1.5019  0.1709  0.0781
  272MOL0     H35884   6.408  11.495   1.060  3.0422 -3.0723  1.1792
  272MOL0     H35885   6.327  11.358   1.107  1.0366  2.8809  2.0792
  272MOL0     H35886   7.451  11.305   0.743 -3.7729 -2.3851  1.6476
  272MOL0     H35887   7.678  11.363   0.849 -0.0034 -0.8648 -1.2382
  272MOL0     H35888   7.951  11.541   1.060  2.0582  0.0891  4.1206
  272MOL0     H35889   8.188  11.608   1.093 -0.4410 -0.1378  1.0342
  272MOL0     H35890   9.598  10.852   1.791  0.4423 -0.0525  1.6543
  272MOL0     H35891   9.758  10.850   1.984 -2.1500  0.4232  0.7904
  272MOL0     H35892   9.938  10.945   2.306 -0.2652  1.1599 -1.0754
  272MOL0     H35893  10.078  10.829   2.486 -1.9988 -0.0727 -1.3287
  272MOL0     H35894  10.399  10.736   2.652  0.9236  0.2563 -0.2247
  272MOL0     H35895  10.241  10.812   2.631 -1.2342 -0.5289 -1.7835
  272MOL0     H35896  10.329  11.030   2.572 -0.7039 -1.3317 -1.3045
  272MOL0     H35897  10.428  10.974   2.705  0.9735 -0.7021 -0.0237
  272MOL0     H35898  10.590  11.061   2.557 -0.8054 -0.1969 -0.8327
  272MOL0     H35899  10.509  10.974   2.427  0.8290 -0.3868 -0.4172
  272MOL0     H35900  10.710  10.873   2.637  0.6896  1.9282 -1.3202
  272MOL0     H35901  10.594  10.754   2.575  1.8061 -0.9021  1.4655
  272MOL0     H35902  10.850  10.844   2.255  1.2192 -0.9814  1.1986
  272MOL0     H35903  10.416  10.862   2.222 -0.6735  0.7989 -0.2398
  272MOL0     H35904  10.273  10.998   2.063 -2.9341  0.2302 -2.6793
  273MOL0     O35905   9.700   5.255   7.176  0.0260 -0.1048 -0.5364
  273MOL0     C35906   9.795   5.308   7.112 -0.8163 -0.3089 -0.5997
  273MOL0     O35907   9.805   5.345   6.978  0.0821  0.1951  0.5508
  273MOL0     C35908   9.687   5.337   6.901  1.9732  0.8571  0.2765
  273MOL0     C35909   9.642   5.450   6.841  0.7292 -0.2001  0.2853
  273MOL0     C35910   9.539   5.449   6.757  0.7082 -0.6581 -0.5886
  273MOL0     C35911   9.468   5.332   6.736  0.1813 -0.2302 -0.1751
  273MOL0     O35912   9.360   5.326   6.656 -0.3739  0.3588  0.2229
  273MOL0     C35913   9.381   5.381   6.528 -1.0151 -0.2815  1.1778
  273MOL0     C35914   9.313   5.280   6.434  0.1448  0.4855 -0.4482
  273MOL0     C35915   9.163   5.257   6.464 -0.1898 -0.3826 -0.8405
  273MOL0     C35916   9.073   5.354   6.400  0.9062 -0.1844 -0.2719
  273MOL0     C35917   8.922   5.315   6.422  0.5043 -0.1188  0.4346
  273MOL0     C35918   8.837   5.399   6.338  0.2696 -0.0902  0.6501
  273MOL0     C35919   8.689   5.354   6.338 -0.0554  0.1728 -0.2043
  273MOL0     C35920   8.672   5.201   6.326 -0.1842  1.2744  0.3383
  273MOL0     N35921   8.531   5.163   6.282  0.4036  0.0067 -0.1972
  273MOL0     C35922   8.458   5.190   6.176 -0.6906 -0.3112  0.2071
  273MOL0     C35923   8.333   5.145   6.194 -0.8123  0.2090 -0.1495
  273MOL0     C35924   8.223   5.148   6.099 -0.2872 -0.3878  0.1831
  273MOL0     C35925   8.121   5.243   6.149 -0.2623 -0.0980  0.0448
  273MOL0     C35926   8.016   5.275   6.048 -0.1561 -0.1373  0.1252
  273MOL0     C35927   7.909   5.169   6.022 -0.3929 -0.3410 -0.4555
  273MOL0     O35928   7.803   5.215   5.939  0.4794  0.5105  0.4530
  273MOL0     C35929   7.706   5.116   5.916 -0.2229 -0.9387  0.7717
  273MOL0     C35930   7.712   4.984   5.958  0.7745  0.9460  0.0011
  273MOL0     C35931   7.612   4.887   5.908 -0.0041 -0.7749  0.2100
  273MOL0     C35932   7.500   4.930   5.835 -0.4547  0.1686  0.7019
  273MOL0     C35933   7.384   4.843   5.803  1.1737 -0.1598  0.0468
  273MOL0     O35934   7.296   4.885   5.707  0.0786 -0.0662  0.5237
  273MOL0     C35935   7.181   4.816   5.672 -0.1868 -0.7011  0.3232
  273MOL0     C35936   7.171   4.677   5.656  0.5211  0.6464  0.1046
  273MOL0     C35937   7.041   4.616   5.631  0.1969  0.4261  0.5778
  273MOL0     C35938   6.928   4.696   5.613  0.0503 -0.3586 -0.4579
  273MOL0     O35939   6.810   4.642   5.573 -0.1378  0.7435  0.4909
  273MOL0     C35940   6.749   4.536   5.662 -0.1636 -0.2547 -0.1636
  273MOL0     C35941   6.632   4.481   5.571 -0.2896  0.0773  0.7555
  273MOL0     C35942   6.533   4.390   5.639 -0.8000  0.2892 -0.0257
  273MOL0     C35943   6.600   4.299   5.739 -0.8478  0.4789 -0.4138
  273MOL0     C35944   6.506   4.217   5.812  0.2533  0.9527 -1.1068
  273MOL0     C35945   6.557   4.092   5.871  1.0613  0.3932 -0.4868
  273MOL0     C35946   6.443   4.005   5.933 -0.2057  0.2519  0.9262
  273MOL0     C35947   6.502   3.880   5.993  0.5740 -0.1619 -0.1013
  273MOL0    Cl35948   6.517   3.736   5.881  0.2801  0.3171  0.0990
  273MOL0     C35949   6.947   4.835   5.614 -0.2333 -0.7548  0.3795
  273MOL0     C35950   7.067   4.898   5.655 -0.5446  0.3392  0.6896
  273MOL0     O35951   7.361   4.748   5.873 -0.0559 -0.6444 -1.0989
  273MOL0     C35952   7.492   5.066   5.802 -0.3867  0.5411  0.4397
  273MOL0     C35953   7.593   5.155   5.840 -0.0887  0.4553  0.2343
  273MOL0     N35954   8.338   5.073   6.310  0.5019  0.5686  0.0614
  273MOL0     N35955   8.458   5.079   6.357 -0.2503  0.2099 -0.2672
  273MOL0     C35956   9.499   5.222   6.817  0.1200  0.1133  0.3424
  273MOL0     C35957   9.615   5.221   6.894 -0.1788 -0.3889  0.3615
  273MOL0     C35958   9.917   5.342   7.187  0.1583  0.4794 -0.2121
  273MOL0     C35959  10.035   5.348   7.129 -0.9968 -0.0033 -0.0429
  273MOL0     C35960  10.146   5.399   7.191 -0.2908  0.2448  0.4585
  273MOL0     C35961  10.139   5.426   7.324  0.7331 -0.4263 -0.5611
  273MOL0     O35962  10.255   5.475   7.390 -0.2848 -0.0316 -0.0590
  273MOL0     C35963  10.258   5.477   7.533 -0.6912  0.2530 -1.5667
  273MOL0     C35964  10.399   5.516   7.572 -0.4869  0.2245  0.1698
  273MOL0     C35965  10.418   5.511   7.727  0.7707  0.2246  0.0077
  273MOL0     C35966  10.559   5.548   7.782  0.7516 -0.1442 -0.6099
  273MOL0     C35967  10.562   5.554   7.931  0.2667 -0.4535  0.4228
  273MOL0     C35968  10.557   5.542   8.047 -0.3622 -0.1748 -0.5063
  273MOL0     C35969  10.013   5.402   7.390  0.0337  0.0726 -0.5176
  273MOL0     C35970   9.904   5.367   7.316  0.2659 -0.9312 -0.8699
  273MOL0     H35971   9.708   5.536   6.840  1.8843 -1.0506  1.0227
  273MOL0     H35972   9.515   5.546   6.713  2.3700  0.7704  1.4538
  273MOL0     H35973   9.487   5.391   6.507 -1.5204  2.9678 -0.5545
  273MOL0     H35974   9.340   5.482   6.513  2.8547  1.0144 -2.6619
  273MOL0     H35975   9.365   5.187   6.458 -1.0086 -1.0398 -3.3465
  273MOL0     H35976   9.328   5.297   6.327  1.4517  0.9153 -0.2073
  273MOL0     H35977   9.144   5.256   6.571 -0.7919 -0.0461 -0.9369
  273MOL0     H35978   9.146   5.156   6.426  1.5626 -0.9818 -0.1390
  273MOL0     H35979   9.075   5.450   6.452 -0.2211  0.9016 -2.1015
  273MOL0     H35980   9.102   5.363   6.295  1.5694 -0.6886 -0.1414
  273MOL0     H35981   8.903   5.341   6.527  2.2767  1.8426  0.3304
  273MOL0     H35982   8.902   5.209   6.401  1.5197 -0.4498  1.0567
  273MOL0     H35983   8.878   5.380   6.239 -0.3664  0.1995  0.3223
  273MOL0     H35984   8.845   5.502   6.374 -1.0227  0.6384 -0.9815
  273MOL0     H35985   8.639   5.395   6.426 -0.3392 -1.6253  0.5153
  273MOL0     H35986   8.640   5.410   6.258 -0.4892  0.4335  0.2427
  273MOL0     H35987   8.691   5.141   6.416 -2.9485 -0.5509 -0.1486
  273MOL0     H35988   8.739   5.165   6.247 -1.6323  1.8819 -1.2360
  273MOL0     H35989   8.493   5.248   6.091  1.3029 -1.0438  0.4777
  273MOL0     H35990   8.181   5.048   6.086 -1.6794  0.3267 -1.3084
  273MOL0     H35991   8.267   5.182   6.005  0.9414 -1.8702  0.2018
  273MOL0     H35992   8.171   5.334   6.182  0.4301 -0.3835 -0.2032
  273MOL0     H35993   8.075   5.201   6.240  2.6803 -0.6492  1.4021
  273MOL0     H35994   7.965   5.355   6.102  1.8440  1.0437  0.3617
  273MOL0     H35995   8.054   5.315   5.953  0.0033  1.8071  0.9733
  273MOL0     H35996   7.872   5.142   6.122  0.0691  1.8792  0.3821
  273MOL0     H35997   7.955   5.082   5.974 -1.1086 -0.3952 -1.0575
  273MOL0     H35998   7.786   4.936   6.022 -2.8326 -4.4556  0.8218
  273MOL0     H35999   7.622   4.784   5.942 -0.7279 -0.9096  0.0174
  273MOL0     H36000   7.262   4.618   5.662  0.1125 -0.1267 -0.9628
  273MOL0     H36001   7.039   4.509   5.612 -0.4316  1.0064 -3.6441
  273MOL0     H36002   6.717   4.573   5.759  2.1074 -1.0468  0.9564
  273MOL0     H36003   6.827   4.462   5.682  4.0296  4.0688  1.3784
  273MOL0     H36004   6.667   4.420   5.487  0.0090 -0.0162  0.9470
  273MOL0     H36005   6.585   4.568   5.525  2.5923  0.7720 -1.1021
  273MOL0     H36006   6.471   4.329   5.572 -1.0452 -0.2205  0.6563
  273MOL0     H36007   6.455   4.442   5.696 -1.6003  0.6422 -1.4044
  273MOL0     H36008   6.671   4.244   5.677  0.3255  1.4657  0.0058
  273MOL0     H36009   6.653   4.364   5.811  0.3267 -1.4680  0.5569
  273MOL0     H36010   6.433   4.192   5.734  0.6727 -2.7846 -0.4958
  273MOL0     H36011   6.460   4.276   5.891  0.1625  0.4283 -0.7622
  273MOL0     H36012   6.628   4.124   5.948 -0.3443 -1.0439  1.4989
  273MOL0     H36013   6.603   4.017   5.806 -0.3296 -3.5461  2.6587
  273MOL0     H36014   6.397   4.060   6.015 -1.6801 -0.0453  0.3168
  273MOL0     H36015   6.356   3.989   5.870 -0.4830 -0.1101  1.3965
  273MOL0     H36016   6.448   3.868   6.088 -0.7504 -0.7458 -0.8982
  273MOL0     H36017   6.607   3.894   6.018  0.9906 -2.0595 -0.6171
  273MOL0     H36018   6.858   4.891   5.590  0.6889  1.3849  1.6679
  273MOL0     H36019   7.075   5.006   5.658  1.4100  0.3194 -1.1827
  273MOL0     H36020   7.409   5.096   5.738 -1.5335 -2.5991  0.2729
  273MOL0     H36021   7.577   5.260   5.818  0.4655  0.1137 -2.0150
  273MOL0     H36022   9.445   5.132   6.792  0.4106 -0.6369  2.3129
  273MOL0     H36023   9.661   5.134   6.939 -1.3285 -1.0499  0.2859
  273MOL0     H36024  10.052   5.323   7.025  2.6980 -0.4517  0.5265
  273MOL0     H36025  10.244   5.399   7.144  0.2276  0.1287  1.5014
  273MOL0     H36026  10.243   5.379   7.580  1.9879  0.4064 -0.2426
  273MOL0     H36027  10.180   5.540   7.577 -1.1519 -2.7707  2.5738
  273MOL0     H36028  10.478   5.453   7.528  0.6981  1.5390  0.3579
  273MOL0     H36029  10.420   5.617   7.535  3.1681 -0.9737 -1.5770
  273MOL0     H36030  10.387   5.411   7.758 -2.0466  1.7584  2.6708
  273MOL0     H36031  10.350   5.583   7.772  2.5585  2.9284 -1.3141
  273MOL0     H36032  10.628   5.477   7.736 -0.6461 -1.7691 -0.2649
  273MOL0     H36033  10.576   5.651   7.747 -0.6129  0.5814  0.7521
  273MOL0     H36034  10.559   5.536   8.154  0.5678 -1.5085 -0.5716
  273MOL0     H36035   9.993   5.435   7.491 -3.1620 -0.2512 -0.9444
  273MOL0     H36036   9.805   5.363   7.362  0.7584 -0.0748  0.3024
  274MOL0     O36037   6.127  10.780   5.434  0.0778 -0.0394 -0.9734
  274MOL0     C36038   6.165  10.692   5.502 -0.2259 -0.2158 -0.6691
  274MOL0     O36039   6.081  10.624   5.590  1.1117  0.7342 -0.2365
  274MOL0     C36040   5.945  10.652   5.598 -0.3374 -0.3801  0.0498
  274MOL0     C36041   5.892  10.772   5.645 -0.8689  0.1599  0.1098
  274MOL0     C36042   5.757  10.804   5.639  0.8642 -0.7180  0.4622
  274MOL0     C36043   5.679  10.698   5.587  0.3765 -0.0652 -0.7701
  274MOL0     O36044   5.547  10.717   5.550  0.4657  0.7539  0.1120
  274MOL0     C36045   5.442  10.700   5.647  0.3849  0.2389  0.8504
  274MOL0     C36046   5.322  10.785   5.614 -0.6192 -0.8826  0.4888
  274MOL0     C36047   5.212  10.706   5.545  0.2236 -0.6207  0.9801
  274MOL0     C36048   5.077  10.776   5.566  0.3578  0.3204  0.1743
  274MOL0     C36049   5.079  10.923   5.514 -0.7651 -0.3283  0.2044
  274MOL0     C36050   4.946  10.994   5.526 -0.0717 -0.0554 -0.3321
  274MOL0     C36051   4.875  10.977   5.668 -0.5998 -0.3904  0.7145
  274MOL0     C36052   4.956  11.035   5.786 -0.1197  0.3724  0.1498
  274MOL0     N36053   4.885  11.012   5.913 -0.2174  0.7571  0.0189
  274MOL0     C36054   4.927  10.918   6.012  0.7944  1.2989  0.0252
  274MOL0     C36055   4.873  10.961   6.128 -0.1731  0.1407  0.0054
  274MOL0     C36056   4.903  10.889   6.257  0.0747 -0.2669  0.1584
  274MOL0     C36057   4.791  10.906   6.368  0.3625  0.6921  0.4209
  274MOL0     C36058   4.832  10.857   6.507  0.3166 -0.0780 -0.1108
  274MOL0     C36059   4.710  10.836   6.598  0.3299  0.7323  0.5382
  274MOL0     O36060   4.628  10.720   6.572  0.7131  0.3177  1.0137
  274MOL0     C36061   4.502  10.711   6.608 -0.2327  0.3498  0.1220
  274MOL0     C36062   4.451  10.586   6.637  0.1509 -0.5569  0.0201
  274MOL0     C36063   4.320  10.563   6.668 -0.8850 -0.1815 -0.6978
  274MOL0     C36064   4.227  10.675   6.667 -0.3407 -0.1166  0.6583
  274MOL0     C36065   4.085  10.657   6.699 -0.8794  0.5006 -0.3140
  274MOL0     O36066   4.008  10.758   6.671  0.0018  0.3691  0.1890
  274MOL0     C36067   3.872  10.745   6.693 -0.0093  0.1148  0.4100
  274MOL0     C36068   3.823  10.812   6.809  0.9047 -0.1549  0.4254
  274MOL0     C36069   3.696  10.795   6.848  1.3029 -0.1380  0.0859
  274MOL0     C36070   3.604  10.719   6.773  0.3479  0.0298  0.0076
  274MOL0     O36071   3.474  10.707   6.815 -0.1713  0.5419  0.2200
  274MOL0     C36072   3.393  10.826   6.818  1.1480  0.0297  0.2760
  274MOL0     C36073   3.248  10.793   6.799  0.4005  0.8254  0.0790
  274MOL0     C36074   3.161  10.919   6.792 -0.1352  0.4812  0.8400
  274MOL0     C36075   3.164  10.986   6.653 -0.5082  0.3681  0.3111
  274MOL0     C36076   3.077  11.109   6.640 -0.5188  0.5409  0.3223
  274MOL0     C36077   3.141  11.223   6.723  1.4477  0.2545 -0.5492
  274MOL0     C36078   3.064  11.358   6.701 -0.2359  0.6168 -0.3925
  274MOL0     C36079   3.117  11.461   6.790 -0.0134 -0.5151 -0.6489
  274MOL0    Cl36080   3.271  11.532   6.743  0.3097  0.4525 -0.1511
  274MOL0     C36081   3.652  10.651   6.654  1.3365 -1.1241 -0.1246
  274MOL0     C36082   3.788  10.664   6.616  0.0859  1.2998  0.3878
  274MOL0     O36083   4.045  10.550   6.748 -0.0038 -0.3612  0.3074
  274MOL0     C36084   4.277  10.801   6.634  0.4778 -0.5072 -0.3864
  274MOL0     C36085   4.413  10.815   6.601  0.5237  0.2705  0.0011
  274MOL0     N36086   4.797  11.071   6.105  0.1328 -0.1632  0.9215
  274MOL0     N36087   4.814  11.106   5.982  0.5056 -0.5451 -0.5045
  274MOL0     C36088   5.726  10.579   5.555  0.5611  0.8831  0.4553
  274MOL0     C36089   5.864  10.559   5.551  0.7564 -0.8200  0.5314
  274MOL0     C36090   6.310  10.650   5.486  0.6721  0.2519  0.4369
  274MOL0     C36091   6.398  10.732   5.407  0.7224 -0.7101 -0.4855
  274MOL0     C36092   6.531  10.696   5.369  0.6557  0.6989 -0.1380
  274MOL0     C36093   6.572  10.568   5.424  0.2384 -0.4021  1.0854
  274MOL0     O36094   6.703  10.532   5.419  0.6805  0.9364  0.2789
  274MOL0     C36095   6.786  10.605   5.331  0.7955 -0.4863 -0.6176
  274MOL0     C36096   6.941  10.561   5.322 -0.8311  0.3158 -0.5664
  274MOL0     C36097   6.967  10.417   5.275 -0.1459 -0.6341 -0.3257
  274MOL0     C36098   7.122  10.401   5.253 -0.7664  0.2012 -0.0634
  274MOL0     C36099   7.201  10.400   5.376 -0.2146  0.1519 -0.7292
  274MOL0     C36100   7.255  10.401   5.490  0.6876 -0.9173  0.7303
  274MOL0     C36101   6.485  10.488   5.494  0.9234  1.7889  1.1707
  274MOL0     C36102   6.358  10.522   5.525  0.6948  0.5299  0.0851
  274MOL0     H36103   5.968  10.836   5.689  0.0337  1.5288 -3.1402
  274MOL0     H36104   5.730  10.904   5.668 -3.0762 -1.7028  0.7102
  274MOL0     H36105   5.469  10.725   5.750 -0.7759 -3.1023  2.0977
  274MOL0     H36106   5.401  10.599   5.650 -2.6044  1.3305  0.3826
  274MOL0     H36107   5.351  10.877   5.564 -3.2981 -0.1019  0.2357
  274MOL0     H36108   5.271  10.816   5.705  1.7943 -2.9996  2.7387
  274MOL0     H36109   5.202  10.602   5.576 -0.2649 -0.1970  2.3015
  274MOL0     H36110   5.237  10.700   5.438  1.7267 -0.8569  1.3292
  274MOL0     H36111   4.992  10.722   5.524 -0.2803  0.4204  1.2866
  274MOL0     H36112   5.057  10.775   5.674 -2.7164  0.6822 -0.2987
  274MOL0     H36113   5.107  10.925   5.409 -1.2997 -0.6760  0.0530
  274MOL0     H36114   5.158  10.983   5.561  1.7312 -2.4435 -1.0099
  274MOL0     H36115   4.876  10.946   5.456  0.8518 -2.4852  0.2794
  274MOL0     H36116   4.967  11.099   5.504  0.8718 -0.0828  0.4169
  274MOL0     H36117   4.780  11.031   5.666 -1.2211 -1.4420  1.2493
  274MOL0     H36118   4.842  10.876   5.694  0.4987 -0.0738  3.7264
  274MOL0     H36119   4.978  11.142   5.779  1.7059  0.0736  0.6291
  274MOL0     H36120   5.050  10.982   5.766 -0.8603  0.2400 -3.5876
  274MOL0     H36121   4.994  10.833   5.998 -1.6293 -0.2875 -3.5581
  274MOL0     H36122   5.004  10.914   6.293  0.6932  1.3008 -2.3818
  274MOL0     H36123   4.896  10.784   6.227 -3.1431 -0.5070  1.3997
  274MOL0     H36124   4.704  10.847   6.336  1.0122  0.4173 -0.9326
  274MOL0     H36125   4.751  11.008   6.376  1.1123  0.9813  0.5124
  274MOL0     H36126   4.889  10.764   6.504 -2.5028 -1.8734 -1.7325
  274MOL0     H36127   4.900  10.927   6.557  1.5868  1.1812 -3.3655
  274MOL0     H36128   4.652  10.929   6.598 -1.1804 -0.1112 -1.8619
  274MOL0     H36129   4.749  10.838   6.700 -0.3539  1.9145  0.7925
  274MOL0     H36130   4.509  10.496   6.617  0.7411  0.1206 -1.4741
  274MOL0     H36131   4.276  10.464   6.668  1.3352 -1.2521 -1.7463
  274MOL0     H36132   3.884  10.880   6.867 -2.5598  3.5367  0.2190
  274MOL0     H36133   3.666  10.844   6.940 -0.9970 -1.2523 -0.0037
  274MOL0     H36134   3.426  10.898   6.742 -1.3004  0.1661 -0.7640
  274MOL0     H36135   3.402  10.868   6.919 -0.6172 -0.6382  0.7533
  274MOL0     H36136   3.210  10.728   6.878  1.5247  0.3543  0.2585
  274MOL0     H36137   3.245  10.735   6.706  0.4699 -0.8010  1.0543
  274MOL0     H36138   3.202  10.993   6.861 -3.2119  0.8422  2.4620
  274MOL0     H36139   3.061  10.894   6.828 -0.8776 -0.5685 -1.6710
  274MOL0     H36140   3.269  11.013   6.633  0.1911 -1.8732  0.6631
  274MOL0     H36141   3.148  10.910   6.576 -0.7028  0.8908 -0.1669
  274MOL0     H36142   2.983  11.083   6.689 -0.2187 -0.4410  0.3992
  274MOL0     H36143   3.070  11.129   6.533 -0.8599 -0.3842  0.1683
  274MOL0     H36144   3.242  11.240   6.686  2.3679 -0.6314  1.4385
  274MOL0     H36145   3.137  11.196   6.829 -1.4026  0.8953 -0.4064
  274MOL0     H36146   3.074  11.407   6.604  0.7406 -1.0938 -1.1952
  274MOL0     H36147   2.960  11.345   6.734  0.9118 -0.4869  3.2065
  274MOL0     H36148   3.134  11.411   6.885 -0.2256 -4.2170 -2.3649
  274MOL0     H36149   3.060  11.554   6.803 -0.4418 -0.5658 -1.9908
  274MOL0     H36150   3.589  10.592   6.588 -1.5682  1.4161  0.1151
  274MOL0     H36151   3.815  10.621   6.521 -1.7485  1.4230 -0.2163
  274MOL0     H36152   4.210  10.887   6.636 -0.8266 -1.4195 -2.0459
  274MOL0     H36153   4.449  10.916   6.585 -1.7640  1.2945  0.8473
  274MOL0     H36154   5.660  10.508   5.506 -0.8715  1.5729  1.3250
  274MOL0     H36155   5.909  10.464   5.526 -0.2212 -1.8626  2.4707
  274MOL0     H36156   6.373  10.831   5.370  0.9760 -0.0604  1.0079
  274MOL0     H36157   6.596  10.766   5.317  2.9945  0.0983  1.7807
  274MOL0     H36158   6.785  10.708   5.367  1.3923 -0.7386  0.1754
  274MOL0     H36159   6.738  10.623   5.235 -2.6507 -0.9599  0.8390
  274MOL0     H36160   7.002  10.633   5.267  2.4045 -0.5177  1.6476
  274MOL0     H36161   6.983  10.546   5.421 -1.1547 -1.8138 -0.7209
  274MOL0     H36162   6.921  10.399   5.178 -0.5177 -2.5547  0.1701
  274MOL0     H36163   6.925  10.355   5.355  2.0510 -1.7577  0.0377
  274MOL0     H36164   7.146  10.308   5.200  1.7456  0.2994  0.7762
  274MOL0     H36165   7.156  10.471   5.177 -1.1551 -1.9995 -2.3888
  274MOL0     H36166   7.293  10.384   5.589  1.7623 -2.3416  0.1018
  274MOL0     H36167   6.513  10.389   5.528  1.1435  1.6788  0.6710
  274MOL0     H36168   6.297  10.459   5.589  0.0783  1.2304  0.2022
  275MOL0     O36169   0.496   7.293   7.503  0.2596  0.0878  0.0993
  275MOL0     C36170   0.543   7.206   7.573 -0.1636 -0.2192  0.4470
  275MOL0     O36171   0.472   7.102   7.630  0.3264 -0.4320  0.3297
  275MOL0     C36172   0.335   7.084   7.630  0.0568  0.0907  0.3434
  275MOL0     C36173   0.246   7.192   7.605  0.4645  0.2739  0.4490
  275MOL0     C36174   0.110   7.179   7.612  0.2883 -0.0809 -0.4261
  275MOL0     C36175   0.047   7.054   7.636 -0.0757  0.2774  0.1873
  275MOL0     O36176  -0.085   7.025   7.624  0.1426 -0.0009  0.2062
  275MOL0     C36177  -0.184   7.127   7.593  0.5411 -0.0103  0.1681
  275MOL0     C36178  -0.209   7.223   7.702  0.2008 -0.1623  0.3664
  275MOL0     C36179  -0.349   7.285   7.695 -1.1188 -0.6712  0.5784
  275MOL0     C36180  -0.450   7.181   7.740 -0.1854 -0.1605  0.6975
  275MOL0     C36181  -0.591   7.231   7.727  0.0232  0.0153  0.0752
  275MOL0     C36182  -0.681   7.106   7.733  0.9611 -0.1605 -0.0739
  275MOL0     C36183  -0.828   7.137   7.750 -0.7848  0.5606 -0.4637
  275MOL0     C36184  -0.913   7.020   7.759  0.3766  0.3703 -0.4594
  275MOL0     N36185  -1.053   7.060   7.761 -0.5937 -0.4340  0.4764
  275MOL0     C36186  -1.138   7.031   7.861  0.4217 -0.2742  0.0432
  275MOL0     C36187  -1.249   7.108   7.847 -0.1612 -1.2841 -1.2430
  275MOL0     C36188  -1.366   7.131   7.941  0.6010  0.2804 -0.3105
  275MOL0     C36189  -1.329   7.207   8.068 -0.0940 -0.2618  0.2571
  275MOL0     C36190  -1.443   7.271   8.152  0.1531 -0.8278  0.8102
  275MOL0     C36191  -1.553   7.170   8.192 -0.5856 -0.1599  0.1773
  275MOL0     O36192  -1.494   7.049   8.251 -0.3982  0.1360 -0.8001
  275MOL0     C36193  -1.563   6.932   8.244 -0.1063  0.3673  0.6957
  275MOL0     C36194  -1.689   6.918   8.189 -0.0125  0.4863 -0.2621
  275MOL0     C36195  -1.766   6.799   8.205 -0.2573  0.0147  0.5122
  275MOL0     C36196  -1.717   6.692   8.272  0.3289 -0.3238 -0.4794
  275MOL0     C36197  -1.791   6.569   8.302  0.7442 -0.5407 -0.2241
  275MOL0     O36198  -1.929   6.580   8.319 -0.1483 -0.6065 -0.2355
  275MOL0     C36199  -1.987   6.465   8.363  0.3605  0.3135 -0.0096
  275MOL0     C36200  -2.034   6.376   8.274 -0.3568  0.3443 -0.2004
  275MOL0     C36201  -2.071   6.249   8.309 -0.0790 -0.7199 -0.0497
  275MOL0     C36202  -2.065   6.217   8.442 -0.4502  0.1876  0.0382
  275MOL0     O36203  -2.095   6.088   8.468 -0.0483  0.2141  1.0957
  275MOL0     C36204  -2.005   6.005   8.545  0.1083 -0.2032 -0.2141
  275MOL0     C36205  -2.047   5.860   8.533  0.0311  0.6068 -0.2427
  275MOL0     C36206  -1.943   5.769   8.596 -0.3320  0.3781  0.4693
  275MOL0     C36207  -1.835   5.729   8.507 -0.6436 -0.8412  1.1666
  275MOL0     C36208  -1.733   5.644   8.575  1.2821  0.1360 -0.9422
  275MOL0     C36209  -1.626   5.593   8.485  0.5424  0.3485  0.3005
  275MOL0     C36210  -1.554   5.473   8.542 -1.1180 -0.2294  0.2391
  275MOL0     C36211  -1.478   5.384   8.435 -0.0756 -0.5015 -0.7753
  275MOL0    Cl36212  -1.359   5.489   8.362 -0.2672 -0.2837 -0.3592
  275MOL0     C36213  -2.022   6.304   8.543 -1.1012 -0.9043  0.4910
  275MOL0     C36214  -1.982   6.436   8.502  0.0381  0.4606 -0.2014
  275MOL0     O36215  -1.728   6.465   8.303 -0.5854  0.3484  0.5607
  275MOL0     C36216  -1.589   6.695   8.323  0.0106 -0.8410  0.0065
  275MOL0     C36217  -1.509   6.814   8.301  0.3849  0.1878 -0.1717
  275MOL0     N36218  -1.227   7.193   7.740 -0.3628  0.0286 -0.2354
  275MOL0     N36219  -1.110   7.162   7.686 -0.3076  0.0325 -0.2550
  275MOL0     C36220   0.138   6.951   7.666 -0.1740  0.1942  0.0352
  275MOL0     C36221   0.275   6.963   7.668 -0.6252  0.2662  1.1091
  275MOL0     C36222   0.689   7.215   7.590 -0.1655 -0.1230  0.4673
  275MOL0     C36223   0.757   7.118   7.658 -0.0818  0.2468 -0.6167
  275MOL0     C36224   0.894   7.109   7.655 -0.2433 -1.1002  0.4668
  275MOL0     C36225   0.971   7.210   7.591  0.1425  0.0929 -0.2448
  275MOL0     O36226   1.108   7.202   7.605 -0.0125  0.5197  0.0157
  275MOL0     C36227   1.180   7.326   7.630  0.0050  0.4681 -0.5711
  275MOL0     C36228   1.303   7.275   7.705 -0.1726 -0.4615  0.2274
  275MOL0     C36229   1.393   7.389   7.778 -0.6410 -0.2381 -0.6189
  275MOL0     C36230   1.540   7.355   7.811 -0.0732  0.5340 -0.4210
  275MOL0     C36231   1.625   7.376   7.701 -1.3507  0.1022  0.8122
  275MOL0     C36232   1.719   7.413   7.625  0.0634  0.6817 -0.0480
  275MOL0     C36233   0.908   7.320   7.545  0.2977 -0.8761  0.7032
  275MOL0     C36234   0.768   7.323   7.541 -0.1148  0.0211  0.0122
  275MOL0     H36235   0.276   7.295   7.587 -0.5227  1.0788  2.9931
  275MOL0     H36236   0.048   7.266   7.592  0.8432  0.8726  1.7116
  275MOL0     H36237  -0.277   7.082   7.558  0.8573 -0.4800 -0.0887
  275MOL0     H36238  -0.156   7.183   7.503 -0.4258  0.1587 -0.0350
  275MOL0     H36239  -0.126   7.294   7.698  1.0855 -1.0777  1.5583
  275MOL0     H36240  -0.193   7.184   7.803 -2.0021 -1.8958  0.1250
  275MOL0     H36241  -0.383   7.320   7.596 -1.6502 -2.9871 -0.1222
  275MOL0     H36242  -0.351   7.370   7.764  0.2883  0.7552 -1.0310
  275MOL0     H36243  -0.444   7.087   7.684 -0.4715 -0.7864  1.6990
  275MOL0     H36244  -0.426   7.151   7.843  4.4541 -0.0231 -0.1348
  275MOL0     H36245  -0.609   7.278   7.630  0.0012 -1.3472 -0.6039
  275MOL0     H36246  -0.607   7.309   7.802 -3.0374 -0.2696 -0.1546
  275MOL0     H36247  -0.655   7.052   7.825  1.2379 -0.1800 -0.1635
  275MOL0     H36248  -0.675   7.038   7.647 -0.6335  0.9444 -1.1035
  275MOL0     H36249  -0.834   7.184   7.849 -0.1044  0.2190 -0.2515
  275MOL0     H36250  -0.864   7.200   7.668 -1.0559 -0.5521 -1.2118
  275MOL0     H36251  -0.904   6.968   7.854 -1.4035  1.6096  0.4402
  275MOL0     H36252  -0.903   6.954   7.672 -2.0913  1.1182 -1.3866
  275MOL0     H36253  -1.121   6.963   7.943 -1.0747  0.9221  1.4236
  275MOL0     H36254  -1.413   7.036   7.966  1.2703  0.3477  1.2971
  275MOL0     H36255  -1.432   7.195   7.882  2.6074  0.2696 -2.7569
  275MOL0     H36256  -1.265   7.288   8.032 -1.2440  0.6352  0.1562
  275MOL0     H36257  -1.264   7.149   8.134 -0.5124  2.0523  2.8808
  275MOL0     H36258  -1.402   7.321   8.240  0.7424  2.5390 -1.1885
  275MOL0     H36259  -1.494   7.347   8.093 -0.0674  0.1535  2.2130
  275MOL0     H36260  -1.616   7.148   8.105 -1.2594  2.7932 -0.1768
  275MOL0     H36261  -1.622   7.213   8.264  0.4081 -1.1137  1.7513
  275MOL0     H36262  -1.744   6.988   8.129  2.2225  1.9607 -0.7323
  275MOL0     H36263  -1.866   6.778   8.167 -0.4104 -0.3481  1.0996
  275MOL0     H36264  -2.040   6.407   8.170 -1.3195 -0.7752 -0.4937
  275MOL0     H36265  -2.114   6.184   8.233 -1.8910 -1.6947  1.6793
  275MOL0     H36266  -1.994   6.038   8.648  2.8208  1.4685 -0.9405
  275MOL0     H36267  -1.898   6.005   8.522  0.5209 -2.6200  1.4225
  275MOL0     H36268  -2.069   5.827   8.431  1.2972 -4.2141  0.8198
  275MOL0     H36269  -2.136   5.844   8.594  0.7665 -4.0574 -0.0951
  275MOL0     H36270  -1.993   5.680   8.637 -0.5052 -0.1241 -0.7795
  275MOL0     H36271  -1.902   5.824   8.680  2.6231  0.4449 -0.9132
  275MOL0     H36272  -1.873   5.681   8.416  1.3131  2.3543 -1.6152
  275MOL0     H36273  -1.774   5.817   8.480 -1.1690 -0.4373  1.2715
  275MOL0     H36274  -1.777   5.560   8.629 -0.0116  1.7868  0.7068
  275MOL0     H36275  -1.694   5.708   8.654 -1.0312 -1.0959  1.3485
  275MOL0     H36276  -1.569   5.681   8.454  1.4058 -0.4255 -0.3986
  275MOL0     H36277  -1.676   5.541   8.402 -2.3601  0.0790  2.0952
  275MOL0     H36278  -1.486   5.517   8.616 -0.8526  1.6440 -1.0686
  275MOL0     H36279  -1.623   5.406   8.594 -1.9417 -1.5356 -2.3642
  275MOL0     H36280  -1.554   5.339   8.371 -2.7502  1.3330  0.8818
  275MOL0     H36281  -1.432   5.294   8.476 -0.4268  0.0768  0.9656
  275MOL0     H36282  -2.021   6.285   8.650  2.0377  3.8538  1.6542
  275MOL0     H36283  -1.940   6.496   8.581  0.6533  0.8569 -0.8227
  275MOL0     H36284  -1.543   6.611   8.375  2.8580 -0.8136 -2.2007
  275MOL0     H36285  -1.408   6.822   8.341 -0.9065  3.3061  3.0782
  275MOL0     H36286   0.096   6.852   7.685  1.8762 -0.3061  2.4760
  275MOL0     H36287   0.329   6.874   7.700 -2.2088 -0.9631  0.4944
  275MOL0     H36288   0.708   7.030   7.697  2.6251 -2.0323 -1.9437
  275MOL0     H36289   0.935   7.018   7.697 -2.2950 -1.5576  1.6226
  275MOL0     H36290   1.119   7.393   7.691 -1.1089 -0.4874 -0.6139
  275MOL0     H36291   1.206   7.367   7.531  4.3518 -1.6345 -0.5360
  275MOL0     H36292   1.281   7.199   7.781 -0.9125 -1.3571 -0.8433
  275MOL0     H36293   1.365   7.218   7.635 -2.9929 -0.0853 -2.8178
  275MOL0     H36294   1.348   7.396   7.877  0.4252 -4.7017  0.3890
  275MOL0     H36295   1.392   7.492   7.739 -0.0999  0.7256  1.7369
  275MOL0     H36296   1.572   7.420   7.893 -1.5532  0.8856 -0.0883
  275MOL0     H36297   1.550   7.255   7.855  0.8144  1.4077  1.4627
  275MOL0     H36298   1.801   7.450   7.567  0.4753 -1.8330 -1.1851
  275MOL0     H36299   0.964   7.401   7.501 -1.3538 -0.4219 -0.6701
  275MOL0     H36300   0.712   7.411   7.509  2.6270  2.1503  0.7474
  276MOL0     O36301   4.551   2.177   5.787  1.1397  0.0621 -0.2661
  276MOL0     C36302   4.581   2.271   5.713 -0.4997  0.8176 -0.9028
  276MOL0     O36303   4.525   2.302   5.590 -0.4951  0.1446 -0.1650
  276MOL0     C36304   4.423   2.226   5.540  1.4552 -0.3530 -0.4975
  276MOL0     C36305   4.291   2.288   5.530  0.5921  0.1836 -0.4931
  276MOL0     C36306   4.181   2.209   5.493  0.0646 -0.4765 -0.4657
  276MOL0     C36307   4.195   2.075   5.486  0.1012 -0.2294 -0.3074
  276MOL0     O36308   4.080   2.004   5.456  0.2492 -0.4457 -0.1744
  276MOL0     C36309   4.061   1.868   5.509 -0.6678 -1.2664  0.4005
  276MOL0     C36310   3.908   1.844   5.509  0.0081  0.0139 -0.3626
  276MOL0     C36311   3.843   1.860   5.369 -0.4329 -0.2200  0.2199
  276MOL0     C36312   3.837   1.736   5.288  0.5070  0.6303  0.1170
  276MOL0     C36313   3.738   1.724   5.174 -0.5627 -0.1595  0.3168
  276MOL0     C36314   3.604   1.799   5.195 -0.5407  0.3251  0.5150
  276MOL0     C36315   3.518   1.776   5.072  0.2417 -1.0452  0.7808
  276MOL0     C36316   3.372   1.833   5.109 -0.6487  0.8367  0.2747
  276MOL0     N36317   3.278   1.781   5.003 -0.0533 -0.1460  0.7297
  276MOL0     C36318   3.185   1.861   4.935  1.1815  0.5602  1.0179
  276MOL0     C36319   3.092   1.781   4.859 -0.1712 -0.4602  1.4853
  276MOL0     C36320   2.972   1.787   4.776  0.3785  0.2692 -0.7078
  276MOL0     C36321   2.866   1.875   4.835  0.8854 -0.3334 -0.5096
  276MOL0     C36322   2.804   1.824   4.968  0.7764 -0.5567  0.2386
  276MOL0     C36323   2.716   1.928   5.035  0.8667  0.0878 -0.3619
  276MOL0     O36324   2.626   1.990   4.951  0.8512 -0.3818  0.0098
  276MOL0     C36325   2.503   1.933   4.929 -0.5169  0.1581 -0.2337
  276MOL0     C36326   2.476   1.797   4.940 -0.3809 -0.0054 -0.5867
  276MOL0     C36327   2.345   1.759   4.915  0.8027  0.1840  0.2273
  276MOL0     C36328   2.233   1.842   4.894 -0.7199  0.1437  0.7122
  276MOL0     C36329   2.095   1.794   4.881 -0.2973 -0.5262  0.5784
  276MOL0     O36330   1.995   1.888   4.865 -1.0608  0.3368  0.2796
  276MOL0     C36331   1.864   1.841   4.877  0.0569  0.2797 -0.1401
  276MOL0     C36332   1.784   1.816   4.767 -0.1862  0.1055 -0.2409
  276MOL0     C36333   1.658   1.774   4.783  0.1944 -0.4697  0.1128
  276MOL0     C36334   1.597   1.777   4.908 -0.5728 -0.6626 -0.0699
  276MOL0     O36335   1.465   1.732   4.898  0.0437 -0.4790  0.3268
  276MOL0     C36336   1.376   1.841   4.886  0.1567 -0.4622 -0.0328
  276MOL0     C36337   1.238   1.790   4.895  0.9190  0.0231 -0.1488
  276MOL0     C36338   1.205   1.703   5.022 -0.1764 -0.7185 -0.2540
  276MOL0     C36339   1.246   1.774   5.151 -0.0506  0.5435 -0.0646
  276MOL0     C36340   1.205   1.677   5.258  0.1804 -1.0957 -0.9080
  276MOL0     C36341   1.269   1.717   5.396 -0.4597  0.1474  0.0175
  276MOL0     C36342   1.416   1.674   5.400  1.1671 -0.1223 -0.2265
  276MOL0     C36343   1.475   1.647   5.540  0.6766 -1.2283 -0.1809
  276MOL0    Cl36344   1.415   1.490   5.599 -0.0145  0.5220 -0.1084
  276MOL0     C36345   1.677   1.797   5.026  1.3321 -0.5354  0.2825
  276MOL0     C36346   1.814   1.824   5.001 -0.0782 -0.4275 -0.1665
  276MOL0     O36347   2.076   1.677   4.876 -0.9293 -0.8118  0.1227
  276MOL0     C36348   2.266   1.980   4.885  1.2534 -0.3601 -0.3734
  276MOL0     C36349   2.397   2.029   4.898 -0.3086  0.8023 -0.7760
  276MOL0     N36350   3.143   1.648   4.893  0.4540  0.3954  0.2398
  276MOL0     N36351   3.241   1.652   4.971 -0.2881 -0.0579  0.5717
  276MOL0     C36352   4.323   2.008   5.494 -0.4019 -0.1170 -0.4950
  276MOL0     C36353   4.436   2.085   5.524  0.4309 -0.6558  0.4848
  276MOL0     C36354   4.694   2.364   5.747 -0.4799 -0.6769  0.0778
  276MOL0     C36355   4.780   2.329   5.847  0.1571 -0.1601  0.5607
  276MOL0     C36356   4.903   2.401   5.868  0.0291  0.2212 -0.8302
  276MOL0     C36357   4.924   2.512   5.797 -1.0000 -1.8349  0.3162
  276MOL0     O36358   5.037   2.585   5.801 -0.7147 -0.0356 -0.1146
  276MOL0     C36359   5.142   2.551   5.904  0.1162  0.2344  0.4028
  276MOL0     C36360   5.260   2.630   5.842 -0.1974 -0.0597 -0.0382
  276MOL0     C36361   5.387   2.612   5.921  0.0474  0.1279  0.9509
  276MOL0     C36362   5.513   2.667   5.839 -0.4888  0.0594  0.5734
  276MOL0     C36363   5.620   2.661   5.942 -0.0105  0.6661  0.2197
  276MOL0     C36364   5.694   2.673   6.029 -0.0301 -0.2647 -0.2973
  276MOL0     C36365   4.838   2.552   5.699 -0.3157  0.2311 -0.3770
  276MOL0     C36366   4.719   2.478   5.673  0.3698 -0.2320  0.5822
  276MOL0     H36367   4.292   2.391   5.564  1.8578 -0.4870  1.7277
  276MOL0     H36368   4.089   2.252   5.453  0.8281  1.7015  0.0317
  276MOL0     H36369   4.096   1.856   5.612 -0.6021 -0.4156  0.4799
  276MOL0     H36370   4.114   1.804   5.438  1.5130 -0.9452  1.6614
  276MOL0     H36371   3.848   1.914   5.568 -3.7457 -4.1579  1.2844
  276MOL0     H36372   3.891   1.742   5.543 -2.1395  0.6493  0.6371
  276MOL0     H36373   3.876   1.951   5.318 -1.2931 -1.6454 -3.0993
  276MOL0     H36374   3.741   1.897   5.381 -0.8091 -1.2408  0.2505
  276MOL0     H36375   3.938   1.715   5.251  0.5271  1.3751 -0.2679
  276MOL0     H36376   3.807   1.653   5.352 -0.3864 -2.1436 -3.5424
  276MOL0     H36377   3.725   1.617   5.159  0.5343  0.0892 -3.2969
  276MOL0     H36378   3.795   1.771   5.093  3.0841 -2.3735  1.3683
  276MOL0     H36379   3.626   1.906   5.202  0.6449  0.0742  0.7824
  276MOL0     H36380   3.560   1.755   5.285 -0.4764 -1.2159 -0.1639
  276MOL0     H36381   3.548   1.837   4.986  0.4001 -1.0655  0.8202
  276MOL0     H36382   3.515   1.672   5.037  2.0069 -1.3150  1.3031
  276MOL0     H36383   3.371   1.942   5.111 -1.0494  0.8361  0.1269
  276MOL0     H36384   3.353   1.792   5.208  0.1600  1.1899  0.5891
  276MOL0     H36385   3.183   1.969   4.930  3.1507  0.5913 -2.6558
  276MOL0     H36386   2.928   1.687   4.764  0.1865  0.2152  0.3734
  276MOL0     H36387   2.988   1.825   4.674 -1.3569  0.4736 -0.9455
  276MOL0     H36388   2.790   1.878   4.757 -2.1056 -2.6360  2.0275
  276MOL0     H36389   2.902   1.978   4.844 -0.4074  0.0476  0.9126
  276MOL0     H36390   2.756   1.727   4.950 -0.1868  0.1141 -0.9288
  276MOL0     H36391   2.882   1.807   5.043 -1.2244  0.1970  2.5956
  276MOL0     H36392   2.788   2.004   5.066 -3.5981  3.7194  2.3357
  276MOL0     H36393   2.675   1.882   5.125  2.3715  1.5788  1.1529
  276MOL0     H36394   2.558   1.726   4.950  1.7519  2.1143 -1.9019
  276MOL0     H36395   2.333   1.652   4.927  4.1302 -0.6370 -2.3060
  276MOL0     H36396   1.827   1.815   4.668 -0.8885 -0.6163 -0.5492
  276MOL0     H36397   1.604   1.762   4.690  2.5998 -0.2029 -1.4137
  276MOL0     H36398   1.397   1.896   4.793  2.2736 -0.5226  0.3432
  276MOL0     H36399   1.395   1.911   4.968 -2.7027  1.1687 -0.6241
  276MOL0     H36400   1.221   1.729   4.805  1.9005  0.1748 -0.4458
  276MOL0     H36401   1.161   1.868   4.888 -1.8558 -2.3539  1.5048
  276MOL0     H36402   1.262   1.611   5.010  0.8274  0.2401 -4.7163
  276MOL0     H36403   1.098   1.684   5.027 -0.2905  0.1512  0.9751
  276MOL0     H36404   1.355   1.789   5.144 -0.3807  3.0314 -0.6057
  276MOL0     H36405   1.202   1.874   5.152  0.1670  0.7979 -3.8534
  276MOL0     H36406   1.224   1.575   5.221 -1.4140 -0.7868 -2.7858
  276MOL0     H36407   1.096   1.684   5.261 -0.0354 -3.3535 -1.4982
  276MOL0     H36408   1.207   1.673   5.475  1.7970  0.9122  2.3359
  276MOL0     H36409   1.264   1.826   5.403  1.6027  0.3764 -1.4108
  276MOL0     H36410   1.433   1.578   5.350  1.0628 -1.6716  2.4865
  276MOL0     H36411   1.469   1.758   5.355  2.4548 -0.5335  0.4596
  276MOL0     H36412   1.439   1.720   5.613  2.5215  0.2161 -0.6466
  276MOL0     H36413   1.584   1.654   5.545  0.5401  0.2150  1.4985
  276MOL0     H36414   1.630   1.794   5.124  1.2615  2.0311  0.4110
  276MOL0     H36415   1.884   1.824   5.084  1.3386 -3.2305 -1.2466
  276MOL0     H36416   2.188   2.054   4.871  1.8871  0.6662  1.3185
  276MOL0     H36417   2.411   2.137   4.902 -3.7955  1.4980  5.1062
  276MOL0     H36418   4.326   1.902   5.467 -1.0237  0.0913 -1.4250
  276MOL0     H36419   4.529   2.033   5.545  0.4938 -0.9694 -0.5287
  276MOL0     H36420   4.756   2.236   5.898 -4.1937  0.8802  0.7342
  276MOL0     H36421   4.972   2.351   5.936 -0.3103 -2.1473 -2.1193
  276MOL0     H36422   5.153   2.442   5.916 -2.6048  0.0631  2.2941
  276MOL0     H36423   5.122   2.605   5.997  3.1028  0.2649  1.1207
  276MOL0     H36424   5.276   2.598   5.738 -5.3671  1.2726 -1.5368
  276MOL0     H36425   5.224   2.734   5.849 -2.2519 -0.7843  0.8132
  276MOL0     H36426   5.406   2.509   5.953  2.2290 -0.7019 -2.4705
  276MOL0     H36427   5.384   2.667   6.016  1.6709  1.8443  0.0786
  276MOL0     H36428   5.529   2.596   5.757 -0.9317  1.2357 -0.5750
  276MOL0     H36429   5.504   2.768   5.798 -2.1240 -0.7898 -1.3335
  276MOL0     H36430   5.746   2.697   6.120 -4.4526 -1.8600  3.0254
  276MOL0     H36431   4.864   2.640   5.640  0.1432  0.7284  0.5417
  276MOL0     H36432   4.660   2.513   5.588  0.9481 -0.5927  0.0264
  277MOL0     O36433   9.431   7.184   5.591  0.4340  0.6976  0.4677
  277MOL0     C36434   9.387   7.068   5.578 -0.8408 -0.4115  0.8371
  277MOL0     O36435   9.264   7.032   5.593 -0.1429 -0.7472 -0.7595
  277MOL0     C36436   9.171   7.128   5.614 -0.1416 -0.2184 -0.2403
  277MOL0     C36437   9.105   7.134   5.728 -1.0414  0.9485 -0.0399
  277MOL0     C36438   9.003   7.227   5.746 -0.1778  0.3219  0.4476
  277MOL0     C36439   8.977   7.326   5.644 -0.3326 -0.0876 -0.0338
  277MOL0     O36440   8.873   7.415   5.651 -0.1049  0.5097 -0.1696
  277MOL0     C36441   8.806   7.444   5.775 -0.2121 -1.1737  0.1627
  277MOL0     C36442   8.677   7.513   5.755  0.0218  0.2261 -0.3375
  277MOL0     C36443   8.675   7.636   5.660  1.3109  0.6217 -0.8576
  277MOL0     C36444   8.540   7.690   5.686 -0.4130 -0.5422 -0.5404
  277MOL0     C36445   8.513   7.814   5.601 -0.8360  0.8768  0.4346
  277MOL0     C36446   8.376   7.873   5.640  0.0634  0.4666  0.2775
  277MOL0     C36447   8.325   8.003   5.565 -0.6096  0.2413  0.5897
  277MOL0     C36448   8.243   7.972   5.435 -0.2437 -0.2465 -0.5806
  277MOL0     N36449   8.135   7.883   5.469  0.6924  0.2421  0.6447
  277MOL0     C36450   8.025   7.913   5.536  0.4943 -0.0881  0.3023
  277MOL0     C36451   7.940   7.807   5.544 -0.0873  0.1182 -1.1069
  277MOL0     C36452   7.818   7.813   5.620  0.5595  0.2743  0.1824
  277MOL0     C36453   7.695   7.814   5.532  0.1502 -0.1483 -0.4068
  277MOL0     C36454   7.648   7.674   5.499  0.3444  0.3838  0.2227
  277MOL0     C36455   7.524   7.682   5.405  0.1759  0.4015  0.0293
  277MOL0     O36456   7.412   7.713   5.492 -0.2008 -0.0741 -0.1804
  277MOL0     C36457   7.305   7.633   5.480  0.2175 -1.2054 -0.5058
  277MOL0     C36458   7.242   7.598   5.360 -0.1344 -0.6354  0.2112
  277MOL0     C36459   7.130   7.514   5.353  0.0844 -1.2041 -0.6449
  277MOL0     C36460   7.088   7.452   5.471  0.1844 -0.6571 -0.3616
  277MOL0     C36461   6.987   7.343   5.455  0.3976 -0.1086 -0.2081
  277MOL0     O36462   6.953   7.274   5.566  0.3789  0.1803  0.3636
  277MOL0     C36463   6.865   7.170   5.564 -1.0299 -0.9214 -0.1995
  277MOL0     C36464   6.898   7.041   5.600  0.8509  0.1335 -0.1062
  277MOL0     C36465   6.804   6.942   5.600  1.0447  0.6672 -0.4544
  277MOL0     C36466   6.665   6.976   5.585  0.5520  0.5036 -0.0131
  277MOL0     O36467   6.564   6.886   5.582 -1.3043  1.0897 -0.0001
  277MOL0     C36468   6.581   6.784   5.683  1.4407 -0.1835  0.0854
  277MOL0     C36469   6.441   6.751   5.744 -0.7101 -0.7411 -0.7636
  277MOL0     C36470   6.348   6.697   5.637 -0.5140  0.0819  0.5472
  277MOL0     C36471   6.214   6.671   5.700 -0.6519 -0.3436 -0.7613
  277MOL0     C36472   6.102   6.658   5.594  0.7014  0.5072  0.3754
  277MOL0     C36473   5.960   6.668   5.655 -0.3761  0.7157  0.3738
  277MOL0     C36474   5.858   6.704   5.545 -0.5523  0.6001  0.3914
  277MOL0     C36475   5.709   6.663   5.581  0.5414  0.7803  0.6289
  277MOL0    Cl36476   5.592   6.691   5.457 -0.4051 -0.0875  0.1651
  277MOL0     C36477   6.628   7.107   5.564 -0.4186 -0.3100 -0.3511
  277MOL0     C36478   6.731   7.204   5.547  0.1046  0.4452  0.0022
  277MOL0     O36479   6.922   7.338   5.354 -0.2289 -0.1772 -0.3501
  277MOL0     C36480   7.137   7.496   5.599 -0.2212 -0.7861  0.0551
  277MOL0     C36481   7.245   7.590   5.599  0.0099 -0.1151 -0.5959
  277MOL0     N36482   7.994   7.706   5.475  0.1796 -1.1625  0.2784
  277MOL0     N36483   8.104   7.752   5.424 -0.6503 -1.0982 -0.6437
  277MOL0     C36484   9.044   7.317   5.519  0.7226 -0.1119  0.4191
  277MOL0     C36485   9.141   7.222   5.515 -0.1954  0.9843  1.6687
  277MOL0     C36486   9.477   6.957   5.545 -0.0841  0.6169  0.2533
  277MOL0     C36487   9.456   6.818   5.577 -0.6066  0.5714  0.0807
  277MOL0     C36488   9.535   6.711   5.537 -0.3880 -0.1513  0.5238
  277MOL0     C36489   9.641   6.743   5.454 -0.4315 -0.5533  0.5160
  277MOL0     O36490   9.733   6.654   5.406  0.1638  0.0013  0.4155
  277MOL0     C36491   9.772   6.551   5.510 -0.0670 -0.4019 -0.3051
  277MOL0     C36492   9.890   6.469   5.473  0.6565  0.1546 -0.1326
  277MOL0     C36493   9.896   6.413   5.330  0.0663  0.3310  0.5205
  277MOL0     C36494  10.024   6.337   5.293 -0.2956  0.1323  0.8917
  277MOL0     C36495  10.145   6.424   5.309  0.3920 -0.8516  0.3801
  277MOL0     C36496  10.245   6.494   5.334 -0.1017  0.4327  0.4162
  277MOL0     C36497   9.658   6.866   5.409  0.6121  0.1564  0.3875
  277MOL0     C36498   9.578   6.975   5.455 -0.3655 -0.3894  0.2035
  277MOL0     H36499   9.119   7.058   5.803  2.5630 -0.5451 -1.9682
  277MOL0     H36500   8.946   7.224   5.838 -0.9416  1.8808  0.0547
  277MOL0     H36501   8.876   7.504   5.834  0.5027 -2.4641  0.6674
  277MOL0     H36502   8.782   7.352   5.830 -0.1601 -1.1538  0.2186
  277MOL0     H36503   8.635   7.534   5.854  0.3833  1.1173 -0.3642
  277MOL0     H36504   8.609   7.436   5.718 -0.8094 -0.5928  2.6085
  277MOL0     H36505   8.700   7.619   5.555  2.2358 -0.6176 -0.4671
  277MOL0     H36506   8.752   7.704   5.698  1.8082  2.1642 -4.3356
  277MOL0     H36507   8.463   7.613   5.680 -1.8339  0.8569 -1.1030
  277MOL0     H36508   8.528   7.722   5.790  1.5383  0.1972 -0.5002
  277MOL0     H36509   8.524   7.792   5.494  4.0673 -0.4711  0.9664
  277MOL0     H36510   8.588   7.894   5.596 -2.7131  2.6410 -1.7679
  277MOL0     H36511   8.375   7.895   5.748  0.7255  0.4559  0.2846
  277MOL0     H36512   8.310   7.787   5.624  1.2659 -0.6599  1.1762
  277MOL0     H36513   8.259   8.059   5.631 -1.7462 -0.6896  0.2885
  277MOL0     H36514   8.412   8.062   5.535  0.0046 -0.8045  0.2294
  277MOL0     H36515   8.325   7.935   5.373  1.5631 -0.7978  1.9583
  277MOL0     H36516   8.204   8.071   5.408 -1.6327 -0.5848  0.1258
  277MOL0     H36517   8.014   8.010   5.583 -2.0859  0.2166 -0.7909
  277MOL0     H36518   7.826   7.894   5.693 -0.4304  0.6378 -0.1078
  277MOL0     H36519   7.808   7.723   5.683  1.9516 -0.7441 -0.9697
  277MOL0     H36520   7.721   7.870   5.442 -2.4880  1.5451 -0.2158
  277MOL0     H36521   7.613   7.868   5.580  0.2273  1.1873 -1.6887
  277MOL0     H36522   7.722   7.624   5.436 -2.0641 -1.5619 -1.2025
  277MOL0     H36523   7.637   7.610   5.587  2.7067 -0.0703  0.2639
  277MOL0     H36524   7.506   7.583   5.362 -3.2989  1.0474 -0.2744
  277MOL0     H36525   7.539   7.755   5.325 -0.9229  2.1761  1.3861
  277MOL0     H36526   7.278   7.637   5.265  0.0210  1.1592  0.9643
  277MOL0     H36527   7.084   7.493   5.258 -2.5497  0.4716  0.1602
  277MOL0     H36528   6.999   7.010   5.623  0.4792 -2.9219 -2.0240
  277MOL0     H36529   6.835   6.840   5.615  1.5667  0.6944 -1.2511
  277MOL0     H36530   6.644   6.814   5.767  0.5287  2.0388  0.0521
  277MOL0     H36531   6.633   6.701   5.635  1.7512 -0.4734  0.9053
  277MOL0     H36532   6.396   6.837   5.794 -3.0348 -3.3570  2.0543
  277MOL0     H36533   6.439   6.677   5.824 -0.8519 -0.1358 -0.2034
  277MOL0     H36534   6.394   6.607   5.594 -0.5054  1.4521 -2.6056
  277MOL0     H36535   6.354   6.772   5.557  0.9578  0.5036  1.0198
  277MOL0     H36536   6.216   6.578   5.758 -0.2307 -0.8369 -1.5541
  277MOL0     H36537   6.188   6.751   5.770  2.1781  0.3334 -0.3685
  277MOL0     H36538   6.119   6.563   5.542 -0.7083  1.0945 -1.2506
  277MOL0     H36539   6.120   6.746   5.531 -1.6488  1.8291  1.4608
  277MOL0     H36540   5.959   6.747   5.731  0.2151 -0.0628  1.2083
  277MOL0     H36541   5.926   6.574   5.700 -1.9547  1.3173  0.5065
  277MOL0     H36542   5.857   6.812   5.528 -4.0187  0.2314 -3.0276
  277MOL0     H36543   5.885   6.658   5.449 -2.3550  2.1802 -0.9428
  277MOL0     H36544   5.674   6.728   5.662 -2.6131  1.1864 -0.9209
  277MOL0     H36545   5.703   6.559   5.613  1.1515  0.4104 -0.3919
  277MOL0     H36546   6.521   7.122   5.557 -0.2360  0.2777 -3.4543
  277MOL0     H36547   6.700   7.307   5.531 -2.7777 -0.2879  0.3549
  277MOL0     H36548   7.096   7.448   5.687 -1.8080  1.8740  0.8775
  277MOL0     H36549   7.281   7.638   5.689 -2.4400  1.1348 -0.1746
  277MOL0     H36550   9.007   7.386   5.445 -0.5550  1.6140  2.5675
  277MOL0     H36551   9.181   7.207   5.415  0.7578  0.1554  2.1547
  277MOL0     H36552   9.367   6.809   5.638  0.0148  0.7016  1.0307
  277MOL0     H36553   9.521   6.611   5.576 -1.3029 -0.0180  0.5670
  277MOL0     H36554   9.686   6.483   5.510  0.3772 -1.0013  0.9208
  277MOL0     H36555   9.772   6.590   5.612 -1.9210  3.2041 -1.5240
  277MOL0     H36556   9.984   6.518   5.502  1.0376 -0.1589 -0.7987
  277MOL0     H36557   9.882   6.377   5.530  0.0521  1.1958  1.5323
  277MOL0     H36558   9.882   6.491   5.255  1.0615 -2.0767 -2.3557
  277MOL0     H36559   9.807   6.350   5.326 -0.7181  1.3083  1.6180
  277MOL0     H36560  10.041   6.250   5.357  1.8148  0.7641  1.2797
  277MOL0     H36561  10.021   6.288   5.194  0.9188  1.2201  0.2810
  277MOL0     H36562  10.332   6.557   5.341  1.1084 -0.9401 -1.2536
  277MOL0     H36563   9.724   6.902   5.331  0.3021 -0.1555 -0.0215
  277MOL0     H36564   9.593   7.072   5.410 -2.3327  1.1783  2.6774
  278MOL0     O36565   8.131   0.684   0.560 -0.4064 -0.1742 -0.7402
  278MOL0     C36566   8.129   0.749   0.457  0.1619 -0.0629  0.0903
  278MOL0     O36567   8.066   0.869   0.442 -0.3951  0.4994 -0.1874
  278MOL0     C36568   7.985   0.915   0.542  0.2278  0.1527 -0.9737
  278MOL0     C36569   7.980   1.049   0.565  0.4273 -0.7588  0.4174
  278MOL0     C36570   7.891   1.104   0.657  0.3114 -0.7094 -0.0187
  278MOL0     C36571   7.807   1.023   0.736 -0.0212  0.0630  0.1115
  278MOL0     O36572   7.720   1.067   0.829  0.7884  0.0894  1.0352
  278MOL0     C36573   7.688   1.214   0.823  1.1566 -0.1426  0.1585
  278MOL0     C36574   7.564   1.240   0.912  0.6908 -0.0901 -0.4581
  278MOL0     C36575   7.440   1.194   0.849 -0.3830 -0.9804  0.8818
  278MOL0     C36576   7.330   1.232   0.943  0.1507 -0.2582  0.4739
  278MOL0     C36577   7.198   1.188   0.880  0.7589 -0.3389  0.3298
  278MOL0     C36578   7.071   1.222   0.951  1.3747  0.2444 -0.2659
  278MOL0     C36579   7.041   1.372   0.923  0.0412  0.4664  0.5326
  278MOL0     C36580   6.918   1.419   0.993 -0.0997  0.3297 -1.2646
  278MOL0     N36581   6.890   1.555   0.954  0.0802 -0.6660  0.0138
  278MOL0     C36582   6.864   1.594   0.824 -0.0844 -0.2625 -0.1193
  278MOL0     C36583   6.840   1.725   0.831 -0.4191  0.8467 -0.1490
  278MOL0     C36584   6.806   1.821   0.717 -0.4988  0.6502 -0.4927
  278MOL0     C36585   6.916   1.919   0.689 -0.0414 -0.9278 -0.6528
  278MOL0     C36586   6.881   2.002   0.560  0.6280  0.0643 -0.3013
  278MOL0     C36587   7.001   2.044   0.492 -0.2159  0.1141 -0.3264
  278MOL0     O36588   6.969   2.070   0.352  0.3443 -0.6800  0.5896
  278MOL0     C36589   7.071   2.078   0.258  0.4248  0.1797 -0.3248
  278MOL0     C36590   7.037   2.064   0.127 -0.4430  0.1555  0.1447
  278MOL0     C36591   7.136   2.055   0.031  0.1524 -0.0858  0.2842
  278MOL0     C36592   7.270   2.071   0.057 -0.4189  0.0674 -0.5378
  278MOL0     C36593   7.381   2.053  -0.049 -0.5808  0.4517 -0.7191
  278MOL0     O36594   7.510   2.084   0.007  0.0022 -0.0232  0.0765
  278MOL0     C36595   7.623   2.067  -0.070  0.2779 -0.2094  0.4947
  278MOL0     C36596   7.632   1.959  -0.161 -0.2524  0.5939  0.3535
  278MOL0     C36597   7.750   1.947  -0.242 -0.5181  0.8170  0.1122
  278MOL0     C36598   7.852   2.047  -0.243  0.7860  0.7040 -0.0010
  278MOL0     O36599   7.975   2.026  -0.315 -0.6779  0.1322  0.3984
  278MOL0     C36600   7.995   1.905  -0.396  0.2793 -0.2394  0.4549
  278MOL0     C36601   8.103   1.946  -0.512  0.8849  0.0111  0.3105
  278MOL0     C36602   8.244   1.957  -0.451  1.0353 -0.2975 -0.3908
  278MOL0     C36603   8.322   2.069  -0.531  0.7727  0.1084 -0.8058
  278MOL0     C36604   8.466   2.021  -0.561  0.1646 -1.2095 -0.0272
  278MOL0     C36605   8.567   2.014  -0.438  0.1136 -1.1479 -0.6369
  278MOL0     C36606   8.711   1.968  -0.472  0.6276  0.0276 -0.6450
  278MOL0     C36607   8.796   1.994  -0.349 -0.4244  1.3798  0.1946
  278MOL0    Cl36608   8.959   1.929  -0.401  0.1338  0.0247 -0.0240
  278MOL0     C36609   7.835   2.155  -0.159 -0.5751 -0.3535 -0.3053
  278MOL0     C36610   7.730   2.159  -0.067  0.7581  0.2197  0.3129
  278MOL0     O36611   7.353   2.033  -0.161 -0.1566  0.5256  0.0469
  278MOL0     C36612   7.305   2.094   0.190 -0.5675  0.4567 -0.1414
  278MOL0     C36613   7.211   2.087   0.290  0.2415 -0.2699  0.4817
  278MOL0     N36614   6.866   1.768   0.968 -0.0109  0.0767  0.0941
  278MOL0     N36615   6.882   1.655   1.034  0.3954 -0.6282  0.1186
  278MOL0     C36616   7.795   0.895   0.694  0.2523 -0.3780 -0.5519
  278MOL0     C36617   7.882   0.835   0.596  1.1632  0.4367 -0.4478
  278MOL0     C36618   8.209   0.696   0.349 -0.5044  0.2162  0.1762
  278MOL0     C36619   8.243   0.771   0.232  0.6776  0.0904 -1.1096
  278MOL0     C36620   8.309   0.714   0.127 -0.5903  0.9082 -0.2974
  278MOL0     C36621   8.373   0.591   0.143  0.2608 -1.6521  0.0868
  278MOL0     O36622   8.459   0.553   0.035 -0.2863  0.6112 -0.2796
  278MOL0     C36623   8.532   0.425   0.054 -0.7013  0.6173 -0.2405
  278MOL0     C36624   8.602   0.369  -0.070  1.0213 -0.8961 -1.3824
  278MOL0     C36625   8.509   0.383  -0.202  0.2673  0.2910  0.3160
  278MOL0     C36626   8.383   0.299  -0.180  0.7575 -0.3310  0.2572
  278MOL0     C36627   8.304   0.291  -0.303 -0.3588  0.4729 -0.3028
  278MOL0     C36628   8.226   0.278  -0.399 -0.5417  0.3645 -0.6787
  278MOL0     C36629   8.339   0.516   0.255  0.4227 -0.3101 -0.6347
  278MOL0     C36630   8.260   0.561   0.352  0.3714  0.5780 -0.3209
  278MOL0     H36631   8.055   1.112   0.517 -1.0224 -0.6444 -1.8704
  278MOL0     H36632   7.892   1.212   0.658  1.4127 -0.6689  2.2220
  278MOL0     H36633   7.669   1.249   0.721  3.1216  2.5858  0.6057
  278MOL0     H36634   7.779   1.270   0.848  1.4215 -1.1884  1.7046
  278MOL0     H36635   7.556   1.345   0.941 -0.0514 -0.2580 -0.0277
  278MOL0     H36636   7.581   1.187   1.006  0.0931  2.4682  1.1842
  278MOL0     H36637   7.451   1.089   0.821  3.7168 -1.0308  2.0054
  278MOL0     H36638   7.435   1.244   0.752  2.6276 -2.1135  0.0138
  278MOL0     H36639   7.352   1.168   1.029 -0.6942 -1.8820 -0.4739
  278MOL0     H36640   7.328   1.336   0.978  1.0460 -0.0431 -0.0721
  278MOL0     H36641   7.198   1.079   0.875  0.3828 -0.4945  2.5892
  278MOL0     H36642   7.195   1.237   0.782  0.7560  1.0981  1.0184
  278MOL0     H36643   7.079   1.209   1.059  0.0288  1.8059  0.0616
  278MOL0     H36644   6.992   1.158   0.909  1.1424 -0.8595  1.7116
  278MOL0     H36645   7.119   1.440   0.957  1.3480 -1.9582  2.7397
  278MOL0     H36646   7.018   1.369   0.816 -1.4655 -1.3121  0.8519
  278MOL0     H36647   6.932   1.411   1.101  0.6333  0.0279 -1.3738
  278MOL0     H36648   6.835   1.354   0.966  1.7554 -1.4478 -3.0825
  278MOL0     H36649   6.852   1.526   0.741  1.4549  1.1112 -1.5493
  278MOL0     H36650   6.719   1.887   0.729  1.2864  2.9332  0.7879
  278MOL0     H36651   6.783   1.770   0.623  1.4847  2.1527 -1.9020
  278MOL0     H36652   7.010   1.865   0.674  0.8966  0.6980 -0.8483
  278MOL0     H36653   6.922   1.988   0.773 -0.2971  0.2931 -1.6007
  278MOL0     H36654   6.815   1.947   0.492 -1.3494  3.4979 -1.4352
  278MOL0     H36655   6.820   2.089   0.586 -0.2560 -1.0855  1.7246
  278MOL0     H36656   7.079   1.968   0.499  0.0665  0.5286  1.5977
  278MOL0     H36657   7.037   2.130   0.550  2.7240  0.5367 -2.5272
  278MOL0     H36658   6.931   2.065   0.100 -0.0967  1.2605 -1.3137
  278MOL0     H36659   7.095   2.038  -0.068  0.4271 -1.2352  0.3515
  278MOL0     H36660   7.558   1.881  -0.172  0.4529 -0.0605  0.1022
  278MOL0     H36661   7.755   1.854  -0.299  0.4522 -0.3560  2.0048
  278MOL0     H36662   7.897   1.899  -0.443  0.5790 -0.4951 -0.1454
  278MOL0     H36663   8.026   1.830  -0.322  0.3363  1.4702  2.2407
  278MOL0     H36664   8.072   2.044  -0.550  1.4087  1.2329  2.7754
  278MOL0     H36665   8.101   1.869  -0.589  2.2749 -0.1046  0.3576
  278MOL0     H36666   8.295   1.860  -0.466  1.5862  0.1535 -1.5918
  278MOL0     H36667   8.250   1.995  -0.349 -3.0310 -1.6397  0.5086
  278MOL0     H36668   8.280   2.091  -0.630  0.4522  1.2476 -0.4238
  278MOL0     H36669   8.327   2.163  -0.475 -0.9073  2.4359 -4.2108
  278MOL0     H36670   8.505   2.095  -0.632  3.1911 -1.0063  1.6665
  278MOL0     H36671   8.465   1.928  -0.618  0.0530  0.7626 -3.5291
  278MOL0     H36672   8.532   1.941  -0.364  0.8752  0.4950  1.4594
  278MOL0     H36673   8.565   2.111  -0.386  2.0691 -1.1001 -0.6099
  278MOL0     H36674   8.708   1.861  -0.492 -0.4753 -0.2314  0.7254
  278MOL0     H36675   8.771   2.011  -0.553  2.7674 -1.2570  0.1798
  278MOL0     H36676   8.753   1.940  -0.264 -0.8443  0.1621 -0.7683
  278MOL0     H36677   8.793   2.102  -0.326  0.3448  1.6675 -0.9864
  278MOL0     H36678   7.908   2.234  -0.147 -1.3028  0.4352 -0.9652
  278MOL0     H36679   7.719   2.241   0.003  1.9178  1.5932 -1.0404
  278MOL0     H36680   7.409   2.095   0.220 -0.1758  0.0774 -1.4419
  278MOL0     H36681   7.251   2.108   0.389  1.6492  0.5918 -0.2260
  278MOL0     H36682   7.718   0.834   0.740 -2.4070  2.9705 -0.1387
  278MOL0     H36683   7.875   0.730   0.569 -0.6499  1.0317 -2.5628
  278MOL0     H36684   8.204   0.872   0.222  1.4069  0.2750 -2.4274
  278MOL0     H36685   8.330   0.774   0.039  0.4782  1.2048  0.1444
  278MOL0     H36686   8.463   0.346   0.083 -0.0302 -0.0565 -0.4510
  278MOL0     H36687   8.603   0.443   0.135  1.1762  1.6189 -1.9998
  278MOL0     H36688   8.699   0.418  -0.084  0.1227  0.6561 -2.5790
  278MOL0     H36689   8.622   0.265  -0.042 -2.6837 -1.3774  0.0669
  278MOL0     H36690   8.566   0.340  -0.284 -1.6335 -2.2324  0.2103
  278MOL0     H36691   8.491   0.489  -0.221  1.8213  0.1392 -2.4441
  278MOL0     H36692   8.416   0.199  -0.151 -0.2516 -0.1488  2.1883
  278MOL0     H36693   8.321   0.350  -0.106  1.8135  1.4128  0.0031
  278MOL0     H36694   8.151   0.275  -0.475 -1.3067  2.0090 -0.0274
  278MOL0     H36695   8.372   0.412   0.253  0.1304 -0.4119 -0.3083
  278MOL0     H36696   8.237   0.503   0.441 -0.7259  2.9882  1.0865
  279MOL0     O36697   1.949   5.652   2.398  0.0398  0.6535  0.2160
  279MOL0     C36698   1.888   5.634   2.289  0.0226 -0.2743 -0.1251
  279MOL0     O36699   1.921   5.534   2.194  0.1551  0.8219 -0.0406
  279MOL0     C36700   2.009   5.430   2.221  0.2284 -0.4767  0.3671
  279MOL0     C36701   1.990   5.322   2.133  0.1379 -0.7662  0.1920
  279MOL0     C36702   2.064   5.200   2.159 -0.4555 -0.6509  1.2595
  279MOL0     C36703   2.156   5.188   2.262 -0.7942 -0.1781  0.2677
  279MOL0     O36704   2.202   5.060   2.280 -0.2995 -0.1909  0.0059
  279MOL0     C36705   2.247   5.037   2.415 -0.6212  0.7821 -0.1800
  279MOL0     C36706   2.354   4.927   2.409  0.0235  0.9795 -0.0880
  279MOL0     C36707   2.400   4.877   2.552  0.1407  0.0137  0.3468
  279MOL0     C36708   2.481   4.754   2.547 -0.3114 -0.4184  0.9239
  279MOL0     C36709   2.541   4.716   2.692  0.7166  0.7462  1.0724
  279MOL0     C36710   2.608   4.576   2.675 -0.0399 -0.1669  0.0872
  279MOL0     C36711   2.756   4.594   2.630 -0.4584 -0.9644  0.9571
  279MOL0     C36712   2.843   4.660   2.743  1.1634  0.0313 -0.3616
  279MOL0     N36713   2.979   4.635   2.723 -0.8362 -0.8319 -0.3182
  279MOL0     C36714   3.045   4.518   2.741  0.3088 -0.4892  0.0695
  279MOL0     C36715   3.167   4.574   2.749  0.1319 -1.2752  0.7425
  279MOL0     C36716   3.293   4.495   2.774 -1.1417  0.8439 -0.1936
  279MOL0     C36717   3.353   4.541   2.901 -0.5443  0.8068 -0.1721
  279MOL0     C36718   3.293   4.477   3.032  1.0477 -0.4944  0.3821
  279MOL0     C36719   3.354   4.543   3.159  0.2968  0.0767  0.0135
  279MOL0     O36720   3.329   4.684   3.164  0.0430 -0.0688 -0.4697
  279MOL0     C36721   3.197   4.728   3.151 -0.5278 -0.4621  0.2442
  279MOL0     C36722   3.085   4.659   3.205 -0.9351  0.9294 -0.5579
  279MOL0     C36723   2.957   4.697   3.192  0.8843  0.3068 -0.0890
  279MOL0     C36724   2.921   4.818   3.123 -0.4393  0.4818  0.2506
  279MOL0     C36725   2.783   4.860   3.104 -0.2824 -0.2192 -0.9718
  279MOL0     O36726   2.702   4.757   3.070  0.2052 -0.4944  0.4763
  279MOL0     C36727   2.560   4.750   3.051 -0.1746 -0.4644 -0.2192
  279MOL0     C36728   2.472   4.868   3.052  0.2857 -0.7480 -0.5974
  279MOL0     C36729   2.332   4.851   3.032  0.4375 -0.1766  0.2395
  279MOL0     C36730   2.270   4.728   3.017  0.8315  0.2005 -0.2527
  279MOL0     O36731   2.135   4.726   2.994  0.2171 -0.0770 -0.1052
  279MOL0     C36732   2.074   4.601   2.965 -0.3802  0.1168 -0.3435
  279MOL0     C36733   2.083   4.553   2.820  0.0591  0.2039  0.1417
  279MOL0     C36734   2.087   4.657   2.706  0.0413 -0.8712  0.3730
  279MOL0     C36735   1.953   4.733   2.711 -0.0523  0.3972 -0.2264
  279MOL0     C36736   1.948   4.836   2.592  0.1494 -0.1765 -0.5921
  279MOL0     C36737   1.804   4.887   2.570 -0.1542 -0.2613 -0.0672
  279MOL0     C36738   1.814   5.035   2.520 -0.0590  0.4341 -0.1736
  279MOL0     C36739   1.835   5.141   2.632 -0.3609 -0.8405  0.1577
  279MOL0    Cl36740   1.724   5.120   2.768  0.1058 -0.3501 -0.1154
  279MOL0     C36741   2.360   4.620   3.018 -0.2048  0.3884  0.3829
  279MOL0     C36742   2.494   4.628   3.031 -1.0339  0.5452  0.4695
  279MOL0     O36743   2.745   4.975   3.123  0.3100 -0.7633  0.5676
  279MOL0     C36744   3.025   4.890   3.068  0.9356  0.1688  0.5132
  279MOL0     C36745   3.161   4.848   3.085 -0.3595 -0.2015  0.2297
  279MOL0     N36746   3.174   4.707   2.743 -0.5445 -0.4965  0.2631
  279MOL0     N36747   3.056   4.745   2.735 -0.1240 -0.7614  0.9557
  279MOL0     C36748   2.185   5.310   2.328  0.9248 -0.0534 -1.0124
  279MOL0     C36749   2.118   5.427   2.317  0.3863 -1.0481  0.2571
  279MOL0     C36750   1.784   5.724   2.240 -0.1377 -1.0449 -0.0771
  279MOL0     C36751   1.751   5.835   2.318 -0.3657 -0.2182  0.1989
  279MOL0     C36752   1.669   5.933   2.256  0.2315  0.3880 -0.9212
  279MOL0     C36753   1.596   5.905   2.137  0.1772 -0.3388 -0.1672
  279MOL0     O36754   1.514   6.000   2.099  0.8398 -0.4617 -0.1670
  279MOL0     C36755   1.450   5.991   1.968  0.5435  0.2035 -0.1669
  279MOL0     C36756   1.340   6.105   1.950  0.3124  0.8361 -0.6085
  279MOL0     C36757   1.405   6.237   1.950  0.0522 -0.4136 -0.1027
  279MOL0     C36758   1.324   6.352   1.887 -0.7067 -0.4106  0.0710
  279MOL0     C36759   1.208   6.372   1.975  0.3577 -0.2172 -0.3361
  279MOL0     C36760   1.108   6.392   2.051  0.1793  0.6710 -0.0133
  279MOL0     C36761   1.643   5.800   2.054  0.4837  0.2957  0.1279
  279MOL0     C36762   1.726   5.707   2.114 -0.4273  0.1065 -0.4526
  279MOL0     H36763   1.917   5.324   2.053  3.8022  1.2946 -3.5186
  279MOL0     H36764   2.042   5.118   2.092  0.1616 -0.8613  1.3072
  279MOL0     H36765   2.163   5.012   2.481  2.6345 -0.7270  3.8077
  279MOL0     H36766   2.299   5.124   2.454 -0.2360 -0.1877  1.5781
  279MOL0     H36767   2.439   4.965   2.351  1.0519 -0.1669  0.6294
  279MOL0     H36768   2.324   4.842   2.347  2.1424 -0.3297  0.5782
  279MOL0     H36769   2.307   4.848   2.602  0.3797 -0.9032  0.2734
  279MOL0     H36770   2.447   4.958   2.607 -4.3624  0.8482  3.5725
  279MOL0     H36771   2.418   4.675   2.507  2.0722 -2.4788  0.9958
  279MOL0     H36772   2.555   4.770   2.467 -1.9915  1.8571 -0.3108
  279MOL0     H36773   2.456   4.708   2.760  1.2326  3.0441  2.0665
  279MOL0     H36774   2.609   4.793   2.729  2.1673  0.9699 -1.7428
  279MOL0     H36775   2.554   4.510   2.607 -1.4977  0.1489  0.8984
  279MOL0     H36776   2.610   4.534   2.777 -1.2954  0.9386  0.5962
  279MOL0     H36777   2.792   4.493   2.605 -1.5902 -0.6754 -2.3943
  279MOL0     H36778   2.750   4.659   2.543 -0.3527 -0.5294  1.2726
  279MOL0     H36779   2.818   4.622   2.843 -0.7441  2.5950  0.2380
  279MOL0     H36780   2.825   4.767   2.743  0.7901  0.0411  2.4395
  279MOL0     H36781   3.004   4.421   2.765 -2.0576 -0.6894 -3.8918
  279MOL0     H36782   3.367   4.515   2.696  1.6797 -1.8610  1.5291
  279MOL0     H36783   3.274   4.387   2.782 -0.9019  0.8835  1.0112
  279MOL0     H36784   3.351   4.651   2.903  0.1841  0.9434 -2.8208
  279MOL0     H36785   3.460   4.516   2.901 -0.5717  0.6876 -0.4691
  279MOL0     H36786   3.183   4.481   3.029  0.9823  0.9483  2.5017
  279MOL0     H36787   3.317   4.370   3.042  3.2433 -0.5522 -3.5225
  279MOL0     H36788   3.462   4.529   3.165  0.4792  0.7024 -1.3392
  279MOL0     H36789   3.315   4.500   3.252 -2.0324 -1.9098 -1.7320
  279MOL0     H36790   3.109   4.574   3.267  0.0741  0.3851 -1.6433
  279MOL0     H36791   2.869   4.651   3.234  0.8021  2.5438  2.4895
  279MOL0     H36792   2.512   4.969   3.056 -1.0027 -0.2228 -0.4450
  279MOL0     H36793   2.272   4.941   3.026  0.9591  0.0450 -3.0628
  279MOL0     H36794   1.974   4.625   3.001 -1.2067 -2.0515 -1.0625
  279MOL0     H36795   2.112   4.524   3.032  1.0097  2.7270  2.1041
  279MOL0     H36796   2.005   4.477   2.809  0.1964 -0.2048  1.7264
  279MOL0     H36797   2.173   4.491   2.820  0.1361  0.2977 -1.1089
  279MOL0     H36798   2.102   4.619   2.604 -2.4227  1.8907 -1.1719
  279MOL0     H36799   2.173   4.723   2.722  0.0719 -0.0964 -2.3868
  279MOL0     H36800   1.866   4.667   2.707  0.3186 -0.3052  1.9495
  279MOL0     H36801   1.947   4.785   2.808  2.4128 -0.3033  0.3594
  279MOL0     H36802   1.984   4.792   2.498 -0.2548  0.8943 -1.2565
  279MOL0     H36803   2.019   4.917   2.610 -0.6282  0.3439  0.2223
  279MOL0     H36804   1.755   4.881   2.668 -0.5930  0.7540 -0.2121
  279MOL0     H36805   1.756   4.819   2.498 -0.3298  0.0943 -0.2904
  279MOL0     H36806   1.888   5.039   2.439 -0.7078 -1.1784 -0.8875
  279MOL0     H36807   1.714   5.065   2.486  0.1268  2.0733  0.6125
  279MOL0     H36808   1.825   5.240   2.588  0.4009 -1.4423 -1.4669
  279MOL0     H36809   1.937   5.137   2.673 -0.9887 -1.2935  1.7620
  279MOL0     H36810   2.319   4.519   3.024  2.3024 -1.2206 -4.0865
  279MOL0     H36811   2.566   4.548   3.043  0.9947  2.4358  1.7427
  279MOL0     H36812   3.008   4.986   3.020  0.3484  1.2220  2.7084
  279MOL0     H36813   3.237   4.911   3.039 -0.9488  1.7216  1.7327
  279MOL0     H36814   2.251   5.318   2.413 -2.0105  0.7901  1.3695
  279MOL0     H36815   2.146   5.515   2.375 -2.0910  0.2193 -0.3149
  279MOL0     H36816   1.792   5.868   2.412 -2.5231  1.5842  0.6044
  279MOL0     H36817   1.652   6.027   2.308  1.2726 -0.6741  1.5234
  279MOL0     H36818   1.402   5.893   1.970 -2.0957  1.4005  1.2419
  279MOL0     H36819   1.530   6.006   1.894  0.7149  2.1368  0.3534
  279MOL0     H36820   1.295   6.089   1.851  1.8719 -3.0125 -0.9128
  279MOL0     H36821   1.268   6.102   2.032 -2.2075  0.5330 -2.7131
  279MOL0     H36822   1.497   6.220   1.893  0.1089  0.9286 -0.4359
  279MOL0     H36823   1.434   6.252   2.054  4.5687  0.2123 -1.2481
  279MOL0     H36824   1.387   6.441   1.898  0.1377 -1.1115  1.1557
  279MOL0     H36825   1.293   6.329   1.784  2.9105 -2.1456 -0.8056
  279MOL0     H36826   1.029   6.406   2.122  1.4540 -2.2783  2.1736
  279MOL0     H36827   1.606   5.771   1.956  1.0221 -0.3464  0.1057
  279MOL0     H36828   1.752   5.622   2.051  0.4206 -0.9456  1.2342
  280MOL0     O36829   4.193   2.754  10.996 -0.0033  0.9356  0.2490
  280MOL0     C36830   4.198   2.747  11.119  0.0192 -0.1536 -0.0060
  280MOL0     O36831   4.099   2.735  11.200  0.4077 -0.2155 -0.4185
  280MOL0     C36832   3.974   2.765  11.159 -0.0529  1.1305 -0.1403
  280MOL0     C36833   3.951   2.882  11.097 -0.0859  0.3547  0.1606
  280MOL0     C36834   3.825   2.926  11.045  0.2394  1.1830 -0.5209
  280MOL0     C36835   3.716   2.839  11.082  0.3210  0.6903  0.1881
  280MOL0     O36836   3.597   2.863  11.031  0.4005 -0.1364 -0.4582
  280MOL0     C36837   3.517   2.974  11.064 -0.1538 -0.3092 -0.0183
  280MOL0     C36838   3.413   2.978  10.948 -0.2082  0.4195 -0.0084
  280MOL0     C36839   3.292   3.073  10.989 -0.1255  0.3968 -0.1707
  280MOL0     C36840   3.172   3.046  10.904  0.7067  0.8594  0.4014
  280MOL0     C36841   3.073   3.150  10.944  0.3597 -0.0687  0.0052
  280MOL0     C36842   2.929   3.106  10.917 -0.5865  0.0707  0.3090
  280MOL0     C36843   2.804   3.209  10.937  0.1766 -0.8576 -0.1741
  280MOL0     C36844   2.779   3.313  10.823  0.3315  0.3814  0.4875
  280MOL0     N36845   2.654   3.377  10.821 -0.1218 -0.4940 -0.4709
  280MOL0     C36846   2.623   3.510  10.841 -0.3184  0.3657  0.9507
  280MOL0     C36847   2.490   3.520  10.837 -0.1281  0.0406  0.5993
  280MOL0     C36848   2.418   3.650  10.831 -0.2520 -0.1937 -0.5443
  280MOL0     C36849   2.283   3.633  10.915  0.4385  0.2783 -0.1639
  280MOL0     C36850   2.243   3.767  10.973  0.5078 -0.9793  0.7040
  280MOL0     C36851   2.091   3.752  10.978  0.5922  0.6500 -0.2837
  280MOL0     O36852   2.049   3.880  11.013 -0.3330 -0.6117  0.5197
  280MOL0     C36853   1.916   3.900  11.037  0.3666  0.0325  0.3448
  280MOL0     C36854   1.809   3.804  11.020 -0.8047 -0.6501 -1.3373
  280MOL0     C36855   1.687   3.833  11.070  0.8450 -0.1420  0.3677
  280MOL0     C36856   1.658   3.955  11.129 -0.1478 -0.0896  0.7249
  280MOL0     C36857   1.521   3.985  11.168  0.4613 -0.9905  0.1534
  280MOL0     O36858   1.500   4.099  11.249 -0.3434  0.2847 -0.4678
  280MOL0     C36859   1.378   4.158  11.279  1.0460 -0.8992  0.7417
  280MOL0     C36860   1.365   4.257  11.387 -0.0497 -0.4755  0.5441
  280MOL0     C36861   1.237   4.308  11.417  0.5702  0.2190 -0.6874
  280MOL0     C36862   1.135   4.278  11.320  0.3296 -0.4147 -0.0965
  280MOL0     O36863   1.012   4.327  11.344 -0.4239  0.1644 -0.1822
  280MOL0     C36864   0.961   4.422  11.250 -0.7203  0.2553 -0.7097
  280MOL0     C36865   1.001   4.566  11.292 -0.0480  0.4973 -0.1460
  280MOL0     C36866   0.891   4.645  11.370 -0.3925 -0.3656  0.4567
  280MOL0     C36867   0.947   4.761  11.439  0.1864 -0.0080 -0.0565
  280MOL0     C36868   0.842   4.827  11.526 -0.5524 -0.9725 -0.2124
  280MOL0     C36869   0.915   4.928  11.615 -0.1009 -0.4772  0.1912
  280MOL0     C36870   0.963   4.859  11.740 -0.2475 -0.0328  0.3290
  280MOL0     C36871   1.009   4.957  11.845 -0.5640  0.6515 -0.2063
  280MOL0    Cl36872   0.884   4.980  11.953  0.4556  0.3653  0.2478
  280MOL0     C36873   1.154   4.195  11.216 -0.3037  0.0889  0.7240
  280MOL0     C36874   1.271   4.131  11.194  0.0376  0.8648  1.2094
  280MOL0     O36875   1.435   3.893  11.155 -0.3290  0.1806 -0.0563
  280MOL0     C36876   1.758   4.051  11.135 -0.5747 -0.0908 -0.3640
  280MOL0     C36877   1.888   4.021  11.101  0.4974  0.1356  0.4528
  280MOL0     N36878   2.438   3.390  10.821 -0.8590 -0.2174  0.2720
  280MOL0     N36879   2.536   3.309  10.813 -0.0546  0.1585 -0.0972
  280MOL0     C36880   3.743   2.722  11.150 -0.1731  0.5609  0.1511
  280MOL0     C36881   3.869   2.687  11.190 -0.9355  0.5520  0.7150
  280MOL0     C36882   4.319   2.777  11.189  0.2051  0.0847 -0.5019
  280MOL0     C36883   4.431   2.852  11.129  1.0012 -0.3930  0.0279
  280MOL0     C36884   4.551   2.838  11.194  0.4081  0.3020  0.2191
  280MOL0     C36885   4.564   2.794  11.326 -0.1471  0.0692 -0.4501
  280MOL0     O36886   4.691   2.800  11.398  0.3806  0.2251 -0.0337
  280MOL0     C36887   4.750   2.672  11.397 -0.2059 -0.3372  0.2632
  280MOL0     C36888   4.901   2.663  11.368  0.0165  0.3880  0.1462
  280MOL0     C36889   4.997   2.723  11.464  0.4370  0.2078  0.1933
  280MOL0     C36890   5.138   2.692  11.408 -0.9420 -0.5369  0.2777
  280MOL0     C36891   5.242   2.692  11.515 -0.1028  0.1436  0.5923
  280MOL0     C36892   5.298   2.696  11.623 -0.2882  0.0766 -0.6215
  280MOL0     C36893   4.454   2.747  11.397 -0.6020  0.1761 -0.3783
  280MOL0     C36894   4.330   2.731  11.323 -0.2131  0.0092  0.4723
  280MOL0     H36895   4.037   2.949  11.091  0.7499 -0.6313  0.6600
  280MOL0     H36896   3.798   3.014  10.987  2.2340  2.2521  0.1044
  280MOL0     H36897   3.564   3.073  11.073  0.2415 -0.0177 -3.6551
  280MOL0     H36898   3.464   2.958  11.158 -2.5899  1.2488 -1.0135
  280MOL0     H36899   3.378   2.874  10.941  0.8692 -0.0799  1.5007
  280MOL0     H36900   3.455   3.009  10.852 -1.5325 -1.4915 -1.2918
  280MOL0     H36901   3.331   3.175  10.987  3.8265 -0.9505 -0.5790
  280MOL0     H36902   3.266   3.045  11.092  0.0096 -3.1171 -0.9405
  280MOL0     H36903   3.191   3.051  10.796  0.1705 -2.3677  0.0552
  280MOL0     H36904   3.125   2.952  10.936  0.8499  0.9394  0.8560
  280MOL0     H36905   3.097   3.236  10.880 -0.4992  0.9888  1.0466
  280MOL0     H36906   3.077   3.184  11.048  0.1787 -0.5728  0.1749
  280MOL0     H36907   2.900   3.020  10.980 -1.0830 -0.7568 -1.0126
  280MOL0     H36908   2.937   3.073  10.813 -0.6199 -0.1658  0.3799
  280MOL0     H36909   2.716   3.147  10.956  1.5656 -2.7016  0.4769
  280MOL0     H36910   2.823   3.257  11.033  2.0127  0.1417 -0.9806
  280MOL0     H36911   2.803   3.264  10.729 -0.6308  1.7632 -0.5155
  280MOL0     H36912   2.849   3.397  10.833 -1.3584  1.8740  0.2354
  280MOL0     H36913   2.688   3.596  10.832  2.0779 -1.3951 -7.0059
  280MOL0     H36914   2.387   3.665  10.727 -2.3178 -2.5074 -0.3749
  280MOL0     H36915   2.485   3.731  10.861  0.1321  0.2323 -2.4317
  280MOL0     H36916   2.291   3.565  11.000 -0.7332 -1.0218 -1.0422
  280MOL0     H36917   2.209   3.583  10.852 -1.2350  1.7409  0.5628
  280MOL0     H36918   2.292   3.783  11.069 -0.9139  2.1390  1.0283
  280MOL0     H36919   2.265   3.852  10.908 -1.0461 -0.6813  0.5134
  280MOL0     H36920   2.073   3.673  11.052 -0.7629 -0.9687 -2.2529
  280MOL0     H36921   2.054   3.726  10.879 -0.6622  1.8910 -0.1683
  280MOL0     H36922   1.818   3.707  10.973  0.3313 -0.5540 -1.3671
  280MOL0     H36923   1.615   3.760  11.035  2.7261 -0.3079 -3.7122
  280MOL0     H36924   1.455   4.276  11.444  1.1386 -1.5441 -0.9061
  280MOL0     H36925   1.214   4.374  11.501 -0.2138  0.2034 -0.8907
  280MOL0     H36926   0.852   4.415  11.246 -0.8797  1.9590 -0.3032
  280MOL0     H36927   1.000   4.426  11.148 -1.7779  1.0768 -1.1010
  280MOL0     H36928   1.025   4.631  11.207 -2.3986  0.9627 -0.5389
  280MOL0     H36929   1.088   4.553  11.355  0.9773  2.5724 -1.0172
  280MOL0     H36930   0.861   4.580  11.453  1.5309  1.8326  3.0418
  280MOL0     H36931   0.810   4.668  11.300 -1.1203 -0.8118  1.1468
  280MOL0     H36932   1.041   4.732  11.487  0.5556 -1.6271 -1.6601
  280MOL0     H36933   0.981   4.843  11.375 -2.0412  0.5458 -0.5968
  280MOL0     H36934   0.791   4.754  11.590 -3.1446 -0.1541 -1.2073
  280MOL0     H36935   0.770   4.879  11.463  1.6355  1.1252 -1.1179
  280MOL0     H36936   0.861   5.013  11.658  2.3942  0.1958  2.2922
  280MOL0     H36937   0.995   4.980  11.561 -0.9916  1.1352  0.3529
  280MOL0     H36938   0.891   4.789  11.785 -1.4328  0.3734 -0.8703
  280MOL0     H36939   1.053   4.802  11.715  0.2803  0.1687  1.6544
  280MOL0     H36940   1.026   5.059  11.809 -1.1626  0.9768  0.4245
  280MOL0     H36941   1.101   4.928  11.897 -0.2631 -3.6413 -2.7091
  280MOL0     H36942   1.073   4.154  11.157  1.9266 -1.8639 -1.1884
  280MOL0     H36943   1.279   4.070  11.104 -2.4542  0.3830  1.2505
  280MOL0     H36944   1.747   4.144  11.190  0.4283 -1.8225  3.1080
  280MOL0     H36945   1.970   4.092  11.114  1.9932 -0.9723 -2.1830
  280MOL0     H36946   3.660   2.654  11.161 -0.7970  1.4802  1.4293
  280MOL0     H36947   3.883   2.590  11.238  0.1871 -0.2122 -1.0747
  280MOL0     H36948   4.428   2.913  11.039  1.8229  0.0341  0.2761
  280MOL0     H36949   4.634   2.895  11.154 -1.3925  3.2066  0.2750
  280MOL0     H36950   4.708   2.602  11.324 -0.8787  0.5315 -0.1898
  280MOL0     H36951   4.745   2.639  11.502  3.3751 -1.7074  0.1492
  280MOL0     H36952   4.921   2.555  11.376  1.9895  0.6956 -0.1757
  280MOL0     H36953   4.920   2.697  11.266 -0.6580 -1.4776 -0.6547
  280MOL0     H36954   4.979   2.691  11.567 -0.3234 -0.6873 -0.1996
  280MOL0     H36955   4.978   2.831  11.467  0.0633  0.1741  3.7974
  280MOL0     H36956   5.131   2.593  11.361 -1.6104 -0.6542  0.6007
  280MOL0     H36957   5.156   2.762  11.327  0.7412  0.8493  1.7697
  280MOL0     H36958   5.361   2.714  11.708 -0.7803  1.1019 -0.4620
  280MOL0     H36959   4.465   2.711  11.498 -2.7984 -0.0416 -0.1815
  280MOL0     H36960   4.248   2.688  11.379 -0.5332  0.1773  0.1394
  281MOL0     O36961   0.055   0.281   9.446 -0.3075 -1.0346 -0.4899
  281MOL0     C36962   0.031   0.259   9.324  0.4731 -0.5574 -1.0588
  281MOL0     O36963  -0.072   0.184   9.280  0.7860 -0.0619 -0.4049
  281MOL0     C36964  -0.178   0.161   9.371  0.0815  1.1553 -0.5686
  281MOL0     C36965  -0.198   0.028   9.428  0.3999 -0.7680  0.7726
  281MOL0     C36966  -0.303   0.009   9.520  0.2708 -0.2211 -0.0443
  281MOL0     C36967  -0.393   0.110   9.543 -0.2277  0.4161 -1.1882
  281MOL0     O36968  -0.500   0.066   9.613 -0.2305 -0.4258 -0.5239
  281MOL0     C36969  -0.630   0.089   9.581 -0.0602 -0.0338  0.2989
  281MOL0     C36970  -0.692  -0.003   9.680  0.9703  0.9577 -0.0054
  281MOL0     C36971  -0.841  -0.014   9.656  0.1222 -0.0855  0.4921
  281MOL0     C36972  -0.918  -0.047   9.780  0.0549  0.2799  0.3360
  281MOL0     C36973  -1.053  -0.081   9.742 -0.7237 -0.1309 -0.3507
  281MOL0     C36974  -1.149  -0.079   9.856  0.5585  0.4647  0.4923
  281MOL0     C36975  -1.299  -0.086   9.809  0.9060 -0.6327  0.4399
  281MOL0     C36976  -1.406  -0.072   9.925 -0.5271  0.8215 -0.5730
  281MOL0     N36977  -1.542  -0.053   9.872 -1.1837  0.3473 -0.6446
  281MOL0     C36978  -1.658  -0.127   9.900  0.6861 -0.7930  0.4692
  281MOL0     C36979  -1.757  -0.040   9.863 -0.6214  0.1197  0.3285
  281MOL0     C36980  -1.900  -0.066   9.875  0.6431 -0.0430 -0.9722
  281MOL0     C36981  -1.945   0.007  10.007  0.1793  0.5524 -0.6648
  281MOL0     C36982  -1.978   0.161   9.978 -0.0328 -0.2790 -0.3559
  281MOL0     C36983  -2.006   0.230  10.109  0.2403  0.5110 -0.1644
  281MOL0     O36984  -2.144   0.231  10.137 -0.3131 -0.0007 -0.3917
  281MOL0     C36985  -2.185   0.264  10.262  0.6755 -0.4302  1.2290
  281MOL0     C36986  -2.321   0.245  10.288  0.1697 -0.5473 -0.6758
  281MOL0     C36987  -2.382   0.293  10.408  0.0405 -0.6250 -0.2896
  281MOL0     C36988  -2.300   0.371  10.499 -0.4903  0.4348  0.5093
  281MOL0     C36989  -2.363   0.430  10.618  0.6076 -0.1152  0.5695
  281MOL0     O36990  -2.282   0.526  10.674 -0.2612 -0.6857 -0.2916
  281MOL0     C36991  -2.328   0.609  10.777  0.8139 -0.8319 -0.0905
  281MOL0     C36992  -2.253   0.725  10.802  1.0553  0.3951  0.5529
  281MOL0     C36993  -2.294   0.812  10.907 -0.6178 -1.2520  0.6019
  281MOL0     C36994  -2.412   0.794  10.975 -0.6658 -0.1974  0.8295
  281MOL0     O36995  -2.465   0.894  11.048  0.4272  0.3961  0.3502
  281MOL0     C36996  -2.572   0.961  10.983  0.6333 -0.5051 -0.2092
  281MOL0     C36997  -2.686   0.992  11.081  0.2405 -0.2728 -0.0715
  281MOL0     C36998  -2.818   1.031  11.008 -0.3197  0.5437 -0.2317
  281MOL0     C36999  -2.905   1.095  11.124  0.2842  0.3184  0.0989
  281MOL0     C37000  -3.048   1.143  11.093  0.6496 -0.0004 -0.1887
  281MOL0     C37001  -3.147   1.041  11.041  0.6876  0.3108 -0.3559
  281MOL0     C37002  -3.289   1.095  11.017  1.3036  0.2665  0.4061
  281MOL0     C37003  -3.392   0.987  11.011  0.3696  0.0186 -0.1227
  281MOL0    Cl37004  -3.522   1.035  10.897  0.0881  0.3451  0.3262
  281MOL0     C37005  -2.484   0.673  10.962 -0.4124 -0.9662 -0.9229
  281MOL0     C37006  -2.433   0.575  10.874  0.2499 -0.3135  0.5296
  281MOL0     O37007  -2.475   0.394  10.665 -0.0501 -0.1951 -0.1360
  281MOL0     C37008  -2.161   0.387  10.460  0.5435 -0.7692  0.6264
  281MOL0     C37009  -2.110   0.343  10.349 -0.3011 -0.1226  0.5870
  281MOL0     N37010  -1.697   0.078   9.811  0.2239 -0.1983 -0.3366
  281MOL0     N37011  -1.572   0.065   9.813  0.4092 -0.9234  0.2866
  281MOL0     C37012  -0.376   0.237   9.494  0.9976 -1.7775  0.5127
  281MOL0     C37013  -0.272   0.262   9.405  0.4449 -0.3205 -0.5673
  281MOL0     C37014   0.120   0.330   9.232 -0.3971  0.1792 -0.0279
  281MOL0     C37015   0.242   0.390   9.272  0.1483 -0.5427 -0.1055
  281MOL0     C37016   0.333   0.444   9.184  0.8460 -0.4136  0.4145
  281MOL0     C37017   0.307   0.428   9.046 -0.5015  0.1206 -0.8937
  281MOL0     O37018   0.388   0.478   8.949  0.7396 -0.1751 -0.1849
  281MOL0     C37019   0.522   0.435   8.954  0.2098 -0.0641 -0.0061
  281MOL0     C37020   0.545   0.318   8.859 -0.4119 -0.1453  0.4645
  281MOL0     C37021   0.699   0.280   8.844  0.8034  0.0260 -0.0406
  281MOL0     C37022   0.742   0.244   8.706  0.4377 -0.2283 -0.0879
  281MOL0     C37023   0.758   0.367   8.622 -0.4561 -0.5801  0.8762
  281MOL0     C37024   0.743   0.461   8.545 -0.7333  0.1851  0.6034
  281MOL0     C37025   0.192   0.369   8.996  0.1220  0.0531  0.7109
  281MOL0     C37026   0.096   0.327   9.088 -0.3412 -0.4350  1.1208
  281MOL0     H37027  -0.131  -0.047   9.388  1.7304  1.4684 -1.4577
  281MOL0     H37028  -0.312  -0.092   9.559  1.5137  0.4904  2.2795
  281MOL0     H37029  -0.665   0.053   9.484  2.4249 -2.9119  0.3330
  281MOL0     H37030  -0.659   0.194   9.594 -0.5505 -0.1407  0.0776
  281MOL0     H37031  -0.677   0.039   9.780  2.9887  2.4783 -0.8723
  281MOL0     H37032  -0.650  -0.105   9.684 -3.7688 -1.2174  2.8072
  281MOL0     H37033  -0.841  -0.096   9.583  0.5943  1.5565 -1.4288
  281MOL0     H37034  -0.883   0.076   9.609 -0.4850 -0.7015 -0.1775
  281MOL0     H37035  -0.883  -0.140   9.827 -1.3275  0.4232  1.7614
  281MOL0     H37036  -0.927   0.040   9.846  1.4106 -1.2229  2.6504
  281MOL0     H37037  -1.059  -0.175   9.688 -1.0196  0.7094 -1.8316
  281MOL0     H37038  -1.080  -0.008   9.665  0.3648  0.7348  0.0629
  281MOL0     H37039  -1.146   0.006   9.926 -3.7620 -1.3209  3.2452
  281MOL0     H37040  -1.123  -0.155   9.930  0.3625  2.5904  2.9136
  281MOL0     H37041  -1.311   0.004   9.747 -1.2254 -0.0477  1.5699
  281MOL0     H37042  -1.316  -0.180   9.755 -0.8233 -0.0994 -0.0424
  281MOL0     H37043  -1.387   0.016   9.986 -2.0106  0.4005  0.5705
  281MOL0     H37044  -1.399  -0.163   9.985  0.1917  0.0412 -1.7999
  281MOL0     H37045  -1.660  -0.219   9.957 -0.2067 -0.5218  0.8914
  281MOL0     H37046  -1.923  -0.173   9.888  2.3811 -0.4271 -0.6980
  281MOL0     H37047  -1.959  -0.034   9.789 -1.6499 -1.6393 -0.0965
  281MOL0     H37048  -1.874  -0.004  10.090 -0.1279 -1.3959 -0.6157
  281MOL0     H37049  -2.040  -0.034  10.041  1.5616  0.1659  3.3299
  281MOL0     H37050  -1.899   0.220   9.930 -1.0140 -0.4590 -2.2845
  281MOL0     H37051  -2.065   0.162   9.911 -0.5415  1.0565  0.2909
  281MOL0     H37052  -1.973   0.334  10.106 -0.1571  0.6220 -2.1529
  281MOL0     H37053  -1.942   0.187  10.186 -1.0751 -1.7538 -0.2336
  281MOL0     H37054  -2.367   0.179  10.216 -1.4238  0.0913 -0.2786
  281MOL0     H37055  -2.487   0.280  10.432 -0.4484  3.1555  0.3731
  281MOL0     H37056  -2.189   0.760  10.722 -1.8248 -1.1686 -2.6656
  281MOL0     H37057  -2.237   0.903  10.922  0.2468 -2.1098  3.0905
  281MOL0     H37058  -2.613   0.901  10.901 -0.5987  0.6063 -0.4438
  281MOL0     H37059  -2.529   1.054  10.944 -0.3107 -0.0638 -0.2420
  281MOL0     H37060  -2.656   1.070  11.151 -3.7719  0.1985  1.3736
  281MOL0     H37061  -2.719   0.902  11.133 -0.4214  0.8729  1.5721
  281MOL0     H37062  -2.878   0.944  10.981  1.5873 -0.5605 -1.0936
  281MOL0     H37063  -2.802   1.100  10.925  0.4843  0.1852 -0.3867
  281MOL0     H37064  -2.927   1.022  11.202 -3.4865  2.2988  1.1368
  281MOL0     H37065  -2.845   1.180  11.158  2.7659 -1.0745 -0.5313
  281MOL0     H37066  -3.047   1.215  11.010 -0.5329 -0.6535 -0.7991
  281MOL0     H37067  -3.087   1.206  11.173  1.4203  2.6200 -1.7419
  281MOL0     H37068  -3.138   0.951  11.102  4.1114 -0.0584 -1.1912
  281MOL0     H37069  -3.113   1.000  10.945  2.8441  0.6092  0.2247
  281MOL0     H37070  -3.307   1.168  11.097  0.8716  0.9502 -0.2995
  281MOL0     H37071  -3.284   1.142  10.918 -1.0105 -3.8304 -1.9310
  281MOL0     H37072  -3.432   0.952  11.106 -0.4055  1.7727  0.2383
  281MOL0     H37073  -3.364   0.894  10.961 -1.7109 -1.6900  1.7210
  281MOL0     H37074  -2.572   0.656  11.023  0.3221 -2.7217 -0.2844
  281MOL0     H37075  -2.488   0.482  10.865  4.1093 -2.7787 -0.1622
  281MOL0     H37076  -2.088   0.447  10.514 -0.2826  2.7447 -1.8629
  281MOL0     H37077  -2.009   0.374  10.326 -0.8234  0.3896 -1.1760
  281MOL0     H37078  -0.452   0.308   9.523  1.8372 -0.9457  0.7201
  281MOL0     H37079  -0.262   0.364   9.370  1.0872 -0.6094 -1.2336
  281MOL0     H37080   0.259   0.392   9.379  0.6063  0.4105 -0.1895
  281MOL0     H37081   0.416   0.499   9.226 -1.0742  1.7058  1.6478
  281MOL0     H37082   0.550   0.410   9.056 -0.3895 -1.9950 -0.2667
  281MOL0     H37083   0.591   0.516   8.927  1.9840 -1.7240 -0.7101
  281MOL0     H37084   0.481   0.233   8.885 -0.4575 -0.1929  0.2068
  281MOL0     H37085   0.512   0.347   8.758 -0.3235  1.4799  0.8729
  281MOL0     H37086   0.715   0.191   8.906  2.6551  0.2315 -0.1806
  281MOL0     H37087   0.756   0.359   8.893 -0.7500  0.5745  0.9451
  281MOL0     H37088   0.827   0.177   8.693  1.1964  0.9738 -1.7576
  281MOL0     H37089   0.665   0.175   8.669  2.3067 -3.4449  1.6255
  281MOL0     H37090   0.741   0.535   8.468  0.1197  1.2908  1.6131
  281MOL0     H37091   0.178   0.358   8.889 -0.0429  3.0895  0.3403
  281MOL0     H37092   0.006   0.286   9.044 -0.0255 -0.0645  0.0789
  282MOL0     O37093   4.977   9.734   6.986 -0.1607  0.4030 -0.2157
  282MOL0     C37094   5.029   9.627   7.013 -0.4446  0.7939 -0.0353
  282MOL0     O37095   4.981   9.533   7.110 -0.1092 -0.1488  0.6503
  282MOL0     C37096   4.870   9.562   7.183 -0.7995 -0.7217 -1.3970
  282MOL0     C37097   4.888   9.552   7.320 -0.3415  0.0784 -0.5469
  282MOL0     C37098   4.788   9.578   7.418  0.2906 -1.0950 -0.5149
  282MOL0     C37099   4.665   9.624   7.380  0.4972  0.2161  0.5103
  282MOL0     O37100   4.578   9.632   7.489 -0.5674  0.5793  0.2102
  282MOL0     C37101   4.439   9.618   7.474  0.2815  0.3875 -0.0678
  282MOL0     C37102   4.391   9.474   7.462  0.0222  0.3729  1.0771
  282MOL0     C37103   4.256   9.481   7.397 -0.4345 -0.1982  0.4008
  282MOL0     C37104   4.208   9.343   7.355  0.2452  0.8516 -0.0056
  282MOL0     C37105   4.074   9.364   7.280  0.0042  0.2973 -0.2805
  282MOL0     C37106   3.994   9.240   7.304 -0.2620  0.5149 -0.1550
  282MOL0     C37107   3.865   9.271   7.228 -0.1275  0.7521  0.0347
  282MOL0     C37108   3.760   9.158   7.263  0.4744 -0.4313 -0.6087
  282MOL0     N37109   3.628   9.201   7.227  0.4021  0.1313  0.1885
  282MOL0     C37110   3.561   9.157   7.117  0.0732 -0.2827  0.1749
  282MOL0     C37111   3.463   9.252   7.096 -0.2370 -0.1296 -0.3665
  282MOL0     C37112   3.365   9.252   6.987 -0.4201  0.2952  0.4378
  282MOL0     C37113   3.216   9.236   7.027 -0.2764 -0.7606  0.1719
  282MOL0     C37114   3.167   9.094   7.026  0.7059 -0.3275  1.2345
  282MOL0     C37115   3.059   9.057   6.920 -0.3592 -0.0346  0.1002
  282MOL0     O37116   2.943   9.132   6.937  0.3406 -0.0308 -0.6612
  282MOL0     C37117   2.823   9.100   6.873  0.4646  0.4685  0.0413
  282MOL0     C37118   2.741   9.186   6.801 -0.4978  0.3912 -0.1168
  282MOL0     C37119   2.620   9.143   6.745 -0.1121 -0.1455  0.2955
  282MOL0     C37120   2.560   9.021   6.779 -0.4211 -0.4582  0.6830
  282MOL0     C37121   2.421   9.001   6.724 -0.2659  0.0455 -0.4215
  282MOL0     O37122   2.340   9.105   6.698 -0.2364 -0.9261 -0.1441
  282MOL0     C37123   2.218   9.082   6.637 -0.0493  1.0053 -0.0716
  282MOL0     C37124   2.095   9.138   6.689  0.6609  0.7412  0.3318
  282MOL0     C37125   1.974   9.104   6.628  0.2327  0.0094  1.0286
  282MOL0     C37126   1.971   9.036   6.505  1.0290 -0.6202  0.0383
  282MOL0     O37127   1.848   8.996   6.465  0.3132  0.5995  0.0119
  282MOL0     C37128   1.831   8.903   6.354 -0.0789 -0.0383 -0.3394
  282MOL0     C37129   1.679   8.871   6.351  0.6041  0.2072  0.3942
  282MOL0     C37130   1.666   8.771   6.235 -0.0657 -0.5887 -0.6223
  282MOL0     C37131   1.532   8.700   6.232  0.2571 -0.3040 -0.0950
  282MOL0     C37132   1.524   8.597   6.119 -0.3755  0.4213 -0.0714
  282MOL0     C37133   1.376   8.560   6.095 -0.5387 -0.2185  0.0567
  282MOL0     C37134   1.366   8.428   6.027  0.9272 -0.5454  0.2025
  282MOL0     C37135   1.435   8.435   5.883 -1.0990  0.0622  0.4176
  282MOL0    Cl37136   1.402   8.272   5.802 -0.4271  0.2331  0.1665
  282MOL0     C37137   2.093   8.988   6.452  0.3057  0.9888  0.5250
  282MOL0     C37138   2.212   9.014   6.516 -0.4047  0.1441 -0.6529
  282MOL0     O37139   2.386   8.882   6.707  0.4171 -0.7046  0.2165
  282MOL0     C37140   2.645   8.925   6.852 -0.5289 -0.3773 -0.2895
  282MOL0     C37141   2.769   8.967   6.900  0.4514 -0.2892 -0.0081
  282MOL0     N37142   3.470   9.345   7.198 -0.6622  0.0858  0.6110
  282MOL0     N37143   3.565   9.311   7.275 -0.1031 -0.8655  0.2058
  282MOL0     C37144   4.652   9.646   7.245  0.2327 -0.6458  0.3129
  282MOL0     C37145   4.743   9.614   7.144  0.1632  0.3285 -0.0370
  282MOL0     C37146   5.157   9.618   6.949 -0.6969 -1.0775  0.8088
  282MOL0     C37147   5.221   9.723   6.878  0.1097 -0.3613 -0.2286
  282MOL0     C37148   5.339   9.703   6.814 -0.1253 -0.1374  1.2308
  282MOL0     C37149   5.401   9.573   6.825 -0.3668 -0.2290 -1.3359
  282MOL0     O37150   5.518   9.539   6.760 -1.1498 -0.7465  0.1290
  282MOL0     C37151   5.590   9.615   6.656  0.5627 -0.4551  1.3671
  282MOL0     C37152   5.680   9.728   6.696 -0.7117 -0.0037  0.0074
  282MOL0     C37153   5.709   9.819   6.570  1.3736  0.8296  1.4786
  282MOL0     C37154   5.827   9.912   6.590 -0.6250  0.9034 -0.3607
  282MOL0     C37155   5.961   9.847   6.612  1.1725 -0.3767  0.3075
  282MOL0     C37156   6.058   9.782   6.626  0.3636  0.0243  0.1488
  282MOL0     C37157   5.346   9.474   6.914  0.4271  0.9425  0.6355
  282MOL0     C37158   5.226   9.499   6.969  0.1102  0.0333  1.3252
  282MOL0     H37159   4.983   9.517   7.358  0.4508  2.2245 -0.4295
  282MOL0     H37160   4.809   9.562   7.523 -0.0551 -1.4959 -0.5049
  282MOL0     H37161   4.400   9.690   7.401  1.8752 -1.1367 -2.5714
  282MOL0     H37162   4.399   9.655   7.568  2.1299  3.1445 -0.2300
  282MOL0     H37163   4.384   9.410   7.551 -1.0992  0.6229  1.1802
  282MOL0     H37164   4.461   9.418   7.399  0.2491  0.6557  1.0695
  282MOL0     H37165   4.256   9.541   7.306  0.1757  0.6272  0.9315
  282MOL0     H37166   4.181   9.518   7.467 -1.0077 -1.4488  0.4780
  282MOL0     H37167   4.289   9.299   7.295 -0.1959 -0.9920  0.6689
  282MOL0     H37168   4.189   9.276   7.439  0.1249  1.8274  0.7642
  282MOL0     H37169   4.081   9.377   7.171 -3.1005  5.5507 -0.1829
  282MOL0     H37170   4.017   9.452   7.310 -0.6037  0.2245 -1.1723
  282MOL0     H37171   3.971   9.224   7.410  0.5725  0.6775  0.0573
  282MOL0     H37172   4.040   9.145   7.276 -0.2818 -0.3145  2.3704
  282MOL0     H37173   3.830   9.363   7.276  0.8571 -0.1064  2.6123
  282MOL0     H37174   3.887   9.265   7.121 -1.9640 -2.6516 -0.3239
  282MOL0     H37175   3.750   9.153   7.372 -1.1326 -1.2948 -0.7708
  282MOL0     H37176   3.789   9.061   7.223 -3.3450 -1.5910 -0.9269
  282MOL0     H37177   3.581   9.066   7.061  2.9952 -0.0411  0.6906
  282MOL0     H37178   3.396   9.196   6.898  0.6787  1.4434  0.0571
  282MOL0     H37179   3.382   9.349   6.940  1.4472 -0.8893 -1.4923
  282MOL0     H37180   3.149   9.309   6.981  2.6165  1.7856 -0.3007
  282MOL0     H37181   3.224   9.277   7.128 -2.2916  2.9494 -0.9812
  282MOL0     H37182   3.247   9.020   7.015  0.9645 -0.2366  2.3881
  282MOL0     H37183   3.122   9.067   7.121  0.6807  1.9448  1.9221
  282MOL0     H37184   3.034   8.952   6.938 -0.9436  0.3376  1.6099
  282MOL0     H37185   3.110   9.069   6.824 -0.1824 -1.4976 -0.0229
  282MOL0     H37186   2.783   9.286   6.791 -0.0906  0.2477  0.1783
  282MOL0     H37187   2.561   9.207   6.680  1.7994 -0.2696 -1.6864
  282MOL0     H37188   2.095   9.201   6.777 -5.0055  0.9492  0.5422
  282MOL0     H37189   1.880   9.128   6.676 -0.1919  1.1081 -0.2878
  282MOL0     H37190   1.888   8.815   6.384 -0.4430  0.8389  3.4646
  282MOL0     H37191   1.870   8.934   6.257  0.9388  0.6128  0.2554
  282MOL0     H37192   1.614   8.958   6.346 -2.2213 -1.5132  3.0658
  282MOL0     H37193   1.647   8.820   6.443  0.1729  0.4697  0.3929
  282MOL0     H37194   1.752   8.704   6.234  2.2879  2.2103  0.9825
  282MOL0     H37195   1.684   8.826   6.142 -0.5269 -0.5211 -0.6737
  282MOL0     H37196   1.503   8.650   6.325 -1.0536 -2.5368 -1.6245
  282MOL0     H37197   1.450   8.771   6.220 -2.4077 -3.3203 -0.8274
  282MOL0     H37198   1.581   8.504   6.132 -1.7351 -0.5019 -0.4712
  282MOL0     H37199   1.559   8.636   6.022 -1.0538 -1.9083 -1.3287
  282MOL0     H37200   1.332   8.635   6.028  1.0985 -0.5805 -1.4924
  282MOL0     H37201   1.326   8.555   6.192 -3.9712 -0.1322 -1.5742
  282MOL0     H37202   1.422   8.358   6.089 -0.3287 -0.7272  1.1630
  282MOL0     H37203   1.263   8.399   6.004  1.1944 -1.0351 -0.4190
  282MOL0     H37204   1.543   8.455   5.884 -1.3543  1.6334  1.5435
  282MOL0     H37205   1.385   8.499   5.809 -0.9201 -4.1987 -3.8523
  282MOL0     H37206   2.095   8.940   6.354 -1.3718 -0.3866  1.0997
  282MOL0     H37207   2.306   8.983   6.471 -1.1362 -2.5141 -0.5284
  282MOL0     H37208   2.613   8.825   6.880  0.3983  0.1261  2.9486
  282MOL0     H37209   2.832   8.903   6.960  0.2114 -0.5328 -0.0140
  282MOL0     H37210   4.555   9.678   7.209  0.6938  0.1322 -0.2792
  282MOL0     H37211   4.707   9.618   7.042 -2.3628 -2.3691  0.5781
  282MOL0     H37212   5.175   9.822   6.872  0.8714 -0.0681 -2.1829
  282MOL0     H37213   5.380   9.790   6.765 -0.2951 -0.7405 -0.0181
  282MOL0     H37214   5.520   9.655   6.582  0.8414 -0.0220  1.3329
  282MOL0     H37215   5.646   9.543   6.595  0.2560  1.2880 -1.1101
  282MOL0     H37216   5.637   9.791   6.775 -2.9671  0.5060 -1.5330
  282MOL0     H37217   5.773   9.676   6.721 -2.2577 -3.1749 -0.2895
  282MOL0     H37218   5.615   9.876   6.570  0.2470 -0.9657  1.7085
  282MOL0     H37219   5.729   9.763   6.478  3.5727  1.2425  1.6438
  282MOL0     H37220   5.850   9.963   6.496  0.6432 -1.4109 -1.3897
  282MOL0     H37221   5.802   9.979   6.673  2.8311  1.5117  0.3475
  282MOL0     H37222   6.131   9.708   6.654 -1.7495 -1.5016  2.0242
  282MOL0     H37223   5.401   9.380   6.922  0.5720  0.9027 -0.6644
  282MOL0     H37224   5.188   9.422   7.036 -2.5543  0.1540  0.0907
  283MOL0     O37225   0.961  10.956  10.080 -0.7031  0.0774 -0.4223
  283MOL0     C37226   1.007  11.071  10.062  1.5082 -0.5971 -0.6656
  283MOL0     O37227   0.936  11.185  10.079  0.7744 -0.2857 -0.3694
  283MOL0     C37228   0.815  11.178  10.138 -0.2937 -0.1280  0.4854
  283MOL0     C37229   0.793  11.259  10.249 -0.0533  0.6450  0.4670
  283MOL0     C37230   0.677  11.254  10.329 -0.1023 -0.3897  0.0747
  283MOL0     C37231   0.573  11.178  10.285  0.7866  1.2624  0.8972
  283MOL0     O37232   0.457  11.157  10.362 -0.5272  0.4174 -0.1805
  283MOL0     C37233   0.324  11.184  10.304  0.9027  0.6435 -0.3772
  283MOL0     C37234   0.268  11.053  10.269 -0.4115 -1.0469  0.1957
  283MOL0     C37235   0.118  11.046  10.281  0.3968 -0.1056 -0.6449
  283MOL0     C37236   0.049  11.056  10.415 -0.2467  0.0423  0.1287
  283MOL0     C37237  -0.075  10.961  10.414 -0.6635  0.0516  0.1386
  283MOL0     C37238  -0.157  10.974  10.545 -0.4722 -0.4172  0.6910
  283MOL0     C37239  -0.282  10.882  10.557  0.1100 -0.2041  0.2978
  283MOL0     C37240  -0.396  10.908  10.455 -0.3408  0.0238  0.4641
  283MOL0     N37241  -0.498  10.810  10.480 -0.2582  0.2728  0.0133
  283MOL0     C37242  -0.629  10.843  10.504  0.1074 -0.3295  0.4253
  283MOL0     C37243  -0.699  10.722  10.480  0.6106 -0.2025 -0.8702
  283MOL0     C37244  -0.856  10.715  10.483 -0.2687  1.0376  0.7104
  283MOL0     C37245  -0.908  10.591  10.400 -0.0854 -0.5874 -0.1770
  283MOL0     C37246  -1.060  10.605  10.379 -0.1357 -0.2185 -0.1846
  283MOL0     C37247  -1.110  10.545  10.253  0.4356 -0.0333 -0.2862
  283MOL0     O37248  -1.251  10.561  10.273  0.0527 -0.3144  0.5306
  283MOL0     C37249  -1.342  10.510  10.179  0.4913  0.7570  0.2502
  283MOL0     C37250  -1.306  10.424  10.069 -0.3506 -0.5129 -0.0762
  283MOL0     C37251  -1.405  10.368   9.990 -0.4930  0.2462 -0.2865
  283MOL0     C37252  -1.544  10.398  10.010  0.1285  0.1643 -0.6531
  283MOL0     C37253  -1.648  10.327   9.935 -0.2810  1.1839  0.0064
  283MOL0     O37254  -1.770  10.298  10.001 -0.8129  0.5387  0.0653
  283MOL0     C37255  -1.877  10.268   9.921  0.2242 -0.1491 -0.2201
  283MOL0     C37256  -1.906  10.344   9.804  1.3973  0.2155  0.0365
  283MOL0     C37257  -2.016  10.286   9.728  0.0596  0.0277  0.2973
  283MOL0     C37258  -2.093  10.179   9.770  0.2660  0.0682 -0.3786
  283MOL0     O37259  -2.197  10.132   9.688 -0.1077 -0.1858  0.5347
  283MOL0     C37260  -2.155  10.061   9.568 -1.4428 -0.5191  0.0157
  283MOL0     C37261  -2.274  10.023   9.490 -0.6223  0.0152 -0.1290
  283MOL0     C37262  -2.388   9.963   9.573 -0.0220 -0.7757  0.0492
  283MOL0     C37263  -2.513   9.928   9.497 -0.0437  0.3228 -0.1219
  283MOL0     C37264  -2.489   9.839   9.372 -0.7424 -0.1750 -0.7105
  283MOL0     C37265  -2.626   9.793   9.322 -0.2012 -0.0248 -0.6171
  283MOL0     C37266  -2.620   9.726   9.182  0.6006 -0.0315 -0.6812
  283MOL0     C37267  -2.754   9.669   9.140  0.5785 -0.3553 -0.2057
  283MOL0    Cl37268  -2.764   9.631   8.961  0.4035  0.3493 -0.4996
  283MOL0     C37269  -2.070  10.119   9.898 -0.1794 -0.3824  0.1875
  283MOL0     C37270  -1.957  10.164   9.976 -0.0717  0.3031  0.6859
  283MOL0     O37271  -1.623  10.307   9.811  0.7389 -0.1223 -0.4153
  283MOL0     C37272  -1.575  10.484  10.120  0.2836  0.7822 -0.1410
  283MOL0     C37273  -1.476  10.534  10.205  0.9527  0.1741 -0.3746
  283MOL0     N37274  -0.605  10.624  10.451 -0.6160 -0.5657  0.3164
  283MOL0     N37275  -0.489  10.678  10.441  0.1951 -1.3496  1.4618
  283MOL0     C37276   0.587  11.110  10.159  1.1548  0.1052  0.1603
  283MOL0     C37277   0.709  11.109  10.093 -0.5192  0.0222  0.4064
  283MOL0     C37278   1.144  11.091  10.005  0.0899  0.6964 -1.2811
  283MOL0     C37279   1.200  11.214   9.977  0.7370  0.0546  0.8015
  283MOL0     C37280   1.328  11.236   9.933 -0.4447 -0.4239 -0.3505
  283MOL0     C37281   1.414  11.122   9.929 -0.4911  0.3643  0.4320
  283MOL0     O37282   1.529  11.144   9.861 -0.3218 -0.2690  0.3672
  283MOL0     C37283   1.621  11.029   9.856 -0.6802  0.1086 -0.7406
  283MOL0     C37284   1.761  11.061   9.808 -0.2103 -0.4601  0.1552
  283MOL0     C37285   1.849  11.136   9.915  0.2352 -0.1136  0.2211
  283MOL0     C37286   1.918  11.048  10.025 -0.3270 -0.6031  0.2486
  283MOL0     C37287   1.819  11.016  10.127  0.5885 -0.0929  0.5155
  283MOL0     C37288   1.729  10.986  10.204  0.1653 -0.4067 -0.8184
  283MOL0     C37289   1.362  10.994   9.962 -0.3400  0.3844  0.5317
  283MOL0     C37290   1.234  10.979   9.999 -0.1851 -0.4285  0.1742
  283MOL0     H37291   0.881  11.308  10.291  2.5774 -2.2711 -1.1852
  283MOL0     H37292   0.680  11.300  10.427 -1.1567 -0.5094  0.1707
  283MOL0     H37293   0.310  11.263  10.230 -2.7270  0.4425 -0.0765
  283MOL0     H37294   0.268  11.224  10.389  0.4137  1.3280 -1.0099
  283MOL0     H37295   0.316  10.971  10.324 -0.6206 -2.0356 -1.0350
  283MOL0     H37296   0.306  11.032  10.168  1.9709 -0.3544  0.8846
  283MOL0     H37297   0.084  10.950  10.240 -0.9067 -0.7036  1.7014
  283MOL0     H37298   0.068  11.112  10.209 -0.0652  0.3010  0.0363
  283MOL0     H37299   0.116  11.015  10.492 -1.0764  3.0025  2.6152
  283MOL0     H37300   0.021  11.157  10.447 -1.0161 -0.8736  2.5927
  283MOL0     H37301  -0.049  10.856  10.395  1.8628  0.9372 -1.6956
  283MOL0     H37302  -0.144  10.990  10.334 -1.0429 -0.5658  0.2327
  283MOL0     H37303  -0.203  11.073  10.534  0.9471  0.1590 -0.4499
  283MOL0     H37304  -0.100  10.967  10.637  1.4217  2.1410 -0.1912
  283MOL0     H37305  -0.248  10.780  10.541 -1.0154 -0.8175  1.6141
  283MOL0     H37306  -0.319  10.888  10.660 -1.4996  2.7890 -0.3305
  283MOL0     H37307  -0.369  10.907  10.349 -1.2773 -0.5012  0.2245
  283MOL0     H37308  -0.444  11.004  10.479  0.2773  0.9988 -1.8564
  283MOL0     H37309  -0.679  10.938  10.517  0.9199 -0.0601  1.7198
  283MOL0     H37310  -0.876  10.814  10.442  0.9735  1.2910  0.6676
  283MOL0     H37311  -0.887  10.710  10.588 -1.6977  2.4547  0.4017
  283MOL0     H37312  -0.892  10.504  10.465  0.2458 -0.9112 -0.6769
  283MOL0     H37313  -0.859  10.584  10.302  2.2535  0.6033  0.8444
  283MOL0     H37314  -1.104  10.553  10.464 -0.6600 -2.7714 -1.9127
  283MOL0     H37315  -1.080  10.712  10.367  2.9872  0.4830 -0.2142
  283MOL0     H37316  -1.081  10.439  10.259  1.1869  0.2289  0.9646
  283MOL0     H37317  -1.072  10.593  10.162 -1.9935 -0.5693 -1.7030
  283MOL0     H37318  -1.202  10.397  10.053 -0.1112 -1.0136  2.1067
  283MOL0     H37319  -1.381  10.309   9.902  0.8840  2.9059 -1.8208
  283MOL0     H37320  -1.841  10.428   9.780  1.5469  0.7097  1.9749
  283MOL0     H37321  -2.015  10.321   9.625  3.2860 -2.5120 -0.7042
  283MOL0     H37322  -2.095   9.976   9.603 -0.3629  0.3244  0.2694
  283MOL0     H37323  -2.095  10.126   9.504  0.0757  1.0842  2.8746
  283MOL0     H37324  -2.249   9.956   9.407  1.0452  0.8200 -0.3210
  283MOL0     H37325  -2.309  10.118   9.449  1.2898  1.2611  0.9450
  283MOL0     H37326  -2.413  10.043   9.643 -1.4247  2.3642 -3.6503
  283MOL0     H37327  -2.350   9.871   9.618 -0.4263 -0.3009  1.4052
  283MOL0     H37328  -2.583   9.886   9.570 -0.7761  1.9513  0.1485
  283MOL0     H37329  -2.556  10.020   9.457 -1.1123 -1.1759 -2.7366
  283MOL0     H37330  -2.430   9.753   9.405 -0.9894 -0.0398  0.0921
  283MOL0     H37331  -2.422   9.893   9.304  1.6402 -3.5288 -1.2725
  283MOL0     H37332  -2.686   9.884   9.317  3.2036  2.3601 -1.9420
  283MOL0     H37333  -2.671   9.721   9.391 -0.0268 -0.0932 -0.5723
  283MOL0     H37334  -2.586   9.795   9.104  0.9958  0.1315 -0.3709
  283MOL0     H37335  -2.556   9.637   9.180  1.2038  0.3875 -0.4470
  283MOL0     H37336  -2.832   9.742   9.164  2.9593  1.8962  1.2416
  283MOL0     H37337  -2.777   9.575   9.191 -0.0083 -1.7283 -2.8309
  283MOL0     H37338  -2.142  10.042   9.922 -3.6448  2.0823 -1.2717
  283MOL0     H37339  -1.922  10.122  10.070  3.6127  0.7568 -0.3167
  283MOL0     H37340  -1.679  10.501  10.146 -0.1815 -1.4130 -0.3529
  283MOL0     H37341  -1.516  10.595  10.285 -1.3321 -0.5375 -0.9025
  283MOL0     H37342   0.510  11.044  10.120  2.2783  0.2528 -2.5043
  283MOL0     H37343   0.717  11.046  10.005  3.6367  2.1320 -0.9937
  283MOL0     H37344   1.146  11.307   9.964  1.9179  0.5295 -1.2573
  283MOL0     H37345   1.367  11.330   9.895 -1.3028  0.7054  1.4631
  283MOL0     H37346   1.583  10.955   9.785  1.8558 -1.1561 -0.8789
  283MOL0     H37347   1.624  10.980   9.954 -0.5200  0.7024 -0.4431
  283MOL0     H37348   1.808  10.968   9.773 -0.9620 -0.5861 -0.5476
  283MOL0     H37349   1.767  11.123   9.718 -1.0718 -1.5927 -0.7131
  283MOL0     H37350   1.777  11.205   9.959  0.3151  0.1506 -0.0596
  283MOL0     H37351   1.923  11.189   9.854  1.7926 -2.7985 -0.3650
  283MOL0     H37352   1.959  10.959   9.976  0.6132 -0.5088  0.8561
  283MOL0     H37353   1.992  11.107  10.079  2.3366 -1.4936 -2.1721
  283MOL0     H37354   1.650  10.952  10.269 -0.5281 -1.2090 -2.0250
  283MOL0     H37355   1.422  10.904   9.954 -0.8903  0.0204  0.4497
  283MOL0     H37356   1.191  10.883  10.026 -0.9163  0.0391  0.7263
  284MOL0     O37357  11.004   0.854  10.682 -0.1930  0.7097  0.5818
  284MOL0     C37358  11.023   0.969  10.643  0.2391 -1.1311  0.1694
  284MOL0     O37359  10.930   1.074  10.634  0.3387  0.1815  0.5698
  284MOL0     C37360  10.804   1.039  10.680 -0.8598 -0.4024  0.8955
  284MOL0     C37361  10.764   1.047  10.816 -0.1785  0.2185  0.3095
  284MOL0     C37362  10.640   1.007  10.857 -0.1497  0.1666  0.3949
  284MOL0     C37363  10.552   0.951  10.764  0.2632 -0.9722 -0.0982
  284MOL0     O37364  10.420   0.939  10.817 -1.3373  0.5969  0.1736
  284MOL0     C37365  10.318   0.970  10.727  0.4110 -0.4423 -0.2264
  284MOL0     C37366  10.180   0.968  10.796  0.2582  1.3649 -0.2532
  284MOL0     C37367  10.139   0.836  10.847  0.4452  0.3549 -0.5263
  284MOL0     C37368   9.993   0.839  10.901 -0.2489 -0.1596  0.4239
  284MOL0     C37369   9.943   0.688  10.908 -0.0715 -0.0879  0.7186
  284MOL0     C37370   9.799   0.690  10.960 -0.2174 -0.0193 -0.0953
  284MOL0     C37371   9.751   0.544  10.996 -0.6671 -0.1889 -0.0629
  284MOL0     C37372   9.731   0.449  10.884  0.0173 -0.8006  0.3782
  284MOL0     N37373   9.852   0.380  10.842  0.8980  0.0873  0.0684
  284MOL0     C37374   9.922   0.289  10.915  1.2387  0.2351  0.8894
  284MOL0     C37375  10.025   0.274  10.838  0.1862  0.3108  0.5641
  284MOL0     C37376  10.148   0.210  10.890  0.0667  0.7865 -0.9380
  284MOL0     C37377  10.212   0.295  10.997  0.0209 -1.4513 -1.0040
  284MOL0     C37378  10.277   0.429  10.952  0.1234  0.0822 -0.0297
  284MOL0     C37379  10.356   0.504  11.068  1.1192  0.0015 -0.0501
  284MOL0     O37380  10.458   0.601  11.023  1.1564  0.1767  0.4608
  284MOL0     C37381  10.583   0.595  11.074  0.1860  0.7628 -0.0246
  284MOL0     C37382  10.609   0.576  11.214  0.7552 -0.6657  0.3967
  284MOL0     C37383  10.734   0.562  11.269  0.9916  0.3345 -0.1763
  284MOL0     C37384  10.843   0.572  11.180  0.4397  0.5695 -1.0184
  284MOL0     C37385  10.977   0.555  11.238 -0.2974  0.2357 -0.0311
  284MOL0     O37386  11.084   0.593  11.166 -0.1008 -0.2079  0.1339
  284MOL0     C37387  11.210   0.550  11.215 -0.2494 -0.8500  0.5042
  284MOL0     C37388  11.252   0.417  11.193 -0.0552  0.4560 -0.3009
  284MOL0     C37389  11.378   0.366  11.223 -0.1449 -0.1163 -0.7647
  284MOL0     C37390  11.470   0.447  11.297  0.7184  0.2995 -0.3627
  284MOL0     O37391  11.584   0.375  11.332 -0.4034  0.1702 -0.1043
  284MOL0     C37392  11.678   0.441  11.423 -0.5606 -0.1420 -0.5180
  284MOL0     C37393  11.766   0.351  11.516  0.3693 -0.6604  0.8327
  284MOL0     C37394  11.852   0.424  11.618 -0.2183 -0.1866 -0.0932
  284MOL0     C37395  11.955   0.521  11.554 -0.2558 -0.6533  0.1429
  284MOL0     C37396  12.018   0.609  11.664  0.1501  0.1531  0.4032
  284MOL0     C37397  12.098   0.719  11.599  0.1094 -0.7325  0.4459
  284MOL0     C37398  12.155   0.811  11.706 -0.1198  0.6549 -1.1254
  284MOL0     C37399  12.192   0.944  11.637 -0.2192  0.4642 -0.5095
  284MOL0    Cl37400  12.327   0.936  11.519  0.5201 -0.2096 -0.0919
  284MOL0     C37401  11.427   0.581  11.332 -0.4871  0.1849  0.1970
  284MOL0     C37402  11.299   0.629  11.290 -0.1787 -0.1941 -0.0434
  284MOL0     O37403  10.978   0.475  11.331 -0.7581 -0.0212 -0.2882
  284MOL0     C37404  10.823   0.588  11.048 -0.5159 -0.8958  0.2857
  284MOL0     C37405  10.693   0.612  10.993  0.2602  0.9279 -0.4854
  284MOL0     N37406  10.007   0.334  10.716  0.9194 -0.0334  0.2325
  284MOL0     N37407   9.895   0.401  10.715  0.5255  1.0419  0.1748
  284MOL0     C37408  10.592   0.940  10.627  1.0685  0.3348 -0.7944
  284MOL0     C37409  10.704   1.002  10.587 -0.6271 -0.0239  0.0532
  284MOL0     C37410  11.170   1.002  10.618  0.1344 -0.8676 -0.3291
  284MOL0     C37411  11.275   0.910  10.631  0.2173 -0.1773 -1.0112
  284MOL0     C37412  11.408   0.938  10.589 -0.0243 -0.4535 -1.1471
  284MOL0     C37413  11.444   1.060  10.534  0.8269  0.1044 -1.0005
  284MOL0     O37414  11.573   1.080  10.500 -0.1994 -0.1899  0.1691
  284MOL0     C37415  11.598   1.158  10.375  0.3935  0.3052 -0.6990
  284MOL0     C37416  11.629   1.313  10.391  0.0920 -0.1563  0.2815
  284MOL0     C37417  11.645   1.373  10.244  1.0093  0.2723  0.0607
  284MOL0     C37418  11.710   1.515  10.231 -0.1500 -0.0514  0.6421
  284MOL0     C37419  11.617   1.620  10.247 -0.5441 -0.0954  0.2495
  284MOL0     C37420  11.531   1.707  10.249 -0.2026  0.9548  0.4561
  284MOL0     C37421  11.344   1.162  10.535 -0.4529 -0.8055  0.9947
  284MOL0     C37422  11.214   1.127  10.575  0.5173 -0.1891 -0.2962
  284MOL0     H37423  10.830   1.091  10.891 -0.8196  2.3529 -0.3029
  284MOL0     H37424  10.611   1.005  10.962 -1.4821  1.1584  0.0578
  284MOL0     H37425  10.310   0.902  10.642 -0.2606 -1.2687  0.4896
  284MOL0     H37426  10.333   1.072  10.690  1.5830 -0.8674 -0.9766
  284MOL0     H37427  10.107   0.992  10.719 -2.6608 -0.4575  1.7345
  284MOL0     H37428  10.168   1.034  10.882 -1.6193 -1.3311  1.7339
  284MOL0     H37429  10.199   0.799  10.931 -0.1894 -1.2818 -0.7651
  284MOL0     H37430  10.141   0.754  10.775  1.1659 -0.7221  0.6862
  284MOL0     H37431   9.985   0.883  11.001 -1.2371  0.7415 -0.0267
  284MOL0     H37432   9.928   0.893  10.832 -3.2100 -0.3627  2.7936
  284MOL0     H37433  10.017   0.630  10.964  0.2245 -0.4597 -0.0528
  284MOL0     H37434   9.951   0.652  10.806 -1.1324 -2.7504  1.5074
  284MOL0     H37435   9.734   0.736  10.885  0.1860 -0.9472 -1.0467
  284MOL0     H37436   9.804   0.762  11.042  3.4625 -0.1512 -0.0577
  284MOL0     H37437   9.827   0.498  11.060  1.6604  1.4343 -1.4627
  284MOL0     H37438   9.653   0.554  11.043 -0.2866 -0.9480  0.9372
  284MOL0     H37439   9.692   0.508  10.801  1.1133  1.6625  1.5003
  284MOL0     H37440   9.658   0.377  10.923  0.8169 -0.8813  1.8134
  284MOL0     H37441   9.900   0.256  11.016 -1.0904  2.3119  1.1464
  284MOL0     H37442  10.222   0.193  10.811 -0.3460  1.5512 -1.4981
  284MOL0     H37443  10.104   0.120  10.934 -1.7923  1.6080 -1.0010
  284MOL0     H37444  10.292   0.233  11.039 -0.4694 -1.4898 -0.1220
  284MOL0     H37445  10.145   0.305  11.082  2.1424 -2.9149  0.9575
  284MOL0     H37446  10.347   0.403  10.871  1.3314  0.3379  0.9029
  284MOL0     H37447  10.202   0.489  10.899 -1.6248 -2.4067 -0.5589
  284MOL0     H37448  10.408   0.431  11.131  0.9397  2.4058  3.1179
  284MOL0     H37449  10.288   0.556  11.137  1.0938  0.0724 -0.1278
  284MOL0     H37450  10.519   0.598  11.270 -0.5642  3.1818 -2.7227
  284MOL0     H37451  10.741   0.572  11.376  0.9413  0.2835 -0.1687
  284MOL0     H37452  11.194   0.350  11.129 -0.6526 -0.3317  1.0298
  284MOL0     H37453  11.414   0.271  11.185  0.7745 -0.7520  1.5842
  284MOL0     H37454  11.629   0.508  11.495 -1.4446 -2.7506  1.4425
  284MOL0     H37455  11.733   0.513  11.362 -0.6531  0.9804  0.6690
  284MOL0     H37456  11.829   0.289  11.452  0.1366 -0.5107  0.4600
  284MOL0     H37457  11.705   0.280  11.572 -2.3446  0.4800 -0.5252
  284MOL0     H37458  11.896   0.350  11.685 -0.0530 -0.0140 -0.0096
  284MOL0     H37459  11.782   0.478  11.683  1.4464  0.1826  1.4990
  284MOL0     H37460  12.038   0.458  11.518 -1.0285 -1.7394  0.2077
  284MOL0     H37461  11.906   0.577  11.474 -0.8034  0.7853  1.4479
  284MOL0     H37462  12.087   0.557  11.729 -0.9234 -0.1670  1.3161
  284MOL0     H37463  11.941   0.653  11.729 -0.1767  0.6589 -0.3026
  284MOL0     H37464  12.029   0.764  11.527  1.4555  0.1611 -0.3268
  284MOL0     H37465  12.182   0.675  11.545  0.1844 -1.0892  0.8524
  284MOL0     H37466  12.083   0.830  11.785  0.1058 -0.7066 -0.5681
  284MOL0     H37467  12.238   0.754  11.749 -0.4958 -0.0940 -1.3808
  284MOL0     H37468  12.228   1.009  11.718  1.5197 -0.6614 -0.3182
  284MOL0     H37469  12.108   0.990  11.585 -2.0004 -1.8413  0.1683
  284MOL0     H37470  11.490   0.650  11.387  4.1950 -2.0070 -1.7985
  284MOL0     H37471  11.277   0.730  11.325  1.8645 -0.9733  4.1868
  284MOL0     H37472  10.907   0.590  10.979  1.2645  1.9944  2.3300
  284MOL0     H37473  10.678   0.638  10.888  3.0466  3.4042 -0.4001
  284MOL0     H37474  10.522   0.905  10.552 -1.3966  0.5056  1.2893
  284MOL0     H37475  10.730   1.009  10.482 -0.3824  0.2651  0.1325
  284MOL0     H37476  11.237   0.811  10.654  0.8189 -0.2746 -0.3970
  284MOL0     H37477  11.479   0.855  10.589  0.0798 -0.3698 -0.4285
  284MOL0     H37478  11.507   1.144  10.316  0.4918  3.5140 -1.8075
  284MOL0     H37479  11.683   1.113  10.321  0.0230 -0.2611 -0.8232
  284MOL0     H37480  11.555   1.361  10.455  0.1984  0.4601 -0.0475
  284MOL0     H37481  11.726   1.327  10.440  0.9190 -3.7597 -0.0513
  284MOL0     H37482  11.546   1.390  10.200  0.5281  0.2987  1.1192
  284MOL0     H37483  11.698   1.302  10.180 -0.6062 -1.4021  0.4894
  284MOL0     H37484  11.796   1.521  10.299  0.8428  0.4086 -0.6075
  284MOL0     H37485  11.753   1.536  10.133 -2.1160  1.0469 -0.0427
  284MOL0     H37486  11.466   1.791  10.241 -2.5129 -0.7853 -0.2480
  284MOL0     H37487  11.367   1.265  10.508 -1.8398 -0.9850 -1.1403
  284MOL0     H37488  11.135   1.202  10.582 -0.2594 -1.1148  1.7626
  285MOL0     O37489   6.349   7.068   0.026  0.1783  0.5518 -0.4635
  285MOL0     C37490   6.395   7.098  -0.085  0.2380 -0.1012 -0.0859
  285MOL0     O37491   6.332   7.163  -0.182 -0.1227 -1.0688  0.6499
  285MOL0     C37492   6.200   7.175  -0.170  0.1029 -0.0049  0.4397
  285MOL0     C37493   6.113   7.081  -0.111  0.8106  0.0209  0.3070
  285MOL0     C37494   5.980   7.116  -0.087 -0.0186  0.4420  0.3561
  285MOL0     C37495   5.924   7.239  -0.123 -0.2109 -0.3173  0.0295
  285MOL0     O37496   5.794   7.267  -0.099  0.0403  0.0262 -0.3152
  285MOL0     C37497   5.749   7.398  -0.134  1.3215  0.0377 -0.0610
  285MOL0     C37498   5.604   7.417  -0.092  0.3187  0.0917 -0.7300
  285MOL0     C37499   5.610   7.437   0.059  0.0235  0.8678  0.3820
  285MOL0     C37500   5.470   7.419   0.122  0.4166 -0.2958  0.2055
  285MOL0     C37501   5.390   7.549   0.091  0.1515  0.2961 -0.6325
  285MOL0     C37502   5.246   7.535   0.172  0.1892 -0.0849  0.2130
  285MOL0     C37503   5.138   7.616   0.082  0.5723  0.9235 -0.2299
  285MOL0     C37504   5.002   7.609   0.164  0.0003  0.0118  0.2991
  285MOL0     N37505   4.958   7.469   0.174 -0.0043  0.2874  0.3822
  285MOL0     C37506   4.975   7.383   0.279 -0.4286 -0.3569  0.4211
  285MOL0     C37507   4.888   7.277   0.262  0.0658 -0.5821 -0.5210
  285MOL0     C37508   4.892   7.139   0.333 -0.3682 -0.0698  0.0996
  285MOL0     C37509   4.754   7.121   0.410  0.0926  0.3696  0.6710
  285MOL0     C37510   4.648   7.083   0.301  0.7259 -0.2201 -0.0848
  285MOL0     C37511   4.500   7.071   0.344  0.0454  0.1119 -0.2008
  285MOL0     O37512   4.480   6.967   0.437 -0.8811 -0.0329  0.3176
  285MOL0     C37513   4.350   6.926   0.461 -0.0899  0.7940 -0.3282
  285MOL0     C37514   4.242   7.017   0.456 -0.0277  0.5069 -0.3713
  285MOL0     C37515   4.118   6.968   0.495  0.2383  0.0703 -0.2433
  285MOL0     C37516   4.085   6.829   0.521  0.3838 -0.9392  0.3603
  285MOL0     C37517   3.945   6.781   0.541 -0.2083  0.4693  0.6390
  285MOL0     O37518   3.934   6.649   0.535 -0.0244  0.3868 -1.1362
  285MOL0     C37519   3.805   6.596   0.521 -0.2266 -0.9230 -0.4454
  285MOL0     C37520   3.708   6.654   0.430 -0.5739  1.5555 -0.1463
  285MOL0     C37521   3.591   6.584   0.396 -0.4546  0.7105 -0.2103
  285MOL0     C37522   3.570   6.456   0.453 -0.1124 -0.9436  0.9602
  285MOL0     O37523   3.470   6.372   0.413  0.1882 -0.8592  0.1302
  285MOL0     C37524   3.337   6.416   0.418  1.0496 -0.3060 -0.3644
  285MOL0     C37525   3.258   6.312   0.484 -0.8423  0.1351 -0.0145
  285MOL0     C37526   3.291   6.303   0.636 -0.2628 -0.2491  0.3217
  285MOL0     C37527   3.255   6.163   0.681 -0.6216  0.0613  0.5448
  285MOL0     C37528   3.293   6.129   0.830 -0.9869 -0.6835  0.6577
  285MOL0     C37529   3.198   6.186   0.936  0.0541 -0.1049 -0.3637
  285MOL0     C37530   3.050   6.153   0.914 -0.1678 -0.3540  0.7993
  285MOL0     C37531   2.981   6.271   0.841 -0.2187 -0.1201  0.3002
  285MOL0    Cl37532   2.836   6.217   0.756 -0.3478  0.2169  0.0242
  285MOL0     C37533   3.668   6.406   0.541 -0.3535 -0.1987 -0.2914
  285MOL0     C37534   3.777   6.466   0.579 -0.0698 -0.3976  0.3762
  285MOL0     O37535   3.854   6.861   0.545  0.2095  0.0175  0.6075
  285MOL0     C37536   4.193   6.740   0.515  0.8804 -0.6192 -0.1543
  285MOL0     C37537   4.320   6.788   0.493 -0.3537 -0.3246 -0.0782
  285MOL0     N37538   4.819   7.305   0.145 -0.1697  0.1916 -0.9397
  285MOL0     N37539   4.853   7.424   0.102 -0.4646 -0.8232  0.0012
  285MOL0     C37540   6.008   7.321  -0.188 -0.4757 -0.0448 -0.0487
  285MOL0     C37541   6.141   7.296  -0.210  0.0549  0.8897  0.3851
  285MOL0     C37542   6.531   7.042  -0.121 -0.0955 -0.3089  0.0719
  285MOL0     C37543   6.601   7.088  -0.240  0.5066  0.3185 -0.0984
  285MOL0     C37544   6.731   7.049  -0.265 -0.8785 -0.3194 -0.3289
  285MOL0     C37545   6.790   6.948  -0.191  0.0895 -0.2895  0.0439
  285MOL0     O37546   6.893   6.874  -0.231  0.0249 -0.2043 -0.0872
  285MOL0     C37547   7.004   6.935  -0.299  0.8404  0.6269  0.1024
  285MOL0     C37548   7.095   7.020  -0.210 -0.1296 -0.2464 -0.0080
  285MOL0     C37549   7.224   7.030  -0.289 -0.1553 -0.3755  0.8033
  285MOL0     C37550   7.315   7.143  -0.242  0.0173 -0.3067  0.1419
  285MOL0     C37551   7.426   7.163  -0.331 -0.3131 -0.6868 -0.3735
  285MOL0     C37552   7.533   7.179  -0.378 -0.1939 -0.1106 -0.1318
  285MOL0     C37553   6.725   6.900  -0.077 -0.0966 -0.1958 -0.1205
  285MOL0     C37554   6.600   6.958  -0.035  0.7675 -0.7801  0.2083
  285MOL0     H37555   6.155   6.991  -0.069  1.5761  0.0181 -0.4388
  285MOL0     H37556   5.913   7.039  -0.050 -1.3320  1.3787  0.0049
  285MOL0     H37557   5.753   7.419  -0.241 -1.0670  0.7157 -0.0669
  285MOL0     H37558   5.824   7.467  -0.093 -0.3986  2.9109 -1.4937
  285MOL0     H37559   5.541   7.334  -0.124 -0.6445  0.9784 -1.2056
  285MOL0     H37560   5.566   7.510  -0.136  0.2902  1.3900  1.8413
  285MOL0     H37561   5.646   7.536   0.086  0.8180  0.6928 -0.0020
  285MOL0     H37562   5.683   7.363   0.092 -0.1204  0.7899  0.5279
  285MOL0     H37563   5.420   7.326   0.094 -2.3682  0.6587  1.6200
  285MOL0     H37564   5.487   7.413   0.230  0.4498  1.2155  0.3083
  285MOL0     H37565   5.373   7.562  -0.017  1.9679 -0.6264 -1.0621
  285MOL0     H37566   5.449   7.631   0.131  0.2815 -0.5333  0.9375
  285MOL0     H37567   5.240   7.575   0.274 -4.9794  0.2179  0.0323
  285MOL0     H37568   5.228   7.427   0.183  1.5507 -0.3313  0.1974
  285MOL0     H37569   5.168   7.719   0.066  0.9532  0.4293 -3.3517
  285MOL0     H37570   5.124   7.576  -0.019 -0.4231  0.1564  0.1945
  285MOL0     H37571   4.918   7.663   0.120  1.4345  0.5405 -1.9741
  285MOL0     H37572   5.021   7.646   0.265  0.5866  3.8535 -1.0471
  285MOL0     H37573   5.058   7.392   0.348  1.4486  1.3789 -1.9110
  285MOL0     H37574   4.969   7.145   0.411  1.3293  1.7406 -1.6185
  285MOL0     H37575   4.932   7.066   0.262  3.1032  0.0851  1.6627
  285MOL0     H37576   4.712   7.214   0.448 -1.4774  0.2231 -0.6149
  285MOL0     H37577   4.752   7.042   0.486 -0.0973  0.1942  0.4849
  285MOL0     H37578   4.653   7.154   0.217  2.1936  0.2893  0.4084
  285MOL0     H37579   4.675   6.994   0.244  1.3468  1.2319 -2.2283
  285MOL0     H37580   4.440   7.070   0.253 -1.1901  0.2098  0.5791
  285MOL0     H37581   4.472   7.164   0.396 -1.1896 -0.8492  0.9256
  285MOL0     H37582   4.263   7.122   0.438  0.5274  0.7891  1.6551
  285MOL0     H37583   4.043   7.047   0.489  2.3721  2.1139 -1.5137
  285MOL0     H37584   3.721   6.743   0.368 -1.4933  0.3779 -2.1451
  285MOL0     H37585   3.518   6.630   0.332 -0.3180  0.5218 -0.5025
  285MOL0     H37586   3.293   6.435   0.320 -0.6469 -3.2472 -0.2901
  285MOL0     H37587   3.334   6.503   0.485 -1.7454 -1.5253  1.2629
  285MOL0     H37588   3.269   6.214   0.437  2.7721 -1.3252  3.3485
  285MOL0     H37589   3.157   6.349   0.462  0.1798  2.5303 -1.1157
  285MOL0     H37590   3.229   6.375   0.690  0.0307  0.4858 -0.3067
  285MOL0     H37591   3.395   6.316   0.670 -0.5656 -0.6498  1.4693
  285MOL0     H37592   3.153   6.134   0.656 -0.1675 -3.2397  1.9382
  285MOL0     H37593   3.307   6.098   0.610 -3.6515 -2.0005  0.0427
  285MOL0     H37594   3.389   6.166   0.866 -3.0453  3.8153  2.4068
  285MOL0     H37595   3.300   6.020   0.837  1.0481 -0.6746 -0.5956
  285MOL0     H37596   3.207   6.290   0.968 -1.8310 -0.1098  0.3382
  285MOL0     H37597   3.235   6.129   1.022  3.2685 -1.1971 -2.2965
  285MOL0     H37598   3.031   6.060   0.858 -5.0230  1.9043 -1.9343
  285MOL0     H37599   3.001   6.139   1.011  0.0471 -0.2144  0.9281
  285MOL0     H37600   3.044   6.329   0.773  1.0774 -1.0785  0.6485
  285MOL0     H37601   2.967   6.351   0.915 -1.0648 -2.0541  2.3358
  285MOL0     H37602   3.652   6.303   0.572  1.8823 -0.6474 -0.4373
  285MOL0     H37603   3.841   6.435   0.661  2.8002  0.2165 -1.4880
  285MOL0     H37604   4.169   6.635   0.532 -3.8642 -0.5501 -3.9814
  285MOL0     H37605   4.400   6.715   0.498 -0.2462 -0.2188 -0.2506
  285MOL0     H37606   5.974   7.415  -0.231 -1.7706 -1.2046 -1.6907
  285MOL0     H37607   6.208   7.362  -0.265 -0.9686  3.2784  1.8623
  285MOL0     H37608   6.556   7.158  -0.310 -1.8427 -1.9289 -1.0244
  285MOL0     H37609   6.779   7.100  -0.348  0.0096  1.0079  0.9645
  285MOL0     H37610   6.956   6.999  -0.375  0.2785  1.2149  0.9269
  285MOL0     H37611   7.064   6.860  -0.351  0.4195  0.4801 -0.1770
  285MOL0     H37612   7.050   7.116  -0.179  1.6087 -0.3409  3.2116
  285MOL0     H37613   7.110   6.970  -0.114  0.7351 -0.4600 -0.2527
  285MOL0     H37614   7.209   7.042  -0.397  2.4742  1.2003  0.5355
  285MOL0     H37615   7.276   6.935  -0.274 -3.7037 -3.1768 -2.5848
  285MOL0     H37616   7.252   7.233  -0.247 -0.0553 -0.4026 -1.4680
  285MOL0     H37617   7.354   7.123  -0.143  0.2329  0.2460  0.1739
  285MOL0     H37618   7.622   7.211  -0.429  0.4810 -1.9683 -0.2063
  285MOL0     H37619   6.767   6.824  -0.012 -1.3404 -0.3435  0.5375
  285MOL0     H37620   6.550   6.922   0.055 -1.6299 -1.6360 -1.3699
  286MOL0     O37621   8.555   3.999   2.820  0.0441 -0.3193 -0.3783
  286MOL0     C37622   8.439   4.044   2.807  0.9997  0.8428  1.2712
  286MOL0     O37623   8.373   4.129   2.888  0.1774 -0.0188  0.5757
  286MOL0     C37624   8.438   4.218   2.970  0.3508  1.3378 -0.0585
  286MOL0     C37625   8.364   4.282   3.070  0.0512 -0.0332  0.3396
  286MOL0     C37626   8.414   4.385   3.154  1.3226 -0.1576  0.1097
  286MOL0     C37627   8.548   4.417   3.141  0.1985  0.3645 -0.6693
  286MOL0     O37628   8.585   4.505   3.240 -0.4381 -0.1070 -0.2474
  286MOL0     C37629   8.575   4.445   3.363 -0.0721  0.1373 -0.1086
  286MOL0     C37630   8.669   4.501   3.471  0.4004  0.5765 -1.0351
  286MOL0     C37631   8.807   4.457   3.434  0.2967  0.3975 -0.6481
  286MOL0     C37632   8.915   4.532   3.501  0.3146 -0.4138  0.4997
  286MOL0     C37633   9.050   4.471   3.476 -0.8983 -0.0800 -0.3949
  286MOL0     C37634   9.156   4.551   3.539 -0.1689 -0.1783 -0.3561
  286MOL0     C37635   9.292   4.490   3.503 -0.5689 -1.0429 -0.3905
  286MOL0     C37636   9.388   4.589   3.561  0.0587 -0.0422 -0.5503
  286MOL0     N37637   9.524   4.551   3.562 -0.4658  0.0755 -0.3759
  286MOL0     C37638   9.603   4.505   3.458 -0.2704  0.3037  0.0461
  286MOL0     C37639   9.728   4.519   3.497 -0.2973  0.5998  0.0329
  286MOL0     C37640   9.847   4.467   3.423  0.5207 -0.1432  0.1767
  286MOL0     C37641   9.838   4.318   3.377 -0.2117 -0.7563 -0.3376
  286MOL0     C37642   9.977   4.251   3.360  0.5470  0.2423  0.7766
  286MOL0     C37643   9.983   4.108   3.307  0.0676  0.2693 -0.7782
  286MOL0     O37644   9.866   4.075   3.233  0.6422 -0.2506  0.3032
  286MOL0     C37645   9.871   4.109   3.096  0.3070  0.1319  0.0805
  286MOL0     C37646   9.983   4.167   3.028 -0.5077  0.0162 -1.0945
  286MOL0     C37647   9.975   4.192   2.898  0.3978 -0.5109  0.8005
  286MOL0     C37648   9.866   4.146   2.812 -0.1525 -0.7288  0.2018
  286MOL0     C37649   9.876   4.154   2.661  0.2939  0.7547  0.5314
  286MOL0     O37650   9.787   4.084   2.587  0.4129 -0.1044 -0.3720
  286MOL0     C37651   9.813   4.076   2.450  0.3181 -0.1676  0.8339
  286MOL0     C37652   9.895   3.972   2.405  0.1551 -0.3023 -0.3216
  286MOL0     C37653   9.908   3.955   2.271 -0.2937  0.3652  0.1046
  286MOL0     C37654   9.851   4.032   2.174  0.4639  0.1248 -0.3972
  286MOL0     O37655   9.874   3.995   2.045 -0.8066 -0.0489  0.4501
  286MOL0     C37656   9.815   4.059   1.930 -0.6155 -0.9984  0.3017
  286MOL0     C37657   9.876   3.990   1.807 -0.0121  0.1367  0.2104
  286MOL0     C37658   9.823   4.070   1.682 -0.0517 -0.1229  0.9515
  286MOL0     C37659   9.873   3.988   1.555 -0.5768 -1.3826 -0.8304
  286MOL0     C37660   9.853   4.074   1.434 -0.4122 -0.7069  0.8057
  286MOL0     C37661   9.708   4.070   1.381  0.0558 -0.2400 -0.2221
  286MOL0     C37662   9.683   4.114   1.239 -0.0324  0.7301  0.2313
  286MOL0     C37663   9.549   4.187   1.219 -0.1460  0.0038  1.0220
  286MOL0    Cl37664   9.413   4.073   1.241 -0.0295 -0.2146 -0.0619
  286MOL0     C37665   9.757   4.127   2.217  0.1278  0.8239  0.4564
  286MOL0     C37666   9.741   4.150   2.355 -0.6476 -0.1013  0.4210
  286MOL0     O37667   9.977   4.207   2.621  0.1671  0.1812  1.4168
  286MOL0     C37668   9.760   4.089   2.877 -0.0877  0.7866 -0.1126
  286MOL0     C37669   9.757   4.077   3.013 -0.0876 -0.0631 -0.0135
  286MOL0     N37670   9.726   4.577   3.621  0.1971 -0.0310 -0.0761
  286MOL0     N37671   9.610   4.605   3.650 -0.3727 -0.5171 -1.3116
  286MOL0     C37672   8.629   4.350   3.045  0.0321  0.4714 -0.7922
  286MOL0     C37673   8.575   4.253   2.959  0.2652 -0.2561  0.4897
  286MOL0     C37674   8.361   4.001   2.692 -0.2912  1.0686  0.2874
  286MOL0     C37675   8.402   3.891   2.608 -0.4906 -0.8322  1.2363
  286MOL0     C37676   8.319   3.840   2.505 -0.1079  0.0481  1.6243
  286MOL0     C37677   8.207   3.900   2.465  0.0831  0.6263 -0.1757
  286MOL0     O37678   8.149   3.842   2.361 -0.2323  0.6095  0.1515
  286MOL0     C37679   8.041   3.903   2.282  1.2339 -0.4442  0.1884
  286MOL0     C37680   7.906   3.880   2.348  0.9345  0.5396 -0.8270
  286MOL0     C37681   7.794   3.974   2.296 -0.1939  0.1064  0.1210
  286MOL0     C37682   7.647   3.935   2.342  0.9221 -0.4985  1.0984
  286MOL0     C37683   7.587   3.833   2.256  0.1960  0.5307  0.6956
  286MOL0     C37684   7.547   3.751   2.172 -0.2712 -0.1121 -0.3550
  286MOL0     C37685   8.167   4.017   2.533  0.0556 -0.3942  0.0279
  286MOL0     C37686   8.238   4.052   2.652  0.2655  0.1426 -0.4462
  286MOL0     H37687   8.257   4.266   3.078  0.1134 -2.5929 -2.1522
  286MOL0     H37688   8.338   4.429   3.219  1.4150  0.2337 -0.0518
  286MOL0     H37689   8.589   4.337   3.365  1.7253  0.3142 -0.9832
  286MOL0     H37690   8.470   4.450   3.393 -1.0781 -1.7613 -2.9169
  286MOL0     H37691   8.644   4.453   3.566  3.0381  3.0907  1.0916
  286MOL0     H37692   8.657   4.609   3.475 -2.2263  0.3227  0.6040
  286MOL0     H37693   8.824   4.474   3.327 -2.6358 -2.3675 -1.7064
  286MOL0     H37694   8.817   4.350   3.451 -1.0764  0.1810 -1.1044
  286MOL0     H37695   8.907   4.635   3.465 -2.7619 -0.3222  1.1755
  286MOL0     H37696   8.898   4.534   3.609  0.4633 -1.6352  0.5631
  286MOL0     H37697   9.074   4.459   3.370  2.3852  1.9728 -0.0580
  286MOL0     H37698   9.061   4.373   3.522  0.8651  1.8079  3.8101
  286MOL0     H37699   9.125   4.555   3.643 -1.0540  0.4434 -0.6364
  286MOL0     H37700   9.143   4.653   3.503  1.5530  0.4340  0.6398
  286MOL0     H37701   9.316   4.393   3.548 -1.3019 -0.9664  0.1697
  286MOL0     H37702   9.307   4.479   3.396  1.1674  0.9396 -0.4428
  286MOL0     H37703   9.355   4.589   3.665  0.9570  3.0868 -0.1756
  286MOL0     H37704   9.373   4.689   3.521  0.0997  0.9918  1.8273
  286MOL0     H37705   9.572   4.488   3.355  1.5750 -4.0693 -0.0131
  286MOL0     H37706   9.931   4.473   3.493 -0.7171  0.2560  1.6790
  286MOL0     H37707   9.879   4.534   3.342  2.1419  0.8040  1.5427
  286MOL0     H37708   9.784   4.327   3.282  0.7814  3.3129 -0.7331
  286MOL0     H37709   9.768   4.258   3.435 -3.8148  2.0463 -1.3745
  286MOL0     H37710  10.038   4.311   3.292  1.7687 -2.6990 -0.8715
  286MOL0     H37711  10.026   4.253   3.457  1.5681  2.4645  0.2765
  286MOL0     H37712   9.978   4.047   3.397  1.0237  0.2073 -0.7561
  286MOL0     H37713  10.081   4.085   3.263  0.5250 -1.7441  1.1272
  286MOL0     H37714  10.068   4.206   3.082 -3.2547 -0.5547  4.3399
  286MOL0     H37715  10.054   4.227   2.833 -1.3059 -0.8803 -1.6167
  286MOL0     H37716   9.950   3.904   2.469  1.0241  0.4842 -0.2152
  286MOL0     H37717   9.967   3.874   2.229 -2.3654 -1.1859  0.0275
  286MOL0     H37718   9.842   4.165   1.936  0.2883 -1.1692 -0.5660
  286MOL0     H37719   9.705   4.052   1.931 -0.5423 -2.8616 -0.9829
  286MOL0     H37720   9.842   3.886   1.809  1.3710 -0.3604 -0.7951
  286MOL0     H37721   9.985   3.995   1.813  0.3011 -0.1887 -3.4154
  286MOL0     H37722   9.862   4.172   1.680  1.1041 -0.5579  0.5707
  286MOL0     H37723   9.714   4.074   1.679 -0.0585  0.4072 -2.6104
  286MOL0     H37724   9.979   3.958   1.557 -1.3895 -4.6236 -0.8203
  286MOL0     H37725   9.812   3.900   1.536 -1.6890 -0.4271 -1.8587
  286MOL0     H37726   9.926   4.049   1.356  0.3644  2.1794  0.4753
  286MOL0     H37727   9.885   4.176   1.459  2.6653 -1.1197 -0.8797
  286MOL0     H37728   9.648   4.137   1.442  0.1474  0.2633 -0.6824
  286MOL0     H37729   9.658   3.973   1.396 -1.7864  0.8560  1.1628
  286MOL0     H37730   9.761   4.187   1.212 -1.0263  2.0285  0.7449
  286MOL0     H37731   9.704   4.023   1.182  2.9715 -0.1563  2.5046
  286MOL0     H37732   9.544   4.227   1.118 -1.9623 -3.8031 -0.5861
  286MOL0     H37733   9.535   4.262   1.298  1.2752  0.8600  0.5004
  286MOL0     H37734   9.708   4.182   2.137  0.4426  0.8996  0.3152
  286MOL0     H37735   9.685   4.236   2.390  2.0312  2.4790 -1.1344
  286MOL0     H37736   9.683   4.051   2.810  3.8968  0.4896 -5.1444
  286MOL0     H37737   9.668   4.036   3.059 -1.7009  1.7595 -1.3289
  286MOL0     H37738   8.736   4.369   3.035  0.1424  0.8093  0.8047
  286MOL0     H37739   8.638   4.201   2.887  0.3780 -2.2401  1.9380
  286MOL0     H37740   8.495   3.844   2.640 -0.2725  0.0684  2.0020
  286MOL0     H37741   8.354   3.747   2.462  0.2873  0.4631  1.0199
  286MOL0     H37742   8.024   3.856   2.185  0.8013 -1.3679  0.6917
  286MOL0     H37743   8.057   4.011   2.274 -0.8566 -0.1375 -0.2492
  286MOL0     H37744   7.893   3.774   2.324  1.3233  0.2970 -0.0352
  286MOL0     H37745   7.911   3.876   2.458  0.4476  1.1623 -0.7743
  286MOL0     H37746   7.800   3.962   2.187  3.9995 -2.3602  0.4040
  286MOL0     H37747   7.824   4.075   2.324  2.5865 -0.4141 -0.6549
  286MOL0     H37748   7.641   3.899   2.445 -1.2113 -0.7252  0.9303
  286MOL0     H37749   7.597   4.031   2.331 -0.4434 -1.3440 -0.5877
  286MOL0     H37750   7.524   3.679   2.096 -1.0539 -0.7866  0.5050
  286MOL0     H37751   8.085   4.080   2.501  1.2817  0.2006 -2.1766
  286MOL0     H37752   8.199   4.131   2.715  0.0511 -1.3572  1.3806
  287MOL0     O37753   8.591   1.268   7.181 -0.0800 -0.9165  0.0417
  287MOL0     C37754   8.700   1.259   7.243 -0.0933  0.2222 -0.5827
  287MOL0     O37755   8.710   1.181   7.355 -0.1733  0.5606 -0.2546
  287MOL0     C37756   8.601   1.117   7.402  0.1483  0.2939  0.1671
  287MOL0     C37757   8.497   1.185   7.469  0.1258 -0.0259  0.3186
  287MOL0     C37758   8.385   1.117   7.519 -0.3903  0.1953  0.6806
  287MOL0     C37759   8.363   0.982   7.514 -0.0013 -0.6802 -0.8280
  287MOL0     O37760   8.261   0.910   7.571  0.3366 -0.2068 -0.3055
  287MOL0     C37761   8.190   0.976   7.681  0.1108 -0.0605  0.4408
  287MOL0     C37762   8.124   0.871   7.760  0.4625  0.4797 -0.0809
  287MOL0     C37763   8.078   0.924   7.901  0.3788  0.3981  0.1217
  287MOL0     C37764   8.084   0.812   8.002  0.2169 -0.0607 -0.0618
  287MOL0     C37765   7.979   0.843   8.106  0.6323 -0.1963 -0.1455
  287MOL0     C37766   7.977   0.740   8.223  0.0795 -0.0263  0.4150
  287MOL0     C37767   8.086   0.779   8.330  1.0794  0.0461 -0.0764
  287MOL0     C37768   8.108   0.659   8.427  0.2095  0.6200  0.4805
  287MOL0     N37769   8.201   0.699   8.535  0.2457  0.3232  0.1384
  287MOL0     C37770   8.340   0.693   8.516  0.7618 -0.0029 -0.3592
  287MOL0     C37771   8.394   0.729   8.633  0.6774  0.0174 -1.6387
  287MOL0     C37772   8.537   0.744   8.677 -0.3155 -0.2138  0.4665
  287MOL0     C37773   8.613   0.855   8.599  1.2053 -0.8391  0.3541
  287MOL0     C37774   8.764   0.833   8.593 -0.9419  0.2187  0.4326
  287MOL0     C37775   8.844   0.975   8.576  0.0953 -0.1308 -0.3694
  287MOL0     O37776   8.983   0.960   8.612 -1.4616  0.4778 -0.2867
  287MOL0     C37777   9.076   1.047   8.562  0.0280 -0.6796 -0.3779
  287MOL0     C37778   9.212   1.020   8.558  0.2567  0.4280  1.4279
  287MOL0     C37779   9.307   1.111   8.503  1.0145 -0.7722  0.4579
  287MOL0     C37780   9.275   1.242   8.465  0.3730  0.4578 -0.4333
  287MOL0     C37781   9.375   1.326   8.417  0.3846 -0.2875  0.2998
  287MOL0     O37782   9.324   1.460   8.391 -1.3188  0.5067 -0.1169
  287MOL0     C37783   9.413   1.559   8.349 -0.8097 -0.1392 -0.3121
  287MOL0     C37784   9.418   1.688   8.402  0.4740  0.0818  0.1262
  287MOL0     C37785   9.511   1.779   8.356 -0.3693  0.4213 -0.3253
  287MOL0     C37786   9.599   1.745   8.258  0.3362  0.9049 -0.0511
  287MOL0     O37787   9.682   1.853   8.221 -0.3188  0.4581  0.1479
  287MOL0     C37788   9.772   1.822   8.110 -0.3866 -0.2432 -0.0514
  287MOL0     C37789   9.871   1.933   8.111 -0.0422 -0.4587  0.2084
  287MOL0     C37790   9.984   1.893   8.021 -1.0905 -0.3512  0.1868
  287MOL0     C37791  10.087   2.005   8.013  0.0580 -0.6913 -0.0078
  287MOL0     C37792  10.232   1.957   8.015  0.0587 -0.0727  0.0342
  287MOL0     C37793  10.325   2.077   8.028 -0.5475 -1.2182  0.1253
  287MOL0     C37794  10.475   2.045   8.000  0.0830 -0.1298  0.6946
  287MOL0     C37795  10.568   2.144   8.082  0.4341  0.3866  0.5366
  287MOL0    Cl37796  10.523   2.315   8.072  0.2721  0.2063  0.2615
  287MOL0     C37797   9.582   1.627   8.178  0.1115  0.6645 -0.0217
  287MOL0     C37798   9.489   1.544   8.236 -1.4071  0.8863  0.0745
  287MOL0     O37799   9.498   1.298   8.416  0.0000  0.9451  0.0997
  287MOL0     C37800   9.133   1.272   8.468  0.3698  1.2707  1.4671
  287MOL0     C37801   9.040   1.180   8.516  1.0947  0.4205 -0.1951
  287MOL0     N37802   8.289   0.744   8.723 -0.1485  0.7071 -0.5349
  287MOL0     N37803   8.173   0.714   8.663  0.1512  0.0939 -0.4804
  287MOL0     C37804   8.472   0.913   7.453 -0.3311 -0.3479  0.0736
  287MOL0     C37805   8.583   0.980   7.395 -0.5868  0.9995  0.0923
  287MOL0     C37806   8.818   1.342   7.202 -0.0527  0.0788 -0.3881
  287MOL0     C37807   8.936   1.337   7.279  1.2725 -0.2145 -0.2470
  287MOL0     C37808   9.050   1.415   7.248  0.4420  0.9958  0.1917
  287MOL0     C37809   9.037   1.501   7.134  0.0812 -0.5653 -0.3319
  287MOL0     O37810   9.128   1.586   7.085  0.3223  0.6604  0.9925
  287MOL0     C37811   9.252   1.605   7.150  0.0859 -0.1319  0.2643
  287MOL0     C37812   9.327   1.729   7.099 -0.4408 -0.3008  0.7925
  287MOL0     C37813   9.343   1.721   6.955 -0.0501 -0.0194 -0.8473
  287MOL0     C37814   9.422   1.835   6.898  0.2142  0.2662  0.6606
  287MOL0     C37815   9.565   1.810   6.904 -0.3052 -0.5006 -0.4528
  287MOL0     C37816   9.681   1.785   6.936 -0.0365  0.2743  0.4026
  287MOL0     C37817   8.918   1.505   7.066  0.4324  0.5199  0.2478
  287MOL0     C37818   8.810   1.424   7.095 -0.2913  0.7598  0.3454
  287MOL0     H37819   8.503   1.293   7.456  0.9898 -0.1283 -0.2270
  287MOL0     H37820   8.300   1.177   7.549 -3.0240 -3.3551  0.8234
  287MOL0     H37821   8.112   1.041   7.639 -0.3728 -0.8145  0.1566
  287MOL0     H37822   8.252   1.042   7.742  1.4869  0.8246 -1.7792
  287MOL0     H37823   8.204   0.797   7.768  2.1149  2.1060 -0.6720
  287MOL0     H37824   8.038   0.828   7.708  0.5937 -0.0681  0.1481
  287MOL0     H37825   7.972   0.949   7.897  0.3313  0.5698  1.7916
  287MOL0     H37826   8.135   1.012   7.932  1.8878 -1.1049  1.8662
  287MOL0     H37827   8.067   0.722   7.941 -2.1197  0.8745 -0.9353
  287MOL0     H37828   8.181   0.803   8.052 -1.2938  1.6388  3.5382
  287MOL0     H37829   7.878   0.866   8.073  1.2186  2.4832 -0.3847
  287MOL0     H37830   8.006   0.940   8.151 -1.7021 -0.8473  2.9379
  287MOL0     H37831   7.986   0.635   8.194  2.2897 -0.1476  1.3661
  287MOL0     H37832   7.883   0.752   8.278 -0.2589 -2.9597  0.6209
  287MOL0     H37833   8.187   0.799   8.294  2.4506 -3.1539  1.5922
  287MOL0     H37834   8.047   0.867   8.382 -0.8956  0.5329 -2.1778
  287MOL0     H37835   8.147   0.578   8.364 -3.0170 -0.8800  0.2163
  287MOL0     H37836   8.019   0.618   8.475 -1.9072  0.3884 -3.2176
  287MOL0     H37837   8.402   0.654   8.436  0.8798 -2.0185  0.6517
  287MOL0     H37838   8.594   0.653   8.653  1.3986  1.2785 -1.5594
  287MOL0     H37839   8.559   0.756   8.783  2.2609  3.8691 -0.2852
  287MOL0     H37840   8.592   0.952   8.645 -0.1292 -1.9362  2.1982
  287MOL0     H37841   8.568   0.865   8.500  0.3987  0.8416  0.8662
  287MOL0     H37842   8.796   0.799   8.692  2.3244  0.3274 -0.4562
  287MOL0     H37843   8.805   0.769   8.514 -2.2722 -1.4136  1.0235
  287MOL0     H37844   8.795   1.056   8.631 -2.0000  0.7544 -3.3150
  287MOL0     H37845   8.828   1.003   8.472 -2.5942 -3.8566 -1.1760
  287MOL0     H37846   9.243   0.918   8.576  0.8794  0.2681 -0.3482
  287MOL0     H37847   9.408   1.072   8.491  0.3263 -2.4937 -0.0607
  287MOL0     H37848   9.349   1.701   8.485  1.1356  0.6513  0.5921
  287MOL0     H37849   9.529   1.874   8.406 -2.9965  0.4953  0.5951
  287MOL0     H37850   9.716   1.817   8.017  1.7355  0.9133 -1.4794
  287MOL0     H37851   9.819   1.725   8.127  0.8577  0.1610 -1.0607
  287MOL0     H37852   9.902   1.950   8.214  0.4418 -2.1093  0.3567
  287MOL0     H37853   9.832   2.026   8.067 -0.5062 -1.6020 -1.9566
  287MOL0     H37854   9.961   1.848   7.924  1.7739  0.2849 -0.8984
  287MOL0     H37855  10.036   1.808   8.066 -2.2056 -1.0567  0.1778
  287MOL0     H37856  10.065   2.077   7.934 -3.6654  1.0648  2.3480
  287MOL0     H37857  10.083   2.069   8.102 -0.4354  1.3527 -1.4396
  287MOL0     H37858  10.251   1.895   7.926 -3.7486  2.6375 -3.0543
  287MOL0     H37859  10.259   1.894   8.099  0.9773  1.5974  1.0510
  287MOL0     H37860  10.306   2.127   8.123  0.4166 -0.4569 -0.0608
  287MOL0     H37861  10.295   2.145   7.948  1.6185  1.3934  1.3876
  287MOL0     H37862  10.510   1.945   8.026  2.6221  0.5583  0.1779
  287MOL0     H37863  10.500   2.060   7.895 -0.0020  0.7875  0.7958
  287MOL0     H37864  10.670   2.124   8.048  0.8754  1.6076  1.0771
  287MOL0     H37865  10.569   2.119   8.189 -2.5728 -0.5761  0.4428
  287MOL0     H37866   9.637   1.599   8.089  1.6062 -2.8523  1.7959
  287MOL0     H37867   9.487   1.449   8.183  3.4455  0.1307  0.7713
  287MOL0     H37868   9.102   1.364   8.420  0.8148 -0.1907 -1.9769
  287MOL0     H37869   8.937   1.215   8.515  1.2335  1.0238 -3.0259
  287MOL0     H37870   8.461   0.805   7.443  3.3475 -0.7556 -0.9575
  287MOL0     H37871   8.665   0.928   7.348 -0.4417 -0.5209  1.9115
  287MOL0     H37872   8.937   1.277   7.370  0.6053  2.6118  1.7478
  287MOL0     H37873   9.135   1.417   7.314 -0.5658  1.5990  1.5132
  287MOL0     H37874   9.313   1.514   7.157 -0.4501 -0.4008  2.1622
  287MOL0     H37875   9.227   1.628   7.255  2.6574  1.4069  0.6184
  287MOL0     H37876   9.275   1.819   7.134  0.4020  0.4659  0.1196
  287MOL0     H37877   9.426   1.726   7.146  0.7644  1.5588 -1.4239
  287MOL0     H37878   9.242   1.719   6.913 -0.4072 -1.1340  0.0370
  287MOL0     H37879   9.385   1.623   6.932 -2.0038 -1.6427  1.9091
  287MOL0     H37880   9.385   1.846   6.796 -0.2770  3.1874  1.0740
  287MOL0     H37881   9.403   1.926   6.956  0.7264 -0.5889  2.2370
  287MOL0     H37882   9.781   1.780   6.976 -1.0698  1.7763  3.5158
  287MOL0     H37883   8.901   1.561   6.974 -4.4127  0.6503  0.9860
  287MOL0     H37884   8.735   1.418   7.017  0.3227 -1.4081 -0.1392
  288MOL0     O37885   8.601  10.967   0.484 -0.7518  0.0525 -0.1414
  288MOL0     C37886   8.648  10.891   0.398 -1.1506  0.2800  0.1148
  288MOL0     O37887   8.669  10.755   0.414  0.5520  0.4999 -0.4385
  288MOL0     C37888   8.610  10.696   0.522  0.1051 -1.0257  0.5013
  288MOL0     C37889   8.677  10.689   0.640 -0.0439 -0.7572 -0.9867
  288MOL0     C37890   8.610  10.630   0.753  0.0131 -0.2187 -0.8224
  288MOL0     C37891   8.483  10.580   0.743  0.9869 -0.2569 -0.8131
  288MOL0     O37892   8.406  10.529   0.843  0.0825  0.7892  0.3832
  288MOL0     C37893   8.472  10.430   0.931  0.7131  0.5636 -0.6112
  288MOL0     C37894   8.469  10.289   0.861  0.3195  0.2649 -0.0393
  288MOL0     C37895   8.326  10.242   0.819 -0.2633  0.2333 -0.5510
  288MOL0     C37896   8.318  10.087   0.803 -0.5076  0.1908 -0.5026
  288MOL0     C37897   8.176  10.034   0.808 -0.5638  0.3139 -0.5609
  288MOL0     C37898   8.071  10.081   0.702  0.2560 -0.1158 -0.3213
  288MOL0     C37899   7.948  10.007   0.728  1.0658 -0.5007 -0.3372
  288MOL0     C37900   7.844  10.030   0.609  0.8331  0.6910 -0.3662
  288MOL0     N37901   7.709   9.972   0.628 -0.1746  1.1936  0.1587
  288MOL0     C37902   7.611  10.042   0.700  0.3915 -0.7728 -0.9696
  288MOL0     C37903   7.508   9.957   0.702  0.1933  0.0162  0.2850
  288MOL0     C37904   7.375   9.977   0.784 -0.2538 -0.4086 -0.8541
  288MOL0     C37905   7.261  10.051   0.705 -0.0673 -0.6507  0.8319
  288MOL0     C37906   7.124  10.041   0.768  0.2893  0.7268 -0.5235
  288MOL0     C37907   7.025  10.138   0.700 -0.1603  0.1568  0.1231
  288MOL0     O37908   6.892  10.124   0.758  1.4358 -0.2851  0.0611
  288MOL0     C37909   6.805  10.232   0.740 -0.3339  0.4827 -0.7788
  288MOL0     C37910   6.827  10.346   0.663  0.3246  0.2795 -1.0333
  288MOL0     C37911   6.723  10.426   0.623 -0.5742 -0.2296  0.4815
  288MOL0     C37912   6.591  10.400   0.675 -0.0499 -0.0904  0.3230
  288MOL0     C37913   6.480  10.488   0.641  0.2318 -0.3537 -0.1767
  288MOL0     O37914   6.355  10.433   0.666  0.4987 -0.0902 -0.9652
  288MOL0     C37915   6.238  10.501   0.643  0.5712 -0.2629  1.0231
  288MOL0     C37916   6.216  10.577   0.529  0.0916 -0.7647 -0.5998
  288MOL0     C37917   6.101  10.646   0.504  0.4465  0.1803  1.2777
  288MOL0     C37918   5.991  10.634   0.595  0.2494  0.2034  0.1690
  288MOL0     O37919   5.880  10.710   0.570  0.3311  0.0343 -0.7120
  288MOL0     C37920   5.781  10.726   0.673  0.1111  0.3426  0.4479
  288MOL0     C37921   5.828  10.831   0.769  0.9722 -0.1519 -0.0813
  288MOL0     C37922   5.723  10.857   0.873 -0.1276  0.4259 -0.1266
  288MOL0     C37923   5.729  10.971   0.971 -0.2911 -0.0143 -0.5952
  288MOL0     C37924   5.609  10.985   1.063  0.9035 -0.2537 -0.4277
  288MOL0     C37925   5.466  10.982   0.992 -0.0890  0.1071  0.3721
  288MOL0     C37926   5.368  11.000   1.110 -0.4485  0.5281  0.3298
  288MOL0     C37927   5.269  10.884   1.098  0.8066  0.4942 -0.3616
  288MOL0    Cl37928   5.342  10.719   1.110  0.0591 -0.1390  0.1894
  288MOL0     C37929   6.003  10.546   0.706 -0.5046  0.9245  0.1407
  288MOL0     C37930   6.127  10.483   0.726 -0.2144  0.1044  0.3833
  288MOL0     O37931   6.503  10.591   0.580 -0.2422  0.0823 -0.4386
  288MOL0     C37932   6.585  10.301   0.768  0.7669 -1.2062 -0.9803
  288MOL0     C37933   6.683  10.213   0.801 -0.4690 -0.6830 -0.1916
  288MOL0     N37934   7.549   9.839   0.636  0.7216  0.4155 -0.8289
  288MOL0     N37935   7.664   9.849   0.592 -0.4974 -0.5723  0.7586
  288MOL0     C37936   8.415  10.601   0.622 -0.6231 -0.2095  0.6109
  288MOL0     C37937   8.482  10.646   0.509 -0.0304 -0.9219 -0.7216
  288MOL0     C37938   8.715  10.949   0.286  0.0983  0.4437 -1.0050
  288MOL0     C37939   8.828  10.881   0.237  0.1456  0.0072  0.1189
  288MOL0     C37940   8.878  10.914   0.111 -0.7872 -0.2209 -0.2901
  288MOL0     C37941   8.829  11.021   0.030 -0.3067 -0.5917 -0.1101
  288MOL0     O37942   8.902  11.042  -0.085  0.1939  0.1683  0.2666
  288MOL0     C37943   8.997  11.151  -0.085  0.7452  0.1429  0.2145
  288MOL0     C37944   8.926  11.286  -0.106 -0.4538 -0.3567  0.2087
  288MOL0     C37945   9.025  11.403  -0.133 -0.3485  0.3655 -0.5778
  288MOL0     C37946   8.972  11.536  -0.167  0.4701  0.4211 -0.3320
  288MOL0     C37947   8.938  11.532  -0.308 -0.9551  0.1730 -0.2863
  288MOL0     C37948   8.903  11.554  -0.425 -1.5655 -0.3323  0.5748
  288MOL0     C37949   8.741  11.108   0.095 -0.1034 -0.1319 -1.0649
  288MOL0     C37950   8.679  11.064   0.218  0.2368 -0.1471  0.6575
  288MOL0     H37951   8.781  10.721   0.642  0.0440 -0.8181  2.9632
  288MOL0     H37952   8.672  10.635   0.842 -0.0515 -0.1302 -0.7816
  288MOL0     H37953   8.410  10.413   1.019  2.1491 -0.7386  0.1938
  288MOL0     H37954   8.566  10.461   0.977 -0.7400  1.4552  1.9624
  288MOL0     H37955   8.504  10.218   0.937 -2.9402 -0.4212  1.0025
  288MOL0     H37956   8.530  10.291   0.771 -0.0354  2.9073 -0.2835
  288MOL0     H37957   8.295  10.291   0.726  0.3700  0.3160 -0.7269
  288MOL0     H37958   8.252  10.275   0.893  0.5938  0.0664  0.4005
  288MOL0     H37959   8.362  10.051   0.709 -2.3193 -1.3083 -0.8440
  288MOL0     H37960   8.371  10.035   0.883  0.1180  1.7451  0.1246
  288MOL0     H37961   8.120  10.052   0.901  0.0744  0.3526 -0.1716
  288MOL0     H37962   8.175   9.926   0.798  0.4207  0.4135 -2.0165
  288MOL0     H37963   8.115  10.062   0.604  0.8371 -1.1463  0.1295
  288MOL0     H37964   8.057  10.189   0.715 -0.4041 -0.3659  1.3361
  288MOL0     H37965   7.972   9.900   0.735 -0.4648 -0.9318 -1.1190
  288MOL0     H37966   7.902  10.052   0.817  2.2449  0.2254 -0.0803
  288MOL0     H37967   7.891   9.980   0.524  2.3098 -2.0768  1.9241
  288MOL0     H37968   7.821  10.135   0.588  0.9032  0.2068 -3.2335
  288MOL0     H37969   7.621  10.141   0.745 -0.0187 -0.4906 -1.4945
  288MOL0     H37970   7.387  10.034   0.877 -1.8174 -0.2063 -0.7435
  288MOL0     H37971   7.342   9.879   0.819 -4.2144  1.4389  1.2030
  288MOL0     H37972   7.254  10.008   0.604 -2.4572 -0.0262  0.6869
  288MOL0     H37973   7.288  10.156   0.721 -0.3985 -0.5876  0.9655
  288MOL0     H37974   7.086   9.939   0.760  2.0012 -0.0024  0.1112
  288MOL0     H37975   7.121  10.078   0.871 -2.1353  1.1070 -0.6817
  288MOL0     H37976   7.027  10.127   0.591 -0.7983 -1.7473  0.2656
  288MOL0     H37977   7.057  10.243   0.707  1.5074  0.0082 -3.1223
  288MOL0     H37978   6.932  10.366   0.648  0.9641 -2.6180 -0.9622
  288MOL0     H37979   6.736  10.514   0.561 -0.4060  1.2076  2.4447
  288MOL0     H37980   6.289  10.561   0.450  0.7146 -0.3756 -0.1095
  288MOL0     H37981   6.091  10.700   0.411 -1.1984 -1.0979  0.6581
  288MOL0     H37982   5.762  10.634   0.731  0.4133 -0.6945 -1.0414
  288MOL0     H37983   5.684  10.747   0.626  0.6951 -0.2077 -1.0477
  288MOL0     H37984   5.864  10.915   0.709  1.3374 -0.7056 -0.6500
  288MOL0     H37985   5.915  10.801   0.828  1.4556 -0.2013 -0.8050
  288MOL0     H37986   5.696  10.769   0.932 -0.7553  0.5454 -0.2277
  288MOL0     H37987   5.637  10.886   0.810  2.4802  2.1900 -3.1912
  288MOL0     H37988   5.819  10.943   1.027  1.1222  0.0689 -2.6985
  288MOL0     H37989   5.750  11.062   0.914 -3.0907  0.7231 -0.5934
  288MOL0     H37990   5.612  11.081   1.116 -0.4375 -1.1666  1.4253
  288MOL0     H37991   5.617  10.901   1.133 -0.6313 -1.6828 -1.8606
  288MOL0     H37992   5.460  10.886   0.940 -0.2074 -0.0453  0.6605
  288MOL0     H37993   5.471  11.064   0.920  1.9307 -3.0663 -3.4510
  288MOL0     H37994   5.413  10.989   1.209 -0.3202 -0.9703  0.1295
  288MOL0     H37995   5.325  11.099   1.095  0.0574  1.0256  1.9249
  288MOL0     H37996   5.208  10.884   1.007  2.8975 -1.7823 -1.9048
  288MOL0     H37997   5.193  10.888   1.177 -0.0813  0.0124 -1.1724
  288MOL0     H37998   5.934  10.525   0.786  0.5575 -1.0147  0.6140
  288MOL0     H37999   6.145  10.432   0.820  4.7030  1.0543  0.2065
  288MOL0     H38000   6.490  10.293   0.820  0.3036  2.7690 -0.9132
  288MOL0     H38001   6.660  10.135   0.872  0.8592  0.0700  1.1402
  288MOL0     H38002   8.307  10.585   0.620 -0.3869 -1.9666  0.1451
  288MOL0     H38003   8.436  10.662   0.412  0.0466  1.5549 -0.4013
  288MOL0     H38004   8.869  10.799   0.296  0.0404 -1.3987 -1.6842
  288MOL0     H38005   8.959  10.851   0.075 -1.9134 -2.0344  0.2070
  288MOL0     H38006   9.061  11.129  -0.171  0.3452 -0.6280  0.1112
  288MOL0     H38007   9.062  11.151   0.003  1.5102 -2.1501 -0.2897
  288MOL0     H38008   8.858  11.271  -0.190 -2.5351 -2.8647  2.1693
  288MOL0     H38009   8.869  11.310  -0.016 -1.6967 -2.3769  0.0129
  288MOL0     H38010   9.103  11.366  -0.200  3.0366  1.1940  2.6050
  288MOL0     H38011   9.090  11.409  -0.046  2.0219  0.5604 -2.2646
  288MOL0     H38012   8.887  11.576  -0.112  0.3772  0.9936 -0.8758
  288MOL0     H38013   9.051  11.610  -0.154  0.5956  0.0736  1.0584
  288MOL0     H38014   8.872  11.583  -0.523 -2.0275 -2.3107  0.0984
  288MOL0     H38015   8.710  11.198   0.043  0.2686  1.0331  0.6627
  288MOL0     H38016   8.595  11.122   0.255 -0.8339 -2.2472  1.7464
  289MOL0     O38017  10.918   5.465   0.461  1.0141  0.3164 -0.3696
  289MOL0     C38018  10.986   5.568   0.442  0.3470 -0.2078  0.4071
  289MOL0     O38019  10.937   5.695   0.420 -0.1800 -0.5577 -0.3944
  289MOL0     C38020  10.802   5.739   0.436  0.3312 -0.2300 -0.5829
  289MOL0     C38021  10.786   5.882   0.444  0.3818  0.6612  0.3198
  289MOL0     C38022  10.662   5.940   0.457  0.3496 -0.8005  0.8052
  289MOL0     C38023  10.548   5.867   0.429 -0.6969  0.0185 -0.5723
  289MOL0     O38024  10.429   5.940   0.453 -0.1132  0.8914 -0.0028
  289MOL0     C38025  10.299   5.869   0.459 -0.7773 -0.1289  0.3204
  289MOL0     C38026  10.188   5.965   0.504  0.5156 -0.3295 -0.4538
  289MOL0     C38027  10.118   6.046   0.382 -0.3416  0.4511 -0.7471
  289MOL0     C38028   9.992   6.100   0.439  1.0557 -1.0697 -0.1983
  289MOL0     C38029   9.908   6.179   0.340 -0.9177 -0.5097  0.1193
  289MOL0     C38030   9.766   6.183   0.405 -0.5227 -0.5319  0.3464
  289MOL0     C38031   9.671   6.253   0.310  0.4914 -0.7236  0.7730
  289MOL0     C38032   9.609   6.163   0.199 -1.2245 -0.3207  0.2519
  289MOL0     N38033   9.516   6.236   0.113  0.2337  1.1097  0.7960
  289MOL0     C38034   9.548   6.297  -0.001  0.3667  0.4687  0.2179
  289MOL0     C38035   9.425   6.328  -0.053  0.0665 -0.6574  0.1741
  289MOL0     C38036   9.411   6.389  -0.193 -0.2723  0.4138 -0.4095
  289MOL0     C38037   9.298   6.490  -0.179  0.2208 -0.3876  0.7502
  289MOL0     C38038   9.273   6.570  -0.304 -0.0061  0.0036 -0.0184
  289MOL0     C38039   9.182   6.679  -0.286  0.1362 -0.5705  0.5619
  289MOL0     O38040   9.059   6.650  -0.228  0.2217 -0.0758 -1.1418
  289MOL0     C38041   8.947   6.647  -0.304  0.6068 -1.0088 -0.3679
  289MOL0     C38042   8.930   6.568  -0.410  0.6265  0.1487  0.7016
  289MOL0     C38043   8.816   6.597  -0.493  0.1433 -0.2277 -0.0290
  289MOL0     C38044   8.719   6.697  -0.457  0.0778  0.2623  0.1124
  289MOL0     C38045   8.589   6.708  -0.534  0.4444 -0.1559 -0.0198
  289MOL0     O38046   8.541   6.598  -0.602 -0.4775  0.3780 -0.2464
  289MOL0     C38047   8.451   6.621  -0.704  0.1308 -0.2283 -0.5985
  289MOL0     C38048   8.490   6.602  -0.838 -0.3792  0.6374  0.1593
  289MOL0     C38049   8.396   6.615  -0.945 -0.0076  0.4502 -1.0484
  289MOL0     C38050   8.263   6.659  -0.917 -0.2327 -0.2288  0.6442
  289MOL0     O38051   8.179   6.700  -1.021  0.2138  0.0328  0.3219
  289MOL0     C38052   8.080   6.601  -1.053  0.3763  0.0526  0.3777
  289MOL0     C38053   8.039   6.603  -1.203  0.3342  0.1891  0.8973
  289MOL0     C38054   8.008   6.746  -1.244 -0.6586 -0.1215  0.3961
  289MOL0     C38055   7.872   6.807  -1.186  0.1154  0.8982  1.2948
  289MOL0     C38056   7.876   6.957  -1.219 -0.2570 -1.1713 -0.2878
  289MOL0     C38057   7.749   7.034  -1.194 -0.2966  0.7479  0.0881
  289MOL0     C38058   7.749   7.165  -1.256  0.4254  0.3802  0.3013
  289MOL0     C38059   7.850   7.269  -1.190 -0.2493 -0.3623  0.9914
  289MOL0    Cl38060   7.842   7.272  -1.013  0.2298  0.3000 -0.2884
  289MOL0     C38061   8.226   6.686  -0.792  0.1125  0.3893 -1.4510
  289MOL0     C38062   8.310   6.650  -0.680 -0.9057  0.0493 -0.3738
  289MOL0     O38063   8.534   6.812  -0.546 -0.0456 -0.0798  0.6207
  289MOL0     C38064   8.739   6.760  -0.333  0.1833 -0.1858 -0.4914
  289MOL0     C38065   8.854   6.733  -0.254  0.0976  0.5456  0.4882
  289MOL0     N38066   9.331   6.269   0.027  0.0958  0.1376 -0.0506
  289MOL0     N38067   9.389   6.216   0.127 -0.3000  0.1728 -1.0000
  289MOL0     C38068  10.558   5.731   0.437  0.9961 -0.0743  1.3065
  289MOL0     C38069  10.680   5.662   0.438 -0.7409  0.2034 -0.2086
  289MOL0     C38070  11.129   5.550   0.475 -0.8298  0.9329  0.4263
  289MOL0     C38071  11.180   5.425   0.525 -0.8297 -0.8640  0.4400
  289MOL0     C38072  11.314   5.408   0.546  0.0444 -0.1194 -0.3537
  289MOL0     C38073  11.405   5.517   0.532 -0.2372  0.3706 -0.0438
  289MOL0     O38074  11.536   5.496   0.556 -1.0803  0.5677 -0.3469
  289MOL0     C38075  11.568   5.424   0.673 -0.9519 -1.1273 -0.7355
  289MOL0     C38076  11.704   5.451   0.731 -0.3880 -0.7013 -0.5242
  289MOL0     C38077  11.810   5.374   0.647  0.5879 -0.5355 -0.3277
  289MOL0     C38078  11.847   5.454   0.518  0.3836  0.2026  0.1680
  289MOL0     C38079  11.955   5.365   0.459 -0.5196  0.0174 -0.2978
  289MOL0     C38080  12.039   5.295   0.406 -0.9511 -0.1895 -0.7847
  289MOL0     C38081  11.358   5.641   0.493  0.1974 -0.8079 -1.0922
  289MOL0     C38082  11.215   5.660   0.469 -0.7972  0.7193 -0.1717
  289MOL0     H38083  10.875   5.941   0.428  1.5534 -0.8094  1.0688
  289MOL0     H38084  10.656   6.048   0.455  1.4689 -0.6757 -2.4891
  289MOL0     H38085  10.316   5.789   0.532  3.8255 -0.0159 -0.3162
  289MOL0     H38086  10.294   5.831   0.356  0.2498 -2.7538  1.1421
  289MOL0     H38087  10.222   6.039   0.578 -1.8213 -0.9224  1.3303
  289MOL0     H38088  10.113   5.904   0.554  0.0381  2.1251  2.0940
  289MOL0     H38089  10.083   5.972   0.309 -3.5657 -0.0271  1.0763
  289MOL0     H38090  10.192   6.117   0.346  0.1137  0.2513 -0.2157
  289MOL0     H38091   9.937   6.017   0.482 -1.5264  1.4234  1.7294
  289MOL0     H38092  10.025   6.156   0.528 -1.4709  0.6010 -0.2229
  289MOL0     H38093   9.904   6.119   0.248  2.3459  0.9723 -1.1697
  289MOL0     H38094   9.959   6.272   0.312 -0.3572 -1.4051 -2.0970
  289MOL0     H38095   9.757   6.235   0.500 -3.7055 -1.3597  0.6126
  289MOL0     H38096   9.724   6.086   0.433  2.2362 -1.6686  0.9436
  289MOL0     H38097   9.591   6.272   0.383  0.5730 -1.5362  1.0952
  289MOL0     H38098   9.700   6.350   0.269 -0.8205 -0.1059  1.2339
  289MOL0     H38099   9.563   6.075   0.246  1.2388 -1.0209  1.5467
  289MOL0     H38100   9.689   6.125   0.135  0.8693  2.3681  1.0860
  289MOL0     H38101   9.647   6.295  -0.045  1.5900 -0.9341  2.8492
  289MOL0     H38102   9.394   6.317  -0.274 -0.3824  1.7294 -1.6001
  289MOL0     H38103   9.506   6.440  -0.213  0.4798 -0.5322  0.6468
  289MOL0     H38104   9.318   6.552  -0.091 -2.9770  3.1363 -0.7258
  289MOL0     H38105   9.203   6.436  -0.175  0.5469 -1.2974 -1.8030
  289MOL0     H38106   9.360   6.621  -0.345  0.0269  0.8028  0.9898
  289MOL0     H38107   9.235   6.491  -0.369 -0.6444 -1.8737  2.4610
  289MOL0     H38108   9.170   6.734  -0.379  2.8791  1.6546  1.3646
  289MOL0     H38109   9.231   6.751  -0.219  1.7612  0.5772 -1.7050
  289MOL0     H38110   8.996   6.495  -0.455 -2.0361 -0.7867 -2.0410
  289MOL0     H38111   8.791   6.552  -0.589  1.7904 -0.9890 -0.1465
  289MOL0     H38112   8.593   6.570  -0.848 -0.7415 -0.3589 -0.4733
  289MOL0     H38113   8.419   6.594  -1.049  0.1143  3.1363 -1.6503
  289MOL0     H38114   7.989   6.612  -0.995  0.3749 -4.2958  1.5134
  289MOL0     H38115   8.115   6.499  -1.034  1.3554  0.3859  0.4331
  289MOL0     H38116   7.960   6.529  -1.223 -0.4429  0.1797  3.5771
  289MOL0     H38117   8.124   6.566  -1.261 -1.4619  0.0413 -1.8173
  289MOL0     H38118   7.997   6.737  -1.352  1.4186 -3.5886  0.3063
  289MOL0     H38119   8.091   6.812  -1.220  0.4881 -1.6858  0.8730
  289MOL0     H38120   7.782   6.765  -1.232  1.1881 -0.2385  0.1634
  289MOL0     H38121   7.878   6.811  -1.077 -0.8532 -0.1074  1.4027
  289MOL0     H38122   7.888   6.969  -1.328  0.9325  0.4820 -0.0210
  289MOL0     H38123   7.960   7.002  -1.165 -2.3031 -2.1592  4.1173
  289MOL0     H38124   7.741   7.034  -1.085  1.3326 -1.5288  0.2795
  289MOL0     H38125   7.665   6.982  -1.240  0.7041  1.2084 -2.4434
  289MOL0     H38126   7.743   7.158  -1.365 -0.1307  1.4501  0.2409
  289MOL0     H38127   7.646   7.203  -1.249 -0.1229  1.0132 -5.6986
  289MOL0     H38128   7.816   7.365  -1.228  0.2191 -0.7974 -0.6133
  289MOL0     H38129   7.955   7.245  -1.211 -1.0311 -1.2601 -2.6972
  289MOL0     H38130   8.126   6.725  -0.774 -0.8234 -2.3555 -0.0268
  289MOL0     H38131   8.280   6.670  -0.577  1.6404  2.9526 -0.0486
  289MOL0     H38132   8.654   6.820  -0.302 -1.6385 -1.7897 -2.1319
  289MOL0     H38133   8.867   6.788  -0.161  2.0060  0.5181  0.2799
  289MOL0     H38134  10.468   5.670   0.435  1.5590 -0.9075  0.6617
  289MOL0     H38135  10.689   5.555   0.423 -3.9304  0.2074 -3.4645
  289MOL0     H38136  11.116   5.347   0.565  1.2145 -2.5289  0.6249
  289MOL0     H38137  11.357   5.313   0.574 -0.4288 -0.2024  0.1093
  289MOL0     H38138  11.564   5.318   0.643  1.3259 -1.4418 -0.1384
  289MOL0     H38139  11.489   5.442   0.746 -0.9795  2.1462 -1.4162
  289MOL0     H38140  11.719   5.559   0.734 -1.8796 -0.4642  3.0630
  289MOL0     H38141  11.709   5.414   0.833 -0.1465 -0.7043 -0.5373
  289MOL0     H38142  11.779   5.274   0.616  1.3274  0.0402 -3.2449
  289MOL0     H38143  11.901   5.366   0.706  0.2113  2.3159  0.8251
  289MOL0     H38144  11.770   5.480   0.445 -1.5556 -1.0641  1.6566
  289MOL0     H38145  11.894   5.548   0.548  0.9968 -1.0541  3.6423
  289MOL0     H38146  12.104   5.225   0.359 -0.0620  0.1879 -0.1604
  289MOL0     H38147  11.438   5.712   0.471 -0.1865 -0.2738 -0.7868
  289MOL0     H38148  11.182   5.762   0.448 -0.5993  0.5790 -1.2383
  290MOL0     O38149   7.872   7.133   2.611  0.5029 -0.0132  0.1861
  290MOL0     C38150   7.899   7.225   2.535  0.0388 -0.4271 -0.0145
  290MOL0     O38151   7.809   7.316   2.478  0.1283  0.3029  0.2563
  290MOL0     C38152   7.679   7.261   2.456 -0.2681  0.3970  0.7238
  290MOL0     C38153   7.648   7.226   2.322  0.7630  0.6148 -0.2899
  290MOL0     C38154   7.528   7.160   2.304 -0.2079 -0.3575 -0.4688
  290MOL0     C38155   7.438   7.129   2.407  0.2760  0.3331 -0.1861
  290MOL0     O38156   7.327   7.035   2.400 -0.5734 -0.5821 -1.0186
  290MOL0     C38157   7.218   7.086   2.329 -0.1380 -0.4056  0.3880
  290MOL0     C38158   7.164   6.962   2.259  0.6804 -0.2440  0.3622
  290MOL0     C38159   7.028   6.990   2.177 -0.2410 -0.9061 -0.3799
  290MOL0     C38160   6.952   6.860   2.143  0.3908 -0.9836  0.0091
  290MOL0     C38161   6.802   6.875   2.180  0.4045  0.0839  0.4870
  290MOL0     C38162   6.779   6.829   2.324 -0.6019 -0.6917 -0.9354
  290MOL0     C38163   6.630   6.844   2.361 -0.6638  0.1153  0.0452
  290MOL0     C38164   6.566   6.984   2.384 -0.4127  0.5473 -0.2399
  290MOL0     N38165   6.659   7.062   2.470 -0.0472  0.3978  0.1989
  290MOL0     C38166   6.714   7.032   2.594 -0.1613 -0.1541  0.4787
  290MOL0     C38167   6.787   7.145   2.632 -0.8551  0.3385 -0.3437
  290MOL0     C38168   6.871   7.164   2.763  0.4391 -0.8699  0.3980
  290MOL0     C38169   7.009   7.228   2.736 -0.2643  0.1718  1.0102
  290MOL0     C38170   7.091   7.199   2.857 -0.0082 -0.6490 -0.2796
  290MOL0     C38171   7.237   7.259   2.852  0.4730  0.2637  0.1579
  290MOL0     O38172   7.307   7.183   2.958  0.3476  1.0140  0.4468
  290MOL0     C38173   7.438   7.212   2.973 -0.6810 -0.5203  0.6051
  290MOL0     C38174   7.511   7.155   3.075  0.6449  0.4161  0.1428
  290MOL0     C38175   7.642   7.183   3.094  0.0351  0.1520  0.4721
  290MOL0     C38176   7.712   7.278   3.018  0.0838  0.2075 -0.2966
  290MOL0     C38177   7.858   7.307   3.040  0.1590  0.3082  0.2650
  290MOL0     O38178   7.927   7.381   2.945 -0.0406  0.5742  0.4731
  290MOL0     C38179   8.061   7.384   2.961  0.6785  1.2754 -0.5437
  290MOL0     C38180   8.155   7.337   2.867  0.1554  0.4738 -0.6794
  290MOL0     C38181   8.290   7.339   2.879  1.3560  0.4195 -0.2916
  290MOL0     C38182   8.349   7.389   3.003  0.1807 -0.2443 -0.0413
  290MOL0     O38183   8.489   7.376   3.015 -0.3228  0.1777 -0.0787
  290MOL0     C38184   8.543   7.450   3.121  0.1865  0.1274 -0.2879
  290MOL0     C38185   8.697   7.458   3.134  0.5287  0.2099  0.4653
  290MOL0     C38186   8.745   7.502   2.995 -0.1313 -0.2561  0.3300
  290MOL0     C38187   8.890   7.544   3.000 -0.4732 -0.0847 -0.2629
  290MOL0     C38188   8.957   7.586   2.868  0.1519  0.7559  0.6165
  290MOL0     C38189   8.894   7.718   2.818  0.3849 -0.4014  0.0606
  290MOL0     C38190   8.957   7.763   2.682  0.1234 -0.5124 -0.2147
  290MOL0     C38191   9.090   7.831   2.702 -0.4041  0.0225  0.1460
  290MOL0    Cl38192   9.195   7.842   2.559  0.5410 -0.0267  0.1713
  290MOL0     C38193   8.256   7.436   3.098 -0.5875  0.2789 -0.0105
  290MOL0     C38194   8.115   7.442   3.071  1.1523  0.5346  0.0198
  290MOL0     O38195   7.917   7.236   3.122 -0.0042  0.2805  0.0086
  290MOL0     C38196   7.635   7.353   2.928 -0.7993 -0.2689  0.7158
  290MOL0     C38197   7.505   7.322   2.899  0.8336  0.2127 -0.6497
  290MOL0     N38198   6.758   7.242   2.537 -0.4343 -0.9400 -0.3605
  290MOL0     N38199   6.683   7.194   2.447 -0.3838  0.0538 -0.2301
  290MOL0     C38200   7.476   7.164   2.544  0.4701  0.1225  0.5969
  290MOL0     C38201   7.599   7.225   2.559  0.2926  0.4293 -0.7865
  290MOL0     C38202   8.048   7.242   2.496  0.0028 -0.0394  0.4588
  290MOL0     C38203   8.091   7.361   2.434  0.1688 -0.3206  0.6008
  290MOL0     C38204   8.222   7.387   2.398 -0.3146 -0.5661 -0.2480
  290MOL0     C38205   8.319   7.309   2.454  0.0623  0.2863  0.9776
  290MOL0     O38206   8.450   7.361   2.433  0.4260  0.4977  0.0071
  290MOL0     C38207   8.561   7.335   2.527  1.2752  1.0282  1.0956
  290MOL0     C38208   8.673   7.437   2.485 -0.2633  0.0998  0.4492
  290MOL0     C38209   8.717   7.414   2.339 -0.3421  0.2499  0.4511
  290MOL0     C38210   8.843   7.491   2.322  0.6064 -0.0573  0.2959
  290MOL0     C38211   8.960   7.440   2.392  0.3634 -0.1126 -0.5520
  290MOL0     C38212   9.066   7.414   2.453 -0.8295 -0.0356 -0.2614
  290MOL0     C38213   8.278   7.186   2.516 -0.3646  0.8288  0.7851
  290MOL0     C38214   8.150   7.150   2.538  0.5550  0.1968 -1.0909
  290MOL0     H38215   7.716   7.223   2.237 -0.3830 -1.3244 -1.2062
  290MOL0     H38216   7.511   7.121   2.204  1.4811 -0.0928 -0.8876
  290MOL0     H38217   7.246   7.163   2.257 -0.9091  0.8917  1.4293
  290MOL0     H38218   7.140   7.124   2.396 -1.3679  0.6091 -1.5338
  290MOL0     H38219   7.147   6.885   2.335 -0.5151 -1.8987 -1.5103
  290MOL0     H38220   7.247   6.923   2.200  1.0871  0.8006  0.2168
  290MOL0     H38221   7.056   7.038   2.083  0.4813 -1.8164 -0.6530
  290MOL0     H38222   6.960   7.051   2.237 -1.2382 -3.1326  0.8947
  290MOL0     H38223   6.947   6.847   2.034 -0.0876  1.2619 -0.2841
  290MOL0     H38224   6.995   6.769   2.186  0.8219 -1.0171 -0.4765
  290MOL0     H38225   6.739   6.814   2.114 -1.4783  1.8132  0.6113
  290MOL0     H38226   6.770   6.978   2.167 -1.2602 -0.5041 -0.3026
  290MOL0     H38227   6.844   6.881   2.396 -2.7860  1.6666 -0.5318
  290MOL0     H38228   6.800   6.723   2.342 -2.8490 -0.9873  0.2521
  290MOL0     H38229   6.576   6.795   2.279  3.1499 -0.9677 -2.0573
  290MOL0     H38230   6.623   6.781   2.450 -1.2418 -2.7309 -1.8379
  290MOL0     H38231   6.469   6.973   2.433 -0.7062 -1.2770 -1.1347
  290MOL0     H38232   6.550   7.046   2.295 -0.8177  0.7751 -0.0112
  290MOL0     H38233   6.715   6.939   2.649 -1.9646  0.0520  0.9123
  290MOL0     H38234   6.892   7.061   2.794 -0.7864 -1.5871 -0.9907
  290MOL0     H38235   6.818   7.226   2.836 -0.5773 -1.6513  0.3558
  290MOL0     H38236   7.004   7.333   2.707  3.2384  0.1253 -0.1491
  290MOL0     H38237   7.051   7.175   2.650 -1.9069 -0.4704  0.5613
  290MOL0     H38238   7.039   7.244   2.942 -0.2843 -0.1147 -0.7225
  290MOL0     H38239   7.094   7.091   2.875 -1.7474 -0.6291  0.3056
  290MOL0     H38240   7.239   7.366   2.873  0.0663  0.1860  0.6021
  290MOL0     H38241   7.280   7.238   2.754 -0.0689 -0.7400  0.1233
  290MOL0     H38242   7.460   7.080   3.134  1.2334 -1.1604 -1.2924
  290MOL0     H38243   7.698   7.114   3.156  0.3884 -0.4135 -0.4679
  290MOL0     H38244   8.118   7.302   2.770  0.6382  1.7087 -1.3272
  290MOL0     H38245   8.349   7.294   2.800  1.3834 -0.4958  0.2306
  290MOL0     H38246   8.515   7.393   3.209  0.9792  1.2611  0.7374
  290MOL0     H38247   8.507   7.553   3.134  1.6899  0.8116 -1.2421
  290MOL0     H38248   8.745   7.361   3.153 -1.9452 -1.2908 -0.5143
  290MOL0     H38249   8.721   7.529   3.214 -4.4078  0.2224  2.2778
  290MOL0     H38250   8.686   7.590   2.971  1.4605  1.0470  0.9722
  290MOL0     H38251   8.727   7.424   2.920 -3.5236 -1.6864  2.3883
  290MOL0     H38252   8.899   7.626   3.072 -0.3696 -0.7281  0.4749
  290MOL0     H38253   8.935   7.452   3.038 -1.3783 -1.4340 -2.2980
  290MOL0     H38254   8.943   7.510   2.791 -0.9980  3.3665 -1.9313
  290MOL0     H38255   9.063   7.597   2.892  0.2726  1.9904 -0.4140
  290MOL0     H38256   8.908   7.801   2.888 -3.0781  0.0301  0.4569
  290MOL0     H38257   8.785   7.705   2.819  0.3729 -0.3163  1.4026
  290MOL0     H38258   8.977   7.680   2.613 -0.0939  0.3647 -1.3675
  290MOL0     H38259   8.888   7.837   2.639  1.8770  1.0212 -0.5308
  290MOL0     H38260   9.150   7.770   2.770  1.5496  0.0490 -1.4671
  290MOL0     H38261   9.082   7.936   2.729  0.0943  0.8214 -2.4916
  290MOL0     H38262   8.283   7.455   3.201 -1.0843  0.6342  0.0591
  290MOL0     H38263   8.054   7.482   3.151  0.8442 -1.1871  0.7002
  290MOL0     H38264   7.687   7.425   2.865 -0.5549 -0.3852  0.7827
  290MOL0     H38265   7.463   7.371   2.811 -0.9099  2.1779  1.1854
  290MOL0     H38266   7.419   7.134   2.631 -0.4946 -1.7649 -0.6056
  290MOL0     H38267   7.644   7.252   2.653 -0.1389  0.4131 -0.5739
  290MOL0     H38268   8.009   7.426   2.405 -0.1044 -0.8041  0.2840
  290MOL0     H38269   8.245   7.480   2.347 -1.6601  0.1126  0.3284
  290MOL0     H38270   8.597   7.232   2.515 -2.0642  0.1116 -3.6534
  290MOL0     H38271   8.522   7.358   2.627 -0.1120 -1.5005  1.2256
  290MOL0     H38272   8.634   7.539   2.488  3.2872  1.6899 -1.3998
  290MOL0     H38273   8.755   7.434   2.557  2.2418 -2.1648 -2.2393
  290MOL0     H38274   8.636   7.449   2.275 -0.8853 -3.2185 -1.0054
  290MOL0     H38275   8.728   7.306   2.325 -3.5237 -0.1210 -0.1065
  290MOL0     H38276   8.865   7.494   2.215  3.4912 -2.1193  0.7262
  290MOL0     H38277   8.830   7.592   2.362  0.0187  0.1791 -0.4880
  290MOL0     H38278   9.150   7.391   2.515  1.1750  1.9101 -2.1010
  290MOL0     H38279   8.347   7.106   2.543 -0.2274  0.9403  0.7617
  290MOL0     H38280   8.124   7.051   2.573 -0.6135  0.1559 -2.0033
  291MOL0     O38281   7.846   0.909   5.736  0.2639 -0.0995  0.0411
  291MOL0     C38282   7.836   0.831   5.644  0.0015  0.5253  0.0917
  291MOL0     O38283   7.929   0.806   5.554  0.6418  0.3922  0.0877
  291MOL0     C38284   8.044   0.880   5.539  0.4573 -0.5758  1.0302
  291MOL0     C38285   8.162   0.808   5.537 -0.0137 -0.9161 -0.0141
  291MOL0     C38286   8.282   0.877   5.502  0.4966 -1.1306 -0.7409
  291MOL0     C38287   8.282   1.023   5.481 -1.5591 -0.0874  0.6665
  291MOL0     O38288   8.399   1.096   5.463  0.0216  0.8033 -0.6369
  291MOL0     C38289   8.511   1.051   5.528  0.1935 -1.4689 -0.1583
  291MOL0     C38290   8.607   1.177   5.543  0.3353 -0.4625 -0.3815
  291MOL0     C38291   8.739   1.138   5.594  0.3606  0.0780  0.4107
  291MOL0     C38292   8.819   1.256   5.624 -0.0986 -0.3984 -0.3962
  291MOL0     C38293   8.974   1.207   5.646  0.2383  0.2674 -0.2232
  291MOL0     C38294   9.047   1.288   5.747  0.0590 -0.0057 -0.1234
  291MOL0     C38295   9.106   1.410   5.665  0.0552 -0.0653 -0.6871
  291MOL0     C38296   9.189   1.505   5.757  0.6622  1.2112 -0.4219
  291MOL0     N38297   9.234   1.630   5.693 -0.5283  0.0725 -0.5588
  291MOL0     C38298   9.167   1.748   5.676 -0.5778  0.5690  0.0834
  291MOL0     C38299   9.265   1.829   5.627 -0.9290 -0.7872 -0.1183
  291MOL0     C38300   9.248   1.971   5.593  0.1324 -1.3219 -0.0754
  291MOL0     C38301   9.258   2.019   5.440  0.6373  0.3653 -0.2450
  291MOL0     C38302   9.163   1.949   5.345 -0.1554 -1.1375  0.3325
  291MOL0     C38303   9.016   1.957   5.366 -0.6171  0.3587 -0.5375
  291MOL0     O38304   8.952   1.909   5.251  0.0945 -0.1313  0.2506
  291MOL0     C38305   8.818   1.907   5.241  0.1063  0.6538  0.0017
  291MOL0     C38306   8.723   1.964   5.338 -0.2757 -0.5332  0.8340
  291MOL0     C38307   8.584   1.957   5.316  0.1790  0.2337 -0.1522
  291MOL0     C38308   8.533   1.888   5.204 -0.1908 -0.4666 -0.1761
  291MOL0     C38309   8.387   1.899   5.186 -0.3225 -0.0630  1.5084
  291MOL0     O38310   8.332   1.819   5.087  0.1716  0.4733 -0.1843
  291MOL0     C38311   8.189   1.815   5.070 -0.1686  0.9425 -0.0641
  291MOL0     C38312   8.123   1.905   4.988 -0.4347 -0.1568 -0.6258
  291MOL0     C38313   7.976   1.906   5.001 -0.2809 -1.3071  0.4302
  291MOL0     C38314   7.913   1.809   5.076  0.2061  0.9478  0.9834
  291MOL0     O38315   7.773   1.806   5.083  0.3937 -0.9656  0.1878
  291MOL0     C38316   7.690   1.844   4.974  0.3878  0.0811  0.1954
  291MOL0     C38317   7.546   1.807   5.002  0.3778  0.0649 -0.6122
  291MOL0     C38318   7.493   1.856   5.137  0.4083  1.5010 -0.5538
  291MOL0     C38319   7.346   1.854   5.148 -0.0829 -0.4737 -1.1676
  291MOL0     C38320   7.288   1.969   5.062  0.5439  0.5311 -0.2777
  291MOL0     C38321   7.131   1.967   5.099  0.7109 -0.5502  0.7191
  291MOL0     C38322   7.051   2.071   5.027 -0.0698  0.5459  0.2893
  291MOL0     C38323   6.902   2.041   5.022  0.3186  1.4516  1.0414
  291MOL0    Cl38324   6.863   1.941   4.866  0.5801  0.2594 -0.0735
  291MOL0     C38325   7.987   1.709   5.141 -0.3799  0.4116  0.1910
  291MOL0     C38326   8.118   1.715   5.140  0.4633  0.3715 -0.0271
  291MOL0     O38327   8.316   1.966   5.262 -0.2227 -0.2137  0.5792
  291MOL0     C38328   8.618   1.840   5.109 -0.2710  0.2836 -0.3089
  291MOL0     C38329   8.760   1.847   5.126  0.2306  0.2603  0.2400
  291MOL0     N38330   9.383   1.753   5.612 -0.5398 -0.6315  0.0496
  291MOL0     N38331   9.360   1.631   5.634 -0.4972  0.0418  0.0062
  291MOL0     C38332   8.157   1.084   5.472 -0.2458 -0.2077 -0.1795
  291MOL0     C38333   8.041   1.017   5.506 -0.3560 -0.1199  0.9913
  291MOL0     C38334   7.718   0.748   5.660 -0.4104  0.0034 -0.2635
  291MOL0     C38335   7.614   0.781   5.749  0.1542  0.0682  0.3107
  291MOL0     C38336   7.499   0.704   5.761  0.5515 -0.3392  0.3061
  291MOL0     C38337   7.492   0.581   5.700 -0.2951  0.0903 -1.0786
  291MOL0     O38338   7.383   0.504   5.751 -0.1016  0.5129 -0.0058
  291MOL0     C38339   7.302   0.442   5.649  0.0317  0.9664 -0.4851
  291MOL0     C38340   7.237   0.536   5.545 -0.0270 -0.2864  0.8324
  291MOL0     C38341   7.146   0.647   5.606 -0.4938 -0.3455  0.0429
  291MOL0     C38342   7.013   0.584   5.658  0.2917  0.1374  0.3128
  291MOL0     C38343   6.943   0.498   5.560  0.2672  1.2727 -0.9941
  291MOL0     C38344   6.874   0.429   5.483  0.2036 -0.1837 -0.8737
  291MOL0     C38345   7.601   0.542   5.615  0.5218  0.0729 -0.4357
  291MOL0     C38346   7.712   0.624   5.597  0.2864  0.5686  0.2220
  291MOL0     H38347   8.159   0.707   5.576  0.1761 -1.2016 -0.7284
  291MOL0     H38348   8.374   0.821   5.499  1.8997  0.9756  0.2709
  291MOL0     H38349   8.558   0.964   5.481 -2.2165 -2.1191 -1.4870
  291MOL0     H38350   8.478   1.008   5.623  3.8337 -3.8638  0.2452
  291MOL0     H38351   8.566   1.250   5.614  1.2324  0.3506 -0.6715
  291MOL0     H38352   8.621   1.240   5.455 -2.5497 -0.3479 -0.8398
  291MOL0     H38353   8.787   1.061   5.534 -2.3587 -0.2369 -1.5641
  291MOL0     H38354   8.729   1.085   5.689 -0.3037 -1.0856 -0.2936
  291MOL0     H38355   8.819   1.317   5.534 -2.9461 -0.9498 -0.8584
  291MOL0     H38356   8.781   1.308   5.712 -1.5188  2.6982 -2.6807
  291MOL0     H38357   9.036   1.200   5.557  3.0510 -1.5850  1.7202
  291MOL0     H38358   8.974   1.102   5.678 -0.2087 -0.4136 -2.2916
  291MOL0     H38359   9.132   1.235   5.792 -0.4487 -0.2411  0.5767
  291MOL0     H38360   8.980   1.321   5.827 -0.3532 -1.4637  0.1645
  291MOL0     H38361   9.180   1.369   5.596 -0.0984 -1.4770 -0.0391
  291MOL0     H38362   9.026   1.465   5.616 -2.2995 -1.8818  0.9125
  291MOL0     H38363   9.276   1.448   5.791  1.8300  2.0340 -1.8723
  291MOL0     H38364   9.123   1.517   5.843 -1.4567 -0.9436 -1.6356
  291MOL0     H38365   9.062   1.762   5.699 -0.9175  2.5397 -2.2796
  291MOL0     H38366   9.306   2.035   5.660 -0.4978 -1.6454  0.7943
  291MOL0     H38367   9.148   2.000   5.627 -0.2262  0.4051 -2.3895
  291MOL0     H38368   9.361   2.009   5.403  0.7846 -0.0621  0.2657
  291MOL0     H38369   9.228   2.124   5.432 -0.6498  0.0034 -0.4342
  291MOL0     H38370   9.186   1.984   5.244  0.9452 -1.6724  0.3828
  291MOL0     H38371   9.192   1.844   5.342 -0.1682 -1.2237  2.2265
  291MOL0     H38372   8.975   2.058   5.374 -2.0169 -0.1379 -0.9622
  291MOL0     H38373   8.993   1.900   5.456  0.2932 -0.2798 -0.6949
  291MOL0     H38374   8.761   2.007   5.430  2.1809 -3.8851  1.6080
  291MOL0     H38375   8.528   2.017   5.387  2.3692  1.1782  0.8951
  291MOL0     H38376   8.177   1.972   4.923  3.4244 -0.7491  1.6712
  291MOL0     H38377   7.912   1.981   4.955  0.8116 -0.9932 -0.6222
  291MOL0     H38378   7.718   1.795   4.880  0.3895 -0.2505  0.3659
  291MOL0     H38379   7.689   1.948   4.940  0.6167 -0.7789 -2.7164
  291MOL0     H38380   7.533   1.699   4.995 -0.4266 -0.1154  2.2311
  291MOL0     H38381   7.487   1.834   4.914 -2.4637 -1.4647  0.6723
  291MOL0     H38382   7.520   1.960   5.157 -0.6030  1.5654  0.6074
  291MOL0     H38383   7.541   1.792   5.212  4.8388  3.1976 -1.6407
  291MOL0     H38384   7.314   1.765   5.093 -1.6434  0.6046 -2.0926
  291MOL0     H38385   7.305   1.862   5.249  0.6113  1.2754 -0.9946
  291MOL0     H38386   7.310   1.967   4.955  2.2192 -1.2905  0.0447
  291MOL0     H38387   7.333   2.065   5.088 -0.8823  1.0294  0.4315
  291MOL0     H38388   7.108   1.989   5.204  0.9666 -0.8396  0.8371
  291MOL0     H38389   7.081   1.872   5.077 -0.9192  0.5435 -0.6000
  291MOL0     H38390   7.058   2.172   5.070 -0.8954  0.0492  1.6505
  291MOL0     H38391   7.083   2.068   4.922  0.6617 -1.3085  0.5286
  291MOL0     H38392   6.842   2.132   5.032  0.7770  1.5786  2.9355
  291MOL0     H38393   6.870   1.967   5.096  2.3991 -1.5210 -0.8145
  291MOL0     H38394   7.936   1.631   5.196 -3.3539  1.4984 -0.7943
  291MOL0     H38395   8.172   1.640   5.197  0.0913  0.2385  0.1599
  291MOL0     H38396   8.585   1.783   5.022 -1.0305 -0.1833  0.2676
  291MOL0     H38397   8.817   1.789   5.055 -1.3590  0.3352 -1.1588
  291MOL0     H38398   8.148   1.188   5.442 -0.4106  0.2660  1.4077
  291MOL0     H38399   7.944   1.065   5.498 -0.1213  0.3117  0.6824
  291MOL0     H38400   7.618   0.872   5.808  1.8245  1.2737 -1.5601
  291MOL0     H38401   7.415   0.732   5.824  0.6551 -0.1191  0.3471
  291MOL0     H38402   7.224   0.387   5.702  1.6543 -0.2399  0.7795
  291MOL0     H38403   7.360   0.366   5.596 -3.4706 -1.5727 -0.9788
  291MOL0     H38404   7.320   0.592   5.499  0.1374 -2.6101 -1.9708
  291MOL0     H38405   7.195   0.475   5.465  2.6123  0.1296 -1.0160
  291MOL0     H38406   7.131   0.703   5.513 -0.4870 -4.2962 -2.5436
  291MOL0     H38407   7.194   0.703   5.687 -0.1651 -1.1497  0.4142
  291MOL0     H38408   7.041   0.525   5.746  1.5814  0.7826  0.3588
  291MOL0     H38409   6.939   0.660   5.688 -0.1723  0.5014 -1.6201
  291MOL0     H38410   6.810   0.363   5.428 -1.6729 -1.3634  2.4350
  291MOL0     H38411   7.601   0.438   5.584  4.0230 -1.3659  3.4632
  291MOL0     H38412   7.800   0.595   5.541  0.3252  2.8668 -1.0159
  292MOL0     O38413   3.455   3.612  10.412 -0.0663  0.2286 -0.5593
  292MOL0     C38414   3.371   3.580  10.330  0.0782  0.1390  0.0057
  292MOL0     O38415   3.385   3.588  10.195  0.5806 -0.4224 -0.3862
  292MOL0     C38416   3.507   3.583  10.140  0.3716  0.5617  0.1523
  292MOL0     C38417   3.620   3.520  10.194 -0.2001 -0.1061  0.0629
  292MOL0     C38418   3.743   3.523  10.128 -0.1500  0.2701 -0.7572
  292MOL0     C38419   3.768   3.583  10.001 -0.7944 -0.4431 -0.1276
  292MOL0     O38420   3.896   3.585   9.952 -0.5657 -0.2176 -0.0296
  292MOL0     C38421   4.002   3.664  10.020  0.4626 -0.1121 -0.1458
  292MOL0     C38422   4.118   3.683   9.926 -0.6350 -0.5083 -0.2120
  292MOL0     C38423   4.192   3.549   9.900  0.5734 -1.0220 -0.0549
  292MOL0     C38424   4.328   3.566   9.824  1.3188 -0.6063 -0.0301
  292MOL0     C38425   4.414   3.440   9.833  0.6018 -0.5999  0.0016
  292MOL0     C38426   4.541   3.453   9.741  0.1712  1.2167 -0.5114
  292MOL0     C38427   4.639   3.344   9.773 -0.6102 -0.0388  0.9947
  292MOL0     C38428   4.748   3.343   9.673 -0.7923  0.4410  0.1597
  292MOL0     N38429   4.852   3.248   9.691  0.1977 -0.5828 -0.0098
  292MOL0     C38430   4.881   3.118   9.654 -1.2292 -0.4349 -0.5977
  292MOL0     C38431   4.996   3.091   9.711  0.5338 -0.0213 -0.4043
  292MOL0     C38432   5.064   2.964   9.674 -0.5557  0.8462  0.2450
  292MOL0     C38433   5.196   2.957   9.751  0.5671 -0.1056  0.0104
  292MOL0     C38434   5.303   3.058   9.697  1.3664  0.5804 -0.2300
  292MOL0     C38435   5.426   3.057   9.788 -0.8753  0.5896  0.1907
  292MOL0     O38436   5.532   3.127   9.711  0.1341  0.2560 -0.2383
  292MOL0     C38437   5.636   3.162   9.787 -0.2280  0.2555  0.4033
  292MOL0     C38438   5.741   3.229   9.712  0.8791 -0.0354 -0.3037
  292MOL0     C38439   5.855   3.277   9.783 -0.7912 -0.4366  0.2785
  292MOL0     C38440   5.876   3.245   9.914  0.1768 -0.5332  0.0334
  292MOL0     C38441   5.995   3.290   9.998  0.4537  0.1874  0.3829
  292MOL0     O38442   6.103   3.315   9.937 -0.3789 -0.4920  1.0542
  292MOL0     C38443   6.226   3.359   9.995  0.4414 -0.2409  0.0260
  292MOL0     C38444   6.336   3.279   9.962 -1.0306 -0.5174 -0.1423
  292MOL0     C38445   6.466   3.303  10.014  0.5894 -0.4220 -0.2723
  292MOL0     C38446   6.483   3.417  10.103 -0.0397  1.3125  0.6353
  292MOL0     O38447   6.604   3.449  10.165 -0.0112 -0.0929  0.5030
  292MOL0     C38448   6.721   3.409  10.087  0.1007  0.2553 -0.0497
  292MOL0     C38449   6.803   3.300  10.147  0.0728 -0.3816 -0.0058
  292MOL0     C38450   6.872   3.339  10.279  0.5846  0.4546 -1.0125
  292MOL0     C38451   6.978   3.444  10.266 -0.1271 -0.4842 -0.3849
  292MOL0     C38452   7.042   3.476  10.404 -0.5063 -0.4649 -0.0463
  292MOL0     C38453   7.169   3.566  10.389  0.6934  0.3256 -0.8265
  292MOL0     C38454   7.290   3.482  10.340 -0.7420 -0.0741 -0.1423
  292MOL0     C38455   7.413   3.555  10.391  0.7321  0.4130  0.1001
  292MOL0    Cl38456   7.556   3.476  10.304 -0.3200 -0.1193  0.0455
  292MOL0     C38457   6.375   3.485  10.146 -0.0287  0.1278 -0.3276
  292MOL0     C38458   6.249   3.457  10.096 -0.5266  1.2250  0.3133
  292MOL0     O38459   5.982   3.284  10.119  0.4932 -0.4645  0.0156
  292MOL0     C38460   5.775   3.168   9.980  1.3320 -0.7805 -0.6884
  292MOL0     C38461   5.656   3.125   9.923  0.3353 -0.9248  0.5802
  292MOL0     N38462   5.025   3.192   9.807  0.1805 -0.3960 -0.2935
  292MOL0     N38463   4.951   3.290   9.780  0.5690  0.5814 -0.1943
  292MOL0     C38464   3.647   3.638   9.933  0.2258  0.0768 -0.7355
  292MOL0     C38465   3.525   3.642  10.010 -0.1605  0.0278  0.7466
  292MOL0     C38466   3.236   3.551  10.371 -0.1198  0.0288 -0.0631
  292MOL0     C38467   3.121   3.576  10.288  0.3746 -0.0345  0.1703
  292MOL0     C38468   2.988   3.543  10.327  0.7244 -0.1056 -0.9601
  292MOL0     C38469   2.963   3.500  10.460 -0.9827 -0.0746 -0.1140
  292MOL0     O38470   2.841   3.490  10.515  0.2397 -0.2790  0.6640
  292MOL0     C38471   2.732   3.504  10.424 -0.1999 -0.1309  0.3719
  292MOL0     C38472   2.598   3.486  10.498  0.0966  0.6515  0.3771
  292MOL0     C38473   2.486   3.463  10.392 -0.0310  0.4074 -0.2949
  292MOL0     C38474   2.368   3.405  10.466  0.4141 -0.5945 -0.5505
  292MOL0     C38475   2.250   3.376  10.376 -0.0415  0.8214  0.2119
  292MOL0     C38476   2.168   3.335  10.299  0.4818  0.6602 -0.1506
  292MOL0     C38477   3.071   3.468  10.538  0.5063 -0.4803 -0.6999
  292MOL0     C38478   3.207   3.493  10.494 -0.1162 -0.2877 -0.1214
  292MOL0     H38479   3.609   3.470  10.290  0.9951  1.2151  0.9260
  292MOL0     H38480   3.831   3.484  10.179  1.5346 -0.3283 -3.8411
  292MOL0     H38481   4.035   3.621  10.114 -0.1042 -2.3264 -0.8931
  292MOL0     H38482   3.959   3.761  10.046  2.2486  0.1586  2.1229
  292MOL0     H38483   4.193   3.748   9.971 -3.0238  1.4794  1.1066
  292MOL0     H38484   4.095   3.726   9.828  2.5442 -0.7625 -1.1995
  292MOL0     H38485   4.125   3.484   9.843  3.0857 -2.0987 -1.9902
  292MOL0     H38486   4.219   3.500   9.994  0.3136 -0.9928  0.0368
  292MOL0     H38487   4.304   3.577   9.718 -0.7319 -1.0680  0.3482
  292MOL0     H38488   4.386   3.652   9.860 -0.0859 -0.1074  1.1390
  292MOL0     H38489   4.356   3.357   9.790 -0.6317 -0.0656  0.5652
  292MOL0     H38490   4.452   3.407   9.929 -0.4548 -0.4942  0.4731
  292MOL0     H38491   4.593   3.549   9.751 -1.0794  1.7478  1.5843
  292MOL0     H38492   4.516   3.444   9.635 -0.1097 -0.7748 -0.3070
  292MOL0     H38493   4.684   3.357   9.872 -1.3500  4.2145  0.9641
  292MOL0     H38494   4.594   3.246   9.756  1.3534 -0.9458  0.7848
  292MOL0     H38495   4.787   3.445   9.677  1.7515 -0.3880 -1.3809
  292MOL0     H38496   4.701   3.337   9.575 -0.0567  0.4877 -0.2043
  292MOL0     H38497   4.842   3.060   9.571  1.6160  0.6220 -2.8133
  292MOL0     H38498   5.097   2.971   9.569 -1.3063 -0.1181 -0.0697
  292MOL0     H38499   5.004   2.874   9.685  1.4855 -0.8552 -1.5211
  292MOL0     H38500   5.237   2.857   9.734  0.7573 -0.3317  1.5708
  292MOL0     H38501   5.179   2.974   9.858  0.5764 -2.1337  0.3821
  292MOL0     H38502   5.336   3.023   9.599 -1.0285 -1.2913 -0.4815
  292MOL0     H38503   5.272   3.163   9.697  0.3632  0.2965 -0.9175
  292MOL0     H38504   5.455   2.958   9.824  0.4890  0.3437 -1.4632
  292MOL0     H38505   5.404   3.114   9.878 -3.7170 -2.5842  1.7326
  292MOL0     H38506   5.737   3.244   9.605  2.9966 -0.5381 -0.5009
  292MOL0     H38507   5.929   3.327   9.721 -0.3355 -1.3755  0.0400
  292MOL0     H38508   6.324   3.194   9.896 -2.8411  1.4882 -2.6283
  292MOL0     H38509   6.544   3.239   9.974  0.9908 -0.1055 -0.0040
  292MOL0     H38510   6.792   3.491  10.088 -0.1823  0.4986  0.5832
  292MOL0     H38511   6.695   3.391   9.982  1.7957  1.3188 -0.6900
  292MOL0     H38512   6.879   3.268  10.075 -0.4862  0.6759 -1.1181
  292MOL0     H38513   6.731   3.218  10.153  0.5259 -0.9778 -1.9020
  292MOL0     H38514   6.930   3.253  10.312 -0.4886  0.6994  1.8059
  292MOL0     H38515   6.814   3.368  10.367  1.5268  2.2138 -0.9117
  292MOL0     H38516   7.051   3.410  10.192  2.0156 -0.7001  1.7078
  292MOL0     H38517   6.924   3.533  10.234 -2.0577 -1.1492  0.8165
  292MOL0     H38518   7.074   3.384  10.455 -2.3526 -1.0874  0.0647
  292MOL0     H38519   6.976   3.530  10.472 -0.2043  1.1038 -0.9501
  292MOL0     H38520   7.195   3.606  10.487 -0.0151 -2.2532  0.4990
  292MOL0     H38521   7.151   3.658  10.333 -2.3458  0.4165  0.1013
  292MOL0     H38522   7.284   3.386  10.394  0.3208 -0.8902 -1.4131
  292MOL0     H38523   7.284   3.455  10.234 -0.2198  0.4889 -0.3205
  292MOL0     H38524   7.424   3.541  10.499 -1.9951 -1.4402  0.2320
  292MOL0     H38525   7.414   3.660  10.359  0.5125  0.3304 -0.1806
  292MOL0     H38526   6.379   3.561  10.223 -2.2486 -1.4371  1.4683
  292MOL0     H38527   6.182   3.534  10.133 -2.1709  0.3593 -0.7448
  292MOL0     H38528   5.782   3.135  10.083 -4.3230  0.8886  0.5845
  292MOL0     H38529   5.589   3.064   9.984  0.1844 -1.2196  0.1206
  292MOL0     H38530   3.654   3.696   9.842 -2.4178 -0.2520 -1.2281
  292MOL0     H38531   3.440   3.700   9.974 -0.4921  2.2410  4.5901
  292MOL0     H38532   3.131   3.622  10.190 -0.1344  0.7404  0.4706
  292MOL0     H38533   2.907   3.562  10.258 -0.2428 -2.2150 -0.4984
  292MOL0     H38534   2.737   3.433  10.341  3.0929  0.8452 -0.4163
  292MOL0     H38535   2.717   3.603  10.378  0.3952 -1.1757 -2.2357
  292MOL0     H38536   2.607   3.404  10.569  0.5952 -0.8567 -1.3518
  292MOL0     H38537   2.566   3.583  10.538  4.6865  2.9920 -0.9187
  292MOL0     H38538   2.515   3.401  10.306 -2.3962  0.7037 -1.3926
  292MOL0     H38539   2.452   3.557  10.347  2.8944  0.7082 -2.1146
  292MOL0     H38540   2.393   3.309  10.511  1.6532 -1.1824 -2.3690
  292MOL0     H38541   2.332   3.467  10.548  0.4558 -0.7189 -0.4372
  292MOL0     H38542   2.090   3.312  10.229  0.4481  1.8167 -0.5046
  292MOL0     H38543   3.053   3.435  10.640 -0.3976  2.6545  0.2617
  292MOL0     H38544   3.291   3.477  10.561  2.3353 -2.5319 -3.4719
  293MOL0     O38545   5.361   5.895   8.149 -0.7267  0.4245  0.8019
  293MOL0     C38546   5.348   5.792   8.226 -0.0729  0.4643 -0.1276
  293MOL0     O38547   5.227   5.743   8.263  0.8107 -0.1849  0.3828
  293MOL0     C38548   5.122   5.835   8.258 -0.5777  0.9125 -0.7628
  293MOL0     C38549   5.068   5.860   8.378 -0.3250  0.2338  0.4189
  293MOL0     C38550   4.956   5.934   8.399 -0.1498 -0.3052  0.0116
  293MOL0     C38551   4.886   5.976   8.288  0.7738  0.6107  1.1802
  293MOL0     O38552   4.777   6.052   8.288  0.5544 -0.1686 -0.3144
  293MOL0     C38553   4.686   6.029   8.402 -0.1529 -0.3547 -0.1727
  293MOL0     C38554   4.541   6.094   8.395 -0.5173 -0.4653  0.0220
  293MOL0     C38555   4.550   6.244   8.434  0.0003 -0.5828 -0.1664
  293MOL0     C38556   4.601   6.337   8.323 -0.1844 -0.0783 -1.1360
  293MOL0     C38557   4.644   6.475   8.379 -0.3385 -0.9046 -0.0037
  293MOL0     C38558   4.620   6.578   8.258  0.4062 -0.4536  0.8571
  293MOL0     C38559   4.474   6.621   8.257 -0.3080 -0.7225 -0.1016
  293MOL0     C38560   4.432   6.697   8.386  0.9911 -0.1156 -1.3449
  293MOL0     N38561   4.297   6.747   8.383  0.3769 -0.0447 -0.0067
  293MOL0     C38562   4.269   6.882   8.360  1.1580 -0.6641 -0.5082
  293MOL0     C38563   4.131   6.887   8.329 -0.2927 -0.0196 -0.4537
  293MOL0     C38564   4.052   7.015   8.289 -0.1066  0.1048 -0.3207
  293MOL0     C38565   3.908   7.013   8.329  0.2005 -0.2314  0.4315
  293MOL0     C38566   3.842   7.157   8.291 -0.5208 -0.4049 -0.1581
  293MOL0     C38567   3.692   7.170   8.321  1.4730 -0.6451 -0.0200
  293MOL0     O38568   3.616   7.086   8.240  0.2870 -0.1562 -0.5741
  293MOL0     C38569   3.479   7.085   8.255  0.4588 -0.1533 -0.5112
  293MOL0     C38570   3.426   6.961   8.286 -0.8101  0.1949 -0.4435
  293MOL0     C38571   3.284   6.948   8.301  0.7867  0.0029  0.8378
  293MOL0     C38572   3.202   7.065   8.295  0.0394 -0.8623  0.4169
  293MOL0     C38573   3.053   7.057   8.320  0.4001  0.5317  0.7021
  293MOL0     O38574   2.967   7.138   8.260 -0.5590 -0.1824  0.2500
  293MOL0     C38575   2.834   7.153   8.287  0.2897  0.9395  1.1653
  293MOL0     C38576   2.782   7.276   8.253 -1.7180  0.6708 -0.2140
  293MOL0     C38577   2.661   7.315   8.300  1.1980  0.6259  0.8852
  293MOL0     C38578   2.577   7.230   8.374  0.1456 -0.2490  0.2758
  293MOL0     O38579   2.456   7.269   8.427  0.7549  0.4491  0.5779
  293MOL0     C38580   2.367   7.347   8.345 -0.6504 -0.5353  0.6222
  293MOL0     C38581   2.228   7.366   8.396 -0.2481  0.7772  0.5580
  293MOL0     C38582   2.154   7.447   8.289  0.6484 -0.2661 -0.1980
  293MOL0     C38583   2.004   7.475   8.340 -0.0696 -0.5010 -0.8117
  293MOL0     C38584   1.920   7.517   8.215  0.7698 -0.0267  0.1485
  293MOL0     C38585   1.792   7.571   8.273 -0.0428  0.3615 -0.3107
  293MOL0     C38586   1.689   7.549   8.167  0.0447  0.1686 -0.1372
  293MOL0     C38587   1.553   7.604   8.233  0.5261  0.0106  0.1989
  293MOL0    Cl38588   1.414   7.529   8.143  0.1855  0.2965  0.1514
  293MOL0     C38589   2.623   7.104   8.403  0.1668 -0.0402  1.2331
  293MOL0     C38590   2.750   7.062   8.352  0.0441 -0.4221  0.0189
  293MOL0     O38591   3.018   6.982   8.403  0.4005 -0.3746 -0.7516
  293MOL0     C38592   3.260   7.188   8.270 -0.4276  0.3448  0.8976
  293MOL0     C38593   3.395   7.198   8.238  0.0972 -0.5401 -1.0144
  293MOL0     N38594   4.086   6.756   8.343  0.6991  0.3209 -0.7741
  293MOL0     N38595   4.180   6.676   8.371  0.0764  0.6045  0.8465
  293MOL0     C38596   4.939   5.958   8.158  0.7863  0.0411 -0.4200
  293MOL0     C38597   5.058   5.894   8.148 -0.7595  0.5859  1.0023
  293MOL0     C38598   5.472   5.716   8.260  0.4421  0.2786  0.2575
  293MOL0     C38599   5.594   5.722   8.193  0.3859 -0.2864 -0.2799
  293MOL0     C38600   5.700   5.651   8.241 -0.1010 -0.3314 -0.4364
  293MOL0     C38601   5.703   5.565   8.350 -0.6830 -0.3022  0.0287
  293MOL0     O38602   5.815   5.497   8.387  0.1071  0.2850  0.2406
  293MOL0     C38603   5.950   5.522   8.328  0.2096  0.6412  0.8114
  293MOL0     C38604   6.063   5.492   8.417  0.2252 -0.0454 -0.3113
  293MOL0     C38605   6.062   5.579   8.552  0.4827 -0.3147  0.1549
  293MOL0     C38606   6.124   5.724   8.535  0.4499  0.3929  0.9879
  293MOL0     C38607   6.271   5.712   8.509 -0.6292  0.4527 -0.0381
  293MOL0     C38608   6.384   5.678   8.478  0.4287 -0.7571 -0.1623
  293MOL0     C38609   5.577   5.560   8.416 -0.4697  0.6910 -1.6175
  293MOL0     C38610   5.462   5.640   8.375  0.6277 -0.4191  0.6701
  293MOL0     H38611   5.107   5.810   8.467 -1.4394  0.9158  1.3147
  293MOL0     H38612   4.938   5.957   8.503  1.6379  3.0977 -0.2782
  293MOL0     H38613   4.732   6.069   8.493 -0.7495 -2.2364  1.0177
  293MOL0     H38614   4.698   5.923   8.426  0.7709 -0.4096 -0.8033
  293MOL0     H38615   4.464   6.032   8.442 -1.5963 -0.3192 -1.4720
  293MOL0     H38616   4.519   6.094   8.288  2.2679 -2.4325 -0.6535
  293MOL0     H38617   4.620   6.269   8.514  1.2659  1.0219 -1.6837
  293MOL0     H38618   4.453   6.283   8.467  0.5508 -0.5694  1.5289
  293MOL0     H38619   4.673   6.287   8.259  2.0646  0.9817  0.4301
  293MOL0     H38620   4.512   6.347   8.260 -2.9580 -1.1564  2.2489
  293MOL0     H38621   4.753   6.474   8.394 -0.3329 -4.4215  0.6049
  293MOL0     H38622   4.599   6.494   8.476 -0.8157 -0.6230 -0.2748
  293MOL0     H38623   4.636   6.530   8.161  2.5038  1.1830  0.3305
  293MOL0     H38624   4.689   6.662   8.260 -0.3139  0.1719  0.2288
  293MOL0     H38625   4.481   6.704   8.187  4.8995  0.2200  1.0910
  293MOL0     H38626   4.408   6.543   8.219  3.1058 -3.9387 -0.0378
  293MOL0     H38627   4.500   6.775   8.423  1.9241 -0.3282 -2.5425
  293MOL0     H38628   4.439   6.630   8.471  1.2584  2.2906  0.6587
  293MOL0     H38629   4.331   6.971   8.358 -1.0481  0.9304 -1.2237
  293MOL0     H38630   4.061   7.036   8.182  0.0428  1.1277 -0.1128
  293MOL0     H38631   4.097   7.104   8.332 -0.0377 -0.1803  0.2024
  293MOL0     H38632   3.908   6.990   8.436  1.6857 -0.5824  0.3791
  293MOL0     H38633   3.851   6.935   8.278  0.1571  0.2616 -0.2909
  293MOL0     H38634   3.901   7.235   8.341 -2.0997  0.5829  0.2178
  293MOL0     H38635   3.848   7.184   8.185 -0.9305 -0.3047 -0.1553
  293MOL0     H38636   3.654   7.270   8.302  0.4797 -1.3065 -1.6617
  293MOL0     H38637   3.665   7.147   8.425 -0.7336  0.9286 -0.1845
  293MOL0     H38638   3.497   6.879   8.300 -2.1365 -0.7397  1.3472
  293MOL0     H38639   3.239   6.852   8.324  2.8809 -1.3767 -0.5007
  293MOL0     H38640   2.838   7.346   8.192 -2.1517  1.0342 -0.2015
  293MOL0     H38641   2.633   7.420   8.290  1.7649  0.5538 -2.7914
  293MOL0     H38642   2.366   7.306   8.244 -0.3732  0.1260  0.3430
  293MOL0     H38643   2.414   7.445   8.334 -3.0007  0.7421  1.3294
  293MOL0     H38644   2.227   7.424   8.489 -2.2082  1.9797 -0.1469
  293MOL0     H38645   2.182   7.268   8.408 -1.1167  0.8364 -1.7247
  293MOL0     H38646   2.160   7.407   8.188  4.3076 -1.6785  0.4367
  293MOL0     H38647   2.206   7.543   8.284  0.6154 -0.2906 -1.4360
  293MOL0     H38648   1.959   7.393   8.397  1.0268  0.6662  1.9488
  293MOL0     H38649   2.003   7.563   8.406  0.7947 -2.2809  1.7797
  293MOL0     H38650   1.913   7.425   8.156 -0.2459  1.2609 -1.8727
  293MOL0     H38651   1.990   7.581   8.160 -0.6355  1.5084  0.0568
  293MOL0     H38652   1.815   7.674   8.301  2.0379 -0.5564  1.6135
  293MOL0     H38653   1.756   7.512   8.358 -0.0159  1.4164  0.4519
  293MOL0     H38654   1.712   7.601   8.074 -2.5190  0.4089 -0.7086
  293MOL0     H38655   1.682   7.444   8.138  2.2544  0.2342 -1.1329
  293MOL0     H38656   1.538   7.712   8.221 -0.6427 -0.4294 -3.8205
  293MOL0     H38657   1.541   7.580   8.339  2.9758 -2.2345  0.0563
  293MOL0     H38658   2.575   7.034   8.470 -3.2173  1.4930  0.6199
  293MOL0     H38659   2.784   6.960   8.363 -1.3128 -0.8529  0.3177
  293MOL0     H38660   3.193   7.273   8.259  0.1391  0.7752  0.7437
  293MOL0     H38661   3.449   7.283   8.197  0.2665 -0.2713 -0.2520
  293MOL0     H38662   4.881   5.991   8.073  0.2817  0.9587  0.2599
  293MOL0     H38663   5.112   5.884   8.054  1.2326 -0.1196  2.1812
  293MOL0     H38664   5.602   5.790   8.109 -3.2476  1.2509  0.4448
  293MOL0     H38665   5.787   5.663   8.177 -1.9387 -0.3841 -3.1226
  293MOL0     H38666   5.969   5.625   8.298  0.4729  0.5209  0.5548
  293MOL0     H38667   5.963   5.457   8.241 -0.5584  2.6546 -0.8903
  293MOL0     H38668   6.044   5.385   8.431 -1.3590  0.4579  2.0370
  293MOL0     H38669   6.161   5.499   8.369  0.7062  0.6337  0.7531
  293MOL0     H38670   6.124   5.527   8.626 -1.0693 -1.3832  0.7492
  293MOL0     H38671   5.959   5.586   8.588 -0.1147 -1.3897 -1.2665
  293MOL0     H38672   6.071   5.777   8.456 -0.2515  0.5700  1.5702
  293MOL0     H38673   6.108   5.787   8.623 -1.0024  3.4914 -1.2930
  293MOL0     H38674   6.480   5.642   8.447  0.5911  1.4852 -2.5843
  293MOL0     H38675   5.577   5.500   8.507 -1.5528  1.1709 -1.2815
  293MOL0     H38676   5.366   5.621   8.422  0.0034 -1.5844 -0.9912
  294MOL0     O38677   3.427   8.781   9.469  0.5333  0.7471 -0.2000
  294MOL0     C38678   3.485   8.714   9.390  1.0733  0.0165 -0.9804
  294MOL0     O38679   3.453   8.578   9.362 -0.3556 -0.2834  0.3616
  294MOL0     C38680   3.335   8.540   9.412  0.1659 -0.4777  0.8401
  294MOL0     C38681   3.215   8.596   9.375 -0.3181 -0.3594 -0.0684
  294MOL0     C38682   3.101   8.550   9.441  0.0280 -0.1305 -0.3539
  294MOL0     C38683   3.102   8.440   9.523  0.1233  0.1179 -0.6389
  294MOL0     O38684   2.992   8.397   9.592 -0.0569  0.4438 -0.0914
  294MOL0     C38685   2.937   8.271   9.547  0.4569  0.4044  0.2682
  294MOL0     C38686   2.840   8.218   9.657 -0.5365 -0.3459  1.0518
  294MOL0     C38687   2.735   8.324   9.694 -1.0329  0.9719 -0.2688
  294MOL0     C38688   2.615   8.264   9.784  0.1194 -0.5626  0.0837
  294MOL0     C38689   2.579   8.378   9.891  0.2740  0.1692  0.1606
  294MOL0     C38690   2.516   8.498   9.824  0.1697  0.2500  0.3699
  294MOL0     C38691   2.371   8.480   9.777  0.4611 -0.7566 -0.1132
  294MOL0     C38692   2.310   8.597   9.696 -1.7015  0.5603 -0.9545
  294MOL0     N38693   2.168   8.564   9.670  0.0303  0.8710  0.3478
  294MOL0     C38694   2.071   8.580   9.769  0.5730  0.6230 -0.4170
  294MOL0     C38695   1.952   8.570   9.713  1.0219 -0.2445  0.1776
  294MOL0     C38696   1.822   8.556   9.780  0.5512  0.1642  0.2554
  294MOL0     C38697   1.790   8.692   9.842  0.8390 -0.1002  0.2802
  294MOL0     C38698   1.643   8.696   9.886 -0.2730  0.9856  0.0985
  294MOL0     C38699   1.552   8.714   9.763 -0.1352 -0.6214 -1.3874
  294MOL0     O38700   1.416   8.744   9.788 -0.4831 -0.7279 -0.0062
  294MOL0     C38701   1.327   8.644   9.768  0.4256  0.5101 -1.2492
  294MOL0     C38702   1.203   8.698   9.756  0.7669  0.5936  0.5240
  294MOL0     C38703   1.090   8.608   9.741 -0.3103 -0.1998 -0.0252
  294MOL0     C38704   1.095   8.466   9.767 -0.4151  0.2799 -0.5348
  294MOL0     C38705   0.974   8.389   9.797 -0.4012  1.9750  0.1933
  294MOL0     O38706   0.862   8.461   9.810  0.1431  0.0891 -0.2444
  294MOL0     C38707   0.744   8.403   9.850 -0.5769  0.4750 -0.5484
  294MOL0     C38708   0.638   8.449   9.780  0.1363 -1.1925 -0.0747
  294MOL0     C38709   0.506   8.401   9.810  1.1819 -0.6903  0.2929
  294MOL0     C38710   0.488   8.295   9.900  0.1014 -1.0159  0.1478
  294MOL0     O38711   0.359   8.264   9.916  0.7390 -0.4236 -0.0777
  294MOL0     C38712   0.325   8.187  10.034 -0.2952  0.8941 -0.3083
  294MOL0     C38713   0.319   8.026  10.013  0.0384  0.7428 -0.0747
  294MOL0     C38714   0.213   7.953  10.096  0.1187 -0.1242 -0.0964
  294MOL0     C38715   0.157   7.836  10.012 -1.0754 -0.1161 -0.0655
  294MOL0     C38716   0.031   7.791  10.081  0.6248  0.4041 -0.3214
  294MOL0     C38717   0.037   7.723  10.222  0.3549 -0.7956 -0.6253
  294MOL0     C38718   0.110   7.595  10.229 -0.5049  0.2354 -0.1204
  294MOL0     C38719   0.123   7.547  10.376 -0.0904  0.8553  0.2703
  294MOL0    Cl38720   0.261   7.436  10.378  0.5815 -0.0830  0.1117
  294MOL0     C38721   0.603   8.235   9.959  0.2601 -0.5571 -0.3040
  294MOL0     C38722   0.727   8.308   9.949 -0.6304 -0.1988  0.4597
  294MOL0     O38723   0.983   8.266   9.815  0.0880 -0.0807 -0.1668
  294MOL0     C38724   1.226   8.418   9.779 -0.1421  0.0889  0.0612
  294MOL0     C38725   1.342   8.501   9.772  0.1019 -0.1180  0.5117
  294MOL0     N38726   1.972   8.535   9.579 -0.1423 -0.6439  0.0317
  294MOL0     N38727   2.099   8.533   9.556  0.1949 -0.3952  0.2150
  294MOL0     C38728   3.222   8.384   9.555 -0.1463  0.7590  0.1490
  294MOL0     C38729   3.343   8.431   9.495  0.2083 -0.4249 -0.3351
  294MOL0     C38730   3.593   8.767   9.325  0.2932 -0.5616 -0.1855
  294MOL0     C38731   3.664   8.877   9.378  0.1319 -0.6244 -0.3363
  294MOL0     C38732   3.775   8.928   9.311 -0.3638 -0.2151  0.2087
  294MOL0     C38733   3.819   8.877   9.189 -0.4221  0.2054 -0.1637
  294MOL0     O38734   3.933   8.913   9.126  0.3376  0.0536  0.0515
  294MOL0     C38735   3.927   9.048   9.074  0.6209  0.2930  0.3068
  294MOL0     C38736   4.043   9.086   8.977 -0.2485  0.4724 -0.5383
  294MOL0     C38737   4.168   9.075   9.057 -0.1947 -0.3172 -0.0557
  294MOL0     C38738   4.299   9.115   8.990  0.3562  0.8315  0.4398
  294MOL0     C38739   4.298   9.228   8.898  0.6162 -0.1906 -0.9891
  294MOL0     C38740   4.295   9.324   8.822 -0.2988 -0.1527  0.2023
  294MOL0     C38741   3.746   8.769   9.139  0.1722 -0.8046  0.0834
  294MOL0     C38742   3.639   8.716   9.204  0.0687  0.0608  0.7010
  294MOL0     H38743   3.219   8.692   9.324  1.9343  0.4389  1.4392
  294MOL0     H38744   3.008   8.595   9.408  0.6407 -0.9931 -3.7153
  294MOL0     H38745   3.019   8.201   9.531  1.5292  1.9207 -1.2304
  294MOL0     H38746   2.884   8.290   9.453 -0.2023 -4.5664 -0.6517
  294MOL0     H38747   2.896   8.195   9.748  1.2201 -0.9842 -0.1271
  294MOL0     H38748   2.801   8.124   9.616  0.0470 -0.6655  1.2149
  294MOL0     H38749   2.693   8.370   9.604 -1.1493 -0.8602 -1.1968
  294MOL0     H38750   2.789   8.406   9.742  2.3466  0.4637 -2.8775
  294MOL0     H38751   2.531   8.223   9.728  0.5511  1.2128 -2.0146
  294MOL0     H38752   2.662   8.181   9.839 -0.4459 -1.3702 -0.6264
  294MOL0     H38753   2.667   8.412   9.946  0.9243 -0.6407 -0.3638
  294MOL0     H38754   2.521   8.328   9.969  1.9799  0.2148  1.5067
  294MOL0     H38755   2.578   8.526   9.739  0.8887 -1.2366  0.3704
  294MOL0     H38756   2.523   8.581   9.895 -4.7553  0.1990  1.2150
  294MOL0     H38757   2.365   8.390   9.715  0.8065 -0.3424 -0.7597
  294MOL0     H38758   2.310   8.470   9.867  1.6751 -2.1179  0.5943
  294MOL0     H38759   2.381   8.609   9.614  0.9736 -0.4302  1.0606
  294MOL0     H38760   2.316   8.688   9.756 -2.3667 -0.2564  0.4031
  294MOL0     H38761   2.088   8.607   9.872 -1.5710 -1.7123  0.6703
  294MOL0     H38762   1.822   8.484   9.863  1.3288 -0.5882 -0.3817
  294MOL0     H38763   1.747   8.536   9.703  2.2060  2.1822 -2.0431
  294MOL0     H38764   1.800   8.776   9.773 -0.5424  1.3152  1.6906
  294MOL0     H38765   1.849   8.711   9.933  1.6742 -2.5297  0.3236
  294MOL0     H38766   1.619   8.606   9.943 -0.0719  0.4345 -0.6670
  294MOL0     H38767   1.625   8.783   9.949  2.5193  1.8261 -0.1214
  294MOL0     H38768   1.568   8.637   9.687  0.9539  1.0687 -2.9551
  294MOL0     H38769   1.579   8.802   9.704 -0.5348  2.3866  2.5122
  294MOL0     H38770   1.194   8.803   9.728  0.7297  1.0295  2.0818
  294MOL0     H38771   1.006   8.659   9.695  1.5945  0.3443 -3.1607
  294MOL0     H38772   0.665   8.529   9.712  1.4665 -1.9121 -0.4372
  294MOL0     H38773   0.423   8.447   9.758 -0.8736 -1.8274  2.3505
  294MOL0     H38774   0.228   8.227  10.068  0.4004  2.3077  0.0813
  294MOL0     H38775   0.386   8.207  10.123 -0.3385 -4.2938  1.1818
  294MOL0     H38776   0.414   7.979  10.037 -0.6506 -2.8469 -3.4055
  294MOL0     H38777   0.300   8.002   9.908  0.2382 -0.8453  0.2357
  294MOL0     H38778   0.127   8.016  10.119  0.2137  0.7649 -1.9849
  294MOL0     H38779   0.255   7.922  10.192 -2.2913  0.3038  1.1531
  294MOL0     H38780   0.114   7.878   9.920 -1.0402  0.1582  0.0424
  294MOL0     H38781   0.235   7.760  10.006 -0.1740  0.4785  2.7522
  294MOL0     H38782  -0.024   7.722  10.016  2.8693 -1.4859 -0.3451
  294MOL0     H38783  -0.030   7.878  10.104 -0.0117 -0.6358  2.3172
  294MOL0     H38784  -0.068   7.710  10.250  0.5841 -0.1792  0.5652
  294MOL0     H38785   0.080   7.793  10.295  1.1478 -3.8714  2.0825
  294MOL0     H38786   0.054   7.531  10.160  1.3025  1.2390 -2.6797
  294MOL0     H38787   0.210   7.604  10.187 -0.9320  1.8555 -0.9006
  294MOL0     H38788   0.028   7.504  10.410  0.1564  1.1835  1.4043
  294MOL0     H38789   0.136   7.634  10.440 -1.0881  0.0020  1.7042
  294MOL0     H38790   0.599   8.146  10.021 -2.1419  0.3036  0.8849
  294MOL0     H38791   0.806   8.254  10.000 -0.9469 -1.8266 -0.6612
  294MOL0     H38792   1.225   8.316   9.815 -5.3477 -0.2568 -0.2435
  294MOL0     H38793   1.440   8.454   9.771  1.2896  2.1035  2.4390
  294MOL0     H38794   3.239   8.321   9.642  1.4005  0.2343 -0.5046
  294MOL0     H38795   3.438   8.384   9.518  0.6288  0.2022 -0.7646
  294MOL0     H38796   3.635   8.929   9.468  0.1158 -1.5370  0.1961
  294MOL0     H38797   3.823   9.013   9.359  2.9434 -0.7482 -1.8608
  294MOL0     H38798   3.923   9.121   9.155 -3.5584 -0.0493  0.6359
  294MOL0     H38799   3.830   9.070   9.028  1.2289  2.2312 -0.1464
  294MOL0     H38800   4.050   9.010   8.899  1.0374 -1.8038  1.6311
  294MOL0     H38801   4.022   9.178   8.923  0.7462  0.1907 -1.4211
  294MOL0     H38802   4.179   8.968   9.076 -1.0962 -0.5967 -0.9902
  294MOL0     H38803   4.154   9.140   9.144  2.2777 -0.6831  0.6879
  294MOL0     H38804   4.379   9.137   9.061  2.2744  0.4711 -1.5272
  294MOL0     H38805   4.338   9.031   8.932 -3.0683  0.5394 -1.7178
  294MOL0     H38806   4.287   9.396   8.743  2.6089  0.0127 -0.0678
  294MOL0     H38807   3.787   8.726   9.048  2.5875  0.9416  0.2464
  294MOL0     H38808   3.593   8.626   9.165  1.4675 -0.8165  0.9988
  295MOL0     O38809   9.756   0.396   4.709  0.5291 -0.3656 -0.5616
  295MOL0     C38810   9.848   0.458   4.774 -0.4016 -0.0219 -0.0966
  295MOL0     O38811   9.826   0.520   4.897  0.0871 -0.0345 -0.9775
  295MOL0     C38812   9.692   0.528   4.932 -0.8376  0.4242 -0.0250
  295MOL0     C38813   9.617   0.407   4.956 -0.2395 -0.2428 -0.5998
  295MOL0     C38814   9.488   0.421   4.996 -0.5731 -0.4666  0.0094
  295MOL0     C38815   9.426   0.544   4.996  0.6768  0.1729  0.3440
  295MOL0     O38816   9.293   0.564   5.028  0.9643 -0.3022 -0.3877
  295MOL0     C38817   9.273   0.612   5.167  0.1175  0.8127 -0.1030
  295MOL0     C38818   9.190   0.501   5.234  0.6701 -0.2025 -0.1069
  295MOL0     C38819   9.043   0.501   5.192 -1.0210  0.2191  0.3892
  295MOL0     C38820   8.976   0.388   5.264 -0.1687  0.4288 -0.4445
  295MOL0     C38821   8.835   0.373   5.204  0.4028  0.1072  0.9191
  295MOL0     C38822   8.777   0.252   5.270  0.4811 -0.7706  0.0971
  295MOL0     C38823   8.642   0.222   5.203  0.7589  0.9487  0.3756
  295MOL0     C38824   8.550   0.168   5.308  0.2702 -0.4943  0.1209
  295MOL0     N38825   8.423   0.114   5.260 -0.6939 -0.1623  0.1556
  295MOL0     C38826   8.332   0.199   5.202 -0.5676  0.5674  0.3275
  295MOL0     C38827   8.235   0.122   5.159 -0.0401  0.5197 -0.0141
  295MOL0     C38828   8.114   0.169   5.095 -0.0492  0.1754  0.0523
  295MOL0     C38829   8.081   0.105   4.957  0.7033  0.8987  0.4662
  295MOL0     C38830   7.954   0.158   4.887  0.2033  0.2386 -0.5319
  295MOL0     C38831   7.821   0.132   4.962 -0.1453  0.5333  0.3371
  295MOL0     O38832   7.712   0.194   4.887  0.0175 -0.3629  0.1308
  295MOL0     C38833   7.585   0.144   4.894 -1.2939 -0.5640  0.7654
  295MOL0     C38834   7.537   0.064   5.001 -0.8112 -0.2875 -0.7935
  295MOL0     C38835   7.408   0.006   5.006 -0.9840 -0.5368 -0.1720
  295MOL0     C38836   7.308   0.044   4.907  0.4854  0.0284  1.4430
  295MOL0     C38837   7.166   0.002   4.911 -0.2385 -0.0614 -0.0251
  295MOL0     O38838   7.076   0.071   4.833 -0.0049 -0.0656  0.1881
  295MOL0     C38839   6.942   0.034   4.820 -0.8023  0.0376  0.8809
  295MOL0     C38840   6.878   0.043   4.699 -0.0428 -0.2152  0.2173
  295MOL0     C38841   6.738   0.027   4.684 -0.5952 -0.0021  0.2314
  295MOL0     C38842   6.662   0.000   4.798  1.0222  0.1904 -0.7794
  295MOL0     O38843   6.527  -0.030   4.796  0.5861  0.1768 -0.2548
  295MOL0     C38844   6.454  -0.074   4.675  0.1621 -1.4342  0.5409
  295MOL0     C38845   6.325  -0.140   4.725 -0.3413  0.5697  0.3312
  295MOL0     C38846   6.226  -0.043   4.781 -0.2230 -0.0547 -0.2549
  295MOL0     C38847   6.094  -0.109   4.816 -0.4784  0.6515  0.7318
  295MOL0     C38848   5.981  -0.005   4.786 -0.2189 -0.2185 -0.8269
  295MOL0     C38849   5.845  -0.065   4.814 -0.3919  0.6223 -0.4823
  295MOL0     C38850   5.730   0.029   4.801 -1.1923 -0.3568 -0.5790
  295MOL0     C38851   5.589  -0.028   4.782  0.5138  0.4937  0.3083
  295MOL0    Cl38852   5.552  -0.148   4.906  0.1656 -0.4413  0.0006
  295MOL0     C38853   6.725  -0.011   4.923 -0.6430 -0.7640  0.5507
  295MOL0     C38854   6.861   0.012   4.929  0.4024  0.9122  0.2738
  295MOL0     O38855   7.137  -0.102   4.976  0.5682  0.3553  0.2067
  295MOL0     C38856   7.356   0.131   4.807 -0.5883  0.6234  0.8182
  295MOL0     C38857   7.490   0.176   4.792  0.3170  0.1505 -0.9055
  295MOL0     N38858   8.271  -0.011   5.191  0.0516 -0.1505  0.5091
  295MOL0     N38859   8.392  -0.018   5.243  0.2602 -0.1082 -0.4472
  295MOL0     C38860   9.500   0.663   4.982  0.5811 -0.2532 -0.3474
  295MOL0     C38861   9.636   0.652   4.957 -0.0467 -0.8146  0.9094
  295MOL0     C38862   9.981   0.459   4.710 -0.6853  1.0526  0.3297
  295MOL0     C38863  10.077   0.552   4.750 -0.8730 -0.7049 -0.7436
  295MOL0     C38864  10.205   0.558   4.694  0.7418  0.6602  0.2116
  295MOL0     C38865  10.248   0.457   4.603  0.3117 -0.4386 -0.1454
  295MOL0     O38866  10.371   0.456   4.534 -0.1817 -0.3797  0.2789
  295MOL0     C38867  10.459   0.560   4.584 -0.2949 -0.4917  1.0071
  295MOL0     C38868  10.604   0.557   4.521  0.8812  0.6383  0.7758
  295MOL0     C38869  10.710   0.592   4.635 -0.2660  0.5409 -0.2184
  295MOL0     C38870  10.842   0.620   4.560  0.3945 -0.0191 -0.2669
  295MOL0     C38871  10.905   0.492   4.515  0.0631  0.4043 -0.4895
  295MOL0     C38872  10.969   0.390   4.480 -0.2832 -0.2282 -0.6036
  295MOL0     C38873  10.155   0.356   4.573  0.0433  0.1848  0.0253
  295MOL0     C38874  10.025   0.366   4.615  0.5790  0.9609  0.4157
  295MOL0     H38875   9.663   0.310   4.938 -2.1356 -1.6846  1.6931
  295MOL0     H38876   9.420   0.340   5.018 -0.5482 -0.1173  1.4664
  295MOL0     H38877   9.215   0.704   5.173  1.4317  1.5777  2.4535
  295MOL0     H38878   9.366   0.627   5.223  1.8116  0.9711 -2.7950
  295MOL0     H38879   9.188   0.510   5.343 -2.8494  1.3018 -0.1442
  295MOL0     H38880   9.237   0.410   5.196  1.8157  0.7573 -1.0831
  295MOL0     H38881   9.042   0.486   5.084 -0.6745 -3.6955  0.8071
  295MOL0     H38882   9.005   0.601   5.218  1.3533  1.6279 -1.1615
  295MOL0     H38883   9.034   0.296   5.259 -0.3383  0.0009  3.1113
  295MOL0     H38884   8.982   0.411   5.371  1.1351  0.1630 -0.4348
  295MOL0     H38885   8.835   0.357   5.095 -0.6546  0.7796  0.8023
  295MOL0     H38886   8.777   0.461   5.231  1.9943  0.8975  1.9026
  295MOL0     H38887   8.776   0.271   5.378  3.6989 -1.9110  0.4102
  295MOL0     H38888   8.846   0.168   5.258  1.2744 -0.5435  2.4580
  295MOL0     H38889   8.608   0.316   5.159  3.7215  1.9531 -0.0072
  295MOL0     H38890   8.655   0.141   5.131  0.2266  1.3674 -0.2042
  295MOL0     H38891   8.531   0.246   5.382 -0.5774  0.6498 -1.2578
  295MOL0     H38892   8.600   0.085   5.360 -0.5738  0.4227  2.5268
  295MOL0     H38893   8.343   0.307   5.204  0.8931  0.4344  1.2636
  295MOL0     H38894   8.113   0.277   5.083 -5.2143  0.3319 -0.5760
  295MOL0     H38895   8.022   0.148   5.152 -1.1133 -3.4692 -2.6207
  295MOL0     H38896   8.060  -0.000   4.980  1.5547  0.4655 -0.6315
  295MOL0     H38897   8.167   0.117   4.890  0.4908  0.2127  0.0574
  295MOL0     H38898   7.964   0.266   4.875 -0.3672  0.4520  0.7405
  295MOL0     H38899   7.953   0.111   4.788 -0.1168 -1.1936  0.1250
  295MOL0     H38900   7.824   0.167   5.065 -2.8249 -3.4301  2.0151
  295MOL0     H38901   7.807   0.024   4.964 -1.6979  0.7255  1.0412
  295MOL0     H38902   7.596   0.047   5.091  1.0621  1.9375 -1.5108
  295MOL0     H38903   7.393  -0.056   5.093  1.8283 -2.3758 -0.8444
  295MOL0     H38904   6.940   0.063   4.612  2.2530 -2.9931  1.0567
  295MOL0     H38905   6.691   0.039   4.587 -0.1918  0.9568  0.1409
  295MOL0     H38906   6.508  -0.154   4.625 -2.6308 -1.0506 -3.4845
  295MOL0     H38907   6.433   0.008   4.606 -1.7088 -2.3387 -0.0025
  295MOL0     H38908   6.357  -0.220   4.793  0.9299  1.2591  0.5791
  295MOL0     H38909   6.269  -0.177   4.639  0.2999  1.1582 -0.3533
  295MOL0     H38910   6.209   0.030   4.701  1.3612  1.3964  0.6679
  295MOL0     H38911   6.263   0.012   4.868 -0.2936 -2.4812  1.3902
  295MOL0     H38912   6.077  -0.199   4.757  1.7952  0.7567 -0.2066
  295MOL0     H38913   6.086  -0.129   4.923  0.0831 -1.3459  0.4414
  295MOL0     H38914   5.996   0.045   4.690  0.1644  0.7344 -0.2829
  295MOL0     H38915   5.990   0.081   4.853 -0.1779  0.0647 -1.1933
  295MOL0     H38916   5.853  -0.096   4.919 -0.1496 -0.1982 -0.7327
  295MOL0     H38917   5.823  -0.160   4.764  0.3120  0.6794 -0.9136
  295MOL0     H38918   5.741   0.091   4.891 -0.0519 -1.0986 -0.1734
  295MOL0     H38919   5.746   0.090   4.711 -0.0950 -2.3487 -1.7981
  295MOL0     H38920   5.576  -0.072   4.683 -2.0122 -0.4748  1.0044
  295MOL0     H38921   5.515   0.052   4.770 -0.6217 -0.8096 -2.1965
  295MOL0     H38922   6.670  -0.025   5.016 -1.5644  0.9921  0.3298
  295MOL0     H38923   6.895   0.004   5.032  0.7320 -0.0302  0.1022
  295MOL0     H38924   7.284   0.147   4.727 -0.4595 -3.1821 -0.2558
  295MOL0     H38925   7.511   0.248   4.713 -1.9940  1.7274 -0.1886
  295MOL0     H38926   9.437   0.751   4.991 -1.3452 -1.7353  1.8256
  295MOL0     H38927   9.691   0.745   4.948  0.5064 -1.1914  0.3215
  295MOL0     H38928  10.046   0.622   4.826 -0.5360 -0.1063 -1.1526
  295MOL0     H38929  10.268   0.632   4.742  1.0472  0.9805 -0.6637
  295MOL0     H38930  10.471   0.558   4.693  0.0997 -2.2815  0.9701
  295MOL0     H38931  10.405   0.648   4.547  1.7695  0.4304  0.0105
  295MOL0     H38932  10.620   0.467   4.461 -0.2711 -0.8731  2.5879
  295MOL0     H38933  10.589   0.650   4.466 -2.3339  1.2280  2.3751
  295MOL0     H38934  10.733   0.514   4.708 -2.2810 -1.2115 -1.3560
  295MOL0     H38935  10.680   0.686   4.682 -1.7771 -0.5874  1.1536
  295MOL0     H38936  10.813   0.668   4.465 -2.2516 -1.5178 -0.3264
  295MOL0     H38937  10.908   0.684   4.618 -1.5954  1.7288  0.1866
  295MOL0     H38938  11.022   0.308   4.435  0.5741  0.8080 -1.5230
  295MOL0     H38939  10.201   0.276   4.515  4.0473 -0.2561  3.3878
  295MOL0     H38940   9.964   0.284   4.579  1.9593 -1.2131  2.7338
  296MOL0     O38941   9.523   5.173   2.672  0.1340  0.1882 -0.0248
  296MOL0     C38942   9.437   5.263   2.682  0.4436  0.6291 -0.2461
  296MOL0     O38943   9.306   5.249   2.655  0.5568 -0.2198 -0.1320
  296MOL0     C38944   9.236   5.136   2.623  0.0781  0.2308 -0.4564
  296MOL0     C38945   9.134   5.160   2.540 -0.5905 -0.3339 -0.4064
  296MOL0     C38946   9.047   5.060   2.511  0.0736  0.6445 -0.0538
  296MOL0     C38947   9.074   4.926   2.551  0.2993 -0.2893  0.7529
  296MOL0     O38948   9.021   4.812   2.501  0.5593  0.6093 -0.3089
  296MOL0     C38949   8.883   4.818   2.452 -0.2787 -0.2336  0.3159
  296MOL0     C38950   8.807   4.683   2.444  0.5578  1.0373 -0.1086
  296MOL0     C38951   8.676   4.686   2.361  0.8669  0.6559 -0.5389
  296MOL0     C38952   8.620   4.535   2.362 -0.4152 -0.4708 -0.7608
  296MOL0     C38953   8.478   4.542   2.306 -0.4491  0.0780  0.6577
  296MOL0     C38954   8.429   4.398   2.293  0.3236  0.4765 -0.2011
  296MOL0     C38955   8.294   4.392   2.224 -0.4242  0.2503 -0.4066
  296MOL0     C38956   8.226   4.262   2.206 -0.4698 -0.0713 -0.3213
  296MOL0     N38957   8.098   4.275   2.139  0.3479  0.2558 -0.0381
  296MOL0     C38958   8.073   4.257   2.006  0.4712 -0.0177 -0.2839
  296MOL0     C38959   7.938   4.262   1.997 -0.1411  0.0644  0.9360
  296MOL0     C38960   7.866   4.229   1.869 -1.0932 -0.4020  0.7521
  296MOL0     C38961   7.776   4.099   1.868 -1.1730 -1.0977 -0.2788
  296MOL0     C38962   7.644   4.126   1.937  0.0448  0.2161 -0.4568
  296MOL0     C38963   7.552   4.003   1.921 -0.2744  0.2837  1.4646
  296MOL0     O38964   7.507   4.001   1.782  0.3520 -0.5696  0.3358
  296MOL0     C38965   7.376   4.040   1.744 -0.0669 -0.1412 -1.5854
  296MOL0     C38966   7.316   3.975   1.643  0.2953  0.4527  0.4566
  296MOL0     C38967   7.179   3.994   1.607 -0.1453  0.9069 -0.0441
  296MOL0     C38968   7.109   4.087   1.684  0.3118  0.7262 -0.0942
  296MOL0     C38969   6.962   4.112   1.668  0.0396 -0.6366  0.2885
  296MOL0     O38970   6.895   4.199   1.752  0.5638 -0.7775 -0.1011
  296MOL0     C38971   6.762   4.176   1.769  0.2289 -0.9598  0.3625
  296MOL0     C38972   6.669   4.276   1.721 -0.4381  0.2632  0.3520
  296MOL0     C38973   6.538   4.255   1.729  0.1542 -0.4939 -0.7615
  296MOL0     C38974   6.487   4.131   1.776 -0.0010  0.4257  0.4501
  296MOL0     O38975   6.352   4.107   1.787  0.4273  0.1610 -0.2598
  296MOL0     C38976   6.297   3.976   1.808 -0.4640  0.6204 -0.7126
  296MOL0     C38977   6.155   3.995   1.866  0.7994  0.5697  0.4265
  296MOL0     C38978   6.045   3.895   1.829  0.2501  0.0492 -0.4594
  296MOL0     C38979   6.076   3.749   1.872 -0.1923  0.4037  0.1890
  296MOL0     C38980   5.978   3.639   1.824  0.7044 -0.7548 -0.0525
  296MOL0     C38981   6.054   3.500   1.849 -0.5441 -1.1559 -0.1724
  296MOL0     C38982   5.973   3.377   1.820 -0.5478  0.7980 -0.7554
  296MOL0     C38983   5.865   3.345   1.926 -0.8285 -0.0579  0.2452
  296MOL0    Cl38984   5.947   3.273   2.067  0.3007  0.4607  0.2028
  296MOL0     C38985   6.573   4.035   1.838  0.3361  0.0243  0.1081
  296MOL0     C38986   6.710   4.068   1.833 -0.5513 -0.9707  0.5153
  296MOL0     O38987   6.916   4.057   1.568  0.2311  0.5607 -0.3676
  296MOL0     C38988   7.174   4.141   1.797 -0.0798 -0.4514 -0.0838
  296MOL0     C38989   7.305   4.124   1.832 -0.4562 -0.8172  0.5459
  296MOL0     N38990   7.876   4.289   2.118  0.1423  0.3662  0.0378
  296MOL0     N38991   7.977   4.299   2.199 -0.4432  0.1160 -0.1966
  296MOL0     C38992   9.189   4.905   2.629  0.8383  0.3468  0.1450
  296MOL0     C38993   9.264   5.010   2.673 -0.6452  0.0956 -0.4146
  296MOL0     C38994   9.480   5.395   2.733 -1.0701 -0.0503 -0.0444
  296MOL0     C38995   9.386   5.482   2.801  0.0910  0.0899  0.0121
  296MOL0     C38996   9.422   5.603   2.863  0.4461  1.1802  1.3262
  296MOL0     C38997   9.555   5.648   2.829  0.0142 -0.1293 -0.8569
  296MOL0     O38998   9.597   5.772   2.873 -0.0750  0.8258  0.3560
  296MOL0     C38999   9.511   5.870   2.907  0.6510 -0.1974 -0.9965
  296MOL0     C39000   9.567   6.002   2.863  0.0975  0.4689 -0.0755
  296MOL0     C39001   9.676   6.050   2.965  0.0055 -0.5648  0.4275
  296MOL0     C39002   9.810   5.984   2.936  0.6127 -0.6622  0.4739
  296MOL0     C39003   9.871   6.041   2.818 -0.0853  0.9779 -1.6250
  296MOL0     C39004   9.904   6.094   2.716 -1.0630  0.4318 -0.3935
  296MOL0     C39005   9.646   5.567   2.763  0.2025  0.6937 -0.2979
  296MOL0     C39006   9.610   5.439   2.715 -0.3803 -0.4136  0.4058
  296MOL0     H39007   9.103   5.260   2.511 -1.9276 -1.4516 -3.1437
  296MOL0     H39008   8.964   5.086   2.447  0.3815  1.6527 -0.0460
  296MOL0     H39009   8.884   4.856   2.350 -2.7900  0.9277  0.6535
  296MOL0     H39010   8.817   4.881   2.513  0.6844  0.8627  0.2368
  296MOL0     H39011   8.778   4.656   2.546  1.7829 -1.1943 -0.2919
  296MOL0     H39012   8.871   4.607   2.398  0.1466  1.1505 -0.8853
  296MOL0     H39013   8.680   4.733   2.262 -0.7281  4.4156  0.9857
  296MOL0     H39014   8.602   4.743   2.419 -0.3176 -2.4676  1.2381
  296MOL0     H39015   8.691   4.476   2.303  0.9210 -0.2397  0.5495
  296MOL0     H39016   8.620   4.496   2.464 -0.5276  0.4703 -0.3935
  296MOL0     H39017   8.485   4.590   2.208  1.1506  1.4332  1.3939
  296MOL0     H39018   8.407   4.596   2.370 -0.7395  1.5506 -0.8425
  296MOL0     H39019   8.426   4.348   2.391 -0.6595  0.8850 -0.0162
  296MOL0     H39020   8.490   4.336   2.227 -2.0539 -2.4507  0.1506
  296MOL0     H39021   8.227   4.444   2.293  2.1044 -0.0671  2.4984
  296MOL0     H39022   8.303   4.438   2.125  4.4334 -1.7323 -1.1534
  296MOL0     H39023   8.210   4.219   2.306  0.1535  0.2968 -0.0605
  296MOL0     H39024   8.286   4.190   2.151 -1.3493 -0.2302 -1.0971
  296MOL0     H39025   8.140   4.236   1.924 -1.9771 -1.3056 -2.0752
  296MOL0     H39026   7.943   4.215   1.793  0.4819 -0.4151  2.2851
  296MOL0     H39027   7.808   4.316   1.838 -0.6146 -0.8169 -1.4914
  296MOL0     H39028   7.841   4.023   1.910  2.6987  0.4987 -2.8058
  296MOL0     H39029   7.756   4.076   1.763 -2.1174  1.9606 -0.8838
  296MOL0     H39030   7.658   4.153   2.041 -0.3001  2.6142 -0.9725
  296MOL0     H39031   7.597   4.212   1.888  1.0014  2.1192  1.8015
  296MOL0     H39032   7.473   4.001   1.997 -1.8645 -1.2220 -0.1529
  296MOL0     H39033   7.612   3.912   1.934 -1.1945 -0.1550  2.8588
  296MOL0     H39034   7.385   3.907   1.595  0.2805  0.0660  0.9838
  296MOL0     H39035   7.119   3.950   1.528 -0.8841  0.8788  0.5236
  296MOL0     H39036   6.719   4.359   1.671  2.1601 -0.7508  1.1127
  296MOL0     H39037   6.468   4.328   1.689  4.0702  2.9627 -2.0272
  296MOL0     H39038   6.349   3.904   1.871  0.0398  2.6964  1.3850
  296MOL0     H39039   6.269   3.927   1.714 -1.5147 -0.5792  0.2008
  296MOL0     H39040   6.114   4.093   1.837  0.5944 -0.3968 -3.0473
  296MOL0     H39041   6.149   4.000   1.975 -1.3937 -0.7821  0.4285
  296MOL0     H39042   6.017   3.912   1.725  1.3387  0.6516 -0.6698
  296MOL0     H39043   5.954   3.913   1.887 -0.5423 -1.2419 -1.2235
  296MOL0     H39044   6.170   3.726   1.822  0.8541  0.5249  2.0043
  296MOL0     H39045   6.097   3.749   1.980  1.9509 -3.3618 -0.0715
  296MOL0     H39046   5.944   3.652   1.721 -1.4403  1.2729  0.8420
  296MOL0     H39047   5.889   3.637   1.886  0.6289 -1.2783 -0.1674
  296MOL0     H39048   6.074   3.503   1.957 -1.8365  0.9973  0.0604
  296MOL0     H39049   6.148   3.507   1.794 -0.1494 -0.5374  0.5548
  296MOL0     H39050   5.916   3.397   1.729 -3.7328 -3.1239  0.1078
  296MOL0     H39051   6.040   3.291   1.808 -2.4497 -1.3543  2.4327
  296MOL0     H39052   5.796   3.269   1.888  2.0737 -3.6312  1.4181
  296MOL0     H39053   5.818   3.438   1.956  2.6653  1.9276  0.1069
  296MOL0     H39054   6.539   3.950   1.896 -0.0202  0.5425  0.6657
  296MOL0     H39055   6.786   4.003   1.875  1.7790 -0.2090 -2.2093
  296MOL0     H39056   7.120   4.196   1.873  0.9613  2.4792 -1.3423
  296MOL0     H39057   7.358   4.173   1.914  0.7475 -0.4914 -0.3910
  296MOL0     H39058   9.210   4.800   2.650  0.4186  0.6098  2.0513
  296MOL0     H39059   9.345   4.987   2.742  0.0599 -0.3841 -1.3744
  296MOL0     H39060   9.280   5.458   2.803 -0.2739  1.6058  0.0625
  296MOL0     H39061   9.348   5.667   2.910  0.8641  3.6495 -1.0872
  296MOL0     H39062   9.482   5.860   3.012 -0.1713  2.3293 -0.9199
  296MOL0     H39063   9.426   5.856   2.840  1.0490  0.3877 -1.6343
  296MOL0     H39064   9.608   6.009   2.762 -0.4820  1.1195 -0.2797
  296MOL0     H39065   9.473   6.059   2.858 -0.1998 -0.1088 -1.4415
  296MOL0     H39066   9.637   6.038   3.067  1.2789  3.3576  1.5683
  296MOL0     H39067   9.687   6.157   2.945 -2.0222 -0.2045  0.9483
  296MOL0     H39068   9.879   6.000   3.020  0.4050 -0.7757  0.6671
  296MOL0     H39069   9.805   5.874   2.935 -1.5506 -0.6230  1.3182
  296MOL0     H39070   9.923   6.148   2.626  0.3402  4.0307  1.8410
  296MOL0     H39071   9.750   5.595   2.749 -0.3015  1.8984 -1.8536
  296MOL0     H39072   9.689   5.372   2.681  0.3365  1.5735 -2.2088
  297MOL0     O39073   4.319   1.556   9.995 -0.5034 -1.2511 -0.0443
  297MOL0     C39074   4.261   1.665  10.006 -0.3739  0.0730 -0.5680
  297MOL0     O39075   4.327   1.771  10.054  0.3536 -0.1669 -0.5018
  297MOL0     C39076   4.436   1.747  10.129 -0.3429 -0.2698  0.1779
  297MOL0     C39077   4.433   1.664  10.237  0.3564  1.3329  0.0404
  297MOL0     C39078   4.538   1.647  10.317  0.3471 -1.4674  0.6797
  297MOL0     C39079   4.655   1.722  10.287 -1.0463  0.7928  0.4443
  297MOL0     O39080   4.774   1.735  10.355  0.4596  0.0440  0.8046
  297MOL0     C39081   4.807   1.640  10.463 -0.3119  0.0626 -0.3548
  297MOL0     C39082   4.955   1.595  10.450 -0.0607 -0.2421 -0.3457
  297MOL0     C39083   5.052   1.664  10.550 -0.2543 -0.2101  0.6015
  297MOL0     C39084   5.199   1.611  10.551 -0.2177 -0.4327 -0.5988
  297MOL0     C39085   5.306   1.703  10.624 -0.1831  0.7046 -0.3422
  297MOL0     C39086   5.315   1.851  10.580 -0.4053 -0.1249  0.3449
  297MOL0     C39087   5.310   1.885  10.433 -0.7127  0.8863  0.4442
  297MOL0     C39088   5.335   2.029  10.399 -0.6617 -0.7078  0.2464
  297MOL0     N39089   5.350   2.052  10.253  0.4929  0.0976 -0.2193
  297MOL0     C39090   5.465   2.077  10.186  0.1892 -0.2843  0.7454
  297MOL0     C39091   5.419   2.107  10.060 -0.2205  1.1423 -1.1233
  297MOL0     C39092   5.506   2.146   9.932  1.0088  0.6268 -0.7484
  297MOL0     C39093   5.488   2.289   9.893 -0.6731 -0.2396  0.5063
  297MOL0     C39094   5.616   2.376   9.910 -0.3696 -0.8167  0.1843
  297MOL0     C39095   5.681   2.423   9.777 -0.3825  0.3189 -0.0116
  297MOL0     O39096   5.819   2.464   9.805 -0.7117  1.1085 -0.5559
  297MOL0     C39097   5.919   2.372   9.772  0.3939 -0.0595  0.2716
  297MOL0     C39098   6.035   2.431   9.713  0.2068  0.0237  0.0308
  297MOL0     C39099   6.147   2.355   9.688  0.3048 -0.6270 -0.4271
  297MOL0     C39100   6.149   2.222   9.729 -1.5101  0.6111  0.4906
  297MOL0     C39101   6.273   2.140   9.691  0.7907 -0.7814 -0.0146
  297MOL0     O39102   6.250   2.009   9.701 -0.7127  0.0603  0.8262
  297MOL0     C39103   6.346   1.927   9.663  0.3266 -0.1401  0.4961
  297MOL0     C39104   6.351   1.852   9.545 -0.5063  0.9242 -0.4102
  297MOL0     C39105   6.462   1.771   9.526  0.2677  1.6010  0.0089
  297MOL0     C39106   6.571   1.763   9.612  0.2578 -0.3860 -0.1335
  297MOL0     O39107   6.688   1.684   9.604  0.5827 -0.0640  0.4288
  297MOL0     C39108   6.714   1.603   9.490  0.5679 -0.6066  0.6678
  297MOL0     C39109   6.755   1.691   9.373  0.1568 -0.2437 -0.5020
  297MOL0     C39110   6.852   1.615   9.289  0.3821  0.3918 -0.4245
  297MOL0     C39111   6.997   1.615   9.338 -0.6221 -0.2893 -0.3545
  297MOL0     C39112   7.068   1.483   9.319  0.5740  0.3922 -0.0523
  297MOL0     C39113   7.038   1.382   9.438  0.6495  0.1390  0.1017
  297MOL0     C39114   7.125   1.262   9.424 -0.2714  0.4691  0.6074
  297MOL0     C39115   7.284   1.288   9.424  0.1268  1.0080  0.6668
  297MOL0    Cl39116   7.360   1.369   9.282 -0.0234  0.2637  0.1752
  297MOL0     C39117   6.555   1.830   9.732 -0.0658 -0.2239  0.0618
  297MOL0     C39118   6.441   1.907   9.761  0.5814 -0.4619 -0.1715
  297MOL0     O39119   6.382   2.196   9.669 -0.2811 -0.0630 -0.5616
  297MOL0     C39120   6.040   2.159   9.800 -0.0549 -0.1484  0.0875
  297MOL0     C39121   5.918   2.232   9.810 -0.9907  0.4518 -0.7150
  297MOL0     N39122   5.285   2.119  10.060  0.6303  0.3901  0.6530
  297MOL0     N39123   5.244   2.080  10.173 -0.6593 -0.0432 -0.9081
  297MOL0     C39124   4.668   1.795  10.176 -0.0508 -0.3963  0.3085
  297MOL0     C39125   4.549   1.823  10.099 -0.2661 -1.1974 -0.9469
  297MOL0     C39126   4.133   1.687   9.949 -0.6312  0.7072  0.1427
  297MOL0     C39127   4.054   1.578   9.901  0.0792  0.0341  0.7304
  297MOL0     C39128   3.923   1.598   9.852 -0.8295  0.1259 -0.4551
  297MOL0     C39129   3.866   1.728   9.844  0.0006 -0.2500  0.2104
  297MOL0     O39130   3.740   1.749   9.785  0.1604  0.5640  0.2841
  297MOL0     C39131   3.691   1.870   9.742 -0.5133 -1.3421  0.3383
  297MOL0     C39132   3.558   1.848   9.678  0.6978 -0.2221  0.8078
  297MOL0     C39133   3.486   1.976   9.641 -0.4503  0.2994  0.3501
  297MOL0     C39134   3.403   2.030   9.757  0.0906 -0.2357  0.0209
  297MOL0     C39135   3.281   1.959   9.789 -0.1639  0.4545 -0.7065
  297MOL0     C39136   3.173   1.909   9.800  1.1801 -0.2872  0.5650
  297MOL0     C39137   3.938   1.831   9.896 -1.4045 -0.7527 -0.8058
  297MOL0     C39138   4.069   1.811   9.955  0.7886 -0.4060 -0.1884
  297MOL0     H39139   4.346   1.603  10.261 -0.4755  3.0292  1.6008
  297MOL0     H39140   4.541   1.586  10.407 -1.6603 -0.4915  1.4560
  297MOL0     H39141   4.736   1.557  10.474 -2.5946  1.8143 -1.0486
  297MOL0     H39142   4.792   1.704  10.550 -5.7226 -1.9016  0.5240
  297MOL0     H39143   4.999   1.601  10.350 -0.1070  3.5027 -0.2589
  297MOL0     H39144   4.956   1.491  10.486  5.2819 -0.9711 -1.6633
  297MOL0     H39145   5.021   1.659  10.655 -2.7230  0.6560 -0.0168
  297MOL0     H39146   5.054   1.767  10.514  1.9568 -0.6314 -0.6631
  297MOL0     H39147   5.209   1.506  10.580  0.7915 -0.4836 -1.0987
  297MOL0     H39148   5.221   1.600  10.444 -1.3222 -2.8103 -0.6557
  297MOL0     H39149   5.406   1.660  10.615 -0.1739  0.4905  0.6501
  297MOL0     H39150   5.279   1.711  10.730  2.0990  0.9904  0.2775
  297MOL0     H39151   5.404   1.895  10.626  0.9101 -1.9428 -0.3627
  297MOL0     H39152   5.236   1.910  10.627 -0.9668 -1.2947  0.9152
  297MOL0     H39153   5.399   1.829  10.401 -1.0084 -0.4978  1.9127
  297MOL0     H39154   5.220   1.846  10.385 -0.2662  0.8098 -0.3536
  297MOL0     H39155   5.423   2.066  10.451 -0.5116 -0.1738 -0.3837
  297MOL0     H39156   5.250   2.088  10.436  0.1357  0.3764  0.3700
  297MOL0     H39157   5.568   2.070  10.217 -0.0155 -0.1690  1.4601
  297MOL0     H39158   5.471   2.081   9.851  0.7151 -2.3177  1.5806
  297MOL0     H39159   5.611   2.121   9.952  0.4867 -1.1934 -0.1256
  297MOL0     H39160   5.412   2.332   9.961  1.0302  2.0352  1.1001
  297MOL0     H39161   5.446   2.306   9.793 -0.5335  1.8581  0.7525
  297MOL0     H39162   5.596   2.465   9.971 -0.7686 -0.3513 -0.5957
  297MOL0     H39163   5.689   2.333   9.979 -1.3053  3.8474  4.7150
  297MOL0     H39164   5.625   2.503   9.729 -0.9974  0.7883  1.4236
  297MOL0     H39165   5.678   2.334   9.714 -1.0339  0.4891 -0.2233
  297MOL0     H39166   6.038   2.534   9.677 -0.9313 -0.1574 -0.6163
  297MOL0     H39167   6.232   2.404   9.642 -0.2164  1.6189  0.8491
  297MOL0     H39168   6.267   1.863   9.476 -0.4473  0.2794 -0.5919
  297MOL0     H39169   6.469   1.720   9.431  0.1376  0.9773  0.3312
  297MOL0     H39170   6.627   1.539   9.468 -1.8025  3.2001 -2.5372
  297MOL0     H39171   6.799   1.538   9.510  0.0370 -1.9937 -1.2789
  297MOL0     H39172   6.795   1.790   9.397 -0.3528 -0.1381 -0.0761
  297MOL0     H39173   6.664   1.710   9.314 -1.0811 -1.8845  0.8107
  297MOL0     H39174   6.845   1.662   9.190  0.4758  0.5172 -0.3710
  297MOL0     H39175   6.814   1.513   9.282  1.5678 -0.1276  0.4409
  297MOL0     H39176   7.055   1.684   9.277  2.1750 -0.6341  1.7460
  297MOL0     H39177   6.994   1.652   9.441  0.4337  3.7884 -1.5882
  297MOL0     H39178   7.171   1.518   9.316  1.0432 -0.5623  2.4592
  297MOL0     H39179   7.046   1.432   9.225 -1.4360 -1.2014  1.1997
  297MOL0     H39180   6.934   1.347   9.432  0.4555  0.8728 -1.4568
  297MOL0     H39181   7.054   1.420   9.539  1.4403 -4.0743  1.7721
  297MOL0     H39182   7.091   1.202   9.509  0.7021 -0.5465  0.3245
  297MOL0     H39183   7.107   1.199   9.336  1.4573  0.2522  0.3711
  297MOL0     H39184   7.338   1.196   9.445  0.0749  0.3452 -1.8669
  297MOL0     H39185   7.289   1.361   9.506 -2.8865  2.7367 -0.5195
  297MOL0     H39186   6.628   1.844   9.811 -0.2549  1.4658 -0.0131
  297MOL0     H39187   6.426   1.936   9.864 -2.1643 -2.1336  0.0207
  297MOL0     H39188   6.040   2.056   9.836  1.0307 -0.2913 -0.2672
  297MOL0     H39189   5.838   2.175   9.855  0.5765 -2.1942 -1.0674
  297MOL0     H39190   4.767   1.833  10.156  0.5755 -1.7984  0.6466
  297MOL0     H39191   4.544   1.894  10.017 -0.6045 -2.7847 -2.3706
  297MOL0     H39192   4.097   1.479   9.891  1.7795  0.8796 -1.2453
  297MOL0     H39193   3.870   1.512   9.812 -0.6169  0.4722 -1.5235
  297MOL0     H39194   3.765   1.926   9.684  0.2127  0.0702  2.5178
  297MOL0     H39195   3.673   1.936   9.827 -4.8054  0.0828 -1.4101
  297MOL0     H39196   3.602   1.798   9.591 -1.1813 -0.8827  0.1788
  297MOL0     H39197   3.495   1.780   9.736  1.0118  0.2096  1.6867
  297MOL0     H39198   3.430   1.967   9.548 -1.3803  1.9345  0.6965
  297MOL0     H39199   3.560   2.049   9.608  1.0565 -0.8180  1.1836
  297MOL0     H39200   3.464   2.025   9.847  2.8995  2.3666 -1.5599
  297MOL0     H39201   3.379   2.134   9.734 -2.6476 -0.8340 -0.1367
  297MOL0     H39202   3.074   1.868   9.804  1.9220 -2.0963  3.6209
  297MOL0     H39203   3.905   1.934   9.890  2.9407  0.8290 -1.1421
  297MOL0     H39204   4.120   1.895  10.000  0.8552  1.1255 -2.9113
  298MOL0     O39205   9.916  10.480   2.934 -0.1718  0.0525 -0.9609
  298MOL0     C39206   9.983  10.495   2.835  0.1764 -1.1921  0.3766
  298MOL0     O39207   9.937  10.509   2.703  0.7260  0.1810 -0.3329
  298MOL0     C39208   9.802  10.482   2.684  0.8697 -0.0088 -0.5975
  298MOL0     C39209   9.711  10.587   2.679  0.2701  1.2881 -0.8463
  298MOL0     C39210   9.574  10.562   2.640  0.0769 -0.3079 -0.7335
  298MOL0     C39211   9.526  10.431   2.624 -0.1831 -0.2501 -0.6409
  298MOL0     O39212   9.388  10.416   2.596 -0.7315  0.1535  0.1806
  298MOL0     C39213   9.329  10.288   2.604  0.2891  0.5482 -0.3399
  298MOL0     C39214   9.188  10.307   2.575  1.1840  1.1531 -0.7535
  298MOL0     C39215   9.101  10.175   2.597  0.1465 -0.8354 -0.0046
  298MOL0     C39216   8.957  10.204   2.574 -0.4773 -0.4989 -0.8517
  298MOL0     C39217   8.858  10.093   2.600 -0.7129  0.0079  0.5104
  298MOL0     C39218   8.864  10.029   2.743  0.0503 -0.5784 -0.3150
  298MOL0     C39219   8.734   9.954   2.753 -0.1642 -0.3633  0.8334
  298MOL0     C39220   8.748   9.889   2.885 -0.7496  0.5190  0.5436
  298MOL0     N39221   8.618   9.826   2.920  0.8162 -0.1043 -0.3374
  298MOL0     C39222   8.517   9.887   2.988  1.2635  0.1085  0.2357
  298MOL0     C39223   8.424   9.794   3.016 -1.0233  0.6727 -0.2012
  298MOL0     C39224   8.293   9.824   3.077  0.8408  0.9149 -0.0327
  298MOL0     C39225   8.169   9.750   3.017  0.5897 -0.1693 -0.0690
  298MOL0     C39226   8.034   9.783   3.088 -0.2101  0.8288  0.4838
  298MOL0     C39227   7.976   9.914   3.028 -0.3277  0.6035 -0.6311
  298MOL0     O39228   7.969   9.914   2.883  0.7368  0.8012 -0.0775
  298MOL0     C39229   7.866   9.836   2.851 -0.3020  0.3403  0.1897
  298MOL0     C39230   7.740   9.885   2.863 -0.3981  0.6422  0.0612
  298MOL0     C39231   7.628   9.806   2.810  0.2911 -0.1007  0.3506
  298MOL0     C39232   7.647   9.672   2.769 -0.2220 -0.7472 -0.7042
  298MOL0     C39233   7.530   9.585   2.726 -1.0366 -0.2935  1.2853
  298MOL0     O39234   7.556   9.454   2.730 -0.2632  0.2961  0.2653
  298MOL0     C39235   7.459   9.364   2.692 -0.1672 -0.5277 -1.2087
  298MOL0     C39236   7.332   9.371   2.743  0.3008 -0.0333  0.1127
  298MOL0     C39237   7.235   9.290   2.678 -0.5745 -0.0805 -0.5622
  298MOL0     C39238   7.270   9.192   2.588 -0.8507  0.0909  0.5084
  298MOL0     O39239   7.181   9.099   2.529  0.3796 -0.1035 -0.1503
  298MOL0     C39240   7.047   9.153   2.507  0.9013 -0.3901 -0.1817
  298MOL0     C39241   6.954   9.063   2.422  0.0152 -0.2357 -0.8185
  298MOL0     C39242   6.807   9.097   2.431  0.0995  0.1715  0.3450
  298MOL0     C39243   6.727   8.990   2.370  0.4438  0.1591 -0.8184
  298MOL0     C39244   6.583   9.047   2.363  0.2735  0.5663 -0.0696
  298MOL0     C39245   6.487   8.936   2.361 -0.7306  0.5708 -0.5100
  298MOL0     C39246   6.338   8.985   2.331  0.2226 -0.2886 -0.9952
  298MOL0     C39247   6.236   8.882   2.354  0.9135  0.6220 -1.0479
  298MOL0    Cl39248   6.065   8.941   2.315 -0.2191 -0.6113  0.2324
  298MOL0     C39249   7.401   9.183   2.544  0.6212 -0.1945 -0.1280
  298MOL0     C39250   7.492   9.279   2.593 -0.7309  0.4980  0.1901
  298MOL0     O39251   7.428   9.647   2.691  0.7744 -0.4995 -0.3343
  298MOL0     C39252   7.783   9.624   2.765  0.2276  0.2702 -0.1936
  298MOL0     C39253   7.886   9.697   2.815 -0.5517  0.2167  0.0517
  298MOL0     N39254   8.464   9.673   2.958 -0.2957  0.2046  1.4476
  298MOL0     N39255   8.576   9.701   2.896 -0.1506 -0.2732 -0.7688
  298MOL0     C39256   9.622  10.325   2.638  0.1170 -0.6349 -0.1501
  298MOL0     C39257   9.756  10.357   2.654 -0.4102  0.5926  0.5098
  298MOL0     C39258  10.133  10.490   2.848 -0.1881  0.1429  0.3863
  298MOL0     C39259  10.186  10.459   2.976 -0.3519  0.2931 -0.2995
  298MOL0     C39260  10.325  10.449   2.994 -0.2216 -0.7566  0.7741
  298MOL0     C39261  10.408  10.441   2.876 -0.0470  0.1912 -0.7893
  298MOL0     O39262  10.537  10.436   2.904 -0.7035  0.5392 -0.1911
  298MOL0     C39263  10.651  10.478   2.817 -1.1576 -0.0330 -0.6169
  298MOL0     C39264  10.706  10.364   2.736 -1.2389 -0.3401 -0.2685
  298MOL0     C39265  10.765  10.263   2.843 -0.5120  0.8807  0.8481
  298MOL0     C39266  10.884  10.176   2.799  0.6271  0.8529 -0.5814
  298MOL0     C39267  11.004  10.254   2.756  0.1991  0.5141  0.9178
  298MOL0     C39268  11.100  10.312   2.713 -0.4724  0.4803 -0.3542
  298MOL0     C39269  10.346  10.460   2.755 -0.0240  0.5954 -0.3428
  298MOL0     C39270  10.212  10.480   2.735 -0.3478  1.1402 -0.2906
  298MOL0     H39271   9.754  10.683   2.707  1.1953  0.0521  2.3821
  298MOL0     H39272   9.499  10.636   2.616  0.4557 -0.0771 -1.2581
  298MOL0     H39273   9.343  10.245   2.704 -3.0268 -0.2590 -0.0851
  298MOL0     H39274   9.361  10.223   2.522 -0.1232  1.6626 -1.4154
  298MOL0     H39275   9.181  10.342   2.471  1.9935  2.9825 -0.2406
  298MOL0     H39276   9.149  10.374   2.652  0.6338 -1.0822  1.0310
  298MOL0     H39277   9.109  10.136   2.699 -0.0862  3.1511  1.7299
  298MOL0     H39278   9.137  10.099   2.528 -1.0578  0.6452 -2.4093
  298MOL0     H39279   8.937  10.291   2.637  0.8233 -2.0977  1.9573
  298MOL0     H39280   8.948  10.221   2.466 -0.5910 -0.1300 -0.7846
  298MOL0     H39281   8.856  10.029   2.511 -1.1285  3.1056 -1.8500
  298MOL0     H39282   8.758  10.135   2.585  0.0782  2.5967  1.8057
  298MOL0     H39283   8.867  10.118   2.807  1.4858 -0.6636 -0.2354
  298MOL0     H39284   8.956   9.971   2.755 -0.1044 -0.3998  2.4152
  298MOL0     H39285   8.650  10.024   2.746  0.5744  0.3596 -2.2581
  298MOL0     H39286   8.739   9.884   2.669  2.7263 -1.1933  1.5831
  298MOL0     H39287   8.782   9.955   2.965  1.1321 -0.1094  0.3041
  298MOL0     H39288   8.813   9.801   2.878 -3.2974 -1.5631  1.2889
  298MOL0     H39289   8.514   9.984   3.037  1.3831 -1.5659  3.8802
  298MOL0     H39290   8.267   9.930   3.072 -4.4411 -0.1758 -1.9483
  298MOL0     H39291   8.295   9.796   3.183 -0.6060  0.1878 -0.1796
  298MOL0     H39292   8.185   9.642   3.015 -0.6555 -0.3774  0.1591
  298MOL0     H39293   8.176   9.772   2.910  0.1253 -0.7486 -0.2227
  298MOL0     H39294   7.980   9.689   3.074  2.7478 -0.5828 -3.1235
  298MOL0     H39295   8.058   9.807   3.192  0.7265  1.5534  0.1209
  298MOL0     H39296   8.052   9.992   3.042  1.9918 -1.5285 -0.6150
  298MOL0     H39297   7.883   9.937   3.082 -1.3150 -0.2260 -1.9186
  298MOL0     H39298   7.727   9.978   2.916  0.5763  0.2969  0.9324
  298MOL0     H39299   7.527   9.846   2.822  1.2727  2.5638  0.3356
  298MOL0     H39300   7.311   9.432   2.831  0.4444 -1.0462  0.8739
  298MOL0     H39301   7.134   9.316   2.708 -0.0799  3.3123 -1.4130
  298MOL0     H39302   7.048   9.252   2.460 -0.6047  0.2164  0.9899
  298MOL0     H39303   6.997   9.152   2.604 -0.1265 -0.2915 -0.6934
  298MOL0     H39304   6.969   8.965   2.467  0.8909  0.1501 -0.2506
  298MOL0     H39305   6.971   9.072   2.314 -1.3552  2.6118 -0.8965
  298MOL0     H39306   6.794   9.195   2.385  2.1208  1.3971  2.2117
  298MOL0     H39307   6.780   9.112   2.536  5.1769  3.6355  1.5109
  298MOL0     H39308   6.769   8.966   2.272  2.5320  0.8944 -0.1547
  298MOL0     H39309   6.735   8.905   2.438 -0.8941  0.8128  0.2167
  298MOL0     H39310   6.583   9.113   2.275  1.6989 -2.0302 -2.1649
  298MOL0     H39311   6.575   9.112   2.451 -1.4303 -0.6951  0.7613
  298MOL0     H39312   6.477   8.881   2.455  1.8871 -0.3081 -0.6484
  298MOL0     H39313   6.525   8.864   2.288  0.8005  2.1593 -1.3527
  298MOL0     H39314   6.318   9.075   2.389  0.8658  0.3995 -1.8364
  298MOL0     H39315   6.332   9.010   2.224 -0.8786  1.6738 -0.5241
  298MOL0     H39316   6.234   8.864   2.462 -0.3723  0.9615 -0.9985
  298MOL0     H39317   6.262   8.788   2.304  0.4019  0.2431 -0.6054
  298MOL0     H39318   7.423   9.101   2.476  1.9347 -0.1811  0.2421
  298MOL0     H39319   7.596   9.268   2.566 -1.2216 -0.3776 -1.4233
  298MOL0     H39320   7.801   9.520   2.737 -1.4928 -0.3618  0.8994
  298MOL0     H39321   7.987   9.657   2.814 -0.1609  1.1070  1.6169
  298MOL0     H39322   9.599  10.219   2.627 -1.4585 -0.4697  1.0625
  298MOL0     H39323   9.837  10.285   2.655  0.1208  1.0848  3.7983
  298MOL0     H39324  10.117  10.456   3.059 -1.8292  0.4542 -1.4689
  298MOL0     H39325  10.367  10.442   3.094  2.2817  0.5400 -0.0786
  298MOL0     H39326  10.723  10.520   2.887 -1.8952  0.2504 -0.0214
  298MOL0     H39327  10.623  10.557   2.746 -1.7965 -0.5344 -0.9405
  298MOL0     H39328  10.635  10.319   2.666 -0.8107 -2.8866  0.8533
  298MOL0     H39329  10.790  10.398   2.674 -0.9685 -3.1397 -1.5617
  298MOL0     H39330  10.686  10.189   2.857 -0.8543  0.9644 -0.5091
  298MOL0     H39331  10.791  10.313   2.937 -0.3373 -2.4392  2.7321
  298MOL0     H39332  10.904  10.106   2.881  1.5104 -0.2644 -1.7183
  298MOL0     H39333  10.847  10.107   2.722  0.5264 -0.2325  0.3989
  298MOL0     H39334  11.186  10.357   2.668 -1.0990  2.8231  0.6199
  298MOL0     H39335  10.400  10.449   2.662 -1.1591 -1.7608 -0.8082
  298MOL0     H39336  10.174  10.502   2.636  0.3131  1.7100 -0.4221
  299MOL0     O39337   2.121   5.098   5.836  0.1611 -0.7075 -0.8076
  299MOL0     C39338   2.054   5.022   5.910  0.0562 -0.3509  0.2673
  299MOL0     O39339   2.098   4.938   6.011 -0.3718  0.1730  0.1390
  299MOL0     C39340   2.231   4.905   6.001 -0.3903  0.5375 -0.4986
  299MOL0     C39341   2.312   4.902   6.110 -0.4298  0.6110 -0.9836
  299MOL0     C39342   2.444   4.860   6.103 -0.6605 -0.6865 -0.0890
  299MOL0     C39343   2.506   4.816   5.986  0.2014  0.6610  0.1721
  299MOL0     O39344   2.636   4.769   5.970 -0.0593  0.5197 -0.0858
  299MOL0     C39345   2.726   4.798   6.073 -0.8334  0.9223  0.2488
  299MOL0     C39346   2.866   4.760   6.027  0.7492 -1.0744  0.7719
  299MOL0     C39347   2.964   4.769   6.148 -0.2827 -1.0169 -0.0558
  299MOL0     C39348   3.109   4.751   6.103 -0.6357 -0.2689 -1.3783
  299MOL0     C39349   3.202   4.711   6.224  0.2308 -0.4569  1.0830
  299MOL0     C39350   3.347   4.718   6.188 -0.0588  0.8846 -0.3109
  299MOL0     C39351   3.444   4.702   6.307 -0.1044  0.2069  0.4995
  299MOL0     C39352   3.467   4.556   6.358 -0.8114 -0.9281 -0.9273
  299MOL0     N39353   3.518   4.478   6.257 -0.2248  0.3314  1.3740
  299MOL0     C39354   3.446   4.408   6.173  0.9331  1.3262  0.1651
  299MOL0     C39355   3.531   4.329   6.104 -0.5237 -0.5718 -0.0676
  299MOL0     C39356   3.488   4.249   5.983 -0.3612  1.0060  0.1017
  299MOL0     C39357   3.533   4.313   5.852  0.0445 -0.2383 -0.2710
  299MOL0     C39358   3.485   4.448   5.843  0.0449 -0.7821 -0.3073
  299MOL0     C39359   3.330   4.444   5.852 -0.2029  0.2714 -0.2088
  299MOL0     O39360   3.282   4.544   5.758 -0.4006 -0.8964 -0.5438
  299MOL0     C39361   3.142   4.556   5.734 -1.2184  0.8097  0.1462
  299MOL0     C39362   3.096   4.688   5.704  0.1735 -1.0051  0.0513
  299MOL0     C39363   2.955   4.705   5.685  1.2326 -0.1656  0.6507
  299MOL0     C39364   2.868   4.605   5.685  0.3810  0.9170  0.8590
  299MOL0     C39365   2.722   4.619   5.643  0.1645 -0.2033  0.2715
  299MOL0     O39366   2.667   4.737   5.600  0.1475 -0.3257  1.0094
  299MOL0     C39367   2.547   4.738   5.526  0.9600  0.0669 -0.6109
  299MOL0     C39368   2.485   4.635   5.446 -0.4055  0.5038  0.5917
  299MOL0     C39369   2.368   4.653   5.374 -1.0203  0.6902  0.2280
  299MOL0     C39370   2.302   4.767   5.387  0.2344 -0.0251  0.4601
  299MOL0     O39371   2.179   4.797   5.330 -0.3687 -0.1389 -0.4324
  299MOL0     C39372   2.084   4.693   5.309 -0.0567 -0.5148 -0.1085
  299MOL0     C39373   1.987   4.728   5.203  0.5830 -0.3918  0.3473
  299MOL0     C39374   1.877   4.622   5.190 -0.8067 -0.1962  0.0751
  299MOL0     C39375   1.801   4.632   5.060  0.6018  0.3448  0.7180
  299MOL0     C39376   1.729   4.761   5.054  0.0665  0.3969  0.4189
  299MOL0     C39377   1.618   4.755   4.949  0.8565 -0.8321  0.6987
  299MOL0     C39378   1.669   4.759   4.809 -0.8819 -0.6613 -0.3596
  299MOL0     C39379   1.569   4.779   4.698  0.2067  0.5792  0.0768
  299MOL0    Cl39380   1.403   4.714   4.707  1.1930  0.3702  0.6019
  299MOL0     C39381   2.353   4.873   5.462 -0.1807  0.1301 -0.3447
  299MOL0     C39382   2.477   4.858   5.527 -0.5321  0.2891 -0.4352
  299MOL0     O39383   2.657   4.515   5.651 -0.2516  0.1016 -0.8346
  299MOL0     C39384   2.926   4.473   5.703  0.4693  0.0529  0.8344
  299MOL0     C39385   3.062   4.446   5.735  0.5569  0.9363  1.0482
  299MOL0     N39386   3.658   4.356   6.150 -0.5024 -0.2447 -0.8919
  299MOL0     N39387   3.648   4.435   6.250 -0.6334 -0.2894  0.5283
  299MOL0     C39388   2.419   4.819   5.873  0.2621  0.6261  0.3133
  299MOL0     C39389   2.286   4.863   5.882  0.6129  0.9865  0.1211
  299MOL0     C39390   1.908   5.027   5.896 -0.3355 -0.1977 -0.0822
  299MOL0     C39391   1.836   4.911   5.941 -0.1568 -0.1453  0.1025
  299MOL0     C39392   1.696   4.919   5.940 -0.1430  1.1002  0.2776
  299MOL0     C39393   1.628   5.032   5.891 -0.7745  0.5700 -0.9043
  299MOL0     O39394   1.493   5.041   5.899  0.0060  0.2678  0.4984
  299MOL0     C39395   1.439   5.052   6.033  0.3787 -0.1482 -0.6198
  299MOL0     C39396   1.319   4.957   6.048  0.0694  0.0693  0.4364
  299MOL0     C39397   1.294   4.924   6.196  0.6103  0.9730  0.3608
  299MOL0     C39398   1.150   4.866   6.210 -0.2424  0.5819  0.8325
  299MOL0     C39399   1.133   4.752   6.116 -0.1408  0.2444 -0.4273
  299MOL0     C39400   1.104   4.653   6.045 -0.5082 -1.2160  0.4880
  299MOL0     C39401   1.705   5.139   5.837  0.1151 -0.3982 -0.0947
  299MOL0     C39402   1.840   5.141   5.841 -0.2537  0.1849 -0.5043
  299MOL0     H39403   2.267   4.921   6.207  0.4163 -1.7570 -0.0442
  299MOL0     H39404   2.503   4.868   6.194 -1.1607  0.4201  0.1527
  299MOL0     H39405   2.712   4.724   6.153  3.7482  0.9413  1.3138
  299MOL0     H39406   2.714   4.902   6.105 -0.6539  1.6943 -2.0592
  299MOL0     H39407   2.904   4.823   5.946 -1.0334 -2.7714 -1.5176
  299MOL0     H39408   2.870   4.662   5.977  0.2283 -1.0353  0.6420
  299MOL0     H39409   2.937   4.687   6.215 -1.1725 -0.0767  0.7689
  299MOL0     H39410   2.957   4.861   6.205 -4.6130  0.4600 -2.5403
  299MOL0     H39411   3.108   4.667   6.033  3.4406 -2.5615  0.8854
  299MOL0     H39412   3.160   4.837   6.059 -1.2684  0.5307 -0.5902
  299MOL0     H39413   3.174   4.614   6.266 -0.7238 -0.1919  1.0909
  299MOL0     H39414   3.192   4.784   6.306  2.1004 -1.6016  2.4023
  299MOL0     H39415   3.370   4.820   6.156  1.0240  1.4015  1.9207
  299MOL0     H39416   3.367   4.652   6.104 -1.1880 -1.0741  0.8937
  299MOL0     H39417   3.544   4.736   6.278 -0.0016 -0.9366 -0.5684
  299MOL0     H39418   3.402   4.766   6.385 -0.0957  0.7904  0.0333
  299MOL0     H39419   3.369   4.524   6.393 -2.0013  1.7694 -1.5602
  299MOL0     H39420   3.546   4.554   6.434  0.3124 -2.5957 -2.0427
  299MOL0     H39421   3.339   4.411   6.155  1.2018  1.0369 -1.7424
  299MOL0     H39422   3.381   4.225   5.986  0.0591 -2.3793 -3.6831
  299MOL0     H39423   3.534   4.151   6.000 -1.7097  0.3501  0.1083
  299MOL0     H39424   3.488   4.253   5.772  1.6758  0.2203 -1.5824
  299MOL0     H39425   3.641   4.317   5.836 -0.0620  1.8806 -0.8066
  299MOL0     H39426   3.527   4.515   5.919 -0.9038  0.1733 -0.6011
  299MOL0     H39427   3.521   4.498   5.753 -0.6983  3.3326  1.4883
  299MOL0     H39428   3.296   4.468   5.953  2.6102  0.8321  0.6901
  299MOL0     H39429   3.286   4.350   5.818 -1.5223  0.9246 -0.3873
  299MOL0     H39430   3.169   4.768   5.704 -0.5335 -0.3574 -0.6556
  299MOL0     H39431   2.908   4.802   5.673  1.7589  0.4823  3.3348
  299MOL0     H39432   2.539   4.543   5.426  0.4911  1.2886 -0.8551
  299MOL0     H39433   2.326   4.564   5.328 -0.2670 -1.3199  3.1374
  299MOL0     H39434   2.027   4.700   5.402 -1.6239  2.1286 -1.1690
  299MOL0     H39435   2.124   4.591   5.299 -3.2077 -2.6112  4.7307
  299MOL0     H39436   2.035   4.731   5.105  0.7639  1.5905  0.4526
  299MOL0     H39437   1.935   4.822   5.224  2.6324  1.8987 -3.6090
  299MOL0     H39438   1.803   4.627   5.271  0.2512  0.9576  1.0164
  299MOL0     H39439   1.931   4.529   5.173 -1.3671 -0.8625  1.7299
  299MOL0     H39440   1.870   4.610   4.978  0.6084 -2.2786  1.3475
  299MOL0     H39441   1.721   4.557   5.055  0.3493  0.6956 -1.7252
  299MOL0     H39442   1.802   4.842   5.042  1.6070 -0.7758  1.6049
  299MOL0     H39443   1.679   4.786   5.147 -2.1957 -0.7487 -0.4185
  299MOL0     H39444   1.564   4.848   4.966  1.4078 -0.8539  2.8435
  299MOL0     H39445   1.543   4.679   4.974 -0.7940  0.6211  0.3366
  299MOL0     H39446   1.740   4.840   4.790 -2.3816  0.8403  0.2035
  299MOL0     H39447   1.728   4.667   4.796 -0.1826 -0.2690 -0.0294
  299MOL0     H39448   1.619   4.742   4.608 -1.5653 -2.4191  0.1863
  299MOL0     H39449   1.569   4.889   4.694  5.3746  0.9559  2.7389
  299MOL0     H39450   2.306   4.967   5.487 -4.8309 -2.5417  2.2600
  299MOL0     H39451   2.529   4.936   5.582 -0.5844 -1.6941  2.6623
  299MOL0     H39452   2.861   4.386   5.699 -2.2039  1.9168  1.0841
  299MOL0     H39453   3.105   4.347   5.752  0.7336  1.1411  1.7938
  299MOL0     H39454   2.456   4.788   5.776 -1.8012  0.9611 -0.6244
  299MOL0     H39455   2.231   4.872   5.789  0.5926  2.8936  0.2819
  299MOL0     H39456   1.890   4.836   5.998 -1.4392  0.6922  2.5169
  299MOL0     H39457   1.633   4.840   5.979 -1.4922  1.2532 -1.4541
  299MOL0     H39458   1.410   5.153   6.065  1.7372 -0.1925  0.8934
  299MOL0     H39459   1.513   5.027   6.109 -0.8323 -0.7302  0.4065
  299MOL0     H39460   1.240   5.019   6.005  0.6319  1.5679  1.4830
  299MOL0     H39461   1.331   4.874   5.978  0.9883  2.1093 -1.9848
  299MOL0     H39462   1.308   5.007   6.265 -3.1954  1.5731  0.6040
  299MOL0     H39463   1.363   4.842   6.221 -2.5850 -2.4779 -1.1041
  299MOL0     H39464   1.132   4.844   6.316  0.7837  3.3481  1.6565
  299MOL0     H39465   1.088   4.951   6.180  1.1183  1.0135 -0.9082
  299MOL0     H39466   1.074   4.574   5.979  1.0212 -1.2816 -0.1575
  299MOL0     H39467   1.651   5.224   5.796  1.2862  1.5105  2.0841
  299MOL0     H39468   1.899   5.226   5.810 -0.3287  0.3435 -0.2087
  300MOL0     O39469   3.230   8.734   2.442  0.0297 -0.3566 -0.0795
  300MOL0     C39470   3.186   8.753   2.557  1.0565  1.0358  0.2051
  300MOL0     O39471   3.235   8.833   2.660  0.2583  0.4559 -0.4176
  300MOL0     C39472   3.360   8.894   2.647 -0.0663  0.3549  0.3873
  300MOL0     C39473   3.433   8.928   2.535 -0.0583 -0.4290  0.5951
  300MOL0     C39474   3.560   8.994   2.533 -0.0863  0.4287  0.0244
  300MOL0     C39475   3.628   9.015   2.652 -0.0800  0.0605  1.2744
  300MOL0     O39476   3.751   9.076   2.652 -0.2248  0.7051  0.5786
  300MOL0     C39477   3.776   9.172   2.541  0.6495  0.2555  0.5815
  300MOL0     C39478   3.908   9.233   2.571 -0.0817 -0.3118  0.0156
  300MOL0     C39479   3.964   9.332   2.468 -0.3780  0.1660  0.4597
  300MOL0     C39480   4.087   9.385   2.533  0.4891  0.5886 -0.0180
  300MOL0     C39481   4.151   9.490   2.449  0.4368 -0.5738  0.0800
  300MOL0     C39482   4.275   9.553   2.515  0.0741 -0.6189 -0.0806
  300MOL0     C39483   4.407   9.474   2.498 -0.0394  1.4548 -0.0179
  300MOL0     C39484   4.411   9.370   2.609 -0.2553  0.4992  0.5950
  300MOL0     N39485   4.543   9.344   2.663 -0.6778 -0.0632 -0.1700
  300MOL0     C39486   4.635   9.271   2.605  0.5393 -0.1335 -0.0028
  300MOL0     C39487   4.746   9.278   2.683  0.3641 -0.4927  0.1278
  300MOL0     C39488   4.870   9.211   2.648 -0.3626 -0.7087  0.0321
  300MOL0     C39489   4.987   9.253   2.738  0.5734 -0.1989  0.3011
  300MOL0     C39490   5.095   9.144   2.716  0.1123  0.2004 -0.4988
  300MOL0     C39491   5.223   9.193   2.792 -0.4584 -0.9556 -0.2639
  300MOL0     O39492   5.345   9.143   2.737 -0.3326 -0.0440  0.2355
  300MOL0     C39493   5.415   9.045   2.810 -0.1561 -0.5722 -0.6622
  300MOL0     C39494   5.522   9.098   2.878 -0.7733 -0.3651  0.0226
  300MOL0     C39495   5.613   9.019   2.957  0.2248  0.3259  0.9410
  300MOL0     C39496   5.579   8.881   2.967  0.3013  0.2202 -1.0655
  300MOL0     C39497   5.665   8.791   3.041  0.0704  0.5995  1.0251
  300MOL0     O39498   5.617   8.670   3.067  0.6611  0.0705 -0.6169
  300MOL0     C39499   5.696   8.560   3.107  0.8629 -0.0570 -0.2831
  300MOL0     C39500   5.730   8.458   3.020 -0.5650  0.0417  0.6081
  300MOL0     C39501   5.824   8.357   3.051  0.7553 -0.0846  0.0130
  300MOL0     C39502   5.890   8.356   3.174  0.9149  0.1416 -0.1555
  300MOL0     O39503   5.987   8.265   3.211  0.3667  0.4291  0.6438
  300MOL0     C39504   6.031   8.174   3.111  0.2069  0.1635 -0.0307
  300MOL0     C39505   6.148   8.100   3.147 -0.2241  0.9737 -0.6006
  300MOL0     C39506   6.199   8.014   3.034 -1.1510 -0.6137  0.1867
  300MOL0     C39507   6.100   7.896   3.007  0.4640 -0.6762 -0.6531
  300MOL0     C39508   6.131   7.812   2.890  0.2643 -0.8198 -0.2786
  300MOL0     C39509   6.053   7.677   2.905  0.4596 -0.2133 -0.5542
  300MOL0     C39510   6.080   7.594   2.768 -0.3142  0.6082 -0.2933
  300MOL0     C39511   6.002   7.464   2.794 -0.4469  0.4264 -0.6797
  300MOL0    Cl39512   5.997   7.364   2.640 -0.2248  0.1241 -0.6659
  300MOL0     C39513   5.852   8.454   3.275  0.4119 -0.1676  0.4558
  300MOL0     C39514   5.753   8.550   3.243 -0.3061 -0.0118  0.2269
  300MOL0     O39515   5.778   8.825   3.060  0.4595  0.2315 -0.0468
  300MOL0     C39516   5.459   8.836   2.912 -0.1812  0.1387 -0.0220
  300MOL0     C39517   5.379   8.919   2.844 -1.3078  0.1327 -0.2528
  300MOL0     N39518   4.725   9.354   2.788 -0.8576 -0.2938  0.2355
  300MOL0     N39519   4.598   9.392   2.781 -0.0871 -0.7051  0.1617
  300MOL0     C39520   3.567   8.970   2.765 -0.2723  0.9237  0.2404
  300MOL0     C39521   3.432   8.922   2.768 -0.8290  0.5227  0.4683
  300MOL0     C39522   3.067   8.678   2.599  0.5295  0.0196  0.5640
  300MOL0     C39523   2.981   8.632   2.495 -0.2452  0.4004 -0.0253
  300MOL0     C39524   2.865   8.563   2.540  0.3640 -0.6978  0.5006
  300MOL0     C39525   2.832   8.542   2.678 -0.5382  0.5324 -0.0259
  300MOL0     O39526   2.709   8.490   2.722 -0.3322  0.4985 -0.6242
  300MOL0     C39527   2.596   8.468   2.634 -0.7301  0.2247  0.1930
  300MOL0     C39528   2.593   8.322   2.574  0.1487 -0.6555  0.4520
  300MOL0     C39529   2.491   8.298   2.460 -0.2763  0.0876 -0.4519
  300MOL0     C39530   2.354   8.337   2.496  0.9057 -0.3195 -0.1727
  300MOL0     C39531   2.309   8.262   2.615  0.1054  0.3053 -0.2552
  300MOL0     C39532   2.287   8.191   2.715 -0.4622  0.6118  0.2453
  300MOL0     C39533   2.925   8.592   2.773 -0.0546  0.1448  0.1579
  300MOL0     C39534   3.040   8.668   2.737 -0.4703  0.3443 -0.3671
  300MOL0     H39535   3.395   8.919   2.434  2.1901  1.5511 -0.5353
  300MOL0     H39536   3.602   9.024   2.437 -0.8994  2.4519  0.2419
  300MOL0     H39537   3.706   9.254   2.525 -0.4855 -0.9979 -1.3090
  300MOL0     H39538   3.789   9.112   2.450  2.2208  0.3912  0.6999
  300MOL0     H39539   3.978   9.150   2.589 -0.0358 -0.9912 -2.8521
  300MOL0     H39540   3.896   9.284   2.667 -2.3505 -0.1502 -0.3136
  300MOL0     H39541   3.891   9.408   2.441 -0.0110 -0.2324 -1.7965
  300MOL0     H39542   3.980   9.277   2.375  2.2181  3.0244 -0.9487
  300MOL0     H39543   4.067   9.434   2.629  0.6418 -1.8152  1.3270
  300MOL0     H39544   4.165   9.311   2.553  0.8460  1.7032  3.3433
  300MOL0     H39545   4.083   9.572   2.422  2.1450  0.2612 -1.9343
  300MOL0     H39546   4.185   9.447   2.354  1.2934  0.8333 -0.2819
  300MOL0     H39547   4.252   9.590   2.615  1.7807  1.3506 -0.3474
  300MOL0     H39548   4.297   9.652   2.474 -0.5528 -0.2509  0.4317
  300MOL0     H39549   4.413   9.434   2.396 -3.2589  0.1069  0.1997
  300MOL0     H39550   4.488   9.547   2.509 -0.4380  2.5445 -3.2823
  300MOL0     H39551   4.385   9.272   2.569  3.0952 -1.8203  3.4080
  300MOL0     H39552   4.339   9.388   2.690 -0.0199 -2.4902  1.5773
  300MOL0     H39553   4.623   9.215   2.513 -1.1445 -1.8211  1.1821
  300MOL0     H39554   4.894   9.220   2.542  0.4915 -0.8247  0.2127
  300MOL0     H39555   4.844   9.109   2.678 -0.9416 -0.0163  2.0203
  300MOL0     H39556   4.959   9.272   2.842 -0.1180  1.6783 -0.1968
  300MOL0     H39557   5.018   9.352   2.704 -1.2778  0.5477  0.6878
  300MOL0     H39558   5.057   9.057   2.769 -1.1088  1.0813  0.1105
  300MOL0     H39559   5.106   9.132   2.608  1.4175  0.8056 -0.4591
  300MOL0     H39560   5.202   9.168   2.897 -2.0264 -0.3238 -0.4029
  300MOL0     H39561   5.247   9.299   2.780 -0.7031 -1.0345 -1.5726
  300MOL0     H39562   5.560   9.199   2.865  2.8691 -1.4582  1.0605
  300MOL0     H39563   5.701   9.072   2.992  1.9584 -1.5224 -0.3699
  300MOL0     H39564   5.665   8.471   2.935 -0.4476  2.4442  0.8051
  300MOL0     H39565   5.833   8.270   2.987  0.3951  0.7491 -1.2058
  300MOL0     H39566   6.062   8.245   3.033 -0.3810  2.4846  1.7140
  300MOL0     H39567   5.951   8.104   3.088  1.5826 -1.4232 -0.1264
  300MOL0     H39568   6.138   8.045   3.241 -1.7190 -1.4794 -2.0829
  300MOL0     H39569   6.222   8.178   3.166  0.7772 -0.0896  0.0275
  300MOL0     H39570   6.291   7.961   3.059 -2.5621 -2.5242  1.5638
  300MOL0     H39571   6.225   8.073   2.945  0.3841 -0.3878  0.7494
  300MOL0     H39572   6.101   7.833   3.096 -1.8104  1.0184  0.6669
  300MOL0     H39573   5.996   7.924   2.990 -0.3873 -3.7259 -1.0413
  300MOL0     H39574   6.239   7.799   2.882  0.6942  1.0646  1.6958
  300MOL0     H39575   6.095   7.869   2.805 -0.6727  1.5896  1.6161
  300MOL0     H39576   5.947   7.699   2.921  0.4759 -0.3146 -0.2967
  300MOL0     H39577   6.086   7.625   2.996  0.8133 -0.6923 -0.9520
  300MOL0     H39578   6.031   7.650   2.688  1.3867  0.1698 -1.7144
  300MOL0     H39579   6.183   7.569   2.741 -1.0885 -3.6396 -0.1092
  300MOL0     H39580   5.906   7.494   2.836 -0.4156  0.6584 -0.7730
  300MOL0     H39581   6.057   7.405   2.868 -1.0838  0.3801 -0.2369
  300MOL0     H39582   5.907   8.452   3.368  2.1368  1.0772 -0.4955
  300MOL0     H39583   5.732   8.630   3.313 -0.9924 -1.8848  2.2633
  300MOL0     H39584   5.438   8.730   2.917  1.1795 -0.1154  0.7578
  300MOL0     H39585   5.295   8.873   2.793 -1.3360 -1.1381  0.8734
  300MOL0     H39586   3.616   8.972   2.862 -0.8071  0.5197  0.5227
  300MOL0     H39587   3.393   8.904   2.867 -0.9942 -2.5148 -0.0510
  300MOL0     H39588   3.003   8.629   2.389  3.3959 -0.9310  0.6206
  300MOL0     H39589   2.801   8.528   2.460 -0.2840  1.0855  0.2017
  300MOL0     H39590   2.611   8.546   2.560  0.0148  1.6817  1.8078
  300MOL0     H39591   2.501   8.486   2.686 -0.4694  0.8478  0.4575
  300MOL0     H39592   2.694   8.292   2.544 -0.7670  0.1247 -4.2480
  300MOL0     H39593   2.560   8.262   2.659 -0.5492  0.4133  0.9445
  300MOL0     H39594   2.493   8.193   2.431 -1.3035  0.1820 -0.8866
  300MOL0     H39595   2.516   8.359   2.373 -2.1683  2.5827  0.6074
  300MOL0     H39596   2.342   8.446   2.501  2.8507 -0.0993  3.5651
  300MOL0     H39597   2.292   8.305   2.412  0.7962  1.4099 -0.7998
  300MOL0     H39598   2.249   8.126   2.791 -1.2883  0.6970 -0.0898
  300MOL0     H39599   2.909   8.582   2.880 -0.3452  1.0642  0.2032
  300MOL0     H39600   3.098   8.699   2.824 -0.0463 -0.9268 -0.1735
  301MOL0     O39601   3.568   7.942   4.913  0.4140  0.3327  0.8145
  301MOL0     C39602   3.678   7.997   4.923 -0.2262  0.0939 -0.6482
  301MOL0     O39603   3.726   8.051   5.042  0.0805 -0.3870  0.0891
  301MOL0     C39604   3.657   8.049   5.160  1.3054  0.3066  0.0453
  301MOL0     C39605   3.690   8.151   5.255  0.2465 -0.0240  0.2570
  301MOL0     C39606   3.624   8.154   5.378 -0.5787  0.3612 -1.0300
  301MOL0     C39607   3.536   8.052   5.420 -0.5193 -0.1720  0.0454
  301MOL0     O39608   3.463   8.056   5.531 -0.5003 -0.1576 -0.3295
  301MOL0     C39609   3.491   7.943   5.622  0.0839  0.2258 -0.1050
  301MOL0     C39610   3.385   7.943   5.733 -0.2010 -1.2108 -0.0312
  301MOL0     C39611   3.249   7.891   5.668 -0.2393  0.1202  0.5850
  301MOL0     C39612   3.240   7.741   5.686 -0.8487  0.3645 -0.0691
  301MOL0     C39613   3.118   7.668   5.636  0.1856 -1.0210  0.6704
  301MOL0     C39614   3.063   7.549   5.722  0.2815 -0.4095  0.3427
  301MOL0     C39615   2.921   7.578   5.757  0.8629  0.0078  0.1407
  301MOL0     C39616   2.853   7.475   5.844  0.1000 -0.2345  0.7941
  301MOL0     N39617   2.713   7.498   5.884 -0.5981 -0.2956  0.2900
  301MOL0     C39618   2.646   7.617   5.870  1.1971  0.0363  0.4066
  301MOL0     C39619   2.513   7.598   5.906 -0.8277 -0.2191 -0.5645
  301MOL0     C39620   2.414   7.699   5.905 -0.4968 -1.0312 -0.9241
  301MOL0     C39621   2.466   7.833   5.960  1.3203  0.4291 -0.0868
  301MOL0     C39622   2.475   7.837   6.116 -0.8367 -0.3793 -0.7685
  301MOL0     C39623   2.364   7.774   6.203 -0.4428  0.5910  0.3063
  301MOL0     O39624   2.246   7.830   6.155  0.4783  0.7409 -0.3235
  301MOL0     C39625   2.126   7.782   6.198  0.6172 -0.6876 -0.1790
  301MOL0     C39626   2.105   7.712   6.315  0.0042  0.0352 -0.1233
  301MOL0     C39627   1.978   7.661   6.343  0.3087  0.6622  0.4203
  301MOL0     C39628   1.870   7.704   6.268  0.0258 -0.4686 -0.2020
  301MOL0     C39629   1.732   7.645   6.305 -0.0092 -0.8257 -0.6143
  301MOL0     O39630   1.710   7.554   6.406  0.0849 -0.4025 -0.1933
  301MOL0     C39631   1.582   7.528   6.449 -0.3203  0.2747 -0.6263
  301MOL0     C39632   1.472   7.499   6.361 -0.0971 -1.1804  0.5147
  301MOL0     C39633   1.344   7.492   6.415 -0.7483 -0.1695 -0.3373
  301MOL0     C39634   1.309   7.518   6.550 -0.3719 -0.2784  0.5628
  301MOL0     O39635   1.179   7.504   6.587  0.9842 -0.1240 -0.3414
  301MOL0     C39636   1.139   7.489   6.721 -0.4616  0.7718 -0.0859
  301MOL0     C39637   0.986   7.491   6.714 -0.3779 -0.3646 -1.3787
  301MOL0     C39638   0.941   7.621   6.668  1.3432 -0.2177  1.0810
  301MOL0     C39639   0.797   7.645   6.635  0.3765  0.4287 -1.0337
  301MOL0     C39640   0.758   7.790   6.672  0.6737 -0.4805  0.1331
  301MOL0     C39641   0.612   7.846   6.647  0.3321  0.3652 -0.3203
  301MOL0     C39642   0.512   7.792   6.748 -0.9568 -0.0709  0.1650
  301MOL0     C39643   0.373   7.848   6.729  0.1418  0.2752 -0.5732
  301MOL0    Cl39644   0.312   7.811   6.566 -0.2203  0.1193 -0.0592
  301MOL0     C39645   1.419   7.537   6.637 -0.7998 -0.1231 -0.9994
  301MOL0     C39646   1.549   7.545   6.590 -0.6960 -0.1275  0.6243
  301MOL0     O39647   1.649   7.694   6.229  0.2586  0.2307 -0.4828
  301MOL0     C39648   1.890   7.805   6.173  0.6432  0.2093  0.0024
  301MOL0     C39649   2.017   7.836   6.135 -0.5841  0.0283 -0.6558
  301MOL0     N39650   2.506   7.478   5.953  0.0961  0.0296  0.0503
  301MOL0     N39651   2.620   7.411   5.941 -0.3500 -0.0788  0.1139
  301MOL0     C39652   3.528   7.931   5.346  0.5969  0.2828  1.2339
  301MOL0     C39653   3.579   7.940   5.214 -0.0104 -0.4581  0.2490
  301MOL0     C39654   3.770   8.004   4.812 -0.7678 -0.5273  1.1526
  301MOL0     C39655   3.736   8.006   4.675  0.7954  0.4260 -0.8592
  301MOL0     C39656   3.823   8.043   4.575  0.3470 -0.6508 -0.5257
  301MOL0     C39657   3.955   8.085   4.604  0.2884  0.3981  0.5474
  301MOL0     O39658   4.036   8.135   4.513 -0.4811 -0.2595 -0.4631
  301MOL0     C39659   3.990   8.163   4.382 -0.5745 -0.4265  0.5609
  301MOL0     C39660   4.096   8.248   4.306 -0.0167 -0.6854 -0.0401
  301MOL0     C39661   4.072   8.392   4.350  0.2774  0.2717  0.1820
  301MOL0     C39662   4.171   8.492   4.280 -0.4451  0.0355  0.1179
  301MOL0     C39663   4.124   8.521   4.145 -0.0981 -0.9342 -0.1367
  301MOL0     C39664   4.102   8.542   4.027 -0.8066 -0.3853 -0.1618
  301MOL0     C39665   3.991   8.092   4.738 -0.3216  0.1997 -0.7851
  301MOL0     C39666   3.902   8.056   4.841  1.0087  0.2463 -1.2273
  301MOL0     H39667   3.754   8.235   5.230  0.3155  0.0147  0.5616
  301MOL0     H39668   3.649   8.239   5.441  2.6554 -0.9218 -0.3791
  301MOL0     H39669   3.576   7.970   5.686 -0.7276  0.8505  0.7289
  301MOL0     H39670   3.501   7.844   5.577 -0.4872 -0.2645  0.8155
  301MOL0     H39671   3.373   8.046   5.769  0.0731 -1.4317  0.7130
  301MOL0     H39672   3.410   7.877   5.816 -4.5337  0.9141  3.3904
  301MOL0     H39673   3.246   7.908   5.560  1.1553  1.2577  0.6931
  301MOL0     H39674   3.168   7.950   5.713 -0.9469 -1.4824  1.5025
  301MOL0     H39675   3.323   7.683   5.645 -1.6614 -1.1497  0.3605
  301MOL0     H39676   3.250   7.721   5.793 -1.6196  1.6467  0.2678
  301MOL0     H39677   3.144   7.635   5.535 -0.7581  0.6949 -0.1819
  301MOL0     H39678   3.043   7.748   5.632  2.7713  1.7055  2.4586
  301MOL0     H39679   3.124   7.543   5.812  0.3545 -3.3678  0.2050
  301MOL0     H39680   3.085   7.460   5.663  2.1544 -0.5151  1.1517
  301MOL0     H39681   2.920   7.664   5.824 -0.0837 -0.0039  0.1510
  301MOL0     H39682   2.857   7.595   5.670 -2.3598  0.3430  2.3763
  301MOL0     H39683   2.909   7.459   5.936  1.5708 -1.4263 -0.2508
  301MOL0     H39684   2.872   7.380   5.792  3.0826  1.2991 -1.2086
  301MOL0     H39685   2.684   7.709   5.828  0.6537  0.5501  1.0149
  301MOL0     H39686   2.326   7.672   5.965 -2.1751  1.5059 -2.0650
  301MOL0     H39687   2.373   7.714   5.805 -1.5792  2.6148 -0.0647
  301MOL0     H39688   2.382   7.894   5.925  1.2822 -1.2449 -3.2931
  301MOL0     H39689   2.557   7.875   5.916  1.9984 -0.9908 -0.0971
  301MOL0     H39690   2.561   7.786   6.162 -2.8101 -0.7353  2.9521
  301MOL0     H39691   2.483   7.944   6.139  0.3376 -0.7934  0.9333
  301MOL0     H39692   2.381   7.808   6.305  0.5583 -1.8561  1.0308
  301MOL0     H39693   2.366   7.665   6.209 -0.7318  0.5777  0.1701
  301MOL0     H39694   2.188   7.692   6.381 -0.0353 -0.4679 -0.2236
  301MOL0     H39695   1.963   7.590   6.424 -2.8535 -0.1678 -0.7739
  301MOL0     H39696   1.478   7.485   6.254 -0.3267  0.4286  0.2682
  301MOL0     H39697   1.268   7.481   6.337  1.6059  1.2253 -2.9962
  301MOL0     H39698   1.184   7.563   6.788 -1.0815  1.1660 -0.0965
  301MOL0     H39699   1.173   7.394   6.765  1.3686  0.8307 -1.2672
  301MOL0     H39700   0.978   7.481   6.823  1.5615  0.5321 -1.1157
  301MOL0     H39701   0.938   7.402   6.673 -2.3849  1.6377 -3.7137
  301MOL0     H39702   0.989   7.644   6.572 -1.1605 -2.1605 -0.7522
  301MOL0     H39703   0.973   7.689   6.748 -3.2381  2.1586  1.2341
  301MOL0     H39704   0.791   7.628   6.528  0.8128 -1.1957 -0.8194
  301MOL0     H39705   0.732   7.576   6.689  0.1623  2.2488  1.2329
  301MOL0     H39706   0.822   7.862   6.621 -3.3517  2.5094 -1.2688
  301MOL0     H39707   0.770   7.802   6.780  1.6133 -1.4642  0.1444
  301MOL0     H39708   0.582   7.834   6.543 -1.3713  0.8607  0.0745
  301MOL0     H39709   0.609   7.953   6.669  2.3884 -0.0551  2.6635
  301MOL0     H39710   0.490   7.685   6.741 -1.1998 -0.0366  0.4118
  301MOL0     H39711   0.562   7.805   6.845 -0.6281  2.9909 -0.3078
  301MOL0     H39712   0.372   7.957   6.737  1.3300  0.2169  0.9935
  301MOL0     H39713   0.313   7.803   6.809 -0.2546  0.2882 -0.8560
  301MOL0     H39714   1.390   7.563   6.739  2.7650  0.8885 -0.0946
  301MOL0     H39715   1.624   7.584   6.657  0.6102  1.8140 -1.8212
  301MOL0     H39716   1.807   7.848   6.117 -1.5892  0.4140  3.1832
  301MOL0     H39717   2.030   7.911   6.058 -2.0838 -0.0175 -0.9893
  301MOL0     H39718   3.472   7.841   5.372  0.1447 -0.0806 -0.8171
  301MOL0     H39719   3.568   7.860   5.142 -2.0719 -0.4480  0.5139
  301MOL0     H39720   3.634   7.980   4.647  0.3258  1.8076 -0.4812
  301MOL0     H39721   3.792   8.063   4.473 -1.9341  0.6306  0.3472
  301MOL0     H39722   3.899   8.223   4.383 -2.8501 -3.5455  3.3990
  301MOL0     H39723   3.964   8.065   4.340  1.6516 -1.5086  1.5626
  301MOL0     H39724   4.196   8.212   4.329  1.0339  1.9177 -0.1976
  301MOL0     H39725   4.069   8.248   4.200  3.6934  0.7355 -1.1371
  301MOL0     H39726   4.080   8.400   4.459  2.8467  1.2566 -0.0103
  301MOL0     H39727   3.970   8.425   4.327  0.8998  3.2025  1.1254
  301MOL0     H39728   4.170   8.578   4.347  0.8543  0.4373 -0.3610
  301MOL0     H39729   4.269   8.445   4.270 -0.4970  0.3225 -2.6449
  301MOL0     H39730   4.063   8.569   3.931  0.4734 -1.3573 -0.9788
  301MOL0     H39731   4.091   8.128   4.761 -0.2094 -1.9703  2.8171
  301MOL0     H39732   3.942   8.050   4.942 -1.6462  1.7949  0.0343
  302MOL0     O39733   0.148   9.941   9.215  0.0598  0.1147 -0.0467
  302MOL0     C39734   0.074  10.039   9.202 -0.4700 -0.5675 -0.0139
  302MOL0     O39735   0.056  10.139   9.297 -0.3212 -0.4186  0.6182
  302MOL0     C39736   0.132  10.140   9.414 -0.3638  0.5741  0.3324
  302MOL0     C39737   0.269  10.131   9.412  0.1866  0.6378  0.0279
  302MOL0     C39738   0.335  10.121   9.538  0.5085  0.5268  0.2448
  302MOL0     C39739   0.267  10.108   9.657 -0.6408 -0.2629 -0.8127
  302MOL0     O39740   0.324  10.097   9.782 -0.1368 -0.1373  0.5524
  302MOL0     C39741   0.474  10.109   9.805  1.0999  0.7457 -0.3970
  302MOL0     C39742   0.518  10.088   9.947  0.1311  0.8351  0.0859
  302MOL0     C39743   0.450   9.966  10.010  0.3830  0.7041  0.6522
  302MOL0     C39744   0.495   9.903  10.147  0.2371 -0.3014 -0.1580
  302MOL0     C39745   0.408   9.787  10.183  0.4152 -0.5691 -0.3132
  302MOL0     C39746   0.411   9.662  10.092 -0.6803 -0.4793  0.8855
  302MOL0     C39747   0.331   9.543  10.150 -0.5625 -0.0163 -0.0779
  302MOL0     C39748   0.393   9.408  10.104  0.0353 -0.2110 -0.2036
  302MOL0     N39749   0.306   9.306  10.154  0.3627 -0.5537  0.0170
  302MOL0     C39750   0.179   9.292  10.106 -0.3616 -0.4373 -0.5010
  302MOL0     C39751   0.125   9.193  10.175 -1.1545 -0.1465  0.2884
  302MOL0     C39752  -0.020   9.154  10.178 -0.0804 -0.5022  0.0526
  302MOL0     C39753  -0.113   9.283  10.185 -0.4358  0.6133 -0.0506
  302MOL0     C39754  -0.260   9.237  10.189  0.0158 -0.8664 -0.1366
  302MOL0     C39755  -0.323   9.210  10.056 -0.1750  0.5582  0.7671
  302MOL0     O39756  -0.439   9.138  10.063  0.2651  0.3414  0.4170
  302MOL0     C39757  -0.534   9.161   9.983  0.8826  0.0995 -0.0434
  302MOL0     C39758  -0.651   9.077   9.999  0.0505 -0.0628 -0.6477
  302MOL0     C39759  -0.762   9.086   9.913 -0.0322 -0.3075  0.3081
  302MOL0     C39760  -0.765   9.176   9.802  0.6345 -0.4936 -0.9065
  302MOL0     C39761  -0.872   9.188   9.708  0.2088 -1.4517  0.9710
  302MOL0     O39762  -0.876   9.294   9.617 -0.4543  1.2556  0.8407
  302MOL0     C39763  -0.983   9.287   9.533  0.3593 -0.0891 -0.3630
  302MOL0     C39764  -0.982   9.193   9.422  0.1968 -0.0265  0.0067
  302MOL0     C39765  -1.097   9.183   9.336 -0.4319 -0.3984 -0.5710
  302MOL0     C39766  -1.213   9.247   9.380  1.1080 -0.1224  0.0866
  302MOL0     O39767  -1.338   9.248   9.319 -0.0088 -0.7380 -1.1793
  302MOL0     C39768  -1.387   9.137   9.241 -1.6982 -0.3077 -0.3226
  302MOL0     C39769  -1.486   9.062   9.322 -0.3775 -0.3612 -0.6629
  302MOL0     C39770  -1.602   9.149   9.347 -0.0626 -0.8395 -0.5651
  302MOL0     C39771  -1.710   9.078   9.431  0.8754  0.2096 -0.2773
  302MOL0     C39772  -1.835   9.165   9.445  0.0997 -0.3944  0.3316
  302MOL0     C39773  -1.967   9.100   9.412 -0.5625  0.4472  0.3657
  302MOL0     C39774  -2.072   9.200   9.400 -0.6991 -0.8479  0.5120
  302MOL0     C39775  -2.214   9.142   9.391  0.2463  0.5504  0.3444
  302MOL0    Cl39776  -2.223   9.016   9.261  0.1432 -0.1096 -0.5389
  302MOL0     C39777  -1.216   9.338   9.492 -0.4304  0.0636  0.9618
  302MOL0     C39778  -1.100   9.352   9.571 -0.4592 -0.2494  0.6581
  302MOL0     O39779  -0.960   9.104   9.712 -0.8309 -0.1739  0.7081
  302MOL0     C39780  -0.652   9.264   9.791 -0.6928  0.0286 -0.7004
  302MOL0     C39781  -0.550   9.268   9.893 -0.8129 -0.5726  0.1071
  302MOL0     N39782   0.230   9.142  10.247  0.6346 -0.1676 -0.0269
  302MOL0     N39783   0.335   9.209  10.239  1.0882 -0.7227 -0.0712
  302MOL0     C39784   0.131  10.118   9.657  0.0663  0.3331  0.2628
  302MOL0     C39785   0.058  10.140   9.538  0.5487  0.0665 -0.4176
  302MOL0     C39786  -0.000  10.041   9.082 -0.7134 -0.1091  1.2639
  302MOL0     C39787  -0.107  10.125   9.078  1.0200 -0.6680 -0.9892
  302MOL0     C39788  -0.203  10.110   8.974  0.3561 -0.1653 -1.3363
  302MOL0     C39789  -0.189  10.021   8.865  0.0520  0.3396  0.2951
  302MOL0     O39790  -0.271  10.012   8.754 -0.0771 -0.2794 -0.0297
  302MOL0     C39791  -0.415  10.058   8.760 -0.3670 -1.2160 -0.1318
  302MOL0     C39792  -0.503   9.944   8.818  0.7843 -0.3692 -0.0485
  302MOL0     C39793  -0.654   9.990   8.832  0.1087  0.2626  0.3111
  302MOL0     C39794  -0.753   9.869   8.837 -1.0102  0.7137 -0.1873
  302MOL0     C39795  -0.786   9.808   8.709  0.8968  0.7914  0.4877
  302MOL0     C39796  -0.839   9.750   8.615 -0.0035 -0.2282 -0.5673
  302MOL0     C39797  -0.078   9.939   8.867  1.2553 -0.4529 -0.1593
  302MOL0     C39798   0.011   9.945   8.979 -0.6328  0.6360  0.2625
  302MOL0     H39799   0.321  10.121   9.317 -0.4846  0.8613 -0.3711
  302MOL0     H39800   0.441  10.097   9.540  0.6223  0.9577 -0.4245
  302MOL0     H39801   0.528  10.199   9.775  2.4235 -0.4172 -1.6612
  302MOL0     H39802   0.523  10.036   9.740  0.3362  0.0262 -0.1981
  302MOL0     H39803   0.494  10.179  10.002  0.2255 -0.4696  2.4370
  302MOL0     H39804   0.626  10.074   9.943 -0.0171 -0.3890 -0.2611
  302MOL0     H39805   0.448   9.889   9.934 -0.3905  2.0868 -0.7763
  302MOL0     H39806   0.346   9.994  10.025  0.0856 -0.0898  0.1059
  302MOL0     H39807   0.600   9.872  10.136  0.3931 -0.0146  0.4507
  302MOL0     H39808   0.488   9.976  10.228 -2.9010 -1.8269  1.0950
  302MOL0     H39809   0.306   9.825  10.174  0.4708 -0.3129  0.1125
  302MOL0     H39810   0.425   9.764  10.288  3.0840 -0.6548 -0.6709
  302MOL0     H39811   0.508   9.625  10.057 -1.2570 -0.3327 -1.0347
  302MOL0     H39812   0.363   9.703  10.002 -0.8616  0.0151  1.2068
  302MOL0     H39813   0.343   9.554  10.258  3.1700 -0.4946 -0.3081
  302MOL0     H39814   0.224   9.552  10.127 -0.2997 -0.0500 -1.4227
  302MOL0     H39815   0.492   9.390  10.147 -0.0939 -0.7912 -0.1501
  302MOL0     H39816   0.397   9.413   9.995 -0.8567 -1.9508 -0.3455
  302MOL0     H39817   0.135   9.344  10.022  2.7461  0.7022 -1.5570
  302MOL0     H39818  -0.037   9.086  10.263  2.4368 -0.0773  0.9985
  302MOL0     H39819  -0.042   9.092  10.091 -1.3994 -1.8896  1.3088
  302MOL0     H39820  -0.096   9.358  10.107 -3.5176  1.5618  0.0575
  302MOL0     H39821  -0.100   9.332  10.282 -3.4511 -0.6967  1.1479
  302MOL0     H39822  -0.265   9.145  10.249  1.0306 -1.4145 -0.8613
  302MOL0     H39823  -0.307   9.321  10.240  3.3494  1.3626 -0.4094
  302MOL0     H39824  -0.256   9.161   9.985  0.0172 -1.4896  2.2652
  302MOL0     H39825  -0.321   9.311  10.016 -0.1894  0.3788  0.3118
  302MOL0     H39826  -0.643   8.996  10.070  0.5163  2.5276  2.4957
  302MOL0     H39827  -0.844   9.015   9.919 -0.8017  0.5956  0.7945
  302MOL0     H39828  -0.890   9.140   9.398 -1.4446 -3.6187  1.0482
  302MOL0     H39829  -1.106   9.116   9.252  0.1836 -2.8425  1.1936
  302MOL0     H39830  -1.300   9.074   9.220 -1.3606  0.3917 -1.1123
  302MOL0     H39831  -1.429   9.172   9.146 -1.7312  1.5338  0.3345
  302MOL0     H39832  -1.448   9.026   9.418 -3.2578  0.2598  0.8415
  302MOL0     H39833  -1.515   8.976   9.261  0.6754  0.2810 -2.1361
  302MOL0     H39834  -1.641   9.192   9.255  0.4612  1.1817  0.1170
  302MOL0     H39835  -1.562   9.230   9.408  1.6652  1.4586 -4.4451
  302MOL0     H39836  -1.736   8.979   9.392 -2.2619  2.3889 -4.5558
  302MOL0     H39837  -1.670   9.060   9.531 -4.3981  2.6505  2.7002
  302MOL0     H39838  -1.813   9.245   9.374 -0.0997 -0.9882 -0.4100
  302MOL0     H39839  -1.832   9.216   9.542  0.1230 -0.7441  0.5160
  302MOL0     H39840  -1.993   9.032   9.494 -0.0014 -3.8539 -2.7085
  302MOL0     H39841  -1.959   9.040   9.321  2.8729  0.1099  0.7934
  302MOL0     H39842  -2.080   9.265   9.487  0.2849 -1.3737  1.0109
  302MOL0     H39843  -2.052   9.266   9.314  1.1984  0.9439  2.2079
  302MOL0     H39844  -2.288   9.223   9.388 -0.2897  0.1547  1.7924
  302MOL0     H39845  -2.228   9.080   9.480  2.9384 -1.3727 -0.4574
  302MOL0     H39846  -1.311   9.390   9.502 -1.2113 -1.3387  1.1043
  302MOL0     H39847  -1.098   9.414   9.660  0.2158  0.6388  0.0442
  302MOL0     H39848  -0.629   9.330   9.708  1.1296  1.9652  1.2060
  302MOL0     H39849  -0.474   9.345   9.882 -0.3590 -0.8814  0.9820
  302MOL0     H39850   0.087  10.112   9.756  1.9961  4.0344  1.5078
  302MOL0     H39851  -0.050  10.142   9.549  0.7491 -1.7590  3.7348
  302MOL0     H39852  -0.125  10.201   9.154  1.4768  1.0237 -2.4941
  302MOL0     H39853  -0.278  10.188   8.965 -0.2331 -0.6914 -1.1012
  302MOL0     H39854  -0.455  10.087   8.663 -0.5432 -1.3167 -0.0894
  302MOL0     H39855  -0.427  10.147   8.822 -3.5339  0.6802 -3.1011
  302MOL0     H39856  -0.506   9.852   8.760 -5.0830 -0.4918 -0.0674
  302MOL0     H39857  -0.461   9.924   8.917  1.3019 -0.6409 -0.3154
  302MOL0     H39858  -0.694  10.052   8.752 -2.2844 -1.0530  0.3971
  302MOL0     H39859  -0.660  10.047   8.925 -1.6973 -0.5601  0.7534
  302MOL0     H39860  -0.696   9.790   8.887  1.0363  2.0354 -0.3062
  302MOL0     H39861  -0.836   9.889   8.905  0.4929 -0.5243  2.1245
  302MOL0     H39862  -0.876   9.700   8.528  1.0902 -2.5149  0.1975
  302MOL0     H39863  -0.057   9.859   8.797 -3.0552 -1.4781 -0.5355
  302MOL0     H39864   0.088   9.871   8.993  1.1426  2.5202  0.9569
  303MOL0     O39865   9.557   6.125   3.939  0.3667 -0.1865 -0.4125
  303MOL0     C39866   9.572   6.181   3.828  0.1886  0.6458 -0.3449
  303MOL0     O39867   9.491   6.165   3.723  0.0177  0.2539 -0.0405
  303MOL0     C39868   9.370   6.085   3.722 -0.1289 -0.7779 -1.0155
  303MOL0     C39869   9.345   5.980   3.796  0.0603  0.8536  0.7179
  303MOL0     C39870   9.228   5.908   3.776  0.2906  0.0275 -1.6132
  303MOL0     C39871   9.123   5.953   3.697  0.7628 -1.3052 -0.2914
  303MOL0     O39872   9.007   5.883   3.693 -0.0888  0.4777  0.0582
  303MOL0     C39873   8.896   5.938   3.628  0.1045  0.0461 -0.3658
  303MOL0     C39874   8.786   5.834   3.631  1.5027  0.9944  0.3802
  303MOL0     C39875   8.805   5.708   3.536 -0.5158 -0.6437  0.2508
  303MOL0     C39876   8.913   5.621   3.598 -0.3706  0.7032 -0.9399
  303MOL0     C39877   8.874   5.472   3.557  0.1708 -0.0948  0.1885
  303MOL0     C39878   8.884   5.445   3.401  0.3499 -0.5552 -0.2523
  303MOL0     C39879   8.829   5.313   3.356 -0.0906  0.1415 -0.6250
  303MOL0     C39880   8.674   5.315   3.338  0.9435  0.5122 -0.2848
  303MOL0     N39881   8.611   5.210   3.252 -0.3990 -0.9898 -0.8825
  303MOL0     C39882   8.678   5.155   3.144  0.9683 -0.8751 -0.5413
  303MOL0     C39883   8.588   5.057   3.097 -0.0645 -0.8241 -0.2496
  303MOL0     C39884   8.608   4.972   2.972  0.0668  0.5843 -0.7339
  303MOL0     C39885   8.619   4.828   3.022 -0.1781 -0.4409  0.3016
  303MOL0     C39886   8.765   4.785   3.051  0.4368  0.5429  0.4262
  303MOL0     C39887   8.840   4.862   3.154  0.1784 -0.0431  0.1201
  303MOL0     O39888   8.895   4.970   3.077  0.0864  0.4913 -0.3512
  303MOL0     C39889   9.010   5.030   3.125  0.1186  0.3705  0.1545
  303MOL0     C39890   9.101   5.079   3.030 -0.2266 -0.0601  0.2051
  303MOL0     C39891   9.214   5.158   3.065 -0.2831  0.8109 -0.4599
  303MOL0     C39892   9.241   5.197   3.195  0.3664  0.6403 -0.1997
  303MOL0     C39893   9.358   5.283   3.223  1.1836 -0.5536  0.7714
  303MOL0     O39894   9.423   5.328   3.118  0.2167 -0.3599 -0.2832
  303MOL0     C39895   9.546   5.391   3.135 -0.1509 -0.0381  0.0935
  303MOL0     C39896   9.567   5.535   3.131 -0.4844  0.9221 -0.0126
  303MOL0     C39897   9.690   5.594   3.164  0.2761 -0.5171  0.9108
  303MOL0     C39898   9.788   5.509   3.216  0.0154  0.2497  0.4216
  303MOL0     O39899   9.912   5.561   3.250 -0.5519 -0.3402  0.3666
  303MOL0     C39900   9.904   5.677   3.340 -0.0057  0.2277 -0.0232
  303MOL0     C39901   9.994   5.638   3.454 -0.1737  0.0509 -0.1267
  303MOL0     C39902  10.144   5.650   3.406  0.8041  0.5124 -0.0509
  303MOL0     C39903  10.229   5.628   3.529 -0.1379  0.3852  0.9748
  303MOL0     C39904  10.381   5.625   3.506  0.9150  0.8432 -0.3249
  303MOL0     C39905  10.461   5.610   3.634 -0.2675 -0.0807  0.5046
  303MOL0     C39906  10.439   5.485   3.720 -0.0002  0.2893  0.4507
  303MOL0     C39907  10.503   5.358   3.649  0.0144 -0.5746  0.0503
  303MOL0    Cl39908  10.501   5.226   3.775 -0.0217 -0.0315 -0.1088
  303MOL0     C39909   9.771   5.375   3.209 -0.4260  0.5341 -0.4969
  303MOL0     C39910   9.653   5.310   3.171 -0.5644 -0.6703 -0.2962
  303MOL0     O39911   9.389   5.301   3.341 -0.4129  0.4015 -0.3357
  303MOL0     C39912   9.160   5.137   3.297 -0.8670 -1.6473  0.3565
  303MOL0     C39913   9.045   5.062   3.258  0.4921  1.3752 -0.5611
  303MOL0     N39914   8.481   5.053   3.184  0.2807  0.8181 -0.6637
  303MOL0     N39915   8.500   5.141   3.279  0.6219 -0.4396  0.3325
  303MOL0     C39916   9.148   6.076   3.629  0.0688 -0.6343  0.2571
  303MOL0     C39917   9.272   6.139   3.637 -0.5178  0.5604  0.3638
  303MOL0     C39918   9.698   6.261   3.797 -0.2980  0.2133  0.2220
  303MOL0     C39919   9.800   6.272   3.899  0.1926 -1.0702  0.4469
  303MOL0     C39920   9.916   6.334   3.867  0.3512  0.0856 -0.2661
  303MOL0     C39921   9.936   6.393   3.750  0.6154 -0.2911 -0.4193
  303MOL0     O39922  10.045   6.464   3.717 -0.5367  0.2164  0.6337
  303MOL0     C39923  10.171   6.428   3.780  0.0334  0.1551 -1.4240
  303MOL0     C39924  10.292   6.467   3.692  0.6377 -0.2975 -0.6192
  303MOL0     C39925  10.428   6.419   3.755 -0.1484 -0.2167 -0.1380
  303MOL0     C39926  10.549   6.481   3.689  0.0946  0.1323  0.0190
  303MOL0     C39927  10.587   6.605   3.755  0.3781  0.0390 -0.8676
  303MOL0     C39928  10.603   6.710   3.812 -0.2989  0.2384 -0.0603
  303MOL0     C39929   9.835   6.380   3.653 -0.2798  0.0640  1.2093
  303MOL0     C39930   9.717   6.328   3.678  0.3030  0.0668 -0.1156
  303MOL0     H39931   9.414   5.954   3.877  0.5530 -0.8479 -0.1914
  303MOL0     H39932   9.195   5.822   3.833  3.1847 -1.6578 -2.2856
  303MOL0     H39933   8.917   5.974   3.526 -1.1745 -2.4903 -1.6176
  303MOL0     H39934   8.860   6.018   3.693  0.2752 -2.2648  2.8128
  303MOL0     H39935   8.690   5.870   3.593 -0.5589 -3.3942  0.7897
  303MOL0     H39936   8.763   5.792   3.729 -0.5768 -2.4799 -1.4169
  303MOL0     H39937   8.838   5.743   3.438  1.3525  1.1242  1.4228
  303MOL0     H39938   8.710   5.655   3.520 -1.3842  1.8643 -5.6847
  303MOL0     H39939   9.020   5.641   3.589  0.6924 -2.7294  1.8906
  303MOL0     H39940   8.896   5.633   3.705  3.4974  0.2462 -0.1406
  303MOL0     H39941   8.777   5.450   3.601  0.6270  1.7902  2.3357
  303MOL0     H39942   8.944   5.405   3.609 -1.1329 -0.0466  2.1187
  303MOL0     H39943   8.991   5.450   3.381  0.6428 -1.5091  0.9282
  303MOL0     H39944   8.830   5.522   3.345  0.0345  1.1112  2.1874
  303MOL0     H39945   8.867   5.283   3.258  1.3182 -2.5027  0.6231
  303MOL0     H39946   8.871   5.244   3.430  3.3555  3.3991  0.7948
  303MOL0     H39947   8.644   5.411   3.296  0.2859  0.8763  0.9498
  303MOL0     H39948   8.632   5.317   3.440  1.5124  1.8522 -0.0516
  303MOL0     H39949   8.774   5.178   3.100  1.4002 -0.9522  0.3520
  303MOL0     H39950   8.702   5.007   2.927 -1.0290  2.9756 -1.3161
  303MOL0     H39951   8.534   4.986   2.892 -0.0971 -2.7388 -1.3098
  303MOL0     H39952   8.574   4.762   2.947  1.2922  0.4764 -1.4556
  303MOL0     H39953   8.559   4.808   3.111 -0.2557 -2.2884 -0.1184
  303MOL0     H39954   8.736   4.685   3.087 -2.7355  0.2884 -2.3847
  303MOL0     H39955   8.826   4.782   2.961  0.9136 -1.0706  0.7748
  303MOL0     H39956   8.918   4.793   3.189  1.8812  1.5592 -0.3826
  303MOL0     H39957   8.777   4.880   3.242 -0.6754 -0.5776 -0.3681
  303MOL0     H39958   9.074   5.054   2.928  0.5576 -0.3557  0.0646
  303MOL0     H39959   9.274   5.203   2.987  0.5486 -0.2430 -0.4520
  303MOL0     H39960   9.473   5.586   3.112 -1.0708 -0.1024  0.0711
  303MOL0     H39961   9.710   5.701   3.172  1.3038 -0.6325  0.1118
  303MOL0     H39962   9.800   5.698   3.368 -0.4692  0.0072 -1.5209
  303MOL0     H39963   9.939   5.768   3.292 -0.9725  0.4836 -0.2682
  303MOL0     H39964   9.964   5.541   3.494  4.2689 -1.0832  1.1339
  303MOL0     H39965   9.978   5.719   3.527  1.1175 -1.3398  1.8134
  303MOL0     H39966  10.164   5.752   3.371 -2.1553  2.0081  2.1408
  303MOL0     H39967  10.161   5.567   3.337 -2.5138 -1.1334  0.9052
  303MOL0     H39968  10.202   5.708   3.599  1.2452  2.0777 -0.3422
  303MOL0     H39969  10.203   5.532   3.576  0.9886 -0.0342  0.7810
  303MOL0     H39970  10.415   5.715   3.454 -3.8941  1.4309 -2.9699
  303MOL0     H39971  10.424   5.551   3.438  3.9780  2.1525  0.0180
  303MOL0     H39972  10.429   5.694   3.695 -0.9855 -0.5937  0.8499
  303MOL0     H39973  10.567   5.618   3.610 -0.4809 -0.6057 -0.7446
  303MOL0     H39974  10.483   5.511   3.817 -1.5570  0.6792  1.0770
  303MOL0     H39975  10.332   5.468   3.734  0.3198 -1.3403  1.1506
  303MOL0     H39976  10.598   5.388   3.603 -0.7415  2.4163  0.2436
  303MOL0     H39977  10.437   5.324   3.569 -3.0465  1.8372  1.3855
  303MOL0     H39978   9.857   5.319   3.244 -0.3091  3.2710  4.4190
  303MOL0     H39979   9.662   5.203   3.151  0.0122 -0.6996  0.1015
  303MOL0     H39980   9.179   5.138   3.404  1.3023  0.0139  0.0173
  303MOL0     H39981   8.984   5.030   3.342  2.2031 -0.3591  0.0818
  303MOL0     H39982   9.072   6.115   3.562 -0.6262  1.3478  2.1035
  303MOL0     H39983   9.301   6.233   3.592  0.9459  1.9575  3.8458
  303MOL0     H39984   9.788   6.216   3.991  1.3350  0.0240  1.3121
  303MOL0     H39985   9.978   6.331   3.956 -1.6226  0.6167  1.2069
  303MOL0     H39986  10.159   6.320   3.792 -0.3729  0.4167  1.0435
  303MOL0     H39987  10.179   6.469   3.881 -2.9700 -3.5762  0.6103
  303MOL0     H39988  10.282   6.403   3.604 -0.3803  0.6216 -1.1885
  303MOL0     H39989  10.298   6.573   3.669 -0.2863  0.2768  1.4674
  303MOL0     H39990  10.456   6.313   3.755  1.1007  0.0833  1.2098
  303MOL0     H39991  10.428   6.432   3.864  2.8434  0.9622 -0.1784
  303MOL0     H39992  10.637   6.421   3.713 -1.0451 -1.0340  1.4516
  303MOL0     H39993  10.540   6.497   3.581 -1.8034  0.4016  0.1879
  303MOL0     H39994  10.613   6.800   3.869  0.9600  0.3178 -0.3882
  303MOL0     H39995   9.856   6.426   3.557 -0.8013  1.5355  1.7673
  303MOL0     H39996   9.635   6.332   3.608 -1.0011 -0.7390  1.3246
  304MOL0     O39997   7.144   3.508   2.383 -0.3230  0.4603 -0.5639
  304MOL0     C39998   7.210   3.507   2.486 -0.5704 -0.2300  0.6096
  304MOL0     O39999   7.246   3.397   2.555 -0.3819 -0.1473 -0.0522
  304MOL0     C40000   7.209   3.283   2.490  1.0845  0.3020 -0.7494
  304MOL0     C40001   7.306   3.193   2.443  0.0983  0.8749 -0.7702
  304MOL0     C40002   7.255   3.069   2.400 -0.5870 -0.0302 -0.6318
  304MOL0     C40003   7.121   3.049   2.368  0.2199 -0.1934 -0.7849
  304MOL0     O40004   7.094   2.934   2.298  0.8211  0.0074 -0.0777
  304MOL0     C40005   6.968   2.919   2.235  0.0005 -0.4153  0.3070
  304MOL0     C40006   6.931   3.026   2.127  0.1510  0.0424  0.4251
  304MOL0     C40007   6.789   2.985   2.071  0.1444  0.3012  0.5497
  304MOL0     C40008   6.796   2.848   2.005  0.0090 -0.5079 -0.0101
  304MOL0     C40009   6.670   2.798   1.938  0.2968  0.0608  0.3555
  304MOL0     C40010   6.542   2.773   2.025 -0.3780  0.2100  0.1017
  304MOL0     C40011   6.554   2.675   2.138 -0.0851  0.3567 -0.4181
  304MOL0     C40012   6.447   2.696   2.239  0.0090 -0.0021 -0.7651
  304MOL0     N40013   6.440   2.584   2.341 -0.7257 -0.6198  0.6420
  304MOL0     C40014   6.497   2.462   2.351 -0.2613 -0.7299 -0.1861
  304MOL0     C40015   6.457   2.407   2.472 -0.2752 -0.2071  0.0033
  304MOL0     C40016   6.470   2.262   2.520 -0.1551 -0.3832 -0.0926
  304MOL0     C40017   6.337   2.179   2.504 -0.1849  0.3913  0.8325
  304MOL0     C40018   6.359   2.025   2.507 -0.6399 -0.6910  0.2720
  304MOL0     C40019   6.246   1.948   2.452  0.3316  0.5731  1.3348
  304MOL0     O40020   6.135   1.959   2.545 -0.3570 -0.2410  0.8721
  304MOL0     C40021   6.003   1.917   2.511  0.2556 -0.2016 -1.0554
  304MOL0     C40022   5.952   1.862   2.387 -0.4726  0.6594 -0.1489
  304MOL0     C40023   5.821   1.832   2.376 -0.1098 -0.4402  0.4935
  304MOL0     C40024   5.728   1.850   2.481  0.4059 -0.1785  0.2987
  304MOL0     C40025   5.583   1.822   2.452  0.5001 -0.4892 -0.2314
  304MOL0     O40026   5.510   1.846   2.563 -0.1807  0.1681 -0.6239
  304MOL0     C40027   5.370   1.821   2.553 -0.4701  0.2635  0.4849
  304MOL0     C40028   5.286   1.888   2.465  0.5094  0.4942 -0.2682
  304MOL0     C40029   5.152   1.858   2.454  0.0770 -0.3090  0.4837
  304MOL0     C40030   5.096   1.744   2.519 -0.8129 -0.3666  0.2056
  304MOL0     O40031   4.969   1.695   2.521  0.1316 -0.2898  0.1687
  304MOL0     C40032   4.877   1.758   2.432  0.6073  0.5823 -0.2093
  304MOL0     C40033   4.830   1.898   2.479 -0.0649  0.0704 -0.4210
  304MOL0     C40034   4.787   2.002   2.373  0.3141  0.1206  0.5570
  304MOL0     C40035   4.901   2.085   2.310 -0.5631  0.3780 -0.8356
  304MOL0     C40036   4.836   2.208   2.248 -0.3860 -0.0196  1.2415
  304MOL0     C40037   4.781   2.174   2.113  0.2287  0.3767  0.2670
  304MOL0     C40038   4.719   2.284   2.034  0.5313 -0.0444  0.7409
  304MOL0     C40039   4.595   2.321   2.105 -0.2549  0.4877 -0.5778
  304MOL0    Cl40040   4.516   2.455   2.015  0.1161 -0.4428 -0.2173
  304MOL0     C40041   5.184   1.666   2.605 -0.8442 -0.8903 -0.7400
  304MOL0     C40042   5.324   1.709   2.618 -0.7247 -0.4852 -0.1388
  304MOL0     O40043   5.543   1.797   2.341 -0.5244 -0.8202 -0.2256
  304MOL0     C40044   5.776   1.905   2.598  0.4337  0.2838 -0.4306
  304MOL0     C40045   5.914   1.929   2.619  0.9061 -0.3233  0.3496
  304MOL0     N40046   6.372   2.504   2.528  0.6645  0.9879  0.2394
  304MOL0     N40047   6.365   2.605   2.452  0.1782  0.2100  0.4381
  304MOL0     C40048   7.025   3.133   2.429  0.3073  0.3755 -0.7388
  304MOL0     C40049   7.072   3.249   2.490  0.5964  0.1384  0.0416
  304MOL0     C40050   7.265   3.640   2.531 -0.3917  0.8561 -0.2391
  304MOL0     C40051   7.266   3.746   2.437 -0.0130  0.6856 -0.0488
  304MOL0     C40052   7.320   3.866   2.475 -0.5699  0.2091 -0.1143
  304MOL0     C40053   7.371   3.891   2.604 -0.7170  0.2625 -0.0242
  304MOL0     O40054   7.442   4.008   2.634  0.2534 -0.0146 -0.1508
  304MOL0     C40055   7.374   4.132   2.618 -0.8234  0.6405 -0.6431
  304MOL0     C40056   7.430   4.251   2.695 -0.4718 -0.4938 -0.3346
  304MOL0     C40057   7.443   4.218   2.843 -0.1116 -0.5021  0.1069
  304MOL0     C40058   7.477   4.342   2.934  0.4160  0.3682 -0.7082
  304MOL0     C40059   7.383   4.455   2.903  0.7117 -1.5109 -0.7094
  304MOL0     C40060   7.303   4.539   2.899 -0.1188  0.1514 -0.5137
  304MOL0     C40061   7.366   3.784   2.692 -0.4680  0.9222  0.5253
  304MOL0     C40062   7.327   3.658   2.657  0.3910 -0.0577  0.2859
  304MOL0     H40063   7.413   3.207   2.456  0.4803 -2.5345  0.9653
  304MOL0     H40064   7.319   2.986   2.369 -1.3630 -0.3946 -1.3277
  304MOL0     H40065   6.882   2.910   2.301 -0.8106  0.9439 -0.4975
  304MOL0     H40066   6.975   2.818   2.195  4.4535 -0.5009  0.8271
  304MOL0     H40067   7.004   3.023   2.046  0.9562  1.0541  1.0929
  304MOL0     H40068   6.924   3.127   2.169 -0.2962 -0.4048  1.4483
  304MOL0     H40069   6.763   3.061   1.996  4.5381  2.1642  0.6328
  304MOL0     H40070   6.709   2.986   2.147 -0.3891  0.6866 -0.0021
  304MOL0     H40071   6.882   2.852   1.938  0.8553  0.1699  1.0897
  304MOL0     H40072   6.815   2.773   2.082  0.3402  0.0184  0.4319
  304MOL0     H40073   6.701   2.703   1.894  0.7649  1.2750 -2.1156
  304MOL0     H40074   6.636   2.860   1.854  0.8521 -0.2269 -0.0908
  304MOL0     H40075   6.456   2.742   1.966  0.3064 -1.7465  0.0727
  304MOL0     H40076   6.513   2.867   2.073 -4.8373 -0.0362 -1.6514
  304MOL0     H40077   6.556   2.579   2.084 -0.6169  0.0369  0.1152
  304MOL0     H40078   6.650   2.683   2.190 -0.4952 -0.0721  0.4076
  304MOL0     H40079   6.351   2.707   2.188  0.0802  0.1075 -0.8782
  304MOL0     H40080   6.460   2.791   2.291 -0.9754  0.1817 -0.8332
  304MOL0     H40081   6.561   2.418   2.276  2.0977 -0.1605  1.3874
  304MOL0     H40082   6.502   2.263   2.624  0.8321 -1.6399 -0.3644
  304MOL0     H40083   6.549   2.214   2.461  0.6749  1.5971 -0.6663
  304MOL0     H40084   6.297   2.205   2.406 -0.1097  0.2052  0.7535
  304MOL0     H40085   6.264   2.224   2.573 -0.8864  2.3878 -1.0782
  304MOL0     H40086   6.442   1.987   2.447 -0.1453  0.3800  0.2583
  304MOL0     H40087   6.382   2.001   2.611 -0.7666  0.4719  0.5769
  304MOL0     H40088   6.270   1.843   2.433  1.3230  0.7424  1.5998
  304MOL0     H40089   6.220   1.979   2.350  1.1511 -0.8328  0.6593
  304MOL0     H40090   6.016   1.854   2.299  0.0269  0.2459  0.2505
  304MOL0     H40091   5.780   1.793   2.283  1.6685  1.7264 -1.3171
  304MOL0     H40092   5.328   1.955   2.391 -0.3984  1.4440  0.0635
  304MOL0     H40093   5.101   1.915   2.377 -0.4601 -2.0796 -0.5496
  304MOL0     H40094   4.791   1.694   2.415  0.6213 -0.0938  1.9452
  304MOL0     H40095   4.928   1.762   2.335 -0.4628  0.5769 -0.7839
  304MOL0     H40096   4.896   1.950   2.549  0.5970 -4.4489  2.7257
  304MOL0     H40097   4.735   1.870   2.524 -1.6103 -0.4991 -3.7106
  304MOL0     H40098   4.722   2.065   2.435  1.5269 -0.6784  2.7596
  304MOL0     H40099   4.728   1.952   2.295  2.3884 -1.5737 -0.0185
  304MOL0     H40100   4.975   2.104   2.388  0.2335 -5.1073  0.1576
  304MOL0     H40101   4.950   2.025   2.233  0.2324  2.4571 -2.0623
  304MOL0     H40102   4.911   2.286   2.237 -1.0691  0.5353  0.3842
  304MOL0     H40103   4.759   2.249   2.316 -0.1984  3.5049 -0.4229
  304MOL0     H40104   4.700   2.101   2.117 -1.4767  1.9407 -2.5869
  304MOL0     H40105   4.865   2.129   2.058  3.0248 -0.2265  4.5703
  304MOL0     H40106   4.781   2.373   2.018 -1.9613  1.2521 -2.9960
  304MOL0     H40107   4.695   2.246   1.934  1.2935 -2.5998  1.4316
  304MOL0     H40108   4.610   2.360   2.206  0.5337 -0.7901 -0.1771
  304MOL0     H40109   4.519   2.242   2.111 -1.2515  1.2906 -1.8802
  304MOL0     H40110   5.150   1.574   2.652 -0.9317  0.2242  1.4925
  304MOL0     H40111   5.382   1.643   2.682 -0.9833 -1.9405 -1.3224
  304MOL0     H40112   5.709   1.953   2.669 -1.3160 -1.7625 -0.5976
  304MOL0     H40113   5.962   1.954   2.712  1.3027 -0.7156  0.2527
  304MOL0     H40114   6.918   3.116   2.418  0.8757 -2.7933 -2.4475
  304MOL0     H40115   7.006   3.323   2.534 -1.0293 -1.0814 -0.2716
  304MOL0     H40116   7.234   3.726   2.335  0.5470 -0.8306  0.0573
  304MOL0     H40117   7.350   3.931   2.393  3.1003 -3.3268 -1.9932
  304MOL0     H40118   7.279   4.114   2.669 -0.2698 -0.9575 -0.1082
  304MOL0     H40119   7.364   4.154   2.511 -2.6644  1.4727 -0.3351
  304MOL0     H40120   7.523   4.284   2.647 -1.8804 -0.3871 -3.2600
  304MOL0     H40121   7.362   4.336   2.686 -1.0695 -1.0912 -1.9092
  304MOL0     H40122   7.511   4.134   2.862 -1.3282 -1.4934  0.2234
  304MOL0     H40123   7.344   4.189   2.882 -1.4544  1.0966 -1.9116
  304MOL0     H40124   7.471   4.324   3.042  1.3351 -1.2913 -0.8884
  304MOL0     H40125   7.580   4.378   2.925  0.4394  1.9683  3.7680
  304MOL0     H40126   7.235   4.622   2.903 -1.0461 -0.6122  2.3499
  304MOL0     H40127   7.408   3.806   2.790  2.1098 -1.0966  0.0060
  304MOL0     H40128   7.326   3.589   2.741 -0.1453  1.1665  1.3218
  305MOL0     O40129   3.303   3.112   8.559 -0.7081  0.7529 -0.3190
  305MOL0     C40130   3.238   3.006   8.582 -0.2345 -0.1357  0.2640
  305MOL0     O40131   3.289   2.874   8.564 -0.3907  0.8475 -0.1140
  305MOL0     C40132   3.403   2.850   8.489  0.7725  0.4396  0.6966
  305MOL0     C40133   3.474   2.739   8.529  0.3563  0.7105  0.9975
  305MOL0     C40134   3.582   2.696   8.453  0.7346  0.0406  0.2702
  305MOL0     C40135   3.619   2.762   8.332  0.2963 -0.7666  0.4801
  305MOL0     O40136   3.717   2.713   8.247  0.4398  0.1379 -0.0366
  305MOL0     C40137   3.771   2.578   8.263 -0.4428  0.2673 -0.0042
  305MOL0     C40138   3.869   2.521   8.152 -0.5083  0.3036  0.2046
  305MOL0     C40139   3.933   2.390   8.198 -0.7751  0.7220 -0.0092
  305MOL0     C40140   3.984   2.292   8.090  0.3063 -1.0751  0.5377
  305MOL0     C40141   4.049   2.169   8.157  0.2376 -0.4881 -0.3331
  305MOL0     C40142   4.078   2.055   8.065 -0.0239 -0.6330  0.3258
  305MOL0     C40143   4.157   1.927   8.120  0.4097  0.3691 -0.5684
  305MOL0     C40144   4.167   1.819   8.012  0.7150  0.1885 -0.0292
  305MOL0     N40145   4.228   1.692   8.050 -0.6732  0.7916  0.6616
  305MOL0     C40146   4.181   1.620   8.152  0.0564 -0.7289 -0.7372
  305MOL0     C40147   4.253   1.511   8.166 -0.4890  0.3681  0.5647
  305MOL0     C40148   4.234   1.393   8.253 -0.3040  1.1420 -0.0472
  305MOL0     C40149   4.096   1.390   8.316  0.0698 -0.3372  0.5122
  305MOL0     C40150   4.100   1.471   8.447  1.0016 -0.4983  0.7959
  305MOL0     C40151   3.973   1.443   8.530  0.1292  0.2317 -0.3752
  305MOL0     O40152   3.862   1.490   8.459  0.3779 -0.0738 -0.4285
  305MOL0     C40153   3.737   1.436   8.492 -0.1671  0.4121  0.0967
  305MOL0     C40154   3.626   1.464   8.420 -0.3187  0.5575  0.1787
  305MOL0     C40155   3.498   1.437   8.454 -0.2788  0.2800  0.0068
  305MOL0     C40156   3.479   1.361   8.572  0.4454 -0.4653  0.0296
  305MOL0     C40157   3.342   1.335   8.625  0.1432 -0.9104  0.0102
  305MOL0     O40158   3.234   1.403   8.564  0.2789 -0.3141 -0.1087
  305MOL0     C40159   3.104   1.374   8.588 -0.2982 -0.2831 -0.3290
  305MOL0     C40160   3.053   1.241   8.599 -0.2472 -0.1685 -0.1015
  305MOL0     C40161   2.920   1.209   8.616  0.2858 -0.1268  0.0273
  305MOL0     C40162   2.838   1.321   8.649 -0.1011 -0.5664 -0.0205
  305MOL0     O40163   2.701   1.318   8.679  0.9634  0.1205  0.8488
  305MOL0     C40164   2.677   1.208   8.767  1.1033 -0.5478  0.1934
  305MOL0     C40165   2.540   1.227   8.848 -0.1728  0.6918  0.4518
  305MOL0     C40166   2.516   1.376   8.892 -0.2378  0.0697  0.1546
  305MOL0     C40167   2.374   1.381   8.956  0.0664  0.8798 -0.0171
  305MOL0     C40168   2.370   1.453   9.087  1.2125  0.9213 -0.6375
  305MOL0     C40169   2.230   1.448   9.159 -0.0447  0.0522  0.3624
  305MOL0     C40170   2.224   1.560   9.274  0.2709 -0.1895 -0.4965
  305MOL0     C40171   2.329   1.555   9.385 -0.1920  0.8353 -0.2083
  305MOL0    Cl40172   2.331   1.385   9.435  0.0142  0.1952  0.0251
  305MOL0     C40173   2.885   1.454   8.645 -0.0937 -0.6755 -0.1967
  305MOL0     C40174   3.019   1.483   8.596  0.4311 -0.0934 -0.0401
  305MOL0     O40175   3.333   1.241   8.694 -1.3883  0.7121 -0.2336
  305MOL0     C40176   3.585   1.328   8.650  0.3143  0.0549  0.3722
  305MOL0     C40177   3.714   1.371   8.613  0.1773 -0.7023 -0.9007
  305MOL0     N40178   4.353   1.521   8.073 -0.7032  0.3762 -0.2270
  305MOL0     N40179   4.339   1.625   7.998  0.2657 -0.1098  0.7129
  305MOL0     C40180   3.547   2.886   8.300 -1.2942  1.2853  0.8056
  305MOL0     C40181   3.438   2.925   8.377  0.3875 -0.8379 -0.0516
  305MOL0     C40182   3.108   3.018   8.637 -0.1323  0.7233 -0.3283
  305MOL0     C40183   3.077   3.130   8.728  1.0093  0.4338  0.8600
  305MOL0     C40184   2.952   3.154   8.774 -0.1906  0.1997 -0.0031
  305MOL0     C40185   2.848   3.064   8.764 -0.4301  0.7017  0.0497
  305MOL0     O40186   2.722   3.097   8.796  0.6862 -0.4105 -0.0104
  305MOL0     C40187   2.650   3.008   8.872 -0.7085  0.2636 -0.5900
  305MOL0     C40188   2.507   2.993   8.833 -0.4469 -0.5928  0.0180
  305MOL0     C40189   2.450   3.140   8.825 -0.1770  0.9952  0.5540
  305MOL0     C40190   2.302   3.147   8.802  0.5712 -0.6445 -0.8110
  305MOL0     C40191   2.227   3.129   8.930  0.5653 -0.0403 -0.6246
  305MOL0     C40192   2.153   3.102   9.018 -0.2913 -0.4733 -0.3239
  305MOL0     C40193   2.876   2.952   8.684 -0.6383  0.2258 -0.0907
  305MOL0     C40194   3.002   2.939   8.612  0.1042  0.5047  0.0721
  305MOL0     H40195   3.433   2.693   8.619 -1.4603  4.2938  2.1851
  305MOL0     H40196   3.649   2.618   8.485  0.3560  0.6227  2.7154
  305MOL0     H40197   3.678   2.520   8.271 -1.3839  1.3444 -2.2015
  305MOL0     H40198   3.824   2.563   8.358  3.5152 -1.4536 -2.2390
  305MOL0     H40199   3.933   2.610   8.142 -0.7622  0.8971  2.9356
  305MOL0     H40200   3.819   2.503   8.057 -0.0946 -2.8123  0.4761
  305MOL0     H40201   3.868   2.337   8.267  2.2812 -1.6354  1.2797
  305MOL0     H40202   4.020   2.420   8.258 -0.1835  0.1491 -0.5686
  305MOL0     H40203   3.896   2.261   8.034  0.4069  0.9926 -0.9015
  305MOL0     H40204   4.064   2.341   8.033 -1.3097  0.1718 -0.7653
  305MOL0     H40205   3.994   2.138   8.246  3.5876  0.3432  2.2339
  305MOL0     H40206   4.147   2.197   8.198  0.4754 -2.6536  0.6944
  305MOL0     H40207   4.123   2.079   7.969 -0.8743 -4.4185 -1.1931
  305MOL0     H40208   3.981   2.014   8.036 -0.8627  1.1215  0.4706
  305MOL0     H40209   4.259   1.958   8.148  0.1125  0.9409 -0.0852
  305MOL0     H40210   4.113   1.897   8.216 -0.6587  0.4807 -1.0178
  305MOL0     H40211   4.236   1.864   7.940 -0.4078  2.5070  0.2615
  305MOL0     H40212   4.070   1.803   7.964  0.0745 -1.3063  1.6552
  305MOL0     H40213   4.093   1.644   8.211  1.0699 -0.9298  0.9186
  305MOL0     H40214   4.317   1.381   8.324 -2.1991  2.1174  2.4686
  305MOL0     H40215   4.253   1.306   8.190 -1.0094 -0.6789  2.1393
  305MOL0     H40216   4.067   1.289   8.344  2.8307 -1.2175  0.5511
  305MOL0     H40217   4.029   1.424   8.237  1.3728  2.0403  0.3168
  305MOL0     H40218   4.171   1.429   8.519  0.4030 -0.9912  1.1109
  305MOL0     H40219   4.109   1.579   8.434 -0.4450 -0.2159  1.8831
  305MOL0     H40220   3.984   1.495   8.626  0.0429 -0.9321  0.2785
  305MOL0     H40221   3.976   1.334   8.535 -0.9352  0.1542 -1.2352
  305MOL0     H40222   3.639   1.512   8.324 -1.9801  0.4097 -0.1505
  305MOL0     H40223   3.406   1.473   8.409 -1.1386 -0.6841  0.9184
  305MOL0     H40224   3.128   1.167   8.574 -1.0000 -0.6747 -0.8960
  305MOL0     H40225   2.887   1.106   8.605 -1.6659  0.2215  1.8931
  305MOL0     H40226   2.745   1.218   8.852  0.7143 -0.7092  0.5288
  305MOL0     H40227   2.684   1.113   8.714 -0.5616 -0.8115  0.4067
  305MOL0     H40228   2.545   1.176   8.945  0.0357 -0.9037 -0.3597
  305MOL0     H40229   2.456   1.184   8.794 -0.1778  0.0392  0.9639
  305MOL0     H40230   2.510   1.449   8.811  1.1729  0.4720  0.3831
  305MOL0     H40231   2.593   1.403   8.965 -0.5070 -0.7227  0.7459
  305MOL0     H40232   2.311   1.430   8.881 -0.9589 -0.3919 -0.0201
  305MOL0     H40233   2.334   1.280   8.969  1.8965  0.2467  1.0315
  305MOL0     H40234   2.397   1.558   9.067  0.0205  1.5668  0.9225
  305MOL0     H40235   2.452   1.407   9.142  1.1379 -0.3419 -1.5396
  305MOL0     H40236   2.208   1.344   9.181  2.0337 -0.7687 -1.0848
  305MOL0     H40237   2.155   1.484   9.088  0.5603  1.0491  0.1995
  305MOL0     H40238   2.222   1.664   9.241 -2.1894  0.2935  0.8935
  305MOL0     H40239   2.122   1.540   9.308  0.2663  0.0273 -0.3837
  305MOL0     H40240   2.286   1.618   9.463  0.0966  1.8178 -0.8224
  305MOL0     H40241   2.430   1.592   9.365  0.2727 -1.1254 -1.7915
  305MOL0     H40242   2.817   1.539   8.649  1.2083  0.3564  0.8652
  305MOL0     H40243   3.044   1.588   8.583 -1.4732  0.4203  0.2029
  305MOL0     H40244   3.572   1.280   8.746  0.3692  1.8361  1.3157
  305MOL0     H40245   3.794   1.355   8.686  0.4010 -0.5353 -1.1085
  305MOL0     H40246   3.581   2.932   8.208  3.6295  1.0491  2.2612
  305MOL0     H40247   3.383   3.012   8.341  1.2784  0.0489  0.6734
  305MOL0     H40248   3.148   3.210   8.745  1.1451  0.5571 -0.2174
  305MOL0     H40249   2.940   3.250   8.823  0.3892  0.4594 -0.3525
  305MOL0     H40250   2.653   3.044   8.975 -2.8470  1.7458 -0.9894
  305MOL0     H40251   2.688   2.905   8.866 -0.0328  0.4366  0.5189
  305MOL0     H40252   2.512   2.943   8.736  0.4738 -0.3857 -0.0542
  305MOL0     H40253   2.439   2.932   8.892  0.5793 -3.4913 -1.6035
  305MOL0     H40254   2.486   3.202   8.742 -1.0433  1.4260  0.4903
  305MOL0     H40255   2.462   3.193   8.919  1.7451 -0.0916  0.9964
  305MOL0     H40256   2.281   3.249   8.767 -0.9830 -0.7609 -0.3193
  305MOL0     H40257   2.272   3.082   8.720  0.5770 -1.4299 -0.2032
  305MOL0     H40258   2.091   3.055   9.092  1.2136 -0.0648  1.2793
  305MOL0     H40259   2.794   2.885   8.659 -1.4266  0.9179  0.5855
  305MOL0     H40260   3.013   2.860   8.538  1.6344  2.1325 -1.5436
  306MOL0     O40261   1.694  11.251  10.809  0.7149  0.4345  0.2277
  306MOL0     C40262   1.722  11.168  10.727 -1.2395 -0.1285  0.6306
  306MOL0     O40263   1.637  11.072  10.673  0.1217  0.2553 -0.2997
  306MOL0     C40264   1.502  11.064  10.696 -0.3711 -0.3544 -0.0267
  306MOL0     C40265   1.433  10.946  10.685 -0.1159 -0.1261  0.0524
  306MOL0     C40266   1.296  10.925  10.708 -0.9687 -0.2801 -0.1011
  306MOL0     C40267   1.223  11.038  10.746 -0.0906 -0.2375 -0.3116
  306MOL0     O40268   1.091  11.026  10.757  0.0922 -0.4170 -0.0679
  306MOL0     C40269   1.010  11.122  10.831 -0.5131 -1.1199  0.3055
  306MOL0     C40270   0.865  11.084  10.819 -0.2399  0.0110 -0.6421
  306MOL0     C40271   0.771  11.149  10.927  0.1044  0.2139 -0.1371
  306MOL0     C40272   0.797  11.096  11.068  0.8937  0.1874  0.2285
  306MOL0     C40273   0.683  11.111  11.174 -0.5386  0.3206 -0.6142
  306MOL0     C40274   0.653  11.257  11.202  0.0488 -0.3820  0.3419
  306MOL0     C40275   0.537  11.263  11.305 -1.5288  0.2591  0.7668
  306MOL0     C40276   0.401  11.277  11.245  0.7182 -0.7393 -0.4649
  306MOL0     N40277   0.301  11.276  11.351 -0.3269 -0.3377 -0.4049
  306MOL0     C40278   0.220  11.382  11.365  0.4098  0.4497  0.4911
  306MOL0     C40279   0.130  11.343  11.455  0.1515  0.1369 -0.7832
  306MOL0     C40280   0.001  11.416  11.480  0.4828 -0.1605 -0.0481
  306MOL0     C40281  -0.128  11.347  11.424 -0.2006  1.1392  0.1423
  306MOL0     C40282  -0.264  11.405  11.475  0.8100 -1.0543  0.1056
  306MOL0     C40283  -0.374  11.310  11.426  0.2172  1.2973  0.0425
  306MOL0     O40284  -0.365  11.175  11.476  0.1165 -0.2607 -0.1125
  306MOL0     C40285  -0.467  11.092  11.431 -0.2401  0.0502  0.4077
  306MOL0     C40286  -0.602  11.131  11.426 -0.4538 -0.4186 -0.3398
  306MOL0     C40287  -0.698  11.041  11.387 -0.5625  0.0933  0.8689
  306MOL0     C40288  -0.657  10.911  11.354  0.0445  0.6093  0.3997
  306MOL0     C40289  -0.766  10.812  11.305 -0.1297 -0.9991 -0.4639
  306MOL0     O40290  -0.895  10.862  11.300  0.5140 -1.1434 -0.2026
  306MOL0     C40291  -1.004  10.783  11.263  0.2162 -0.1087  0.3295
  306MOL0     C40292  -1.115  10.851  11.210 -0.7832 -0.3379  0.2826
  306MOL0     C40293  -1.230  10.786  11.165  0.0716  0.1932 -0.2860
  306MOL0     C40294  -1.231  10.647  11.163  0.9562 -0.1532  0.2803
  306MOL0     O40295  -1.352  10.603  11.116  0.5708 -0.6190  0.1304
  306MOL0     C40296  -1.368  10.466  11.098 -0.3901 -0.1626 -0.4359
  306MOL0     C40297  -1.501  10.429  11.030 -0.5272 -0.1461 -1.0394
  306MOL0     C40298  -1.513  10.484  10.889  0.3830 -0.3909  0.1890
  306MOL0     C40299  -1.637  10.409  10.819 -0.6523 -0.2932 -0.1845
  306MOL0     C40300  -1.624  10.427  10.664 -0.1771  0.2376 -0.7168
  306MOL0     C40301  -1.743  10.364  10.594  0.3723 -0.0573  0.5337
  306MOL0     C40302  -1.728  10.379  10.444  0.7835 -0.0571 -0.3908
  306MOL0     C40303  -1.849  10.334  10.367  0.0294  0.2378 -0.8685
  306MOL0    Cl40304  -1.988  10.423  10.411 -0.2594 -0.0573 -0.1518
  306MOL0     C40305  -1.127  10.580  11.224 -0.3563  0.1936  0.7240
  306MOL0     C40306  -1.011  10.639  11.275 -1.1881  0.6842  0.4749
  306MOL0     O40307  -0.731  10.705  11.272 -0.1661  0.2681  0.0591
  306MOL0     C40308  -0.533  10.871  11.363 -0.2588 -0.3623  0.9351
  306MOL0     C40309  -0.440  10.964  11.401 -0.3373 -0.6090 -0.1218
  306MOL0     N40310   0.150  11.214  11.498 -0.2332 -0.6209  0.5820
  306MOL0     N40311   0.257  11.173  11.436 -0.0054 -0.3981  0.5396
  306MOL0     C40312   1.291  11.160  10.766  0.3893 -0.8207 -0.1167
  306MOL0     C40313   1.424  11.173  10.738 -0.9692 -0.1024  1.3113
  306MOL0     C40314   1.862  11.172  10.675 -0.4795 -0.7807 -1.0839
  306MOL0     C40315   1.904  11.110  10.560 -0.0722  0.4221  0.1537
  306MOL0     C40316   2.037  11.131  10.508  0.2086  0.5351  1.1434
  306MOL0     C40317   2.128  11.213  10.570 -1.3941  0.5346  0.2242
  306MOL0     O40318   2.251  11.227  10.517  0.3985  1.0022  0.1669
  306MOL0     C40319   2.333  11.330  10.579 -1.4968  0.1334  1.2699
  306MOL0     C40320   2.454  11.363  10.489 -0.2025  0.1205  1.4229
  306MOL0     C40321   2.544  11.234  10.464 -0.7261 -0.6238  0.4504
  306MOL0     C40322   2.664  11.281  10.368 -0.1910  0.3094 -0.6687
  306MOL0     C40323   2.768  11.371  10.420  0.0690  0.8225 -0.5885
  306MOL0     C40324   2.841  11.454  10.474  0.3417 -0.1317  1.2227
  306MOL0     C40325   2.090  11.260  10.694  0.9966 -0.0771  0.4764
  306MOL0     C40326   1.957  11.249  10.747 -0.1344  0.1741  0.1365
  306MOL0     H40327   1.489  10.860  10.649  2.5688  0.4595  2.4751
  306MOL0     H40328   1.260  10.823  10.695 -3.6145  0.6917 -1.2593
  306MOL0     H40329   1.028  11.224  10.798  2.3891 -1.8807 -0.7811
  306MOL0     H40330   1.037  11.121  10.937 -2.0624  2.7008  0.8877
  306MOL0     H40331   0.852  10.975  10.813  0.2348 -0.0958  0.2033
  306MOL0     H40332   0.826  11.131  10.728 -0.3836  2.0036  0.4056
  306MOL0     H40333   0.668  11.128  10.897 -1.1713  0.5398  3.5850
  306MOL0     H40334   0.776  11.258  10.933  0.1633  0.1583  1.1556
  306MOL0     H40335   0.808  10.988  11.051 -2.8354 -0.4179  0.8829
  306MOL0     H40336   0.890  11.139  11.105  1.0568  0.9087 -0.9599
  306MOL0     H40337   0.722  11.072  11.268 -1.1759  3.9472  1.3072
  306MOL0     H40338   0.591  11.058  11.147  0.3943 -0.6088 -2.1082
  306MOL0     H40339   0.610  11.299  11.111  0.6115 -1.8478 -0.6381
  306MOL0     H40340   0.744  11.312  11.229  0.6601 -2.0795  2.0216
  306MOL0     H40341   0.541  11.182  11.378 -1.3824 -0.2809  0.1677
  306MOL0     H40342   0.552  11.356  11.360 -2.4709  1.4186 -0.8495
  306MOL0     H40343   0.381  11.197  11.172 -0.4860 -0.7079 -0.1891
  306MOL0     H40344   0.389  11.371  11.190  0.3205 -0.5377 -0.0380
  306MOL0     H40345   0.219  11.474  11.307 -0.1047 -0.0981 -0.3794
  306MOL0     H40346   0.003  11.516  11.436 -1.7185  0.0181  0.1456
  306MOL0     H40347  -0.009  11.424  11.589  2.3875  0.0872  0.1445
  306MOL0     H40348  -0.118  11.245  11.460  0.8687  0.7653 -1.1105
  306MOL0     H40349  -0.125  11.346  11.314  2.0755 -2.3744  0.0751
  306MOL0     H40350  -0.272  11.427  11.582  0.1368  1.0611 -0.3323
  306MOL0     H40351  -0.270  11.507  11.437  1.6532 -1.2851 -0.6848
  306MOL0     H40352  -0.354  11.305  11.318  2.9647  1.6408  0.4548
  306MOL0     H40353  -0.469  11.356  11.452  0.5049  1.3527  1.0453
  306MOL0     H40354  -0.647  11.226  11.454 -0.3100 -1.0467  2.3084
  306MOL0     H40355  -0.803  11.065  11.385 -0.5415  0.3802  2.1320
  306MOL0     H40356  -1.097  10.957  11.197  0.9882 -0.5716  0.6154
  306MOL0     H40357  -1.313  10.847  11.131 -0.6695 -1.6653 -2.0389
  306MOL0     H40358  -1.352  10.408  11.189 -0.3556 -2.1496 -1.6587
  306MOL0     H40359  -1.282  10.427  11.043 -0.5322  0.5890 -1.2230
  306MOL0     H40360  -1.582  10.470  11.091 -0.8590 -0.9200 -0.9353
  306MOL0     H40361  -1.505  10.320  11.039 -1.0400  0.0107  1.6500
  306MOL0     H40362  -1.421  10.453  10.838  0.2642 -0.6421  0.1271
  306MOL0     H40363  -1.530  10.591  10.894 -1.9348 -0.5032 -2.6097
  306MOL0     H40364  -1.642  10.302  10.840  0.0620 -0.5696 -1.3382
  306MOL0     H40365  -1.734  10.450  10.850  0.2476  2.0523 -0.2370
  306MOL0     H40366  -1.530  10.392  10.621  0.2842 -1.0432  1.1699
  306MOL0     H40367  -1.625  10.531  10.632 -0.2239 -1.0788 -5.7739
  306MOL0     H40368  -1.839  10.393  10.636  0.8097  0.5294  1.1584
  306MOL0     H40369  -1.727  10.256  10.606 -0.1492 -0.0501  1.2978
  306MOL0     H40370  -1.714  10.481  10.407 -0.4429  0.1333 -0.3798
  306MOL0     H40371  -1.636  10.327  10.416  1.1566  0.5185 -0.2364
  306MOL0     H40372  -1.859  10.225  10.379 -1.5498  0.3408 -0.9743
  306MOL0     H40373  -1.824  10.341  10.261  1.1201  0.6047 -0.6048
  306MOL0     H40374  -1.116  10.474  11.203  2.6725  0.1045  2.2085
  306MOL0     H40375  -0.926  10.587  11.317 -0.1780  3.8865  2.8523
  306MOL0     H40376  -0.500  10.767  11.358 -0.1594 -0.4817  3.0672
  306MOL0     H40377  -0.335  10.938  11.414  0.2427  0.9741 -1.2625
  306MOL0     H40378   1.237  11.250  10.794 -1.4711 -2.1296  0.7271
  306MOL0     H40379   1.476  11.268  10.750 -2.2785  0.9804 -0.8837
  306MOL0     H40380   1.834  11.049  10.504  1.6804 -1.3997 -0.1556
  306MOL0     H40381   2.063  11.090  10.411  2.1135  1.8960  1.0405
  306MOL0     H40382   2.369  11.282  10.670  1.4689 -2.7220 -1.1341
  306MOL0     H40383   2.284  11.427  10.590 -1.5773  0.1604  0.7321
  306MOL0     H40384   2.423  11.401  10.391 -1.4549 -1.3148  1.2281
  306MOL0     H40385   2.516  11.438  10.538 -0.1337  0.1939  1.2253
  306MOL0     H40386   2.500  11.145  10.417  1.8382 -2.2112  0.8840
  306MOL0     H40387   2.590  11.206  10.559 -3.4754 -1.6206  1.6177
  306MOL0     H40388   2.707  11.189  10.326 -0.5293 -0.4114  0.5101
  306MOL0     H40389   2.610  11.333  10.288  2.7267  1.6484 -1.9473
  306MOL0     H40390   2.905  11.528  10.517  4.7213 -1.8376 -1.6110
  306MOL0     H40391   2.165  11.306  10.759  2.0442 -1.1617  0.0839
  306MOL0     H40392   1.923  11.281  10.845 -3.5178  0.5596 -1.0070
  307MOL0     O40393   6.841   2.211   4.177  0.5292 -0.8167  0.5571
  307MOL0     C40394   6.866   2.277   4.072 -0.4546 -0.9947  0.4260
  307MOL0     O40395   6.778   2.359   4.000 -0.0791 -0.2220 -0.3329
  307MOL0     C40396   6.652   2.373   4.044  1.2370  0.4634  0.0374
  307MOL0     C40397   6.550   2.309   3.966  0.9271 -0.0648  0.5642
  307MOL0     C40398   6.408   2.310   4.006  0.3395 -0.1921 -0.7263
  307MOL0     C40399   6.370   2.383   4.127 -0.5360 -0.4825  0.4544
  307MOL0     O40400   6.235   2.407   4.165  0.5847  0.0695  0.0865
  307MOL0     C40401   6.196   2.390   4.302 -0.5792  0.0692 -0.5476
  307MOL0     C40402   6.054   2.355   4.321 -0.4948 -0.6796 -0.8684
  307MOL0     C40403   6.004   2.358   4.462  0.0926  0.5352  0.4004
  307MOL0     C40404   5.860   2.324   4.470  1.0653 -0.8210 -0.4794
  307MOL0     C40405   5.796   2.345   4.615  0.1429  0.3987  0.8504
  307MOL0     C40406   5.820   2.240   4.718 -0.1693 -0.2137 -0.0558
  307MOL0     C40407   5.804   2.292   4.854 -0.9607  0.3844 -0.1508
  307MOL0     C40408   5.807   2.201   4.964 -0.7808 -0.3173 -0.2388
  307MOL0     N40409   5.694   2.101   4.946 -0.7782 -0.2047  0.1131
  307MOL0     C40410   5.718   1.974   4.891  0.3235  0.1771  0.1677
  307MOL0     C40411   5.594   1.926   4.883 -0.2135  0.9679  0.1043
  307MOL0     C40412   5.566   1.797   4.802  0.7895  0.6037  0.3014
  307MOL0     C40413   5.445   1.722   4.835  0.5308  0.9126  0.1301
  307MOL0     C40414   5.422   1.599   4.738 -0.1134  0.5059 -0.0855
  307MOL0     C40415   5.293   1.519   4.766  0.1650  0.3576 -0.3757
  307MOL0     O40416   5.184   1.579   4.699  0.5525 -0.2207 -0.8162
  307MOL0     C40417   5.091   1.514   4.636  0.3955 -0.3210  0.4210
  307MOL0     C40418   4.976   1.587   4.612  0.4015 -0.2799 -0.8113
  307MOL0     C40419   4.865   1.538   4.551 -0.5062  0.5461 -0.4278
  307MOL0     C40420   4.870   1.408   4.513 -1.2789 -0.1133 -1.0037
  307MOL0     C40421   4.751   1.354   4.444 -0.0864 -0.4776  0.3980
  307MOL0     O40422   4.765   1.232   4.386 -0.6777 -0.1459  0.4753
  307MOL0     C40423   4.671   1.169   4.309  0.0031 -0.1127  0.8960
  307MOL0     C40424   4.636   1.237   4.191 -0.1978  0.0920 -0.1185
  307MOL0     C40425   4.551   1.172   4.102 -0.5100 -0.4000 -0.5716
  307MOL0     C40426   4.496   1.046   4.131  0.2581 -0.8174 -0.4278
  307MOL0     O40427   4.411   0.974   4.054  0.8158  0.0749  0.7597
  307MOL0     C40428   4.390   1.031   3.919 -0.0884 -0.7820 -0.3959
  307MOL0     C40429   4.299   0.930   3.849 -0.4190 -0.1374 -0.0454
  307MOL0     C40430   4.361   0.790   3.813 -0.6700  1.3248 -0.1986
  307MOL0     C40431   4.284   0.734   3.701 -0.0676  0.7275  0.3598
  307MOL0     C40432   4.337   0.592   3.683 -1.3608 -0.0130 -0.1033
  307MOL0     C40433   4.239   0.531   3.591  0.5474 -0.3874 -0.6962
  307MOL0     C40434   4.224   0.573   3.452 -0.2310 -0.4235 -0.3517
  307MOL0     C40435   4.142   0.479   3.360  0.3330 -0.5193  0.2943
  307MOL0    Cl40436   4.136   0.563   3.201 -0.0445 -0.3875 -0.1627
  307MOL0     C40437   4.522   0.991   4.257  0.0209  0.4234  0.4019
  307MOL0     C40438   4.616   1.046   4.341  0.7495 -0.9293 -0.8313
  307MOL0     O40439   4.644   1.420   4.445 -0.2462 -0.2753 -0.6702
  307MOL0     C40440   4.979   1.327   4.540 -0.7130 -0.7883  0.4697
  307MOL0     C40441   5.085   1.378   4.617  0.1560  0.2453  0.3789
  307MOL0     N40442   5.507   2.003   4.956 -0.2964  0.6461  0.1430
  307MOL0     N40443   5.563   2.113   4.975 -0.8086  0.5549 -0.4215
  307MOL0     C40444   6.472   2.442   4.200 -0.3318 -0.2337  0.0034
  307MOL0     C40445   6.606   2.436   4.164  1.0778 -0.0714 -0.7055
  307MOL0     C40446   6.993   2.256   4.005 -0.2634  0.2536  0.7627
  307MOL0     C40447   7.086   2.168   4.053 -0.0826  0.1715  0.1750
  307MOL0     C40448   7.212   2.137   3.992  0.5327 -0.5587 -0.7256
  307MOL0     C40449   7.250   2.226   3.888 -0.2361 -0.3307 -0.2688
  307MOL0     O40450   7.381   2.219   3.840  0.2804  0.0913 -0.5994
  307MOL0     C40451   7.417   2.297   3.730 -0.3051  0.0595  0.0648
  307MOL0     C40452   7.563   2.274   3.688  0.6507 -0.0543 -0.6666
  307MOL0     C40453   7.653   2.341   3.797 -0.7205 -0.5060 -0.7067
  307MOL0     C40454   7.809   2.330   3.777 -0.6293 -0.0726  0.2729
  307MOL0     C40455   7.849   2.193   3.784 -0.5856 -0.1615  0.3670
  307MOL0     C40456   7.873   2.081   3.819 -0.0204 -0.4502 -0.3201
  307MOL0     C40457   7.154   2.323   3.835  0.3743  0.6924 -0.5693
  307MOL0     C40458   7.028   2.335   3.892 -0.5479 -0.1657 -0.7237
  307MOL0     H40459   6.570   2.246   3.879 -0.9051 -1.0078  0.7680
  307MOL0     H40460   6.334   2.261   3.945  2.4751 -6.2572  0.8274
  307MOL0     H40461   6.223   2.467   4.375 -0.4335  0.9886 -1.5306
  307MOL0     H40462   6.256   2.312   4.348 -0.2888  0.1286 -0.8200
  307MOL0     H40463   6.045   2.251   4.287  3.4936 -2.4729  2.6387
  307MOL0     H40464   5.990   2.426   4.269 -0.7580 -0.2479  0.0298
  307MOL0     H40465   6.032   2.456   4.504  0.3969  0.3492  0.6338
  307MOL0     H40466   6.055   2.275   4.512  0.8017  0.8945  0.2842
  307MOL0     H40467   5.808   2.395   4.404  1.1091 -3.7810 -4.0453
  307MOL0     H40468   5.837   2.222   4.436  0.4917 -0.9175  0.1730
  307MOL0     H40469   5.688   2.359   4.605  0.0866  2.1743  3.1005
  307MOL0     H40470   5.834   2.438   4.657 -1.8076  1.0718  1.2124
  307MOL0     H40471   5.915   2.189   4.703 -0.7358 -0.8572 -1.7974
  307MOL0     H40472   5.751   2.156   4.701  2.5457 -2.3584 -1.2685
  307MOL0     H40473   5.889   2.361   4.869 -2.6987  2.9983 -1.5135
  307MOL0     H40474   5.715   2.355   4.855  0.3811  2.3978  0.1798
  307MOL0     H40475   5.781   2.257   5.054 -1.9950  1.6333 -1.7170
  307MOL0     H40476   5.907   2.158   4.973 -0.4142  0.7033  0.8067
  307MOL0     H40477   5.811   1.944   4.843  1.5134  2.0369  1.1783
  307MOL0     H40478   5.645   1.723   4.817 -0.8422 -1.2000  0.4747
  307MOL0     H40479   5.559   1.830   4.698  3.1790  1.1618  0.2756
  307MOL0     H40480   5.361   1.791   4.819  0.6517  0.9834 -0.1922
  307MOL0     H40481   5.445   1.683   4.937  2.9817 -2.9352 -1.1384
  307MOL0     H40482   5.428   1.628   4.633 -2.2314 -0.0793 -0.4020
  307MOL0     H40483   5.489   1.515   4.758 -4.2766 -3.3032 -0.7074
  307MOL0     H40484   5.273   1.531   4.873  2.7902  0.8426  0.1335
  307MOL0     H40485   5.309   1.413   4.742  0.8229  0.3896 -0.1108
  307MOL0     H40486   4.965   1.690   4.643  0.1675 -0.1375 -1.3503
  307MOL0     H40487   4.773   1.594   4.533 -0.8067  1.3829  2.9209
  307MOL0     H40488   4.681   1.330   4.157 -0.0321  0.8292  1.9825
  307MOL0     H40489   4.517   1.231   4.017 -1.2032 -0.0068 -0.0329
  307MOL0     H40490   4.483   1.044   3.863 -0.3229 -1.0789 -0.8560
  307MOL0     H40491   4.336   1.126   3.924  2.8381  1.0577 -1.0796
  307MOL0     H40492   4.277   0.971   3.750  4.7147 -1.8513 -2.2504
  307MOL0     H40493   4.205   0.922   3.904 -0.5591 -3.2245 -0.5834
  307MOL0     H40494   4.358   0.734   3.907  0.6783  1.9478  0.2402
  307MOL0     H40495   4.465   0.803   3.782 -0.0258  0.8657  1.6242
  307MOL0     H40496   4.176   0.727   3.717 -0.4369  0.6102 -1.8319
  307MOL0     H40497   4.294   0.796   3.611 -1.1032 -0.2219 -0.4324
  307MOL0     H40498   4.348   0.536   3.776  2.5735 -0.3975 -0.6647
  307MOL0     H40499   4.436   0.599   3.639 -0.9261 -1.2095  0.6393
  307MOL0     H40500   4.143   0.529   3.644 -1.6628 -0.0812 -4.3400
  307MOL0     H40501   4.263   0.428   3.564 -2.2266 -0.3633 -3.8824
  307MOL0     H40502   4.180   0.673   3.461  2.1306  0.7920 -1.3597
  307MOL0     H40503   4.328   0.588   3.419 -0.0683 -1.0879 -0.1572
  307MOL0     H40504   4.039   0.465   3.393  0.5873  2.3152  2.6405
  307MOL0     H40505   4.196   0.386   3.340  0.8674  0.3178 -2.7320
  307MOL0     H40506   4.468   0.902   4.287 -1.0649  0.2021 -1.9993
  307MOL0     H40507   4.652   1.011   4.438 -0.2807 -0.1428 -0.1440
  307MOL0     H40508   4.999   1.224   4.513 -0.4889 -0.2005 -1.7755
  307MOL0     H40509   5.172   1.322   4.647  2.7907  2.6967 -2.0799
  307MOL0     H40510   6.451   2.490   4.295 -1.2458 -2.1999  0.8766
  307MOL0     H40511   6.691   2.478   4.217  1.7271 -0.1973 -1.6042
  307MOL0     H40512   7.070   2.101   4.137 -1.0231  0.4624  0.2376
  307MOL0     H40513   7.279   2.059   4.026  0.0101 -0.3177  0.9338
  307MOL0     H40514   7.419   2.404   3.756  3.2752 -0.6039  3.4270
  307MOL0     H40515   7.344   2.268   3.654 -1.5124 -2.6695  2.1255
  307MOL0     H40516   7.587   2.168   3.701 -1.7841 -1.0730 -3.3221
  307MOL0     H40517   7.576   2.324   3.591 -1.4424 -0.5855 -1.2740
  307MOL0     H40518   7.620   2.304   3.894 -1.3722  1.5010 -0.1157
  307MOL0     H40519   7.628   2.448   3.791 -0.7397 -0.2480  2.4113
  307MOL0     H40520   7.836   2.375   3.681  0.0716  0.0840  0.5373
  307MOL0     H40521   7.862   2.391   3.850 -2.1481  2.0698 -0.3291
  307MOL0     H40522   7.889   1.977   3.839 -2.1897 -1.0835 -1.6132
  307MOL0     H40523   7.185   2.386   3.753  0.1848  2.6885  0.8104
  307MOL0     H40524   6.957   2.406   3.851 -0.2249 -0.2744 -1.4898
  308MOL0     O40525   9.545   5.110   9.315  0.3428 -0.0217  0.1168
  308MOL0     C40526   9.534   5.002   9.252  0.0569 -0.8520 -0.3472
  308MOL0     O40527   9.420   4.925   9.245 -0.5693  0.1133 -0.0719
  308MOL0     C40528   9.289   4.962   9.266 -0.9135 -0.1183  0.0290
  308MOL0     C40529   9.197   4.904   9.187  0.0901 -0.0906 -0.4070
  308MOL0     C40530   9.069   4.934   9.195  0.5553 -1.0730 -0.7720
  308MOL0     C40531   9.018   5.027   9.287 -0.9205  0.6853 -0.0603
  308MOL0     O40532   8.886   5.069   9.302  0.3553 -1.0716  0.1067
  308MOL0     C40533   8.783   5.012   9.219  0.6384 -0.0619 -0.0661
  308MOL0     C40534   8.643   5.065   9.239  0.5437 -0.0532  0.2525
  308MOL0     C40535   8.532   4.986   9.160 -0.5594 -0.0999 -0.9184
  308MOL0     C40536   8.389   5.051   9.162  0.1443 -0.3401  0.0658
  308MOL0     C40537   8.300   4.960   9.083 -0.1139  0.6347  0.1107
  308MOL0     C40538   8.149   4.992   9.107 -0.0314  0.3262  0.3553
  308MOL0     C40539   8.064   4.956   8.981 -1.4585  0.2598  0.0253
  308MOL0     C40540   8.074   4.810   8.945  0.3651 -0.5611  0.2150
  308MOL0     N40541   8.009   4.724   9.046 -0.3594 -0.0162  0.0330
  308MOL0     C40542   7.882   4.737   9.095  0.0821  0.3465 -0.2983
  308MOL0     C40543   7.852   4.620   9.160 -0.6091 -0.2844  0.4370
  308MOL0     C40544   7.722   4.564   9.223 -0.1564  0.0280  0.6187
  308MOL0     C40545   7.661   4.465   9.121 -0.4746 -0.6650  0.0443
  308MOL0     C40546   7.536   4.407   9.165  0.8847  0.3658  0.2353
  308MOL0     C40547   7.482   4.305   9.061  0.2107 -0.0017  0.1131
  308MOL0     O40548   7.470   4.369   8.938  0.7908  0.2307 -0.5248
  308MOL0     C40549   7.500   4.297   8.826 -0.5790  0.5901 -0.3876
  308MOL0     C40550   7.408   4.219   8.759  0.6660  1.0225  0.2426
  308MOL0     C40551   7.431   4.143   8.644 -0.7603 -0.2809 -1.0255
  308MOL0     C40552   7.566   4.133   8.597  0.3042  0.1161  0.7389
  308MOL0     C40553   7.611   4.051   8.484  0.0948  0.3814 -1.8098
  308MOL0     O40554   7.723   4.092   8.426 -0.2199  0.5026 -0.2800
  308MOL0     C40555   7.776   4.029   8.315 -0.0699 -0.9437 -0.3368
  308MOL0     C40556   7.716   4.054   8.190 -0.3455  0.1019  0.8296
  308MOL0     C40557   7.749   3.976   8.073  0.1797  0.0810 -0.1349
  308MOL0     C40558   7.843   3.875   8.088 -0.4465 -0.4362  0.1755
  308MOL0     O40559   7.883   3.789   8.002 -0.5087 -0.7066  0.7912
  308MOL0     C40560   7.817   3.789   7.877  0.5350  1.0088  1.2071
  308MOL0     C40561   7.865   3.681   7.781 -0.0631  0.0200 -0.0681
  308MOL0     C40562   7.744   3.599   7.720 -0.3113  0.0160 -0.2648
  308MOL0     C40563   7.798   3.489   7.632  0.6501  0.4071 -0.2815
  308MOL0     C40564   7.695   3.399   7.570 -0.7920 -0.6495  0.3402
  308MOL0     C40565   7.778   3.297   7.486  0.4225 -0.5299 -0.2810
  308MOL0     C40566   7.684   3.219   7.393  0.6054  0.4492  0.2868
  308MOL0     C40567   7.764   3.107   7.329 -0.3063  1.1563  0.6943
  308MOL0    Cl40568   7.816   2.976   7.440 -0.3775  0.2112  0.1539
  308MOL0     C40569   7.920   3.867   8.202  1.2669  0.0811  0.4661
  308MOL0     C40570   7.883   3.944   8.312 -0.3376 -0.6150 -0.0130
  308MOL0     O40571   7.531   3.967   8.448  0.1125  0.2695 -0.1379
  308MOL0     C40572   7.658   4.212   8.659 -1.0970  0.3010  0.8797
  308MOL0     C40573   7.631   4.293   8.768 -0.2464  0.0227 -0.8253
  308MOL0     N40574   7.970   4.538   9.161  0.1893 -1.1070 -0.1443
  308MOL0     N40575   8.056   4.604   9.090 -0.3069 -0.2043  0.5467
  308MOL0     C40576   9.112   5.084   9.376  0.4344 -0.0216 -0.1499
  308MOL0     C40577   9.246   5.054   9.362  0.8440 -0.0272 -1.0876
  308MOL0     C40578   9.661   4.949   9.187 -0.1512  0.9374 -0.1653
  308MOL0     C40579   9.661   4.818   9.131 -1.2691  0.4178 -0.2361
  308MOL0     C40580   9.780   4.766   9.071  0.0478 -0.1133  0.3788
  308MOL0     C40581   9.902   4.836   9.079 -0.1166  0.0861 -0.0135
  308MOL0     O40582  10.016   4.778   9.027  1.1356  0.1273 -0.2901
  308MOL0     C40583  10.145   4.835   9.064 -0.2903  0.4183  0.4440
  308MOL0     C40584  10.206   4.764   9.192  0.2757 -0.3790  0.1715
  308MOL0     C40585  10.231   4.613   9.155 -0.1835 -0.0908 -0.5766
  308MOL0     C40586  10.267   4.508   9.262  0.4108  0.2496 -0.3472
  308MOL0     C40587  10.390   4.554   9.327 -0.1115 -0.6501 -0.6669
  308MOL0     C40588  10.481   4.606   9.392  0.2926  0.0262 -0.3465
  308MOL0     C40589   9.903   4.951   9.155 -0.0186  0.3309  0.5242
  308MOL0     C40590   9.788   5.015   9.194 -0.5305  0.4434  0.9166
  308MOL0     H40591   9.216   4.838   9.103 -1.5339 -0.6511 -0.3808
  308MOL0     H40592   9.002   4.892   9.121 -0.7713 -0.4382  0.0393
  308MOL0     H40593   8.778   4.909   9.255 -1.5405  0.1405  0.3715
  308MOL0     H40594   8.805   5.005   9.112  1.8669  2.6510 -0.0869
  308MOL0     H40595   8.636   5.171   9.214  3.5508  0.4245  1.0621
  308MOL0     H40596   8.619   5.055   9.346  1.1586 -1.2065  0.3021
  308MOL0     H40597   8.527   4.879   9.181  0.9130 -0.3058 -1.5460
  308MOL0     H40598   8.581   4.973   9.063  3.2280 -1.2035  0.9366
  308MOL0     H40599   8.359   5.064   9.267  2.2444  1.3286  0.5190
  308MOL0     H40600   8.401   5.146   9.109  2.1800 -0.1835  0.7413
  308MOL0     H40601   8.317   4.854   9.103 -3.5016 -0.7347 -3.0715
  308MOL0     H40602   8.328   4.977   8.979  1.1803 -1.7748 -0.0054
  308MOL0     H40603   8.150   5.102   9.104 -1.6463  0.4273  2.0494
  308MOL0     H40604   8.114   4.948   9.200 -0.7156  0.0562 -0.0241
  308MOL0     H40605   7.959   4.989   8.990 -1.8363 -0.9783  0.3068
  308MOL0     H40606   8.113   4.995   8.892 -0.5628 -3.8060 -1.4545
  308MOL0     H40607   8.182   4.796   8.938  0.4908 -0.5725  1.8981
  308MOL0     H40608   8.024   4.784   8.851 -0.1692 -0.6231  0.5149
  308MOL0     H40609   7.821   4.826   9.086 -0.0958  0.4735  1.7631
  308MOL0     H40610   7.657   4.652   9.216 -1.8557 -1.1051  1.6363
  308MOL0     H40611   7.743   4.516   9.319 -3.5507 -0.8111  1.0644
  308MOL0     H40612   7.730   4.387   9.088  3.0407  1.6381  1.3274
  308MOL0     H40613   7.643   4.519   9.029  0.5524  0.0310  0.2374
  308MOL0     H40614   7.537   4.364   9.265  2.2648  0.6499  0.3670
  308MOL0     H40615   7.459   4.484   9.175 -0.0216 -0.4031 -0.6512
  308MOL0     H40616   7.381   4.284   9.097  0.6446 -0.1897  1.2751
  308MOL0     H40617   7.531   4.207   9.052  0.8777  0.2670  0.7791
  308MOL0     H40618   7.312   4.223   8.810 -0.2898 -1.1314 -1.2601
  308MOL0     H40619   7.343   4.094   8.604  0.3428 -0.9999 -2.6825
  308MOL0     H40620   7.633   4.123   8.190  0.3061  0.9125  1.5798
  308MOL0     H40621   7.699   3.991   7.978 -0.4135 -1.0345 -0.0198
  308MOL0     H40622   7.826   3.883   7.821 -0.6739  0.8683  0.7494
  308MOL0     H40623   7.711   3.768   7.894 -0.1192  2.9312 -0.1074
  308MOL0     H40624   7.936   3.614   7.831  0.2332  0.6794  0.4072
  308MOL0     H40625   7.919   3.730   7.698  1.0601 -0.2006  0.5097
  308MOL0     H40626   7.690   3.668   7.655 -0.5139 -1.3537 -1.5801
  308MOL0     H40627   7.682   3.566   7.804  0.0696  2.7254  1.2137
  308MOL0     H40628   7.860   3.538   7.557  1.6705 -1.0252 -0.4096
  308MOL0     H40629   7.861   3.429   7.698  2.9352  1.9992 -0.8790
  308MOL0     H40630   7.630   3.455   7.503  0.0774 -0.1904 -0.1336
  308MOL0     H40631   7.640   3.345   7.648 -0.1718  1.2400  2.2015
  308MOL0     H40632   7.821   3.221   7.552 -1.5421 -0.5142  1.1188
  308MOL0     H40633   7.859   3.334   7.422  1.9016  0.7015  2.1349
  308MOL0     H40634   7.613   3.168   7.458  0.6714  0.0886  0.0769
  308MOL0     H40635   7.635   3.276   7.313 -0.1982  2.0859  1.8948
  308MOL0     H40636   7.849   3.142   7.270 -0.8106 -0.5807 -1.1820
  308MOL0     H40637   7.697   3.060   7.257  1.5829 -0.9139  0.1821
  308MOL0     H40638   7.998   3.792   8.210  0.7520 -0.4006  1.0201
  308MOL0     H40639   7.932   3.922   8.407 -0.3623  1.1938  0.4522
  308MOL0     H40640   7.760   4.224   8.623  0.3858  0.2159  4.6052
  308MOL0     H40641   7.705   4.360   8.810  1.6478 -1.9096 -0.9131
  308MOL0     H40642   9.085   5.164   9.443  0.8028  0.4689 -0.5771
  308MOL0     H40643   9.321   5.095   9.430  0.4699  1.1591 -1.3717
  308MOL0     H40644   9.582   4.744   9.143 -1.2522  0.4952  0.3765
  308MOL0     H40645   9.778   4.671   9.019  2.2993  0.0343 -0.1041
  308MOL0     H40646  10.134   4.943   9.069 -3.2949  0.5485 -3.8383
  308MOL0     H40647  10.218   4.798   8.990 -2.1408 -3.0787  0.1472
  308MOL0     H40648  10.300   4.814   9.219 -0.6540  0.1827  2.6436
  308MOL0     H40649  10.133   4.774   9.272  1.5276 -1.4346  1.5046
  308MOL0     H40650  10.311   4.606   9.081  1.5809 -1.3055  1.3158
  308MOL0     H40651  10.132   4.577   9.124  0.1134 -1.8718  0.3600
  308MOL0     H40652  10.178   4.492   9.323  1.0734 -0.7486  0.3777
  308MOL0     H40653  10.302   4.413   9.221  0.3836 -0.8768  2.0857
  308MOL0     H40654  10.561   4.658   9.441 -0.3390  0.3477  0.3612
  308MOL0     H40655   9.995   5.005   9.178  0.8143  0.4644 -2.6853
  308MOL0     H40656   9.781   5.104   9.256  0.3954  0.8937  0.4013
  309MOL0     O40657   9.589   2.189   4.494 -0.4071 -0.0825 -0.8810
  309MOL0     C40658   9.569   2.071   4.528 -0.1424  0.1804  0.3425
  309MOL0     O40659   9.454   2.001   4.527  0.3919  0.0004 -0.5880
  309MOL0     C40660   9.360   2.068   4.463 -0.3325 -0.2946  0.4297
  309MOL0     C40661   9.285   2.174   4.510 -0.2704  0.3729  0.5573
  309MOL0     C40662   9.185   2.225   4.435  0.7626  0.6336 -0.1598
  309MOL0     C40663   9.150   2.164   4.312 -0.3185 -0.7693  0.9345
  309MOL0     O40664   9.062   2.222   4.214 -0.4183 -0.8746 -0.1240
  309MOL0     C40665   8.963   2.315   4.261 -0.3863 -1.3058  0.5097
  309MOL0     C40666   8.842   2.246   4.332 -0.2808 -0.4566 -0.2846
  309MOL0     C40667   8.743   2.347   4.385 -0.4903  0.1834  0.3135
  309MOL0     C40668   8.612   2.274   4.420  0.1699 -0.7283  0.4437
  309MOL0     C40669   8.500   2.369   4.462 -0.4953 -0.0338  0.1214
  309MOL0     C40670   8.422   2.423   4.339 -0.6098  0.0161 -0.1707
  309MOL0     C40671   8.322   2.531   4.389  0.7265  0.5073  0.3787
  309MOL0     C40672   8.222   2.586   4.287  0.0889  0.2147 -0.1169
  309MOL0     N40673   8.291   2.620   4.163 -0.4370 -0.1999 -1.0457
  309MOL0     C40674   8.401   2.704   4.148  0.0938 -0.2034  0.0660
  309MOL0     C40675   8.460   2.683   4.035 -0.4045 -0.0997  0.5838
  309MOL0     C40676   8.575   2.755   3.979  0.9047 -0.4468  0.0780
  309MOL0     C40677   8.530   2.903   3.961 -0.2417 -0.3421 -0.3260
  309MOL0     C40678   8.442   2.926   3.843  0.8709 -0.2167  0.3600
  309MOL0     C40679   8.399   3.069   3.815 -0.0730 -0.0026 -0.4462
  309MOL0     O40680   8.377   3.147   3.938  0.2136 -0.4127 -0.2223
  309MOL0     C40681   8.252   3.143   3.991  0.0119  0.8283 -0.5426
  309MOL0     C40682   8.131   3.098   3.933  0.0313  0.8511 -0.0698
  309MOL0     C40683   8.018   3.109   4.006  0.1632 -0.2630  0.1542
  309MOL0     C40684   8.007   3.161   4.134 -0.0803 -0.6970  0.2202
  309MOL0     C40685   7.880   3.167   4.202 -0.1100  0.3306  0.5823
  309MOL0     O40686   7.766   3.148   4.125 -0.5251  0.6627 -0.1539
  309MOL0     C40687   7.642   3.141   4.180 -0.3036 -0.4081  0.6542
  309MOL0     C40688   7.545   3.054   4.135  0.2879  0.8497 -0.3267
  309MOL0     C40689   7.411   3.057   4.179  0.1062  0.0539 -0.1692
  309MOL0     C40690   7.376   3.140   4.286 -0.0133  1.0959  0.4315
  309MOL0     O40691   7.253   3.127   4.346 -0.2798 -0.2068 -0.2964
  309MOL0     C40692   7.255   3.057   4.469  0.4480  0.1202  0.1176
  309MOL0     C40693   7.162   2.935   4.447  0.5295  0.0292 -0.6401
  309MOL0     C40694   7.154   2.840   4.582 -0.4104  0.0274 -0.8905
  309MOL0     C40695   7.072   2.714   4.568  0.6938  0.3971 -0.2752
  309MOL0     C40696   7.027   2.662   4.706 -0.4497  0.3026  0.1082
  309MOL0     C40697   6.953   2.526   4.711  0.1948  0.7200 -0.1187
  309MOL0     C40698   6.826   2.530   4.629  0.3850  0.6310 -0.2543
  309MOL0     C40699   6.734   2.410   4.652 -0.4342  0.0509 -1.5554
  309MOL0    Cl40700   6.583   2.448   4.554 -0.4504  0.1918 -0.3687
  309MOL0     C40701   7.475   3.213   4.343 -0.4683 -0.1848  0.1538
  309MOL0     C40702   7.600   3.229   4.283  0.5832 -0.0954  0.0378
  309MOL0     O40703   7.883   3.173   4.323 -0.7491  0.3249 -0.6973
  309MOL0     C40704   8.126   3.208   4.191  0.9250 -0.8925 -0.0002
  309MOL0     C40705   8.250   3.198   4.123 -0.0884  0.7416 -0.9720
  309MOL0     N40706   8.389   2.583   3.974  0.4504 -0.4011 -0.1415
  309MOL0     N40707   8.282   2.544   4.050  0.1807 -0.3720  1.0368
  309MOL0     C40708   9.218   2.051   4.275  0.3177 -0.6035 -0.4588
  309MOL0     C40709   9.324   2.003   4.351  0.3536  0.0338  0.1691
  309MOL0     C40710   9.708   2.011   4.545  0.0403 -1.2927 -0.1717
  309MOL0     C40711   9.718   1.869   4.550  0.3420 -0.1572  1.0505
  309MOL0     C40712   9.850   1.812   4.580 -0.3647 -0.7861  0.1961
  309MOL0     C40713   9.968   1.885   4.578 -0.9356 -0.4158  0.1313
  309MOL0     O40714  10.088   1.817   4.598 -0.2089 -0.0398  0.0979
  309MOL0     C40715  10.207   1.884   4.598  0.1763 -0.1992 -0.7313
  309MOL0     C40716  10.259   1.911   4.452  0.3883 -0.8181  0.0259
  309MOL0     C40717  10.370   2.020   4.449  0.9323  0.3457  0.1622
  309MOL0     C40718  10.328   2.152   4.511 -0.1150  0.4542  0.1710
  309MOL0     C40719  10.425   2.249   4.454 -0.3251  1.2337 -0.7557
  309MOL0     C40720  10.503   2.305   4.373  1.4977 -1.2473 -0.2654
  309MOL0     C40721   9.950   2.032   4.577 -0.2983 -0.0978 -0.6086
  309MOL0     C40722   9.825   2.086   4.567 -1.0487  0.1915  0.0341
  309MOL0     H40723   9.319   2.200   4.610  0.9784 -1.3109  0.6039
  309MOL0     H40724   9.142   2.320   4.465 -2.2386 -0.3526 -1.0129
  309MOL0     H40725   8.925   2.368   4.173 -1.8638 -3.4689 -0.2418
  309MOL0     H40726   9.003   2.402   4.314  0.0177  0.5205 -2.5752
  309MOL0     H40727   8.880   2.196   4.421  2.1459 -2.5155 -2.3572
  309MOL0     H40728   8.791   2.177   4.265 -1.4219  0.4905 -0.4375
  309MOL0     H40729   8.719   2.419   4.305  0.8196  1.0509  0.6583
  309MOL0     H40730   8.787   2.391   4.475  1.8892 -0.5867 -0.3968
  309MOL0     H40731   8.581   2.205   4.341 -1.4904  0.5510 -0.0685
  309MOL0     H40732   8.624   2.211   4.509 -1.5755 -2.8698 -0.7245
  309MOL0     H40733   8.532   2.455   4.523 -3.0831  0.6116  0.6845
  309MOL0     H40734   8.438   2.319   4.537  0.3802  0.0906  0.9627
  309MOL0     H40735   8.368   2.336   4.300 -3.0473 -0.3361  3.4324
  309MOL0     H40736   8.483   2.475   4.265 -0.7473  2.6220  1.4047
  309MOL0     H40737   8.250   2.486   4.460 -1.5691  1.4943 -1.2009
  309MOL0     H40738   8.375   2.613   4.436 -0.2142  0.7779  1.0068
  309MOL0     H40739   8.160   2.665   4.329 -1.4852  0.4895 -2.7207
  309MOL0     H40740   8.164   2.499   4.255  1.9520 -0.3381 -2.2279
  309MOL0     H40741   8.429   2.784   4.215 -0.2417 -0.0245 -0.0019
  309MOL0     H40742   8.592   2.712   3.880  0.2791 -1.7103  0.4914
  309MOL0     H40743   8.655   2.731   4.050 -0.1588 -2.2135  0.7529
  309MOL0     H40744   8.624   2.959   3.958  0.4924 -1.5624 -2.0571
  309MOL0     H40745   8.489   2.942   4.055  2.3405 -0.5952  0.9779
  309MOL0     H40746   8.492   2.873   3.762  0.7085  2.1522 -1.4065
  309MOL0     H40747   8.347   2.876   3.863  0.9542  0.1512  1.7736
  309MOL0     H40748   8.315   3.080   3.746 -1.8203 -0.7188  1.4749
  309MOL0     H40749   8.479   3.126   3.765 -0.2006  2.6412  2.0552
  309MOL0     H40750   8.126   3.039   3.842 -4.5912 -1.7750  1.5377
  309MOL0     H40751   7.917   3.094   3.968 -0.3535  2.2866  0.3271
  309MOL0     H40752   7.556   2.980   4.055  2.0385  0.6033  0.0949
  309MOL0     H40753   7.330   2.999   4.136 -1.2535  0.7809  1.3192
  309MOL0     H40754   7.222   3.118   4.554  1.0165 -1.6289  1.6855
  309MOL0     H40755   7.354   3.017   4.492 -0.0671 -1.2987 -0.0197
  309MOL0     H40756   7.194   2.873   4.362 -0.7855 -2.5331  0.6326
  309MOL0     H40757   7.056   2.955   4.430  0.0593 -0.5412  1.3850
  309MOL0     H40758   7.107   2.895   4.664  1.2566  1.0383 -0.5593
  309MOL0     H40759   7.256   2.819   4.615 -0.6787  1.6923  1.1841
  309MOL0     H40760   6.981   2.738   4.514  0.4896  1.8540  0.6556
  309MOL0     H40761   7.134   2.642   4.512  0.8762  2.8513 -3.4959
  309MOL0     H40762   6.964   2.743   4.746  0.9732  1.4029  0.1785
  309MOL0     H40763   7.124   2.655   4.756  0.3492 -2.7376 -1.6452
  309MOL0     H40764   6.940   2.500   4.817  0.4840  0.6486 -0.0991
  309MOL0     H40765   7.002   2.440   4.664 -1.4682  0.8387 -2.1946
  309MOL0     H40766   6.783   2.626   4.658  2.0064  1.3752 -0.2224
  309MOL0     H40767   6.841   2.540   4.521 -1.0499 -0.1183 -0.5523
  309MOL0     H40768   6.710   2.417   4.758  2.3424  0.9617 -0.9212
  309MOL0     H40769   6.792   2.320   4.629  2.0162  0.7883  1.1149
  309MOL0     H40770   7.438   3.272   4.426  1.2684 -0.0278  0.8642
  309MOL0     H40771   7.668   3.304   4.322 -0.1140 -0.2704  1.6467
  309MOL0     H40772   8.115   3.263   4.284 -0.0105 -0.4150 -0.3707
  309MOL0     H40773   8.342   3.231   4.170  0.9270 -1.6055 -1.1941
  309MOL0     H40774   9.191   1.994   4.187  0.6697  0.6346 -1.3891
  309MOL0     H40775   9.384   1.924   4.308 -0.4774 -1.8716  2.3180
  309MOL0     H40776   9.633   1.801   4.550 -0.5977  0.9834  0.5932
  309MOL0     H40777   9.850   1.704   4.573  1.3684 -0.7634 -0.8854
  309MOL0     H40778  10.281   1.835   4.660 -1.0299 -0.8062  0.2570
  309MOL0     H40779  10.195   1.981   4.648 -2.5033  0.3763 -2.2415
  309MOL0     H40780  10.291   1.822   4.397  0.6559  1.1618 -3.3318
  309MOL0     H40781  10.176   1.948   4.391  1.9591  2.4977 -0.3439
  309MOL0     H40782  10.394   2.041   4.345  1.7051  3.1959  0.8363
  309MOL0     H40783  10.461   1.981   4.495  0.8521 -1.4205 -1.0754
  309MOL0     H40784  10.230   2.190   4.483  0.8120  2.7168 -0.2133
  309MOL0     H40785  10.355   2.160   4.617  0.9026  0.2865 -0.0619
  309MOL0     H40786  10.576   2.359   4.316  1.9624  2.3624  3.3582
  309MOL0     H40787  10.043   2.088   4.575  1.0219 -1.9706  1.7019
  309MOL0     H40788   9.834   2.193   4.579 -0.8048  0.0414  1.4349
  310MOL0     O40789   9.333   7.647   9.275  0.2731  0.4478  0.2384
  310MOL0     C40790   9.418   7.590   9.345  0.6391 -0.5298  0.1528
  310MOL0     O40791   9.435   7.607   9.479 -0.0586 -0.3381 -0.1977
  310MOL0     C40792   9.358   7.698   9.546  0.7325 -0.1145 -0.5222
  310MOL0     C40793   9.430   7.796   9.618  0.6946 -0.5341 -0.2395
  310MOL0     C40794   9.359   7.893   9.691  0.0039  0.6888  0.0059
  310MOL0     C40795   9.219   7.895   9.683 -0.7767 -0.3088 -0.0640
  310MOL0     O40796   9.141   7.978   9.758  0.3433 -0.2696 -0.4132
  310MOL0     C40797   9.210   8.060   9.854  0.1584 -0.2828 -0.2980
  310MOL0     C40798   9.089   8.122   9.934 -0.2469  0.3122  0.0333
  310MOL0     C40799   9.005   8.031  10.022 -0.1025  0.5618 -0.5117
  310MOL0     C40800   9.084   7.992  10.154  0.3692  0.2857  1.0758
  310MOL0     C40801   8.991   7.982  10.275  0.1239  0.2600 -0.3094
  310MOL0     C40802   8.884   7.867  10.250 -0.4590  1.1297  0.4988
  310MOL0     C40803   8.759   7.872  10.341  0.4649  0.4961 -0.1220
  310MOL0     C40804   8.637   7.911  10.254  0.3724  0.2100  0.7706
  310MOL0     N40805   8.511   7.941  10.322 -0.2512 -0.5482 -0.1834
  310MOL0     C40806   8.390   7.904  10.269 -0.2000 -0.0258 -0.0888
  310MOL0     C40807   8.302   7.963  10.342  0.3534 -0.9098 -0.1810
  310MOL0     C40808   8.153   7.958  10.320  0.4324 -0.8302 -0.7367
  310MOL0     C40809   8.084   8.088  10.364  0.0735  0.6193  0.6505
  310MOL0     C40810   8.149   8.208  10.292 -0.2167  0.2356 -0.5173
  310MOL0     C40811   8.053   8.334  10.287 -0.6434 -1.2136 -0.0012
  310MOL0     O40812   8.017   8.378  10.415  0.4758 -0.2515  0.1493
  310MOL0     C40813   8.079   8.494  10.463 -0.0551 -0.0211  0.4867
  310MOL0     C40814   8.203   8.483  10.521  0.1931  0.8802 -0.2277
  310MOL0     C40815   8.277   8.588  10.577  0.4175 -0.3183 -0.6650
  310MOL0     C40816   8.223   8.721  10.590  0.6349  0.3063 -0.0570
  310MOL0     C40817   8.306   8.841  10.637  0.3034  0.0358 -0.3188
  310MOL0     O40818   8.433   8.803  10.677  0.0984  0.1261 -0.3589
  310MOL0     C40819   8.519   8.900  10.705 -1.0413 -0.1553 -0.2291
  310MOL0     C40820   8.539   9.022  10.641  0.4246  0.0346 -0.0564
  310MOL0     C40821   8.637   9.112  10.675  0.3477  0.7552  0.0313
  310MOL0     C40822   8.714   9.083  10.786 -0.3837  0.3909 -0.6573
  310MOL0     O40823   8.805   9.184  10.820  0.6090 -0.6259  0.4313
  310MOL0     C40824   8.754   9.295  10.901 -0.6445  1.2104  0.5281
  310MOL0     C40825   8.880   9.382  10.939  1.1498  0.5789 -0.4364
  310MOL0     C40826   8.870   9.455  11.075 -0.4618 -0.2668  0.0093
  310MOL0     C40827   8.969   9.570  11.062  0.1707 -0.2694  0.7425
  310MOL0     C40828   8.982   9.649  11.198 -0.0966 -0.4380  0.2204
  310MOL0     C40829   9.062   9.784  11.181 -0.3100  0.4518 -0.1150
  310MOL0     C40830   9.196   9.769  11.121 -0.4795  0.6740 -0.2522
  310MOL0     C40831   9.284   9.667  11.182  0.5246 -0.2932 -0.5962
  310MOL0    Cl40832   9.295   9.683  11.362 -0.3827 -0.7215  0.0543
  310MOL0     C40833   8.710   8.964  10.848 -0.7848 -0.2726 -1.2460
  310MOL0     C40834   8.609   8.874  10.818 -0.0073 -0.4110  0.4249
  310MOL0     O40835   8.260   8.952  10.631  0.0691 -0.4864 -0.1937
  310MOL0     C40836   8.092   8.737  10.532 -0.3822 -0.9453  0.6766
  310MOL0     C40837   8.025   8.629  10.466  0.1733  0.2538  0.6087
  310MOL0     N40838   8.370   8.018  10.455  0.6946  0.2673  0.0335
  310MOL0     N40839   8.494   7.995  10.439 -0.5155 -0.0799 -0.3070
  310MOL0     C40840   9.156   7.807   9.605  0.1690 -1.0135 -0.2358
  310MOL0     C40841   9.224   7.702   9.540  0.3298  0.5465  0.2133
  310MOL0     C40842   9.504   7.493   9.282 -0.0133  0.4900  0.6477
  310MOL0     C40843   9.486   7.438   9.159 -0.4979 -0.7874 -0.2102
  310MOL0     C40844   9.572   7.329   9.114 -0.1947 -0.3428 -0.4352
  310MOL0     C40845   9.687   7.291   9.185  0.9965  1.2552 -0.2821
  310MOL0     O40846   9.773   7.201   9.117 -0.0167  0.0490 -1.3967
  310MOL0     C40847   9.907   7.167   9.169 -0.7303 -0.1993  0.5156
  310MOL0     C40848  10.005   7.257   9.100  0.2057 -0.5097 -0.3625
  310MOL0     C40849  10.153   7.213   9.109  0.9705 -0.4829 -0.0801
  310MOL0     C40850  10.190   7.122   8.996 -0.3083 -1.0687  1.2321
  310MOL0     C40851  10.321   7.061   9.013  0.4190  0.4763  0.2225
  310MOL0     C40852  10.426   7.014   9.055 -0.2487  0.0949  0.1888
  310MOL0     C40853   9.701   7.343   9.312 -0.3478 -0.2009  0.4094
  310MOL0     C40854   9.612   7.443   9.360  0.7120  0.5380 -0.1335
  310MOL0     H40855   9.538   7.785   9.611  0.4608 -3.0098 -5.8764
  310MOL0     H40856   9.410   7.965   9.755  1.7640 -0.0949 -0.4371
  310MOL0     H40857   9.282   8.135   9.819  0.1949 -0.1272  0.1009
  310MOL0     H40858   9.267   7.995   9.921  3.6559  1.4012 -1.3732
  310MOL0     H40859   9.024   8.174   9.863 -0.6764 -2.1748 -1.5021
  310MOL0     H40860   9.137   8.200   9.994 -0.3285  1.3058 -1.1556
  310MOL0     H40861   8.987   7.937   9.969 -0.5931  2.0570 -3.1759
  310MOL0     H40862   8.911   8.079  10.048  1.0628  3.2427 -0.8940
  310MOL0     H40863   9.147   7.905  10.132 -2.9051 -2.7642  2.7648
  310MOL0     H40864   9.153   8.076  10.173 -2.1230  2.2010  2.1865
  310MOL0     H40865   8.943   8.078  10.297 -0.4654  0.2457 -1.4428
  310MOL0     H40866   9.054   7.968  10.363 -3.4279 -4.1191  1.9256
  310MOL0     H40867   8.922   7.765  10.267  1.9904  1.9731  0.4419
  310MOL0     H40868   8.856   7.861  10.144 -1.0816  0.7717  0.6740
  310MOL0     H40869   8.745   7.777  10.393 -0.8131  0.6375 -0.1838
  310MOL0     H40870   8.782   7.938  10.425  3.7579  1.7824 -1.8627
  310MOL0     H40871   8.615   7.830  10.184 -0.1294 -0.7617  2.0069
  310MOL0     H40872   8.669   8.004  10.206 -1.3023  0.0077 -0.8091
  310MOL0     H40873   8.362   7.842  10.184 -2.3703  2.1833 -1.0875
  310MOL0     H40874   8.117   7.870  10.374  2.1282 -2.1129 -1.5673
  310MOL0     H40875   8.133   7.930  10.216 -0.9343 -1.4157 -0.3316
  310MOL0     H40876   8.091   8.095  10.473  1.7721 -2.2098  0.8175
  310MOL0     H40877   7.978   8.088  10.336  0.0151 -1.7235  0.7122
  310MOL0     H40878   8.240   8.243  10.342 -0.7854  1.8114 -0.5280
  310MOL0     H40879   8.179   8.167  10.196  3.3165  0.9944  0.1199
  310MOL0     H40880   7.977   8.318  10.210  0.2769  0.9506 -1.4684
  310MOL0     H40881   8.120   8.410  10.246 -1.4302 -1.0178 -0.9688
  310MOL0     H40882   8.246   8.387  10.549 -0.6893  1.1732  2.3966
  310MOL0     H40883   8.372   8.559  10.623  0.8227  0.8616 -0.7085
  310MOL0     H40884   8.483   9.066  10.559  1.2206  3.5827  1.1086
  310MOL0     H40885   8.647   9.203  10.616  0.6530  0.3432 -0.5618
  310MOL0     H40886   8.709   9.273  10.998  0.5086  2.6443  1.4204
  310MOL0     H40887   8.670   9.336  10.843 -0.2042  0.4533 -0.6889
  310MOL0     H40888   8.887   9.457  10.859  0.1535  2.2590  0.9739
  310MOL0     H40889   8.977   9.332  10.941  0.5142 -0.6883  0.2979
  310MOL0     H40890   8.879   9.402  11.170 -0.6711  1.5558  1.1133
  310MOL0     H40891   8.771   9.502  11.081 -0.5799 -0.2660 -1.4640
  310MOL0     H40892   9.072   9.543  11.034 -0.0544  0.5384 -0.9893
  310MOL0     H40893   8.925   9.635  10.987  1.1345 -0.7394 -0.2530
  310MOL0     H40894   9.039   9.592  11.272 -1.6825 -0.7944  1.2226
  310MOL0     H40895   8.888   9.683  11.243  0.8518  1.1461  1.1046
  310MOL0     H40896   9.087   9.827  11.278  5.8613 -1.3891 -0.4490
  310MOL0     H40897   9.009   9.860  11.122  1.4014  1.1638 -0.8063
  310MOL0     H40898   9.180   9.742  11.016  2.0564  0.3327 -0.6105
  310MOL0     H40899   9.238   9.869  11.129 -0.8230  0.6978  1.6559
  310MOL0     H40900   9.383   9.673  11.138  0.6387  2.3001 -0.1173
  310MOL0     H40901   9.243   9.566  11.166 -3.0553  0.8025  0.6355
  310MOL0     H40902   8.778   8.941  10.929 -0.3626  0.6191 -1.3321
  310MOL0     H40903   8.603   8.776  10.864 -2.0510 -0.5672 -0.0999
  310MOL0     H40904   8.049   8.836  10.518  0.7741 -0.6575 -1.2721
  310MOL0     H40905   7.935   8.635  10.406 -1.2847 -3.2612  2.1170
  310MOL0     H40906   9.048   7.804   9.617  0.1623 -1.7577 -0.5041
  310MOL0     H40907   9.182   7.621   9.481 -1.3182  2.5319 -1.5013
  310MOL0     H40908   9.401   7.461   9.097 -0.7005 -4.3466 -1.5182
  310MOL0     H40909   9.549   7.301   9.012 -1.8623  2.3186 -0.8824
  310MOL0     H40910   9.931   7.064   9.140  1.8670  1.0080 -2.1188
  310MOL0     H40911   9.920   7.168   9.278  0.8846 -2.8000  0.4251
  310MOL0     H40912   9.979   7.261   8.994  1.9572 -0.0925 -0.8166
  310MOL0     H40913   9.998   7.361   9.134  1.3096 -0.6984  0.4955
  310MOL0     H40914  10.174   7.160   9.203 -3.1374 -0.1285  1.2222
  310MOL0     H40915  10.212   7.305   9.105  0.1694 -0.0158 -2.1558
  310MOL0     H40916  10.104   7.058   8.973 -0.9951  0.6906 -1.6005
  310MOL0     H40917  10.219   7.179   8.907  0.0592  0.4402  2.2735
  310MOL0     H40918  10.504   6.947   9.086  1.9646  3.1788  1.9251
  310MOL0     H40919   9.787   7.310   9.370  1.3554 -0.0984 -1.9355
  310MOL0     H40920   9.638   7.484   9.457 -1.2615  1.8471 -0.1034
  311MOL0     O40921   9.253   3.408   2.939 -0.0194  0.2035 -0.4050
  311MOL0     C40922   9.333   3.321   2.939 -0.6753  0.4394  0.1985
  311MOL0     O40923   9.311   3.180   2.918  0.0230 -0.9915 -0.5198
  311MOL0     C40924   9.191   3.121   2.894 -0.1832  0.2142  0.3152
  311MOL0     C40925   9.088   3.177   2.819  0.1974 -0.1372 -0.2566
  311MOL0     C40926   8.976   3.102   2.780 -0.0491 -0.8453 -0.1261
  311MOL0     C40927   8.952   2.975   2.840 -0.0530  0.0741  0.9187
  311MOL0     O40928   8.833   2.910   2.824  0.4447 -0.2130 -0.5605
  311MOL0     C40929   8.735   2.950   2.727  0.0026 -0.0984 -0.6180
  311MOL0     C40930   8.687   2.828   2.655  0.0186  0.1843 -0.5632
  311MOL0     C40931   8.557   2.859   2.578 -0.1885  0.8403 -0.4279
  311MOL0     C40932   8.577   2.962   2.469 -0.1227  0.1054 -0.5413
  311MOL0     C40933   8.481   2.934   2.348 -0.2591 -0.2526 -0.8277
  311MOL0     C40934   8.341   2.961   2.379 -0.1818  0.1116 -0.0632
  311MOL0     C40935   8.254   2.971   2.257  0.4607 -0.6806  0.5622
  311MOL0     C40936   8.240   3.112   2.199  0.5465 -0.0199  0.1776
  311MOL0     N40937   8.363   3.166   2.131  0.0053  0.1283  0.4829
  311MOL0     C40938   8.467   3.228   2.198  0.4574  0.7002 -0.1998
  311MOL0     C40939   8.550   3.273   2.105 -0.3526  0.4422 -0.3949
  311MOL0     C40940   8.678   3.351   2.120  0.7585 -0.6020 -0.8491
  311MOL0     C40941   8.809   3.281   2.179 -0.1093 -0.8495  0.2372
  311MOL0     C40942   8.770   3.159   2.277  0.0634 -0.1708  0.2967
  311MOL0     C40943   8.905   3.106   2.336  0.5829  0.0809  0.3285
  311MOL0     O40944   8.939   3.195   2.441 -0.3379 -0.4475 -0.1216
  311MOL0     C40945   9.071   3.205   2.467 -0.2096 -0.1849  0.0586
  311MOL0     C40946   9.136   3.328   2.473 -0.0916 -0.4459  0.7516
  311MOL0     C40947   9.273   3.342   2.488 -0.4706  0.0393 -0.0963
  311MOL0     C40948   9.355   3.231   2.507 -0.1844 -0.6361  0.6985
  311MOL0     C40949   9.494   3.239   2.538 -0.6980 -0.2673 -0.3049
  311MOL0     O40950   9.551   3.358   2.539 -0.0971  0.2347 -0.5772
  311MOL0     C40951   9.693   3.370   2.552  0.1982 -1.1193  0.2984
  311MOL0     C40952   9.757   3.437   2.444  0.0135  0.7049  0.5941
  311MOL0     C40953   9.893   3.465   2.449 -0.9929  0.2902  0.0525
  311MOL0     C40954   9.969   3.411   2.555  0.0270 -0.4284  0.1877
  311MOL0     O40955  10.096   3.459   2.566 -0.5443 -0.0479  0.9585
  311MOL0     C40956  10.197   3.370   2.620  0.2969  0.6157  0.2353
  311MOL0     C40957  10.331   3.387   2.564 -0.4173 -0.0472  0.3643
  311MOL0     C40958  10.410   3.501   2.633  0.2360 -0.3071  0.0455
  311MOL0     C40959  10.555   3.517   2.578  0.1726  1.2513  0.2322
  311MOL0     C40960  10.616   3.653   2.604 -0.1061 -0.1080 -0.3928
  311MOL0     C40961  10.687   3.664   2.729  0.1292 -0.5670 -0.5728
  311MOL0     C40962  10.687   3.803   2.791 -0.2805 -1.0434  0.3781
  311MOL0     C40963  10.781   3.906   2.721 -0.9557  0.3261  0.5650
  311MOL0    Cl40964  10.965   3.866   2.708 -0.1081  0.6796  0.4780
  311MOL0     C40965   9.907   3.344   2.659 -0.0772  0.0132 -0.1631
  311MOL0     C40966   9.768   3.334   2.662 -0.6483  0.2093 -0.4321
  311MOL0     O40967   9.563   3.136   2.549  0.7332 -0.6487  0.0635
  311MOL0     C40968   9.289   3.112   2.511  0.2971 -0.7559  0.2750
  311MOL0     C40969   9.155   3.100   2.487  0.8128  0.4805  0.7114
  311MOL0     N40970   8.501   3.243   1.982 -0.0311  0.1081  0.2463
  311MOL0     N40971   8.389   3.183   2.001  0.4818 -0.5339  0.0929
  311MOL0     C40972   9.055   2.923   2.919 -0.3259 -0.2323  0.7617
  311MOL0     C40973   9.175   2.992   2.941 -0.0566 -0.1982  0.4399
  311MOL0     C40974   9.470   3.383   2.950 -0.0393  0.4524  0.2212
  311MOL0     C40975   9.574   3.310   3.010 -0.2904  0.7772  0.3237
  311MOL0     C40976   9.702   3.362   3.025 -0.1209  0.2676  0.0393
  311MOL0     C40977   9.732   3.486   2.973  0.4074 -0.7044  0.5745
  311MOL0     O40978   9.867   3.524   2.971 -0.3205  0.3112 -0.3216
  311MOL0     C40979   9.913   3.650   2.921  0.3057 -0.8324 -0.1998
  311MOL0     C40980  10.066   3.667   2.954 -0.1860  0.8797  0.3455
  311MOL0     C40981  10.123   3.812   2.923 -0.0017 -0.1058  0.4127
  311MOL0     C40982  10.269   3.811   2.890 -0.7792 -0.5624 -0.4598
  311MOL0     C40983  10.334   3.941   2.929 -0.7175  0.3491 -0.1410
  311MOL0     C40984  10.386   4.051   2.957  0.2088  0.4219  0.2128
  311MOL0     C40985   9.628   3.566   2.916 -0.6510  0.1157 -1.3390
  311MOL0     C40986   9.496   3.512   2.900  1.1036 -0.2651 -0.7244
  311MOL0     H40987   9.106   3.275   2.777  0.7625  0.4246  1.2185
  311MOL0     H40988   8.906   3.150   2.712  3.0507  2.3103 -1.3498
  311MOL0     H40989   8.777   3.011   2.646  5.5954 -1.0497  1.0836
  311MOL0     H40990   8.645   2.991   2.771  1.3712  0.8919  1.4045
  311MOL0     H40991   8.687   2.745   2.726  0.2821 -0.2654 -1.0852
  311MOL0     H40992   8.766   2.807   2.582  2.4111  0.8115  1.6769
  311MOL0     H40993   8.475   2.880   2.647  0.6288  0.3160  0.7229
  311MOL0     H40994   8.526   2.769   2.524  0.9766 -0.6352  1.2720
  311MOL0     H40995   8.573   3.061   2.515  1.1233 -0.1251  0.1011
  311MOL0     H40996   8.678   2.952   2.427  0.7300  2.5539  0.7062
  311MOL0     H40997   8.489   2.830   2.315  0.5566 -0.5673  0.2994
  311MOL0     H40998   8.520   2.992   2.264  0.4426 -0.0514 -0.3772
  311MOL0     H40999   8.339   3.055   2.436 -1.0663  0.9255 -1.4023
  311MOL0     H41000   8.296   2.880   2.437  0.2877  0.8812  1.4525
  311MOL0     H41001   8.291   2.907   2.176  0.7366  1.7644 -1.3667
  311MOL0     H41002   8.150   2.952   2.283  0.2192  1.5956  1.4597
  311MOL0     H41003   8.208   3.181   2.278 -0.4147  1.3335 -1.3289
  311MOL0     H41004   8.158   3.111   2.126  0.0444 -2.5527  0.6835
  311MOL0     H41005   8.469   3.235   2.307  3.0321 -3.0371  0.1719
  311MOL0     H41006   8.651   3.423   2.198  2.7413 -1.8625  1.1319
  311MOL0     H41007   8.704   3.407   2.030  1.2260 -1.8953 -1.5421
  311MOL0     H41008   8.882   3.353   2.218 -0.4229  0.4401 -1.4056
  311MOL0     H41009   8.862   3.247   2.089 -0.0847 -0.7492  0.2127
  311MOL0     H41010   8.691   3.188   2.347 -1.9020 -1.3580 -1.3141
  311MOL0     H41011   8.714   3.082   2.223 -0.7480  2.2827 -2.6236
  311MOL0     H41012   8.974   3.120   2.253 -1.6419  1.7912 -1.3571
  311MOL0     H41013   8.897   3.001   2.365  1.3068  0.7172  3.1442
  311MOL0     H41014   9.077   3.415   2.446  1.5618  0.6674  0.5424
  311MOL0     H41015   9.321   3.440   2.482  1.9994 -0.6989  3.8528
  311MOL0     H41016   9.706   3.471   2.354  1.4179  3.3041  0.6794
  311MOL0     H41017   9.940   3.528   2.375  2.5438 -0.9622  1.0105
  311MOL0     H41018  10.165   3.268   2.597  1.9292  0.1119  0.0179
  311MOL0     H41019  10.202   3.380   2.728 -0.2813  2.8237  0.1026
  311MOL0     H41020  10.323   3.386   2.455 -3.0533 -2.4777  0.4720
  311MOL0     H41021  10.383   3.292   2.579 -0.6208 -0.3989 -1.0242
  311MOL0     H41022  10.408   3.484   2.741  0.3371  0.7632  0.2276
  311MOL0     H41023  10.363   3.596   2.607  1.1340  0.1548  0.0760
  311MOL0     H41024  10.620   3.439   2.618 -0.6858  0.3611 -0.0543
  311MOL0     H41025  10.559   3.508   2.469  4.4268  0.9874  0.2753
  311MOL0     H41026  10.544   3.735   2.594 -2.2841 -1.7617  0.9941
  311MOL0     H41027  10.678   3.677   2.517 -1.0353  1.0517 -0.7732
  311MOL0     H41028  10.792   3.638   2.710 -0.0165 -0.3144 -1.8409
  311MOL0     H41029  10.633   3.606   2.805  0.7299 -0.5125 -0.0969
  311MOL0     H41030  10.586   3.843   2.775  0.3411  0.1009 -0.9300
  311MOL0     H41031  10.707   3.799   2.898  0.2883 -3.3295  0.2240
  311MOL0     H41032  10.774   4.002   2.774  0.9381  0.9134 -0.1532
  311MOL0     H41033  10.751   3.915   2.616  1.3998  4.4678  0.0040
  311MOL0     H41034   9.971   3.299   2.734 -0.3314 -1.1241 -0.6116
  311MOL0     H41035   9.726   3.289   2.751 -3.5397  1.8740 -0.8429
  311MOL0     H41036   9.347   3.021   2.527  1.9641  0.1831 -0.2549
  311MOL0     H41037   9.116   2.999   2.477 -0.3151  0.9538  0.1804
  311MOL0     H41038   9.035   2.827   2.967 -0.4128 -0.9303 -0.6220
  311MOL0     H41039   9.253   2.943   2.999  2.1914  2.4470 -0.1030
  311MOL0     H41040   9.575   3.206   3.041  3.9333  0.7779  0.7807
  311MOL0     H41041   9.786   3.305   3.062 -0.6480  0.3586  1.4171
  311MOL0     H41042   9.863   3.735   2.969 -0.5517 -1.3565 -0.1518
  311MOL0     H41043   9.910   3.675   2.815 -1.8247  2.0549  0.3880
  311MOL0     H41044  10.070   3.636   3.059 -0.2415 -4.3397 -0.9248
  311MOL0     H41045  10.119   3.587   2.903 -2.1131 -0.7834  0.8339
  311MOL0     H41046  10.098   3.871   3.012 -2.2438 -2.4543  1.4607
  311MOL0     H41047  10.076   3.853   2.834  2.1698 -1.8251 -1.6451
  311MOL0     H41048  10.308   3.726   2.946  0.8958  0.0378 -0.6300
  311MOL0     H41049  10.288   3.780   2.787  0.8453 -0.0515 -0.3508
  311MOL0     H41050  10.421   4.152   2.972 -0.3923  0.6593  0.0719
  311MOL0     H41051   9.661   3.655   2.863  0.0927  0.0062 -1.0744
  311MOL0     H41052   9.421   3.583   2.865  0.7747 -1.9248 -3.6776
  312MOL0     O41053   6.017   0.403   3.176 -0.0434  0.2433 -0.8487
  312MOL0     C41054   5.912   0.467   3.197 -0.9334  0.0884 -0.9670
  312MOL0     O41055   5.828   0.442   3.300  0.6168 -0.5492 -0.5323
  312MOL0     C41056   5.852   0.351   3.402  0.1507 -0.4397 -0.8562
  312MOL0     C41057   5.976   0.347   3.470 -0.2745  0.5196  0.1186
  312MOL0     C41058   5.992   0.277   3.591 -0.2867 -0.2596  0.7897
  312MOL0     C41059   5.893   0.200   3.650 -0.1315  0.1585 -0.2656
  312MOL0     O41060   5.895   0.135   3.769 -0.0004  0.5518  0.4769
  312MOL0     C41061   6.007   0.149   3.850 -0.1201 -0.6172  0.0033
  312MOL0     C41062   5.995   0.064   3.974  0.1019  0.0750 -0.0416
  312MOL0     C41063   6.037  -0.078   3.943 -0.4780  0.5486 -0.5363
  312MOL0     C41064   6.190  -0.097   3.958  0.2694  0.5913 -0.2487
  312MOL0     C41065   6.237  -0.233   3.931  0.5547 -0.4139 -0.0161
  312MOL0     C41066   6.206  -0.265   3.780  0.1206 -0.1894 -0.0567
  312MOL0     C41067   6.294  -0.379   3.733 -0.4147  0.2965 -0.1937
  312MOL0     C41068   6.225  -0.513   3.767  0.3386 -0.4771 -1.1236
  312MOL0     N41069   6.303  -0.639   3.756  0.2279 -0.8057  0.2308
  312MOL0     C41070   6.258  -0.754   3.817 -0.1047 -0.1803 -0.4706
  312MOL0     C41071   6.325  -0.854   3.751  0.6605 -0.0645 -0.8208
  312MOL0     C41072   6.313  -1.002   3.771 -0.9292  0.2529 -0.0902
  312MOL0     C41073   6.167  -1.060   3.778 -0.0237 -0.6409  0.1153
  312MOL0     C41074   6.164  -1.201   3.822 -0.7716  0.0196 -0.5293
  312MOL0     C41075   6.028  -1.226   3.892 -1.3053 -1.0764  0.0167
  312MOL0     O41076   5.923  -1.221   3.795 -0.4713  0.3858 -0.0122
  312MOL0     C41077   5.788  -1.238   3.830 -0.9189 -0.1565 -0.3029
  312MOL0     C41078   5.700  -1.221   3.727  0.7420  0.7146  0.6647
  312MOL0     C41079   5.561  -1.230   3.755  0.5911 -0.1329  0.3416
  312MOL0     C41080   5.517  -1.252   3.887 -0.6867 -0.5559 -0.0406
  312MOL0     C41081   5.371  -1.259   3.917  0.6643 -0.8877 -0.7732
  312MOL0     O41082   5.335  -1.295   4.043  0.1307  0.0963  0.8760
  312MOL0     C41083   5.202  -1.283   4.073  0.1361  1.5536 -0.7427
  312MOL0     C41084   5.139  -1.160   4.104 -0.9730 -0.4440  0.3903
  312MOL0     C41085   5.003  -1.158   4.133 -0.0674  0.1754  0.0775
  312MOL0     C41086   4.924  -1.276   4.129  0.8515  0.8045 -0.2957
  312MOL0     O41087   4.786  -1.265   4.146 -0.1701  0.0143 -0.0052
  312MOL0     C41088   4.704  -1.380   4.097 -0.0658  0.7719 -0.3493
  312MOL0     C41089   4.549  -1.359   4.094  0.3094  0.2237  0.8563
  312MOL0     C41090   4.498  -1.240   4.012 -0.1218 -0.1678 -0.0303
  312MOL0     C41091   4.355  -1.237   3.983  0.5100 -0.3107  0.9542
  312MOL0     C41092   4.309  -1.093   3.942 -0.1563 -0.6476  0.0991
  312MOL0     C41093   4.388  -1.022   3.835  0.7159  0.1009  0.1662
  312MOL0     C41094   4.338  -0.883   3.809 -0.4254 -1.2584  0.1154
  312MOL0     C41095   4.446  -0.783   3.769  1.0497  0.0994  0.5157
  312MOL0    Cl41096   4.516  -0.708   3.912  0.1728  0.0689 -0.5945
  312MOL0     C41097   4.997  -1.399   4.111  0.5889 -0.4435  0.2254
  312MOL0     C41098   5.134  -1.408   4.082 -0.0668 -0.7616 -0.3503
  312MOL0     O41099   5.296  -1.241   3.824 -1.0291 -0.3408  0.0914
  312MOL0     C41100   5.616  -1.259   3.994 -0.2878 -0.6521 -0.4727
  312MOL0     C41101   5.749  -1.268   3.965 -0.2568  0.3381 -0.7179
  312MOL0     N41102   6.413  -0.791   3.666  0.5667  0.9012  0.4978
  312MOL0     N41103   6.405  -0.668   3.674 -0.2460  0.5438  0.3409
  312MOL0     C41104   5.778   0.197   3.579  0.4471  0.4348  0.6762
  312MOL0     C41105   5.747   0.281   3.468  0.8582 -0.0215  1.0155
  312MOL0     C41106   5.880   0.577   3.100  0.1089 -0.2036  0.1554
  312MOL0     C41107   5.963   0.593   2.989 -0.2808 -0.2719 -0.4163
  312MOL0     C41108   5.951   0.709   2.917  0.4989 -0.8366 -0.7716
  312MOL0     C41109   5.835   0.790   2.931 -0.4544  0.4111 -0.2553
  312MOL0     O41110   5.822   0.899   2.840 -0.4328  0.5463  0.4967
  312MOL0     C41111   5.697   0.927   2.774 -0.4059  0.0999  0.7340
  312MOL0     C41112   5.645   0.793   2.712 -0.7067 -0.1877  0.1117
  312MOL0     C41113   5.748   0.714   2.626 -0.2298 -0.4518 -0.6233
  312MOL0     C41114   5.681   0.619   2.523 -0.8671 -0.0707 -0.0188
  312MOL0     C41115   5.634   0.694   2.405  1.3784 -0.7352 -1.0038
  312MOL0     C41116   5.613   0.766   2.309  0.0608  0.4328  0.9402
  312MOL0     C41117   5.749   0.775   3.031 -0.0020 -0.3541 -0.4269
  312MOL0     C41118   5.769   0.665   3.119 -0.3765  0.5447 -0.2226
  312MOL0     H41119   6.060   0.404   3.433 -2.0078  2.6299 -0.8298
  312MOL0     H41120   6.090   0.266   3.636  0.8125 -2.1978 -1.8156
  312MOL0     H41121   6.003   0.252   3.888  1.1157 -0.2951 -0.6735
  312MOL0     H41122   6.102   0.130   3.799  0.1560 -0.7056  0.5305
  312MOL0     H41123   5.894   0.068   4.015 -0.2033  0.6137 -0.8042
  312MOL0     H41124   6.064   0.105   4.048  2.1031 -0.4917 -1.4713
  312MOL0     H41125   6.003  -0.108   3.844 -0.8251 -1.1539  0.0627
  312MOL0     H41126   6.002  -0.145   4.022  3.6537  1.2562  2.1898
  312MOL0     H41127   6.236  -0.031   3.884  1.3350 -0.5677 -0.6550
  312MOL0     H41128   6.216  -0.072   4.061  1.5373 -2.0018  0.1475
  312MOL0     H41129   6.173  -0.294   3.995 -1.5202 -1.6846 -3.0811
  312MOL0     H41130   6.343  -0.243   3.956  0.1444 -3.0572  0.9615
  312MOL0     H41131   6.220  -0.175   3.720 -1.8454  0.4402  0.3590
  312MOL0     H41132   6.099  -0.280   3.762 -0.3434  2.5918 -0.0646
  312MOL0     H41133   6.314  -0.371   3.626  3.2162 -2.1953  0.1077
  312MOL0     H41134   6.391  -0.369   3.782 -0.0025  2.7734 -1.3861
  312MOL0     H41135   6.142  -0.524   3.697  0.1550 -0.6124 -0.8847
  312MOL0     H41136   6.182  -0.511   3.867  0.2568  0.3323 -1.1704
  312MOL0     H41137   6.179  -0.752   3.892  0.5207  2.5389  0.2421
  312MOL0     H41138   6.372  -1.027   3.861  1.8697 -0.9781 -2.1071
  312MOL0     H41139   6.356  -1.051   3.683 -0.7845  3.5194 -1.9893
  312MOL0     H41140   6.114  -1.044   3.684  0.2678  0.7701  0.1712
  312MOL0     H41141   6.125  -0.989   3.850 -1.0312 -2.0581  0.9734
  312MOL0     H41142   6.174  -1.261   3.731  3.9655 -1.1401  0.4420
  312MOL0     H41143   6.249  -1.240   3.880  0.7519 -1.8674 -3.7359
  312MOL0     H41144   6.010  -1.157   3.975  2.4823  0.8833 -0.5835
  312MOL0     H41145   6.027  -1.328   3.933 -0.3652 -0.6889  1.0826
  312MOL0     H41146   5.744  -1.189   3.633  1.6327 -0.7153  0.5679
  312MOL0     H41147   5.499  -1.201   3.670  3.5761  1.7303 -1.3495
  312MOL0     H41148   5.203  -1.075   4.085  1.4599 -2.1839  0.3539
  312MOL0     H41149   4.961  -1.059   4.145  2.0393  1.3156 -1.2076
  312MOL0     H41150   4.714  -1.458   4.174 -0.8850  1.2511  0.2565
  312MOL0     H41151   4.747  -1.418   4.004 -1.3990 -3.3554  0.5224
  312MOL0     H41152   4.499  -1.355   4.191 -0.0174  1.3967  0.6496
  312MOL0     H41153   4.511  -1.453   4.052  2.2702 -2.2370  4.0675
  312MOL0     H41154   4.550  -1.228   3.917 -0.5561  3.3523  0.0394
  312MOL0     H41155   4.519  -1.147   4.067 -0.3055  1.3914 -2.4309
  312MOL0     H41156   4.314  -1.302   3.906 -2.8673 -0.4107  2.6681
  312MOL0     H41157   4.302  -1.263   4.075  0.4971 -1.0463  0.7406
  312MOL0     H41158   4.311  -1.028   4.030  0.1864  0.1825 -0.5035
  312MOL0     H41159   4.211  -1.109   3.897 -1.1692  1.0299  1.5671
  312MOL0     H41160   4.399  -1.068   3.736  0.7168  0.8349 -0.1790
  312MOL0     H41161   4.492  -1.004   3.864  1.6188 -2.5939 -1.0077
  312MOL0     H41162   4.264  -0.887   3.728 -0.0818 -2.0589 -0.1703
  312MOL0     H41163   4.276  -0.844   3.891 -0.8231  0.8517 -1.1188
  312MOL0     H41164   4.400  -0.695   3.724  0.3304 -1.0410 -1.0708
  312MOL0     H41165   4.516  -0.830   3.699  0.8768  0.2892  0.2130
  312MOL0     H41166   4.948  -1.494   4.125 -2.3046  1.1240  1.5870
  312MOL0     H41167   5.182  -1.504   4.063  1.4784  0.2225 -1.7158
  312MOL0     H41168   5.574  -1.267   4.094 -0.3509 -0.6330 -0.4971
  312MOL0     H41169   5.834  -1.283   4.031  1.4406 -0.0285 -2.8637
  312MOL0     H41170   5.694   0.139   3.615  0.5962 -0.7814 -0.8202
  312MOL0     H41171   5.641   0.282   3.445  1.4247  1.7696 -1.9728
  312MOL0     H41172   6.047   0.527   2.972  2.2147  2.7509 -0.7311
  312MOL0     H41173   6.016   0.732   2.834  3.6365  0.6687  1.8733
  312MOL0     H41174   5.703   0.999   2.692  1.2895 -2.3168 -1.4133
  312MOL0     H41175   5.630   0.958   2.855 -2.0162 -1.4453  0.0522
  312MOL0     H41176   5.608   0.738   2.799 -2.2461  1.4071  0.5240
  312MOL0     H41177   5.562   0.814   2.644 -0.1864 -0.0268 -0.4805
  312MOL0     H41178   5.814   0.652   2.688  0.9921  0.6072 -0.8251
  312MOL0     H41179   5.817   0.782   2.577  2.8528  0.4072  4.2232
  312MOL0     H41180   5.766   0.554   2.498  0.9114  1.0740  2.5635
  312MOL0     H41181   5.601   0.563   2.572 -1.6474  2.4151  1.7186
  312MOL0     H41182   5.599   0.838   2.231 -0.6705  0.4697  1.0978
  312MOL0     H41183   5.667   0.845   3.047  2.1091  2.5913 -1.7224
  312MOL0     H41184   5.705   0.646   3.204  1.2574  0.0733  0.9359
  313MOL0     O41185   0.204   8.162   6.954 -1.1522  0.0833 -0.6821
  313MOL0     C41186   0.224   8.271   7.012  0.1388 -0.6425  1.1275
  313MOL0     O41187   0.127   8.349   7.075 -0.8458 -0.5935  0.3645
  313MOL0     C41188  -0.005   8.307   7.061 -0.4483  1.8393  0.3410
  313MOL0     C41189  -0.083   8.298   7.170 -0.3977 -0.0009  0.6987
  313MOL0     C41190  -0.217   8.260   7.159  0.0944 -0.9960  0.1416
  313MOL0     C41191  -0.271   8.225   7.035 -0.8151 -0.6132 -0.4648
  313MOL0     O41192  -0.399   8.191   7.028  0.4721  0.3342 -0.4910
  313MOL0     C41193  -0.431   8.073   6.965  0.5674 -0.9378  0.1091
  313MOL0     C41194  -0.580   8.043   6.959 -0.0203  0.1280  0.3480
  313MOL0     C41195  -0.658   8.168   6.909 -0.8816  0.2347 -0.4537
  313MOL0     C41196  -0.802   8.146   6.894 -0.0185 -0.4506  0.0061
  313MOL0     C41197  -0.886   8.276   6.856 -0.3991 -0.1150 -0.1007
  313MOL0     C41198  -1.034   8.248   6.891  1.0585  0.6547  0.0700
  313MOL0     C41199  -1.133   8.337   6.820  0.0076  0.7322 -1.0506
  313MOL0     C41200  -1.275   8.306   6.874 -0.1437  0.2012 -0.4080
  313MOL0     N41201  -1.381   8.368   6.793  0.0316 -0.0311 -0.0584
  313MOL0     C41202  -1.369   8.503   6.756  0.1748  0.1181 -0.0777
  313MOL0     C41203  -1.450   8.525   6.651 -0.1625 -0.9176  0.1585
  313MOL0     C41204  -1.497   8.652   6.578  0.7317  0.0893 -0.1261
  313MOL0     C41205  -1.647   8.694   6.596 -0.4624  0.1226 -0.2644
  313MOL0     C41206  -1.692   8.798   6.489 -0.1664  0.2353  0.0899
  313MOL0     C41207  -1.824   8.856   6.521 -0.8351  0.2551  0.1149
  313MOL0     O41208  -1.848   8.976   6.454 -0.0616  0.1097  0.6362
  313MOL0     C41209  -1.975   9.025   6.479 -0.4170  0.3346  0.4269
  313MOL0     C41210  -2.086   8.957   6.535 -0.5036 -0.0105  0.1500
  313MOL0     C41211  -2.203   9.016   6.545 -0.3280 -0.3776 -0.4245
  313MOL0     C41212  -2.217   9.138   6.477  0.3274 -0.2870 -0.4993
  313MOL0     C41213  -2.344   9.199   6.489  1.0213 -0.2765  0.2920
  313MOL0     O41214  -2.430   9.167   6.592  0.0874  0.2682 -0.3134
  313MOL0     C41215  -2.548   9.239   6.593  0.1159 -0.3596  0.2178
  313MOL0     C41216  -2.558   9.351   6.670  0.2212  0.2404 -0.2962
  313MOL0     C41217  -2.676   9.428   6.663  0.4016 -0.6043  0.0014
  313MOL0     C41218  -2.787   9.387   6.581  0.3902 -0.2681 -0.0376
  313MOL0     O41219  -2.902   9.463   6.582  0.1661  0.2033  0.5597
  313MOL0     C41220  -2.961   9.481   6.450  0.2605 -0.0861 -0.3683
  313MOL0     C41221  -3.082   9.568   6.462  1.0480 -0.2238 -0.2605
  313MOL0     C41222  -3.154   9.579   6.328 -0.4788  1.0214  0.3183
  313MOL0     C41223  -3.248   9.694   6.329  0.9995 -0.4759  0.1110
  313MOL0     C41224  -3.333   9.711   6.200 -0.2290 -0.9605  0.2496
  313MOL0     C41225  -3.449   9.609   6.198 -0.0815  0.1921 -0.8466
  313MOL0     C41226  -3.505   9.595   6.063  0.7313  0.6896  0.6372
  313MOL0     C41227  -3.407   9.524   5.961  0.6325  0.4333  0.5418
  313MOL0    Cl41228  -3.478   9.474   5.799 -0.4039  0.1319  0.4142
  313MOL0     C41229  -2.772   9.268   6.500 -0.4921  0.4381 -0.5255
  313MOL0     C41230  -2.653   9.196   6.514  0.0373 -0.3698  1.2046
  313MOL0     O41231  -2.365   9.282   6.402 -0.2048 -0.6761 -0.2872
  313MOL0     C41232  -2.109   9.205   6.418  0.0143 -1.0303 -0.1543
  313MOL0     C41233  -1.987   9.148   6.416 -0.4305  0.5179  0.0027
  313MOL0     N41234  -1.506   8.398   6.627  0.5304 -0.3271 -0.1452
  313MOL0     N41235  -1.478   8.311   6.715 -0.2412 -0.4018 -0.5892
  313MOL0     C41236  -0.189   8.230   6.919 -0.9934  0.4862 -0.8262
  313MOL0     C41237  -0.055   8.273   6.939 -0.3944 -0.3718  1.1250
  313MOL0     C41238   0.362   8.322   7.011 -0.3311  0.1623  0.3742
  313MOL0     C41239   0.387   8.456   7.054 -0.1966  0.0697  0.8139
  313MOL0     C41240   0.516   8.503   7.056 -0.0327  0.0334  0.5382
  313MOL0     C41241   0.615   8.433   6.988  1.1141 -0.2477  0.0040
  313MOL0     O41242   0.736   8.495   6.986 -0.2941 -0.4769  0.3056
  313MOL0     C41243   0.784   8.551   6.855  0.2644  0.2291  0.2317
  313MOL0     C41244   0.943   8.561   6.855  0.4047  0.1879  0.2179
  313MOL0     C41245   1.009   8.424   6.880 -0.4529  0.3195  0.4554
  313MOL0     C41246   1.154   8.447   6.884 -0.3581  0.4531  0.3913
  313MOL0     C41247   1.225   8.373   6.986 -0.6532 -0.9999  0.0130
  313MOL0     C41248   1.285   8.299   7.059  0.5056 -0.6145 -0.3177
  313MOL0     C41249   0.594   8.300   6.933  0.5492  0.0320 -0.4492
  313MOL0     C41250   0.466   8.253   6.947 -0.8007 -0.1875 -0.1204
  313MOL0     H41251  -0.044   8.306   7.271 -1.2185  1.7299  0.9180
  313MOL0     H41252  -0.293   8.268   7.236 -0.5730 -0.1712 -0.5761
  313MOL0     H41253  -0.367   8.001   7.016  1.6841  0.6879  1.0961
  313MOL0     H41254  -0.403   8.082   6.859  2.2501  2.3612  0.7078
  313MOL0     H41255  -0.613   8.029   7.063 -0.9594  0.9827  0.1847
  313MOL0     H41256  -0.598   7.957   6.895 -0.5434  0.0362  0.6148
  313MOL0     H41257  -0.612   8.187   6.811  1.1842 -0.1223  0.3976
  313MOL0     H41258  -0.643   8.256   6.972  0.8328 -0.0285 -0.4544
  313MOL0     H41259  -0.811   8.064   6.821  0.6765  0.5698 -1.2769
  313MOL0     H41260  -0.835   8.118   6.994 -1.1564  1.4463  0.2100
  313MOL0     H41261  -0.870   8.287   6.748  1.7335  0.7870  0.2453
  313MOL0     H41262  -0.853   8.364   6.911 -0.1922 -0.4295  0.2827
  313MOL0     H41263  -1.053   8.252   6.999  1.2207 -0.8108  0.1709
  313MOL0     H41264  -1.079   8.151   6.871  1.8586  0.1651  0.6228
  313MOL0     H41265  -1.106   8.441   6.839  1.3981 -0.1616  3.0049
  313MOL0     H41266  -1.131   8.323   6.712  0.8353  2.3432 -1.2738
  313MOL0     H41267  -1.285   8.332   6.980  0.5425 -2.4151  0.3844
  313MOL0     H41268  -1.282   8.196   6.879  2.4835  0.0226  0.5289
  313MOL0     H41269  -1.320   8.581   6.814  0.5444 -1.8574  2.4519
  313MOL0     H41270  -1.469   8.657   6.472  0.1644  0.8048 -0.2475
  313MOL0     H41271  -1.452   8.737   6.630  0.0230 -0.3866  1.3323
  313MOL0     H41272  -1.662   8.726   6.699 -0.6498 -1.8556  0.3733
  313MOL0     H41273  -1.711   8.607   6.578 -1.3992  0.2696  2.0047
  313MOL0     H41274  -1.622   8.882   6.483  1.0362 -0.7660 -0.4143
  313MOL0     H41275  -1.700   8.753   6.389  0.2624  2.2416 -0.9129
  313MOL0     H41276  -1.820   8.881   6.628  4.5469 -0.2735  0.2865
  313MOL0     H41277  -1.901   8.781   6.500  0.2895 -0.3323 -2.2014
  313MOL0     H41278  -2.071   8.860   6.582  2.6818 -1.4082 -3.2889
  313MOL0     H41279  -2.284   8.970   6.602 -0.1159  1.4199  1.4413
  313MOL0     H41280  -2.468   9.383   6.723  1.2161 -3.1365  0.2858
  313MOL0     H41281  -2.685   9.525   6.710  2.9699 -0.2986 -0.0111
  313MOL0     H41282  -2.996   9.381   6.419  0.3308 -0.8943  1.9388
  313MOL0     H41283  -2.891   9.531   6.383  1.4385  0.1608  1.0083
  313MOL0     H41284  -3.047   9.669   6.486 -0.3859  0.8963 -2.5516
  313MOL0     H41285  -3.154   9.534   6.537 -1.1023  0.2337 -2.0072
  313MOL0     H41286  -3.195   9.487   6.287 -0.3863  1.6784 -1.3156
  313MOL0     H41287  -3.068   9.600   6.263  1.7568 -2.6211  1.8244
  313MOL0     H41288  -3.316   9.684   6.414  1.3797 -3.7691  0.1520
  313MOL0     H41289  -3.189   9.783   6.351 -0.6073  0.5041  0.6053
  313MOL0     H41290  -3.267   9.679   6.118 -0.6962  0.4089 -0.7019
  313MOL0     H41291  -3.365   9.814   6.187  0.8581 -0.4247  1.6040
  313MOL0     H41292  -3.532   9.647   6.257 -1.4012 -0.7362 -2.0038
  313MOL0     H41293  -3.410   9.519   6.247  0.9756  1.1959  0.1934
  313MOL0     H41294  -3.595   9.532   6.066  0.3877  1.0552 -1.2197
  313MOL0     H41295  -3.541   9.690   6.024 -0.8545 -0.6030 -1.2658
  313MOL0     H41296  -3.371   9.433   6.011  0.2511 -0.4618 -0.7705
  313MOL0     H41297  -3.327   9.596   5.941  0.5843 -0.1336 -2.0040
  313MOL0     H41298  -2.851   9.220   6.443 -0.8335 -0.6562  0.8140
  313MOL0     H41299  -2.638   9.104   6.458 -1.7276  0.5390 -0.9070
  313MOL0     H41300  -2.129   9.305   6.380 -1.4510 -2.2753 -2.9995
  313MOL0     H41301  -1.891   9.190   6.386  0.6520 -0.9446  1.2686
  313MOL0     H41302  -0.219   8.198   6.819  2.3818 -0.9389 -1.5066
  313MOL0     H41303  -0.007   8.284   6.842 -1.1068  1.4963  0.9440
  313MOL0     H41304   0.309   8.524   7.088  2.0329  2.7714  0.9380
  313MOL0     H41305   0.549   8.599   7.094  1.4296  0.5171 -1.7826
  313MOL0     H41306   0.741   8.650   6.840 -1.6094 -0.6565 -0.6396
  313MOL0     H41307   0.756   8.489   6.769  2.3901  1.2696 -1.2761
  313MOL0     H41308   0.963   8.609   6.759  1.8290  0.3678  0.5894
  313MOL0     H41309   0.968   8.633   6.933  0.0594  0.8932 -0.3169
  313MOL0     H41310   0.981   8.364   6.793  0.9033 -1.8276  1.4255
  313MOL0     H41311   0.983   8.363   6.967  1.3103 -0.8152  0.2326
  313MOL0     H41312   1.187   8.399   6.791  0.1542  1.5041  0.0139
  313MOL0     H41313   1.185   8.552   6.876  0.9985  0.0595  0.3584
  313MOL0     H41314   1.359   8.260   7.126  2.2610  0.6274 -1.4423
  313MOL0     H41315   0.678   8.243   6.896  0.1345 -1.7369  1.1498
  313MOL0     H41316   0.448   8.151   6.915  0.6771 -0.4105 -0.2925
  314MOL0     O41317   0.647   4.451   9.159  0.2190  0.1797 -0.0168
  314MOL0     C41318   0.720   4.546   9.125 -0.8806 -0.0454 -0.2745
  314MOL0     O41319   0.680   4.640   9.035  0.4196  0.9705  0.4516
  314MOL0     C41320   0.574   4.614   8.952  0.1679 -0.1292  0.4030
  314MOL0     C41321   0.585   4.629   8.816  0.2425  0.2657 -0.0241
  314MOL0     C41322   0.474   4.602   8.726 -0.7712  0.1440 -0.8666
  314MOL0     C41323   0.359   4.554   8.781  0.1703  0.1664  0.4599
  314MOL0     O41324   0.247   4.535   8.703  0.1013  0.0596 -0.8337
  314MOL0     C41325   0.248   4.566   8.565 -0.2294  0.3601  0.1657
  314MOL0     C41326   0.116   4.516   8.498 -0.0396 -0.3551 -0.0942
  314MOL0     C41327  -0.018   4.574   8.545 -0.0343 -0.2598  0.2805
  314MOL0     C41328  -0.135   4.502   8.480  0.5123 -0.0445  0.7473
  314MOL0     C41329  -0.258   4.551   8.567  0.4987  0.9747 -0.0424
  314MOL0     C41330  -0.385   4.468   8.536 -0.0915 -0.0022 -0.1006
  314MOL0     C41331  -0.510   4.527   8.600  0.8675  0.1701  0.5961
  314MOL0     C41332  -0.641   4.493   8.526  0.4903 -0.7398 -0.1862
  314MOL0     N41333  -0.678   4.356   8.531 -0.2351  0.5374 -0.5388
  314MOL0     C41334  -0.791   4.302   8.463 -0.4306  0.1263  0.0593
  314MOL0     C41335  -0.823   4.185   8.526  0.0920 -0.3357 -0.5332
  314MOL0     C41336  -0.944   4.095   8.507  0.1185 -0.0864  0.3719
  314MOL0     C41337  -1.071   4.147   8.570  0.2768 -0.4194  0.5319
  314MOL0     C41338  -1.165   4.025   8.561  0.4072 -0.1220 -0.0153
  314MOL0     C41339  -1.303   4.044   8.620  0.5657 -0.6309  0.2692
  314MOL0     O41340  -1.353   4.175   8.562  0.0806  0.0814 -0.7219
  314MOL0     C41341  -1.489   4.208   8.576 -0.2390  0.1143  0.0543
  314MOL0     C41342  -1.585   4.146   8.661 -0.2410  0.3526 -0.7496
  314MOL0     C41343  -1.723   4.189   8.664 -0.4646  0.1602 -1.1534
  314MOL0     C41344  -1.760   4.304   8.587 -0.2778 -0.7931 -0.4092
  314MOL0     C41345  -1.904   4.357   8.593 -0.0459 -0.4924 -0.5816
  314MOL0     O41346  -1.942   4.456   8.503 -0.2377 -0.5148  0.5254
  314MOL0     C41347  -2.074   4.486   8.488  0.5794  0.2218 -0.7894
  314MOL0     C41348  -2.121   4.621   8.479  0.0809 -0.5445  0.7295
  314MOL0     C41349  -2.259   4.653   8.452  0.7230 -0.1978  0.1899
  314MOL0     C41350  -2.344   4.552   8.427 -0.5366 -0.8676 -0.3294
  314MOL0     O41351  -2.471   4.598   8.394 -1.0741 -0.3409 -0.2535
  314MOL0     C41352  -2.574   4.518   8.454  0.0999 -0.2648  0.5832
  314MOL0     C41353  -2.712   4.572   8.410 -0.2299 -0.5027  0.2653
  314MOL0     C41354  -2.828   4.499   8.480  0.2977  0.4910 -0.1714
  314MOL0     C41355  -2.821   4.490   8.629  0.6817 -0.6987  0.5840
  314MOL0     C41356  -2.954   4.437   8.691  0.0707 -0.1414 -0.3765
  314MOL0     C41357  -2.962   4.431   8.843  0.5275  0.0395 -0.4340
  314MOL0     C41358  -2.988   4.563   8.926 -0.3081  0.3350  1.5287
  314MOL0     C41359  -2.984   4.536   9.075  0.4060 -0.3381 -0.0209
  314MOL0    Cl41360  -2.823   4.511   9.147 -0.1335  0.3726 -0.3396
  314MOL0     C41361  -2.303   4.418   8.451 -0.2560  0.2345  0.0916
  314MOL0     C41362  -2.171   4.385   8.473 -1.0161 -0.6481  0.2294
  314MOL0     O41363  -1.978   4.314   8.677  0.0127 -0.3463  0.0442
  314MOL0     C41364  -1.658   4.371   8.514 -0.0569  0.2151 -0.6591
  314MOL0     C41365  -1.529   4.328   8.508 -1.3668 -0.0093  0.0354
  314MOL0     N41366  -0.730   4.164   8.619 -0.8232  0.5194 -0.5395
  314MOL0     N41367  -0.658   4.272   8.635 -0.0938  0.2762 -0.5206
  314MOL0     C41368   0.348   4.528   8.913  0.3703  0.6808 -0.3660
  314MOL0     C41369   0.445   4.564   9.001 -0.0767 -0.0636 -0.0846
  314MOL0     C41370   0.844   4.563   9.201  0.6150 -0.2446  0.6422
  314MOL0     C41371   0.918   4.674   9.161 -1.1281 -0.2040  0.5537
  314MOL0     C41372   1.038   4.704   9.236  0.1418 -0.5330  0.4367
  314MOL0     C41373   1.095   4.608   9.330  0.6248 -0.0034 -0.7245
  314MOL0     O41374   1.209   4.625   9.401 -0.0989 -0.0945  0.2233
  314MOL0     C41375   1.326   4.607   9.312  0.1872 -0.5417  0.7468
  314MOL0     C41376   1.345   4.468   9.264 -0.1874 -0.4182 -0.8383
  314MOL0     C41377   1.367   4.371   9.388 -0.3601 -0.4487  0.2999
  314MOL0     C41378   1.385   4.230   9.346  0.5358 -0.1300  0.3279
  314MOL0     C41379   1.255   4.171   9.302  0.6462 -1.1095 -1.3496
  314MOL0     C41380   1.144   4.148   9.262 -0.5282 -0.3158 -0.0013
  314MOL0     C41381   1.010   4.493   9.355 -0.0666 -0.1949  0.4197
  314MOL0     C41382   0.880   4.476   9.302 -0.2607  0.4832 -0.5958
  314MOL0     H41383   0.671   4.663   8.760 -0.2042  2.0321  0.2960
  314MOL0     H41384   0.496   4.620   8.621 -2.1646  0.0231 -1.1985
  314MOL0     H41385   0.340   4.535   8.515 -0.1391  0.3882  0.3129
  314MOL0     H41386   0.254   4.675   8.562  1.0042  0.3086  0.2339
  314MOL0     H41387   0.115   4.407   8.509 -0.3550 -0.2809  0.7283
  314MOL0     H41388   0.127   4.534   8.391  0.7662  1.8170  0.3088
  314MOL0     H41389  -0.018   4.681   8.527  0.3644 -0.3540 -0.2994
  314MOL0     H41390  -0.015   4.564   8.654  0.7555 -0.4962  0.2427
  314MOL0     H41391  -0.146   4.518   8.372 -1.4229 -2.2931  0.5030
  314MOL0     H41392  -0.133   4.392   8.480 -3.3731 -0.3287  3.5810
  314MOL0     H41393  -0.274   4.659   8.556  0.7981  0.8407 -2.2214
  314MOL0     H41394  -0.241   4.534   8.673  2.0073  1.1822 -0.2309
  314MOL0     H41395  -0.366   4.367   8.574  0.3031  0.3647  0.6926
  314MOL0     H41396  -0.406   4.470   8.429  0.7115  2.1650 -0.2660
  314MOL0     H41397  -0.521   4.496   8.705  2.4140 -0.4517  0.6095
  314MOL0     H41398  -0.509   4.636   8.600 -0.8990  0.2860  3.1674
  314MOL0     H41399  -0.636   4.538   8.426 -1.2604 -0.1631 -0.0449
  314MOL0     H41400  -0.721   4.548   8.576 -0.8766 -1.9753 -0.9426
  314MOL0     H41401  -0.839   4.348   8.377 -0.3970 -1.0791 -0.6232
  314MOL0     H41402  -0.918   4.004   8.562  6.1451  0.5753 -0.6309
  314MOL0     H41403  -0.971   4.077   8.402 -3.2759  2.1575  0.7197
  314MOL0     H41404  -1.111   4.237   8.523  0.2123  1.3348  3.6411
  314MOL0     H41405  -1.048   4.168   8.675  0.6479  1.2304  0.1529
  314MOL0     H41406  -1.184   3.991   8.458  1.4022  0.1935 -0.3148
  314MOL0     H41407  -1.113   3.939   8.605  1.1321 -1.2450 -2.7826
  314MOL0     H41408  -1.282   4.066   8.725 -1.3902 -0.2305  0.6001
  314MOL0     H41409  -1.381   3.968   8.612  0.3055 -0.5045  1.4042
  314MOL0     H41410  -1.558   4.062   8.725 -0.7675  0.2276 -0.6880
  314MOL0     H41411  -1.800   4.138   8.721  1.9857 -0.2739  2.0181
  314MOL0     H41412  -2.062   4.712   8.489 -1.3517  0.4101  0.6929
  314MOL0     H41413  -2.286   4.758   8.455  2.4842  0.2828  1.0044
  314MOL0     H41414  -2.570   4.515   8.564  0.5645 -2.6154  0.5588
  314MOL0     H41415  -2.567   4.412   8.427 -2.9957 -0.6276  0.7960
  314MOL0     H41416  -2.720   4.560   8.302  1.9292  0.0638 -0.0055
  314MOL0     H41417  -2.722   4.678   8.436  1.8430 -0.0524 -0.5590
  314MOL0     H41418  -2.844   4.395   8.452 -3.5272  1.1373 -0.9866
  314MOL0     H41419  -2.919   4.559   8.470 -0.0230  0.9754  3.9728
  314MOL0     H41420  -2.745   4.414   8.653  0.3766 -1.2967 -0.2906
  314MOL0     H41421  -2.786   4.587   8.665 -1.4433 -0.0546  1.0226
  314MOL0     H41422  -2.957   4.338   8.645  2.2298 -0.5536  0.2385
  314MOL0     H41423  -3.039   4.499   8.661 -0.9735 -0.0551  2.4259
  314MOL0     H41424  -2.885   4.369   8.890 -1.2279  0.0094  2.6800
  314MOL0     H41425  -3.052   4.370   8.858  0.6134  0.5255  2.7676
  314MOL0     H41426  -2.917   4.639   8.894 -2.3068  1.3614 -0.8389
  314MOL0     H41427  -3.088   4.605   8.909 -2.1138 -3.6561  0.9939
  314MOL0     H41428  -3.043   4.444   9.087 -1.6140  0.7156 -1.2413
  314MOL0     H41429  -3.035   4.615   9.131  0.4883 -0.9489  0.9282
  314MOL0     H41430  -2.380   4.342   8.435 -0.8289  1.4332 -3.9815
  314MOL0     H41431  -2.159   4.281   8.499 -1.7733 -0.2362  2.4441
  314MOL0     H41432  -1.681   4.460   8.457  0.7321 -1.6242 -4.1349
  314MOL0     H41433  -1.467   4.386   8.439  0.0645 -1.4141  0.0899
  314MOL0     H41434   0.257   4.494   8.962  1.2603 -0.0111  0.8838
  314MOL0     H41435   0.441   4.538   9.106  0.9250  2.6010  0.6954
  314MOL0     H41436   0.889   4.734   9.075 -0.0444 -0.0662  0.2742
  314MOL0     H41437   1.088   4.801   9.228 -0.0884 -0.2161  2.2918
  314MOL0     H41438   1.415   4.629   9.371  0.3982  1.7154 -0.3189
  314MOL0     H41439   1.321   4.677   9.228  3.1325 -0.1755  0.7845
  314MOL0     H41440   1.259   4.434   9.206  0.6296 -4.6665  0.0752
  314MOL0     H41441   1.432   4.467   9.197  1.7506 -3.9342  1.4406
  314MOL0     H41442   1.283   4.379   9.457  0.5961 -1.3034  1.6262
  314MOL0     H41443   1.460   4.398   9.438  0.6083 -0.4850 -1.3832
  314MOL0     H41444   1.461   4.217   9.269 -0.4948 -3.4926 -0.2701
  314MOL0     H41445   1.430   4.174   9.428  2.3897 -1.9331 -1.8114
  314MOL0     H41446   1.048   4.111   9.234 -1.5135  0.4950  2.0707
  314MOL0     H41447   1.047   4.433   9.437 -0.5178 -1.8879 -0.5615
  314MOL0     H41448   0.804   4.405   9.333  0.6185 -0.6823 -1.0378
  315MOL0     O41449   4.184   2.080   1.190 -0.4912  0.0229 -0.2129
  315MOL0     C41450   4.235   2.028   1.101  0.7401 -0.0455 -0.4852
  315MOL0     O41451   4.190   1.920   1.023 -0.6183 -0.2228 -0.0110
  315MOL0     C41452   4.066   1.865   1.021  0.8029  0.0780 -0.0903
  315MOL0     C41453   3.951   1.953   1.015 -0.5200  0.5148 -0.2693
  315MOL0     C41454   3.831   1.888   1.004  1.2142 -0.1886  0.0327
  315MOL0     C41455   3.819   1.752   0.986 -0.4837 -0.4092  0.3125
  315MOL0     O41456   3.699   1.690   0.960  0.6955 -0.3813  0.1438
  315MOL0     C41457   3.613   1.751   0.868 -0.3897  0.9321  0.4878
  315MOL0     C41458   3.561   1.637   0.765  0.3296 -0.1872 -0.7370
  315MOL0     C41459   3.459   1.529   0.814 -0.5027 -0.8502 -0.2533
  315MOL0     C41460   3.482   1.468   0.955 -0.9446 -0.5369 -0.0412
  315MOL0     C41461   3.388   1.349   0.968  0.4066 -0.5715  0.0195
  315MOL0     C41462   3.395   1.303   1.109  0.9304 -0.1032  0.0732
  315MOL0     C41463   3.292   1.182   1.131 -0.2323 -0.0132  0.4278
  315MOL0     C41464   3.276   1.165   1.281  0.9607 -0.0694  0.1750
  315MOL0     N41465   3.229   1.281   1.362 -0.0013 -0.0405 -0.1358
  315MOL0     C41466   3.111   1.340   1.364  0.4684 -1.3205 -0.1674
  315MOL0     C41467   3.094   1.394   1.484  0.3235 -0.3816  0.4099
  315MOL0     C41468   2.968   1.464   1.545 -0.5872  0.3233 -0.8197
  315MOL0     C41469   2.983   1.618   1.547  0.8155  0.2835  1.1392
  315MOL0     C41470   2.948   1.682   1.420  0.6169  0.3314  0.2780
  315MOL0     C41471   2.810   1.656   1.359 -0.7426 -0.4488 -0.5394
  315MOL0     O41472   2.726   1.714   1.460  0.5014  0.4924  0.2799
  315MOL0     C41473   2.593   1.695   1.453 -0.6308 -0.3142  0.0682
  315MOL0     C41474   2.531   1.608   1.372 -0.2029  0.9757  0.4470
  315MOL0     C41475   2.395   1.584   1.370  0.2691 -0.5498  0.1588
  315MOL0     C41476   2.304   1.663   1.446 -1.2631  0.8983 -0.2092
  315MOL0     C41477   2.158   1.636   1.436 -0.0667  0.6456  0.3668
  315MOL0     O41478   2.079   1.715   1.525 -0.6246  0.5684 -0.4362
  315MOL0     C41479   1.945   1.714   1.506 -0.4034 -0.8966 -0.2364
  315MOL0     C41480   1.864   1.718   1.617  0.1526 -0.3826 -0.3756
  315MOL0     C41481   1.724   1.732   1.618  0.3725  0.2884  0.6318
  315MOL0     C41482   1.660   1.734   1.490 -0.2436  0.1166 -0.6141
  315MOL0     O41483   1.526   1.738   1.491  0.7926  0.2324 -0.1100
  315MOL0     C41484   1.449   1.680   1.383  0.8100  0.0111 -0.5876
  315MOL0     C41485   1.305   1.671   1.436  0.5033 -0.2432  0.2749
  315MOL0     C41486   1.224   1.579   1.353  0.6074 -0.5497  0.2691
  315MOL0     C41487   1.245   1.432   1.374 -0.2322  0.9024  0.0523
  315MOL0     C41488   1.167   1.359   1.278  0.9030 -0.8794  0.2461
  315MOL0     C41489   1.184   1.208   1.288 -0.8998 -0.9356  0.1073
  315MOL0     C41490   1.118   1.121   1.170  0.0290 -0.0445  0.1623
  315MOL0     C41491   0.969   1.142   1.132 -0.4304  0.1979  0.5816
  315MOL0    Cl41492   0.865   1.034   1.220 -0.0578  0.2593  0.2606
  315MOL0     C41493   1.743   1.729   1.375  0.3995  0.8851  0.5424
  315MOL0     C41494   1.881   1.724   1.377 -0.2578  0.3323 -0.2975
  315MOL0     O41495   2.121   1.563   1.342  0.2903  0.4467 -0.3832
  315MOL0     C41496   2.361   1.749   1.545 -0.3845 -0.0205 -0.2642
  315MOL0     C41497   2.504   1.756   1.545  0.3979  0.8937  0.1443
  315MOL0     N41498   3.214   1.371   1.560 -0.2351 -0.9609 -0.0188
  315MOL0     N41499   3.297   1.310   1.478  0.7158 -0.0796 -0.8916
  315MOL0     C41500   3.931   1.666   0.989  0.3885 -0.4161  0.2237
  315MOL0     C41501   4.059   1.726   1.000  0.4288  0.0523 -1.3271
  315MOL0     C41502   4.376   2.066   1.086  1.0162 -0.4268  0.2375
  315MOL0     C41503   4.466   1.986   1.019 -0.1364  0.7706 -0.2429
  315MOL0     C41504   4.604   2.014   0.998  0.1352 -0.5424 -0.0241
  315MOL0     C41505   4.650   2.140   1.040  0.5313 -0.4322 -0.0202
  315MOL0     O41506   4.784   2.169   1.031 -0.4957 -0.3532  0.4117
  315MOL0     C41507   4.849   2.214   1.148 -0.4030  0.0726 -0.4092
  315MOL0     C41508   5.002   2.190   1.145 -0.2045  0.9880 -0.5305
  315MOL0     C41509   5.075   2.246   1.021 -0.2998  0.3327 -1.1454
  315MOL0     C41510   5.226   2.256   1.048  0.3148  0.1975  0.3291
  315MOL0     C41511   5.283   2.373   1.112 -0.7390  0.2310 -0.5274
  315MOL0     C41512   5.332   2.458   1.184  0.1247  0.0877 -0.2403
  315MOL0     C41513   4.554   2.230   1.106  0.8085  0.3987  0.5248
  315MOL0     C41514   4.422   2.190   1.129 -0.3676 -0.5479  0.1126
  315MOL0     H41515   3.968   2.060   1.011  0.8408  0.2934 -2.5089
  315MOL0     H41516   3.734   1.937   1.003  0.1567 -2.1605 -2.1316
  315MOL0     H41517   3.666   1.831   0.815  1.4457 -0.5547 -0.0479
  315MOL0     H41518   3.526   1.802   0.910  1.1068  1.9837  2.4900
  315MOL0     H41519   3.654   1.589   0.735 -0.6179 -2.8180  0.2322
  315MOL0     H41520   3.516   1.685   0.677  1.7934 -2.1168 -2.6460
  315MOL0     H41521   3.452   1.453   0.736 -3.4428  0.1804 -1.1621
  315MOL0     H41522   3.359   1.574   0.816  0.0516  0.7206 -2.6564
  315MOL0     H41523   3.582   1.423   0.958 -1.0849 -1.1801 -2.8063
  315MOL0     H41524   3.474   1.540   1.037  2.4959 -1.4267  1.2530
  315MOL0     H41525   3.418   1.270   0.897 -0.5005 -1.0948  0.2061
  315MOL0     H41526   3.284   1.374   0.947  0.0833 -2.7292 -1.2192
  315MOL0     H41527   3.361   1.387   1.172 -0.0868 -0.9876  0.7506
  315MOL0     H41528   3.494   1.267   1.139  1.6856  0.2247 -1.9187
  315MOL0     H41529   3.197   1.219   1.091  0.4276  0.3033 -0.9002
  315MOL0     H41530   3.319   1.090   1.078 -0.3655 -0.9478  1.9434
  315MOL0     H41531   3.379   1.154   1.315  1.5531  2.9496 -0.3582
  315MOL0     H41532   3.210   1.084   1.312  1.1555  0.1728  1.2560
  315MOL0     H41533   3.034   1.333   1.288  0.0605 -1.2211  0.2302
  315MOL0     H41534   2.964   1.422   1.646 -3.1932 -0.2077 -1.0854
  315MOL0     H41535   2.873   1.428   1.505 -0.2633 -0.3046 -1.0231
  315MOL0     H41536   3.085   1.646   1.574  0.2630  2.1939  1.4317
  315MOL0     H41537   2.919   1.654   1.628 -2.7331 -3.4723  0.3372
  315MOL0     H41538   2.963   1.790   1.422  3.3857  0.0297  1.9444
  315MOL0     H41539   3.026   1.647   1.351  3.5099  1.8690  2.5685
  315MOL0     H41540   2.792   1.549   1.349 -1.9088 -0.4402  1.1253
  315MOL0     H41541   2.797   1.703   1.261  1.8427 -2.8827 -2.2177
  315MOL0     H41542   2.583   1.543   1.302 -0.1755  1.3923  0.0794
  315MOL0     H41543   2.355   1.497   1.320  0.2923  0.1032 -1.0255
  315MOL0     H41544   1.918   1.729   1.711  1.8725  1.6291 -1.5149
  315MOL0     H41545   1.673   1.758   1.711  0.4933  1.9894  0.2648
  315MOL0     H41546   1.494   1.585   1.350  3.3785  0.0761  2.2363
  315MOL0     H41547   1.450   1.746   1.296  3.4798  0.6638 -0.1542
  315MOL0     H41548   1.264   1.773   1.438  1.7878  0.3131 -0.4966
  315MOL0     H41549   1.296   1.645   1.542  0.8019  1.1415  0.6662
  315MOL0     H41550   1.241   1.593   1.246  1.3607 -0.3284  0.4095
  315MOL0     H41551   1.118   1.598   1.372  0.6034  0.5581 -0.7614
  315MOL0     H41552   1.349   1.406   1.355  0.4071  2.8254  0.6869
  315MOL0     H41553   1.208   1.418   1.476 -1.1651  1.3037 -0.2203
  315MOL0     H41554   1.202   1.398   1.182 -2.2758  1.8705  0.0327
  315MOL0     H41555   1.060   1.375   1.291  1.4506  2.2944  1.6454
  315MOL0     H41556   1.132   1.185   1.382 -3.1529  3.2363  0.1729
  315MOL0     H41557   1.290   1.184   1.293 -0.3366  1.2480 -0.3155
  315MOL0     H41558   1.178   1.146   1.082 -1.6347 -0.3919 -1.1098
  315MOL0     H41559   1.145   1.015   1.176  1.2356 -0.0878 -3.3967
  315MOL0     H41560   0.958   1.121   1.025  0.0549 -1.1495  0.7854
  315MOL0     H41561   0.936   1.247   1.136 -1.6417 -0.1003 -0.6740
  315MOL0     H41562   1.683   1.740   1.285  0.6959 -0.1138  0.2045
  315MOL0     H41563   1.934   1.720   1.282 -0.5133 -1.2946 -0.4011
  315MOL0     H41564   2.314   1.800   1.628  3.3805 -0.7342  2.5684
  315MOL0     H41565   2.551   1.807   1.629  1.4815 -0.2129  0.2367
  315MOL0     H41566   3.917   1.558   0.980  1.2577 -0.5200  0.0487
  315MOL0     H41567   4.156   1.677   1.002 -0.3816 -1.6606  1.5883
  315MOL0     H41568   4.434   1.898   0.964  0.9727  0.9756 -1.2695
  315MOL0     H41569   4.665   1.943   0.944  1.4867  0.2327  0.4253
  315MOL0     H41570   4.798   2.173   1.236  0.5521 -2.7133 -1.0208
  315MOL0     H41571   4.835   2.322   1.149 -0.2416  0.1352  2.5393
  315MOL0     H41572   5.045   2.244   1.230  0.8118  2.1875 -1.7714
  315MOL0     H41573   5.026   2.087   1.173 -1.3994  1.3869  2.3555
  315MOL0     H41574   5.042   2.345   0.988 -1.4189 -0.6924 -3.2242
  315MOL0     H41575   5.065   2.187   0.930 -0.4849 -4.2737  1.5387
  315MOL0     H41576   5.256   2.165   1.101 -2.7734 -0.2234  1.5361
  315MOL0     H41577   5.272   2.242   0.949  0.4609 -0.9123  0.5439
  315MOL0     H41578   5.368   2.545   1.234  0.0713  1.5390 -2.5776
  315MOL0     H41579   4.590   2.321   1.153  1.4784  0.0971  0.6147
  315MOL0     H41580   4.364   2.269   1.176  1.0762  0.6715 -0.0850
  316MOL0     O41581  10.606   1.769   4.762  0.3310 -0.2149 -0.5851
  316MOL0     C41582  10.656   1.825   4.866 -0.9324  0.2139  0.2692
  316MOL0     O41583  10.584   1.880   4.972  0.3512 -0.2787 -0.3775
  316MOL0     C41584  10.455   1.882   4.954 -0.1144 -0.2492 -0.7543
  316MOL0     C41585  10.385   1.769   4.984  1.0987  0.1824  0.1694
  316MOL0     C41586  10.244   1.780   4.993  0.0090 -0.0618 -0.7367
  316MOL0     C41587  10.175   1.895   4.960  0.7456 -0.1957  0.0703
  316MOL0     O41588  10.044   1.893   4.988  0.0529 -0.3635 -0.1529
  316MOL0     C41589   9.952   2.000   4.959 -0.2700 -0.1910  0.0316
  316MOL0     C41590   9.819   1.970   5.040 -0.1717 -0.3641  0.1705
  316MOL0     C41591   9.703   2.057   4.993 -0.0167  0.2441  0.0534
  316MOL0     C41592   9.568   1.998   5.046 -0.0503  0.0417 -0.4149
  316MOL0     C41593   9.464   2.109   5.066 -1.1878  0.4286 -0.5815
  316MOL0     C41594   9.385   2.146   4.937  0.4587  0.7624  0.0644
  316MOL0     C41595   9.249   2.214   4.957  0.5444 -1.0409 -0.9163
  316MOL0     C41596   9.244   2.313   5.070  1.4193 -0.1017 -0.1360
  316MOL0     N41597   9.115   2.352   5.126 -0.2992 -0.2851  0.7744
  316MOL0     C41598   9.014   2.254   5.147 -0.1208 -0.4246 -0.0413
  316MOL0     C41599   8.914   2.326   5.212 -0.1394 -0.8612  0.6898
  316MOL0     C41600   8.789   2.278   5.283 -0.1347 -0.2969  0.4034
  316MOL0     C41601   8.692   2.399   5.290 -0.1977  0.2581  0.0464
  316MOL0     C41602   8.565   2.365   5.373 -0.0540  0.9960  0.1235
  316MOL0     C41603   8.485   2.484   5.397  0.4873 -0.5041 -0.0843
  316MOL0     O41604   8.525   2.541   5.523  0.3190  0.6172  0.0437
  316MOL0     C41605   8.435   2.619   5.584  0.9659 -0.5748  0.5730
  316MOL0     C41606   8.304   2.586   5.617 -1.1820  0.1121  0.0111
  316MOL0     C41607   8.220   2.666   5.695 -0.4344  0.1271  0.3193
  316MOL0     C41608   8.270   2.794   5.737  0.9834  0.2044 -0.7666
  316MOL0     C41609   8.183   2.899   5.808  0.0908  0.1324 -0.2621
  316MOL0     O41610   8.053   2.862   5.839 -0.0092 -0.2342 -0.3644
  316MOL0     C41611   7.983   2.936   5.930 -0.2279  0.2549  0.4904
  316MOL0     C41612   8.020   2.957   6.062  0.1495 -0.2564  0.7619
  316MOL0     C41613   7.929   3.027   6.143  0.7003  0.3773  0.3955
  316MOL0     C41614   7.816   3.092   6.091 -0.2547  1.1385  0.0422
  316MOL0     O41615   7.735   3.165   6.171  0.5936 -0.4165 -0.4942
  316MOL0     C41616   7.801   3.267   6.242  0.4977 -1.0789 -0.3412
  316MOL0     C41617   7.765   3.266   6.396  0.1497 -0.4546  0.5417
  316MOL0     C41618   7.802   3.385   6.473 -0.2889  0.4548 -0.4827
  316MOL0     C41619   7.765   3.351   6.620  0.0753 -0.5784  0.5614
  316MOL0     C41620   7.840   3.444   6.714  0.4176  0.1446  0.3850
  316MOL0     C41621   7.819   3.406   6.867 -0.1502  0.3691  0.5373
  316MOL0     C41622   7.672   3.405   6.911 -0.9550 -0.6525 -0.0159
  316MOL0     C41623   7.657   3.370   7.064 -1.3074 -0.1742 -1.2178
  316MOL0    Cl41624   7.722   3.502   7.169 -0.1466 -0.0376  0.3952
  316MOL0     C41625   7.778   3.073   5.959  0.1764 -0.0187  0.1027
  316MOL0     C41626   7.865   2.994   5.880 -0.8727  0.8295 -0.0327
  316MOL0     O41627   8.233   3.002   5.842  0.0233  0.4129 -0.1760
  316MOL0     C41628   8.406   2.823   5.717  0.1811  0.9593 -1.0691
  316MOL0     C41629   8.479   2.742   5.631  0.2190  0.8106  0.4536
  316MOL0     N41630   8.949   2.458   5.215  0.5861  0.5813  0.3029
  316MOL0     N41631   9.069   2.477   5.165  0.3644  0.7579 -0.3458
  316MOL0     C41632  10.250   2.000   4.904  0.7002  0.7511  0.3311
  316MOL0     C41633  10.387   1.999   4.909  0.6256  0.8999 -0.3323
  316MOL0     C41634  10.809   1.822   4.878 -0.8296 -0.0042  0.0526
  316MOL0     C41635  10.872   1.907   4.967 -0.1565 -0.3018 -1.1160
  316MOL0     C41636  11.013   1.906   4.984 -0.1588  0.3005 -0.4416
  316MOL0     C41637  11.091   1.838   4.885 -0.2606 -0.3473  0.5351
  316MOL0     O41638  11.219   1.868   4.851 -0.1068  0.3796 -0.2910
  316MOL0     C41639  11.299   1.952   4.943 -0.2625  0.0426  0.2050
  316MOL0     C41640  11.260   2.091   4.909  0.4398 -0.7795  0.2585
  316MOL0     C41641  11.318   2.183   5.015 -0.7730 -0.0618 -0.1881
  316MOL0     C41642  11.275   2.331   5.012  0.6447 -0.4710  0.0743
  316MOL0     C41643  11.324   2.388   4.879  1.2744  0.1586 -0.8464
  316MOL0     C41644  11.352   2.447   4.781 -0.1169  0.0237  0.6005
  316MOL0     C41645  11.022   1.763   4.786 -0.8136 -0.0657 -0.2101
  316MOL0     C41646  10.888   1.753   4.785 -0.3663  0.2951 -0.0526
  316MOL0     H41647  10.437   1.682   5.022 -0.1855 -0.5177  0.3735
  316MOL0     H41648  10.197   1.697   5.045 -2.4759  0.4575 -2.0265
  316MOL0     H41649   9.941   2.010   4.851  0.3096  0.4644  0.0230
  316MOL0     H41650   9.987   2.101   4.985  2.1109 -0.7523 -0.7348
  316MOL0     H41651   9.825   1.985   5.148  2.5105  1.9786 -0.1865
  316MOL0     H41652   9.805   1.865   5.011  2.9023 -0.0651 -3.0685
  316MOL0     H41653   9.698   2.057   4.883 -0.2817 -1.6458  0.0342
  316MOL0     H41654   9.711   2.158   5.034 -1.5847  0.0668  0.8763
  316MOL0     H41655   9.538   1.916   4.979  1.3657  1.4288 -2.9067
  316MOL0     H41656   9.581   1.953   5.144 -2.4830 -1.2600 -0.5965
  316MOL0     H41657   9.501   2.194   5.124 -2.5343  2.1781 -2.1701
  316MOL0     H41658   9.395   2.045   5.122  3.4957 -2.7822  2.2284
  316MOL0     H41659   9.371   2.055   4.879  1.6069  0.4600  0.2191
  316MOL0     H41660   9.452   2.205   4.874  2.7867 -1.6241  0.1085
  316MOL0     H41661   9.213   2.269   4.870 -0.7730  0.1553  0.3126
  316MOL0     H41662   9.178   2.135   4.983 -1.0390  0.4983 -0.3612
  316MOL0     H41663   9.303   2.402   5.044 -2.6451  2.8816 -0.1310
  316MOL0     H41664   9.286   2.276   5.164  0.8629  3.7293  1.8129
  316MOL0     H41665   9.029   2.152   5.113 -1.5623 -0.0318 -2.0736
  316MOL0     H41666   8.811   2.242   5.384  0.5558 -1.5295 -0.1737
  316MOL0     H41667   8.746   2.194   5.227  0.8580 -1.4271  1.2889
  316MOL0     H41668   8.666   2.454   5.199  1.8226  3.1020  1.0621
  316MOL0     H41669   8.734   2.471   5.359 -0.0271  0.5264 -0.3327
  316MOL0     H41670   8.494   2.293   5.331  1.7984  0.3341 -2.0977
  316MOL0     H41671   8.597   2.319   5.467 -1.6063  0.3129  0.3565
  316MOL0     H41672   8.379   2.460   5.385  0.4341 -0.0569 -0.5518
  316MOL0     H41673   8.504   2.543   5.307  2.6909 -2.2519 -0.8699
  316MOL0     H41674   8.272   2.490   5.580 -2.6604  0.6190 -0.0827
  316MOL0     H41675   8.131   2.627   5.741  0.8893 -0.8544  2.1570
  316MOL0     H41676   8.114   2.914   6.096  1.0896  0.4102 -0.8890
  316MOL0     H41677   7.949   3.039   6.249 -3.1369  2.4850  1.0745
  316MOL0     H41678   7.784   3.364   6.194 -1.9853 -1.6030 -0.6488
  316MOL0     H41679   7.910   3.257   6.236  0.9162  2.3446 -1.0193
  316MOL0     H41680   7.815   3.180   6.442  0.4135 -1.8024 -2.0944
  316MOL0     H41681   7.657   3.248   6.397 -0.5271  2.9080  0.0868
  316MOL0     H41682   7.739   3.469   6.443 -3.6842  0.2232  4.8299
  316MOL0     H41683   7.908   3.411   6.466 -0.5086  2.0757  1.4305
  316MOL0     H41684   7.661   3.379   6.637 -0.6386 -1.1842 -2.3369
  316MOL0     H41685   7.782   3.246   6.643  0.2379 -1.0812 -1.6545
  316MOL0     H41686   7.810   3.546   6.689  1.3597  0.3647  0.1188
  316MOL0     H41687   7.946   3.441   6.686  0.0568  1.4615 -1.2780
  316MOL0     H41688   7.880   3.483   6.915  2.4636 -1.3152  0.0707
  316MOL0     H41689   7.861   3.306   6.879  0.5007  0.2528 -2.1891
  316MOL0     H41690   7.621   3.493   6.871  1.7579  0.7631 -0.5974
  316MOL0     H41691   7.623   3.319   6.865  2.3147 -2.9361  0.4550
  316MOL0     H41692   7.710   3.280   7.098 -2.9491 -0.8572 -0.3383
  316MOL0     H41693   7.556   3.339   7.093 -0.4676 -1.5551  0.4707
  316MOL0     H41694   7.686   3.122   5.929  0.0365  0.4304  1.2333
  316MOL0     H41695   7.826   2.983   5.779 -0.0962  0.6413 -0.3156
  316MOL0     H41696   8.458   2.903   5.768  3.3659 -0.4806 -1.8160
  316MOL0     H41697   8.587   2.755   5.622  0.7226 -2.9756 -0.4250
  316MOL0     H41698  10.195   2.090   4.880  0.1542  0.6540  1.1629
  316MOL0     H41699  10.423   2.098   4.881 -1.2945  1.7596  0.0988
  316MOL0     H41700  10.818   1.956   5.048  2.5957 -0.5018  1.0089
  316MOL0     H41701  11.059   1.979   5.049 -0.3590  0.4235 -0.4379
  316MOL0     H41702  11.405   1.931   4.927 -0.6696 -1.9938 -0.1200
  316MOL0     H41703  11.266   1.937   5.046  0.9616  1.7908  0.8904
  316MOL0     H41704  11.310   2.122   4.817  1.2804  0.4270  1.1066
  316MOL0     H41705  11.153   2.107   4.888  1.0638  0.1054 -2.7188
  316MOL0     H41706  11.425   2.183   4.993 -1.0681  1.6305 -1.7930
  316MOL0     H41707  11.311   2.144   5.117  0.9243 -3.4407 -1.2119
  316MOL0     H41708  11.166   2.322   5.015  0.6958 -1.5330 -0.7562
  316MOL0     H41709  11.312   2.382   5.102 -1.4084 -1.6261  1.6451
  316MOL0     H41710  11.380   2.508   4.697  0.8919 -0.2081  0.7559
  316MOL0     H41711  11.090   1.720   4.713  1.2191 -2.0066  2.5924
  316MOL0     H41712  10.841   1.693   4.708 -0.2950 -0.2445  0.3215
  317MOL0     O41713   9.446   1.007   0.573  0.1680  0.3973  0.2551
  317MOL0     C41714   9.503   1.042   0.681  0.5323 -0.6254  0.6402
  317MOL0     O41715   9.452   1.126   0.774 -0.4350  0.2767 -0.5908
  317MOL0     C41716   9.330   1.195   0.754  0.6414  0.7686  0.2562
  317MOL0     C41717   9.294   1.270   0.646 -0.5884  0.1844  1.2956
  317MOL0     C41718   9.181   1.352   0.635 -0.0574 -0.0558 -0.4955
  317MOL0     C41719   9.082   1.355   0.739 -0.6310 -0.1012 -0.1233
  317MOL0     O41720   8.974   1.426   0.722  0.2635 -0.3163 -0.3436
  317MOL0     C41721   8.875   1.432   0.834 -0.6416  0.0679  0.2437
  317MOL0     C41722   8.747   1.464   0.765 -0.2051 -0.2846 -0.4028
  317MOL0     C41723   8.646   1.482   0.873  0.4681  0.7719 -0.0983
  317MOL0     C41724   8.516   1.542   0.816 -0.8656 -0.0106 -0.7982
  317MOL0     C41725   8.406   1.580   0.917 -0.1687 -0.5020  0.7049
  317MOL0     C41726   8.448   1.694   1.009 -0.5656 -0.1722  0.2379
  317MOL0     C41727   8.321   1.745   1.084  0.8778  0.5775  0.2344
  317MOL0     C41728   8.341   1.739   1.242 -0.9481  0.2284  1.3761
  317MOL0     N41729   8.213   1.768   1.297  0.3425 -0.0223 -0.2130
  317MOL0     C41730   8.098   1.682   1.292 -0.4031  0.3999  0.3391
  317MOL0     C41731   8.008   1.731   1.382 -0.1398 -0.0542  1.0785
  317MOL0     C41732   7.873   1.682   1.395 -1.0853  0.1481 -0.9129
  317MOL0     C41733   7.773   1.722   1.281 -0.2345  1.4780  0.5410
  317MOL0     C41734   7.659   1.611   1.251 -0.0498  0.0990 -0.3603
  317MOL0     C41735   7.718   1.476   1.210  0.5898  0.0424 -1.1996
  317MOL0     O41736   7.811   1.482   1.098  0.2619 -0.5683 -0.3422
  317MOL0     C41737   7.891   1.382   1.070 -0.2367 -0.1683  0.6545
  317MOL0     C41738   7.881   1.253   1.113 -0.0769 -0.6970  0.0570
  317MOL0     C41739   7.975   1.159   1.072 -0.5792  0.0687 -0.5182
  317MOL0     C41740   8.069   1.196   0.985 -0.4928  0.9623 -0.4452
  317MOL0     C41741   8.162   1.086   0.930  0.2797 -0.4681 -0.9872
  317MOL0     O41742   8.269   1.126   0.860 -0.8536 -0.4593  0.0084
  317MOL0     C41743   8.359   1.045   0.788  0.2795 -1.1400 -0.2201
  317MOL0     C41744   8.319   0.927   0.730 -0.0297 -0.2101 -0.1278
  317MOL0     C41745   8.410   0.841   0.685 -0.4068 -0.1167 -0.5443
  317MOL0     C41746   8.543   0.865   0.672  0.0458 -1.2992  0.6994
  317MOL0     O41747   8.647   0.775   0.639 -0.3533  0.0517  0.0699
  317MOL0     C41748   8.608   0.654   0.575  0.6926 -1.1583 -0.1263
  317MOL0     C41749   8.734   0.587   0.524  0.4231  0.1971 -1.0838
  317MOL0     C41750   8.810   0.536   0.649  0.5036  0.8320  0.1703
  317MOL0     C41751   8.911   0.430   0.606 -0.0603  1.0925 -0.4238
  317MOL0     C41752   9.001   0.378   0.722 -0.5818 -0.8444 -0.0724
  317MOL0     C41753   9.066   0.245   0.701 -0.0877  0.3851  0.9320
  317MOL0     C41754   9.167   0.220   0.810 -0.5780 -0.3824  0.3686
  317MOL0     C41755   9.221   0.080   0.810 -0.4172 -0.1878  1.3211
  317MOL0    Cl41756   9.290   0.025   0.652 -0.0257 -0.0959  0.1030
  317MOL0     C41757   8.583   0.999   0.710 -0.5906  0.8560 -0.3590
  317MOL0     C41758   8.500   1.082   0.783 -0.3207  0.5865  0.5099
  317MOL0     O41759   8.132   0.969   0.951 -0.2214  0.3909 -0.1236
  317MOL0     C41760   8.089   1.331   0.952 -0.1765  0.0822 -0.9202
  317MOL0     C41761   8.000   1.428   1.004 -0.5497 -0.2772 -0.0599
  317MOL0     N41762   8.064   1.844   1.435 -0.4057 -0.3683  0.0761
  317MOL0     N41763   8.184   1.864   1.388 -0.8323  0.0185 -0.5910
  317MOL0     C41764   9.114   1.277   0.857 -0.1239  0.3809  0.4551
  317MOL0     C41765   9.237   1.209   0.858  1.2678 -0.4511 -0.0522
  317MOL0     C41766   9.636   0.990   0.711 -0.0299  1.0079  0.8676
  317MOL0     C41767   9.704   0.921   0.607  1.3129  0.1335  0.1370
  317MOL0     C41768   9.814   0.847   0.639 -0.4776 -0.3016 -0.4082
  317MOL0     C41769   9.880   0.855   0.765  0.7245  1.1881  0.3605
  317MOL0     O41770   9.992   0.781   0.776  0.4640 -0.0578 -0.4965
  317MOL0     C41771  10.035   0.760   0.916 -0.5659  0.2848  0.5485
  317MOL0     C41772  10.140   0.645   0.910  0.2715 -1.0165 -0.9721
  317MOL0     C41773  10.170   0.593   1.044  0.0099 -0.5850 -0.1421
  317MOL0     C41774  10.278   0.483   1.041  0.1356  0.4697  0.0552
  317MOL0     C41775  10.412   0.534   1.055 -0.1911 -0.0984 -0.2525
  317MOL0     C41776  10.523   0.582   1.051  0.6632  0.2402 -0.4389
  317MOL0     C41777   9.818   0.934   0.858  0.0882 -0.3738  0.1510
  317MOL0     C41778   9.701   0.997   0.837 -0.0190 -0.5223  0.1010
  317MOL0     H41779   9.367   1.274   0.566  0.1732  2.4626  2.0136
  317MOL0     H41780   9.154   1.408   0.546 -4.1440 -0.1988  0.4700
  317MOL0     H41781   8.899   1.521   0.894  0.5028  0.4393 -0.7358
  317MOL0     H41782   8.863   1.340   0.892  0.1000 -1.4103 -1.8317
  317MOL0     H41783   8.701   1.388   0.701 -1.0947 -0.3626  0.2947
  317MOL0     H41784   8.760   1.549   0.698 -0.1682  0.7586  0.8905
  317MOL0     H41785   8.698   1.545   0.946  3.0528 -0.9834 -0.2815
  317MOL0     H41786   8.613   1.391   0.923  0.9540  0.1102 -0.9684
  317MOL0     H41787   8.542   1.637   0.770  2.7248  0.4833  1.7994
  317MOL0     H41788   8.471   1.477   0.740  1.2321 -3.1749  0.4704
  317MOL0     H41789   8.380   1.491   0.975  2.0927 -1.6414  0.1107
  317MOL0     H41790   8.315   1.613   0.865  1.2554  0.5214 -1.2864
  317MOL0     H41791   8.490   1.776   0.950 -1.3624  0.6045  0.7281
  317MOL0     H41792   8.519   1.648   1.078 -0.8488 -0.7340  0.1648
  317MOL0     H41793   8.271   1.837   1.051 -1.0964 -0.0126  1.4186
  317MOL0     H41794   8.243   1.671   1.064  0.0447  1.1716  1.1577
  317MOL0     H41795   8.402   1.820   1.285 -1.4853 -0.0981  2.8218
  317MOL0     H41796   8.392   1.649   1.278 -0.4254 -0.6595 -1.3881
  317MOL0     H41797   8.097   1.595   1.227  0.6095 -0.2356  1.1454
  317MOL0     H41798   7.830   1.709   1.492 -0.4424 -1.8672 -0.0299
  317MOL0     H41799   7.880   1.573   1.397  0.5378  0.2444 -0.5261
  317MOL0     H41800   7.824   1.752   1.189  0.2299  0.8033  0.5716
  317MOL0     H41801   7.724   1.810   1.325  0.3999  1.2328  1.7823
  317MOL0     H41802   7.578   1.586   1.320 -0.1207 -2.1466 -1.1559
  317MOL0     H41803   7.603   1.656   1.168 -0.2841  2.1000  0.8163
  317MOL0     H41804   7.634   1.409   1.190  0.0700  0.8025 -1.6258
  317MOL0     H41805   7.765   1.432   1.299 -0.3383 -4.5125 -2.6627
  317MOL0     H41806   7.793   1.223   1.169  0.0089 -2.1882 -0.5583
  317MOL0     H41807   7.956   1.055   1.093 -2.0058  0.2928 -0.6085
  317MOL0     H41808   8.219   0.886   0.738 -0.0162 -0.5280 -1.4221
  317MOL0     H41809   8.375   0.745   0.646  1.2100 -1.1240  0.3704
  317MOL0     H41810   8.546   0.673   0.487  0.9391 -4.0592 -1.0182
  317MOL0     H41811   8.541   0.599   0.642 -0.3154 -0.9205 -0.9149
  317MOL0     H41812   8.798   0.650   0.462 -0.2782 -0.8540 -2.9743
  317MOL0     H41813   8.696   0.511   0.454 -1.4426  1.2782 -1.3290
  317MOL0     H41814   8.735   0.492   0.716 -1.9897  0.1853 -2.8352
  317MOL0     H41815   8.872   0.619   0.684  3.0471 -0.2705 -1.4212
  317MOL0     H41816   8.861   0.340   0.570 -0.0112  0.4630  1.0299
  317MOL0     H41817   8.981   0.469   0.532  0.3433  2.6908  0.7361
  317MOL0     H41818   8.938   0.359   0.810  0.8471 -3.9530  0.4155
  317MOL0     H41819   9.066   0.462   0.750 -2.3083  0.0452  1.5405
  317MOL0     H41820   9.122   0.243   0.607  4.3354 -1.2274  3.3162
  317MOL0     H41821   8.992   0.166   0.707  0.0576  0.3487  3.4181
  317MOL0     H41822   9.253   0.286   0.792 -0.8098 -0.6794 -2.2694
  317MOL0     H41823   9.122   0.243   0.907 -2.0808  0.7389 -0.5323
  317MOL0     H41824   9.144   0.008   0.840 -1.0931 -0.6361 -1.2675
  317MOL0     H41825   9.301   0.060   0.882 -1.2092 -1.2003  1.9599
  317MOL0     H41826   8.686   1.032   0.696  0.3796 -1.7996 -0.2267
  317MOL0     H41827   8.554   1.163   0.831  0.2274 -0.2885  1.3892
  317MOL0     H41828   8.169   1.356   0.882  0.6797  0.3626  0.1323
  317MOL0     H41829   8.019   1.530   0.975 -0.1669 -0.8594 -2.0268
  317MOL0     H41830   9.044   1.271   0.939 -3.6565  1.2153 -2.2204
  317MOL0     H41831   9.249   1.156   0.952 -0.6761 -2.3062 -0.7722
  317MOL0     H41832   9.665   0.911   0.507  2.5794 -1.3017 -0.2593
  317MOL0     H41833   9.878   0.791   0.571  0.2013 -2.5506  1.9236
  317MOL0     H41834   9.943   0.729   0.967 -2.8708  1.5093 -2.5290
  317MOL0     H41835  10.078   0.854   0.953  0.8641  1.1342 -2.8384
  317MOL0     H41836  10.109   0.565   0.842 -0.5475 -2.3290  0.8621
  317MOL0     H41837  10.233   0.687   0.871 -0.0815  0.4847 -0.2514
  317MOL0     H41838  10.081   0.541   1.081 -1.3399 -0.1678 -2.6078
  317MOL0     H41839  10.191   0.674   1.115 -1.2648 -1.8116  1.7440
  317MOL0     H41840  10.249   0.420   1.126  1.4293  1.5861  1.3959
  317MOL0     H41841  10.274   0.428   0.947 -0.4502  0.7263 -0.0718
  317MOL0     H41842  10.624   0.618   1.050  0.9142 -0.1195  2.6270
  317MOL0     H41843   9.860   0.934   0.958  0.2914 -0.7202  0.0675
  317MOL0     H41844   9.642   1.058   0.905  0.6307 -1.8799  1.9922
  318MOL0     O41845   6.206   3.673   8.523  0.4344  0.3780 -0.8928
  318MOL0     C41846   6.305   3.609   8.488  0.2327  0.7014 -0.2297
  318MOL0     O41847   6.297   3.521   8.380 -0.0287 -0.8927 -0.2278
  318MOL0     C41848   6.204   3.522   8.285  0.4437  0.5892  0.8132
  318MOL0     C41849   6.189   3.408   8.203  0.0437  0.7782 -0.4744
  318MOL0     C41850   6.107   3.390   8.101 -0.3375  0.1733  0.0501
  318MOL0     C41851   6.021   3.493   8.064  0.3445 -0.2770  0.8652
  318MOL0     O41852   5.929   3.477   7.963  0.7127 -0.1524  0.1705
  318MOL0     C41853   5.938   3.561   7.847  0.3324 -0.4150  1.1035
  318MOL0     C41854   5.786   3.569   7.809  0.4100 -1.0767  0.2817
  318MOL0     C41855   5.699   3.653   7.911  0.5493  0.9980 -0.1406
  318MOL0     C41856   5.716   3.802   7.894  0.5033 -0.3826  0.1662
  318MOL0     C41857   5.586   3.879   7.922 -0.1104 -0.4517 -0.1358
  318MOL0     C41858   5.623   4.031   7.950  0.1145  0.3259 -0.0156
  318MOL0     C41859   5.495   4.107   7.979  0.1789  0.0023  0.1465
  318MOL0     C41860   5.399   4.120   7.859  0.5112 -0.4809  0.0452
  318MOL0     N41861   5.291   4.218   7.870 -0.7135 -0.0569 -0.0446
  318MOL0     C41862   5.263   4.288   7.991 -0.6810  0.1513  0.1985
  318MOL0     C41863   5.167   4.370   7.949  0.5996 -0.1465  0.0958
  318MOL0     C41864   5.094   4.486   8.018  0.1975 -0.2048  0.5961
  318MOL0     C41865   5.171   4.615   8.005 -0.2776  0.4688 -0.6030
  318MOL0     C41866   5.088   4.734   8.057  0.3432  0.1402 -0.2078
  318MOL0     C41867   5.165   4.873   8.067 -0.1863  0.5001  0.5447
  318MOL0     O41868   5.239   4.873   8.187 -0.3047 -0.6726 -0.4099
  318MOL0     C41869   5.377   4.853   8.186  0.7820  0.4268 -0.3033
  318MOL0     C41870   5.427   4.748   8.262  0.1517  0.1963  0.2416
  318MOL0     C41871   5.568   4.724   8.260 -0.0926 -0.4423 -0.0768
  318MOL0     C41872   5.662   4.802   8.186 -0.7945 -0.5647  0.2725
  318MOL0     C41873   5.812   4.786   8.191 -0.9975  0.1885  0.3768
  318MOL0     O41874   5.853   4.663   8.221 -0.1190  0.8426  0.5145
  318MOL0     C41875   5.985   4.646   8.224 -1.0568  0.1066 -0.2069
  318MOL0     C41876   6.050   4.611   8.102  0.0990 -0.7881 -0.7896
  318MOL0     C41877   6.189   4.597   8.113  0.9780  1.1170  0.0446
  318MOL0     C41878   6.258   4.613   8.236 -0.2413  0.2181  0.2029
  318MOL0     O41879   6.401   4.624   8.248  0.9495 -0.3339 -0.3246
  318MOL0     C41880   6.494   4.553   8.161 -0.8123  0.1215  0.8644
  318MOL0     C41881   6.489   4.403   8.201  0.3654 -0.3819 -0.9519
  318MOL0     C41882   6.590   4.358   8.301 -0.7265 -0.7875 -0.2131
  318MOL0     C41883   6.590   4.209   8.326 -0.2681 -1.1176  0.1385
  318MOL0     C41884   6.711   4.158   8.403  0.4016  0.4312 -0.3862
  318MOL0     C41885   6.708   4.188   8.553 -0.5837 -1.1813 -1.1463
  318MOL0     C41886   6.567   4.165   8.617 -0.4722 -0.1457  0.2844
  318MOL0     C41887   6.577   4.184   8.769  0.3820 -0.4265  0.5064
  318MOL0    Cl41888   6.423   4.193   8.845  0.0582 -0.1367 -0.0544
  318MOL0     C41889   6.187   4.636   8.357  0.2140  0.4294  0.4338
  318MOL0     C41890   6.049   4.659   8.348 -0.9532  0.3688  0.1153
  318MOL0     O41891   5.883   4.889   8.170  0.2057  0.6988 -0.0065
  318MOL0     C41892   5.606   4.909   8.111  0.2412 -0.8763 -0.0808
  318MOL0     C41893   5.469   4.935   8.119 -0.2412  0.3907  0.4258
  318MOL0     N41894   5.140   4.353   7.813  0.4261  0.0722  0.4991
  318MOL0     N41895   5.215   4.254   7.773  0.6697  0.5993  0.3726
  318MOL0     C41896   6.030   3.621   8.134  0.1736  0.2406 -0.3784
  318MOL0     C41897   6.125   3.634   8.242  1.0109 -0.4697  0.6133
  318MOL0     C41898   6.420   3.631   8.568 -0.7238 -0.2478  0.0719
  318MOL0     C41899   6.424   3.717   8.681  0.4795  0.0067  0.3740
  318MOL0     C41900   6.528   3.712   8.771  0.2552  0.3104 -0.4247
  318MOL0     C41901   6.646   3.631   8.743  0.9143 -0.0681 -0.8559
  318MOL0     O41902   6.755   3.639   8.831  0.2072 -0.0517  0.3036
  318MOL0     C41903   6.833   3.521   8.839  0.6154 -0.1128  0.7509
  318MOL0     C41904   6.901   3.519   8.985 -0.1099 -0.3477 -0.1843
  318MOL0     C41905   6.801   3.513   9.103 -0.0521 -1.0278 -0.5524
  318MOL0     C41906   6.867   3.452   9.229 -0.0736  0.2265 -0.1240
  318MOL0     C41907   6.968   3.548   9.290  0.4795 -0.5156 -0.2836
  318MOL0     C41908   7.037   3.634   9.357 -0.2548  0.0199 -0.5998
  318MOL0     C41909   6.650   3.556   8.626  0.4956 -0.1374 -1.1078
  318MOL0     C41910   6.532   3.544   8.549 -0.3729 -0.4558  0.2715
  318MOL0     H41911   6.252   3.322   8.223  0.0372  0.2913 -2.3785
  318MOL0     H41912   6.108   3.292   8.055  2.8194  0.0904  0.0353
  318MOL0     H41913   5.995   3.507   7.770 -2.1335  0.4486 -1.4788
  318MOL0     H41914   5.977   3.663   7.844  2.9338 -1.3021 -1.7729
  318MOL0     H41915   5.748   3.466   7.805  1.4303 -1.4402 -0.4580
  318MOL0     H41916   5.764   3.628   7.720 -1.3573 -0.5978  0.9869
  318MOL0     H41917   5.698   3.634   8.019  2.5313  1.2937 -0.0349
  318MOL0     H41918   5.598   3.626   7.879  0.9456  0.0008 -0.5825
  318MOL0     H41919   5.790   3.837   7.967 -0.7073  4.2055 -0.4325
  318MOL0     H41920   5.767   3.829   7.802  2.5174  2.0084  1.8460
  318MOL0     H41921   5.525   3.837   8.003 -0.0642  0.7112  0.5359
  318MOL0     H41922   5.523   3.885   7.833 -1.3882 -4.1734  0.3667
  318MOL0     H41923   5.686   4.056   7.864  3.5738 -2.2785  1.4824
  318MOL0     H41924   5.696   4.046   8.031 -1.5272  1.5004  1.3212
  318MOL0     H41925   5.450   4.070   8.072 -0.4746  2.2376  0.7798
  318MOL0     H41926   5.522   4.208   8.011 -0.7328  0.7712 -1.4315
  318MOL0     H41927   5.354   4.023   7.833  2.7762 -1.5762 -0.0455
  318MOL0     H41928   5.464   4.137   7.772  2.2958 -0.2765  1.3548
  318MOL0     H41929   5.305   4.284   8.091  0.7896  0.6402 -0.3734
  318MOL0     H41930   5.096   4.467   8.126 -0.5012  0.4043  0.7206
  318MOL0     H41931   4.990   4.486   7.984  0.5435 -2.8024 -0.7294
  318MOL0     H41932   5.207   4.631   7.903 -1.7631  0.6880 -1.1199
  318MOL0     H41933   5.261   4.623   8.066  0.3251  3.7007 -1.7148
  318MOL0     H41934   5.003   4.763   7.994  0.4487 -1.6435 -1.2497
  318MOL0     H41935   5.046   4.706   8.154 -1.3612  0.3254 -0.8568
  318MOL0     H41936   5.090   4.952   8.070 -0.8826 -0.0188 -1.4453
  318MOL0     H41937   5.223   4.882   7.974 -0.6724 -3.3733 -0.3186
  318MOL0     H41938   5.351   4.696   8.319 -0.4582 -2.5692 -2.8132
  318MOL0     H41939   5.603   4.639   8.317  0.9835 -0.4882 -0.7618
  318MOL0     H41940   6.001   4.600   8.007 -0.0713  3.9871 -1.4825
  318MOL0     H41941   6.235   4.567   8.019  0.8381 -2.4907  0.9998
  318MOL0     H41942   6.592   4.601   8.166 -0.3949 -0.8215  3.5694
  318MOL0     H41943   6.459   4.559   8.058  0.3076 -3.1052  0.1868
  318MOL0     H41944   6.507   4.344   8.111  1.1597  0.0466 -1.0782
  318MOL0     H41945   6.389   4.391   8.244  0.7334  0.4545  0.1673
  318MOL0     H41946   6.587   4.413   8.396  2.3459 -2.1989  0.8438
  318MOL0     H41947   6.690   4.387   8.265  0.5672 -1.5993  2.4433
  318MOL0     H41948   6.498   4.183   8.379 -3.0306  1.9377 -2.6312
  318MOL0     H41949   6.585   4.146   8.237 -0.2806 -4.0898  2.1198
  318MOL0     H41950   6.805   4.197   8.361  2.1921 -1.8400  1.2475
  318MOL0     H41951   6.716   4.050   8.391 -0.0395  0.4186 -0.4789
  318MOL0     H41952   6.723   4.296   8.556 -2.6268 -0.8740 -0.6375
  318MOL0     H41953   6.788   4.144   8.613  1.4484  0.3746 -2.5765
  318MOL0     H41954   6.503   4.241   8.572 -0.2099 -0.8934 -1.4418
  318MOL0     H41955   6.531   4.065   8.592 -0.5177 -1.0109  3.4306
  318MOL0     H41956   6.617   4.285   8.785 -0.1445  0.5449 -3.2899
  318MOL0     H41957   6.647   4.115   8.816 -0.6777 -0.7254  1.6903
  318MOL0     H41958   6.249   4.634   8.446  1.7676  1.4553 -0.5828
  318MOL0     H41959   5.983   4.695   8.427 -3.0910 -1.4849 -0.7188
  318MOL0     H41960   5.669   4.981   8.059 -0.2303 -1.9370 -2.2305
  318MOL0     H41961   5.442   5.026   8.066 -1.1325 -0.2603 -0.2632
  318MOL0     H41962   5.961   3.697   8.099 -0.4926 -0.0776  0.2191
  318MOL0     H41963   6.133   3.731   8.289  1.3025 -0.3470  0.3133
  318MOL0     H41964   6.331   3.764   8.711 -2.1286 -2.5447 -2.8950
  318MOL0     H41965   6.527   3.775   8.860  2.1537 -0.2449  0.0367
  318MOL0     H41966   6.908   3.513   8.760 -1.1008  2.2031 -1.2302
  318MOL0     H41967   6.767   3.434   8.837 -0.0955  0.4071 -1.8758
  318MOL0     H41968   6.971   3.437   9.000  0.9656  0.6722  0.5031
  318MOL0     H41969   6.961   3.610   8.995 -1.1416  0.3136  0.1642
  318MOL0     H41970   6.705   3.467   9.082 -1.2020  1.2040 -0.5082
  318MOL0     H41971   6.771   3.615   9.128  1.5654 -1.0996  2.0709
  318MOL0     H41972   6.786   3.423   9.297  2.2637 -1.6393  2.0216
  318MOL0     H41973   6.911   3.355   9.203  0.4405  0.2959  0.4781
  318MOL0     H41974   7.082   3.718   9.407  0.9313 -1.5267  1.0397
  318MOL0     H41975   6.736   3.500   8.590 -1.1761 -2.5602 -1.6091
  318MOL0     H41976   6.538   3.471   8.468  2.3422 -0.0753  0.0414
  319MOL0     O41977   4.675   0.945   7.707  0.0632  0.5680  0.0337
  319MOL0     C41978   4.709   0.837   7.657 -1.3261 -0.3584  0.0585
  319MOL0     O41979   4.633   0.752   7.602  0.1631 -0.3945  0.7715
  319MOL0     C41980   4.498   0.780   7.598  0.2556  0.3293  0.2676
  319MOL0     C41981   4.409   0.672   7.638 -0.4144 -0.0895  0.5050
  319MOL0     C41982   4.271   0.699   7.633 -0.5459  0.5280  0.0121
  319MOL0     C41983   4.218   0.822   7.610  0.4940 -0.3677 -0.5962
  319MOL0     O41984   4.083   0.834   7.641 -0.7802 -0.0774  0.3598
  319MOL0     C41985   4.039   0.958   7.699  0.2431 -1.5967  0.7500
  319MOL0     C41986   3.917   0.944   7.781 -0.7476 -0.4481 -0.9815
  319MOL0     C41987   3.793   0.894   7.719 -0.7825 -0.4076  0.9419
  319MOL0     C41988   3.652   0.922   7.785  0.8294 -0.5183  0.2305
  319MOL0     C41989   3.626   0.876   7.928 -0.8351  0.1973  0.1858
  319MOL0     C41990   3.472   0.872   7.961  0.2137  0.2773 -0.0790
  319MOL0     C41991   3.436   0.859   8.116 -0.2225 -0.3512 -0.3297
  319MOL0     C41992   3.288   0.846   8.149 -0.3850  0.2779 -0.1338
  319MOL0     N41993   3.237   0.710   8.102  0.1904 -0.9414  0.5922
  319MOL0     C41994   3.232   0.599   8.179  0.2045  0.0151 -0.2213
  319MOL0     C41995   3.176   0.501   8.107 -0.7013 -0.9514  0.1664
  319MOL0     C41996   3.132   0.363   8.155 -0.0896  0.3255 -0.2713
  319MOL0     C41997   2.983   0.358   8.172  0.4091  0.6421  0.0647
  319MOL0     C41998   2.933   0.418   8.298  0.2336 -0.0392 -1.2205
  319MOL0     C41999   2.782   0.420   8.311  0.4620  0.0232  1.8139
  319MOL0     O42000   2.736   0.514   8.408 -0.1392 -0.3526  0.2572
  319MOL0     C42001   2.608   0.539   8.440  0.3881  0.5537 -1.0840
  319MOL0     C42002   2.497   0.482   8.377 -0.2703 -0.7773  0.6674
  319MOL0     C42003   2.366   0.518   8.418  0.3693  1.1443 -0.4913
  319MOL0     C42004   2.340   0.615   8.513 -0.1824 -0.0526  0.5605
  319MOL0     C42005   2.202   0.673   8.522 -0.0140 -0.0450 -0.6385
  319MOL0     O42006   2.098   0.626   8.447  0.2515  0.2416 -0.5793
  319MOL0     C42007   1.973   0.689   8.450  0.2707 -0.5458 -0.0283
  319MOL0     C42008   1.901   0.657   8.337  0.5063 -0.2403  0.2771
  319MOL0     C42009   1.769   0.712   8.329 -0.5966  0.2012  0.1493
  319MOL0     C42010   1.703   0.773   8.432 -0.2512 -0.7602 -0.4011
  319MOL0     O42011   1.563   0.780   8.401 -0.1004 -0.0954 -0.7858
  319MOL0     C42012   1.474   0.824   8.506  1.0002 -0.2574  0.0099
  319MOL0     C42013   1.329   0.815   8.459  1.0635  0.2631  0.3316
  319MOL0     C42014   1.293   0.678   8.402 -1.0664  0.3867  0.6143
  319MOL0     C42015   1.155   0.663   8.333  0.3589  0.6627 -0.0070
  319MOL0     C42016   1.180   0.592   8.193  0.2248 -0.1122 -0.0190
  319MOL0     C42017   1.035   0.551   8.144 -0.3949 -0.0831  0.6787
  319MOL0     C42018   1.030   0.504   7.996  0.3702  0.2246  0.5633
  319MOL0     C42019   1.044   0.348   7.985  0.2190 -0.0446  0.5495
  319MOL0    Cl42020   1.216   0.322   7.971  0.5346  0.0115  0.0041
  319MOL0     C42021   1.774   0.805   8.546 -0.6641  0.6665 -0.0313
  319MOL0     C42022   1.910   0.771   8.561 -0.3213  0.3527  0.6778
  319MOL0     O42023   2.203   0.771   8.595  0.3508 -0.9518 -0.5108
  319MOL0     C42024   2.453   0.670   8.581 -0.9821 -0.6409  0.3052
  319MOL0     C42025   2.586   0.625   8.542 -0.2997 -0.0019  0.0523
  319MOL0     N42026   3.142   0.553   7.985 -0.7324 -0.5217 -0.9746
  319MOL0     N42027   3.179   0.680   7.979  0.3551 -0.4980  0.2714
  319MOL0     C42028   4.305   0.933   7.569  0.8147  0.1701 -0.7395
  319MOL0     C42029   4.444   0.908   7.559 -0.6416  0.5428 -0.2888
  319MOL0     C42030   4.860   0.817   7.645  0.6898 -0.2356 -0.6300
  319MOL0     C42031   4.954   0.914   7.690  0.1569 -0.5279  0.3412
  319MOL0     C42032   5.087   0.886   7.676  0.4369 -0.2786  0.9841
  319MOL0     C42033   5.124   0.762   7.623  0.1494  0.8275  0.4911
  319MOL0     O42034   5.263   0.738   7.638 -0.5162 -1.2787 -0.5780
  319MOL0     C42035   5.309   0.608   7.607  0.5294 -0.5488 -1.0995
  319MOL0     C42036   5.440   0.591   7.674  0.7783 -0.3810 -0.8013
  319MOL0     C42037   5.495   0.449   7.673  0.2189 -0.1170 -0.2357
  319MOL0     C42038   5.497   0.394   7.536  0.2029 -0.0165 -0.8456
  319MOL0     C42039   5.591   0.285   7.535 -1.3329  0.4395 -0.7763
  319MOL0     C42040   5.665   0.188   7.533 -0.5380 -0.6329 -0.2306
  319MOL0     C42041   5.029   0.662   7.595  0.3027  0.5648  0.3029
  319MOL0     C42042   4.902   0.691   7.609 -0.1670 -0.1911 -0.2953
  319MOL0     H42043   4.454   0.578   7.669 -2.7158 -1.0066  1.2833
  319MOL0     H42044   4.203   0.615   7.644 -3.5645  2.6957 -0.7834
  319MOL0     H42045   4.021   1.018   7.610  2.9604 -3.0733 -0.9091
  319MOL0     H42046   4.118   1.007   7.756 -0.9230 -0.2821  1.2986
  319MOL0     H42047   3.901   1.044   7.823 -2.7537 -0.3451 -1.8709
  319MOL0     H42048   3.936   0.870   7.859  0.7376  0.4959 -0.4029
  319MOL0     H42049   3.812   0.787   7.705  1.1572  0.1502 -1.3680
  319MOL0     H42050   3.800   0.944   7.622 -1.7466  2.4017  2.2300
  319MOL0     H42051   3.627   1.027   7.767  2.4234 -0.2395 -0.5523
  319MOL0     H42052   3.586   0.865   7.720 -2.8651  1.0777  2.2644
  319MOL0     H42053   3.682   0.937   7.999 -1.3114 -0.3178  1.0248
  319MOL0     H42054   3.651   0.770   7.940 -1.2917 -0.1275 -1.5081
  319MOL0     H42055   3.427   0.795   7.898  0.8345  1.1873 -1.6908
  319MOL0     H42056   3.427   0.966   7.929 -3.1233 -0.6760  1.2844
  319MOL0     H42057   3.484   0.774   8.165  1.9128  0.7891 -0.3196
  319MOL0     H42058   3.478   0.951   8.159  0.1627  0.5767 -2.5536
  319MOL0     H42059   3.230   0.931   8.111  1.2730  0.4771 -2.4074
  319MOL0     H42060   3.291   0.850   8.259  2.9145  1.5118 -0.1471
  319MOL0     H42061   3.278   0.588   8.277  0.0589 -1.8951 -0.3350
  319MOL0     H42062   3.181   0.332   8.248 -0.5176  1.7077  0.4521
  319MOL0     H42063   3.170   0.292   8.081  0.4726 -3.1818  3.0492
  319MOL0     H42064   2.960   0.251   8.176  1.7820  0.3461  1.0344
  319MOL0     H42065   2.918   0.393   8.092 -0.6314 -0.3501  0.4429
  319MOL0     H42066   2.977   0.374   8.388 -2.1434 -0.6098 -0.2456
  319MOL0     H42067   2.960   0.524   8.292 -3.0261  1.0657  1.0563
  319MOL0     H42068   2.737   0.322   8.331 -1.7687  0.9042  1.3747
  319MOL0     H42069   2.745   0.441   8.211  0.6872  0.8036  1.8878
  319MOL0     H42070   2.502   0.399   8.308 -1.0343 -2.3748  2.4645
  319MOL0     H42071   2.277   0.492   8.362 -0.1228  1.5520  0.0765
  319MOL0     H42072   1.945   0.605   8.252  0.8460 -2.7630  1.8607
  319MOL0     H42073   1.720   0.702   8.232 -1.0621  5.6647 -0.4707
  319MOL0     H42074   1.488   0.926   8.541 -3.4481  0.9051 -1.0321
  319MOL0     H42075   1.485   0.750   8.587  0.4249 -0.3104  0.0418
  319MOL0     H42076   1.304   0.895   8.388 -1.4962  0.6169  1.5174
  319MOL0     H42077   1.255   0.842   8.535  0.8949 -0.5524  0.4672
  319MOL0     H42078   1.297   0.599   8.477  1.4256  2.8142  3.3182
  319MOL0     H42079   1.376   0.650   8.336 -0.0997  1.9000  1.1201
  319MOL0     H42080   1.085   0.617   8.403  1.0785  1.4835  1.2967
  319MOL0     H42081   1.119   0.764   8.312  0.2007  0.8359  1.0373
  319MOL0     H42082   1.237   0.503   8.218 -0.9739 -1.2738 -1.2766
  319MOL0     H42083   1.232   0.654   8.118 -1.2634  1.2477  0.0047
  319MOL0     H42084   0.975   0.641   8.159  0.7885  0.7169  0.7947
  319MOL0     H42085   1.001   0.473   8.212 -1.9700  1.0540  1.2563
  319MOL0     H42086   0.928   0.530   7.965 -1.3747 -1.4656  4.2314
  319MOL0     H42087   1.113   0.542   7.936  2.3256 -3.0407  0.9650
  319MOL0     H42088   1.002   0.309   7.892  2.2900 -1.2809  0.0637
  319MOL0     H42089   1.006   0.293   8.071  1.1822 -2.5353 -0.5187
  319MOL0     H42090   1.719   0.855   8.625 -5.2852 -1.0417 -1.8546
  319MOL0     H42091   1.968   0.790   8.650 -1.3819  0.3794  1.3768
  319MOL0     H42092   2.432   0.748   8.653  0.1223 -0.2588  0.2364
  319MOL0     H42093   2.673   0.665   8.593  0.3688 -2.5994  1.0892
  319MOL0     H42094   4.258   1.029   7.547  0.4210  0.1447 -0.0178
  319MOL0     H42095   4.524   0.980   7.543 -0.6570  0.3426 -1.3586
  319MOL0     H42096   4.921   1.011   7.727  0.8069  0.2364 -1.0165
  319MOL0     H42097   5.175   0.945   7.701  3.1844 -3.0412 -1.3152
  319MOL0     H42098   5.332   0.610   7.500 -4.5427  2.4174 -2.4396
  319MOL0     H42099   5.244   0.524   7.631 -0.6433  0.1034 -1.9107
  319MOL0     H42100   5.513   0.657   7.627  2.4514 -1.0432  0.7481
  319MOL0     H42101   5.440   0.614   7.781  1.5365 -1.2266 -0.6019
  319MOL0     H42102   5.440   0.382   7.739  2.5274 -1.2656  0.6232
  319MOL0     H42103   5.596   0.438   7.713 -0.4557 -1.1361  1.2734
  319MOL0     H42104   5.405   0.356   7.491  0.9513  0.5495 -2.9703
  319MOL0     H42105   5.529   0.465   7.460  0.3283  0.7891 -0.0579
  319MOL0     H42106   5.731   0.104   7.536 -0.2588 -0.4028  0.1668
  319MOL0     H42107   5.047   0.560   7.563 -1.7442  0.9789 -2.5887
  319MOL0     H42108   4.838   0.604   7.598  0.5480 -0.6356 -1.0231
  320MOL0     O42109   1.551   1.182   6.585 -0.3368 -1.1581 -0.9142
  320MOL0     C42110   1.623   1.228   6.497 -0.5768  0.3054  0.2134
  320MOL0     O42111   1.582   1.315   6.396  0.3759  0.1827 -0.8513
  320MOL0     C42112   1.446   1.332   6.385 -0.0441  0.1885 -0.9012
  320MOL0     C42113   1.373   1.423   6.477 -0.2645 -0.1683  0.3449
  320MOL0     C42114   1.237   1.445   6.457 -0.6819 -1.4048  1.1847
  320MOL0     C42115   1.164   1.362   6.372 -0.3520 -1.0787  0.0761
  320MOL0     O42116   1.029   1.389   6.365  0.2397  0.4766  0.4563
  320MOL0     C42117   0.946   1.303   6.282  0.3481  0.1053  0.6629
  320MOL0     C42118   0.805   1.349   6.329  0.0720  0.5005  0.5322
  320MOL0     C42119   0.753   1.482   6.286 -0.0576 -0.4447  0.3977
  320MOL0     C42120   0.610   1.511   6.338 -1.0732 -0.9636 -0.0413
  320MOL0     C42121   0.573   1.658   6.338 -0.0875  0.1976 -0.8419
  320MOL0     C42122   0.542   1.704   6.194 -0.2059 -0.4002  0.0900
  320MOL0     C42123   0.534   1.863   6.167  1.0360  0.0096 -0.2599
  320MOL0     C42124   0.432   1.926   6.264  0.3246 -0.0030  0.2198
  320MOL0     N42125   0.291   1.863   6.255  0.0192  0.2573  0.0056
  320MOL0     C42126   0.232   1.788   6.355 -0.7509  0.4139 -1.4459
  320MOL0     C42127   0.106   1.757   6.315  1.1090 -0.8247  0.5436
  320MOL0     C42128  -0.000   1.679   6.396 -0.0330 -1.0742 -0.2116
  320MOL0     C42129  -0.084   1.785   6.482  0.0556  0.0011  0.2326
  320MOL0     C42130  -0.222   1.729   6.524  0.0306 -0.6782 -0.3802
  320MOL0     C42131  -0.331   1.765   6.421  0.0659 -0.9199  0.0134
  320MOL0     O42132  -0.439   1.667   6.432 -0.2403  0.6080  0.4900
  320MOL0     C42133  -0.540   1.691   6.354 -0.1716  0.0851  1.0619
  320MOL0     C42134  -0.546   1.648   6.221  0.7850 -0.3952 -0.0791
  320MOL0     C42135  -0.668   1.667   6.147 -0.2017 -0.1735 -0.0268
  320MOL0     C42136  -0.785   1.719   6.210 -0.6571  1.2892  1.3477
  320MOL0     C42137  -0.904   1.750   6.116 -0.9146 -0.0712  0.0167
  320MOL0     O42138  -1.027   1.779   6.178 -0.4659 -0.1504  0.3809
  320MOL0     C42139  -1.118   1.869   6.127  0.2833  0.5858  0.3175
  320MOL0     C42140  -1.106   1.937   6.008 -0.6282  0.0343 -0.8951
  320MOL0     C42141  -1.214   2.017   5.966  0.1482 -0.0918 -0.3251
  320MOL0     C42142  -1.332   2.029   6.038  0.7027 -0.3229 -0.6602
  320MOL0     O42143  -1.432   2.115   5.995 -0.0405 -0.0131  0.1077
  320MOL0     C42144  -1.387   2.255   5.970 -0.3083 -0.2701 -0.1433
  320MOL0     C42145  -1.511   2.334   5.935 -0.5287 -0.8805 -0.7379
  320MOL0     C42146  -1.548   2.309   5.784  0.6218 -0.5358  0.0831
  320MOL0     C42147  -1.608   2.174   5.753  0.4009  1.1297 -0.0906
  320MOL0     C42148  -1.607   2.144   5.596  0.5374 -0.1809 -0.2861
  320MOL0     C42149  -1.706   2.031   5.548  0.1180  0.1498  0.6099
  320MOL0     C42150  -1.667   1.985   5.411 -0.2564  0.2379  0.0406
  320MOL0     C42151  -1.601   1.843   5.404 -0.1310 -0.4109 -1.0865
  320MOL0    Cl42152  -1.674   1.734   5.275 -0.1047  0.0264 -0.1184
  320MOL0     C42153  -1.333   1.966   6.163  0.4476  0.3518  0.2899
  320MOL0     C42154  -1.228   1.887   6.205  0.2187  0.3572  0.5140
  320MOL0     O42155  -0.887   1.745   5.996 -0.3197  0.0109  0.0126
  320MOL0     C42156  -0.770   1.766   6.343 -0.1356  0.1845 -0.2242
  320MOL0     C42157  -0.652   1.759   6.404  0.3543  0.0884 -1.6305
  320MOL0     N42158   0.079   1.836   6.197 -0.5597  0.4640  0.5336
  320MOL0     N42159   0.193   1.893   6.163 -0.3310 -0.2491 -0.4489
  320MOL0     C42160   1.233   1.276   6.286 -0.3547 -0.3348 -0.5182
  320MOL0     C42161   1.370   1.269   6.293  0.3769 -0.1316 -0.3973
  320MOL0     C42162   1.777   1.193   6.500 -0.1879  0.3264  0.1915
  320MOL0     C42163   1.829   1.083   6.579 -0.9591 -0.1663 -0.1947
  320MOL0     C42164   1.969   1.073   6.589 -0.6901  0.7078 -0.8102
  320MOL0     C42165   2.056   1.154   6.525 -0.0118  0.3558  0.7182
  320MOL0     O42166   2.188   1.138   6.553 -0.3775  0.5714 -0.5581
  320MOL0     C42167   2.284   1.219   6.500 -0.8589  0.1250  0.4320
  320MOL0     C42168   2.423   1.203   6.566 -0.1739  0.0845  0.3491
  320MOL0     C42169   2.510   1.088   6.533 -0.5917 -0.4259  1.1905
  320MOL0     C42170   2.458   0.941   6.557  0.2791 -0.1911  0.1510
  320MOL0     C42171   2.559   0.856   6.494  0.0439  0.3340  0.0194
  320MOL0     C42172   2.641   0.767   6.458 -0.4676 -0.6629 -0.2324
  320MOL0     C42173   2.002   1.239   6.433  0.1985  0.2991  0.4249
  320MOL0     C42174   1.870   1.271   6.433  0.2228 -0.4976  1.0299
  320MOL0     H42175   1.420   1.476   6.559  2.0914  1.7179 -2.0503
  320MOL0     H42176   1.191   1.511   6.530 -1.9673 -1.8895  0.8286
  320MOL0     H42177   0.952   1.194   6.287 -1.4952 -0.1641 -1.3575
  320MOL0     H42178   0.947   1.325   6.175 -2.6320  1.9892  0.9213
  320MOL0     H42179   0.802   1.345   6.438  3.0542  0.5398  0.7026
  320MOL0     H42180   0.722   1.285   6.298  2.0425 -1.1953 -1.6530
  320MOL0     H42181   0.749   1.478   6.176  0.0775 -3.2851  0.4323
  320MOL0     H42182   0.821   1.562   6.314  0.5096 -1.8873  3.4391
  320MOL0     H42183   0.534   1.466   6.274 -0.2437 -2.1213 -0.2490
  320MOL0     H42184   0.611   1.467   6.438  0.3182 -1.0964 -0.0920
  320MOL0     H42185   0.650   1.721   6.384 -0.7201 -0.8404  1.8691
  320MOL0     H42186   0.488   1.645   6.406  1.3326 -1.1663  0.7727
  320MOL0     H42187   0.444   1.668   6.160 -0.4585  1.7646 -1.6869
  320MOL0     H42188   0.615   1.665   6.123 -2.4089 -2.4781 -1.2226
  320MOL0     H42189   0.626   1.916   6.195  1.0174  1.4043 -2.5878
  320MOL0     H42190   0.501   1.874   6.063  0.2665 -1.6400 -0.2310
  320MOL0     H42191   0.418   2.032   6.242  1.4521  0.5488  1.9551
  320MOL0     H42192   0.459   1.921   6.370 -4.6771 -1.1272  1.6746
  320MOL0     H42193   0.296   1.758   6.437  2.4748 -1.2061 -4.3239
  320MOL0     H42194   0.055   1.598   6.445  0.9779 -1.7436 -2.3306
  320MOL0     H42195  -0.072   1.633   6.328 -1.3122  1.3303 -0.5818
  320MOL0     H42196  -0.089   1.878   6.425  2.4838 -0.0726 -0.2419
  320MOL0     H42197  -0.018   1.808   6.567 -4.4817  0.4964  4.0317
  320MOL0     H42198  -0.225   1.620   6.534 -2.0795 -0.6071  0.1220
  320MOL0     H42199  -0.263   1.766   6.618 -0.1654 -1.6713 -0.0609
  320MOL0     H42200  -0.287   1.745   6.323  1.3014 -1.4957  0.6779
  320MOL0     H42201  -0.351   1.872   6.431  0.2516 -1.1128  3.8580
  320MOL0     H42202  -0.453   1.615   6.175 -0.6309 -1.6811 -2.1799
  320MOL0     H42203  -0.655   1.638   6.044 -2.1753 -2.3417  0.2579
  320MOL0     H42204  -1.009   1.939   5.960  0.5782 -1.2899  1.3558
  320MOL0     H42205  -1.198   2.065   5.870  0.6526 -2.2604 -1.3813
  320MOL0     H42206  -1.316   2.259   5.887  3.0042  0.8197  2.5650
  320MOL0     H42207  -1.351   2.288   6.067 -0.7537  0.0999 -0.0977
  320MOL0     H42208  -1.479   2.438   5.947 -1.4126 -0.0592 -4.2442
  320MOL0     H42209  -1.586   2.306   6.009 -1.5308  1.6007 -0.7183
  320MOL0     H42210  -1.457   2.323   5.724 -0.0525  0.1489 -0.8052
  320MOL0     H42211  -1.616   2.392   5.763  1.3253 -0.1442 -0.7246
  320MOL0     H42212  -1.552   2.090   5.796 -1.3546  0.4783  1.0623
  320MOL0     H42213  -1.716   2.166   5.766  0.5053  0.1640  0.2898
  320MOL0     H42214  -1.505   2.110   5.579  0.4210 -1.8548  1.8954
  320MOL0     H42215  -1.624   2.233   5.535 -2.6980 -0.0596  0.5788
  320MOL0     H42216  -1.808   2.070   5.553  0.2610  0.4423  1.3321
  320MOL0     H42217  -1.697   1.945   5.615  1.4539 -0.5563 -0.4367
  320MOL0     H42218  -1.766   1.968   5.368 -0.2956 -2.6208  1.0284
  320MOL0     H42219  -1.608   2.064   5.363  2.5884 -2.2857 -0.8956
  320MOL0     H42220  -1.609   1.780   5.493  0.2384 -0.9919 -1.4568
  320MOL0     H42221  -1.494   1.862   5.391 -0.2985  0.7758 -0.8766
  320MOL0     H42222  -1.415   1.990   6.231 -0.9014 -3.1320  0.1096
  320MOL0     H42223  -1.228   1.838   6.302  0.4562 -0.0950  0.2906
  320MOL0     H42224  -0.858   1.805   6.392 -1.7579 -3.0321 -0.3288
  320MOL0     H42225  -0.649   1.806   6.502  0.8292 -2.1291 -0.5112
  320MOL0     H42226   1.183   1.229   6.202  1.9780 -0.0079 -2.1735
  320MOL0     H42227   1.408   1.200   6.218 -3.4206  0.2230 -2.8683
  320MOL0     H42228   1.760   1.018   6.631  0.0040 -2.3109 -1.4348
  320MOL0     H42229   2.011   0.999   6.656  0.1419  0.2641 -1.7856
  320MOL0     H42230   2.249   1.322   6.500 -2.2609 -0.2981  1.9703
  320MOL0     H42231   2.297   1.188   6.396  4.1506  1.4770  0.3656
  320MOL0     H42232   2.480   1.296   6.557  0.1123  0.2649  3.1184
  320MOL0     H42233   2.403   1.187   6.672  1.4838 -0.5155  0.6016
  320MOL0     H42234   2.603   1.101   6.589  0.8394  0.3723 -1.2137
  320MOL0     H42235   2.539   1.094   6.428 -2.4323 -3.7628  0.3474
  320MOL0     H42236   2.450   0.933   6.666  0.8179  3.0403  0.5066
  320MOL0     H42237   2.366   0.926   6.498  0.8217 -1.9289 -0.3214
  320MOL0     H42238   2.699   0.689   6.414 -2.3692 -1.0161 -2.2996
  320MOL0     H42239   2.067   1.305   6.376  0.5152  0.2731  0.7518
  320MOL0     H42240   1.831   1.346   6.365 -0.8732 -0.9455  1.1526
  321MOL0     O42241   6.829   9.362   8.568  0.2049 -0.4659  0.2547
  321MOL0     C42242   6.822   9.276   8.651  0.2804 -0.1998 -0.1120
  321MOL0     O42243   6.702   9.237   8.706  0.4288 -0.5106 -0.2403
  321MOL0     C42244   6.581   9.296   8.685 -0.1979  0.5326 -1.1986
  321MOL0     C42245   6.547   9.408   8.616  0.3466  0.0145  1.1645
  321MOL0     C42246   6.419   9.446   8.593  0.2138 -0.2186 -0.4937
  321MOL0     C42247   6.308   9.393   8.655  0.0899  0.9959 -0.5962
  321MOL0     O42248   6.177   9.436   8.634  0.5263 -0.2087 -0.3624
  321MOL0     C42249   6.169   9.576   8.638 -0.0702  0.5082  0.5047
  321MOL0     C42250   6.026   9.631   8.652 -0.8121  0.4174 -0.2781
  321MOL0     C42251   5.973   9.612   8.799  0.4537  1.1185  0.6745
  321MOL0     C42252   5.859   9.705   8.834  0.4587  0.3299 -0.2236
  321MOL0     C42253   5.761   9.660   8.949  0.0247  0.3696  0.0688
  321MOL0     C42254   5.672   9.546   8.903  1.1606 -0.2827  0.8162
  321MOL0     C42255   5.564   9.518   9.015  0.2275 -0.9334  0.7368
  321MOL0     C42256   5.479   9.404   8.961  0.5295  0.3425 -0.6178
  321MOL0     N42257   5.348   9.378   9.029  0.4303 -0.4721 -0.1515
  321MOL0     C42258   5.296   9.255   9.043 -0.1307  0.3662 -0.1553
  321MOL0     C42259   5.184   9.281   9.101 -0.6260  0.5968 -0.1051
  321MOL0     C42260   5.079   9.185   9.140  0.3607 -0.2357  0.1945
  321MOL0     C42261   4.929   9.233   9.147  0.3232 -1.1767 -0.3174
  321MOL0     C42262   4.845   9.114   9.185  0.1108 -0.5608  0.3716
  321MOL0     C42263   4.706   9.163   9.197 -0.1324 -1.1286  0.3559
  321MOL0     O42264   4.637   9.034   9.224 -0.0913 -0.5195 -0.3860
  321MOL0     C42265   4.516   9.050   9.295  0.4646 -0.0055  0.0553
  321MOL0     C42266   4.444   8.946   9.342  0.4940  0.0825  0.2138
  321MOL0     C42267   4.317   8.947   9.395  0.1059  0.5812  0.3511
  321MOL0     C42268   4.245   9.065   9.415 -0.4715 -0.4238 -0.2225
  321MOL0     C42269   4.107   9.075   9.465 -0.0698  0.1914  0.5213
  321MOL0     O42270   4.068   9.199   9.497 -0.1843  0.0482  0.0978
  321MOL0     C42271   3.930   9.214   9.513 -0.4319  0.5443  0.8922
  321MOL0     C42272   3.855   9.274   9.407 -0.2504  0.0892 -0.3935
  321MOL0     C42273   3.717   9.284   9.423  0.3086  0.3032  0.2991
  321MOL0     C42274   3.649   9.240   9.532 -0.1785  0.0645 -0.2907
  321MOL0     O42275   3.513   9.255   9.549 -0.0170 -0.5592 -0.9537
  321MOL0     C42276   3.438   9.245   9.434  0.5861 -0.2994  1.0157
  321MOL0     C42277   3.293   9.220   9.470 -1.0914 -0.4538 -0.1874
  321MOL0     C42278   3.269   9.074   9.496  0.6654  0.3302  0.2207
  321MOL0     C42279   3.115   9.052   9.491 -0.3368  0.1778  0.0808
  321MOL0     C42280   3.094   8.919   9.561 -0.2596 -0.1454  1.4029
  321MOL0     C42281   2.961   8.851   9.527  0.0293  0.1620  0.4014
  321MOL0     C42282   2.839   8.938   9.568  0.1773  0.1912  0.8003
  321MOL0     C42283   2.707   8.885   9.505 -0.8517  0.2206 -1.0929
  321MOL0    Cl42284   2.652   8.721   9.581 -0.4773 -0.0794  0.6863
  321MOL0     C42285   3.723   9.186   9.634 -0.1812 -1.4696  0.3855
  321MOL0     C42286   3.856   9.170   9.629 -0.2609  0.1825  0.2152
  321MOL0     O42287   4.036   8.975   9.459  0.1101  0.7457  0.3517
  321MOL0     C42288   4.318   9.184   9.375 -0.8341 -0.1066 -0.3300
  321MOL0     C42289   4.447   9.169   9.317 -0.0568 -0.1869  0.1080
  321MOL0     N42290   5.161   9.422   9.101 -0.7237 -0.5137  0.0702
  321MOL0     N42291   5.260   9.478   9.052  0.4546 -0.4610  0.7683
  321MOL0     C42292   6.344   9.278   8.736 -0.0110 -0.2968 -0.1169
  321MOL0     C42293   6.478   9.238   8.752  1.1119 -0.0155  0.6895
  321MOL0     C42294   6.932   9.190   8.677 -0.2930  0.4926  0.6345
  321MOL0     C42295   6.924   9.068   8.753 -0.1222  0.3826  0.0018
  321MOL0     C42296   7.039   8.982   8.774  0.3139 -0.0896  0.4621
  321MOL0     C42297   7.165   9.021   8.729  0.5934 -0.0677  0.3867
  321MOL0     O42298   7.282   8.944   8.752  0.3685 -0.7930 -0.0816
  321MOL0     C42299   7.403   8.991   8.691  0.0591  0.9125  0.3108
  321MOL0     C42300   7.512   8.880   8.696  0.8173 -0.0293 -0.0079
  321MOL0     C42301   7.476   8.776   8.581 -0.5511 -0.2780 -0.3191
  321MOL0     C42302   7.600   8.685   8.552 -0.7704  0.6088 -0.6179
  321MOL0     C42303   7.582   8.606   8.429 -0.1778  0.1840  0.2190
  321MOL0     C42304   7.561   8.524   8.344  0.4745  0.7606 -0.3406
  321MOL0     C42305   7.169   9.141   8.664  0.0901  0.4207 -0.3029
  321MOL0     C42306   7.062   9.229   8.649  0.1051 -0.0991  0.1978
  321MOL0     H42307   6.619   9.459   8.553  1.1110 -1.0165  1.1626
  321MOL0     H42308   6.401   9.535   8.533 -2.2107 -0.9901 -1.0147
  321MOL0     H42309   6.214   9.622   8.549  1.5118  0.7458  1.3856
  321MOL0     H42310   6.221   9.624   8.722  0.2601  0.5265  0.2925
  321MOL0     H42311   5.969   9.567   8.584  0.4251 -0.0962 -0.8615
  321MOL0     H42312   6.015   9.735   8.620 -1.1539 -0.4655 -3.3911
  321MOL0     H42313   6.051   9.630   8.874  0.8124 -0.9479  0.8747
  321MOL0     H42314   5.941   9.511   8.827  0.0369  0.7487 -1.0384
  321MOL0     H42315   5.901   9.798   8.875  0.9629 -1.1016  2.7201
  321MOL0     H42316   5.791   9.728   8.751  1.9391  1.6801 -1.1444
  321MOL0     H42317   5.702   9.744   8.986 -1.0959 -1.1667  1.9934
  321MOL0     H42318   5.824   9.625   9.031  1.0955  0.2350 -0.7839
  321MOL0     H42319   5.736   9.462   8.877 -1.1340 -0.9733 -3.5033
  321MOL0     H42320   5.625   9.569   8.807  2.2336 -5.8785 -1.4214
  321MOL0     H42321   5.602   9.492   9.114  1.7836  1.1926  0.7749
  321MOL0     H42322   5.502   9.608   9.028 -1.4607 -2.0811  0.8933
  321MOL0     H42323   5.542   9.317   8.984 -0.5341  0.2809  2.5343
  321MOL0     H42324   5.469   9.407   8.852  5.2069 -0.3063 -1.3142
  321MOL0     H42325   5.340   9.163   9.007  3.8878  1.5547  1.1311
  321MOL0     H42326   5.110   9.144   9.237  1.4273 -3.3364 -1.3155
  321MOL0     H42327   5.086   9.104   9.066 -2.8124  0.4234 -1.0097
  321MOL0     H42328   4.892   9.271   9.051  1.7868 -1.5265 -1.0525
  321MOL0     H42329   4.918   9.302   9.231 -0.7591 -1.8611  0.1159
  321MOL0     H42330   4.849   9.035   9.109 -2.2110  0.7731 -1.2658
  321MOL0     H42331   4.874   9.071   9.281  1.0014  2.8176  1.7533
  321MOL0     H42332   4.666   9.197   9.101  1.0085 -0.8885 -0.0396
  321MOL0     H42333   4.692   9.230   9.282 -0.3724  1.4089 -1.5655
  321MOL0     H42334   4.491   8.850   9.325 -1.3539 -1.1665  1.7539
  321MOL0     H42335   4.270   8.853   9.422  1.6183 -1.4779 -3.4095
  321MOL0     H42336   3.907   9.318   9.323 -0.2818  0.8032 -0.0469
  321MOL0     H42337   3.671   9.325   9.333 -0.1336  0.1461  0.4534
  321MOL0     H42338   3.462   9.164   9.365  0.8312  2.8118 -2.9250
  321MOL0     H42339   3.453   9.339   9.380 -2.1858  0.2999  1.1635
  321MOL0     H42340   3.240   9.246   9.378  0.5421 -0.0507 -1.0504
  321MOL0     H42341   3.262   9.281   9.556 -1.7787  2.5130 -2.3464
  321MOL0     H42342   3.310   9.054   9.595  1.7067 -2.2122 -0.6513
  321MOL0     H42343   3.312   9.001   9.427 -0.6311 -1.1954  0.9692
  321MOL0     H42344   3.060   9.129   9.545  0.6189 -0.0768  1.4703
  321MOL0     H42345   3.074   9.055   9.389 -1.2875  4.2188  0.4076
  321MOL0     H42346   3.107   8.925   9.670  5.8087 -1.5920  1.1045
  321MOL0     H42347   3.166   8.844   9.527 -0.1436  1.0607 -1.2396
  321MOL0     H42348   2.956   8.753   9.576  0.2790  1.5162  3.3461
  321MOL0     H42349   2.965   8.835   9.419  0.9101 -0.7890  0.5662
  321MOL0     H42350   2.833   8.947   9.677  0.4921  0.4695  0.7953
  321MOL0     H42351   2.857   9.036   9.524  1.3479 -0.2260  0.2995
  321MOL0     H42352   2.726   8.868   9.399  1.9803 -0.0084 -0.6111
  321MOL0     H42353   2.634   8.965   9.518  0.8065  1.7605 -0.9629
  321MOL0     H42354   3.659   9.167   9.720 -5.5839 -0.5494 -2.9280
  321MOL0     H42355   3.911   9.133   9.715  0.6146 -1.2411 -0.8906
  321MOL0     H42356   4.282   9.286   9.384 -0.3021  0.0686 -0.1017
  321MOL0     H42357   4.492   9.259   9.275 -1.3993 -0.0478 -1.1286
  321MOL0     H42358   6.262   9.226   8.786 -2.0957 -0.5730 -3.5341
  321MOL0     H42359   6.504   9.154   8.815 -0.8115 -0.7675  0.5340
  321MOL0     H42360   6.831   9.031   8.794 -1.3106  2.5443 -0.6002
  321MOL0     H42361   7.027   8.891   8.833  1.5556 -2.1865 -2.2507
  321MOL0     H42362   7.440   9.080   8.742  2.5794  0.2940 -0.3215
  321MOL0     H42363   7.387   9.013   8.585 -2.2934 -1.7368  0.0061
  321MOL0     H42364   7.610   8.927   8.686  0.4703  0.5761 -0.6361
  321MOL0     H42365   7.512   8.838   8.797  3.2263  0.3580  0.2254
  321MOL0     H42366   7.441   8.831   8.493 -2.2708 -1.0093 -0.1389
  321MOL0     H42367   7.393   8.714   8.618 -2.1492  2.2770  0.7154
  321MOL0     H42368   7.685   8.754   8.545 -1.1943  1.1838 -0.2447
  321MOL0     H42369   7.626   8.622   8.637  0.5403 -1.9906 -2.8041
  321MOL0     H42370   7.538   8.454   8.266  1.9109 -0.8819  0.6425
  321MOL0     H42371   7.258   9.177   8.613  1.3215 -2.5338 -0.4998
  321MOL0     H42372   7.074   9.331   8.612 -0.3575  0.0729  0.5141
  322MOL0     O42373   3.430   5.687   4.575 -0.2969 -0.1638 -0.0078
  322MOL0     C42374   3.428   5.570   4.614  0.0094 -0.5478  0.3292
  322MOL0     O42375   3.320   5.486   4.606 -0.0263 -0.7531  0.1329
  322MOL0     C42376   3.205   5.539   4.562 -0.7459  0.1396 -0.0464
  322MOL0     C42377   3.191   5.559   4.428 -0.7022 -0.1208  0.2350
  322MOL0     C42378   3.075   5.619   4.370 -0.5327  1.1474 -0.0800
  322MOL0     C42379   2.964   5.654   4.459 -0.3699 -1.1316  0.1679
  322MOL0     O42380   2.837   5.686   4.422 -0.2169  0.1198  0.8089
  322MOL0     C42381   2.800   5.660   4.279  0.7849 -0.5936 -0.9144
  322MOL0     C42382   2.644   5.677   4.278  0.2454 -0.2892 -0.2487
  322MOL0     C42383   2.605   5.738   4.145  1.0547  0.6224  0.7542
  322MOL0     C42384   2.450   5.766   4.124 -0.8109  1.2983 -1.1240
  322MOL0     C42385   2.396   5.752   3.983 -0.3731  0.3330 -0.5582
  322MOL0     C42386   2.403   5.608   3.926 -0.1900  0.5912 -0.7413
  322MOL0     C42387   2.276   5.584   3.850  0.0639  0.2813  0.6686
  322MOL0     C42388   2.256   5.663   3.730 -0.0175  0.5246  0.4719
  322MOL0     N42389   2.119   5.670   3.677  0.2989 -0.2558  0.0344
  322MOL0     C42390   2.071   5.588   3.586 -0.1166 -0.9329  1.3258
  322MOL0     C42391   1.940   5.598   3.617  0.1076  0.2789  0.4614
  322MOL0     C42392   1.839   5.516   3.539  0.0707  0.0997  0.1663
  322MOL0     C42393   1.729   5.474   3.634 -0.5328 -0.4751  0.2741
  322MOL0     C42394   1.629   5.392   3.568  0.4118 -0.5499 -0.3896
  322MOL0     C42395   1.567   5.280   3.652  0.3336 -0.3081  0.4649
  322MOL0     O42396   1.454   5.209   3.595 -0.5512 -0.2817  0.2747
  322MOL0     C42397   1.324   5.249   3.614  0.0927 -0.3706  0.1894
  322MOL0     C42398   1.288   5.366   3.676  0.2170 -0.6714  0.9714
  322MOL0     C42399   1.148   5.395   3.700  0.1380 -0.0752  0.3296
  322MOL0     C42400   1.044   5.313   3.645 -0.4965  0.5110 -0.2978
  322MOL0     C42401   0.902   5.348   3.673  0.1708  0.3167 -0.0426
  322MOL0     O42402   0.875   5.454   3.758  0.2759 -1.1898 -0.3334
  322MOL0     C42403   0.747   5.503   3.776  0.6930  0.0130  0.6218
  322MOL0     C42404   0.732   5.636   3.807  0.0949  0.1525 -0.3693
  322MOL0     C42405   0.609   5.695   3.827 -1.0827  0.5910 -0.3683
  322MOL0     C42406   0.495   5.621   3.812  1.2243  0.3516 -0.6935
  322MOL0     O42407   0.364   5.666   3.818 -0.0290  0.4307 -0.0814
  322MOL0     C42408   0.331   5.802   3.817  1.1799 -0.4550 -0.3278
  322MOL0     C42409   0.182   5.799   3.819 -0.3170  0.0175  0.0604
  322MOL0     C42410   0.124   5.737   3.946  0.1141  0.1772  0.4076
  322MOL0     C42411  -0.030   5.721   3.934  0.1987  0.0805 -0.4597
  322MOL0     C42412  -0.104   5.639   4.031  0.4711 -0.6775 -0.4604
  322MOL0     C42413  -0.258   5.647   3.999 -1.2105  0.4419 -0.4207
  322MOL0     C42414  -0.319   5.785   4.023 -1.7197  0.2548  0.1343
  322MOL0     C42415  -0.463   5.781   4.036  1.0312 -0.0609  0.0683
  322MOL0    Cl42416  -0.553   5.735   3.889 -0.4736 -0.5505 -0.3381
  322MOL0     C42417   0.507   5.483   3.788  0.9604  0.6805  0.2320
  322MOL0     C42418   0.632   5.428   3.771  0.1064  0.6248  0.5579
  322MOL0     O42419   0.823   5.289   3.597 -0.0214  0.3238  0.1613
  322MOL0     C42420   1.085   5.204   3.576  0.0799  0.3112  0.3748
  322MOL0     C42421   1.221   5.166   3.576 -0.0893  0.0408  0.2690
  322MOL0     N42422   1.911   5.686   3.720  0.3092  0.7128 -0.5659
  322MOL0     N42423   2.025   5.734   3.752 -0.0731  0.4755 -0.5440
  322MOL0     C42424   2.988   5.635   4.593 -0.0422 -0.0602  0.4806
  322MOL0     C42425   3.110   5.592   4.645  0.4909  0.0987 -0.5771
  322MOL0     C42426   3.559   5.514   4.656 -0.2739  0.1961  0.6827
  322MOL0     C42427   3.552   5.411   4.756  0.1608 -0.4902 -1.0248
  322MOL0     C42428   3.676   5.363   4.803 -0.0060 -0.0339  0.2633
  322MOL0     C42429   3.805   5.407   4.749  0.0926 -0.3889 -0.8321
  322MOL0     O42430   3.923   5.355   4.784  0.6452 -0.2013 -0.0490
  322MOL0     C42431   3.943   5.268   4.892  0.3730  0.0506 -0.5934
  322MOL0     C42432   4.086   5.210   4.888 -0.2102 -0.3596 -0.6423
  322MOL0     C42433   4.124   5.125   5.008  0.1439  0.9913 -0.0270
  322MOL0     C42434   4.261   5.059   4.996 -0.5985 -0.1870 -0.2015
  322MOL0     C42435   4.311   5.017   5.130 -0.6499 -0.2712  0.3158
  322MOL0     C42436   4.380   4.988   5.223 -0.6941 -0.0993  0.2505
  322MOL0     C42437   3.806   5.502   4.646  0.6234 -0.0867 -0.8243
  322MOL0     C42438   3.680   5.539   4.596 -0.2633  0.0443 -1.1780
  322MOL0     H42439   3.264   5.528   4.353 -1.1508  0.2362 -0.3605
  322MOL0     H42440   3.065   5.616   4.262 -3.7890 -0.7453  0.1231
  322MOL0     H42441   2.835   5.564   4.240 -0.1539 -1.8903  1.2565
  322MOL0     H42442   2.849   5.738   4.221  2.1707  0.0653  1.0003
  322MOL0     H42443   2.605   5.749   4.351  0.6413  0.0036 -0.3190
  322MOL0     H42444   2.604   5.578   4.300 -0.2427  0.3183  1.7625
  322MOL0     H42445   2.656   5.672   4.074  1.3872 -0.4297  1.9318
  322MOL0     H42446   2.657   5.833   4.130  4.6194 -0.9643  2.0700
  322MOL0     H42447   2.403   5.691   4.189  2.0208 -0.1554 -0.6045
  322MOL0     H42448   2.418   5.860   4.170 -2.1140 -0.3781  1.6333
  322MOL0     H42449   2.446   5.817   3.911 -0.5678 -0.7296 -1.6951
  322MOL0     H42450   2.290   5.776   3.984 -0.4715  0.1706 -2.4302
  322MOL0     H42451   2.426   5.530   3.999  3.2916  0.8428 -1.3646
  322MOL0     H42452   2.491   5.609   3.860 -1.0749  2.0659 -1.9770
  322MOL0     H42453   2.278   5.479   3.818 -1.5989  0.6609 -0.8600
  322MOL0     H42454   2.187   5.577   3.913  1.4454 -0.9844  2.5714
  322MOL0     H42455   2.320   5.627   3.649  1.6412  2.9503  0.5644
  322MOL0     H42456   2.281   5.765   3.763  2.6162 -0.4464  1.8127
  322MOL0     H42457   2.126   5.525   3.516  3.9481 -1.1583  4.3240
  322MOL0     H42458   1.885   5.431   3.489 -2.4951 -0.8296 -0.7714
  322MOL0     H42459   1.789   5.578   3.464 -1.8764 -1.2820  0.2479
  322MOL0     H42460   1.675   5.560   3.677  1.1879  0.6214  0.3415
  322MOL0     H42461   1.763   5.409   3.714 -1.0544 -1.0425  0.0406
  322MOL0     H42462   1.559   5.458   3.517  2.6341  0.6901 -2.0456
  322MOL0     H42463   1.674   5.348   3.478  1.6709  0.7367 -0.4208
  322MOL0     H42464   1.540   5.321   3.749 -0.1188  0.7528 -0.0903
  322MOL0     H42465   1.645   5.203   3.653 -1.8096 -2.7208 -1.6537
  322MOL0     H42466   1.357   5.434   3.726 -0.2138  3.0726 -2.9380
  322MOL0     H42467   1.127   5.473   3.771  1.4078  0.5196  0.0854
  322MOL0     H42468   0.823   5.695   3.809 -0.9278  1.8534 -1.4234
  322MOL0     H42469   0.605   5.799   3.859 -2.2348 -0.3353  2.9131
  322MOL0     H42470   0.369   5.843   3.723 -2.1692  0.5717 -1.3863
  322MOL0     H42471   0.368   5.863   3.900 -0.3395 -3.1312  2.4883
  322MOL0     H42472   0.154   5.745   3.728  0.8636 -1.0967  0.3196
  322MOL0     H42473   0.133   5.896   3.806 -2.2723 -0.9095  0.1711
  322MOL0     H42474   0.149   5.798   4.033 -0.8285  0.3029  0.5922
  322MOL0     H42475   0.161   5.634   3.946  1.3223  0.5747 -0.3901
  322MOL0     H42476  -0.081   5.818   3.939  0.2521  0.1142 -0.5586
  322MOL0     H42477  -0.038   5.673   3.836 -0.5207  0.6500 -0.6912
  322MOL0     H42478  -0.085   5.684   4.129 -0.8168  2.5193 -1.5669
  322MOL0     H42479  -0.071   5.535   4.042 -0.0762 -0.7807  0.2333
  322MOL0     H42480  -0.307   5.572   4.062  1.9521  0.5110  2.3633
  322MOL0     H42481  -0.270   5.615   3.895  0.8356 -2.2978  0.0724
  322MOL0     H42482  -0.276   5.820   4.117 -1.7378 -0.2446  0.3266
  322MOL0     H42483  -0.290   5.858   3.947  0.6528  0.9086  1.5714
  322MOL0     H42484  -0.502   5.880   4.062 -0.2813 -0.6404  0.3978
  322MOL0     H42485  -0.489   5.702   4.107 -1.9055  1.2661  0.6191
  322MOL0     H42486   0.411   5.435   3.772 -0.4599  3.3999 -0.0594
  322MOL0     H42487   0.634   5.327   3.733  0.9396  1.7623 -2.7523
  322MOL0     H42488   1.018   5.131   3.531 -0.5051  1.0196  0.0939
  322MOL0     H42489   1.243   5.065   3.542  0.6282  0.8765 -1.9443
  322MOL0     H42490   2.909   5.679   4.654  1.7482 -0.8589  3.5901
  322MOL0     H42491   3.121   5.604   4.752  2.6921  0.4720 -0.8099
  322MOL0     H42492   3.456   5.388   4.801 -1.0393  2.8361 -1.6176
  322MOL0     H42493   3.673   5.299   4.890 -0.3549  1.5614  1.4597
  322MOL0     H42494   3.879   5.183   4.869 -0.7728  0.7781 -0.1542
  322MOL0     H42495   3.908   5.311   4.986 -0.5129  1.9036 -1.7146
  322MOL0     H42496   4.101   5.151   4.798  2.1939 -2.6219  1.0841
  322MOL0     H42497   4.152   5.296   4.870 -2.3032  0.8762 -2.9411
  322MOL0     H42498   4.051   5.044   5.021 -0.0311  1.2313  0.4828
  322MOL0     H42499   4.121   5.193   5.093 -2.0465  0.1695  0.6413
  322MOL0     H42500   4.267   4.977   4.924 -0.4220 -1.3508  1.0960
  322MOL0     H42501   4.337   5.130   4.963  0.1044 -0.3245  1.0599
  322MOL0     H42502   4.431   4.968   5.316 -1.0681  1.0846  0.7249
  322MOL0     H42503   3.895   5.542   4.598 -0.9034  4.4098 -0.4252
  322MOL0     H42504   3.685   5.600   4.506  3.0778  1.3571 -0.2724
  323MOL0     O42505   2.473   3.687   6.661 -0.0698  0.8548 -0.2836
  323MOL0     C42506   2.414   3.587   6.631 -0.0349 -0.0221  0.7186
  323MOL0     O42507   2.467   3.461   6.622  0.3174  0.1584 -0.0525
  323MOL0     C42508   2.599   3.452   6.660  0.6567  0.0334 -0.6119
  323MOL0     C42509   2.626   3.460   6.798 -0.3976 -0.2592 -0.3245
  323MOL0     C42510   2.748   3.451   6.844 -0.5143  0.3172  0.1772
  323MOL0     C42511   2.853   3.407   6.763 -0.8149 -0.4893 -0.3268
  323MOL0     O42512   2.980   3.416   6.820 -0.4295  0.5230 -0.2257
  323MOL0     C42513   3.101   3.382   6.736 -0.1544  0.2117 -0.3696
  323MOL0     C42514   3.219   3.374   6.833  0.5443 -0.2065 -0.0224
  323MOL0     C42515   3.342   3.325   6.751 -0.2453 -0.0085  0.1802
  323MOL0     C42516   3.471   3.338   6.822 -1.3006  0.2953  0.1778
  323MOL0     C42517   3.588   3.335   6.720 -0.5565  0.0955  0.6139
  323MOL0     C42518   3.615   3.206   6.648 -0.0137  0.9956 -0.1224
  323MOL0     C42519   3.743   3.216   6.565  0.9387 -0.0440  0.0342
  323MOL0     C42520   3.741   3.313   6.454 -0.3298 -0.1334 -0.4066
  323MOL0     N42521   3.853   3.297   6.365  0.8510 -0.1009 -0.5319
  323MOL0     C42522   3.991   3.299   6.399  0.3271 -0.6954 -0.3150
  323MOL0     C42523   4.059   3.267   6.287 -0.2996  0.5731  0.9423
  323MOL0     C42524   4.210   3.256   6.257 -0.9014  0.0993  0.2706
  323MOL0     C42525   4.295   3.263   6.388  0.3240 -0.3918  0.2552
  323MOL0     C42526   4.435   3.212   6.363 -0.5648  0.4246  0.6505
  323MOL0     C42527   4.504   3.185   6.498 -0.4623  0.1086 -0.2343
  323MOL0     O42528   4.634   3.147   6.456 -0.2324 -0.9548  0.3560
  323MOL0     C42529   4.718   3.066   6.539  0.6002 -0.3865 -0.1224
  323MOL0     C42530   4.856   3.060   6.525 -0.3890 -0.0659  0.0874
  323MOL0     C42531   4.937   2.989   6.609 -0.6395 -0.0263  0.7635
  323MOL0     C42532   4.885   2.903   6.701 -0.6970  0.1699  0.2670
  323MOL0     C42533   4.972   2.803   6.770  0.2326  0.2731 -0.1610
  323MOL0     O42534   5.115   2.813   6.758 -0.0290  0.2747 -0.4201
  323MOL0     C42535   5.203   2.713   6.803 -0.8499 -0.3597  0.2627
  323MOL0     C42536   5.311   2.688   6.714 -0.3249  1.5315  0.9801
  323MOL0     C42537   5.407   2.594   6.755 -0.1655  0.0520 -0.8206
  323MOL0     C42538   5.399   2.522   6.869  0.9523 -0.1453  0.0220
  323MOL0     O42539   5.491   2.429   6.903  0.1634 -0.1227 -0.3319
  323MOL0     C42540   5.465   2.301   6.859  0.1840  0.2737 -0.6951
  323MOL0     C42541   5.537   2.197   6.936 -1.1199  0.4546  0.2082
  323MOL0     C42542   5.488   2.058   6.894  0.5797  1.0674  0.0971
  323MOL0     C42543   5.388   2.002   7.007  0.3443  0.0412 -1.1725
  323MOL0     C42544   5.324   1.858   6.993  0.5939 -0.0992 -0.8014
  323MOL0     C42545   5.424   1.749   6.959 -0.1733 -0.2180 -0.1952
  323MOL0     C42546   5.372   1.615   6.931 -0.7196  0.4450  1.2166
  323MOL0     C42547   5.455   1.527   6.843  0.7945 -0.4520  0.1444
  323MOL0    Cl42548   5.352   1.379   6.788  0.3832  0.6759  0.1098
  323MOL0     C42549   5.293   2.550   6.952  0.1238  1.1950 -0.3077
  323MOL0     C42550   5.190   2.642   6.918 -0.5497 -0.5237 -0.0468
  323MOL0     O42551   4.910   2.706   6.825 -0.0681 -0.4504 -0.5505
  323MOL0     C42552   4.745   2.911   6.726 -0.4189  0.0842  1.1433
  323MOL0     C42553   4.662   2.994   6.645 -0.2208 -1.1951 -0.1027
  323MOL0     N42554   3.974   3.226   6.190  1.2168  0.3510  0.3089
  323MOL0     N42555   3.852   3.259   6.234  0.3478 -0.0229  0.2241
  323MOL0     C42556   2.829   3.399   6.626 -0.2072  0.0553 -0.4405
  323MOL0     C42557   2.700   3.417   6.568  0.0748  0.0878 -0.3474
  323MOL0     C42558   2.277   3.616   6.592  0.2849  0.6194  0.7031
  323MOL0     C42559   2.226   3.739   6.542 -0.0810 -0.6818 -0.5940
  323MOL0     C42560   2.086   3.740   6.494 -0.0537 -0.1311  0.5020
  323MOL0     C42561   2.004   3.634   6.503 -0.0487 -0.1780  0.8794
  323MOL0     O42562   1.895   3.643   6.417  0.9871  0.6343  1.0979
  323MOL0     C42563   1.833   3.525   6.359  0.3408 -0.3733  0.1016
  323MOL0     C42564   1.705   3.563   6.278 -0.0992  0.7181 -0.9426
  323MOL0     C42565   1.634   3.438   6.222  0.9386  0.4194  0.4361
  323MOL0     C42566   1.588   3.341   6.327  0.6122 -0.4703 -0.4072
  323MOL0     C42567   1.442   3.360   6.351  0.1360 -0.3375  0.6097
  323MOL0     C42568   1.323   3.366   6.360 -0.8627  0.6712  0.0272
  323MOL0     C42569   2.064   3.509   6.542  1.0452 -0.6993  0.0962
  323MOL0     C42570   2.193   3.502   6.587  0.9618  0.1569 -0.4821
  323MOL0     H42571   2.544   3.488   6.862  0.0938  0.4563  0.0014
  323MOL0     H42572   2.771   3.475   6.948  1.6070  1.1910 -0.4433
  323MOL0     H42573   3.125   3.457   6.660  0.3532  0.9377  0.4780
  323MOL0     H42574   3.087   3.285   6.689  0.7114 -1.0856  1.8629
  323MOL0     H42575   3.197   3.305   6.915 -0.9285 -0.1424 -0.3400
  323MOL0     H42576   3.245   3.471   6.875  3.1315  0.6607 -3.2172
  323MOL0     H42577   3.354   3.374   6.654  1.3476 -0.5344  0.0747
  323MOL0     H42578   3.324   3.218   6.732 -1.7048  0.4143 -0.9908
  323MOL0     H42579   3.477   3.426   6.887 -0.1873 -0.2166  0.7870
  323MOL0     H42580   3.475   3.254   6.891 -0.4610  0.9584  0.9623
  323MOL0     H42581   3.684   3.364   6.763 -0.0043 -0.3755 -0.2901
  323MOL0     H42582   3.560   3.410   6.645 -3.2820 -1.0673  0.3227
  323MOL0     H42583   3.528   3.164   6.596 -0.1355 -0.6053  1.3115
  323MOL0     H42584   3.645   3.140   6.730  0.4084 -2.0424 -2.5311
  323MOL0     H42585   3.834   3.227   6.625  1.0039 -1.3478  0.1882
  323MOL0     H42586   3.765   3.124   6.511  1.8189  0.0290  0.2605
  323MOL0     H42587   3.745   3.415   6.493  0.2444  0.7165 -2.5571
  323MOL0     H42588   3.653   3.294   6.391 -0.7845 -0.0336  0.1829
  323MOL0     H42589   4.039   3.312   6.495 -0.4065 -0.0393 -0.0329
  323MOL0     H42590   4.235   3.333   6.184 -1.1975 -2.5728 -2.9000
  323MOL0     H42591   4.240   3.163   6.208  0.3776 -0.0036  1.1826
  323MOL0     H42592   4.247   3.201   6.464 -0.1622 -1.8542 -1.1792
  323MOL0     H42593   4.302   3.364   6.427  0.1330 -1.1358  2.3369
  323MOL0     H42594   4.437   3.123   6.301 -2.2899  0.1523  0.9428
  323MOL0     H42595   4.492   3.286   6.307 -0.7188 -0.8966 -1.3283
  323MOL0     H42596   4.449   3.108   6.553  0.8053  0.3403  1.4306
  323MOL0     H42597   4.513   3.271   6.565  3.8176  0.0627 -0.5126
  323MOL0     H42598   4.909   3.108   6.442  1.9392 -1.4978  0.6646
  323MOL0     H42599   5.043   3.001   6.590 -0.2764 -2.6417  0.7407
  323MOL0     H42600   5.320   2.746   6.622  0.0051  1.9348  1.2621
  323MOL0     H42601   5.498   2.566   6.704 -0.6738  2.2585 -3.1467
  323MOL0     H42602   5.483   2.283   6.752  1.1725  0.2543 -0.5316
  323MOL0     H42603   5.359   2.292   6.886 -0.3660  3.8882 -1.1049
  323MOL0     H42604   5.538   2.217   7.044  1.3739 -0.3014  0.3718
  323MOL0     H42605   5.643   2.208   6.914 -1.7214  4.7590 -1.7521
  323MOL0     H42606   5.575   1.994   6.873 -0.0697  0.5359 -1.1139
  323MOL0     H42607   5.429   2.058   6.801 -1.3025 -0.1272  1.2283
  323MOL0     H42608   5.454   1.993   7.094 -0.8112 -2.7539 -0.4896
  323MOL0     H42609   5.306   2.068   7.037 -1.1408 -2.7303  1.4371
  323MOL0     H42610   5.254   1.871   6.910 -0.7723 -1.7201  0.0421
  323MOL0     H42611   5.268   1.833   7.084 -0.3784 -0.9395 -1.6088
  323MOL0     H42612   5.490   1.739   7.046 -1.2528 -2.0045  0.4602
  323MOL0     H42613   5.489   1.770   6.873 -1.6864 -0.2557 -1.3851
  323MOL0     H42614   5.343   1.574   7.029 -5.1156 -0.1586 -0.1332
  323MOL0     H42615   5.275   1.621   6.881 -2.4341 -0.4076  4.1859
  323MOL0     H42616   5.557   1.507   6.877  2.9841  3.2367 -3.3225
  323MOL0     H42617   5.482   1.576   6.749 -2.6006 -2.5667 -2.2017
  323MOL0     H42618   5.283   2.483   7.037 -1.1966  1.1502 -0.4896
  323MOL0     H42619   5.108   2.649   6.989 -0.9165 -2.8873 -0.1533
  323MOL0     H42620   4.694   2.843   6.793 -1.8061 -0.1794 -0.1432
  323MOL0     H42621   4.556   2.975   6.660 -0.2866 -0.9806 -0.2960
  323MOL0     H42622   2.915   3.371   6.566 -1.0816 -1.9534 -0.8479
  323MOL0     H42623   2.679   3.394   6.465 -2.0007  0.2040  0.0086
  323MOL0     H42624   2.283   3.831   6.549  1.0810 -1.4384  0.4359
  323MOL0     H42625   2.059   3.838   6.455  2.1966  0.5184  0.4465
  323MOL0     H42626   1.818   3.465   6.449  2.0501 -1.9486 -0.5983
  323MOL0     H42627   1.899   3.466   6.294  0.0181 -1.1321  0.4528
  323MOL0     H42628   1.641   3.610   6.353  1.2509 -1.8885  2.0114
  323MOL0     H42629   1.741   3.639   6.207  1.3376  1.3067  0.3637
  323MOL0     H42630   1.707   3.384   6.162 -2.7129  0.1012 -4.2854
  323MOL0     H42631   1.557   3.456   6.147 -0.3686 -0.6240  1.4638
  323MOL0     H42632   1.601   3.240   6.286  1.5941 -0.5164 -0.0136
  323MOL0     H42633   1.656   3.352   6.411 -2.2165 -1.2033  2.1391
  323MOL0     H42634   1.217   3.368   6.373 -0.8157 -0.3139  0.6822
  323MOL0     H42635   2.012   3.414   6.534  2.6280 -1.6463  0.6210
  323MOL0     H42636   2.235   3.405   6.612 -2.7539 -2.0580 -1.9824
  324MOL0     O42637  10.546   3.054   4.338 -0.6344  0.6164 -0.7137
  324MOL0     C42638  10.554   3.113   4.231  0.0754 -0.0126  0.0544
  324MOL0     O42639  10.455   3.171   4.157 -0.6226  0.7101  0.6889
  324MOL0     C42640  10.328   3.188   4.202 -0.6106 -0.9869 -0.4213
  324MOL0     C42641  10.269   3.165   4.325 -0.1008 -0.5017 -0.0602
  324MOL0     C42642  10.134   3.168   4.352 -0.3618 -0.0068  0.2348
  324MOL0     C42643  10.041   3.209   4.255 -0.1739 -0.9501  0.5671
  324MOL0     O42644   9.912   3.231   4.262  0.1633 -0.9090 -0.2108
  324MOL0     C42645   9.853   3.227   4.390 -0.7915  0.4341  0.4953
  324MOL0     C42646   9.705   3.213   4.366  0.5682  0.5716  0.4861
  324MOL0     C42647   9.631   3.195   4.503  0.2914  0.3187  0.7311
  324MOL0     C42648   9.483   3.168   4.474 -0.6450  0.8109 -0.3087
  324MOL0     C42649   9.395   3.179   4.592 -0.1617  0.6108 -0.1485
  324MOL0     C42650   9.243   3.159   4.555 -0.0227 -0.0806  0.5522
  324MOL0     C42651   9.197   3.015   4.525  0.1366  0.7990 -0.3943
  324MOL0     C42652   9.044   3.013   4.532  0.8813  0.2541 -0.2938
  324MOL0     N42653   8.993   2.995   4.670  0.4807  0.3596 -0.0095
  324MOL0     C42654   8.941   3.096   4.737  0.5038  0.4101  0.3514
  324MOL0     C42655   8.848   3.049   4.826 -0.3876  0.8001  0.5402
  324MOL0     C42656   8.767   3.131   4.915  0.7931 -0.3371  0.1070
  324MOL0     C42657   8.625   3.080   4.921 -1.3245  0.9227  0.1550
  324MOL0     C42658   8.544   3.166   5.008 -0.0263 -0.3752  0.0894
  324MOL0     C42659   8.405   3.128   5.045 -0.3783  0.8739 -0.0900
  324MOL0     O42660   8.405   3.011   5.125  0.7799  0.0470  0.0165
  324MOL0     C42661   8.280   2.956   5.156 -0.1103 -0.8565  0.0844
  324MOL0     C42662   8.265   2.834   5.229 -0.2766 -0.4724  0.1666
  324MOL0     C42663   8.142   2.776   5.256 -0.4130  1.3093 -0.2833
  324MOL0     C42664   8.020   2.855   5.240  0.8690  0.5731  0.5345
  324MOL0     C42665   7.893   2.803   5.277  0.2920 -0.9481 -0.2559
  324MOL0     O42666   7.885   2.691   5.361  0.9032  0.3215 -0.6093
  324MOL0     C42667   7.773   2.677   5.438 -0.1706  0.1068  0.4124
  324MOL0     C42668   7.672   2.592   5.394 -0.0059 -0.2141 -0.2705
  324MOL0     C42669   7.564   2.584   5.482  0.3476 -0.6552 -0.9144
  324MOL0     C42670   7.564   2.641   5.614  0.7621  1.3388 -0.1980
  324MOL0     O42671   7.468   2.625   5.713 -0.3864  0.6540 -0.8413
  324MOL0     C42672   7.325   2.635   5.693  0.2596 -0.0215 -0.0525
  324MOL0     C42673   7.256   2.543   5.799 -0.8943 -0.4741  0.0585
  324MOL0     C42674   7.104   2.553   5.793 -0.4701  0.2401 -0.5319
  324MOL0     C42675   7.035   2.467   5.894  0.4318 -0.0074  0.1183
  324MOL0     C42676   6.878   2.466   5.878 -0.3495  0.2552 -1.8710
  324MOL0     C42677   6.847   2.388   5.749  0.6647  0.0690  0.5586
  324MOL0     C42678   6.706   2.335   5.746  0.0671  0.0762 -0.1150
  324MOL0     C42679   6.689   2.213   5.825  0.7149  0.9197 -0.0925
  324MOL0    Cl42680   6.516   2.136   5.789 -0.5125 -0.3723 -0.4804
  324MOL0     C42681   7.676   2.717   5.659 -0.4499  0.2416  0.4282
  324MOL0     C42682   7.784   2.736   5.561  0.7713  0.1522  0.0954
  324MOL0     O42683   7.798   2.874   5.247  0.9605 -0.5286  0.0583
  324MOL0     C42684   8.029   2.974   5.159 -0.1580  1.0312  0.3535
  324MOL0     C42685   8.160   3.023   5.120  0.4471  0.7099  0.7724
  324MOL0     N42686   8.871   2.909   4.815 -0.1692 -0.5907  0.0576
  324MOL0     N42687   8.957   2.880   4.733 -0.1687  0.2335  0.1816
  324MOL0     C42688  10.099   3.247   4.130  0.8513 -1.2945  0.4292
  324MOL0     C42689  10.240   3.231   4.106 -0.2397 -0.8393  0.0970
  324MOL0     C42690  10.692   3.114   4.182 -0.8689  0.6599 -1.1636
  324MOL0     C42691  10.723   3.208   4.090  0.5057  0.8392 -0.6598
  324MOL0     C42692  10.854   3.234   4.039 -1.1657 -0.0819  0.2167
  324MOL0     C42693  10.951   3.152   4.091  0.5725  0.3409  0.2815
  324MOL0     O42694  11.089   3.168   4.065 -0.2672  0.2780  0.1981
  324MOL0     C42695  11.129   3.262   3.956 -1.0229 -0.0982  0.3418
  324MOL0     C42696  11.284   3.265   3.943  0.1337  0.3580  0.3858
  324MOL0     C42697  11.342   3.127   3.902 -0.4980 -0.6015  0.0802
  324MOL0     C42698  11.349   3.026   4.014  0.0914  1.1382  0.3075
  324MOL0     C42699  11.468   2.941   4.026 -0.3286 -0.6828 -0.0277
  324MOL0     C42700  11.558   2.868   4.046 -0.2061  0.8607  0.5771
  324MOL0     C42701  10.933   3.055   4.188  0.5921  0.4975  0.4106
  324MOL0     C42702  10.805   3.028   4.227 -0.0114  0.0484  0.8625
  324MOL0     H42703  10.333   3.120   4.401 -0.0268 -2.0263 -1.0029
  324MOL0     H42704  10.102   3.134   4.451  0.8167 -0.9417  0.3219
  324MOL0     H42705   9.872   3.317   4.451  0.3995  0.8599 -0.4510
  324MOL0     H42706   9.875   3.138   4.450  0.1911 -1.0803 -1.9744
  324MOL0     H42707   9.677   3.126   4.306 -0.3156 -0.1446  1.8924
  324MOL0     H42708   9.673   3.301   4.309 -0.1118 -1.3538 -2.3249
  324MOL0     H42709   9.629   3.292   4.554  0.2163 -0.0617  1.4611
  324MOL0     H42710   9.677   3.120   4.566 -0.1783 -0.2193  0.4450
  324MOL0     H42711   9.444   3.234   4.397 -3.9946 -0.1765  0.3616
  324MOL0     H42712   9.464   3.067   4.436 -2.3860  1.6797 -1.9214
  324MOL0     H42713   9.388   3.283   4.626  1.0081 -0.0780  2.3767
  324MOL0     H42714   9.436   3.123   4.676  1.0400  2.6111  0.6951
  324MOL0     H42715   9.217   3.206   4.460 -1.7934 -2.7856 -0.4383
  324MOL0     H42716   9.180   3.193   4.638 -2.6712 -1.1038 -0.8984
  324MOL0     H42717   9.250   2.990   4.432 -0.2553 -2.4844  0.1467
  324MOL0     H42718   9.230   2.945   4.602  2.5228  4.2882  2.1075
  324MOL0     H42719   9.002   2.934   4.470  1.8586 -1.3151  0.9741
  324MOL0     H42720   9.007   3.108   4.492 -0.8178 -0.0148  0.5256
  324MOL0     H42721   8.950   3.201   4.713  4.1805  0.1646  0.0802
  324MOL0     H42722   8.758   3.232   4.874 -1.9874 -0.5788 -0.0794
  324MOL0     H42723   8.808   3.123   5.016  1.5556 -0.4326 -0.2047
  324MOL0     H42724   8.637   2.980   4.965  0.9103  1.2925  0.4613
  324MOL0     H42725   8.579   3.084   4.821  0.6532 -0.1161 -0.8553
  324MOL0     H42726   8.597   3.207   5.095 -1.5194  3.1919 -0.4729
  324MOL0     H42727   8.530   3.257   4.948  2.6183 -1.8662 -3.0919
  324MOL0     H42728   8.352   3.103   4.953 -0.9136 -1.8968  0.8485
  324MOL0     H42729   8.353   3.200   5.108  0.5393  0.8367  0.7311
  324MOL0     H42730   8.354   2.783   5.264  0.3500  2.3879  3.2668
  324MOL0     H42731   8.137   2.681   5.309  0.5845  0.8350 -1.0074
  324MOL0     H42732   7.677   2.535   5.302  0.1807  1.1844 -1.1590
  324MOL0     H42733   7.488   2.519   5.441 -1.0071 -0.2184  0.8205
  324MOL0     H42734   7.297   2.605   5.592 -2.0310 -1.0759  0.8172
  324MOL0     H42735   7.291   2.739   5.695  0.5737  0.0839  1.3363
  324MOL0     H42736   7.288   2.589   5.894 -1.2009 -0.0936 -0.0174
  324MOL0     H42737   7.290   2.440   5.790  2.7394  0.5138  0.8887
  324MOL0     H42738   7.075   2.522   5.692  0.4367  2.0281 -1.3796
  324MOL0     H42739   7.070   2.656   5.810  2.0611  1.0716 -0.0013
  324MOL0     H42740   7.078   2.367   5.886  0.6319  0.1558 -0.9905
  324MOL0     H42741   7.063   2.506   5.993  0.6993  1.1337 -0.3891
  324MOL0     H42742   6.846   2.570   5.864  1.0914  1.3918  2.0628
  324MOL0     H42743   6.842   2.418   5.969 -1.4127  1.1981 -1.7705
  324MOL0     H42744   6.917   2.307   5.726  1.5158  1.2067 -0.9891
  324MOL0     H42745   6.867   2.456   5.666 -0.9592 -0.5594 -0.3886
  324MOL0     H42746   6.642   2.411   5.791  1.7418  1.3707  0.1738
  324MOL0     H42747   6.684   2.314   5.641  1.8092  0.0158 -0.4996
  324MOL0     H42748   6.705   2.222   5.933 -0.0940  3.1235 -0.0900
  324MOL0     H42749   6.755   2.141   5.777 -0.6707  0.6632 -1.6890
  324MOL0     H42750   7.680   2.766   5.756  0.1876 -1.1957  1.1550
  324MOL0     H42751   7.863   2.805   5.588  0.9026 -0.0572  0.2516
  324MOL0     H42752   7.953   3.045   5.129 -1.1700 -0.5191 -0.8868
  324MOL0     H42753   8.153   3.109   5.055 -0.1645 -0.2903 -0.5388
  324MOL0     H42754  10.031   3.294   4.060  0.2971 -2.3369  0.2487
  324MOL0     H42755  10.282   3.262   4.010 -3.1058 -0.7239 -1.2344
  324MOL0     H42756  10.643   3.274   4.060  2.1279  3.4537  0.3929
  324MOL0     H42757  10.877   3.317   3.974  1.3616 -0.7805  0.1204
  324MOL0     H42758  11.102   3.366   3.975  0.3275  0.2227  0.6409
  324MOL0     H42759  11.079   3.239   3.861  2.5782  1.0076 -2.0465
  324MOL0     H42760  11.314   3.330   3.861 -0.3406  1.6141  1.1856
  324MOL0     H42761  11.330   3.299   4.037  0.0912 -0.3036  0.6519
  324MOL0     H42762  11.443   3.143   3.865 -0.7170  0.9648  0.0964
  324MOL0     H42763  11.283   3.089   3.818 -1.4925 -2.3979  1.4968
  324MOL0     H42764  11.333   3.072   4.112 -0.1425  1.0387  0.3191
  324MOL0     H42765  11.262   2.959   4.009  1.5206 -0.8571  0.8779
  324MOL0     H42766  11.646   2.807   4.052 -0.3431  0.5856 -0.1047
  324MOL0     H42767  11.016   2.997   4.228  1.8816  0.2984 -2.2986
  324MOL0     H42768  10.783   2.948   4.297 -2.3162 -0.4600 -0.3038
  325MOL0     O42769   8.060   9.593   4.122  0.5776 -0.0067  0.0031
  325MOL0     C42770   8.090   9.604   4.001  0.2197 -0.5960 -0.9713
  325MOL0     O42771   8.008   9.600   3.897 -0.0745  0.4507 -0.2846
  325MOL0     C42772   7.878   9.600   3.929 -0.2263 -0.8659 -0.9564
  325MOL0     C42773   7.806   9.481   3.930  0.2113  0.3510  0.0124
  325MOL0     C42774   7.672   9.486   3.952  0.4488 -0.1679  0.3962
  325MOL0     C42775   7.606   9.600   3.973 -0.4296 -0.0567  0.4880
  325MOL0     O42776   7.467   9.587   3.991 -0.9721  0.4261 -0.0271
  325MOL0     C42777   7.389   9.582   3.872 -0.6139 -0.4676 -0.0307
  325MOL0     C42778   7.294   9.463   3.890 -0.7956  0.0255 -0.8270
  325MOL0     C42779   7.187   9.487   3.997 -0.1052 -0.4738  0.0774
  325MOL0     C42780   7.075   9.389   3.973 -0.3295  0.2978  0.1269
  325MOL0     C42781   6.961   9.372   4.062 -0.2613 -0.0622  0.4682
  325MOL0     C42782   6.878   9.501   4.056 -0.0246 -0.2529 -0.3443
  325MOL0     C42783   6.757   9.497   4.152  0.1521  0.4671 -0.1564
  325MOL0     C42784   6.637   9.414   4.116 -0.1029  0.1013  0.4515
  325MOL0     N42785   6.523   9.435   4.210  0.6377 -0.3144 -0.1791
  325MOL0     C42786   6.442   9.545   4.214  0.0094  1.3548  0.6575
  325MOL0     C42787   6.346   9.512   4.298 -0.2519 -0.2103 -0.0225
  325MOL0     C42788   6.220   9.595   4.335 -0.7926  0.0967  0.9406
  325MOL0     C42789   6.100   9.527   4.269 -0.1679  0.0886 -1.6783
  325MOL0     C42790   6.064   9.388   4.329 -0.0215 -0.1559 -0.4984
  325MOL0     C42791   5.907   9.364   4.320 -1.0250 -0.4508  0.1741
  325MOL0     O42792   5.844   9.424   4.435  0.1507  0.1400 -0.2723
  325MOL0     C42793   5.718   9.406   4.456  1.0335 -0.6211  0.1964
  325MOL0     C42794   5.615   9.342   4.384 -0.2056 -0.0421  0.0432
  325MOL0     C42795   5.484   9.334   4.430  0.5720 -0.8712  0.2540
  325MOL0     C42796   5.436   9.413   4.536 -0.3246 -0.3981 -0.3120
  325MOL0     C42797   5.299   9.420   4.575 -0.2320  0.2813 -0.3704
  325MOL0     O42798   5.227   9.324   4.510 -0.5946 -0.1558 -0.9390
  325MOL0     C42799   5.091   9.314   4.500  0.1187 -0.2734 -0.6524
  325MOL0     C42800   5.053   9.207   4.414 -0.6247  0.2099 -0.2619
  325MOL0     C42801   4.917   9.175   4.398 -0.6699 -0.4383 -0.1179
  325MOL0     C42802   4.817   9.248   4.465 -0.3152 -0.5050  0.7420
  325MOL0     O42803   4.681   9.217   4.469 -0.4445  0.1681  0.0741
  325MOL0     C42804   4.624   9.182   4.597 -0.7461 -0.4493  0.0946
  325MOL0     C42805   4.468   9.169   4.571  0.0981  0.2171  0.5531
  325MOL0     C42806   4.421   9.096   4.701  0.3970  0.4941  0.2347
  325MOL0     C42807   4.444   9.165   4.832  0.0756 -0.2673 -0.4228
  325MOL0     C42808   4.346   9.111   4.939  0.2956  0.7543 -0.2831
  325MOL0     C42809   4.376   9.174   5.080 -0.3242 -0.5303 -0.2417
  325MOL0     C42810   4.263   9.135   5.164  0.2539  0.3862  0.3955
  325MOL0     C42811   4.273   9.181   5.310  0.4303  0.4172  0.7695
  325MOL0    Cl42812   4.374   9.085   5.420  0.0182 -0.0544  0.3925
  325MOL0     C42813   4.862   9.349   4.551 -0.2319 -0.5040  0.3078
  325MOL0     C42814   4.991   9.382   4.572  0.0980  0.2545  0.3046
  325MOL0     O42815   5.257   9.502   4.655  0.7111  0.3280 -0.4759
  325MOL0     C42816   5.542   9.474   4.608 -0.5833  0.1385 -1.0994
  325MOL0     C42817   5.677   9.463   4.571  0.0314 -1.1857 -1.4000
  325MOL0     N42818   6.370   9.388   4.351 -0.0367 -0.2326 -0.1042
  325MOL0     N42819   6.481   9.344   4.298  0.5657  0.4681 -0.3626
  325MOL0     C42820   7.669   9.718   3.960 -0.0087  0.2568 -0.8234
  325MOL0     C42821   7.810   9.722   3.944  0.0389  0.1252 -0.5604
  325MOL0     C42822   8.231   9.613   3.969 -0.6372 -0.5085  0.5000
  325MOL0     C42823   8.287   9.572   3.847  0.0969 -0.2932 -0.8044
  325MOL0     C42824   8.425   9.583   3.821  0.0861 -0.2609 -0.2545
  325MOL0     C42825   8.522   9.624   3.911  0.0681  0.2268  0.2670
  325MOL0     O42826   8.657   9.618   3.876  0.2126  0.4716  0.8747
  325MOL0     C42827   8.751   9.676   3.964 -0.5811  0.3195 -0.8238
  325MOL0     C42828   8.893   9.608   3.928  0.2199 -0.3722 -0.1377
  325MOL0     C42829   8.991   9.654   4.035  0.4912 -0.8843  0.1126
  325MOL0     C42830   9.116   9.567   4.049  0.3891 -0.3359  0.2830
  325MOL0     C42831   9.219   9.625   3.958 -1.0590  0.0257  0.1191
  325MOL0     C42832   9.288   9.663   3.864  0.7517 -0.8124 -0.5428
  325MOL0     C42833   8.466   9.664   4.036 -0.3016  0.3584  0.4653
  325MOL0     C42834   8.327   9.657   4.063 -0.4193 -0.3636  0.4705
  325MOL0     H42835   7.850   9.382   3.915  2.0907  1.2969 -1.0299
  325MOL0     H42836   7.607   9.400   3.954 -0.4570  0.4592 -0.9475
  325MOL0     H42837   7.457   9.562   3.789  0.8493 -2.3322  1.5304
  325MOL0     H42838   7.346   9.683   3.872  0.3600 -0.0271  0.9542
  325MOL0     H42839   7.363   9.383   3.918  1.9341  2.0716 -1.1933
  325MOL0     H42840   7.253   9.442   3.791  1.5360  0.4085 -1.9571
  325MOL0     H42841   7.142   9.587   3.993 -4.0043 -1.9037  2.6115
  325MOL0     H42842   7.229   9.482   4.097  0.3414 -1.0319 -0.1352
  325MOL0     H42843   7.039   9.405   3.871  2.1049  2.2206 -0.5246
  325MOL0     H42844   7.122   9.290   3.972 -0.1887  0.3703 -0.7333
  325MOL0     H42845   6.994   9.362   4.165  0.9663  1.1475  0.2241
  325MOL0     H42846   6.901   9.286   4.030 -0.8417  0.7411 -0.7151
  325MOL0     H42847   6.851   9.515   3.951  1.0434 -2.0916 -0.9148
  325MOL0     H42848   6.940   9.587   4.082 -1.8553  1.8401 -2.4814
  325MOL0     H42849   6.792   9.451   4.245  1.0620  2.5043  0.5821
  325MOL0     H42850   6.729   9.601   4.174  2.6901  1.2080 -0.0794
  325MOL0     H42851   6.666   9.313   4.147  0.9561  0.4196  0.5588
  325MOL0     H42852   6.604   9.437   4.015 -1.6085 -1.7438  0.4691
  325MOL0     H42853   6.456   9.632   4.150 -2.8121  0.2095 -1.7347
  325MOL0     H42854   6.243   9.696   4.299 -0.7270  0.1263  1.0648
  325MOL0     H42855   6.192   9.609   4.440 -1.1016  6.4886  0.4081
  325MOL0     H42856   6.104   9.519   4.160 -2.1744 -1.4016 -1.7042
  325MOL0     H42857   6.013   9.590   4.291  0.7762  1.2564 -1.1614
  325MOL0     H42858   6.110   9.302   4.279  1.9913  0.3405  0.3861
  325MOL0     H42859   6.097   9.386   4.433  2.0458  3.5999 -0.8930
  325MOL0     H42860   5.900   9.255   4.315 -2.7043 -0.3829  0.6780
  325MOL0     H42861   5.861   9.391   4.225 -1.3465  0.0286  0.4655
  325MOL0     H42862   5.637   9.297   4.288 -0.5189 -0.5885  0.2248
  325MOL0     H42863   5.406   9.298   4.364  0.5415 -0.8239  0.2636
  325MOL0     H42864   5.131   9.143   4.373 -1.1472 -0.1631 -0.6749
  325MOL0     H42865   4.883   9.101   4.326 -0.5972  1.7497 -2.5652
  325MOL0     H42866   4.651   9.246   4.681 -0.3537 -0.8271  0.2626
  325MOL0     H42867   4.656   9.084   4.634 -3.5072 -0.9863  1.2244
  325MOL0     H42868   4.446   9.103   4.487  0.1354 -0.6170  1.1904
  325MOL0     H42869   4.406   9.257   4.553 -2.7179 -1.6763  0.5081
  325MOL0     H42870   4.469   8.997   4.705  1.7922  0.9715 -2.3582
  325MOL0     H42871   4.316   9.072   4.685  1.0496 -1.8752 -1.0865
  325MOL0     H42872   4.547   9.161   4.869  0.2460  3.2755 -0.1635
  325MOL0     H42873   4.401   9.266   4.829 -4.4987 -2.0002 -2.3024
  325MOL0     H42874   4.348   9.004   4.961 -2.1379  1.1065  2.2767
  325MOL0     H42875   4.241   9.128   4.911 -1.7551 -1.9814  4.4251
  325MOL0     H42876   4.388   9.282   5.069 -2.0013 -0.2261  0.6255
  325MOL0     H42877   4.466   9.126   5.119  0.2476  0.8864  0.2418
  325MOL0     H42878   4.172   9.185   5.129 -1.1877  0.3976  3.8520
  325MOL0     H42879   4.250   9.027   5.173 -0.3473  0.5923  2.2826
  325MOL0     H42880   4.178   9.169   5.361  1.0707 -1.3952  1.6064
  325MOL0     H42881   4.292   9.289   5.302 -2.6684  0.9630 -5.4213
  325MOL0     H42882   4.788   9.405   4.608 -1.1019  0.8415 -2.0155
  325MOL0     H42883   4.993   9.468   4.638  1.6338  0.5343 -0.0703
  325MOL0     H42884   5.526   9.538   4.694 -0.6005 -0.5943 -0.5390
  325MOL0     H42885   5.747   9.518   4.634 -1.4736  0.2924 -0.9321
  325MOL0     H42886   7.618   9.814   3.959  1.9176  1.4888  2.6739
  325MOL0     H42887   7.871   9.812   3.946  0.4454 -0.1072  2.7802
  325MOL0     H42888   8.225   9.526   3.771  0.8723 -1.0307 -1.0127
  325MOL0     H42889   8.448   9.533   3.727  0.9065  0.3902 -0.4183
  325MOL0     H42890   8.720   9.643   4.064 -1.8023  0.0802 -1.2533
  325MOL0     H42891   8.749   9.786   3.966  0.3731  0.3567 -1.5768
  325MOL0     H42892   8.884   9.500   3.932 -1.3570 -0.3808 -2.0780
  325MOL0     H42893   8.927   9.642   3.830 -0.6715  0.3651 -0.2088
  325MOL0     H42894   8.939   9.647   4.131  0.7759 -0.8294  0.2720
  325MOL0     H42895   9.020   9.756   4.009 -2.7369 -0.3089 -1.8084
  325MOL0     H42896   9.136   9.565   4.157  0.0125  0.0138  0.3583
  325MOL0     H42897   9.112   9.466   4.007  0.8039 -0.2831  0.1046
  325MOL0     H42898   9.337   9.691   3.773  1.3167 -0.2597 -0.0783
  325MOL0     H42899   8.528   9.689   4.121 -0.0766 -1.3880  0.8629
  325MOL0     H42900   8.294   9.673   4.165 -0.2769 -1.6475  0.7261
  326MOL0     O42901   5.770   8.206   4.345  0.1550  0.1339  0.2192
  326MOL0     C42902   5.812   8.322   4.322  0.0168 -0.2837 -0.0137
  326MOL0     O42903   5.777   8.435   4.391  0.4805 -0.1897 -0.2124
  326MOL0     C42904   5.670   8.423   4.474  0.4481 -0.5906 -0.6080
  326MOL0     C42905   5.655   8.331   4.574 -0.1758  0.4547  0.1922
  326MOL0     C42906   5.544   8.324   4.660  0.1635  0.8951  0.2532
  326MOL0     C42907   5.438   8.419   4.639  0.5245  0.3568  0.5901
  326MOL0     O42908   5.315   8.420   4.705 -0.2112 -0.0636  0.1285
  326MOL0     C42909   5.195   8.456   4.633 -0.4083  0.3436 -0.4372
  326MOL0     C42910   5.070   8.382   4.687 -0.1197 -0.5071  0.1217
  326MOL0     C42911   5.018   8.436   4.821  1.3168  0.0485 -0.1753
  326MOL0     C42912   5.088   8.375   4.944  0.3087  0.8644  0.0462
  326MOL0     C42913   5.063   8.450   5.080  0.4767  0.1987 -0.3447
  326MOL0     C42914   4.929   8.429   5.154 -0.4549 -0.5991 -0.5375
  326MOL0     C42915   4.792   8.469   5.105 -0.9109 -0.7183 -0.0482
  326MOL0     C42916   4.686   8.437   5.207  0.0338 -0.4584 -0.8065
  326MOL0     N42917   4.561   8.480   5.156  0.2764  0.0367  0.2542
  326MOL0     C42918   4.509   8.613   5.150  0.1364  0.5622  0.7781
  326MOL0     C42919   4.393   8.603   5.082  0.8425 -0.1858 -0.1012
  326MOL0     C42920   4.299   8.713   5.037 -0.1447 -0.2442 -0.1092
  326MOL0     C42921   4.230   8.662   4.908  0.6239  0.1061  0.4130
  326MOL0     C42922   4.092   8.589   4.939 -0.2194 -0.2323 -0.1131
  326MOL0     C42923   3.993   8.574   4.827  0.9079  0.2871  0.7335
  326MOL0     O42924   3.880   8.521   4.893 -0.1028 -0.1711 -0.2225
  326MOL0     C42925   3.782   8.466   4.813 -0.1704 -0.1247 -0.7110
  326MOL0     C42926   3.684   8.392   4.870 -0.1021  0.3750 -0.1775
  326MOL0     C42927   3.589   8.315   4.797 -0.2606 -0.7623  0.5815
  326MOL0     C42928   3.566   8.339   4.660  0.4247  0.1537 -0.2472
  326MOL0     C42929   3.453   8.276   4.597  0.4578 -0.2875  0.5809
  326MOL0     O42930   3.384   8.187   4.665  0.6457  0.3361 -0.2038
  326MOL0     C42931   3.257   8.156   4.630  0.2074 -0.1602  0.2543
  326MOL0     C42932   3.203   8.047   4.700  0.1541 -0.2669 -0.1788
  326MOL0     C42933   3.069   8.002   4.686  0.0258 -0.2270 -0.9277
  326MOL0     C42934   2.983   8.085   4.613 -0.3970  0.9075  0.2039
  326MOL0     O42935   2.854   8.041   4.597  0.2417 -0.2112  0.0250
  326MOL0     C42936   2.782   8.007   4.725 -0.0741 -0.0462  0.7179
  326MOL0     C42937   2.645   7.950   4.689  0.0454  0.3976  1.5876
  326MOL0     C42938   2.584   7.884   4.800 -0.2992 -0.5750 -0.4668
  326MOL0     C42939   2.437   7.846   4.760  0.8924  0.5289  0.1996
  326MOL0     C42940   2.386   7.716   4.827 -0.4031  0.0083  0.5035
  326MOL0     C42941   2.233   7.724   4.807  0.4092 -0.2914 -0.1248
  326MOL0     C42942   2.155   7.597   4.845 -1.4216  0.5529  0.2974
  326MOL0     C42943   2.013   7.611   4.823 -0.1799 -0.7425 -0.0756
  326MOL0    Cl42944   1.942   7.685   4.972 -0.0609  0.2105  0.2353
  326MOL0     C42945   3.039   8.187   4.533  0.1466  0.1076  0.4079
  326MOL0     C42946   3.173   8.222   4.534 -0.0733 -0.2776 -0.2578
  326MOL0     O42947   3.433   8.312   4.480 -0.6245 -0.3449 -0.4986
  326MOL0     C42948   3.646   8.434   4.599 -0.2318  0.4735 -0.1141
  326MOL0     C42949   3.758   8.490   4.672  0.8402 -0.1885 -0.2370
  326MOL0     N42950   4.377   8.466   5.047 -0.1056 -1.1993 -0.1771
  326MOL0     N42951   4.477   8.399   5.096  0.3393 -0.2326  0.1251
  326MOL0     C42952   5.455   8.516   4.539 -0.1600  0.2433  1.0516
  326MOL0     C42953   5.564   8.523   4.459 -0.3063  0.6798  0.1057
  326MOL0     C42954   5.913   8.341   4.220  1.1540  0.2824 -0.3908
  326MOL0     C42955   5.967   8.461   4.183 -0.4165 -0.8553 -0.3483
  326MOL0     C42956   6.066   8.477   4.089  0.0918 -0.1690  0.2686
  326MOL0     C42957   6.113   8.363   4.019 -0.2995  0.0878  0.6865
  326MOL0     O42958   6.201   8.372   3.916  0.4589 -0.8686 -0.4914
  326MOL0     C42959   6.341   8.365   3.949  0.5564  0.5764 -0.3408
  326MOL0     C42960   6.394   8.296   3.821  0.0698 -0.5371 -0.3204
  326MOL0     C42961   6.551   8.278   3.815  0.1299 -0.0381  0.2126
  326MOL0     C42962   6.588   8.142   3.861 -0.3292 -0.1650  1.1868
  326MOL0     C42963   6.559   8.041   3.755 -0.9130  0.5563 -0.3219
  326MOL0     C42964   6.528   7.957   3.674 -0.2241  0.0955  0.7871
  326MOL0     C42965   6.051   8.242   4.047  0.3784 -0.3743  1.6809
  326MOL0     C42966   5.955   8.228   4.144 -0.6938  0.6152 -0.2202
  326MOL0     H42967   5.739   8.265   4.594 -0.6684 -0.2903 -0.1673
  326MOL0     H42968   5.532   8.253   4.742 -3.7226 -1.7775 -2.2867
  326MOL0     H42969   5.205   8.425   4.528  2.3380  3.5247 -1.2852
  326MOL0     H42970   5.177   8.564   4.637  2.0849  0.7730  1.5534
  326MOL0     H42971   5.092   8.275   4.694 -1.6561 -1.0717 -2.5162
  326MOL0     H42972   5.007   8.395   4.599  2.6129  3.4746 -1.5108
  326MOL0     H42973   4.918   8.391   4.821  1.0302  0.6819 -0.4840
  326MOL0     H42974   5.011   8.545   4.818  0.2023 -0.0424 -2.7247
  326MOL0     H42975   5.066   8.273   4.975  2.3681  0.7016  1.2216
  326MOL0     H42976   5.196   8.373   4.927  0.3160 -0.9633  0.1250
  326MOL0     H42977   5.082   8.557   5.067  0.4123  0.1569 -0.8140
  326MOL0     H42978   5.142   8.421   5.149 -0.0542  1.0882  0.6643
  326MOL0     H42979   4.957   8.468   5.252  1.7026 -0.4287 -1.1644
  326MOL0     H42980   4.924   8.320   5.166 -1.1178 -0.6008 -0.7654
  326MOL0     H42981   4.806   8.576   5.089 -1.4076 -0.6536 -0.0537
  326MOL0     H42982   4.771   8.416   5.011  1.6757 -2.4245  0.2210
  326MOL0     H42983   4.695   8.492   5.302 -1.0437  1.7965 -1.9163
  326MOL0     H42984   4.670   8.330   5.221 -0.5498 -0.3014 -0.1939
  326MOL0     H42985   4.554   8.704   5.190  0.0060  0.3008  1.5395
  326MOL0     H42986   4.356   8.803   5.015  0.0046 -0.3869 -0.3117
  326MOL0     H42987   4.228   8.752   5.110 -1.5366  0.7222 -1.8912
  326MOL0     H42988   4.302   8.605   4.848  2.6684  0.4511  2.4136
  326MOL0     H42989   4.210   8.746   4.841 -0.4505 -0.6542 -0.2501
  326MOL0     H42990   4.114   8.496   4.992 -0.3122 -0.5086 -0.5544
  326MOL0     H42991   4.047   8.660   5.008  3.7605 -0.2903  2.9404
  326MOL0     H42992   4.027   8.500   4.754 -1.6032 -0.5818  0.3661
  326MOL0     H42993   3.978   8.669   4.776  0.9389 -2.0940 -4.3388
  326MOL0     H42994   3.689   8.373   4.976 -2.7598 -0.5503 -0.1408
  326MOL0     H42995   3.522   8.244   4.844 -0.9976 -0.4523  0.0102
  326MOL0     H42996   3.253   7.986   4.774  1.3709 -0.7561 -1.3633
  326MOL0     H42997   3.028   7.912   4.731 -3.9877  1.6494 -0.2849
  326MOL0     H42998   2.766   8.093   4.791  1.8010 -0.6062  1.9764
  326MOL0     H42999   2.844   7.938   4.784  1.7524  0.3667 -0.6173
  326MOL0     H43000   2.666   7.870   4.617 -1.1872 -1.0169  2.7354
  326MOL0     H43001   2.586   8.031   4.647 -0.9208 -1.0019  0.0976
  326MOL0     H43002   2.581   7.958   4.881  0.4344 -2.4087  1.3336
  326MOL0     H43003   2.643   7.798   4.830  0.1969  0.1396  0.6810
  326MOL0     H43004   2.371   7.927   4.791 -0.4527 -0.3118 -0.3697
  326MOL0     H43005   2.435   7.822   4.653  3.3477  0.7913  0.0331
  326MOL0     H43006   2.411   7.702   4.933  1.0544  0.6070  0.2690
  326MOL0     H43007   2.433   7.632   4.777  3.5265  2.5190 -0.5080
  326MOL0     H43008   2.204   7.750   4.705 -2.3792  2.0596  1.1455
  326MOL0     H43009   2.190   7.808   4.862  0.8830  0.2839 -0.6280
  326MOL0     H43010   2.176   7.509   4.783  2.3174 -0.7936  3.0575
  326MOL0     H43011   2.176   7.552   4.943 -1.6778 -0.0070  0.1002
  326MOL0     H43012   1.964   7.513   4.824 -2.8389  0.4521 -1.7266
  326MOL0     H43013   2.005   7.666   4.729  2.9826 -0.6332 -0.3942
  326MOL0     H43014   2.977   8.231   4.456 -0.7027  1.5621  1.8581
  326MOL0     H43015   3.202   8.301   4.465 -0.0135 -0.6752 -0.6988
  326MOL0     H43016   3.624   8.469   4.499  0.0443  1.2277  0.0809
  326MOL0     H43017   3.824   8.545   4.606 -2.3105 -1.5529 -5.0696
  326MOL0     H43018   5.376   8.590   4.535  0.3923  0.9349  2.3200
  326MOL0     H43019   5.566   8.601   4.384 -0.4991 -1.2754 -2.0538
  326MOL0     H43020   5.930   8.550   4.232  2.4170  0.3362 -0.1964
  326MOL0     H43021   6.110   8.570   4.056  2.2889 -1.0942  0.3903
  326MOL0     H43022   6.364   8.297   4.031 -0.3135 -0.7799 -1.1991
  326MOL0     H43023   6.386   8.462   3.975  0.4784  0.2146  1.2543
  326MOL0     H43024   6.344   8.199   3.813 -0.8559 -0.2231  1.1166
  326MOL0     H43025   6.353   8.353   3.737  0.4669 -1.6023 -1.2510
  326MOL0     H43026   6.594   8.356   3.879  0.2503 -1.4568  1.9225
  326MOL0     H43027   6.585   8.296   3.712  0.8127  3.1237  0.8832
  326MOL0     H43028   6.695   8.141   3.883  0.5834  4.1456 -1.7023
  326MOL0     H43029   6.535   8.114   3.952 -1.5487  0.9345  0.8526
  326MOL0     H43030   6.505   7.866   3.622  4.2655 -0.2171 -1.0893
  326MOL0     H43031   6.078   8.163   3.977  2.6271  2.6699 -1.1998
  326MOL0     H43032   5.914   8.127   4.140 -0.3791  0.4693  0.1322
  327MOL0     O43033   2.110   4.004   8.431  0.6875  0.1266  0.2561
  327MOL0     C43034   2.193   4.000   8.344  0.4376 -0.1089  0.3584
  327MOL0     O43035   2.161   3.976   8.213  0.3930  0.6114 -0.1581
  327MOL0     C43036   2.026   3.975   8.194  0.0139 -0.0063 -0.1831
  327MOL0     C43037   1.959   4.087   8.225  0.0982 -0.4309  0.4795
  327MOL0     C43038   1.819   4.082   8.223 -0.1594 -0.2080  0.6279
  327MOL0     C43039   1.755   3.965   8.174  0.1556  0.2042  0.4659
  327MOL0     O43040   1.615   3.973   8.181  0.2786 -0.8124 -0.5743
  327MOL0     C43041   1.530   3.861   8.159 -0.2154 -0.8095 -0.7073
  327MOL0     C43042   1.392   3.932   8.152  0.8523  0.3430  0.0355
  327MOL0     C43043   1.278   3.832   8.120  0.0177 -0.1682  0.8141
  327MOL0     C43044   1.161   3.913   8.097  0.1296  0.4432 -0.0122
  327MOL0     C43045   1.043   3.808   8.089 -0.8300 -0.7448 -0.2748
  327MOL0     C43046   0.924   3.874   8.036 -0.6180 -0.3667 -0.0056
  327MOL0     C43047   0.872   3.970   8.140  0.3577 -0.2376 -0.5465
  327MOL0     C43048   0.740   4.029   8.106 -0.3917  0.2525 -0.3353
  327MOL0     N43049   0.643   3.920   8.086 -0.4254  0.0778  0.3459
  327MOL0     C43050   0.609   3.820   8.180  0.0377 -0.0742 -0.3949
  327MOL0     C43051   0.518   3.742   8.119  0.7582 -0.7760 -0.0203
  327MOL0     C43052   0.445   3.620   8.173  0.0485 -0.1848 -0.0159
  327MOL0     C43053   0.330   3.577   8.090  0.4826  0.5592 -0.0200
  327MOL0     C43054   0.242   3.470   8.163  0.7504 -0.3768  1.5910
  327MOL0     C43055   0.109   3.440   8.088  0.0930  0.6169  0.1061
  327MOL0     O43056   0.030   3.555   8.066 -0.1276 -0.0329 -0.2632
  327MOL0     C43057  -0.090   3.545   7.993 -0.0333  0.4671 -0.2322
  327MOL0     C43058  -0.158   3.422   7.977  0.2247  0.7537 -0.0230
  327MOL0     C43059  -0.288   3.418   7.926 -0.8064  0.8257 -0.2694
  327MOL0     C43060  -0.341   3.538   7.871  0.4374  0.3195  0.0946
  327MOL0     C43061  -0.476   3.545   7.824 -0.5736  0.5958  0.4608
  327MOL0     O43062  -0.548   3.435   7.837 -0.0194  0.2479  0.3953
  327MOL0     C43063  -0.669   3.413   7.780  0.1261  0.1343 -0.6330
  327MOL0     C43064  -0.746   3.319   7.843  0.3675  0.4066 -1.2013
  327MOL0     C43065  -0.882   3.309   7.816 -0.1652 -1.0172 -0.0473
  327MOL0     C43066  -0.933   3.369   7.699  0.2661 -0.0412 -0.6020
  327MOL0     O43067  -1.057   3.340   7.658 -0.1199  0.1331 -0.0127
  327MOL0     C43068  -1.115   3.213   7.687 -0.3653  0.1496  0.0052
  327MOL0     C43069  -1.267   3.214   7.646 -0.2073 -0.0591 -0.2532
  327MOL0     C43070  -1.330   3.082   7.672 -0.5535  0.4659 -0.5702
  327MOL0     C43071  -1.468   3.067   7.626  0.0753  0.2038 -0.8612
  327MOL0     C43072  -1.527   2.924   7.654 -0.6195  0.5213  0.5656
  327MOL0     C43073  -1.546   2.877   7.805  0.2308 -0.5128 -0.0980
  327MOL0     C43074  -1.636   2.754   7.825  0.1692  0.9197 -0.2405
  327MOL0     C43075  -1.778   2.803   7.844  1.0324 -0.4057 -0.0355
  327MOL0    Cl43076  -1.863   2.672   7.921 -0.1045  0.2644  0.0873
  327MOL0     C43077  -0.855   3.462   7.628  0.5673  1.0269  0.3480
  327MOL0     C43078  -0.723   3.488   7.675  0.2514 -0.6495 -0.0324
  327MOL0     O43079  -0.505   3.654   7.775 -0.1500 -0.1468 -0.6357
  327MOL0     C43080  -0.265   3.662   7.878 -1.0182  0.3329  0.2652
  327MOL0     C43081  -0.141   3.660   7.936 -0.0937  0.4062  0.0147
  327MOL0     N43082   0.495   3.789   7.988 -0.2275 -0.3990 -0.1881
  327MOL0     N43083   0.572   3.892   7.976 -0.0598  0.1823  0.4152
  327MOL0     C43084   1.833   3.858   8.126  0.6383  0.1955  0.2805
  327MOL0     C43085   1.973   3.861   8.140  0.7129  0.2661 -0.0857
  327MOL0     C43086   2.338   4.019   8.376  0.4983  0.0521 -0.1979
  327MOL0     C43087   2.444   4.026   8.285  0.7101  0.7777 -0.0233
  327MOL0     C43088   2.579   4.043   8.330  0.3326  0.8826  0.5792
  327MOL0     C43089   2.604   4.039   8.463 -0.2869 -0.4962 -0.6093
  327MOL0     O43090   2.729   4.052   8.522  0.0429 -0.5710  0.1537
  327MOL0     C43091   2.846   4.036   8.432  0.4323  0.1943  0.2049
  327MOL0     C43092   2.988   4.017   8.485 -0.3663 -1.3980  0.9920
  327MOL0     C43093   3.025   4.140   8.576  0.2214 -0.0197 -0.0840
  327MOL0     C43094   3.133   4.115   8.682  0.4240 -0.9661 -0.1896
  327MOL0     C43095   3.256   4.077   8.615  0.9018 -0.1325  0.4029
  327MOL0     C43096   3.363   4.063   8.566  0.3682  0.2080 -1.1119
  327MOL0     C43097   2.495   4.040   8.550  0.3984 -0.1270 -0.5327
  327MOL0     C43098   2.362   4.020   8.511 -0.0604  1.0919  0.3411
  327MOL0     H43099   2.005   4.183   8.245 -1.3135  0.6660 -1.3506
  327MOL0     H43100   1.766   4.173   8.251  0.4652 -0.3072  2.2763
  327MOL0     H43101   1.525   3.798   8.248 -3.3238  1.4834  0.9586
  327MOL0     H43102   1.555   3.790   8.080  0.2969 -2.4440  0.8561
  327MOL0     H43103   1.395   4.012   8.078  1.1419  0.6352  0.3658
  327MOL0     H43104   1.365   3.974   8.249 -0.6728 -1.0268  0.2602
  327MOL0     H43105   1.272   3.758   8.200 -1.4424 -0.1238  0.7752
  327MOL0     H43106   1.314   3.785   8.028 -2.1610 -2.4399  1.0308
  327MOL0     H43107   1.148   3.968   8.190  0.6423  0.8546 -0.1800
  327MOL0     H43108   1.168   3.983   8.013 -2.1347  1.2487  0.4160
  327MOL0     H43109   1.014   3.764   8.185 -1.2787  0.2341  0.0445
  327MOL0     H43110   1.068   3.745   8.003  1.3915  2.2602 -1.9962
  327MOL0     H43111   0.846   3.805   8.002 -0.9691 -0.3532  0.7664
  327MOL0     H43112   0.962   3.932   7.950  1.7720 -2.1410 -0.2626
  327MOL0     H43113   0.866   3.930   8.242 -0.8629  0.4153 -0.3543
  327MOL0     H43114   0.934   4.060   8.135  0.1430 -0.1224 -1.3040
  327MOL0     H43115   0.760   4.096   8.022  0.4638 -0.9164 -1.0878
  327MOL0     H43116   0.713   4.095   8.190  1.6276 -1.1336  1.5284
  327MOL0     H43117   0.635   3.808   8.284  0.8280 -5.1048 -0.9087
  327MOL0     H43118   0.407   3.644   8.272 -0.9135  0.8938 -0.6196
  327MOL0     H43119   0.508   3.531   8.175 -0.4265 -0.5154  0.6036
  327MOL0     H43120   0.380   3.536   8.002  4.0775 -0.7595  2.3989
  327MOL0     H43121   0.269   3.665   8.068  0.6177  0.4299 -0.9547
  327MOL0     H43122   0.300   3.377   8.160  0.5105 -0.5271 -0.9251
  327MOL0     H43123   0.223   3.512   8.262  1.9879  2.8768  0.5932
  327MOL0     H43124   0.049   3.364   8.137 -1.9726 -0.2217 -3.3724
  327MOL0     H43125   0.139   3.402   7.990 -0.5194  1.0944 -0.2782
  327MOL0     H43126  -0.115   3.325   7.997 -0.1150 -0.1405 -3.0518
  327MOL0     H43127  -0.344   3.325   7.923  1.8641 -0.9532  1.0842
  327MOL0     H43128  -0.703   3.268   7.928 -1.9639  1.7282  0.9298
  327MOL0     H43129  -0.930   3.244   7.889  0.8623 -0.1107  1.4880
  327MOL0     H43130  -1.115   3.188   7.794  1.7930 -2.0995 -0.4165
  327MOL0     H43131  -1.078   3.127   7.631 -4.5169 -0.2905 -2.4736
  327MOL0     H43132  -1.273   3.240   7.540 -2.1217  1.8967  0.2668
  327MOL0     H43133  -1.326   3.285   7.704 -1.1188 -0.1270 -1.0709
  327MOL0     H43134  -1.336   3.054   7.778 -2.2965  0.8747 -0.5295
  327MOL0     H43135  -1.271   3.010   7.616  2.8932  2.5285  0.1290
  327MOL0     H43136  -1.523   3.139   7.688 -0.9017 -3.0469  2.3853
  327MOL0     H43137  -1.477   3.102   7.523  1.7653  1.0757 -0.7466
  327MOL0     H43138  -1.449   2.862   7.610 -0.6062  2.2632 -2.1091
  327MOL0     H43139  -1.613   2.910   7.588  1.1583  2.1053 -2.2825
  327MOL0     H43140  -1.596   2.960   7.855  0.0910 -1.1121  0.7759
  327MOL0     H43141  -1.443   2.857   7.837  0.8719 -0.9477 -2.2559
  327MOL0     H43142  -1.634   2.682   7.742 -2.0750  0.2876  0.1856
  327MOL0     H43143  -1.589   2.725   7.920 -0.9346  5.9696  2.2097
  327MOL0     H43144  -1.821   2.833   7.748 -2.7192  1.0599  1.9116
  327MOL0     H43145  -1.791   2.891   7.907  1.4636  0.4443 -1.0965
  327MOL0     H43146  -0.898   3.510   7.541  1.1119 -0.4682 -0.7850
  327MOL0     H43147  -0.654   3.547   7.616 -0.5787  1.1324  0.7122
  327MOL0     H43148  -0.303   3.756   7.841 -0.7982  0.1890 -0.3457
  327MOL0     H43149  -0.091   3.756   7.943  2.2681 -0.6276 -1.4531
  327MOL0     H43150   1.792   3.770   8.077 -0.9252  0.1694  1.5393
  327MOL0     H43151   2.038   3.778   8.116 -1.3243 -2.1424  2.1164
  327MOL0     H43152   2.416   4.004   8.182  2.1910 -3.4506  0.2756
  327MOL0     H43153   2.664   4.054   8.263  0.3622  2.0545  0.7952
  327MOL0     H43154   2.844   4.124   8.368  0.8383 -0.0512 -0.1507
  327MOL0     H43155   2.830   3.946   8.372  1.3241  0.5613 -0.5891
  327MOL0     H43156   2.980   3.926   8.545 -4.0424 -2.3634 -0.7358
  327MOL0     H43157   3.057   4.003   8.401  0.1588  1.9135  0.7217
  327MOL0     H43158   2.934   4.178   8.624  1.3882 -2.3093  4.4438
  327MOL0     H43159   3.066   4.220   8.514  1.7014 -1.0808 -0.5265
  327MOL0     H43160   3.147   4.211   8.731  2.1239 -0.7338 -1.0767
  327MOL0     H43161   3.101   4.039   8.755  2.4415 -1.8486 -0.1529
  327MOL0     H43162   3.447   4.042   8.502  1.1352 -3.1320  0.7682
  327MOL0     H43163   2.512   4.044   8.657 -0.9844 -0.9635 -0.2552
  327MOL0     H43164   2.280   4.017   8.582 -0.7921  2.2198 -0.4266
  328MOL0     O43165   1.790   2.028   2.521 -0.2013 -1.4136 -0.5196
  328MOL0     C43166   1.833   1.959   2.613 -0.1413 -0.6423  0.3108
  328MOL0     O43167   1.770   1.906   2.715  0.3069 -0.6749 -0.3127
  328MOL0     C43168   1.629   1.915   2.718 -0.1882  0.0463 -0.3744
  328MOL0     C43169   1.540   1.900   2.602 -0.6524 -0.4374  0.0442
  328MOL0     C43170   1.403   1.908   2.610  0.0832  0.0333 -0.9913
  328MOL0     C43171   1.344   1.935   2.738 -0.6521  0.5079 -0.6858
  328MOL0     O43172   1.211   1.961   2.730  0.3569 -0.1793  0.3369
  328MOL0     C43173   1.139   1.989   2.850  0.2559 -0.4263 -0.0897
  328MOL0     C43174   0.999   1.994   2.819 -0.3738  0.8724 -0.4137
  328MOL0     C43175   0.908   2.052   2.928 -0.2116  1.0720  0.2216
  328MOL0     C43176   0.766   2.060   2.868  1.4986 -0.7550  0.8789
  328MOL0     C43177   0.652   2.132   2.944 -0.3113  0.2732  0.1453
  328MOL0     C43178   0.598   2.038   3.056  0.8428  0.0611 -0.2462
  328MOL0     C43179   0.500   2.108   3.159 -0.5444  0.7691  0.1394
  328MOL0     C43180   0.368   2.112   3.092 -1.0086  0.0501  0.5429
  328MOL0     N43181   0.264   2.139   3.188 -0.3900  0.6744  0.0487
  328MOL0     C43182   0.258   2.114   3.321 -0.3815  0.2411 -0.4709
  328MOL0     C43183   0.163   2.187   3.371 -0.2385  0.5025 -0.2484
  328MOL0     C43184   0.142   2.163   3.515  0.0780  0.0902 -0.3345
  328MOL0     C43185   0.012   2.085   3.543  0.0491  0.2587  0.3026
  328MOL0     C43186  -0.118   2.130   3.479 -0.3151 -0.2392  1.0368
  328MOL0     C43187  -0.158   2.274   3.496 -0.8845  0.0569 -0.5828
  328MOL0     O43188  -0.179   2.307   3.631  0.1924 -0.2182  0.1720
  328MOL0     C43189  -0.295   2.286   3.709  0.6800  0.0803 -0.5666
  328MOL0     C43190  -0.301   2.338   3.835  0.2059 -0.2438 -0.2982
  328MOL0     C43191  -0.406   2.317   3.921  0.1061 -0.1968  0.4904
  328MOL0     C43192  -0.525   2.245   3.874 -0.0343 -0.0017  1.0184
  328MOL0     C43193  -0.641   2.221   3.973  1.1599  0.2736  1.1206
  328MOL0     O43194  -0.754   2.158   3.926 -0.2723  0.6292 -0.1524
  328MOL0     C43195  -0.864   2.134   4.010 -1.4396  0.6511 -0.2191
  328MOL0     C43196  -0.931   2.249   4.064  0.0898 -0.4794  0.4023
  328MOL0     C43197  -1.061   2.240   4.119 -0.6225  0.0238 -0.0545
  328MOL0     C43198  -1.123   2.114   4.130  0.0287  0.5667  0.3701
  328MOL0     O43199  -1.246   2.094   4.177 -0.1436  0.1385 -0.3019
  328MOL0     C43200  -1.344   2.158   4.091  0.5139 -0.9179 -0.1130
  328MOL0     C43201  -1.477   2.146   4.166 -0.0921 -0.3214 -0.7815
  328MOL0     C43202  -1.585   2.118   4.076  0.7549 -0.0795 -0.0193
  328MOL0     C43203  -1.726   2.096   4.146 -0.5303  0.7338 -0.1197
  328MOL0     C43204  -1.835   2.070   4.039 -0.5482 -0.0787 -0.2726
  328MOL0     C43205  -1.890   2.210   4.007  0.6893  1.0699  0.2364
  328MOL0     C43206  -2.003   2.166   3.913 -0.4176  0.6473 -0.1338
  328MOL0     C43207  -2.044   2.274   3.815 -0.1596 -0.5667  0.4695
  328MOL0    Cl43208  -2.210   2.265   3.773  0.1477  0.6154  0.2317
  328MOL0     C43209  -1.056   2.004   4.074  0.3638 -0.9972  0.2481
  328MOL0     C43210  -0.930   2.016   4.014  0.2365  0.2847 -0.4397
  328MOL0     O43211  -0.626   2.258   4.088  0.1105 -0.8973 -0.1404
  328MOL0     C43212  -0.520   2.197   3.734 -0.0143  0.4692 -0.4932
  328MOL0     C43213  -0.414   2.222   3.656 -0.1523 -1.0949 -1.0938
  328MOL0     N43214   0.104   2.250   3.270  0.5633  0.1455 -0.1051
  328MOL0     N43215   0.175   2.241   3.165 -0.5489  0.4660 -0.1958
  328MOL0     C43216   1.427   1.966   2.850  0.1733  0.7441  0.2344
  328MOL0     C43217   1.568   1.947   2.835 -0.3577 -0.2551  0.4027
  328MOL0     C43218   1.979   1.930   2.601  0.3861  0.7081  0.7360
  328MOL0     C43219   2.043   1.917   2.470 -0.6762 -0.4337 -0.2439
  328MOL0     C43220   2.175   1.870   2.453 -0.2541  0.3678  0.5333
  328MOL0     C43221   2.263   1.845   2.562  0.8563  0.3212 -0.2168
  328MOL0     O43222   2.381   1.790   2.542  0.4134  0.0344 -1.2750
  328MOL0     C43223   2.437   1.690   2.635 -1.5655  0.8458 -0.8632
  328MOL0     C43224   2.569   1.623   2.592 -0.1408 -0.3971  0.0728
  328MOL0     C43225   2.558   1.508   2.498 -0.5147  0.1929 -0.8317
  328MOL0     C43226   2.499   1.549   2.358  0.1830 -0.1159  0.2422
  328MOL0     C43227   2.474   1.416   2.291 -0.4579 -0.5523  0.1055
  328MOL0     C43228   2.438   1.304   2.246  0.9167  0.4353  0.5997
  328MOL0     C43229   2.205   1.876   2.693 -0.0577  1.5628  0.7815
  328MOL0     C43230   2.063   1.904   2.707  0.2154 -0.0455  0.0685
  328MOL0     H43231   1.590   1.868   2.511 -0.0272  1.9358 -0.5001
  328MOL0     H43232   1.350   1.889   2.517 -1.3486  0.7369 -0.3567
  328MOL0     H43233   1.184   2.081   2.890  0.8575 -1.0774  0.7842
  328MOL0     H43234   1.162   1.908   2.921  1.6061 -0.4268 -0.4997
  328MOL0     H43235   0.969   1.894   2.787  1.0922  0.4871 -0.6869
  328MOL0     H43236   0.990   2.065   2.737 -1.2148  0.8934 -0.3068
  328MOL0     H43237   0.940   2.152   2.956 -1.8886  1.7382 -0.0822
  328MOL0     H43238   0.904   1.981   3.012  3.9571  1.1933  0.6941
  328MOL0     H43239   0.774   2.110   2.771 -1.8271 -0.1111  0.8242
  328MOL0     H43240   0.723   1.963   2.840  1.0285 -0.2539 -0.1738
  328MOL0     H43241   0.579   2.157   2.867  1.0037  2.2164 -0.5441
  328MOL0     H43242   0.691   2.227   2.982 -0.7351  0.8259 -0.7948
  328MOL0     H43243   0.679   1.985   3.107 -0.6818 -2.5917 -0.4283
  328MOL0     H43244   0.542   1.952   3.018  0.7399 -0.0414  0.1282
  328MOL0     H43245   0.491   2.055   3.255 -0.7502  1.1009  0.3080
  328MOL0     H43246   0.537   2.207   3.186  0.7493 -0.5549  4.0199
  328MOL0     H43247   0.335   2.021   3.040  1.0188  0.6446 -1.9582
  328MOL0     H43248   0.371   2.193   3.018 -0.5675 -1.4528 -1.1408
  328MOL0     H43249   0.318   2.045   3.380 -1.0170 -3.5299 -3.8112
  328MOL0     H43250   0.144   2.258   3.570  2.0815  0.8120 -1.5555
  328MOL0     H43251   0.224   2.108   3.563  0.3301  0.6859 -0.0712
  328MOL0     H43252  -0.001   2.088   3.651 -0.5474  1.3283  0.2125
  328MOL0     H43253   0.021   1.980   3.512 -2.9136  0.2060 -0.7231
  328MOL0     H43254  -0.107   2.105   3.373  1.1280 -1.6495  1.4652
  328MOL0     H43255  -0.198   2.063   3.512 -1.9773  1.7158  1.1249
  328MOL0     H43256  -0.251   2.297   3.445 -1.0160  0.4299 -0.1797
  328MOL0     H43257  -0.091   2.354   3.462 -0.5057 -0.7907 -1.8774
  328MOL0     H43258  -0.215   2.399   3.861 -1.3503  0.8884  2.5546
  328MOL0     H43259  -0.387   2.361   4.019 -1.4247 -0.8211  1.1155
  328MOL0     H43260  -0.874   2.342   4.067 -1.9117  0.7661  2.1806
  328MOL0     H43261  -1.107   2.332   4.154 -0.8998  0.6202 -1.8848
  328MOL0     H43262  -1.334   2.108   3.994  1.2601 -1.4695  0.2364
  328MOL0     H43263  -1.322   2.263   4.071  0.2135 -1.2195 -2.2850
  328MOL0     H43264  -1.490   2.231   4.235 -3.3989  1.0272 -2.7926
  328MOL0     H43265  -1.475   2.059   4.232 -1.6683  0.1762 -0.0104
  328MOL0     H43266  -1.552   2.028   4.023  1.6320  1.2887 -1.9450
  328MOL0     H43267  -1.599   2.189   3.994 -0.3011  0.9083  0.9878
  328MOL0     H43268  -1.714   2.005   4.206  0.7788  0.6687 -0.4636
  328MOL0     H43269  -1.758   2.184   4.203 -0.1476  0.3283  0.7557
  328MOL0     H43270  -1.903   1.996   4.083 -0.1010 -1.1384 -1.3294
  328MOL0     H43271  -1.796   2.031   3.945 -0.9750  0.2429 -0.5825
  328MOL0     H43272  -1.813   2.266   3.954  1.3650 -1.7413 -1.9816
  328MOL0     H43273  -1.930   2.250   4.101 -4.1318 -0.1286 -0.9970
  328MOL0     H43274  -1.975   2.086   3.843  0.3780 -1.2619  2.2319
  328MOL0     H43275  -2.094   2.137   3.966 -0.1029  1.0842  0.6590
  328MOL0     H43276  -1.997   2.267   3.717  0.3944  2.9160  0.3604
  328MOL0     H43277  -2.023   2.367   3.869 -1.6979 -1.6256  3.0941
  328MOL0     H43278  -1.111   1.911   4.064  0.5923 -0.9812 -1.4216
  328MOL0     H43279  -0.884   1.934   3.959 -2.4893 -0.7116 -1.3872
  328MOL0     H43280  -0.601   2.142   3.689  1.1718 -0.5170 -1.4859
  328MOL0     H43281  -0.422   2.194   3.551  2.1101  0.5337 -1.7916
  328MOL0     H43282   1.371   1.984   2.941 -0.6758 -0.9481  0.0701
  328MOL0     H43283   1.643   1.945   2.913  1.7499  1.4919 -1.4390
  328MOL0     H43284   1.989   1.940   2.379 -0.5728 -0.2323 -0.2551
  328MOL0     H43285   2.206   1.848   2.351 -0.5009  0.3361  0.4660
  328MOL0     H43286   2.361   1.618   2.665 -1.4273  2.2993  3.8311
  328MOL0     H43287   2.465   1.739   2.729  0.5511 -1.2179 -0.3221
  328MOL0     H43288   2.626   1.706   2.548 -2.1709  0.4143 -1.1839
  328MOL0     H43289   2.621   1.596   2.685 -2.7200 -0.2268  1.6844
  328MOL0     H43290   2.495   1.427   2.536  0.0218 -0.2262 -0.8137
  328MOL0     H43291   2.659   1.467   2.487 -0.5696 -0.3306  0.4464
  328MOL0     H43292   2.398   1.592   2.365  1.1513  2.1041  1.4598
  328MOL0     H43293   2.568   1.617   2.307  3.6307 -1.1086  3.1725
  328MOL0     H43294   2.414   1.208   2.205  0.9977  0.1496  1.2168
  328MOL0     H43295   2.274   1.873   2.777  0.2769 -2.3206  0.5184
  328MOL0     H43296   2.046   1.908   2.814  1.0495  0.0956  0.2083
  329MOL0     O43297   0.707   4.335   2.609  0.3056 -0.1127 -0.5184
  329MOL0     C43298   0.665   4.313   2.499 -0.2497  0.0433  0.7956
  329MOL0     O43299   0.742   4.325   2.381  0.3817 -0.9432  0.4098
  329MOL0     C43300   0.858   4.401   2.390  0.0828  0.7101  0.3511
  329MOL0     C43301   0.891   4.503   2.297  0.6457  0.1610 -0.3570
  329MOL0     C43302   1.010   4.578   2.295  0.5622 -0.6053 -0.1840
  329MOL0     C43303   1.111   4.556   2.389  0.0929  0.3941 -0.6421
  329MOL0     O43304   1.235   4.617   2.392 -0.4955  0.1866  0.1569
  329MOL0     C43305   1.285   4.672   2.271 -0.0921 -0.2290 -0.5729
  329MOL0     C43306   1.423   4.726   2.310 -0.1323 -0.5275  0.2431
  329MOL0     C43307   1.478   4.791   2.182 -0.3882 -0.3067  0.4559
  329MOL0     C43308   1.569   4.913   2.206  0.1449 -0.2047 -0.6828
  329MOL0     C43309   1.506   5.026   2.289 -0.2403 -0.8683  0.2775
  329MOL0     C43310   1.583   5.153   2.243  1.1520 -0.3197 -0.6652
  329MOL0     C43311   1.530   5.265   2.330 -0.3038  0.0067 -0.2202
  329MOL0     C43312   1.582   5.406   2.292 -0.7753 -0.2032 -0.8825
  329MOL0     N43313   1.507   5.452   2.171 -0.1760  0.6247  0.1163
  329MOL0     C43314   1.385   5.509   2.167 -0.0892 -0.6497 -0.3007
  329MOL0     C43315   1.352   5.533   2.039  0.0851 -0.0750  0.4344
  329MOL0     C43316   1.222   5.606   1.998 -0.4440 -0.0091  0.3933
  329MOL0     C43317   1.114   5.520   1.943  1.2461  0.5354 -0.8939
  329MOL0     C43318   1.035   5.450   2.058 -0.1407 -0.1910 -0.4155
  329MOL0     C43319   0.919   5.368   2.008 -0.0518 -0.0678  0.0393
  329MOL0     O43320   0.840   5.334   2.123 -0.2524 -0.1032 -0.0489
  329MOL0     C43321   0.738   5.413   2.169 -0.2161 -0.1281 -0.1996
  329MOL0     C43322   0.632   5.348   2.233 -1.1343 -0.0672  0.1123
  329MOL0     C43323   0.533   5.425   2.285  0.4140  0.2933 -0.1226
  329MOL0     C43324   0.521   5.566   2.276 -1.1174  0.2506 -0.0821
  329MOL0     C43325   0.400   5.631   2.328 -0.3704 -0.4864 -0.3118
  329MOL0     O43326   0.285   5.555   2.361  0.4582 -0.2913  0.2253
  329MOL0     C43327   0.170   5.627   2.393  1.2577  0.2034 -0.6493
  329MOL0     C43328   0.083   5.663   2.289  1.0929  0.6694  0.4933
  329MOL0     C43329  -0.030   5.742   2.305 -1.0961  0.1111 -0.1067
  329MOL0     C43330  -0.067   5.789   2.430 -0.6194  1.2961  0.2063
  329MOL0     O43331  -0.180   5.851   2.465 -0.1764  0.0859 -0.3401
  329MOL0     C43332  -0.301   5.840   2.375 -0.8549 -0.4035  0.2841
  329MOL0     C43333  -0.411   5.917   2.439 -0.3588 -0.2409  0.9358
  329MOL0     C43334  -0.467   5.861   2.567  0.1796 -0.7253 -1.3724
  329MOL0     C43335  -0.612   5.908   2.577 -0.3941  0.7885  0.1557
  329MOL0     C43336  -0.702   5.809   2.645 -0.6490  0.3963  0.9324
  329MOL0     C43337  -0.693   5.670   2.579 -1.0381  0.3733 -0.8352
  329MOL0     C43338  -0.825   5.604   2.547 -0.6181 -0.5711 -0.8814
  329MOL0     C43339  -0.781   5.472   2.475  0.6358  0.4821  0.5680
  329MOL0    Cl43340  -0.929   5.405   2.406 -0.3728  0.2359  0.1638
  329MOL0     C43341   0.037   5.770   2.528  0.4070  0.1198  0.0567
  329MOL0     C43342   0.147   5.684   2.512 -0.3491 -0.1310 -0.2648
  329MOL0     O43343   0.414   5.754   2.345  0.5671 -0.3242  0.5550
  329MOL0     C43344   0.631   5.633   2.217 -0.1426  0.2918 -0.0297
  329MOL0     C43345   0.742   5.556   2.173 -0.0263 -0.0490  1.3298
  329MOL0     N43346   1.448   5.474   1.964 -1.2525  0.0548  0.3221
  329MOL0     N43347   1.540   5.416   2.043 -0.1533  0.3638  0.5476
  329MOL0     C43348   1.086   4.463   2.487  0.0115  1.1000  0.0787
  329MOL0     C43349   0.966   4.387   2.492  0.0629 -0.3570  0.0548
  329MOL0     C43350   0.527   4.257   2.495 -1.2146  0.8694 -0.5341
  329MOL0     C43351   0.472   4.212   2.379  0.2920 -0.5092  0.8914
  329MOL0     C43352   0.338   4.169   2.376 -0.2470  0.6236  0.1177
  329MOL0     C43353   0.277   4.136   2.488  0.2392 -0.5120  0.3255
  329MOL0     O43354   0.154   4.081   2.475 -0.1357  0.0582 -0.7988
  329MOL0     C43355   0.071   4.079   2.596  0.7070 -0.0349 -0.6200
  329MOL0     C43356  -0.041   4.178   2.611 -0.8418  0.3818 -0.4113
  329MOL0     C43357  -0.120   4.157   2.746  0.6046  0.0741 -0.6302
  329MOL0     C43358  -0.244   4.244   2.761 -0.5352  0.0032  0.3308
  329MOL0     C43359  -0.348   4.220   2.657 -1.0643 -0.7816  0.2814
  329MOL0     C43360  -0.436   4.215   2.582  0.7389 -0.1345  0.4778
  329MOL0     C43361   0.345   4.160   2.612 -0.2403 -0.2302 -0.5457
  329MOL0     C43362   0.466   4.229   2.615 -0.3369  0.0443  0.2170
  329MOL0     H43363   0.818   4.520   2.219  3.0439  0.3356 -2.7093
  329MOL0     H43364   1.028   4.653   2.218  2.3578  0.4274  1.1597
  329MOL0     H43365   1.211   4.743   2.232  0.0880 -0.7429 -1.8668
  329MOL0     H43366   1.298   4.604   2.187 -2.5168 -2.2374  0.5384
  329MOL0     H43367   1.493   4.649   2.344 -1.1051 -0.7820  1.7579
  329MOL0     H43368   1.426   4.793   2.396  0.5300 -1.0235  0.6125
  329MOL0     H43369   1.396   4.831   2.123  0.0100 -1.7436 -1.1336
  329MOL0     H43370   1.522   4.710   2.123  0.2442  0.4876 -0.1975
  329MOL0     H43371   1.669   4.901   2.248 -0.7145  0.2112  1.5913
  329MOL0     H43372   1.590   4.948   2.104 -0.4194 -2.3751 -1.6124
  329MOL0     H43373   1.520   4.992   2.392  0.9768  1.1935  0.8463
  329MOL0     H43374   1.398   5.040   2.276 -0.1725  1.0892  1.3494
  329MOL0     H43375   1.555   5.174   2.139  2.9333  4.1419 -0.4434
  329MOL0     H43376   1.692   5.159   2.248  1.1290  1.1264 -1.4787
  329MOL0     H43377   1.421   5.264   2.327 -0.3680 -2.0757  1.0454
  329MOL0     H43378   1.554   5.234   2.432 -1.5358 -1.9748 -0.4918
  329MOL0     H43379   1.691   5.398   2.285 -0.8202 -0.6890 -1.0772
  329MOL0     H43380   1.559   5.472   2.375 -2.6116 -3.3097  1.2961
  329MOL0     H43381   1.316   5.543   2.243  1.1058  0.4807  0.3367
  329MOL0     H43382   1.252   5.686   1.930  3.6340 -1.6781 -0.0783
  329MOL0     H43383   1.175   5.665   2.077 -2.4095 -1.2459  0.1952
  329MOL0     H43384   1.157   5.441   1.881 -0.3998  0.3079 -1.8179
  329MOL0     H43385   1.045   5.586   1.890  0.9674  0.5113 -0.5668
  329MOL0     H43386   1.098   5.386   2.120 -0.9237 -1.1889 -0.6011
  329MOL0     H43387   1.015   5.534   2.124  2.2678  0.1525 -0.0442
  329MOL0     H43388   0.962   5.275   1.969 -2.6032 -1.9211  1.3506
  329MOL0     H43389   0.870   5.398   1.915  0.0892  1.2221  0.3583
  329MOL0     H43390   0.642   5.240   2.234 -0.1412  0.0105 -0.4227
  329MOL0     H43391   0.454   5.372   2.337  2.5075 -0.7038  2.2254
  329MOL0     H43392   0.112   5.648   2.185 -0.3389  1.8998 -0.1315
  329MOL0     H43393  -0.090   5.745   2.215  1.1143 -1.6419 -1.7706
  329MOL0     H43394  -0.329   5.734   2.367  2.0086 -1.2390  0.1641
  329MOL0     H43395  -0.288   5.875   2.272 -0.5273 -0.3689  0.3358
  329MOL0     H43396  -0.488   5.922   2.361  1.1830 -2.6019 -0.8949
  329MOL0     H43397  -0.373   6.018   2.455  0.2658 -0.4151  0.5906
  329MOL0     H43398  -0.410   5.891   2.656  0.7046  1.8022 -2.4905
  329MOL0     H43399  -0.464   5.751   2.575 -0.6549 -0.6367  0.9392
  329MOL0     H43400  -0.608   5.998   2.640 -1.0161 -0.2652  1.7820
  329MOL0     H43401  -0.646   5.942   2.479  0.9379  0.8197 -0.3224
  329MOL0     H43402  -0.806   5.844   2.641 -0.9574 -0.5509  0.3022
  329MOL0     H43403  -0.671   5.798   2.750 -0.9188  1.3766  1.1301
  329MOL0     H43404  -0.637   5.602   2.644  1.1659  2.3859 -0.5208
  329MOL0     H43405  -0.627   5.669   2.491  1.5457 -0.9966  0.9700
  329MOL0     H43406  -0.871   5.567   2.639  2.0545 -2.6798 -0.2624
  329MOL0     H43407  -0.903   5.664   2.500 -1.1968 -2.9142 -3.1020
  329MOL0     H43408  -0.739   5.402   2.549 -3.0497  1.2547  3.7139
  329MOL0     H43409  -0.727   5.485   2.381  0.0058 -1.8010 -0.1685
  329MOL0     H43410   0.019   5.824   2.621  3.6015  0.1850  0.7428
  329MOL0     H43411   0.216   5.661   2.593  2.0046  0.7331 -1.9063
  329MOL0     H43412   0.634   5.742   2.225  2.3259  0.2068  1.0697
  329MOL0     H43413   0.821   5.608   2.119 -2.1355  1.6537 -0.2907
  329MOL0     H43414   1.173   4.452   2.550 -0.1809 -0.7346  0.0626
  329MOL0     H43415   0.948   4.317   2.573 -4.5706  0.0023 -0.4120
  329MOL0     H43416   0.521   4.228   2.284  1.3298  1.1067  1.6571
  329MOL0     H43417   0.296   4.147   2.278  0.0198  0.0152  0.1350
  329MOL0     H43418   0.123   4.086   2.692 -0.9435  1.6599  0.2401
  329MOL0     H43419   0.017   3.984   2.602  1.5104 -0.4189  1.6155
  329MOL0     H43420   0.002   4.278   2.618  0.3042 -0.1138 -0.1067
  329MOL0     H43421  -0.104   4.171   2.521 -1.3780 -1.1736  0.0535
  329MOL0     H43422  -0.069   4.178   2.841 -2.5643  0.7150  1.0838
  329MOL0     H43423  -0.160   4.055   2.746  0.6833  0.0244 -2.1975
  329MOL0     H43424  -0.280   4.228   2.863 -0.2935  0.1645  0.4421
  329MOL0     H43425  -0.208   4.347   2.767  0.4474 -0.4398  4.4545
  329MOL0     H43426  -0.530   4.199   2.533 -0.0052 -0.9697  2.0978
  329MOL0     H43427   0.302   4.131   2.708 -1.6338 -1.5263 -1.5111
  329MOL0     H43428   0.514   4.256   2.709  0.3440 -0.3177 -0.0167
  330MOL0     O43429   1.341   3.639   0.278  0.1565  0.1845  0.3207
  330MOL0     C43430   1.324   3.753   0.236 -0.6617 -0.5904  0.1745
  330MOL0     O43431   1.427   3.841   0.187 -0.1775  0.4431  0.1490
  330MOL0     C43432   1.555   3.798   0.146  0.4619 -0.4963 -0.4797
  330MOL0     C43433   1.647   3.895   0.151 -0.5580  0.3191  0.4836
  330MOL0     C43434   1.784   3.867   0.122  0.2313 -0.0759  0.8919
  330MOL0     C43435   1.827   3.743   0.096 -0.7539 -0.3418 -0.2619
  330MOL0     O43436   1.963   3.717   0.073  0.2695  0.9736  0.4143
  330MOL0     C43437   2.055   3.819   0.047 -0.2217  0.4370  0.1569
  330MOL0     C43438   2.182   3.767  -0.000 -0.0870  0.0473 -0.3580
  330MOL0     C43439   2.290   3.716   0.105 -0.7823 -0.4525 -0.0081
  330MOL0     C43440   2.373   3.833   0.158  0.0351  0.8117  0.0900
  330MOL0     C43441   2.490   3.796   0.256  0.4228 -0.4221  0.4642
  330MOL0     C43442   2.452   3.723   0.384 -0.5369  0.2274 -0.5038
  330MOL0     C43443   2.588   3.716   0.460 -0.0939 -0.6658 -1.0280
  330MOL0     C43444   2.565   3.662   0.600 -0.4827 -0.3129  0.0342
  330MOL0     N43445   2.693   3.627   0.660 -0.0566 -0.1852 -0.2168
  330MOL0     C43446   2.812   3.699   0.647  0.2973  0.3797 -0.5912
  330MOL0     C43447   2.897   3.625   0.724  0.3115 -0.6877 -0.5334
  330MOL0     C43448   3.042   3.664   0.751 -0.1611  0.2144  0.5017
  330MOL0     C43449   3.140   3.560   0.758  0.7110  0.3242  0.1576
  330MOL0     C43450   3.283   3.605   0.754 -0.2796  0.9533  0.2883
  330MOL0     C43451   3.374   3.481   0.721 -0.0149 -0.5128  1.2330
  330MOL0     O43452   3.509   3.524   0.748  0.6842 -0.1335  0.1987
  330MOL0     C43453   3.616   3.434   0.747  0.5896  0.3186  0.1657
  330MOL0     C43454   3.739   3.480   0.782  0.5540 -0.2037  0.3264
  330MOL0     C43455   3.852   3.392   0.789  0.2164 -0.2249 -1.2075
  330MOL0     C43456   3.846   3.257   0.756 -0.2318 -0.1299 -0.0549
  330MOL0     C43457   3.955   3.159   0.773 -0.6319  0.2796  0.4750
  330MOL0     O43458   3.926   3.025   0.797  0.4982  0.0504  0.0498
  330MOL0     C43459   4.025   2.934   0.805 -1.0052 -0.2538 -0.1013
  330MOL0     C43460   4.020   2.816   0.729  0.8998 -0.5141  0.5499
  330MOL0     C43461   4.116   2.718   0.736 -0.0449 -0.2840  0.2815
  330MOL0     C43462   4.231   2.734   0.816  0.1475  0.7046  0.7667
  330MOL0     O43463   4.335   2.651   0.818 -0.0593 -0.3251 -0.0673
  330MOL0     C43464   4.379   2.603   0.949  0.2707 -0.4965  0.8997
  330MOL0     C43465   4.523   2.527   0.927 -0.0177 -0.1675 -0.0846
  330MOL0     C43466   4.622   2.620   0.853 -0.0237 -0.4872 -0.9168
  330MOL0     C43467   4.756   2.561   0.850 -0.1665  0.5211  0.2473
  330MOL0     C43468   4.849   2.629   0.740 -0.1812  0.5078 -0.7422
  330MOL0     C43469   5.004   2.584   0.760 -0.2581 -0.7889  0.2044
  330MOL0     C43470   5.087   2.672   0.666  0.6408 -0.3144  0.5495
  330MOL0     C43471   5.226   2.656   0.684 -0.0595 -0.3498  0.6608
  330MOL0    Cl43472   5.272   2.496   0.755 -0.6013  0.0076 -0.0605
  330MOL0     C43473   4.227   2.843   0.907  0.0632  0.6478  0.0376
  330MOL0     C43474   4.126   2.940   0.904 -0.2166  0.2561 -0.2155
  330MOL0     O43475   4.065   3.201   0.758 -0.3248  0.3259 -0.5773
  330MOL0     C43476   3.720   3.216   0.718 -1.1813 -0.4707  0.4439
  330MOL0     C43477   3.602   3.300   0.717  0.0832 -0.0537 -1.3530
  330MOL0     N43478   2.829   3.526   0.791  0.2321  0.0526 -0.4617
  330MOL0     N43479   2.710   3.527   0.750  0.4486 -1.3940 -0.1449
  330MOL0     C43480   1.725   3.644   0.083  0.3546 -0.5653 -0.2855
  330MOL0     C43481   1.593   3.675   0.098  0.6165  0.0184 -1.0455
  330MOL0     C43482   1.186   3.804   0.238 -0.5671  0.2554  0.0069
  330MOL0     C43483   1.083   3.714   0.275  0.9129  0.1683 -0.4239
  330MOL0     C43484   0.954   3.767   0.285 -0.2448  0.6070  0.5794
  330MOL0     C43485   0.927   3.909   0.267  0.4612  1.6316  0.0052
  330MOL0     O43486   0.799   3.947   0.264  0.4404  0.4206 -0.3834
  330MOL0     C43487   0.769   4.092   0.267  0.3267  0.6638 -0.4395
  330MOL0     C43488   0.617   4.118   0.282  0.4352  0.7902  0.0579
  330MOL0     C43489   0.525   4.024   0.207  0.3498 -0.0869  0.8453
  330MOL0     C43490   0.373   4.041   0.232 -0.0140 -0.5684 -0.8439
  330MOL0     C43491   0.293   3.962   0.140  0.3148  0.4367  0.5983
  330MOL0     C43492   0.224   3.900   0.060  0.3882  0.3867 -0.1612
  330MOL0     C43493   1.034   3.985   0.236 -0.4982 -0.1770 -0.0557
  330MOL0     C43494   1.158   3.937   0.225 -0.3849  1.1185  0.3206
  330MOL0     H43495   1.625   3.998   0.175  0.8581  0.6131  0.6512
  330MOL0     H43496   1.859   3.946   0.113 -1.7774  1.8175 -0.0824
  330MOL0     H43497   2.071   3.883   0.134 -0.6042 -0.8423  1.2018
  330MOL0     H43498   2.019   3.888  -0.030  3.3688 -0.5158 -2.6261
  330MOL0     H43499   2.233   3.851  -0.049  1.2781 -0.1283  0.7104
  330MOL0     H43500   2.164   3.691  -0.076  0.8396  0.7311 -1.2969
  330MOL0     H43501   2.362   3.651   0.055  2.6936  1.5688  1.9399
  330MOL0     H43502   2.241   3.669   0.190 -1.8480 -0.2427 -0.4916
  330MOL0     H43503   2.430   3.884   0.080  3.4973 -0.4914  1.5567
  330MOL0     H43504   2.302   3.899   0.208  0.3294  1.0581  0.1854
  330MOL0     H43505   2.551   3.883   0.281 -1.9680  1.3611  0.4859
  330MOL0     H43506   2.551   3.726   0.199 -0.5316 -0.6692 -0.2819
  330MOL0     H43507   2.424   3.625   0.344 -0.8717  0.5159 -0.9773
  330MOL0     H43508   2.368   3.750   0.449  0.3726  0.3463  0.6739
  330MOL0     H43509   2.658   3.652   0.406  0.6673 -1.6999  1.0780
  330MOL0     H43510   2.620   3.820   0.466  4.2423 -1.8732  0.2834
  330MOL0     H43511   2.501   3.574   0.588 -0.3185 -0.4653  0.2550
  330MOL0     H43512   2.516   3.734   0.666 -2.7483 -2.9526  1.4490
  330MOL0     H43513   2.838   3.783   0.583 -2.5405  1.6350 -0.2558
  330MOL0     H43514   3.049   3.717   0.847  0.2925 -2.2074  1.8722
  330MOL0     H43515   3.061   3.750   0.686  1.1813  0.8628  1.6964
  330MOL0     H43516   3.127   3.492   0.673  1.5427  1.5981 -1.0299
  330MOL0     H43517   3.138   3.502   0.851 -0.2439 -0.8318 -0.5665
  330MOL0     H43518   3.302   3.675   0.672  0.2207 -0.2744 -0.6864
  330MOL0     H43519   3.305   3.650   0.851  2.9562 -0.2073  0.2114
  330MOL0     H43520   3.356   3.453   0.617 -3.9223  0.7556  1.3998
  330MOL0     H43521   3.338   3.397   0.782  1.4094  0.0535  2.9421
  330MOL0     H43522   3.767   3.581   0.811 -0.3880 -0.1272  1.0087
  330MOL0     H43523   3.950   3.421   0.826 -0.4905 -1.5175  2.0039
  330MOL0     H43524   3.935   2.799   0.665 -0.6107 -0.2621  2.4101
  330MOL0     H43525   4.111   2.628   0.677 -1.6521 -0.1512  0.1758
  330MOL0     H43526   4.318   2.529   1.001  2.0424 -2.0826  0.8442
  330MOL0     H43527   4.408   2.693   1.004 -0.9604 -0.3180  1.2806
  330MOL0     H43528   4.498   2.437   0.869  0.5289 -0.3500 -0.0433
  330MOL0     H43529   4.568   2.502   1.024  2.1810  1.4849 -0.5944
  330MOL0     H43530   4.630   2.718   0.902  1.7319 -0.1183 -1.8349
  330MOL0     H43531   4.585   2.647   0.754 -2.2339  1.6528  0.3613
  330MOL0     H43532   4.795   2.570   0.952 -3.6694  2.0309  1.6167
  330MOL0     H43533   4.743   2.455   0.827  0.9172 -0.0262  1.9750
  330MOL0     H43534   4.849   2.737   0.756 -0.5232  0.4808 -0.5692
  330MOL0     H43535   4.808   2.611   0.640  1.1831 -1.0350 -1.0692
  330MOL0     H43536   5.007   2.476   0.741  2.9673 -0.7772  0.1275
  330MOL0     H43537   5.038   2.607   0.862 -1.6763  2.4260  0.0630
  330MOL0     H43538   5.049   2.640   0.569  2.2113 -1.5112  0.2933
  330MOL0     H43539   5.070   2.780   0.666 -0.2605 -0.4147 -1.2320
  330MOL0     H43540   5.263   2.737   0.748  2.3081 -1.2778  0.5595
  330MOL0     H43541   5.281   2.678   0.593 -0.6909 -2.2650 -0.2451
  330MOL0     H43542   4.313   2.858   0.972 -0.0837 -0.9910  0.6627
  330MOL0     H43543   4.138   3.029   0.965  2.5859  0.4810 -0.9334
  330MOL0     H43544   3.694   3.116   0.687 -2.6864  0.2336 -0.7088
  330MOL0     H43545   3.508   3.261   0.680 -0.5167  0.8440 -0.8197
  330MOL0     H43546   1.767   3.553   0.041  1.7684 -0.5216  0.9402
  330MOL0     H43547   1.520   3.595   0.094 -0.4242  0.7113  1.9181
  330MOL0     H43548   1.100   3.609   0.299 -1.4132 -0.6247 -1.8991
  330MOL0     H43549   0.875   3.698   0.314 -0.4141  0.1913 -0.8154
  330MOL0     H43550   0.802   4.145   0.178  0.8358  2.3322  0.7061
  330MOL0     H43551   0.814   4.127   0.360  1.2992  1.0091 -1.0262
  330MOL0     H43552   0.599   4.095   0.387 -2.7119 -1.8500 -0.8870
  330MOL0     H43553   0.587   4.222   0.265  0.6959  1.3938  2.8548
  330MOL0     H43554   0.541   3.919   0.233  0.3456 -0.7299 -1.4724
  330MOL0     H43555   0.537   4.029   0.098 -0.3285 -0.7897  0.7283
  330MOL0     H43556   0.353   4.013   0.336  2.7612  0.4606  0.0498
  330MOL0     H43557   0.350   4.146   0.215  0.3612 -0.4184 -0.4477
  330MOL0     H43558   0.171   3.836  -0.008  0.9366 -0.0746 -0.1599
  330MOL0     H43559   1.034   4.094   0.239 -0.9159 -0.1873  0.4810
  330MOL0     H43560   1.230   4.014   0.202  2.1969 -0.4628  2.4987
  331MOL0     O43561  10.550   9.797   8.310 -0.7358 -0.1404 -0.2211
  331MOL0     C43562  10.481   9.887   8.271  0.2632  0.5821 -0.8160
  331MOL0     O43563  10.351   9.873   8.209 -0.0024  0.1266 -0.1891
  331MOL0     C43564  10.316   9.755   8.144  0.5226 -0.0683  0.9504
  331MOL0     C43565  10.185   9.746   8.112 -0.3907 -0.9078  0.0295
  331MOL0     C43566  10.131   9.647   8.049  0.2562 -0.2984 -0.7357
  331MOL0     C43567  10.194   9.517   8.043  0.0917  0.0107  0.4476
  331MOL0     O43568  10.137   9.400   8.000 -0.7255 -0.6766  0.0702
  331MOL0     C43569   9.998   9.411   7.955  1.6654  1.0273  0.0995
  331MOL0     C43570   9.955   9.275   7.900  0.0181 -0.6361 -0.1401
  331MOL0     C43571   9.802   9.260   7.880  0.0447 -0.0048 -0.2921
  331MOL0     C43572   9.766   9.123   7.813 -0.9541  0.2135  0.4124
  331MOL0     C43573   9.613   9.079   7.835 -0.5799  0.2207 -1.0547
  331MOL0     C43574   9.587   8.935   7.792 -0.0594 -0.6044  0.2428
  331MOL0     C43575   9.443   8.893   7.810  0.5534  0.4777 -0.6726
  331MOL0     C43576   9.425   8.740   7.773  0.5919 -0.1868  0.0789
  331MOL0     N43577   9.286   8.690   7.770  0.1902  0.1861  1.0557
  331MOL0     C43578   9.178   8.760   7.814 -0.3893  0.7828 -0.1098
  331MOL0     C43579   9.074   8.676   7.789 -0.4658 -0.8204 -1.1313
  331MOL0     C43580   8.928   8.698   7.836 -0.2527 -0.2215  0.0003
  331MOL0     C43581   8.831   8.587   7.812 -0.0586  0.7474 -0.2594
  331MOL0     C43582   8.689   8.625   7.859  0.3725  0.3030 -1.0525
  331MOL0     C43583   8.580   8.523   7.811 -0.3034 -0.0920 -0.2772
  331MOL0     O43584   8.571   8.537   7.670  0.5297  0.6415  0.4360
  331MOL0     C43585   8.462   8.487   7.604  0.6468  0.1781  0.0921
  331MOL0     C43586   8.461   8.499   7.461 -0.1925 -0.6213  0.2359
  331MOL0     C43587   8.359   8.452   7.385 -0.6665  0.0496 -0.4595
  331MOL0     C43588   8.253   8.383   7.442 -0.4922  0.0284  0.2847
  331MOL0     C43589   8.145   8.331   7.357  0.1010 -0.8074  0.3800
  331MOL0     O43590   8.163   8.307   7.221  0.0300  0.5868  0.1724
  331MOL0     C43591   8.069   8.263   7.137  0.5429 -0.7227 -0.2272
  331MOL0     C43592   8.113   8.174   7.029  0.4185 -0.4933 -0.8841
  331MOL0     C43593   8.026   8.145   6.923  0.4347 -1.4676 -0.2210
  331MOL0     C43594   7.904   8.210   6.912 -0.4297  0.0957  0.1194
  331MOL0     O43595   7.821   8.185   6.808 -0.1154 -0.1335 -0.1993
  331MOL0     C43596   7.814   8.047   6.755 -0.9990  0.3277 -0.4544
  331MOL0     C43597   7.703   8.030   6.651  1.0685 -0.5655 -1.2694
  331MOL0     C43598   7.565   8.082   6.707 -0.6277  0.1467 -0.1552
  331MOL0     C43599   7.455   8.013   6.634  0.3938 -0.5729  0.1592
  331MOL0     C43600   7.322   8.080   6.671  0.8913 -0.5425  0.7783
  331MOL0     C43601   7.280   8.199   6.599  0.0985 -0.5954  0.1180
  331MOL0     C43602   7.260   8.198   6.447 -0.2584  0.2253 -0.2121
  331MOL0     C43603   7.256   8.341   6.392  0.6482 -0.1717 -0.0154
  331MOL0    Cl43604   7.204   8.332   6.214  0.0065  0.1265  0.4722
  331MOL0     C43605   7.862   8.296   7.011  1.1229  0.0549  0.0635
  331MOL0     C43606   7.942   8.321   7.126  0.7630 -1.0886  0.0466
  331MOL0     O43607   8.035   8.325   7.414 -0.9299  0.6193  0.8305
  331MOL0     C43608   8.248   8.372   7.585 -0.1402  0.1615 -0.5855
  331MOL0     C43609   8.348   8.423   7.664 -0.2823  0.8438  0.3253
  331MOL0     N43610   9.124   8.566   7.727  1.0776  0.0015  0.0491
  331MOL0     N43611   9.245   8.574   7.709 -0.3568  0.4269 -0.1889
  331MOL0     C43612  10.331   9.511   8.071 -0.0748  0.2623  0.1442
  331MOL0     C43613  10.390   9.638   8.118  0.1779  0.6097 -0.3862
  331MOL0     C43614  10.530  10.029   8.303 -0.0801 -0.6887 -0.1578
  331MOL0     C43615  10.613  10.053   8.420 -0.0731 -0.2199 -1.1662
  331MOL0     C43616  10.663  10.185   8.434  0.6587 -0.2389  0.3746
  331MOL0     C43617  10.636  10.296   8.341 -0.3739  0.1204 -0.2105
  331MOL0     O43618  10.677  10.427   8.347  0.6188  0.3006  0.4206
  331MOL0     C43619  10.774  10.470   8.438  0.8846  0.2580  0.6291
  331MOL0     C43620  10.904  10.418   8.398 -0.7636  0.2056 -0.1534
  331MOL0     C43621  10.946  10.453   8.252 -0.2563  0.0290 -0.1540
  331MOL0     C43622  11.103  10.450   8.238  0.5896  1.5530  0.2096
  331MOL0     C43623  11.156  10.495   8.107  0.0683 -0.5917  0.1452
  331MOL0     C43624  11.195  10.543   8.000 -0.4192 -1.0748 -0.0559
  331MOL0     C43625  10.553  10.261   8.236  0.5153 -0.0217  0.5635
  331MOL0     C43626  10.503  10.134   8.215 -0.5226  0.7836  0.9515
  331MOL0     H43627  10.127   9.833   8.142  0.2379 -0.9740  1.5421
  331MOL0     H43628  10.027   9.657   8.020 -0.2892 -3.0502  0.0325
  331MOL0     H43629   9.989   9.485   7.876  0.9614  0.3488 -0.4686
  331MOL0     H43630   9.938   9.444   8.040 -0.8063  2.1673 -1.9647
  331MOL0     H43631   9.984   9.195   7.969  1.0454 -0.4454 -0.3282
  331MOL0     H43632  10.011   9.270   7.805  2.4169 -2.1890  1.2330
  331MOL0     H43633   9.765   9.346   7.825  1.0374  1.8929  1.8551
  331MOL0     H43634   9.746   9.264   7.974 -0.8036  0.8966 -0.8173
  331MOL0     H43635   9.779   9.123   7.704 -1.5167 -0.2304  0.3422
  331MOL0     H43636   9.827   9.041   7.852 -2.7230 -1.6242 -0.5076
  331MOL0     H43637   9.545   9.143   7.779 -1.3686 -0.4455 -0.8777
  331MOL0     H43638   9.591   9.096   7.941  2.0381  1.4859 -0.6497
  331MOL0     H43639   9.654   8.864   7.840  0.9758  0.1164 -0.1074
  331MOL0     H43640   9.603   8.934   7.684 -0.9174 -0.3108  0.1009
  331MOL0     H43641   9.404   8.908   7.911 -0.2645  1.5120 -1.1196
  331MOL0     H43642   9.363   8.945   7.756 -2.2649 -1.6657  1.1501
  331MOL0     H43643   9.477   8.676   7.845  1.2755 -0.6369 -0.7898
  331MOL0     H43644   9.464   8.709   7.675  0.8928 -2.7968  0.9551
  331MOL0     H43645   9.182   8.859   7.859  0.9724  0.8939 -0.4303
  331MOL0     H43646   8.887   8.785   7.783 -2.1077 -1.4598 -0.6937
  331MOL0     H43647   8.926   8.736   7.939  1.5342 -0.0677  0.0050
  331MOL0     H43648   8.861   8.496   7.865  0.2639 -1.4539 -3.9213
  331MOL0     H43649   8.807   8.569   7.707 -2.3284 -0.2677  0.3915
  331MOL0     H43650   8.697   8.612   7.967  2.7801 -1.5549 -1.3767
  331MOL0     H43651   8.671   8.731   7.839  1.6506  0.7998  0.2609
  331MOL0     H43652   8.485   8.555   7.854  0.4162  3.6878 -1.1209
  331MOL0     H43653   8.593   8.421   7.848 -0.2410  0.3366  0.9356
  331MOL0     H43654   8.548   8.550   7.420 -0.6578  0.0822  0.0995
  331MOL0     H43655   8.368   8.460   7.277 -0.9976 -1.7362 -0.6510
  331MOL0     H43656   8.204   8.115   7.036 -0.3197 -1.9130 -2.6912
  331MOL0     H43657   8.058   8.069   6.851  2.6413  0.0332 -0.9282
  331MOL0     H43658   7.796   7.987   6.844  1.0913  1.0635  0.5247
  331MOL0     H43659   7.915   8.023   6.723 -0.5855  0.9392  0.3616
  331MOL0     H43660   7.701   7.924   6.625  3.7763 -0.5150 -2.0749
  331MOL0     H43661   7.725   8.087   6.560 -1.4345  0.0502 -1.5503
  331MOL0     H43662   7.559   8.191   6.699  2.6158  0.4756  0.6143
  331MOL0     H43663   7.547   8.062   6.813 -1.5833 -1.0204 -0.5175
  331MOL0     H43664   7.465   8.017   6.525  0.3666  4.0797  0.1188
  331MOL0     H43665   7.444   7.909   6.665 -0.6476 -0.1627  1.2508
  331MOL0     H43666   7.328   8.098   6.779 -0.9472 -0.4137  0.8798
  331MOL0     H43667   7.242   8.006   6.671  0.7401 -0.6826  5.5251
  331MOL0     H43668   7.364   8.267   6.615  1.0327 -1.1056 -2.1957
  331MOL0     H43669   7.194   8.255   6.638  0.2626 -0.7056  0.6359
  331MOL0     H43670   7.347   8.146   6.406  0.8551  1.1037  0.9643
  331MOL0     H43671   7.162   8.157   6.419  0.2848 -1.4126  0.2010
  331MOL0     H43672   7.356   8.384   6.403  0.3950  0.5864 -0.6145
  331MOL0     H43673   7.182   8.403   6.444 -1.6991 -1.8882 -1.1434
  331MOL0     H43674   7.769   8.350   6.994 -0.3288 -1.6499  2.1316
  331MOL0     H43675   7.908   8.379   7.211  3.0644 -0.4001  0.5724
  331MOL0     H43676   8.172   8.318   7.641 -1.9500 -0.6008 -3.5679
  331MOL0     H43677   8.338   8.414   7.772  4.0029 -1.2064  0.7845
  331MOL0     H43678  10.385   9.421   8.045  2.3088  1.4509  0.6183
  331MOL0     H43679  10.492   9.631   8.156 -0.2023 -0.2218  0.5457
  331MOL0     H43680  10.626   9.971   8.489 -2.1774 -1.3878 -2.0573
  331MOL0     H43681  10.733  10.211   8.512  3.3497  3.5326 -2.8857
  331MOL0     H43682  10.753  10.435   8.540  1.0706  2.0670  1.3408
  331MOL0     H43683  10.766  10.579   8.433 -1.4536  0.1238  0.3766
  331MOL0     H43684  10.981  10.468   8.457 -1.1050  0.0254  0.4575
  331MOL0     H43685  10.910  10.309   8.401  0.5294  0.2764  0.8701
  331MOL0     H43686  10.901  10.544   8.213  0.2824 -0.0990 -1.1209
  331MOL0     H43687  10.904  10.371   8.193 -4.3025  3.4343 -2.5346
  331MOL0     H43688  11.151  10.517   8.310 -0.3027  0.0631  2.3144
  331MOL0     H43689  11.147  10.355   8.269  1.7063  1.8140 -0.5341
  331MOL0     H43690  11.229  10.583   7.907  2.9551  1.3975  2.0027
  331MOL0     H43691  10.533  10.337   8.160 -0.5902  1.5240  2.3214
  331MOL0     H43692  10.453  10.104   8.124  1.0166  0.0499  0.3170
  332MOL0     O43693   5.223   0.601   6.849  0.1440  0.9025  0.3746
  332MOL0     C43694   5.256   0.561   6.736 -0.6082 -0.5224  0.3314
  332MOL0     O43695   5.166   0.523   6.637 -0.2870  0.4522  0.1866
  332MOL0     C43696   5.039   0.506   6.671 -0.0099  0.5200  0.5708
  332MOL0     C43697   4.991   0.412   6.770 -0.5390  0.0337  0.3750
  332MOL0     C43698   4.857   0.409   6.803  0.3473 -0.0777  1.5462
  332MOL0     C43699   4.769   0.511   6.752 -0.0754  0.2441  0.5079
  332MOL0     O43700   4.643   0.508   6.795  0.2817  1.3086 -0.3907
  332MOL0     C43701   4.537   0.586   6.745 -0.7514  0.8376 -0.0916
  332MOL0     C43702   4.448   0.620   6.865  0.8844 -0.4133 -0.0230
  332MOL0     C43703   4.333   0.712   6.822 -0.0355 -0.5897 -1.3092
  332MOL0     C43704   4.228   0.740   6.930  0.0054  1.0340  0.0425
  332MOL0     C43705   4.096   0.821   6.893  1.2299 -0.4508  0.4098
  332MOL0     C43706   4.118   0.970   6.883 -0.7731 -0.0591  1.1697
  332MOL0     C43707   3.990   1.049   6.844  1.2495  1.1875  0.5451
  332MOL0     C43708   3.967   1.096   6.696 -0.5701 -0.1609 -0.0171
  332MOL0     N43709   3.986   0.970   6.625 -0.9645 -0.4351  0.9745
  332MOL0     C43710   3.890   0.880   6.604 -0.4097  0.1186 -0.3481
  332MOL0     C43711   3.948   0.780   6.528  0.1560 -0.3082  1.0807
  332MOL0     C43712   3.879   0.655   6.468  0.9451 -0.0114 -0.2378
  332MOL0     C43713   3.954   0.524   6.489 -1.1040 -0.4878  0.5418
  332MOL0     C43714   4.087   0.503   6.407 -0.0802 -0.3662 -0.1056
  332MOL0     C43715   4.074   0.507   6.256  0.7524  0.2491  0.2900
  332MOL0     O43716   4.174   0.414   6.190  0.6951 -0.2294  0.2329
  332MOL0     C43717   4.295   0.467   6.167 -0.5049 -0.8241  0.4441
  332MOL0     C43718   4.317   0.563   6.070 -0.0522  0.1878 -0.4257
  332MOL0     C43719   4.438   0.634   6.058  0.3846  0.2945 -0.2983
  332MOL0     C43720   4.544   0.602   6.149 -0.3843  0.1319  0.5548
  332MOL0     C43721   4.675   0.673   6.130  0.2837 -0.5884 -0.8589
  332MOL0     O43722   4.778   0.615   6.210 -0.2700 -0.3654  0.0677
  332MOL0     C43723   4.909   0.664   6.206 -0.3636  0.4709 -0.5477
  332MOL0     C43724   5.005   0.562   6.217  0.7498  0.2291 -0.9539
  332MOL0     C43725   5.141   0.595   6.224  0.1685 -0.1813 -0.0359
  332MOL0     C43726   5.187   0.724   6.238  0.4033 -0.5577  0.0500
  332MOL0     O43727   5.327   0.749   6.244  0.0642  0.1519 -0.6576
  332MOL0     C43728   5.408   0.715   6.134 -0.6485 -0.1052 -0.0797
  332MOL0     C43729   5.553   0.702   6.174  0.5041 -0.4402 -0.2800
  332MOL0     C43730   5.645   0.636   6.085  0.1891 -0.1242 -0.4709
  332MOL0     C43731   5.676   0.719   5.956 -0.1964  0.8551 -0.0421
  332MOL0     C43732   5.787   0.644   5.879 -0.0562 -0.4951 -0.2931
  332MOL0     C43733   5.837   0.731   5.768 -0.0491 -0.2239  0.1740
  332MOL0     C43734   5.934   0.652   5.680  0.2288  0.5047 -0.6218
  332MOL0     C43735   5.959   0.727   5.550  0.2753 -0.0409 -0.5856
  332MOL0    Cl43736   5.831   0.715   5.428  0.0323  0.2563  0.1293
  332MOL0     C43737   5.087   0.824   6.235 -0.6845  0.1597 -1.2047
  332MOL0     C43738   4.950   0.801   6.223  0.8456 -0.0473  0.3513
  332MOL0     O43739   4.690   0.752   6.044 -0.0749  0.7006 -0.3929
  332MOL0     C43740   4.532   0.489   6.238  0.5722  0.6619  0.3898
  332MOL0     C43741   4.399   0.430   6.244  0.1581  0.4777 -0.6833
  332MOL0     N43742   4.074   0.823   6.494  1.4548 -0.1842  0.1159
  332MOL0     N43743   4.090   0.939   6.539 -0.0186 -0.5642 -0.8311
  332MOL0     C43744   4.812   0.582   6.648 -0.4211 -0.9688  0.0008
  332MOL0     C43745   4.944   0.575   6.601  1.0298 -0.1844  0.8497
  332MOL0     C43746   5.398   0.564   6.701 -0.3153  0.0822  0.2875
  332MOL0     C43747   5.489   0.604   6.809  0.6857 -0.0098  0.6584
  332MOL0     C43748   5.616   0.625   6.777  0.2604 -0.5882  0.2622
  332MOL0     C43749   5.665   0.595   6.649  0.1771  0.5776  0.7252
  332MOL0     O43750   5.798   0.632   6.648 -1.6333 -0.3395 -0.2131
  332MOL0     C43751   5.880   0.605   6.536 -0.4571  1.0081  1.0743
  332MOL0     C43752   5.961   0.474   6.564 -0.1944  0.5892  0.6127
  332MOL0     C43753   6.003   0.449   6.709 -0.5053  0.4847  0.4196
  332MOL0     C43754   6.087   0.313   6.731 -0.4629 -0.0458 -0.2758
  332MOL0     C43755   5.998   0.204   6.764  0.2235 -0.1151  0.4796
  332MOL0     C43756   5.916   0.139   6.818  0.4640 -0.2164  0.0410
  332MOL0     C43757   5.592   0.524   6.552 -0.4902  0.3677  0.0480
  332MOL0     C43758   5.450   0.518   6.577 -0.0280  0.5476 -1.1600
  332MOL0     H43759   5.064   0.345   6.815 -1.4246 -0.9319  0.4021
  332MOL0     H43760   4.830   0.332   6.875 -1.4502 -0.4348  0.5497
  332MOL0     H43761   4.481   0.540   6.663  0.0245 -1.9881  0.8129
  332MOL0     H43762   4.580   0.679   6.708  1.5373  0.2774  0.9150
  332MOL0     H43763   4.514   0.664   6.941  0.5977 -3.0078  1.8585
  332MOL0     H43764   4.402   0.528   6.903  2.0923 -1.6183 -1.3372
  332MOL0     H43765   4.280   0.670   6.736 -1.5327  1.2573 -1.3673
  332MOL0     H43766   4.389   0.801   6.789  1.4369 -0.2332  1.8147
  332MOL0     H43767   4.203   0.639   6.963  0.5152  0.6462 -0.7308
  332MOL0     H43768   4.287   0.792   7.006  1.1561  0.5075 -0.4624
  332MOL0     H43769   4.031   0.809   6.979  2.5858  2.1551  1.9342
  332MOL0     H43770   4.041   0.790   6.804 -2.0556  2.3877  1.2249
  332MOL0     H43771   4.191   0.983   6.803 -1.6440  3.8275  0.7830
  332MOL0     H43772   4.156   1.026   6.970  3.6714 -1.3109  0.2867
  332MOL0     H43773   3.907   0.985   6.873  0.2227  3.1326  2.1331
  332MOL0     H43774   3.993   1.139   6.906  0.0183 -0.2987  2.8639
  332MOL0     H43775   4.036   1.175   6.667 -0.8759  0.2924  0.4683
  332MOL0     H43776   3.868   1.140   6.682  0.0156  1.1825 -0.0111
  332MOL0     H43777   3.788   0.869   6.642  0.2570 -2.4723  0.8820
  332MOL0     H43778   3.878   0.661   6.359  1.6617  0.2258 -0.2376
  332MOL0     H43779   3.776   0.649   6.505  0.4607 -2.4437 -1.7038
  332MOL0     H43780   3.896   0.442   6.446  0.1589 -0.9200 -0.4012
  332MOL0     H43781   3.966   0.486   6.591  1.9954 -2.8930 -0.5809
  332MOL0     H43782   4.167   0.571   6.439 -1.7242  1.9351 -0.6132
  332MOL0     H43783   4.128   0.404   6.430  0.4686  0.4498  2.9526
  332MOL0     H43784   4.094   0.611   6.229  0.9450  0.4961  1.3338
  332MOL0     H43785   3.975   0.483   6.218  2.0722 -2.7860 -1.6803
  332MOL0     H43786   4.231   0.605   6.018  2.4092  2.2950 -3.1110
  332MOL0     H43787   4.439   0.720   5.991  1.9118 -0.6677 -1.5787
  332MOL0     H43788   4.973   0.458   6.208 -2.1432  0.5856  2.7261
  332MOL0     H43789   5.214   0.514   6.218 -0.4187 -0.6095 -2.1462
  332MOL0     H43790   5.399   0.785   6.051 -1.1249  3.9387  3.0760
  332MOL0     H43791   5.378   0.613   6.107 -1.3466  0.2366 -0.5938
  332MOL0     H43792   5.563   0.642   6.265 -0.4292  1.2956  1.0468
  332MOL0     H43793   5.585   0.806   6.180 -3.3100  1.0667 -2.5003
  332MOL0     H43794   5.594   0.548   6.044  0.2871 -0.5358  0.2658
  332MOL0     H43795   5.727   0.609   6.152 -1.6622  1.1052  2.4789
  332MOL0     H43796   5.588   0.725   5.892 -0.6248 -0.4657  0.3974
  332MOL0     H43797   5.706   0.823   5.974  0.7081  0.0516  4.0646
  332MOL0     H43798   5.755   0.549   5.836  1.8775 -0.8266 -1.1087
  332MOL0     H43799   5.865   0.635   5.955  1.5620 -3.3454 -2.1058
  332MOL0     H43800   5.893   0.817   5.808 -0.3297 -0.0661  0.2341
  332MOL0     H43801   5.757   0.759   5.698  0.7054 -1.2388 -1.1395
  332MOL0     H43802   6.029   0.630   5.729 -1.4611 -0.1433  2.6518
  332MOL0     H43803   5.892   0.557   5.646 -2.2285  0.1195  2.9343
  332MOL0     H43804   6.050   0.698   5.495  1.5095  0.9565  0.8351
  332MOL0     H43805   5.967   0.834   5.573 -0.4865  0.2826 -1.7348
  332MOL0     H43806   5.123   0.926   6.243  2.0966 -0.7797 -0.8260
  332MOL0     H43807   4.880   0.884   6.224  1.0345  0.1083  0.7060
  332MOL0     H43808   4.624   0.449   6.281 -0.9403 -2.1164  1.2602
  332MOL0     H43809   4.393   0.342   6.308 -6.2943  0.1456 -1.1165
  332MOL0     H43810   4.743   0.633   6.582  1.1217  2.4880  0.8460
  332MOL0     H43811   4.969   0.629   6.510 -0.5376  4.4149  2.8177
  332MOL0     H43812   5.460   0.628   6.910 -0.9456  3.4129 -0.4902
  332MOL0     H43813   5.683   0.666   6.852  1.1498 -2.2842  0.4502
  332MOL0     H43814   5.950   0.686   6.515 -2.1815  2.5240  0.9940
  332MOL0     H43815   5.826   0.596   6.441 -0.9810  0.7303  1.3955
  332MOL0     H43816   5.890   0.393   6.541  0.8124  0.1654 -1.2435
  332MOL0     H43817   6.047   0.454   6.500 -1.2781 -2.9951  0.0151
  332MOL0     H43818   5.917   0.447   6.777 -1.7721  2.9944 -1.0179
  332MOL0     H43819   6.072   0.529   6.739 -0.0902  0.6910 -1.0128
  332MOL0     H43820   6.145   0.286   6.643 -1.9171 -1.9861 -0.6983
  332MOL0     H43821   6.159   0.327   6.813 -1.8888  2.3281  0.6952
  332MOL0     H43822   5.839   0.080   6.862 -2.1237  2.7571 -0.1587
  332MOL0     H43823   5.628   0.481   6.459 -2.7009 -0.1574 -0.6418
  332MOL0     H43824   5.381   0.492   6.497  1.7567 -0.1319 -2.5434
  333MOL0     O43825   2.932   0.531   7.471 -0.4729 -0.6085 -0.3368
  333MOL0     C43826   3.014   0.602   7.529  0.4282  0.4581 -0.0170
  333MOL0     O43827   2.978   0.703   7.622  0.0436 -0.3646  0.0901
  333MOL0     C43828   2.856   0.684   7.682 -0.1751  0.0921 -0.1225
  333MOL0     C43829   2.731   0.693   7.613 -0.0050 -0.4947  0.8709
  333MOL0     C43830   2.608   0.690   7.674 -0.1853 -0.2347 -0.1223
  333MOL0     C43831   2.599   0.682   7.815  0.6213  0.2008  0.0931
  333MOL0     O43832   2.472   0.668   7.875 -0.0746 -0.8672  0.5154
  333MOL0     C43833   2.446   0.749   7.999  0.3566  0.1332  0.8576
  333MOL0     C43834   2.295   0.771   8.006  0.4807  0.3772 -0.2268
  333MOL0     C43835   2.261   0.878   8.109  0.1683 -0.2945 -1.2198
  333MOL0     C43836   2.118   0.929   8.083 -0.9344 -0.2749 -0.7088
  333MOL0     C43837   2.070   1.018   8.192  0.2197 -0.1838 -0.1770
  333MOL0     C43838   1.918   1.051   8.183  0.4020 -0.9952  0.0640
  333MOL0     C43839   1.866   1.116   8.315 -0.0558  1.0887  0.5200
  333MOL0     C43840   1.947   1.241   8.368  0.1772  0.8468  0.4456
  333MOL0     N43841   1.920   1.348   8.265 -0.0451  0.8548  0.2640
  333MOL0     C43842   2.007   1.385   8.171 -0.2382  0.4686  0.7547
  333MOL0     C43843   1.943   1.475   8.101 -0.5004 -0.2400  0.3295
  333MOL0     C43844   2.005   1.534   7.971 -0.4316  1.0054 -0.2931
  333MOL0     C43845   1.964   1.467   7.842  0.9378 -1.8119  0.5663
  333MOL0     C43846   2.061   1.366   7.774 -0.2549  0.5445 -0.2628
  333MOL0     C43847   2.084   1.226   7.842 -0.0729  0.0449  0.2988
  333MOL0     O43848   2.182   1.248   7.947  0.9774  0.3970 -0.1528
  333MOL0     C43849   2.311   1.210   7.921 -0.3714 -0.0042  0.0187
  333MOL0     C43850   2.407   1.284   8.001  0.0383  1.3212 -0.0487
  333MOL0     C43851   2.541   1.257   7.975  0.1440 -0.3814 -0.8236
  333MOL0     C43852   2.581   1.169   7.877 -1.1521  0.5495  0.3930
  333MOL0     C43853   2.728   1.155   7.844 -0.0127  0.5726 -0.0149
  333MOL0     O43854   2.772   1.055   7.756 -0.5172 -0.0666  0.1574
  333MOL0     C43855   2.908   1.042   7.745  0.3409  0.3305 -0.0701
  333MOL0     C43856   2.995   0.996   7.845  0.3677 -0.6324  0.4511
  333MOL0     C43857   3.132   0.987   7.811  0.0970  0.2182 -0.7361
  333MOL0     C43858   3.172   1.023   7.687  0.5943 -0.2136  0.7761
  333MOL0     O43859   3.310   1.023   7.670 -0.4393 -0.7882  0.3369
  333MOL0     C43860   3.378   1.115   7.585  0.1113  1.2786 -0.2711
  333MOL0     C43861   3.450   1.055   7.466  0.5477  0.9207  0.3781
  333MOL0     C43862   3.544   1.152   7.391  0.5622 -0.6639 -0.7234
  333MOL0     C43863   3.599   1.067   7.274  0.0096 -0.3629  0.0205
  333MOL0     C43864   3.745   1.116   7.211 -0.2535 -0.3515  0.0028
  333MOL0     C43865   3.861   1.039   7.275 -0.4261 -0.2345 -0.6856
  333MOL0     C43866   3.996   1.112   7.258  0.0227  0.1302 -0.3895
  333MOL0     C43867   4.105   1.013   7.306  0.2195  0.4204  0.7496
  333MOL0    Cl43868   4.096   0.847   7.226  0.3568  0.0920  0.0674
  333MOL0     C43869   3.087   1.062   7.589  0.4145 -0.3176 -0.0032
  333MOL0     C43870   2.956   1.075   7.617 -0.5067 -0.5723  0.1719
  333MOL0     O43871   2.807   1.232   7.903  0.2407  0.5414 -0.4113
  333MOL0     C43872   2.486   1.097   7.804  0.1893  0.0611 -0.9840
  333MOL0     C43873   2.352   1.116   7.831  0.5537 -0.5389  0.0968
  333MOL0     N43874   1.817   1.506   8.152 -0.1290  0.5069  0.5357
  333MOL0     N43875   1.813   1.426   8.254 -0.8640  0.0668 -0.3609
  333MOL0     C43876   2.720   0.666   7.883 -0.0261  0.7901 -0.1106
  333MOL0     C43877   2.846   0.658   7.817  0.0176 -0.6318 -0.0326
  333MOL0     C43878   3.150   0.594   7.510 -0.3629  0.6423  0.3161
  333MOL0     C43879   3.248   0.682   7.572 -0.2022  0.4386  1.0611
  333MOL0     C43880   3.382   0.677   7.532  0.1609  0.0680 -0.3463
  333MOL0     C43881   3.427   0.579   7.444 -1.1037  0.4636  0.7524
  333MOL0     O43882   3.556   0.551   7.398 -0.3260 -0.3071 -0.1990
  333MOL0     C43883   3.658   0.620   7.467 -0.8207  0.5125 -0.1567
  333MOL0     C43884   3.791   0.560   7.416  0.0337 -0.8111  0.1630
  333MOL0     C43885   3.857   0.472   7.518  0.3919 -0.9994  0.3750
  333MOL0     C43886   3.998   0.439   7.487 -0.0363  0.5825  0.3657
  333MOL0     C43887   4.042   0.322   7.562 -0.7798  0.3847  0.9230
  333MOL0     C43888   4.088   0.238   7.639 -0.1436  0.7457 -0.9649
  333MOL0     C43889   3.341   0.483   7.408  0.0196  0.7804  0.2758
  333MOL0     C43890   3.205   0.483   7.442  0.5522  0.1391 -0.9118
  333MOL0     H43891   2.730   0.706   7.505  1.4893 -1.1634  0.7543
  333MOL0     H43892   2.514   0.700   7.621  0.6549  0.7069 -1.4997
  333MOL0     H43893   2.498   0.844   8.015  0.1142 -0.0093  2.8434
  333MOL0     H43894   2.466   0.692   8.091  1.1526 -0.4593  0.3236
  333MOL0     H43895   2.243   0.680   8.036  1.9277 -0.2508  0.4468
  333MOL0     H43896   2.255   0.805   7.910 -2.1772  1.1616  1.0668
  333MOL0     H43897   2.327   0.964   8.092  1.4897 -1.2714 -1.1625
  333MOL0     H43898   2.260   0.845   8.213 -1.6490  0.1817 -1.0545
  333MOL0     H43899   2.116   0.981   7.987 -1.5823 -0.1388 -0.6312
  333MOL0     H43900   2.053   0.841   8.073 -2.5627  0.9767 -1.7107
  333MOL0     H43901   2.131   1.109   8.196 -0.0650 -0.0203  0.8232
  333MOL0     H43902   2.090   0.968   8.287 -4.4441  0.1460  1.2273
  333MOL0     H43903   1.853   0.966   8.161 -0.3173 -0.5585  0.4482
  333MOL0     H43904   1.914   1.120   8.099 -0.1992 -0.3945  0.5760
  333MOL0     H43905   1.760   1.140   8.303 -0.7167 -1.3401  0.8236
  333MOL0     H43906   1.864   1.038   8.392  0.3943  1.5348  0.9856
  333MOL0     H43907   2.054   1.232   8.388  0.0469  3.2086  2.6459
  333MOL0     H43908   1.914   1.281   8.464  0.8688 -0.9887  1.4827
  333MOL0     H43909   2.103   1.345   8.141 -0.2252  1.6465 -0.8847
  333MOL0     H43910   2.115   1.534   7.978 -0.4282 -1.8245  1.1586
  333MOL0     H43911   1.977   1.639   7.962 -0.3963  1.2530  1.8325
  333MOL0     H43912   1.962   1.543   7.763 -2.0777 -1.5791  0.7663
  333MOL0     H43913   1.860   1.434   7.847 -0.1554  0.1347 -3.8226
  333MOL0     H43914   2.026   1.346   7.672 -2.8607  1.0864  0.4689
  333MOL0     H43915   2.150   1.430   7.770 -0.4793  0.8330 -0.7803
  333MOL0     H43916   2.094   1.151   7.763 -3.1400 -0.8638  0.6605
  333MOL0     H43917   1.995   1.211   7.904  0.5907  0.4827  1.3877
  333MOL0     H43918   2.366   1.353   8.073 -1.0123  2.4443 -1.6669
  333MOL0     H43919   2.598   1.312   8.049 -0.1962 -0.5628 -0.4152
  333MOL0     H43920   2.947   0.972   7.939 -1.7318  1.0807 -0.1201
  333MOL0     H43921   3.207   0.949   7.880 -0.2806  1.4590  0.3935
  333MOL0     H43922   3.466   1.145   7.643  0.9499 -3.2031  1.1432
  333MOL0     H43923   3.310   1.184   7.535 -1.7937 -1.1960 -1.2819
  333MOL0     H43924   3.370   1.023   7.398  0.7046 -2.4304  1.5805
  333MOL0     H43925   3.495   0.960   7.498 -2.4453  0.0374  2.5254
  333MOL0     H43926   3.622   1.204   7.447  0.0512 -0.5030 -0.1547
  333MOL0     H43927   3.480   1.234   7.355  0.9340  0.8482  1.8334
  333MOL0     H43928   3.603   0.964   7.309 -2.7574 -0.3740  0.5004
  333MOL0     H43929   3.530   1.062   7.189 -1.4927  2.1122  0.9679
  333MOL0     H43930   3.750   1.224   7.226 -0.6137 -0.3360  0.0196
  333MOL0     H43931   3.748   1.084   7.107 -1.6315 -1.4381  0.2714
  333MOL0     H43932   3.851   0.938   7.237  0.2334  1.0211 -4.6090
  333MOL0     H43933   3.852   1.021   7.383  0.9947 -1.5692 -0.7700
  333MOL0     H43934   4.018   1.127   7.152 -0.7139  2.8541 -0.2455
  333MOL0     H43935   4.005   1.210   7.305  1.2343 -0.0257 -0.2550
  333MOL0     H43936   4.088   1.009   7.413 -0.8069  0.7753  0.6119
  333MOL0     H43937   4.203   1.054   7.277  1.9635 -3.7693  0.0865
  333MOL0     H43938   3.131   1.092   7.494  0.4955  0.1681  0.1876
  333MOL0     H43939   2.882   1.114   7.548 -2.1555 -2.3852  0.8249
  333MOL0     H43940   2.507   1.043   7.712  0.6360  0.4682 -1.1269
  333MOL0     H43941   2.292   1.049   7.770  3.2455 -0.7856 -2.4758
  333MOL0     H43942   2.722   0.633   7.987 -2.6044  1.3774  0.1722
  333MOL0     H43943   2.942   0.638   7.865 -0.2510  0.7594  1.1228
  333MOL0     H43944   3.217   0.754   7.647  2.7693 -0.4121  3.3037
  333MOL0     H43945   3.446   0.744   7.588  2.3585  0.5818 -3.2442
  333MOL0     H43946   3.647   0.607   7.575  0.3217  0.2398 -0.0626
  333MOL0     H43947   3.661   0.727   7.443 -1.0898  0.7280  0.7052
  333MOL0     H43948   3.781   0.526   7.312 -0.1647  1.8587 -0.7681
  333MOL0     H43949   3.848   0.653   7.412 -3.4189  1.6637  2.3569
  333MOL0     H43950   3.797   0.380   7.519  1.3883 -1.7084  2.8294
  333MOL0     H43951   3.843   0.512   7.619  1.4252 -0.2221  0.2171
  333MOL0     H43952   4.024   0.426   7.381 -1.2119 -1.1067  0.2329
  333MOL0     H43953   4.053   0.528   7.519 -1.3319  1.9543 -1.0244
  333MOL0     H43954   4.097   0.188   7.734 -0.0899  1.2649 -0.6954
  333MOL0     H43955   3.368   0.403   7.340  1.1554  2.8744 -1.8771
  333MOL0     H43956   3.133   0.407   7.412  0.9076  0.2183 -1.9792
  334MOL0     O43957   2.531  10.594   8.962  0.1110 -0.0554  0.6362
  334MOL0     C43958   2.543  10.521   8.864  0.5730 -0.2421  0.6070
  334MOL0     O43959   2.436  10.469   8.786  0.5088 -0.3566  0.1088
  334MOL0     C43960   2.309  10.475   8.847  0.4053 -0.7665  0.4630
  334MOL0     C43961   2.252  10.374   8.926 -1.2731 -0.8099  0.3917
  334MOL0     C43962   2.138  10.392   9.007 -0.0624 -0.5529  0.2718
  334MOL0     C43963   2.061  10.516   9.000 -0.1488  0.6058 -0.2113
  334MOL0     O43964   1.948  10.544   9.077 -0.0020  0.2178 -0.2972
  334MOL0     C43965   1.854  10.444   9.115 -0.2326  0.6056  0.4098
  334MOL0     C43966   1.716  10.460   9.046 -0.1129 -0.4326 -0.0830
  334MOL0     C43967   1.604  10.361   9.089  0.6383 -0.7116  0.0106
  334MOL0     C43968   1.578  10.382   9.240  0.6243  0.6371  0.0080
  334MOL0     C43969   1.435  10.340   9.262  0.4726 -0.2394 -0.6732
  334MOL0     C43970   1.382  10.365   9.401 -0.7542  0.4384 -0.0028
  334MOL0     C43971   1.260  10.291   9.453 -0.1559  1.1242  0.0477
  334MOL0     C43972   1.214  10.324   9.592  0.0853 -0.5814 -0.8858
  334MOL0     N43973   1.066  10.335   9.605  0.1525 -0.3646  0.0607
  334MOL0     C43974   0.992  10.446   9.590  0.6683  0.0141 -1.2746
  334MOL0     C43975   0.861  10.418   9.621 -0.3611 -1.0962  0.6055
  334MOL0     C43976   0.745  10.517   9.608  0.4181  0.8445  0.1821
  334MOL0     C43977   0.608  10.443   9.591  0.5574  0.8154 -0.4114
  334MOL0     C43978   0.492  10.543   9.568 -0.1923 -0.3888 -0.1164
  334MOL0     C43979   0.356  10.473   9.576 -0.4088 -0.1074  0.1721
  334MOL0     O43980   0.260  10.570   9.601  0.2161 -0.0389 -0.1568
  334MOL0     C43981   0.131  10.528   9.624 -0.7550  0.2402  0.1691
  334MOL0     C43982   0.057  10.461   9.520  0.1221 -0.4117  0.3515
  334MOL0     C43983  -0.079  10.441   9.531 -0.0285 -1.0779  0.4795
  334MOL0     C43984  -0.151  10.479   9.650 -0.1844  0.0778  0.3255
  334MOL0     C43985  -0.297  10.456   9.664 -0.3552  0.3180 -0.6939
  334MOL0     O43986  -0.362  10.385   9.568 -0.5215 -0.3126  0.8339
  334MOL0     C43987  -0.500  10.378   9.561 -0.2760  0.1456 -0.6631
  334MOL0     C43988  -0.598  10.476   9.619 -0.5918  1.0965  0.5619
  334MOL0     C43989  -0.729  10.445   9.609  0.9005  0.2702  0.2185
  334MOL0     C43990  -0.793  10.326   9.577 -0.4913  0.9573  0.1692
  334MOL0     O43991  -0.931  10.306   9.569 -0.4034 -0.7008  0.8349
  334MOL0     C43992  -1.019  10.403   9.628  0.9888  0.1286  0.0370
  334MOL0     C43993  -1.160  10.361   9.665  0.2496  0.0697  0.9414
  334MOL0     C43994  -1.238  10.304   9.542  0.2191  0.1220  0.6524
  334MOL0     C43995  -1.365  10.228   9.567 -0.3710 -0.2390 -0.1512
  334MOL0     C43996  -1.447  10.167   9.448 -0.3922 -0.4037 -0.0359
  334MOL0     C43997  -1.591  10.131   9.505 -1.1850 -0.7401 -0.3165
  334MOL0     C43998  -1.676  10.082   9.398  1.0176  0.0810 -0.4100
  334MOL0     C43999  -1.812  10.066   9.456 -0.6369  0.0669 -0.5426
  334MOL0    Cl44000  -1.873   9.894   9.440  0.4921 -0.1029  0.0330
  334MOL0     C44001  -0.694  10.231   9.530  0.7507 -0.4488 -1.2818
  334MOL0     C44002  -0.558  10.255   9.526 -0.0124  0.7979  0.2188
  334MOL0     O44003  -0.347  10.501   9.768  0.0761 -0.1877 -0.3798
  334MOL0     C44004  -0.079  10.536   9.757  0.1448 -0.1661 -0.0134
  334MOL0     C44005   0.063  10.555   9.741 -0.0205 -0.0664  0.3005
  334MOL0     N44006   0.864  10.297   9.666  0.6651  0.5304 -0.9340
  334MOL0     N44007   0.981  10.247   9.662  0.1539 -0.4912 -0.2249
  334MOL0     C44008   2.101  10.606   8.910 -0.2605 -0.4821 -0.0435
  334MOL0     C44009   2.227  10.589   8.845 -0.2996  0.6993 -0.5296
  334MOL0     C44010   2.680  10.482   8.833 -0.3086 -0.5125  0.1636
  334MOL0     C44011   2.708  10.373   8.751 -0.7532 -0.1499 -0.4402
  334MOL0     C44012   2.847  10.344   8.714 -0.4171 -0.4958  0.4381
  334MOL0     C44013   2.949  10.425   8.743  0.1149 -0.3511  0.2168
  334MOL0     O44014   3.077  10.397   8.710  0.0189  0.4133 -0.7068
  334MOL0     C44015   3.120  10.254   8.713 -0.6126 -0.1079 -0.8441
  334MOL0     C44016   3.270  10.225   8.733  0.2634 -0.3326  0.4449
  334MOL0     C44017   3.354  10.318   8.643 -0.6264  0.2721  0.3234
  334MOL0     C44018   3.504  10.318   8.691  0.5026 -0.4329 -0.0682
  334MOL0     C44019   3.543  10.365   8.823  0.9170 -0.1127  0.5719
  334MOL0     C44020   3.581  10.397   8.932 -0.1183 -0.2603 -0.3831
  334MOL0     C44021   2.921  10.533   8.826 -0.2799 -0.0835 -0.2550
  334MOL0     C44022   2.788  10.565   8.865 -0.5954  0.1845 -0.3984
  334MOL0     H44023   2.302  10.278   8.924  0.7614  0.1462  2.0159
  334MOL0     H44024   2.105  10.313   9.075  0.3286  0.7895  2.0905
  334MOL0     H44025   1.843  10.445   9.223  0.6530 -0.1897  0.5155
  334MOL0     H44026   1.888  10.344   9.087 -2.7455 -0.5818  1.3367
  334MOL0     H44027   1.738  10.443   8.941  3.5665  1.3477  0.2661
  334MOL0     H44028   1.671  10.560   9.051 -2.5511 -1.3958 -0.8751
  334MOL0     H44029   1.630  10.258   9.065  2.0932 -0.2443 -0.5273
  334MOL0     H44030   1.514  10.389   9.034 -0.6061  1.0675  2.7572
  334MOL0     H44031   1.640  10.317   9.301  0.3927  0.0553 -0.3702
  334MOL0     H44032   1.581  10.488   9.270 -0.9052  1.0694 -1.2104
  334MOL0     H44033   1.424  10.232   9.246 -3.0069 -0.5407  2.3259
  334MOL0     H44034   1.362  10.380   9.192 -0.9305 -0.8549  0.3671
  334MOL0     H44035   1.352  10.471   9.401 -0.0973  0.6330  0.5370
  334MOL0     H44036   1.467  10.354   9.469  0.9373  0.0159 -2.0596
  334MOL0     H44037   1.169  10.313   9.397 -1.0947 -0.6774  0.7816
  334MOL0     H44038   1.279  10.184   9.462  0.2196  1.2838  1.5473
  334MOL0     H44039   1.257  10.422   9.614  0.4825 -0.6687 -1.2572
  334MOL0     H44040   1.252  10.249   9.661  0.5716 -0.9681 -1.5610
  334MOL0     H44041   1.025  10.546   9.564 -1.7521  1.3585  0.3946
  334MOL0     H44042   0.752  10.579   9.519 -1.9227  4.4238  2.2373
  334MOL0     H44043   0.738  10.581   9.697 -1.8747  0.7496  0.1129
  334MOL0     H44044   0.595  10.410   9.694 -0.8494  1.3791 -0.3712
  334MOL0     H44045   0.607  10.362   9.517  0.6915  1.3710 -1.0296
  334MOL0     H44046   0.498  10.612   9.653  0.3341  1.0183 -1.2577
  334MOL0     H44047   0.503  10.598   9.475  2.0155 -0.7930 -0.1476
  334MOL0     H44048   0.360  10.420   9.671  0.6075 -0.8034 -0.2431
  334MOL0     H44049   0.330  10.411   9.490 -0.9977  0.2342  0.1015
  334MOL0     H44050   0.108  10.442   9.426  0.2087  0.1958  0.2755
  334MOL0     H44051  -0.127  10.392   9.447 -1.1820 -0.2933  0.6581
  334MOL0     H44052  -0.572  10.576   9.652 -2.4830  1.5206  0.8717
  334MOL0     H44053  -0.799  10.522   9.638 -1.1150 -1.6074  0.5417
  334MOL0     H44054  -1.027  10.477   9.548  0.6853 -0.8941 -0.9107
  334MOL0     H44055  -0.974  10.447   9.717  2.0052  0.8164 -0.7882
  334MOL0     H44056  -1.222  10.436   9.715  0.3584 -1.0467  2.8200
  334MOL0     H44057  -1.159  10.283   9.741 -1.2701  0.4306  1.3813
  334MOL0     H44058  -1.173  10.226   9.500 -1.2505 -2.1267  2.2664
  334MOL0     H44059  -1.255  10.393   9.481  0.1867 -0.6613 -0.5140
  334MOL0     H44060  -1.343  10.140   9.629 -0.1726 -0.2973 -0.3020
  334MOL0     H44061  -1.426  10.296   9.627  1.4294  2.4537 -1.1653
  334MOL0     H44062  -1.394  10.075   9.419 -2.9156 -1.7727 -0.5711
  334MOL0     H44063  -1.470  10.235   9.366  1.3861  1.7248  1.1142
  334MOL0     H44064  -1.636  10.219   9.552 -4.8877 -3.5943  2.0871
  334MOL0     H44065  -1.588  10.060   9.588 -0.4579  2.2266  2.3752
  334MOL0     H44066  -1.693  10.160   9.322 -0.6162  1.7115  1.5252
  334MOL0     H44067  -1.639   9.991   9.351  4.6396  0.8069  0.7662
  334MOL0     H44068  -1.891  10.127   9.411 -1.8715  0.3506  1.8171
  334MOL0     H44069  -1.808  10.086   9.564  1.3972 -0.6556 -0.4529
  334MOL0     H44070  -0.739  10.139   9.493 -0.0821  0.2528 -2.0352
  334MOL0     H44071  -0.493  10.177   9.488 -1.0837  1.1681 -2.6535
  334MOL0     H44072  -0.129  10.553   9.852 -1.7047  0.0781 -0.9788
  334MOL0     H44073   0.117  10.598   9.825 -1.6451 -0.4451  1.5902
  334MOL0     H44074   2.041  10.695   8.898 -1.9420 -1.4431  0.8746
  334MOL0     H44075   2.265  10.661   8.774  0.4531  0.6490 -0.1939
  334MOL0     H44076   2.638  10.298   8.716  0.4544 -2.3388  1.5248
  334MOL0     H44077   2.858  10.253   8.657 -1.0557 -0.1181 -0.3041
  334MOL0     H44078   3.100  10.213   8.613  1.3357  0.0401 -1.3309
  334MOL0     H44079   3.064  10.207   8.794 -3.9218  1.8828 -1.7561
  334MOL0     H44080   3.293  10.235   8.839 -0.6852  2.8325  0.4762
  334MOL0     H44081   3.306  10.126   8.704  1.3815 -0.3532  1.8203
  334MOL0     H44082   3.315  10.419   8.653  0.3678  0.4800  2.6709
  334MOL0     H44083   3.335  10.280   8.542 -2.0693 -0.2149  0.7676
  334MOL0     H44084   3.542  10.215   8.687 -0.2650 -0.6912 -1.2705
  334MOL0     H44085   3.552  10.365   8.604 -5.0429  1.1000 -2.7243
  334MOL0     H44086   3.617  10.439   9.024  1.4110 -3.1686  0.4756
  334MOL0     H44087   3.003  10.591   8.865 -0.6626  0.7596 -0.6873
  334MOL0     H44088   2.766  10.658   8.918 -1.7439 -0.6756  0.6896
  335MOL0     O44089   9.968   1.675   9.542  0.4529 -0.1379 -0.4315
  335MOL0     C44090  10.036   1.772   9.526 -0.5753  0.2012 -0.3279
  335MOL0     O44091  10.001   1.901   9.548 -0.5843  0.3559  0.2974
  335MOL0     C44092   9.876   1.928   9.586  0.2098 -0.0163 -0.2792
  335MOL0     C44093   9.824   1.868   9.706  0.4195 -0.0483  0.6665
  335MOL0     C44094   9.704   1.907   9.763 -0.6821  0.0790  0.5616
  335MOL0     C44095   9.622   2.000   9.692  0.4215 -0.1319 -0.2417
  335MOL0     O44096   9.503   2.038   9.744 -0.3238  0.0447  0.2575
  335MOL0     C44097   9.395   2.086   9.667  0.1710 -0.5311  0.2356
  335MOL0     C44098   9.273   2.072   9.765 -0.1130  0.1385  0.6931
  335MOL0     C44099   9.247   2.197   9.837  0.4049  0.2346  0.0875
  335MOL0     C44100   9.122   2.180   9.925 -1.0775  0.3154 -0.0410
  335MOL0     C44101   9.094   2.314   9.998 -0.3564  0.0473 -0.1772
  335MOL0     C44102   8.972   2.298  10.087 -0.6287  0.4054  0.2125
  335MOL0     C44103   8.925   2.441  10.146 -0.3311  0.6272  0.6677
  335MOL0     C44104   8.798   2.418  10.228 -0.6347  0.1459  0.2028
  335MOL0     N44105   8.750   2.540  10.288  0.0795 -0.3122  0.2143
  335MOL0     C44106   8.618   2.584  10.299 -0.3097  0.2816  0.5722
  335MOL0     C44107   8.615   2.702  10.363  0.0655  0.4259 -0.0097
  335MOL0     C44108   8.507   2.807  10.369  0.4240  0.7024 -0.0623
  335MOL0     C44109   8.467   2.830  10.512 -0.5124  0.0657  0.6912
  335MOL0     C44110   8.389   2.710  10.554 -0.6171  0.1793 -0.6589
  335MOL0     C44111   8.335   2.722  10.703 -0.8431 -0.7989  0.1742
  335MOL0     O44112   8.230   2.823  10.718 -0.0878  0.4875  0.0905
  335MOL0     C44113   8.126   2.775  10.779  0.4409  0.0125 -0.2770
  335MOL0     C44114   8.118   2.779  10.923 -0.0034 -0.3426  0.0345
  335MOL0     C44115   8.007   2.723  10.985  0.1009 -0.4562 -0.3077
  335MOL0     C44116   7.888   2.701  10.910  0.8052 -0.3284 -0.5449
  335MOL0     C44117   7.768   2.671  10.977  0.2107  0.0131  0.9809
  335MOL0     O44118   7.779   2.608  11.100  0.6780 -0.4946  0.6380
  335MOL0     C44119   7.660   2.569  11.159  0.3131 -0.5115  0.2539
  335MOL0     C44120   7.573   2.668  11.224  0.3942  0.8345 -0.7976
  335MOL0     C44121   7.463   2.641  11.297  0.0468 -0.3685 -0.0079
  335MOL0     C44122   7.410   2.508  11.287  0.3718 -0.1621 -0.1625
  335MOL0     O44123   7.287   2.477  11.335  0.3350 -0.5620 -0.6261
  335MOL0     C44124   7.189   2.430  11.241  0.3224 -0.4897  0.5488
  335MOL0     C44125   7.053   2.436  11.302 -0.6548 -0.3870 -0.5053
  335MOL0     C44126   6.952   2.429  11.185 -0.0907 -0.1619 -0.2024
  335MOL0     C44127   6.813   2.446  11.237 -0.0772  0.4433 -0.2523
  335MOL0     C44128   6.688   2.419  11.151 -0.3753  0.7727 -0.3203
  335MOL0     C44129   6.658   2.271  11.127 -0.5339 -0.3919 -0.0218
  335MOL0     C44130   6.615   2.197  11.257 -0.1437  0.3519 -0.3412
  335MOL0     C44131   6.473   2.226  11.294  0.1932  0.3564 -0.3298
  335MOL0    Cl44132   6.359   2.150  11.177  0.1263  0.3252 -0.0206
  335MOL0     C44133   7.491   2.411  11.223  0.1005  0.1795  0.0296
  335MOL0     C44134   7.614   2.439  11.165 -0.1633  0.5280 -0.1568
  335MOL0     O44135   7.672   2.724  10.927 -1.0169 -0.9949  0.3660
  335MOL0     C44136   7.889   2.697  10.772  0.2701 -0.5021  0.0820
  335MOL0     C44137   8.007   2.734  10.709 -0.2375  0.0655 -0.6808
  335MOL0     N44138   8.742   2.708  10.421 -0.2301 -0.1077  0.4659
  335MOL0     N44139   8.814   2.613  10.383  0.1899 -0.6755 -0.7590
  335MOL0     C44140   9.662   2.044   9.566 -0.1045  0.6167 -0.1382
  335MOL0     C44141   9.790   2.006   9.510  0.4045 -0.0264  0.5450
  335MOL0     C44142  10.179   1.739   9.495 -0.9898  0.6549  0.2931
  335MOL0     C44143  10.230   1.601   9.475 -0.0105  0.0126 -0.1292
  335MOL0     C44144  10.362   1.579   9.434  0.1651  0.1874 -0.1240
  335MOL0     C44145  10.446   1.688   9.414  0.5701  0.9035  0.6565
  335MOL0     O44146  10.570   1.681   9.362 -0.4958  0.0056 -0.0873
  335MOL0     C44147  10.639   1.555   9.353  1.1486 -0.2655 -0.0775
  335MOL0     C44148  10.784   1.577   9.374  0.4553 -0.5042 -0.4324
  335MOL0     C44149  10.842   1.666   9.262 -0.1522 -0.6043  0.3861
  335MOL0     C44150  10.992   1.697   9.291 -0.5430  0.2172  0.0512
  335MOL0     C44151  11.061   1.780   9.195 -0.1352 -0.4502  0.0710
  335MOL0     C44152  11.126   1.853   9.130 -1.1748 -0.1120  0.2574
  335MOL0     C44153  10.392   1.816   9.431 -0.0230  0.4070  0.9308
  335MOL0     C44154  10.262   1.846   9.464  0.6154  0.2631 -0.7900
  335MOL0     H44155   9.896   1.811   9.764  1.0308 -0.3141 -0.3213
  335MOL0     H44156   9.671   1.875   9.862 -2.1883 -0.2420 -0.0248
  335MOL0     H44157   9.388   2.032   9.571  2.1358  2.4223 -1.7388
  335MOL0     H44158   9.431   2.186   9.641 -0.1863 -1.3169 -4.1607
  335MOL0     H44159   9.288   1.992   9.838  1.3382 -2.3141 -2.0517
  335MOL0     H44160   9.189   2.049   9.698  1.1100 -0.4692 -0.7062
  335MOL0     H44161   9.234   2.287   9.776 -0.7194  2.3810  3.2772
  335MOL0     H44162   9.330   2.218   9.905 -1.4259  0.8072  2.2321
  335MOL0     H44163   9.037   2.159   9.859 -1.0004  2.0694 -0.7401
  335MOL0     H44164   9.136   2.100   9.998  3.1193 -1.3867 -2.4085
  335MOL0     H44165   9.077   2.397   9.929  2.2291  1.0120  0.2262
  335MOL0     H44166   9.182   2.337  10.060 -1.3892 -1.8791  2.1886
  335MOL0     H44167   8.988   2.226  10.167  0.5623  1.9093  1.3738
  335MOL0     H44168   8.891   2.258  10.026 -0.4119 -1.5360  1.1148
  335MOL0     H44169   9.015   2.486  10.190  1.7994 -1.8335 -0.8763
  335MOL0     H44170   8.903   2.508  10.062 -0.1547 -2.7499 -2.3231
  335MOL0     H44171   8.808   2.338  10.301  1.3412 -1.3238 -1.5481
  335MOL0     H44172   8.722   2.391  10.153 -0.1346  1.3158 -0.7670
  335MOL0     H44173   8.535   2.536  10.248 -0.1040 -0.9486  1.3559
  335MOL0     H44174   8.421   2.766  10.316 -0.0609  0.7851  0.6486
  335MOL0     H44175   8.530   2.905  10.324 -0.7788  0.6371 -0.8791
  335MOL0     H44176   8.404   2.919  10.519 -0.3385  0.3657 -1.0328
  335MOL0     H44177   8.556   2.843  10.575  0.5957 -1.8443 -0.3848
  335MOL0     H44178   8.305   2.694  10.485 -0.7801  1.9685 -0.9399
  335MOL0     H44179   8.441   2.614  10.551 -2.6319 -1.4046  4.4189
  335MOL0     H44180   8.418   2.765  10.761 -0.3984  2.4763 -2.5803
  335MOL0     H44181   8.303   2.624  10.739  1.3807 -1.7927 -0.3989
  335MOL0     H44182   8.196   2.816  10.988  1.7047 -1.5909 -1.2073
  335MOL0     H44183   8.007   2.720  11.094 -1.8145 -0.1649 -0.2698
  335MOL0     H44184   7.610   2.770  11.223 -1.4531  1.5567 -2.3584
  335MOL0     H44185   7.411   2.724  11.343  1.1150  2.4328 -3.4232
  335MOL0     H44186   7.196   2.326  11.207 -5.2693 -1.6899  2.0619
  335MOL0     H44187   7.191   2.499  11.156  1.0478 -0.8064  0.2984
  335MOL0     H44188   7.046   2.531  11.355 -2.1236 -0.5607 -0.3330
  335MOL0     H44189   7.035   2.358  11.377 -2.9656  1.1940  0.7082
  335MOL0     H44190   6.961   2.334  11.131 -4.9205  0.3938 -2.5142
  335MOL0     H44191   6.980   2.501  11.108  0.6446  0.8847  1.0056
  335MOL0     H44192   6.806   2.388  11.329  1.6092  0.3538 -0.1472
  335MOL0     H44193   6.803   2.551  11.268  1.4805  0.6568 -0.4025
  335MOL0     H44194   6.701   2.457  11.049  4.0557 -1.1869 -0.7032
  335MOL0     H44195   6.605   2.474  11.197 -0.0236 -0.0132  1.3432
  335MOL0     H44196   6.747   2.229  11.078 -0.9923  0.3544 -1.5594
  335MOL0     H44197   6.581   2.259  11.050  0.5389 -1.7448 -0.9318
  335MOL0     H44198   6.634   2.092  11.233  3.9636  1.2398 -1.7905
  335MOL0     H44199   6.690   2.207  11.336  0.9522 -1.0121 -1.1468
  335MOL0     H44200   6.451   2.333  11.301 -0.5274  0.1253  1.3336
  335MOL0     H44201   6.465   2.179  11.393 -0.4095 -1.1673 -1.0641
  335MOL0     H44202   7.468   2.306  11.240  2.8431 -0.1417  2.5586
  335MOL0     H44203   7.677   2.367  11.113 -1.2935 -0.2342 -0.5335
  335MOL0     H44204   7.806   2.658  10.715  0.8837  1.4129 -2.2559
  335MOL0     H44205   8.007   2.725  10.601 -0.6788  1.6406 -0.8419
  335MOL0     H44206   9.591   2.097   9.503  1.6030  1.5264 -1.4037
  335MOL0     H44207   9.827   2.028   9.410 -0.9167  0.4486  0.1307
  335MOL0     H44208  10.162   1.518   9.490 -1.8134  0.8374 -2.9798
  335MOL0     H44209  10.408   1.481   9.429 -1.4900 -0.6064 -0.6417
  335MOL0     H44210  10.618   1.497   9.263  0.6597 -2.2112  1.2285
  335MOL0     H44211  10.610   1.496   9.441 -0.1109 -1.3003 -1.1492
  335MOL0     H44212  10.796   1.625   9.471 -0.4411  1.4857 -1.2400
  335MOL0     H44213  10.836   1.482   9.384 -1.7975 -1.8415 -0.7062
  335MOL0     H44214  10.787   1.760   9.251  0.5547 -0.3955 -1.7561
  335MOL0     H44215  10.831   1.611   9.168 -2.1196 -0.7018  0.6191
  335MOL0     H44216  10.998   1.736   9.393  0.7362 -0.5478  0.2938
  335MOL0     H44217  11.048   1.603   9.295 -1.5816 -0.4312 -0.2479
  335MOL0     H44218  11.174   1.928   9.071 -3.3501  2.3144  1.3994
  335MOL0     H44219  10.455   1.901   9.407  4.4121 -2.8324 -0.2082
  335MOL0     H44220  10.234   1.948   9.491 -2.3515 -0.9723  1.3361
  336MOL0     O44221   7.569   9.289   9.212  0.0080  0.7836 -0.6062
  336MOL0     C44222   7.612   9.384   9.271 -0.1814  0.1308 -0.2823
  336MOL0     O44223   7.526   9.488   9.304 -0.3884 -0.8000 -0.5480
  336MOL0     C44224   7.387   9.476   9.288 -0.3089 -0.2400  0.2979
  336MOL0     C44225   7.310   9.370   9.346 -0.7449  0.2065 -0.8749
  336MOL0     C44226   7.176   9.351   9.341  0.1407  0.0472 -0.2735
  336MOL0     C44227   7.096   9.455   9.286  0.8342  0.0692 -0.1132
  336MOL0     O44228   6.960   9.442   9.304 -0.0573  0.3657 -0.6857
  336MOL0     C44229   6.881   9.555   9.316 -0.8736  0.3438  0.7283
  336MOL0     C44230   6.743   9.515   9.352  1.0679 -0.4384  0.3371
  336MOL0     C44231   6.635   9.620   9.323 -0.4408 -0.0999  0.3299
  336MOL0     C44232   6.502   9.596   9.399 -0.6246  1.1742 -0.2802
  336MOL0     C44233   6.385   9.690   9.369  0.2944  0.1449  0.9256
  336MOL0     C44234   6.315   9.665   9.228 -0.1772 -0.7241 -0.1790
  336MOL0     C44235   6.194   9.752   9.206  0.9449  0.9896  0.0471
  336MOL0     C44236   6.056   9.708   9.263  0.1033  0.4685  0.3336
  336MOL0     N44237   6.069   9.648   9.399  0.2571 -0.4179  0.2153
  336MOL0     C44238   6.096   9.516   9.421  0.3394  0.5530  0.2425
  336MOL0     C44239   6.105   9.490   9.554  0.1947 -0.4899 -0.6636
  336MOL0     C44240   6.112   9.358   9.625  0.8107  0.1722  0.4145
  336MOL0     C44241   5.976   9.291   9.603  0.2211 -0.1966 -0.4390
  336MOL0     C44242   5.864   9.365   9.671 -0.3103  0.2609 -0.0915
  336MOL0     C44243   5.721   9.331   9.629 -0.6331  0.5745 -0.2745
  336MOL0     O44244   5.725   9.360   9.483  0.3027 -0.2141 -0.3321
  336MOL0     C44245   5.632   9.460   9.447  0.4746 -0.2774  0.6850
  336MOL0     C44246   5.503   9.424   9.443  0.7907  0.4371 -0.6105
  336MOL0     C44247   5.409   9.520   9.406 -0.1112  0.1163  0.3951
  336MOL0     C44248   5.448   9.651   9.368  0.4277  0.1346  0.1615
  336MOL0     C44249   5.342   9.748   9.330  0.1798  0.2125  0.6298
  336MOL0     O44250   5.218   9.708   9.339 -0.6663  0.1668  1.4175
  336MOL0     C44251   5.115   9.793   9.311 -0.0128  0.3272  0.5942
  336MOL0     C44252   5.034   9.773   9.199 -0.6772 -0.2518 -0.6619
  336MOL0     C44253   4.916   9.847   9.185  0.4585 -0.3756  1.0961
  336MOL0     C44254   4.878   9.947   9.280 -0.8117  0.8426 -0.4148
  336MOL0     O44255   4.767  10.024   9.265 -0.1059  0.0643 -1.3563
  336MOL0     C44256   4.765  10.140   9.341 -0.2778 -0.7762  0.0577
  336MOL0     C44257   4.692  10.251   9.276  1.3937  0.0118 -0.0366
  336MOL0     C44258   4.540  10.233   9.239  0.3787  0.0604  0.0376
  336MOL0     C44259   4.482  10.363   9.197 -0.6029 -0.2008  0.0898
  336MOL0     C44260   4.326  10.333   9.187  0.4403  0.6525 -0.3602
  336MOL0     C44261   4.246  10.470   9.166 -0.5719  1.0707  0.8181
  336MOL0     C44262   4.099  10.429   9.153 -1.1823  0.2319 -0.0961
  336MOL0     C44263   4.005  10.546   9.133  0.0353 -0.0658 -0.2730
  336MOL0    Cl44264   3.830  10.496   9.119 -0.0800  0.3856  0.2026
  336MOL0     C44265   4.958   9.958   9.396 -0.2761  0.0530  0.3840
  336MOL0     C44266   5.076   9.875   9.413 -0.7666 -0.3124  0.5582
  336MOL0     O44267   5.380   9.856   9.281  0.4209 -0.0107  0.8668
  336MOL0     C44268   5.586   9.689   9.373 -0.5710  0.4701  0.3274
  336MOL0     C44269   5.681   9.594   9.422  0.7805  0.5897 -1.0685
  336MOL0     N44270   6.073   9.608   9.625  0.3714 -0.2557  0.0524
  336MOL0     N44271   6.048   9.700   9.525  0.6178 -0.6794 -0.2863
  336MOL0     C44272   7.165   9.570   9.232  0.0868 -0.5894 -0.0962
  336MOL0     C44273   7.303   9.583   9.241 -0.4439  0.5012  0.4186
  336MOL0     C44274   7.749   9.397   9.298  0.0839 -0.9681 -0.5284
  336MOL0     C44275   7.801   9.524   9.348  0.5517 -0.5140 -0.0614
  336MOL0     C44276   7.942   9.540   9.365 -1.1204 -0.4834 -0.5639
  336MOL0     C44277   8.028   9.429   9.337 -0.7194  0.3767  0.7371
  336MOL0     O44278   8.162   9.423   9.353 -0.2206  0.3364 -1.0465
  336MOL0     C44279   8.227   9.539   9.406 -0.4263 -0.1269  0.3734
  336MOL0     C44280   8.239   9.649   9.299  0.2963 -0.1860 -0.4043
  336MOL0     C44281   8.305   9.784   9.353 -0.1910 -0.2661 -0.2162
  336MOL0     C44282   8.298   9.895   9.244  0.3139  0.0685 -0.3053
  336MOL0     C44283   8.378  10.012   9.257 -1.3589 -0.0286 -0.0495
  336MOL0     C44284   8.455  10.110   9.264 -0.1980  0.0341  0.2649
  336MOL0     C44285   7.979   9.306   9.308 -0.4050  0.6852 -0.3611
  336MOL0     C44286   7.844   9.290   9.285 -0.2348 -0.3636  0.7340
  336MOL0     H44287   7.367   9.298   9.404  2.7783  3.0220 -0.5466
  336MOL0     H44288   7.139   9.267   9.398  0.7066  1.7483  2.8635
  336MOL0     H44289   6.881   9.617   9.226 -0.0428 -1.0316 -0.2479
  336MOL0     H44290   6.930   9.610   9.396  1.5858  1.3329 -1.3196
  336MOL0     H44291   6.731   9.474   9.453 -0.3154  1.2444  0.9093
  336MOL0     H44292   6.726   9.423   9.294 -0.9988 -0.5370  0.9973
  336MOL0     H44293   6.633   9.633   9.214  1.7107 -1.6241  0.0351
  336MOL0     H44294   6.675   9.716   9.356 -0.5009 -0.3124  1.0279
  336MOL0     H44295   6.477   9.490   9.398  3.4456 -0.0847  3.1163
  336MOL0     H44296   6.526   9.610   9.505  2.4649 -0.0087 -0.7192
  336MOL0     H44297   6.415   9.795   9.373  1.1447 -0.0804  0.6556
  336MOL0     H44298   6.311   9.671   9.448 -3.3542 -2.5522 -2.6909
  336MOL0     H44299   6.277   9.563   9.229 -2.1835 -0.0214 -0.2435
  336MOL0     H44300   6.378   9.678   9.139 -0.9177 -0.8085 -0.7300
  336MOL0     H44301   6.216   9.849   9.252 -0.1858  1.3546 -0.1553
  336MOL0     H44302   6.168   9.761   9.100 -0.8579  3.4325  0.5990
  336MOL0     H44303   6.026   9.627   9.195  2.1769 -2.2732  2.4176
  336MOL0     H44304   5.986   9.792   9.256  2.2314  2.4087  1.2436
  336MOL0     H44305   6.098   9.440   9.344 -2.2539 -2.2708  2.7093
  336MOL0     H44306   6.138   9.352   9.731 -0.8145 -3.0676  0.7305
  336MOL0     H44307   6.190   9.300   9.575 -2.7726 -1.2540 -4.2546
  336MOL0     H44308   5.975   9.190   9.646 -0.0649 -0.2034 -0.4614
  336MOL0     H44309   5.962   9.288   9.494 -1.3540 -0.8392 -0.2526
  336MOL0     H44310   5.865   9.343   9.778  2.8087 -1.4912 -0.3535
  336MOL0     H44311   5.882   9.472   9.663  1.7674 -0.0685 -0.2978
  336MOL0     H44312   5.642   9.387   9.679  0.5548  1.3722  0.7965
  336MOL0     H44313   5.709   9.224   9.648  1.5616  0.5861  1.6255
  336MOL0     H44314   5.477   9.321   9.464  0.2302  0.5967 -0.5026
  336MOL0     H44315   5.308   9.481   9.395 -0.7166 -0.2215  5.0595
  336MOL0     H44316   5.059   9.700   9.122 -1.0993 -0.9268 -0.1701
  336MOL0     H44317   4.850   9.834   9.100  4.0450  2.2050 -2.4068
  336MOL0     H44318   4.862  10.188   9.354 -1.1883  1.0690  0.4663
  336MOL0     H44319   4.721  10.109   9.437  0.6175 -3.6740 -0.3925
  336MOL0     H44320   4.729  10.255   9.173 -2.8729  1.2764 -1.7544
  336MOL0     H44321   4.713  10.334   9.344  1.5715  0.2539 -0.3840
  336MOL0     H44322   4.482  10.191   9.322 -0.1818 -1.0441 -0.8883
  336MOL0     H44323   4.522  10.168   9.153 -0.6945  2.4845 -1.6937
  336MOL0     H44324   4.508  10.445   9.264 -0.5117 -0.6954  0.6630
  336MOL0     H44325   4.516  10.393   9.097  1.1027 -2.0523  0.0388
  336MOL0     H44326   4.302  10.289   9.284  0.5055 -2.2743 -1.5818
  336MOL0     H44327   4.296  10.261   9.110  0.9947 -1.1307  1.0394
  336MOL0     H44328   4.279  10.515   9.072  1.0345  0.1701  0.9250
  336MOL0     H44329   4.263  10.530   9.256  1.3294 -1.8581  2.5637
  336MOL0     H44330   4.090  10.351   9.077 -0.3616 -0.0366  0.0698
  336MOL0     H44331   4.067  10.378   9.244 -0.8837  0.8739  0.3752
  336MOL0     H44332   4.036  10.596   9.041  0.7672 -1.8090 -1.0213
  336MOL0     H44333   4.021  10.604   9.224 -0.3819 -1.9728  1.0787
  336MOL0     H44334   4.931  10.027   9.475 -2.7647 -0.5398  0.1086
  336MOL0     H44335   5.123   9.878   9.511 -0.1332 -1.9680  0.3327
  336MOL0     H44336   5.622   9.786   9.341 -0.6277  0.5664  0.5578
  336MOL0     H44337   5.789   9.608   9.425  1.2450 -2.3880  0.0807
  336MOL0     H44338   7.104   9.648   9.188  2.3809 -0.1218 -2.7402
  336MOL0     H44339   7.339   9.681   9.214 -3.4873  1.2116 -1.5417
  336MOL0     H44340   7.746   9.616   9.365  0.2783 -0.9710  1.7307
  336MOL0     H44341   7.973   9.641   9.389  1.6365 -0.8448 -2.2122
  336MOL0     H44342   8.328   9.518   9.443 -0.7512 -1.0526  0.7696
  336MOL0     H44343   8.166   9.573   9.490 -1.8428 -1.7971  0.0779
  336MOL0     H44344   8.307   9.623   9.217 -0.1129  2.4822 -1.6880
  336MOL0     H44345   8.136   9.668   9.269  0.3395  2.3120  0.7990
  336MOL0     H44346   8.410   9.763   9.374  0.3839  1.2834 -1.3017
  336MOL0     H44347   8.272   9.820   9.451 -0.8163  1.3531 -0.9753
  336MOL0     H44348   8.316   9.858   9.142  0.2914  2.5536 -1.2715
  336MOL0     H44349   8.194   9.927   9.250  1.5771  4.8390 -0.4969
  336MOL0     H44350   8.528  10.188   9.263 -0.1429  0.0614  2.2126
  336MOL0     H44351   8.046   9.222   9.307  0.2544  1.1619  1.0478
  336MOL0     H44352   7.807   9.196   9.247 -0.8466  0.1998 -0.1074
  337MOL0     O44353   8.128   5.112   7.226 -0.8244  0.4669  0.7337
  337MOL0     C44354   8.152   5.013   7.152  0.5510 -0.8035 -0.6246
  337MOL0     O44355   8.061   4.954   7.071  0.1228  0.4275 -0.0313
  337MOL0     C44356   7.926   4.985   7.071 -0.3007 -0.3580  0.2904
  337MOL0     C44357   7.845   4.998   7.179 -0.6141  0.6425  0.1601
  337MOL0     C44358   7.703   5.015   7.175 -0.3397  1.2774 -0.0070
  337MOL0     C44359   7.638   4.990   7.053 -1.0109 -0.3095 -0.6684
  337MOL0     O44360   7.504   4.991   7.038  1.0436 -0.0764 -0.2076
  337MOL0     C44361   7.421   5.074   7.125 -0.5957 -0.8976 -0.5464
  337MOL0     C44362   7.283   5.058   7.063  1.0349 -0.1734  0.5294
  337MOL0     C44363   7.170   5.141   7.121  0.1087 -0.7039 -0.3251
  337MOL0     C44364   7.145   5.102   7.268  0.1656 -1.0847 -0.2732
  337MOL0     C44365   7.030   5.187   7.330 -0.3307 -0.9999  0.9629
  337MOL0     C44366   6.892   5.171   7.265  0.4011  0.1296 -0.8470
  337MOL0     C44367   6.787   5.257   7.329  0.4463 -0.7640  0.0030
  337MOL0     C44368   6.783   5.232   7.479 -0.3910 -0.4286  0.5120
  337MOL0     N44369   6.744   5.098   7.519  0.4595 -0.5275 -0.1944
  337MOL0     C44370   6.617   5.036   7.508 -0.8815  0.2219 -0.1982
  337MOL0     C44371   6.636   4.915   7.575 -0.0953  0.3946 -0.0653
  337MOL0     C44372   6.540   4.818   7.639  0.5294 -0.0774 -0.5818
  337MOL0     C44373   6.528   4.818   7.792 -0.4754  0.2778  0.3111
  337MOL0     C44374   6.463   4.942   7.854  0.1661 -0.6235 -0.1777
  337MOL0     C44375   6.470   4.953   8.002  0.3747 -0.3975 -0.2216
  337MOL0     O44376   6.442   5.082   8.060 -0.0263 -0.1092  0.5862
  337MOL0     C44377   6.317   5.126   8.041 -0.0672 -1.1933 -0.1865
  337MOL0     C44378   6.201   5.050   8.072  0.1938 -0.6319  0.4067
  337MOL0     C44379   6.074   5.100   8.027 -1.4797 -0.2721 -0.3990
  337MOL0     C44380   6.058   5.233   7.998  0.1604 -0.7093  0.3485
  337MOL0     C44381   5.921   5.288   7.975 -0.5370 -0.4716  0.3519
  337MOL0     O44382   5.817   5.198   7.978 -0.6570 -0.7405  0.4528
  337MOL0     C44383   5.690   5.250   7.971 -0.0480 -0.7636 -0.7073
  337MOL0     C44384   5.619   5.249   7.852  0.1962  0.4089 -0.2715
  337MOL0     C44385   5.504   5.323   7.845  0.1049 -0.7563  0.2393
  337MOL0     C44386   5.455   5.394   7.959 -0.0107 -1.3183  0.4296
  337MOL0     O44387   5.328   5.451   7.952  0.1389  1.0617  0.1028
  337MOL0     C44388   5.329   5.592   7.953  0.3016 -0.1531 -0.0545
  337MOL0     C44389   5.283   5.670   7.824  0.6124  0.3080  0.5884
  337MOL0     C44390   5.135   5.642   7.794 -0.5974  0.0328  0.0387
  337MOL0     C44391   5.090   5.734   7.680 -0.0532  0.1694 -0.4735
  337MOL0     C44392   4.941   5.715   7.649  0.3701  0.7197 -0.0737
  337MOL0     C44393   4.910   5.816   7.555  0.0255  0.2515  0.3518
  337MOL0     C44394   4.776   5.791   7.488  0.6926 -0.7824  0.6358
  337MOL0     C44395   4.720   5.921   7.424 -1.1775  0.0187 -0.5181
  337MOL0    Cl44396   4.651   5.993   7.572  0.0238  0.1871 -0.3060
  337MOL0     C44397   5.522   5.377   8.077  0.2592 -0.2620 -0.3051
  337MOL0     C44398   5.639   5.311   8.088 -0.0580  0.0972 -0.2061
  337MOL0     O44399   5.909   5.410   7.960 -1.7489  0.4814  0.6586
  337MOL0     C44400   6.169   5.316   7.985  0.6158  0.4239  0.1610
  337MOL0     C44401   6.296   5.268   8.002 -0.4272 -0.2548  0.8011
  337MOL0     N44402   6.766   4.917   7.614  0.5875 -0.4683 -0.0649
  337MOL0     N44403   6.832   5.018   7.578 -0.2251 -0.8042 -0.5327
  337MOL0     C44404   7.716   4.966   6.939  0.2018  0.2217  0.6017
  337MOL0     C44405   7.860   4.971   6.948  0.7301 -0.5920 -0.1774
  337MOL0     C44406   8.293   4.973   7.132  0.2468  0.4778  0.4284
  337MOL0     C44407   8.395   4.995   7.225 -0.5179  0.1698 -0.1111
  337MOL0     C44408   8.534   4.984   7.194  0.2370  0.5238 -0.2354
  337MOL0     C44409   8.572   4.935   7.069 -0.6061  0.3310  0.3824
  337MOL0     O44410   8.698   4.918   7.030  0.1624 -0.6308 -0.2768
  337MOL0     C44411   8.810   4.974   7.103 -0.3155  0.3276 -0.2701
  337MOL0     C44412   8.866   4.899   7.227 -0.1501  0.6679  0.2404
  337MOL0     C44413   9.013   4.937   7.267 -0.0058 -0.8967 -0.1665
  337MOL0     C44414   9.125   4.889   7.168  0.8707  0.5129 -0.3619
  337MOL0     C44415   9.248   4.941   7.208  0.3915 -0.7025 -0.6377
  337MOL0     C44416   9.343   4.990   7.260 -0.4667 -0.3970  0.2849
  337MOL0     C44417   8.473   4.900   6.975  0.5555  0.1782 -0.0545
  337MOL0     C44418   8.331   4.912   7.009  1.1480 -0.3243  0.0294
  337MOL0     H44419   7.889   4.988   7.278 -0.1194  1.2459  0.0095
  337MOL0     H44420   7.651   5.023   7.270 -0.5640  2.1875 -0.1998
  337MOL0     H44421   7.470   5.171   7.117  0.1594 -1.2989 -0.9010
  337MOL0     H44422   7.429   5.037   7.228  1.2969  1.1323  0.1033
  337MOL0     H44423   7.245   4.957   7.050 -1.5164  0.6837  0.7864
  337MOL0     H44424   7.297   5.099   6.962  2.5233 -0.8319  0.4341
  337MOL0     H44425   7.072   5.151   7.074 -2.0014 -0.4070  3.6555
  337MOL0     H44426   7.211   5.242   7.114 -1.7415 -0.0352 -2.5027
  337MOL0     H44427   7.119   4.996   7.265 -0.4277 -0.9459 -3.1610
  337MOL0     H44428   7.236   5.120   7.326 -0.7433 -2.0997  1.5422
  337MOL0     H44429   7.067   5.290   7.332 -0.0042 -1.1240  1.7882
  337MOL0     H44430   7.022   5.148   7.431 -1.2125 -0.2940  1.1717
  337MOL0     H44431   6.856   5.070   7.245 -2.5707  0.7284  0.7737
  337MOL0     H44432   6.911   5.209   7.164  3.6244 -3.1329 -1.6563
  337MOL0     H44433   6.820   5.360   7.312 -0.5434 -0.7898 -2.4943
  337MOL0     H44434   6.697   5.236   7.270  0.4827  0.2780 -0.4543
  337MOL0     H44435   6.727   5.303   7.539  0.8004  1.5259 -0.5910
  337MOL0     H44436   6.879   5.257   7.526 -0.7868  0.3491  0.9064
  337MOL0     H44437   6.538   5.094   7.462 -0.8938  0.2611 -0.1287
  337MOL0     H44438   6.587   4.721   7.621  3.3501  0.5434  2.5369
  337MOL0     H44439   6.435   4.818   7.606  0.3055  0.8354  0.0979
  337MOL0     H44440   6.627   4.796   7.833  0.9406  3.3682 -1.0683
  337MOL0     H44441   6.469   4.730   7.816 -1.6018  0.2536 -2.2079
  337MOL0     H44442   6.515   5.026   7.808 -2.3542  0.8025 -0.5643
  337MOL0     H44443   6.356   4.943   7.830 -0.0697  2.4978  0.6670
  337MOL0     H44444   6.568   4.913   8.030  1.0134  2.0394  1.3453
  337MOL0     H44445   6.402   4.879   8.044  2.2846 -0.1475  3.8014
  337MOL0     H44446   6.192   4.958   8.129 -2.3958  0.0143  1.1721
  337MOL0     H44447   5.992   5.032   8.006 -1.4766 -0.1880 -0.6798
  337MOL0     H44448   5.656   5.204   7.761  1.3560 -4.1608  2.1909
  337MOL0     H44449   5.457   5.332   7.748  0.1563 -4.1583 -0.1906
  337MOL0     H44450   5.427   5.628   7.987 -0.2909 -0.8395  2.6085
  337MOL0     H44451   5.262   5.619   8.035  0.6819  0.6552  0.0074
  337MOL0     H44452   5.352   5.644   7.743 -0.2078  0.4165 -0.1656
  337MOL0     H44453   5.277   5.779   7.834 -0.3406  0.5836 -2.1266
  337MOL0     H44454   5.086   5.666   7.889 -1.7307  2.6588 -1.1090
  337MOL0     H44455   5.120   5.542   7.752 -1.8215  0.8730 -1.6580
  337MOL0     H44456   5.114   5.839   7.702  2.2213  0.1749 -2.5893
  337MOL0     H44457   5.149   5.717   7.590  1.7058 -0.2449  0.7133
  337MOL0     H44458   4.873   5.740   7.732 -0.6389  4.5020 -1.8204
  337MOL0     H44459   4.915   5.617   7.609 -2.7310  2.0024 -1.5162
  337MOL0     H44460   4.982   5.811   7.472  0.3508  0.6005  0.6060
  337MOL0     H44461   4.915   5.917   7.597 -0.5493  0.0169  0.9910
  337MOL0     H44462   4.789   5.714   7.411 -0.2644 -2.1857  1.8115
  337MOL0     H44463   4.697   5.759   7.557 -0.7267 -0.1681 -0.6429
  337MOL0     H44464   4.652   5.906   7.340 -1.5698  3.4736 -0.9776
  337MOL0     H44465   4.794   5.995   7.391 -2.3158  1.9758  1.0655
  337MOL0     H44466   5.474   5.427   8.160  1.2093  1.0853 -0.5421
  337MOL0     H44467   5.685   5.302   8.186 -0.4702 -0.1636 -0.0313
  337MOL0     H44468   6.146   5.417   7.952 -4.8861 -0.1579  1.2360
  337MOL0     H44469   6.381   5.334   7.989 -0.0992 -0.5581  1.3655
  337MOL0     H44470   7.670   4.948   6.843  0.4073 -4.3475  1.1339
  337MOL0     H44471   7.923   4.932   6.868  2.2922 -0.0764  0.7569
  337MOL0     H44472   8.368   5.022   7.326  2.2535  6.9918 -0.6951
  337MOL0     H44473   8.612   5.016   7.261  0.5398 -0.1740 -0.2502
  337MOL0     H44474   8.787   5.079   7.121 -0.1883  0.2942  0.1035
  337MOL0     H44475   8.892   4.983   7.032  0.2816  1.3837  0.5304
  337MOL0     H44476   8.792   4.917   7.306 -1.4540 -0.8838 -0.5661
  337MOL0     H44477   8.855   4.791   7.213  0.0265  0.7010 -0.1552
  337MOL0     H44478   9.036   4.903   7.369 -0.1757  1.4681  0.7160
  337MOL0     H44479   9.015   5.045   7.279 -0.8002 -0.8784 -0.1427
  337MOL0     H44480   9.133   4.780   7.176  0.2264  0.1730 -3.2504
  337MOL0     H44481   9.118   4.919   7.063  2.5979 -0.0667 -0.6635
  337MOL0     H44482   9.426   5.031   7.314  0.4917 -0.1590 -1.3093
  337MOL0     H44483   8.492   4.865   6.874  1.2357 -1.1778  0.5128
  337MOL0     H44484   8.257   4.884   6.935 -0.7847  0.7833  1.4589
  338MOL0     O44485   0.197   3.823  10.524 -0.4561 -0.3547  0.0809
  338MOL0     C44486   0.155   3.804  10.630 -0.1030  0.1661 -1.4795
  338MOL0     O44487   0.024   3.810  10.678 -0.2863  0.3514 -0.6211
  338MOL0     C44488  -0.088   3.765  10.611 -0.2555  0.2400  0.1947
  338MOL0     C44489  -0.094   3.746  10.472  0.7015 -0.7570 -0.0393
  338MOL0     C44490  -0.218   3.716  10.421 -0.3755  0.0619 -0.6590
  338MOL0     C44491  -0.339   3.703  10.499  0.1559  0.1110 -0.5009
  338MOL0     O44492  -0.466   3.678  10.454 -0.4319  0.1027  0.1661
  338MOL0     C44493  -0.485   3.629  10.324  0.7952  0.1386 -0.8036
  338MOL0     C44494  -0.590   3.526  10.304 -0.5918  0.4573 -0.9191
  338MOL0     C44495  -0.540   3.381  10.332 -0.6607  0.4696  0.0020
  338MOL0     C44496  -0.633   3.279  10.277 -0.1809 -0.2430 -0.3723
  338MOL0     C44497  -0.751   3.246  10.368 -0.2313  0.8049  0.5054
  338MOL0     C44498  -0.850   3.159  10.286 -0.0801 -0.4110 -0.2940
  338MOL0     C44499  -0.935   3.066  10.370 -0.3480 -0.4654 -0.6975
  338MOL0     C44500  -0.986   3.131  10.493  0.9300 -0.4926 -1.4550
  338MOL0     N44501  -1.081   3.045  10.571  0.5567 -0.9933  0.4990
  338MOL0     C44502  -1.052   2.933  10.641 -0.2725  0.7895 -0.8327
  338MOL0     C44503  -1.172   2.878  10.675 -0.3722 -0.6258  0.0231
  338MOL0     C44504  -1.188   2.749  10.749 -0.4188 -0.9678  0.4025
  338MOL0     C44505  -1.272   2.757  10.879 -0.3833  0.3933 -0.6681
  338MOL0     C44506  -1.242   2.886  10.966  0.2715  1.2485  0.1669
  338MOL0     C44507  -1.299   2.858  11.107  0.4095 -0.5580 -0.9462
  338MOL0     O44508  -1.434   2.815  11.106 -0.3772 -0.0406  0.2170
  338MOL0     C44509  -1.535   2.912  11.122 -0.0394  0.7548  0.1922
  338MOL0     C44510  -1.522   3.053  11.155  0.5136 -0.0012 -0.2920
  338MOL0     C44511  -1.630   3.140  11.167 -0.0721 -0.1814  0.4750
  338MOL0     C44512  -1.760   3.093  11.138  0.7377 -0.4173  0.3536
  338MOL0     C44513  -1.884   3.180  11.157 -0.7456  1.2489  0.3609
  338MOL0     O44514  -1.998   3.115  11.179  0.3167 -0.1326 -0.5282
  338MOL0     C44515  -2.121   3.169  11.208 -0.0615 -0.3634  0.2321
  338MOL0     C44516  -2.151   3.312  11.214  0.5006 -0.1154  0.5500
  338MOL0     C44517  -2.284   3.358  11.248 -0.9863  0.5634  0.7128
  338MOL0     C44518  -2.390   3.263  11.239 -0.8094 -0.2779 -0.5068
  338MOL0     O44519  -2.526   3.291  11.230  0.5384  0.2423  0.5893
  338MOL0     C44520  -2.547   3.421  11.170  1.0888 -0.6107 -0.1136
  338MOL0     C44521  -2.696   3.450  11.130  0.9227  0.6097 -0.3197
  338MOL0     C44522  -2.726   3.580  11.074  0.1871 -0.6449 -0.3965
  338MOL0     C44523  -2.879   3.611  11.066  0.5213  0.5057 -0.7168
  338MOL0     C44524  -2.914   3.757  11.048  0.2905 -0.9499  0.4877
  338MOL0     C44525  -3.066   3.775  11.042  0.0349 -0.5847  0.0907
  338MOL0     C44526  -3.103   3.884  10.932 -0.3159 -0.0734 -0.8959
  338MOL0     C44527  -3.249   3.925  10.935  0.9322  0.0640  0.0671
  338MOL0    Cl44528  -3.351   3.777  10.915 -0.0087 -0.3944 -0.0722
  338MOL0     C44529  -2.362   3.121  11.231  0.2419 -0.1387  0.2295
  338MOL0     C44530  -2.225   3.083  11.217  0.5728  1.4274  0.0888
  338MOL0     O44531  -1.869   3.296  11.129  1.0536 -0.2914  0.1995
  338MOL0     C44532  -1.777   2.950  11.108  0.1853  0.4218 -0.5168
  338MOL0     C44533  -1.661   2.871  11.098  0.4097  0.9081  0.1876
  338MOL0     N44534  -1.276   2.958  10.624  1.3692  0.0952  0.0666
  338MOL0     N44535  -1.214   3.053  10.564  0.3604  0.0552 -0.6803
  338MOL0     C44536  -0.326   3.706  10.638 -0.2283  0.3067  0.4284
  338MOL0     C44537  -0.197   3.747  10.690  0.7319 -0.4343  1.0775
  338MOL0     C44538   0.250   3.782  10.737  0.9009  0.1439 -0.3227
  338MOL0     C44539   0.200   3.715  10.859  0.3230 -0.3346  0.4649
  338MOL0     C44540   0.283   3.681  10.959 -1.5080  0.3309 -0.1433
  338MOL0     C44541   0.409   3.740  10.965  0.2939  0.4175 -0.4474
  338MOL0     O44542   0.467   3.718  11.091  0.1555  0.1820 -0.3543
  338MOL0     C44543   0.584   3.792  11.114 -0.1931 -1.1099  0.2115
  338MOL0     C44544   0.634   3.783  11.254 -0.0128 -0.8126 -0.4274
  338MOL0     C44545   0.792   3.757  11.263  0.1548  0.6506  0.7955
  338MOL0     C44546   0.880   3.870  11.205 -0.1754 -0.3834 -0.3660
  338MOL0     C44547   1.027   3.832  11.201 -0.5441 -0.1577 -0.8733
  338MOL0     C44548   1.131   3.772  11.195  0.0493 -1.1412  0.2331
  338MOL0     C44549   0.464   3.802  10.851  0.2464  0.2136  0.3824
  338MOL0     C44550   0.388   3.821  10.735  1.0533 -0.7725 -0.0213
  338MOL0     H44551  -0.007   3.739  10.408 -0.0910 -1.1424 -1.1048
  338MOL0     H44552  -0.224   3.706  10.313 -3.5994 -2.7316 -0.3914
  338MOL0     H44553  -0.389   3.588  10.293  0.9500 -0.6458  0.6385
  338MOL0     H44554  -0.501   3.714  10.256 -2.8154  0.8045  0.6538
  338MOL0     H44555  -0.596   3.528  10.194 -2.7989  0.8274 -0.8330
  338MOL0     H44556  -0.687   3.554  10.346  0.5965  0.0286  2.3859
  338MOL0     H44557  -0.527   3.359  10.439  2.3174 -0.1357 -0.4077
  338MOL0     H44558  -0.440   3.357  10.295 -0.4224  0.9779  0.2930
  338MOL0     H44559  -0.680   3.314  10.184  0.0037  1.8735  0.2750
  338MOL0     H44560  -0.584   3.186  10.249  1.2569  0.6811 -1.0606
  338MOL0     H44561  -0.804   3.337  10.399 -0.6637  2.6632 -4.7287
  338MOL0     H44562  -0.705   3.188  10.449  5.6091  0.6043 -2.4904
  338MOL0     H44563  -0.816   3.085  10.213 -0.6950 -2.3440  1.2926
  338MOL0     H44564  -0.926   3.223  10.239  2.3333  1.7695 -1.4383
  338MOL0     H44565  -1.014   3.019  10.312 -2.5923  1.8018  0.3080
  338MOL0     H44566  -0.875   2.980  10.403  0.5332 -0.0362 -1.1395
  338MOL0     H44567  -1.042   3.219  10.461 -2.9831 -0.9553  3.0140
  338MOL0     H44568  -0.905   3.166  10.558 -1.7070  1.6699  0.9283
  338MOL0     H44569  -0.953   2.892  10.663 -1.6418 -2.4204 -0.0159
  338MOL0     H44570  -1.088   2.714  10.777 -0.3411 -2.1321 -1.2081
  338MOL0     H44571  -1.224   2.673  10.679 -0.6473 -0.9732  0.5244
  338MOL0     H44572  -1.266   2.662  10.933 -0.2461  0.9804  0.3924
  338MOL0     H44573  -1.378   2.767  10.854 -0.5688 -2.5066 -1.3584
  338MOL0     H44574  -1.133   2.894  10.976  0.2617  1.5545  0.0430
  338MOL0     H44575  -1.275   2.978  10.917 -2.2842  0.4619  0.2423
  338MOL0     H44576  -1.292   2.951  11.164 -2.0079 -0.0718 -1.3017
  338MOL0     H44577  -1.241   2.783  11.161 -0.9427 -0.3460  0.9306
  338MOL0     H44578  -1.427   3.098  11.181  1.2781 -0.7494 -1.6319
  338MOL0     H44579  -1.610   3.230  11.225 -1.0124  0.7198 -0.5376
  338MOL0     H44580  -2.075   3.389  11.209 -1.3836  1.8016 -0.8081
  338MOL0     H44581  -2.298   3.465  11.259 -0.8963  0.7722 -0.9229
  338MOL0     H44582  -2.489   3.435  11.079 -0.6623  1.3296 -1.0121
  338MOL0     H44583  -2.518   3.495  11.246  1.9305 -1.9449  0.9184
  338MOL0     H44584  -2.743   3.439  11.229 -0.4258 -1.7194 -1.1585
  338MOL0     H44585  -2.730   3.379  11.055  2.6280 -1.7088  0.9495
  338MOL0     H44586  -2.671   3.587  10.980  1.3565 -2.2292  0.1174
  338MOL0     H44587  -2.683   3.664  11.129 -2.5639  0.6219 -0.0094
  338MOL0     H44588  -2.926   3.549  10.989 -2.1894 -1.5489  2.3694
  338MOL0     H44589  -2.928   3.568  11.153  2.1965  3.4575  1.9082
  338MOL0     H44590  -2.878   3.792  10.951 -2.2541  0.2908 -0.0820
  338MOL0     H44591  -2.868   3.830  11.116  0.8760 -0.2855 -0.6044
  338MOL0     H44592  -3.105   3.798  11.141  0.9929 -0.4956  0.4513
  338MOL0     H44593  -3.118   3.684  11.011 -2.2485  1.0121 -1.0686
  338MOL0     H44594  -3.047   3.975  10.958 -1.8388  0.4727  0.7206
  338MOL0     H44595  -3.064   3.858  10.833  1.8253  1.5053 -0.5513
  338MOL0     H44596  -3.279   3.995  10.857 -2.5540  0.0599  1.2445
  338MOL0     H44597  -3.265   3.979  11.028  0.9147  2.1215 -1.0747
  338MOL0     H44598  -2.441   3.048  11.246  0.5891 -0.1724  2.3206
  338MOL0     H44599  -2.212   2.976  11.215  2.7638  1.6526 -2.2112
  338MOL0     H44600  -1.875   2.906  11.094  0.6340 -0.2176 -1.7566
  338MOL0     H44601  -1.663   2.764  11.077  1.0549  0.8244  0.5177
  338MOL0     H44602  -0.408   3.702  10.709  1.3078 -1.5252  2.2407
  338MOL0     H44603  -0.190   3.780  10.793  0.2935 -0.0911  1.0004
  338MOL0     H44604   0.095   3.686  10.861 -0.0402  0.6412 -1.6144
  338MOL0     H44605   0.255   3.629  11.050 -1.6614 -0.6233 -0.7168
  338MOL0     H44606   0.566   3.896  11.084 -2.9362 -1.6818 -0.4454
  338MOL0     H44607   0.663   3.753  11.049 -1.1789 -3.6250  0.4152
  338MOL0     H44608   0.620   3.875  11.311  3.9499  0.1874 -0.7699
  338MOL0     H44609   0.583   3.697  11.299  0.2387 -0.7185  0.0408
  338MOL0     H44610   0.817   3.665  11.209 -0.1067  2.2131 -2.2288
  338MOL0     H44611   0.813   3.732  11.367  2.0853 -0.3149  0.2201
  338MOL0     H44612   0.843   3.910  11.109  0.2400  1.5515  0.2289
  338MOL0     H44613   0.877   3.954  11.275 -2.6048  0.7861 -1.7154
  338MOL0     H44614   1.224   3.721  11.184 -1.0899 -3.4414  0.7543
  338MOL0     H44615   0.565   3.841  10.853  1.5643 -2.9463  1.5998
  338MOL0     H44616   0.419   3.881  10.651 -3.1311  2.1507  0.2172
  339MOL0     O44617   2.891   2.487   0.663  0.3168  0.1668  0.8559
  339MOL0     C44618   2.987   2.414   0.686  0.3261 -0.1838 -0.0198
  339MOL0     O44619   2.996   2.280   0.662  0.5378  0.1279 -0.4423
  339MOL0     C44620   2.882   2.203   0.625 -0.2514 -0.9383  0.3226
  339MOL0     C44621   2.841   2.105   0.712 -0.7431 -0.3196  0.7136
  339MOL0     C44622   2.728   2.027   0.691  0.1815  0.2147 -0.4641
  339MOL0     C44623   2.650   2.052   0.573  0.6071 -0.5552 -1.0928
  339MOL0     O44624   2.545   1.967   0.532  0.5799 -0.3196  0.3522
  339MOL0     C44625   2.434   2.009   0.454 -0.6427 -0.3269 -0.1027
  339MOL0     C44626   2.319   1.919   0.490  0.1623  0.3680 -0.5224
  339MOL0     C44627   2.188   1.990   0.433 -0.0550  0.4865  1.0042
  339MOL0     C44628   2.062   1.918   0.482 -0.3521  0.6086 -0.9728
  339MOL0     C44629   1.922   1.971   0.448 -0.2300 -0.0993 -0.1232
  339MOL0     C44630   1.918   2.018   0.302  0.4990  0.8768 -0.4041
  339MOL0     C44631   1.770   2.069   0.271 -0.0625  0.0916 -0.0196
  339MOL0     C44632   1.766   2.222   0.313 -0.1362  0.9563 -0.5682
  339MOL0     N44633   1.626   2.260   0.345  0.0781  0.2644 -0.2014
  339MOL0     C44634   1.540   2.323   0.261  0.5639  0.5226  0.9586
  339MOL0     C44635   1.424   2.293   0.302  0.1513  0.4409 -0.7950
  339MOL0     C44636   1.297   2.318   0.228 -1.0605 -0.3258 -0.4394
  339MOL0     C44637   1.177   2.252   0.297 -0.0726  0.1090  0.3130
  339MOL0     C44638   1.129   2.330   0.413 -0.3910  0.0424  0.6400
  339MOL0     C44639   0.991   2.286   0.471  1.2094 -0.0163  0.3971
  339MOL0     O44640   0.944   2.392   0.554 -0.3572  0.5440 -0.0899
  339MOL0     C44641   0.816   2.392   0.600  0.0791  0.9622  0.1736
  339MOL0     C44642   0.780   2.478   0.695 -0.1933 -0.0648  1.3128
  339MOL0     C44643   0.647   2.486   0.728 -0.3619 -0.5956  0.6358
  339MOL0     C44644   0.553   2.390   0.698 -0.1502 -0.0655 -0.7972
  339MOL0     C44645   0.405   2.398   0.757 -0.9099  0.4517  1.0959
  339MOL0     O44646   0.323   2.289   0.726  0.4670  0.3108 -0.5956
  339MOL0     C44647   0.193   2.293   0.756  0.3144 -1.0798  0.1403
  339MOL0     C44648   0.118   2.402   0.712 -0.3930  0.0381  0.2868
  339MOL0     C44649  -0.016   2.406   0.739 -0.3697  0.3126  0.0677
  339MOL0     C44650  -0.078   2.302   0.815  0.2331 -0.3115  0.1836
  339MOL0     O44651  -0.205   2.291   0.871 -0.8456 -0.5652 -0.3657
  339MOL0     C44652  -0.290   2.393   0.823  0.3589 -0.6060  0.0452
  339MOL0     C44653  -0.429   2.355   0.859 -0.9246 -0.4087 -0.0770
  339MOL0     C44654  -0.509   2.483   0.869  0.3664  0.0735 -0.3265
  339MOL0     C44655  -0.657   2.464   0.892 -0.8061 -0.4888 -0.4071
  339MOL0     C44656  -0.734   2.584   0.895 -0.0550 -0.3483  0.3623
  339MOL0     C44657  -0.888   2.537   0.909 -0.3748 -0.1966  0.5770
  339MOL0     C44658  -0.972   2.664   0.909  0.3053 -0.7659  0.8843
  339MOL0     C44659  -1.120   2.628   0.933  0.1235 -0.0384 -0.1080
  339MOL0    Cl44660  -1.234   2.775   0.956 -0.1124  0.1048  0.2356
  339MOL0     C44661  -0.001   2.195   0.851 -0.4742  0.1258 -0.7173
  339MOL0     C44662   0.132   2.190   0.824 -0.4287 -0.4519 -0.4003
  339MOL0     O44663   0.382   2.491   0.828  0.7335  0.0786  0.0084
  339MOL0     C44664   0.593   2.285   0.609 -0.0512 -0.0742 -0.8516
  339MOL0     C44665   0.722   2.294   0.563  0.2236 -0.4750  0.4955
  339MOL0     N44666   1.433   2.223   0.420  0.1568 -0.5680  0.4747
  339MOL0     N44667   1.560   2.204   0.446  0.2366 -0.3592 -0.7211
  339MOL0     C44668   2.684   2.165   0.495  0.8163  0.7666 -0.3099
  339MOL0     C44669   2.798   2.235   0.516  0.1768 -0.1096 -0.7906
  339MOL0     C44670   3.113   2.484   0.717  0.2667  0.5551  0.2683
  339MOL0     C44671   3.235   2.415   0.738  0.7675 -0.1022  1.1414
  339MOL0     C44672   3.357   2.478   0.749  0.3977 -0.1630  0.2540
  339MOL0     C44673   3.360   2.620   0.753 -0.6944 -0.3378  0.2816
  339MOL0     O44674   3.483   2.689   0.759  1.1433  1.0226 -0.4444
  339MOL0     C44675   3.607   2.619   0.764  0.0842  0.9889 -0.4160
  339MOL0     C44676   3.623   2.557   0.903  0.3341 -0.7545 -0.2201
  339MOL0     C44677   3.739   2.453   0.910  0.3230 -0.8957  0.4265
  339MOL0     C44678   3.867   2.528   0.945 -1.2220  0.3799  0.2323
  339MOL0     C44679   3.959   2.421   0.988 -0.0978 -0.1609  0.8052
  339MOL0     C44680   4.051   2.338   1.017  1.0570 -0.3414 -0.3184
  339MOL0     C44681   3.235   2.686   0.767 -1.2689 -0.5603 -0.4659
  339MOL0     C44682   3.116   2.623   0.744 -0.0723  0.5641  0.1817
  339MOL0     H44683   2.900   2.084   0.801  1.6743  0.3110 -0.6513
  339MOL0     H44684   2.709   1.940   0.753  2.6417  0.0235  0.1512
  339MOL0     H44685   2.457   2.005   0.347 -1.6936  1.9148 -0.4691
  339MOL0     H44686   2.415   2.115   0.476  2.3436  0.4930 -1.0090
  339MOL0     H44687   2.315   1.905   0.599  0.3845  0.6628 -0.4728
  339MOL0     H44688   2.335   1.819   0.448  0.6927  0.8800 -1.5779
  339MOL0     H44689   2.193   2.007   0.325 -1.8026  0.1985  0.8438
  339MOL0     H44690   2.170   2.084   0.486 -1.8542  0.3855  0.6536
  339MOL0     H44691   2.069   1.810   0.466  1.8234  1.0331 -3.7246
  339MOL0     H44692   2.062   1.931   0.590  0.7360 -0.0729 -0.8802
  339MOL0     H44693   1.906   2.057   0.513  1.2617 -1.3954  2.1210
  339MOL0     H44694   1.848   1.893   0.469  1.1520 -1.3468  0.3559
  339MOL0     H44695   1.940   1.934   0.235  2.7339 -0.5311  1.8919
  339MOL0     H44696   1.998   2.087   0.275  0.9221  1.8379  2.7876
  339MOL0     H44697   1.752   2.052   0.164 -0.1337  1.9707 -0.3305
  339MOL0     H44698   1.699   2.012   0.331 -0.8789 -0.3498 -1.3456
  339MOL0     H44699   1.801   2.273   0.223  1.7118 -0.9789 -1.0369
  339MOL0     H44700   1.833   2.239   0.398 -2.2614 -2.1477  1.9488
  339MOL0     H44701   1.561   2.384   0.174  2.4674 -0.1209  0.9396
  339MOL0     H44702   1.295   2.290   0.122 -1.0231 -2.2747  0.0484
  339MOL0     H44703   1.284   2.427   0.220 -1.1147 -0.3539 -0.7613
  339MOL0     H44704   1.201   2.149   0.327 -0.6335  0.5770  2.5131
  339MOL0     H44705   1.096   2.256   0.222  0.1650  1.0780  0.0995
  339MOL0     H44706   1.201   2.320   0.495  0.0910  2.2827  0.5421
  339MOL0     H44707   1.109   2.428   0.369 -0.4280 -0.7158 -1.0750
  339MOL0     H44708   0.989   2.194   0.530 -1.2872  1.1366  2.2974
  339MOL0     H44709   0.919   2.282   0.389  3.2236  1.0365 -1.5382
  339MOL0     H44710   0.857   2.541   0.737  0.7277  1.4909 -2.3741
  339MOL0     H44711   0.621   2.569   0.793  1.6663 -0.7112  1.6782
  339MOL0     H44712   0.175   2.481   0.665  0.8322 -0.6798  0.5110
  339MOL0     H44713  -0.073   2.490   0.702  1.4493  2.4224  1.8066
  339MOL0     H44714  -0.289   2.401   0.714 -2.2942  0.5983  0.0245
  339MOL0     H44715  -0.262   2.480   0.882 -2.1168 -2.2608  4.1054
  339MOL0     H44716  -0.418   2.300   0.954 -0.9034 -1.7222 -0.8140
  339MOL0     H44717  -0.470   2.286   0.785 -4.9278  1.6312 -0.0219
  339MOL0     H44718  -0.494   2.537   0.775  1.1116 -1.0018 -0.8423
  339MOL0     H44719  -0.479   2.542   0.957 -1.3937 -0.8463  0.9470
  339MOL0     H44720  -0.697   2.403   0.811  1.2084 -3.0183  0.3406
  339MOL0     H44721  -0.674   2.402   0.981  0.2195  0.2073  0.2993
  339MOL0     H44722  -0.712   2.635   0.800 -1.4754 -1.3499 -0.5400
  339MOL0     H44723  -0.707   2.651   0.977 -0.8706  1.9476 -1.1558
  339MOL0     H44724  -0.900   2.480   1.002  0.1667 -2.5420 -0.7353
  339MOL0     H44725  -0.910   2.475   0.822  0.0898 -1.8747  1.6035
  339MOL0     H44726  -0.940   2.727   0.993  1.0404  0.1173 -0.0327
  339MOL0     H44727  -0.968   2.713   0.811 -3.2465  1.6606  1.7424
  339MOL0     H44728  -1.137   2.561   1.018 -1.0423  2.6862  1.9491
  339MOL0     H44729  -1.156   2.568   0.849  1.2682  0.3958 -0.9430
  339MOL0     H44730  -0.048   2.114   0.906 -0.6939  1.1014  0.5785
  339MOL0     H44731   0.194   2.107   0.855  0.5684  0.8695  1.3077
  339MOL0     H44732   0.521   2.211   0.576  0.4277  0.0919 -2.3157
  339MOL0     H44733   0.754   2.208   0.505  0.6613 -1.6444  2.3962
  339MOL0     H44734   2.628   2.194   0.406  0.6541  0.7924 -0.1999
  339MOL0     H44735   2.826   2.312   0.445  1.9875 -0.3058 -0.3467
  339MOL0     H44736   3.235   2.307   0.738  0.3536 -0.1531  2.9814
  339MOL0     H44737   3.444   2.415   0.744 -0.0726 -0.8476  0.6042
  339MOL0     H44738   3.690   2.685   0.735 -2.5530  3.0518 -4.0758
  339MOL0     H44739   3.615   2.531   0.698  1.8012 -0.0214  1.0250
  339MOL0     H44740   3.630   2.632   0.982 -0.4177 -0.2079 -0.6631
  339MOL0     H44741   3.530   2.506   0.929 -1.0230  0.7453 -1.9017
  339MOL0     H44742   3.763   2.393   0.821  4.5424 -0.4121  1.0103
  339MOL0     H44743   3.715   2.381   0.989 -0.6535 -0.8875  0.1483
  339MOL0     H44744   3.899   2.578   0.853 -1.5244  0.6855  0.2940
  339MOL0     H44745   3.860   2.610   1.016  0.8317  0.3728  0.4932
  339MOL0     H44746   4.129   2.268   1.038  0.9582  0.2821  2.5900
  339MOL0     H44747   3.225   2.793   0.785 -3.4337 -0.5608 -1.3985
  339MOL0     H44748   3.021   2.676   0.748  0.4466  2.1507 -3.8605
  340MOL0     O44749   9.698   2.972   2.188  0.0264  0.5426 -0.6061
  340MOL0     C44750   9.718   2.880   2.264  0.7133  0.7039 -0.5359
  340MOL0     O44751   9.659   2.758   2.250  0.0233 -0.0308 -0.0964
  340MOL0     C44752   9.552   2.738   2.169 -0.3073  0.3256 -0.2509
  340MOL0     C44753   9.445   2.822   2.139 -1.2594  0.2355 -0.1310
  340MOL0     C44754   9.334   2.783   2.070  0.0322  0.0884 -0.2149
  340MOL0     C44755   9.324   2.652   2.022 -0.5826  0.4608  0.1277
  340MOL0     O44756   9.211   2.612   1.953 -0.1687 -0.3102 -1.1146
  340MOL0     C44757   9.102   2.709   1.941 -0.0956  0.0409  0.0147
  340MOL0     C44758   8.993   2.647   1.845 -0.9966 -0.4664  0.0187
  340MOL0     C44759   9.070   2.578   1.730 -0.1130 -0.1468  0.2998
  340MOL0     C44760   8.992   2.579   1.597 -0.1519  1.1611 -0.3570
  340MOL0     C44761   8.845   2.535   1.607  0.2329  0.2987 -0.5640
  340MOL0     C44762   8.789   2.523   1.470 -0.2222 -0.3606  0.0188
  340MOL0     C44763   8.636   2.518   1.448 -0.7935  0.7647 -0.1277
  340MOL0     C44764   8.569   2.377   1.489 -0.0618 -0.5104  0.6677
  340MOL0     N44765   8.614   2.277   1.394  0.0265  1.0243  0.1953
  340MOL0     C44766   8.615   2.134   1.429 -0.3195 -0.6998 -0.1710
  340MOL0     C44767   8.672   2.067   1.323  0.4482  0.7435  0.3492
  340MOL0     C44768   8.690   1.922   1.319  0.4382  0.1455 -0.6659
  340MOL0     C44769   8.784   1.872   1.426  0.4066  0.1212  0.3200
  340MOL0     C44770   8.925   1.829   1.374  0.9849 -1.0329 -0.5473
  340MOL0     C44771   9.026   1.944   1.385 -0.3390  0.1869  0.5471
  340MOL0     O44772   9.161   1.904   1.426 -0.8450 -0.2071 -0.4383
  340MOL0     C44773   9.275   1.974   1.389 -0.2005  0.4494  0.2266
  340MOL0     C44774   9.270   2.104   1.334 -0.5544 -0.0577 -0.7723
  340MOL0     C44775   9.384   2.169   1.287  0.6409 -0.3436 -0.6158
  340MOL0     C44776   9.506   2.118   1.318  0.2304  0.4576 -0.6077
  340MOL0     C44777   9.627   2.196   1.276 -0.4022 -0.7313 -0.5840
  340MOL0     O44778   9.736   2.155   1.336  0.5853 -0.9383  0.2052
  340MOL0     C44779   9.860   2.208   1.304 -0.2416 -0.5535 -0.3923
  340MOL0     C44780   9.889   2.344   1.297 -0.2797 -0.3909  0.4615
  340MOL0     C44781  10.016   2.384   1.250  0.7211  0.0564  0.5257
  340MOL0     C44782  10.110   2.292   1.218 -0.0437  0.2393  0.0351
  340MOL0     O44783  10.228   2.337   1.179  0.2815 -0.2931  0.2765
  340MOL0     C44784  10.323   2.389   1.289  1.0330  0.5607  0.2495
  340MOL0     C44785  10.402   2.276   1.356 -0.1215  0.5652  0.5913
  340MOL0     C44786  10.523   2.233   1.271 -0.6660  0.5996  0.4181
  340MOL0     C44787  10.637   2.341   1.253  0.2620 -0.5451  1.1497
  340MOL0     C44788  10.771   2.276   1.222  0.2322 -0.6936 -0.3578
  340MOL0     C44789  10.819   2.183   1.340 -0.0690  0.2802 -0.3215
  340MOL0     C44790  10.964   2.185   1.364  0.0829  0.2477 -0.2160
  340MOL0     C44791  11.059   2.156   1.246 -0.4470  0.1299 -1.0594
  340MOL0    Cl44792  11.060   2.000   1.177  0.4296 -0.2188 -0.4140
  340MOL0     C44793  10.086   2.158   1.223 -0.2038  0.1432 -0.3026
  340MOL0     C44794   9.964   2.119   1.282  0.1480  0.2149  1.0343
  340MOL0     O44795   9.616   2.300   1.205 -0.1728 -0.8350  0.1913
  340MOL0     C44796   9.519   2.000   1.389  0.5502 -0.4395 -0.1184
  340MOL0     C44797   9.402   1.927   1.423 -0.3334 -0.1690  0.2820
  340MOL0     N44798   8.708   2.162   1.224 -0.3138  0.4979  0.0733
  340MOL0     N44799   8.677   2.283   1.267  0.1434  0.4973  0.3751
  340MOL0     C44800   9.427   2.559   2.046 -1.3657  0.3705 -0.3970
  340MOL0     C44801   9.536   2.610   2.120 -0.1857  0.1280 -0.7331
  340MOL0     C44802   9.812   2.890   2.381 -0.5199  0.0793 -0.7513
  340MOL0     C44803   9.855   3.013   2.429  0.7142  0.1809  1.2906
  340MOL0     C44804   9.961   3.016   2.518  0.7189  0.1216  0.5734
  340MOL0     C44805  10.015   2.895   2.567  0.7934 -0.5777  0.4353
  340MOL0     O44806  10.124   2.903   2.656 -0.1361  0.1506 -0.4819
  340MOL0     C44807  10.168   2.786   2.725 -0.5120  0.4001  0.3462
  340MOL0     C44808  10.241   2.811   2.863  0.0897  0.4416  1.1406
  340MOL0     C44809  10.376   2.886   2.874  0.3428 -0.3067 -0.3104
  340MOL0     C44810  10.349   3.039   2.870 -0.1249 -0.8026 -0.2031
  340MOL0     C44811  10.475   3.121   2.867  0.4078 -0.4897 -0.2900
  340MOL0     C44812  10.563   3.212   2.881  0.4134  0.2711 -0.6789
  340MOL0     C44813   9.962   2.774   2.526  0.9160 -0.5043 -0.4864
  340MOL0     C44814   9.863   2.771   2.434 -0.0333  0.2651  0.1521
  340MOL0     H44815   9.444   2.916   2.192 -0.5689 -0.4229  1.1041
  340MOL0     H44816   9.257   2.860   2.068  0.3182  0.3526 -1.3985
  340MOL0     H44817   9.133   2.806   1.903 -1.5324  1.7824  2.9329
  340MOL0     H44818   9.059   2.722   2.041  2.0827  1.7856  0.8142
  340MOL0     H44819   8.934   2.729   1.804 -1.5522 -0.0159  1.6404
  340MOL0     H44820   8.921   2.590   1.905 -0.9796 -0.1788  0.3150
  340MOL0     H44821   9.108   2.482   1.768  2.1070  0.6775  0.2981
  340MOL0     H44822   9.156   2.638   1.700 -1.5904  1.8203 -0.1647
  340MOL0     H44823   8.991   2.684   1.564 -1.3566  0.3668 -3.2434
  340MOL0     H44824   9.044   2.520   1.521  0.2442  2.0397 -0.7856
  340MOL0     H44825   8.784   2.601   1.670  1.1634 -0.2062  0.9104
  340MOL0     H44826   8.845   2.438   1.658  3.1982  0.7112  0.3836
  340MOL0     H44827   8.835   2.431   1.432 -2.1869 -2.2119  1.8529
  340MOL0     H44828   8.812   2.610   1.407 -0.6045 -0.0414  0.3187
  340MOL0     H44829   8.604   2.585   1.528  0.8506  0.3765  0.9122
  340MOL0     H44830   8.616   2.546   1.345  0.3499  0.4438 -0.4557
  340MOL0     H44831   8.460   2.387   1.484 -0.0124 -0.4910 -0.8633
  340MOL0     H44832   8.580   2.354   1.595 -0.4217  1.0060  1.0485
  340MOL0     H44833   8.558   2.097   1.514  0.7831 -0.9169  0.5010
  340MOL0     H44834   8.739   1.890   1.226 -0.5329 -2.0283 -0.4916
  340MOL0     H44835   8.597   1.866   1.322  1.2973 -1.3968 -1.4087
  340MOL0     H44836   8.732   1.788   1.475  2.6697 -0.6304  1.5627
  340MOL0     H44837   8.807   1.941   1.507 -1.2117 -1.1729  1.9612
  340MOL0     H44838   8.952   1.749   1.444  0.6659 -2.4216 -1.9483
  340MOL0     H44839   8.926   1.787   1.273 -0.9817 -2.4584 -0.0529
  340MOL0     H44840   8.988   2.019   1.455 -1.8202  0.0108 -0.0150
  340MOL0     H44841   9.032   1.986   1.283  1.6185 -0.7844  0.2340
  340MOL0     H44842   9.177   2.155   1.312  0.3028  2.9586  1.7262
  340MOL0     H44843   9.367   2.264   1.239 -2.0776  0.3680  1.5005
  340MOL0     H44844   9.811   2.416   1.322  0.6987  0.6959  0.4468
  340MOL0     H44845  10.025   2.491   1.235 -0.9073 -0.0543 -1.8717
  340MOL0     H44846  10.275   2.459   1.357  0.3216  1.1179 -0.8070
  340MOL0     H44847  10.402   2.452   1.247  1.1248 -0.0218 -0.4843
  340MOL0     H44848  10.338   2.189   1.373 -1.6383  1.6128  0.4352
  340MOL0     H44849  10.445   2.315   1.448 -0.7719  0.0055  1.1380
  340MOL0     H44850  10.480   2.187   1.182  1.9853  1.4642 -1.4127
  340MOL0     H44851  10.568   2.152   1.330 -0.7160  0.6699  0.5545
  340MOL0     H44852  10.595   2.414   1.183  2.3640  0.9219  1.3223
  340MOL0     H44853  10.661   2.400   1.342  2.7709 -0.6681  0.6461
  340MOL0     H44854  10.846   2.354   1.204 -1.8759  1.4062 -0.5969
  340MOL0     H44855  10.761   2.216   1.131 -0.3032  0.2571 -0.9434
  340MOL0     H44856  10.793   2.079   1.318 -0.8617  0.1447  1.0986
  340MOL0     H44857  10.769   2.207   1.435  2.4533 -2.8846  2.0335
  340MOL0     H44858  10.991   2.279   1.412 -2.0509  2.3709 -2.8157
  340MOL0     H44859  10.981   2.112   1.444  1.3649  0.9012  0.1278
  340MOL0     H44860  11.162   2.159   1.284 -0.7007 -0.5126 -0.3032
  340MOL0     H44861  11.036   2.226   1.165 -2.0475 -1.0909 -1.7042
  340MOL0     H44862  10.158   2.083   1.192  1.3240  1.2549  0.3830
  340MOL0     H44863   9.935   2.015   1.287  0.1188  0.1743  0.1799
  340MOL0     H44864   9.615   1.973   1.433  0.4286  1.4030  1.4321
  340MOL0     H44865   9.412   1.837   1.481  0.0854 -0.9527 -0.9617
  340MOL0     H44866   9.424   2.455   2.014  1.2563  0.2744 -0.4786
  340MOL0     H44867   9.608   2.534   2.148 -0.7992  0.1434  1.0209
  340MOL0     H44868   9.823   3.108   2.387  0.3903  0.1449  1.4585
  340MOL0     H44869  10.006   3.111   2.541  1.5094  0.2232 -1.2255
  340MOL0     H44870  10.231   2.720   2.665 -1.8485 -1.5367  0.9716
  340MOL0     H44871  10.088   2.718   2.756  0.9618 -3.4706 -3.4092
  340MOL0     H44872  10.176   2.861   2.936 -0.3276  2.4175 -0.5089
  340MOL0     H44873  10.258   2.714   2.911 -0.9783 -0.9890 -1.2255
  340MOL0     H44874  10.444   2.862   2.791  0.1285  0.2252 -0.6418
  340MOL0     H44875  10.425   2.860   2.968  4.5106 -0.0876 -2.1787
  340MOL0     H44876  10.294   3.068   2.780 -0.0681 -0.5764 -0.1652
  340MOL0     H44877  10.297   3.069   2.961 -0.8174  1.3995 -1.2620
  340MOL0     H44878  10.633   3.290   2.903 -0.6520  1.0006  0.2402
  340MOL0     H44879  10.002   2.680   2.562 -0.9276 -1.4757 -0.8630
  340MOL0     H44880   9.842   2.671   2.397 -1.0644  0.9903 -1.2871
  341MOL0     O44881   9.827   0.194   5.985 -0.0439 -0.1608 -0.2596
  341MOL0     C44882   9.793   0.235   5.877  0.9118 -0.5007 -0.2025
  341MOL0     O44883   9.662   0.228   5.818 -0.1146 -0.8346  0.4500
  341MOL0     C44884   9.583   0.143   5.896 -0.3779 -0.1778  0.2092
  341MOL0     C44885   9.575   0.009   5.851 -0.5042 -0.5307 -0.2501
  341MOL0     C44886   9.485  -0.070   5.908  0.1685  0.2012  0.5437
  341MOL0     C44887   9.401  -0.029   6.008 -0.5134  0.4196 -0.3954
  341MOL0     O44888   9.315  -0.125   6.068 -0.6272 -0.0101 -0.3093
  341MOL0     C44889   9.233  -0.081   6.176 -0.4154  0.1768 -0.2032
  341MOL0     C44890   9.149  -0.204   6.204  0.1707  0.4050 -0.2650
  341MOL0     C44891   9.054  -0.156   6.317 -0.2386  0.1297  0.0805
  341MOL0     C44892   8.997  -0.280   6.385  0.0852  0.3263  0.0857
  341MOL0     C44893   8.870  -0.240   6.455 -0.1602  0.4540  0.2300
  341MOL0     C44894   8.805  -0.353   6.532  0.0139  0.0816  0.1687
  341MOL0     C44895   8.654  -0.340   6.529  0.7703  0.2377  0.2907
  341MOL0     C44896   8.573  -0.446   6.612 -0.1564  0.0896 -0.4816
  341MOL0     N44897   8.430  -0.407   6.609 -0.3687 -0.4977  0.0854
  341MOL0     C44898   8.329  -0.459   6.528  0.3385 -0.0402  0.8818
  341MOL0     C44899   8.234  -0.366   6.552 -0.0937  0.4378 -0.1387
  341MOL0     C44900   8.091  -0.375   6.495 -1.2886 -0.3791 -0.6289
  341MOL0     C44901   8.088  -0.279   6.370  0.3562  0.1322 -0.4523
  341MOL0     C44902   7.950  -0.281   6.304  0.0206  0.5012 -1.0841
  341MOL0     C44903   7.854  -0.182   6.374  0.3678 -0.2714  0.3383
  341MOL0     O44904   7.754  -0.166   6.272  0.0627 -0.8524  0.0519
  341MOL0     C44905   7.629  -0.211   6.314  0.2179  0.8594  0.4542
  341MOL0     C44906   7.609  -0.340   6.363 -0.1140  0.2080 -0.0086
  341MOL0     C44907   7.486  -0.390   6.408  0.5415  0.6079  1.1754
  341MOL0     C44908   7.369  -0.308   6.387  0.9368 -0.3212  0.0910
  341MOL0     C44909   7.236  -0.369   6.433  0.3485  0.1178 -0.5514
  341MOL0     O44910   7.118  -0.283   6.430  0.1441 -0.2228 -0.0683
  341MOL0     C44911   7.009  -0.334   6.491  1.1905  0.2457  0.0171
  341MOL0     C44912   6.916  -0.400   6.415  0.3207  0.7382 -0.5566
  341MOL0     C44913   6.804  -0.465   6.480  0.2200 -0.5748  0.8362
  341MOL0     C44914   6.777  -0.450   6.615 -0.1277 -0.5780  0.7826
  341MOL0     O44915   6.665  -0.501   6.674  0.3082  0.1961  0.8014
  341MOL0     C44916   6.541  -0.518   6.604  0.7719  0.4674 -0.1323
  341MOL0     C44917   6.412  -0.570   6.680  1.1347 -0.1708 -0.3184
  341MOL0     C44918   6.291  -0.500   6.620  0.2781 -1.0413 -0.3316
  341MOL0     C44919   6.290  -0.347   6.667 -1.0253  0.4804  0.2206
  341MOL0     C44920   6.182  -0.277   6.594 -0.0408 -0.2970 -0.0082
  341MOL0     C44921   6.178  -0.129   6.645  0.4230  0.0167 -0.6724
  341MOL0     C44922   6.295  -0.036   6.601  0.3691 -0.2435 -0.6471
  341MOL0     C44923   6.317  -0.003   6.451 -0.3899  0.2222 -0.2239
  341MOL0    Cl44924   6.148   0.031   6.373 -0.2581  0.0490 -0.4242
  341MOL0     C44925   6.861  -0.370   6.692 -0.0600 -0.0920  0.3181
  341MOL0     C44926   6.981  -0.320   6.631 -0.5458 -0.2417  0.5121
  341MOL0     O44927   7.233  -0.494   6.455 -0.1192 -0.4067 -0.1294
  341MOL0     C44928   7.387  -0.184   6.324 -0.0598 -0.7131  0.3604
  341MOL0     C44929   7.514  -0.135   6.284 -0.0067 -0.1146 -0.2932
  341MOL0     N44930   8.261  -0.293   6.662  0.2685  0.0191 -0.0640
  341MOL0     N44931   8.385  -0.312   6.696 -0.1618 -0.8934  0.0944
  341MOL0     C44932   9.422   0.096   6.062 -0.1740 -0.2314 -0.1257
  341MOL0     C44933   9.505   0.186   6.000 -0.4305 -0.0007  0.3679
  341MOL0     C44934   9.892   0.316   5.795  0.0208 -0.0495 -0.4400
  341MOL0     C44935   9.871   0.344   5.654 -0.3724  0.2932 -0.8964
  341MOL0     C44936   9.966   0.419   5.586 -1.4240  1.0522  0.4140
  341MOL0     C44937  10.082   0.461   5.647 -0.0179  0.0346  0.2083
  341MOL0     O44938  10.192   0.526   5.580  0.2809  0.5099  0.1275
  341MOL0     C44939  10.175   0.583   5.448 -0.6228 -0.8876 -0.0607
  341MOL0     C44940  10.311   0.650   5.406 -0.0416  0.0783 -0.5733
  341MOL0     C44941  10.429   0.558   5.408  0.5909  1.4428  0.2009
  341MOL0     C44942  10.548   0.633   5.355 -0.0938  0.7284 -0.6077
  341MOL0     C44943  10.670   0.544   5.352  0.3326 -0.2152  0.2160
  341MOL0     C44944  10.776   0.489   5.359  0.2757 -0.6978 -0.6886
  341MOL0     C44945  10.100   0.427   5.782 -0.1107 -0.4274 -0.4305
  341MOL0     C44946  10.011   0.348   5.853 -0.3640  0.1608 -0.4828
  341MOL0     H44947   9.626  -0.020   5.760  1.1465  1.8633 -0.1739
  341MOL0     H44948   9.465  -0.171   5.872  0.2822  1.5488 -3.8648
  341MOL0     H44949   9.181   0.013   6.158  1.4053  1.3370  0.3626
  341MOL0     H44950   9.290  -0.055   6.265 -0.7451 -0.1906  0.1185
  341MOL0     H44951   9.211  -0.285   6.243  0.8285 -0.1280 -2.3139
  341MOL0     H44952   9.103  -0.254   6.118  3.6348 -0.7436 -1.6034
  341MOL0     H44953   8.976  -0.086   6.287  2.3695  2.6565 -1.2681
  341MOL0     H44954   9.114  -0.093   6.383  2.5771 -1.6263 -0.6242
  341MOL0     H44955   8.970  -0.357   6.312 -2.7818 -1.3305  2.6459
  341MOL0     H44956   9.074  -0.317   6.454 -1.9092 -0.7582  1.8249
  341MOL0     H44957   8.798  -0.217   6.377 -0.6598 -0.5052  0.3923
  341MOL0     H44958   8.882  -0.152   6.519 -1.7368  2.5688 -2.2023
  341MOL0     H44959   8.848  -0.351   6.632  3.1033  0.5531 -1.0543
  341MOL0     H44960   8.843  -0.453   6.509 -0.3704 -0.0630  0.1520
  341MOL0     H44961   8.634  -0.238   6.563  1.1316 -0.6072  3.2439
  341MOL0     H44962   8.627  -0.338   6.423 -1.4894 -2.3634  0.7048
  341MOL0     H44963   8.598  -0.442   6.719 -5.3065 -1.6731  1.0543
  341MOL0     H44964   8.585  -0.546   6.571  1.8905  0.0285  0.1502
  341MOL0     H44965   8.323  -0.538   6.454  2.9007 -1.0264  1.6117
  341MOL0     H44966   8.017  -0.355   6.574 -2.1473 -0.0900 -1.4794
  341MOL0     H44967   8.073  -0.478   6.463 -3.6579 -0.3111  0.2170
  341MOL0     H44968   8.172  -0.307   6.306  0.6153 -2.4513  0.8938
  341MOL0     H44969   8.121  -0.182   6.409 -2.0119  0.3612  1.1729
  341MOL0     H44970   7.971  -0.255   6.200 -0.1427  1.6292 -0.8489
  341MOL0     H44971   7.909  -0.382   6.316  0.2805  0.4226 -0.8647
  341MOL0     H44972   7.906  -0.090   6.402  0.0521  0.0475 -0.1122
  341MOL0     H44973   7.808  -0.228   6.463 -1.7547 -1.8824 -1.4812
  341MOL0     H44974   7.691  -0.409   6.372 -1.5457 -1.4321  1.1702
  341MOL0     H44975   7.478  -0.484   6.462  0.9314  0.7059  1.4051
  341MOL0     H44976   6.927  -0.407   6.308 -1.2053  2.8159 -0.9027
  341MOL0     H44977   6.733  -0.524   6.423 -3.4459  3.3888  0.7817
  341MOL0     H44978   6.552  -0.587   6.519  2.0522  0.4368  0.0468
  341MOL0     H44979   6.522  -0.423   6.552  0.2573 -0.0695 -0.9564
  341MOL0     H44980   6.412  -0.556   6.788 -0.7371  1.2610 -0.4542
  341MOL0     H44981   6.418  -0.678   6.661  2.6102  0.0176 -1.0557
  341MOL0     H44982   6.194  -0.544   6.646 -0.7228  0.5492 -1.1703
  341MOL0     H44983   6.295  -0.515   6.512  3.3751 -2.7926 -0.0784
  341MOL0     H44984   6.262  -0.357   6.772 -1.7058  0.0802  0.0099
  341MOL0     H44985   6.391  -0.306   6.656 -0.9454 -0.1447 -1.8397
  341MOL0     H44986   6.082  -0.320   6.609 -0.9554  1.4164 -0.9063
  341MOL0     H44987   6.191  -0.283   6.485 -3.8732  1.8395 -0.6016
  341MOL0     H44988   6.182  -0.123   6.754  1.4342 -4.7110 -0.2173
  341MOL0     H44989   6.087  -0.085   6.602  0.8056  0.3984 -1.1008
  341MOL0     H44990   6.273   0.059   6.650  0.1801 -0.5653 -0.1042
  341MOL0     H44991   6.390  -0.077   6.637 -0.8498 -2.1615  0.5560
  341MOL0     H44992   6.360  -0.085   6.393 -2.7062  0.4643 -2.4785
  341MOL0     H44993   6.390   0.078   6.459  0.4012 -0.5483  0.6600
  341MOL0     H44994   6.845  -0.361   6.799 -0.8693  2.2196  0.0624
  341MOL0     H44995   7.057  -0.273   6.693  0.6016 -0.5904 -0.5688
  341MOL0     H44996   7.291  -0.138   6.304 -0.5550 -1.4553  0.9328
  341MOL0     H44997   7.526  -0.031   6.255  0.7245  0.1307  0.8245
  341MOL0     H44998   9.350   0.137   6.132  0.9200 -0.8305  1.4269
  341MOL0     H44999   9.495   0.288   6.037 -1.5380 -0.0555  0.2400
  341MOL0     H45000   9.783   0.310   5.600 -0.6927  2.9768 -2.2711
  341MOL0     H45001   9.946   0.433   5.480 -0.2005 -0.0241  0.0212
  341MOL0     H45002  10.101   0.662   5.451 -2.0537 -2.1846 -0.0714
  341MOL0     H45003  10.154   0.501   5.378 -1.5958 -2.3662  1.8704
  341MOL0     H45004  10.287   0.666   5.300  0.4434  0.2832 -0.6546
  341MOL0     H45005  10.334   0.739   5.465 -1.1785 -1.6532  2.7063
  341MOL0     H45006  10.410   0.462   5.358 -0.1311 -0.0422  3.1194
  341MOL0     H45007  10.453   0.517   5.506  0.8768  0.7165 -0.1605
  341MOL0     H45008  10.525   0.676   5.257 -0.8339 -0.9293 -1.1931
  341MOL0     H45009  10.569   0.713   5.427  1.1181  0.2905 -0.4421
  341MOL0     H45010  10.871   0.451   5.388 -0.5442 -1.6709  0.8488
  341MOL0     H45011  10.191   0.459   5.832 -1.7136 -1.3004  3.4028
  341MOL0     H45012  10.016   0.322   5.958 -0.2027  1.1144 -0.2439
  342MOL0     O45013   7.919   3.045   9.228  0.7082  0.5948 -0.0510
  342MOL0     C45014   7.919   2.988   9.332 -0.8678  0.1360 -0.2522
  342MOL0     O45015   7.820   2.929   9.394  0.4098 -0.0257  0.4049
  342MOL0     C45016   7.715   2.886   9.319 -0.1630 -1.5868 -0.3163
  342MOL0     C45017   7.715   2.811   9.194 -0.7991  0.0215  1.2015
  342MOL0     C45018   7.595   2.777   9.127  0.5485  0.0181 -0.4382
  342MOL0     C45019   7.471   2.799   9.189  0.7329 -0.3179  0.6945
  342MOL0     O45020   7.347   2.759   9.141  0.9548  0.0961  0.4512
  342MOL0     C45021   7.335   2.620   9.093 -0.7466  0.4540  0.3183
  342MOL0     C45022   7.349   2.517   9.198  0.2046  0.5632 -0.1524
  342MOL0     C45023   7.227   2.496   9.290  0.3595  0.0574  0.3829
  342MOL0     C45024   7.189   2.618   9.377  0.8959  0.2691  0.0030
  342MOL0     C45025   7.062   2.586   9.463 -0.1299  0.2570 -0.1492
  342MOL0     C45026   6.965   2.481   9.407 -0.0131 -0.3690  0.3668
  342MOL0     C45027   6.857   2.440   9.500  0.2567  0.7002 -0.0240
  342MOL0     C45028   6.754   2.546   9.525  0.2970  0.0751 -0.9891
  342MOL0     N45029   6.662   2.563   9.402 -0.5140 -0.4143 -0.0240
  342MOL0     C45030   6.577   2.471   9.352  0.1669 -0.4155  0.6416
  342MOL0     C45031   6.480   2.540   9.289  0.1139  0.0714  1.0568
  342MOL0     C45032   6.352   2.499   9.216 -1.0140 -0.5784 -0.4314
  342MOL0     C45033   6.230   2.492   9.320 -0.6498 -0.2618  0.3883
  342MOL0     C45034   6.200   2.632   9.386 -0.2151  0.0191  0.9463
  342MOL0     C45035   6.201   2.754   9.294  0.3347  0.0587 -0.0727
  342MOL0     O45036   6.092   2.727   9.215  0.0380 -0.0635 -0.0820
  342MOL0     C45037   6.048   2.832   9.134  0.6955 -0.4152 -0.1962
  342MOL0     C45038   5.937   2.782   9.060 -0.6943 -0.6124  0.2295
  342MOL0     C45039   5.862   2.876   8.989  0.1278  1.1765  0.3442
  342MOL0     C45040   5.906   3.006   8.966  0.6205  0.2939 -0.5477
  342MOL0     C45041   5.827   3.098   8.881  0.2174 -0.2775 -0.7885
  342MOL0     O45042   5.718   3.046   8.819  0.4525 -0.3800  0.7343
  342MOL0     C45043   5.620   3.120   8.751  0.3563  0.2373  0.1012
  342MOL0     C45044   5.571   3.239   8.799  0.3707 -0.0100 -0.5975
  342MOL0     C45045   5.469   3.315   8.734 -0.5346  0.8472 -0.4300
  342MOL0     C45046   5.416   3.255   8.613 -0.0896 -0.2426 -0.9665
  342MOL0     O45047   5.319   3.317   8.543 -0.7801 -0.4649 -0.5510
  342MOL0     C45048   5.244   3.425   8.595  0.0955  0.9854 -0.4756
  342MOL0     C45049   5.152   3.484   8.492  0.4507  0.1609  0.7622
  342MOL0     C45050   5.108   3.633   8.518 -0.2755  0.0239  0.5475
  342MOL0     C45051   4.988   3.650   8.610 -0.0933  0.1874  0.1194
  342MOL0     C45052   4.955   3.793   8.612  0.0397 -0.5932 -0.9850
  342MOL0     C45053   4.821   3.816   8.683 -0.8437  0.3541 -0.2872
  342MOL0     C45054   4.795   3.961   8.714  0.1972 -0.1970 -0.5299
  342MOL0     C45055   4.671   3.978   8.802 -0.3936 -0.1351  1.2353
  342MOL0    Cl45056   4.713   3.916   8.968 -0.1675  0.1005 -0.0238
  342MOL0     C45057   5.463   3.136   8.562  0.7639  0.6354 -1.0194
  342MOL0     C45058   5.566   3.067   8.635  0.4657 -0.3317  0.4994
  342MOL0     O45059   5.862   3.215   8.874 -0.1846  0.2819 -0.4816
  342MOL0     C45060   6.024   3.044   9.035 -0.7952  0.1757 -0.2810
  342MOL0     C45061   6.099   2.957   9.124 -0.1246 -0.1337  0.6959
  342MOL0     N45062   6.512   2.682   9.300  0.2959  1.0058  0.0591
  342MOL0     N45063   6.623   2.689   9.362  0.5657 -0.0317  0.0535
  342MOL0     C45064   7.467   2.885   9.307 -0.2263 -0.2319  0.0091
  342MOL0     C45065   7.589   2.926   9.372  0.1106  0.6148  0.2933
  342MOL0     C45066   8.047   2.999   9.412 -0.1577  1.1981  0.1591
  342MOL0     C45067   8.172   3.024   9.344  0.0734  0.6069  0.0848
  342MOL0     C45068   8.297   3.010   9.402 -0.7633  0.0632 -0.6009
  342MOL0     C45069   8.307   2.988   9.543  1.4998 -0.5374  0.3726
  342MOL0     O45070   8.422   2.986   9.616  0.4128 -0.1585 -0.4054
  342MOL0     C45071   8.553   2.970   9.554  0.0808  0.2220  0.3104
  342MOL0     C45072   8.613   3.112   9.499  0.1369  0.0831 -0.2611
  342MOL0     C45073   8.664   3.198   9.616  0.7404 -0.3336 -0.0051
  342MOL0     C45074   8.702   3.335   9.563  0.0374 -0.6258  0.6906
  342MOL0     C45075   8.793   3.408   9.650  0.2680  0.4729  0.2409
  342MOL0     C45076   8.876   3.478   9.715 -0.8712  0.4439 -0.4831
  342MOL0     C45077   8.184   2.971   9.610  0.6137 -0.1422  0.5752
  342MOL0     C45078   8.058   2.966   9.550  0.2055  1.2370  0.7489
  342MOL0     H45079   7.809   2.783   9.148 -2.1260 -2.3285 -0.2760
  342MOL0     H45080   7.601   2.712   9.041 -0.2577 -2.7541  1.4667
  342MOL0     H45081   7.410   2.605   9.015  0.7736 -0.0523  1.8287
  342MOL0     H45082   7.237   2.608   9.047 -0.8402 -1.4163  0.9095
  342MOL0     H45083   7.439   2.525   9.260 -0.7767 -2.3626  1.9191
  342MOL0     H45084   7.360   2.429   9.134  0.5998  1.9759 -2.0841
  342MOL0     H45085   7.255   2.417   9.361  2.1901 -0.9897 -1.3965
  342MOL0     H45086   7.147   2.456   9.227  1.0342  0.8078 -0.9972
  342MOL0     H45087   7.267   2.662   9.440 -0.2944 -0.3912  2.0340
  342MOL0     H45088   7.152   2.698   9.313 -0.7691 -0.5275 -0.0886
  342MOL0     H45089   7.019   2.686   9.465 -1.1084 -0.1181 -1.2759
  342MOL0     H45090   7.088   2.551   9.564 -2.0834 -0.9063  0.0171
  342MOL0     H45091   7.025   2.390   9.398  0.5435 -0.0749  1.0182
  342MOL0     H45092   6.908   2.501   9.316  1.1751 -1.0618 -0.5458
  342MOL0     H45093   6.797   2.356   9.465  3.2458 -0.5091 -2.6491
  342MOL0     H45094   6.908   2.413   9.593  0.2130  0.0386 -0.1856
  342MOL0     H45095   6.800   2.641   9.552  0.5713  0.3505 -2.3501
  342MOL0     H45096   6.694   2.513   9.610  1.3482  2.2784  0.6990
  342MOL0     H45097   6.556   2.365   9.362  2.9760 -1.2920 -1.4982
  342MOL0     H45098   6.378   2.402   9.173  3.3781 -0.2366  0.9365
  342MOL0     H45099   6.331   2.568   9.135 -0.0786 -0.8045 -0.8796
  342MOL0     H45100   6.251   2.416   9.396  3.3270 -0.3878 -0.6084
  342MOL0     H45101   6.139   2.465   9.266 -0.1924 -0.1955 -0.4257
  342MOL0     H45102   6.097   2.615   9.421 -0.6526 -0.4159 -0.4978
  342MOL0     H45103   6.257   2.653   9.477  0.9562 -0.3957  0.3188
  342MOL0     H45104   6.287   2.770   9.229  2.1413  3.2447  2.7508
  342MOL0     H45105   6.187   2.854   9.338 -2.3516  0.5561 -1.7894
  342MOL0     H45106   5.910   2.677   9.064  3.5530 -1.8441  1.2345
  342MOL0     H45107   5.771   2.847   8.937 -0.0542 -0.5313  1.5043
  342MOL0     H45108   5.604   3.278   8.895 -1.7624 -0.4839  0.3796
  342MOL0     H45109   5.433   3.408   8.776 -3.0467 -0.6554  0.9583
  342MOL0     H45110   5.310   3.503   8.635 -0.0619  0.4821  0.8124
  342MOL0     H45111   5.191   3.386   8.683 -1.3351  0.5675 -1.4898
  342MOL0     H45112   5.067   3.417   8.476 -1.2589  1.5675  3.1861
  342MOL0     H45113   5.195   3.484   8.392 -2.5638 -3.6933 -0.7841
  342MOL0     H45114   5.064   3.680   8.430 -1.9480 -0.2809  1.1970
  342MOL0     H45115   5.195   3.695   8.539  0.0064 -0.3448  0.4984
  342MOL0     H45116   4.899   3.604   8.565  0.5794 -0.8366 -0.2194
  342MOL0     H45117   5.019   3.613   8.708  3.7895 -3.5111 -2.0897
  342MOL0     H45118   4.947   3.836   8.511 -0.8599 -1.2668 -1.2152
  342MOL0     H45119   5.041   3.844   8.658 -1.5788 -0.0803  1.6891
  342MOL0     H45120   4.831   3.757   8.775  0.2819  1.2388  0.1893
  342MOL0     H45121   4.739   3.763   8.636  0.0687  0.0342 -1.5656
  342MOL0     H45122   4.874   4.009   8.772 -0.1259  3.1895 -2.5857
  342MOL0     H45123   4.768   4.008   8.619 -2.2725  2.8170  1.4545
  342MOL0     H45124   4.595   3.916   8.754  0.0353  1.6496 -1.9522
  342MOL0     H45125   4.641   4.083   8.800 -2.3749 -0.6653 -0.8196
  342MOL0     H45126   5.431   3.092   8.468  2.3860  0.6459 -1.6095
  342MOL0     H45127   5.585   2.966   8.600  0.0684 -0.4637  0.6601
  342MOL0     H45128   6.065   3.144   9.032  0.7082 -0.3352  1.1861
  342MOL0     H45129   6.184   2.998   9.178 -1.1438  2.0197  0.7872
  342MOL0     H45130   7.375   2.904   9.362 -1.2071 -2.2796 -0.8401
  342MOL0     H45131   7.593   2.971   9.470  1.5815 -2.8198  1.9597
  342MOL0     H45132   8.160   3.070   9.246  1.6699 -1.1467 -0.9849
  342MOL0     H45133   8.380   3.033   9.336  1.0841  1.4270  1.9922
  342MOL0     H45134   8.549   2.892   9.478  0.6103  0.2347  0.2621
  342MOL0     H45135   8.618   2.930   9.632  1.1611  0.8101 -0.2579
  342MOL0     H45136   8.692   3.087   9.429 -2.0272 -1.6433 -2.2706
  342MOL0     H45137   8.536   3.167   9.443  1.0283  2.7236  0.9410
  342MOL0     H45138   8.755   3.148   9.649 -1.1462 -0.6707  5.8766
  342MOL0     H45139   8.590   3.209   9.696  0.3244 -1.1959 -0.2559
  342MOL0     H45140   8.751   3.334   9.466 -0.1633 -2.9512  0.5555
  342MOL0     H45141   8.606   3.386   9.550 -0.1909 -0.5393  2.4481
  342MOL0     H45142   8.937   3.536   9.782  1.2615  1.2674 -2.9829
  342MOL0     H45143   8.181   2.955   9.718  1.4551 -1.5603  0.4051
  342MOL0     H45144   7.975   2.937   9.614  1.3314  2.6521  2.9963
  343MOL0     O45145   6.422   2.724   8.958 -0.2323  0.0649 -0.0072
  343MOL0     C45146   6.530   2.766   9.005 -0.7703 -0.9017  0.0837
  343MOL0     O45147   6.569   2.906   9.020  0.1530  0.7594 -0.0242
  343MOL0     C45148   6.482   3.009   8.982  0.8072  0.8805  0.4546
  343MOL0     C45149   6.364   2.998   8.902 -0.4591 -0.2228  0.6136
  343MOL0     C45150   6.302   3.113   8.849 -0.3368 -0.1838 -0.3193
  343MOL0     C45151   6.350   3.240   8.874 -0.0134  0.8738  0.0797
  343MOL0     O45152   6.295   3.355   8.836 -0.4080 -0.2864  0.4692
  343MOL0     C45153   6.167   3.384   8.887 -0.7751 -0.1922  0.8189
  343MOL0     C45154   6.144   3.527   8.842  0.4208 -0.7486  0.5747
  343MOL0     C45155   5.994   3.552   8.809  0.0586 -1.1435  0.8393
  343MOL0     C45156   5.950   3.684   8.740  0.3077 -0.3468 -0.0010
  343MOL0     C45157   6.015   3.801   8.817  0.1629 -0.2765  0.2625
  343MOL0     C45158   5.973   3.816   8.958  0.0440 -0.4286  0.0075
  343MOL0     C45159   6.012   3.949   9.015 -0.1439  0.1442 -0.3735
  343MOL0     C45160   6.157   3.995   9.016 -0.9581  0.4007  0.7436
  343MOL0     N45161   6.234   3.913   9.098 -0.1897 -0.3663  0.4467
  343MOL0     C45162   6.226   3.885   9.231  0.8095  0.4210 -0.0372
  343MOL0     C45163   6.309   3.786   9.258  0.2581  0.9681 -0.4147
  343MOL0     C45164   6.327   3.718   9.390 -0.8371 -0.3883 -0.1325
  343MOL0     C45165   6.472   3.685   9.435 -0.0215 -0.3147  0.1927
  343MOL0     C45166   6.578   3.803   9.419  0.1124  0.5925 -0.5854
  343MOL0     C45167   6.727   3.764   9.424  1.1003 -0.0127 -0.3071
  343MOL0     O45168   6.832   3.863   9.458  0.1528 -0.4826  0.6072
  343MOL0     C45169   6.817   3.983   9.405  0.1729  0.0424 -0.4388
  343MOL0     C45170   6.817   3.991   9.266  0.2754 -0.5751 -0.1127
  343MOL0     C45171   6.792   4.109   9.198 -0.4202  0.3806 -0.1889
  343MOL0     C45172   6.788   4.228   9.278  0.0735  0.1036 -0.2714
  343MOL0     C45173   6.791   4.350   9.203 -0.6837  0.9311  0.2350
  343MOL0     O45174   6.824   4.338   9.060 -0.1738 -0.3964  0.5660
  343MOL0     C45175   6.783   4.433   8.967 -0.5392  0.0377  0.3145
  343MOL0     C45176   6.671   4.515   8.982 -0.1166  0.1021  0.1830
  343MOL0     C45177   6.643   4.610   8.879  0.4409  0.2181  0.7078
  343MOL0     C45178   6.713   4.607   8.757  0.1486 -0.0678  0.6453
  343MOL0     O45179   6.675   4.707   8.664  0.2439 -0.7215  0.0750
  343MOL0     C45180   6.745   4.720   8.539 -0.4284  0.9001  0.0378
  343MOL0     C45181   6.705   4.848   8.476  0.9420  0.3617  0.8542
  343MOL0     C45182   6.771   4.851   8.337  0.2543 -0.2500  0.9394
  343MOL0     C45183   6.776   4.990   8.278  0.0780  0.1275 -0.2720
  343MOL0     C45184   6.856   4.991   8.147 -0.5096  0.0696  0.4415
  343MOL0     C45185   6.891   5.123   8.086  0.3248 -0.4864  0.4085
  343MOL0     C45186   6.904   5.126   7.940  0.1834  0.3313  0.6655
  343MOL0     C45187   6.908   5.267   7.882 -0.2649 -0.4972 -0.2059
  343MOL0    Cl45188   6.744   5.322   7.880 -0.5244  0.2841  0.2872
  343MOL0     C45189   6.826   4.527   8.754  0.6612 -0.3654  0.3381
  343MOL0     C45190   6.857   4.435   8.848 -0.8394 -0.2148  0.3432
  343MOL0     O45191   6.763   4.450   9.253  0.2980 -0.4846 -0.2820
  343MOL0     C45192   6.789   4.216   9.421 -0.1315 -0.0738 -0.1277
  343MOL0     C45193   6.801   4.092   9.488 -0.3009  0.0133  0.4590
  343MOL0     N45194   6.385   3.760   9.147  0.7835 -0.1291 -1.0157
  343MOL0     N45195   6.337   3.841   9.059  0.3555 -0.2569 -0.1566
  343MOL0     C45196   6.467   3.246   8.945 -0.0109  0.3021 -0.2142
  343MOL0     C45197   6.532   3.133   9.011 -0.2662  0.9730  0.5696
  343MOL0     C45198   6.636   2.670   9.030  0.3975  0.1791 -1.0098
  343MOL0     C45199   6.617   2.534   8.993 -0.7001  0.5917  0.4388
  343MOL0     C45200   6.709   2.438   9.014  0.0743 -0.3823  0.1349
  343MOL0     C45201   6.833   2.476   9.051  0.3388 -0.6391 -1.1231
  343MOL0     O45202   6.939   2.381   9.064 -0.2694 -0.1687 -0.1881
  343MOL0     C45203   6.940   2.247   9.017 -0.2007  0.0407 -0.0897
  343MOL0     C45204   7.012   2.238   8.876  1.1536 -0.0706  0.3279
  343MOL0     C45205   6.961   2.125   8.782 -0.5214 -0.2047 -0.0616
  343MOL0     C45206   7.050   2.008   8.805  0.3982 -0.0958  0.1903
  343MOL0     C45207   7.035   1.953   8.946 -0.0338  0.4903 -0.2188
  343MOL0     C45208   7.013   1.904   9.056 -0.3107  0.2418 -0.1904
  343MOL0     C45209   6.864   2.609   9.087  0.1781 -0.4777 -0.0265
  343MOL0     C45210   6.763   2.714   9.075 -0.0966 -0.1650  0.1477
  343MOL0     H45211   6.331   2.901   8.867  1.3993 -0.5104 -0.4712
  343MOL0     H45212   6.214   3.106   8.786 -1.2471  2.4487  0.5296
  343MOL0     H45213   6.178   3.392   8.995  0.7370 -1.5507  0.7982
  343MOL0     H45214   6.092   3.313   8.851  1.1835 -0.7518 -2.6384
  343MOL0     H45215   6.213   3.550   8.760 -0.5273 -0.0454 -0.0468
  343MOL0     H45216   6.174   3.602   8.915  1.1312 -0.0722 -0.3784
  343MOL0     H45217   5.942   3.538   8.904  2.2875  1.1211  2.5248
  343MOL0     H45218   5.960   3.479   8.735  0.0612  2.4893 -3.1445
  343MOL0     H45219   5.985   3.700   8.637 -2.7294  3.7041 -0.6428
  343MOL0     H45220   5.841   3.695   8.741  0.5284  3.0598 -1.4643
  343MOL0     H45221   5.977   3.885   8.758  0.5350 -0.0897  0.2822
  343MOL0     H45222   6.125   3.803   8.818  0.1858  0.8257 -1.1810
  343MOL0     H45223   6.007   3.732   9.020 -3.2435 -1.1924  0.9467
  343MOL0     H45224   5.865   3.808   8.950  0.0325 -3.6260  1.7113
  343MOL0     H45225   5.955   4.027   8.963 -1.3275 -0.1761  0.4048
  343MOL0     H45226   5.980   3.939   9.119  1.3084  0.1764  0.0889
  343MOL0     H45227   6.163   4.098   9.053 -3.0885  1.4541 -1.5822
  343MOL0     H45228   6.193   3.993   8.913  1.1203 -0.7265  1.4346
  343MOL0     H45229   6.158   3.940   9.296  0.6471 -0.1501  0.2785
  343MOL0     H45230   6.278   3.620   9.386  1.1733 -1.4941  0.7403
  343MOL0     H45231   6.287   3.781   9.470  0.2974 -0.9674  0.9194
  343MOL0     H45232   6.505   3.594   9.384  2.4017  1.6432 -2.0291
  343MOL0     H45233   6.458   3.663   9.541 -0.2820 -1.6510 -0.1054
  343MOL0     H45234   6.559   3.858   9.326 -0.5073  2.3923  0.5432
  343MOL0     H45235   6.564   3.866   9.508  1.5348 -3.5455  2.9414
  343MOL0     H45236   6.738   3.715   9.327  2.1231 -1.1442  0.3470
  343MOL0     H45237   6.747   3.682   9.494 -0.4025  1.7825  2.3784
  343MOL0     H45238   6.826   3.904   9.203 -3.3314  0.1349 -1.8926
  343MOL0     H45239   6.788   4.096   9.090 -0.5914 -1.7121  0.0099
  343MOL0     H45240   6.613   4.513   9.074 -1.1166 -1.1354 -0.4376
  343MOL0     H45241   6.577   4.693   8.900 -0.6763 -0.6586  0.7330
  343MOL0     H45242   6.725   4.640   8.466  1.6887  1.5609 -1.3563
  343MOL0     H45243   6.854   4.723   8.552 -0.4857  0.2601  0.7186
  343MOL0     H45244   6.730   4.938   8.533  2.2664  2.0739 -2.2427
  343MOL0     H45245   6.598   4.844   8.456  1.3228 -2.7875 -1.2177
  343MOL0     H45246   6.721   4.781   8.268 -2.1072  3.3922 -1.3918
  343MOL0     H45247   6.871   4.809   8.351 -0.6265 -2.1245  1.9653
  343MOL0     H45248   6.677   5.032   8.257 -0.4144  0.8463  3.0300
  343MOL0     H45249   6.829   5.053   8.350 -0.3581  1.8482 -1.3973
  343MOL0     H45250   6.794   4.934   8.078  1.5385  1.2214 -2.5508
  343MOL0     H45251   6.951   4.939   8.158 -0.3990  0.5222  1.9681
  343MOL0     H45252   6.986   5.162   8.123  1.2597  0.2297 -2.5135
  343MOL0     H45253   6.817   5.197   8.117  0.1275 -0.5334  0.0539
  343MOL0     H45254   6.995   5.072   7.912  1.9005  2.2296  2.2448
  343MOL0     H45255   6.817   5.073   7.900  1.8453 -3.2956  1.5028
  343MOL0     H45256   6.942   5.253   7.778 -0.0458  0.8930 -0.3426
  343MOL0     H45257   6.971   5.339   7.935  2.5118 -1.3317 -2.0953
  343MOL0     H45258   6.889   4.544   8.667  2.2492  0.9311  1.6763
  343MOL0     H45259   6.950   4.379   8.852  1.8282  3.4669 -2.9298
  343MOL0     H45260   6.781   4.305   9.483  1.4551 -0.4790  0.7146
  343MOL0     H45261   6.821   4.082   9.594  1.0627 -2.7516  0.0074
  343MOL0     H45262   6.501   3.344   8.978  0.8098  1.9991 -5.3009
  343MOL0     H45263   6.620   3.139   9.074 -1.3998 -0.4794  2.3795
  343MOL0     H45264   6.519   2.502   8.960 -1.2596 -1.3920  3.5316
  343MOL0     H45265   6.678   2.336   8.992 -2.2333  0.2945 -0.0695
  343MOL0     H45266   6.836   2.213   9.015 -0.6129  1.2489 -2.3745
  343MOL0     H45267   6.999   2.194   9.092 -0.0081 -1.2484 -1.1308
  343MOL0     H45268   6.981   2.331   8.827  2.8214 -0.7301 -2.2249
  343MOL0     H45269   7.121   2.247   8.887  1.2534  2.3479 -1.5666
  343MOL0     H45270   6.966   2.159   8.679  3.5199 -0.1843 -0.0390
  343MOL0     H45271   6.858   2.092   8.796 -0.3136 -1.2394 -0.8465
  343MOL0     H45272   7.025   1.926   8.737  1.0920 -0.8496  0.8242
  343MOL0     H45273   7.154   2.041   8.799  0.4675  0.5452  3.2844
  343MOL0     H45274   6.962   1.867   9.143 -2.1045  1.6059 -0.6065
  343MOL0     H45275   6.963   2.629   9.127  0.6357  4.0279 -2.7215
  343MOL0     H45276   6.786   2.817   9.098  1.1645 -0.5595  0.7298
  344MOL0     O45277   0.750   1.906   3.988  0.5002 -0.7373 -0.5467
  344MOL0     C45278   0.776   2.003   4.054 -0.8397 -0.2358 -0.5635
  344MOL0     O45279   0.684   2.091   4.109 -0.3278 -1.1413 -0.2491
  344MOL0     C45280   0.555   2.083   4.076  0.7912 -0.1596 -0.0372
  344MOL0     C45281   0.468   2.198   4.058  0.1095  0.1949  0.0577
  344MOL0     C45282   0.334   2.185   4.041 -0.2782 -0.0197  0.6867
  344MOL0     C45283   0.274   2.055   4.044 -0.6651 -0.8353  0.4646
  344MOL0     O45284   0.140   2.025   4.033  0.3665  0.0855  0.0568
  344MOL0     C45285   0.051   2.132   3.999  0.0143  0.3884 -0.7570
  344MOL0     C45286  -0.096   2.105   3.983  0.6533  0.5273 -0.6080
  344MOL0     C45287  -0.159   2.004   4.077 -0.5684  0.4519 -0.9123
  344MOL0     C45288  -0.314   2.005   4.065 -0.4087 -0.2487  1.0402
  344MOL0     C45289  -0.368   1.880   4.136  0.3097  0.6048 -0.5329
  344MOL0     C45290  -0.519   1.895   4.148  0.7495  0.5081  0.3409
  344MOL0     C45291  -0.584   1.792   4.241  0.6882  0.1130 -0.4264
  344MOL0     C45292  -0.735   1.789   4.216 -0.8960 -0.2499 -0.6323
  344MOL0     N45293  -0.797   1.679   4.283 -0.0761 -0.2141  0.4380
  344MOL0     C45294  -0.814   1.679   4.418  0.8199 -0.1745  0.8774
  344MOL0     C45295  -0.843   1.549   4.434 -0.3995 -0.0988 -0.4164
  344MOL0     C45296  -0.866   1.498   4.571  0.4207  0.4831 -0.5644
  344MOL0     C45297  -1.007   1.526   4.605  0.5182  1.0273 -0.4220
  344MOL0     C45298  -1.039   1.457   4.741 -0.2662 -0.3858 -0.1633
  344MOL0     C45299  -1.178   1.492   4.797  0.2862 -0.1171  0.5148
  344MOL0     O45300  -1.278   1.429   4.712  0.1296 -1.2143 -1.2444
  344MOL0     C45301  -1.409   1.449   4.746 -0.2495 -0.2639 -0.0875
  344MOL0     C45302  -1.514   1.390   4.671 -0.6219 -1.1946 -1.1137
  344MOL0     C45303  -1.646   1.415   4.697  0.1489 -0.4810  0.0822
  344MOL0     C45304  -1.694   1.506   4.796 -0.5295  0.6761 -0.6986
  344MOL0     C45305  -1.831   1.546   4.795  0.5049  0.7997 -0.3333
  344MOL0     O45306  -1.865   1.637   4.888  0.0117 -0.7829  0.6189
  344MOL0     C45307  -1.987   1.707   4.868 -0.4749 -0.9391  0.4896
  344MOL0     C45308  -2.079   1.719   4.974 -0.0545  0.2901  0.0570
  344MOL0     C45309  -2.192   1.790   4.960  0.4030 -0.6107 -0.5680
  344MOL0     C45310  -2.225   1.850   4.841  1.2494  0.2244 -0.2564
  344MOL0     O45311  -2.357   1.914   4.836 -0.4259  0.0523  0.2011
  344MOL0     C45312  -2.387   1.987   4.722  0.2556 -0.5073 -0.2472
  344MOL0     C45313  -2.547   2.015   4.727  0.0859 -0.6088 -0.0302
  344MOL0     C45314  -2.595   2.128   4.825 -0.3870 -0.9791 -0.5252
  344MOL0     C45315  -2.754   2.126   4.845 -1.0683  0.6827  0.4846
  344MOL0     C45316  -2.811   2.237   4.932  0.8760 -0.4532  0.0861
  344MOL0     C45317  -2.961   2.213   4.944  0.7146 -0.2824  0.3057
  344MOL0     C45318  -3.057   2.339   4.964 -0.2457  0.8366 -0.3456
  344MOL0     C45319  -3.059   2.356   5.116  0.4048 -0.0133  0.2970
  344MOL0    Cl45320  -3.178   2.474   5.183 -0.0659  0.1439  0.1561
  344MOL0     C45321  -2.150   1.827   4.730  0.6051 -0.0437 -0.0082
  344MOL0     C45322  -2.021   1.770   4.740  0.1384 -0.5464  0.0405
  344MOL0     O45323  -1.907   1.497   4.710  0.3345  0.8606  0.6778
  344MOL0     C45324  -1.594   1.560   4.868 -0.4729  0.1980 -0.6795
  344MOL0     C45325  -1.461   1.530   4.852 -1.4980  0.7620  0.5566
  344MOL0     N45326  -0.862   1.475   4.324 -0.1235 -0.4639  0.4716
  344MOL0     N45327  -0.833   1.561   4.233 -0.3328 -0.0020  1.0160
  344MOL0     C45328   0.354   1.945   4.079 -0.4807 -0.3970  0.5542
  344MOL0     C45329   0.490   1.964   4.096  0.1336  0.2440  0.3815
  344MOL0     C45330   0.926   2.037   4.085  0.0561 -0.8140 -0.3399
  344MOL0     C45331   1.033   1.988   4.011 -0.6325 -0.0933 -0.1727
  344MOL0     C45332   1.164   2.040   4.027 -0.1167  1.0132  0.2355
  344MOL0     C45333   1.187   2.148   4.110 -0.2185 -0.5348  0.1686
  344MOL0     O45334   1.302   2.209   4.102 -0.8274 -0.3391  0.3386
  344MOL0     C45335   1.337   2.316   4.196 -0.3182  0.4017 -0.1676
  344MOL0     C45336   1.479   2.366   4.167 -0.2330  0.2416  1.5689
  344MOL0     C45337   1.530   2.482   4.253  0.1721  0.0370  0.2558
  344MOL0     C45338   1.681   2.518   4.216  0.0525  0.5111  0.0784
  344MOL0     C45339   1.770   2.407   4.226 -0.4684  0.2027 -0.0604
  344MOL0     C45340   1.862   2.327   4.246 -1.2827  0.5494  0.0557
  344MOL0     C45341   1.084   2.189   4.192  0.8379  1.1804  0.3730
  344MOL0     C45342   0.956   2.132   4.183 -0.3050  0.6996 -0.5445
  344MOL0     H45343   0.504   2.296   4.087  1.1943 -0.0154 -0.5238
  344MOL0     H45344   0.277   2.276   4.025  1.3840  0.6307 -2.3442
  344MOL0     H45345   0.086   2.179   3.906  1.6833 -2.9668 -1.9760
  344MOL0     H45346   0.063   2.198   4.085  1.8253  1.6217 -1.8823
  344MOL0     H45347  -0.132   2.084   3.882 -3.3636  1.8266  0.3877
  344MOL0     H45348  -0.146   2.199   4.007  3.6460  1.6902  1.8862
  344MOL0     H45349  -0.134   2.026   4.181 -1.5886 -0.4002 -0.4739
  344MOL0     H45350  -0.122   1.903   4.055 -2.7138 -0.6708  0.3818
  344MOL0     H45351  -0.356   2.094   4.113 -0.7146 -0.9682  2.1216
  344MOL0     H45352  -0.339   1.997   3.958  0.7673  1.4454  0.5938
  344MOL0     H45353  -0.332   1.871   4.239 -1.7193  1.6064  0.3357
  344MOL0     H45354  -0.337   1.791   4.081 -0.2367 -0.3346  0.6454
  344MOL0     H45355  -0.563   1.881   4.049 -1.0515  0.5497  1.0933
  344MOL0     H45356  -0.555   1.995   4.175 -0.9982  0.3258 -1.1021
  344MOL0     H45357  -0.530   1.698   4.224  0.9917  0.1514  0.2607
  344MOL0     H45358  -0.558   1.827   4.342 -0.8252  2.1350 -0.6748
  344MOL0     H45359  -0.760   1.776   4.110  2.5951  1.9289 -1.8873
  344MOL0     H45360  -0.778   1.887   4.242  0.5512  0.1506  0.3759
  344MOL0     H45361  -0.787   1.757   4.490  0.8186  0.5344  0.1239
  344MOL0     H45362  -0.798   1.545   4.644 -0.5309  1.8898 -0.5458
  344MOL0     H45363  -0.865   1.389   4.580  1.1270  0.5710  0.7471
  344MOL0     H45364  -1.076   1.474   4.537  0.5782 -0.2451  0.4537
  344MOL0     H45365  -1.020   1.633   4.624 -0.6034  0.5562  1.9290
  344MOL0     H45366  -1.033   1.348   4.734  0.3147 -0.6703  3.1789
  344MOL0     H45367  -0.960   1.483   4.812 -1.3058 -0.0434  0.9032
  344MOL0     H45368  -1.188   1.600   4.816 -0.8985 -0.0546 -0.3537
  344MOL0     H45369  -1.185   1.439   4.892 -2.8231 -2.7508 -0.9643
  344MOL0     H45370  -1.489   1.319   4.594  5.1550  2.1936 -2.9217
  344MOL0     H45371  -1.716   1.377   4.624 -1.6674  1.7446  0.5573
  344MOL0     H45372  -2.068   1.673   5.071 -2.5790 -0.5194  0.0358
  344MOL0     H45373  -2.267   1.797   5.038  1.6722  1.8376  0.5402
  344MOL0     H45374  -2.367   1.941   4.625 -2.4060 -1.6269 -0.3365
  344MOL0     H45375  -2.348   2.089   4.730 -0.4750 -0.2418  0.0159
  344MOL0     H45376  -2.596   1.920   4.751  1.1511 -1.9434 -2.7484
  344MOL0     H45377  -2.572   2.031   4.622  2.4905 -2.2398 -0.9218
  344MOL0     H45378  -2.565   2.221   4.774 -1.6280 -1.3213 -1.9600
  344MOL0     H45379  -2.538   2.128   4.919 -1.0698 -1.4934 -0.1035
  344MOL0     H45380  -2.798   2.127   4.745  0.1629 -0.6034 -0.1041
  344MOL0     H45381  -2.767   2.024   4.881  2.1621 -0.7424 -1.8842
  344MOL0     H45382  -2.792   2.331   4.879 -1.2331  1.8518  3.0232
  344MOL0     H45383  -2.754   2.243   5.025 -1.3022 -1.1952  1.5596
  344MOL0     H45384  -2.986   2.124   5.003 -2.7424  0.6585  0.4906
  344MOL0     H45385  -2.995   2.174   4.847 -0.3015  0.6361  0.2632
  344MOL0     H45386  -3.021   2.419   4.899  0.7973  1.0450  0.4713
  344MOL0     H45387  -3.159   2.309   4.938  0.1263 -0.4351 -0.4018
  344MOL0     H45388  -2.959   2.389   5.146  0.4763 -1.7073  2.1401
  344MOL0     H45389  -3.067   2.256   5.161  1.3958 -1.1095 -1.8117
  344MOL0     H45390  -2.179   1.852   4.629  0.3309  0.5380  0.2072
  344MOL0     H45391  -1.945   1.771   4.663 -0.5949  0.2381 -0.6971
  344MOL0     H45392  -1.631   1.629   4.943 -2.0904 -1.3207  0.0118
  344MOL0     H45393  -1.406   1.588   4.925 -0.1498  1.0765 -0.6708
  344MOL0     H45394   0.301   1.851   4.086 -1.2956  0.2063  3.9871
  344MOL0     H45395   0.549   1.890   4.149 -2.4028 -1.1033  1.5250
  344MOL0     H45396   1.012   1.910   3.939  0.8972 -1.2563  0.5895
  344MOL0     H45397   1.245   1.998   3.968 -0.9379  4.1917 -3.5476
  344MOL0     H45398   1.317   2.299   4.302 -4.1498  0.8092 -0.6867
  344MOL0     H45399   1.268   2.398   4.173 -1.9414 -1.6844 -3.4905
  344MOL0     H45400   1.541   2.276   4.177 -0.4287 -0.8212 -3.7368
  344MOL0     H45401   1.485   2.395   4.062 -0.5756 -2.1253  0.8348
  344MOL0     H45402   1.528   2.448   4.357 -0.2531 -0.4698  0.0897
  344MOL0     H45403   1.466   2.569   4.242  1.2122  0.7873  0.0358
  344MOL0     H45404   1.679   2.556   4.113 -1.3326  2.1580  0.6753
  344MOL0     H45405   1.716   2.602   4.276  2.3760 -0.0683 -0.3759
  344MOL0     H45406   1.935   2.254   4.275  2.5536  2.2341 -4.1230
  344MOL0     H45407   1.098   2.273   4.259  2.5385 -0.1158  1.7241
  344MOL0     H45408   0.879   2.154   4.257 -0.0648 -1.8786  0.5662
  345MOL0     O45409   4.671   9.386   6.500  0.0009 -0.3247  0.6426
  345MOL0     C45410   4.754   9.412   6.582  0.1590 -0.6380  0.5482
  345MOL0     O45411   4.733   9.478   6.705  0.1284 -0.8822 -0.0956
  345MOL0     C45412   4.604   9.503   6.750  0.8571  0.3436  0.5613
  345MOL0     C45413   4.511   9.398   6.749  0.4651  0.5314  0.1479
  345MOL0     C45414   4.386   9.422   6.823  0.6601  0.6786 -0.4985
  345MOL0     C45415   4.352   9.543   6.880  0.0627  1.1757 -0.2371
  345MOL0     O45416   4.242   9.551   6.965  0.7206  0.2739  0.0175
  345MOL0     C45417   4.159   9.673   6.956 -0.4001  0.5745  0.5390
  345MOL0     C45418   4.022   9.625   6.907  0.2411 -0.3873  0.1724
  345MOL0     C45419   3.937   9.749   6.926 -0.4492  0.2999  0.1231
  345MOL0     C45420   3.788   9.712   6.911  0.9611  0.2822  0.0054
  345MOL0     C45421   3.697   9.833   6.915 -0.4044  0.5851 -0.1415
  345MOL0     C45422   3.545   9.789   6.900  0.0106  1.1866  1.0727
  345MOL0     C45423   3.495   9.697   6.781  0.2732  0.3649  0.6736
  345MOL0     C45424   3.348   9.701   6.770 -0.0679 -0.5847 -0.5857
  345MOL0     N45425   3.286   9.827   6.737 -0.2540  0.1944  0.2485
  345MOL0     C45426   3.225   9.920   6.826 -0.4003 -0.8362  0.6106
  345MOL0     C45427   3.136   9.987   6.744 -0.6643 -0.4194  0.5321
  345MOL0     C45428   3.034  10.099   6.760 -0.1323 -0.8202 -0.7399
  345MOL0     C45429   2.887  10.050   6.773 -0.6406 -0.9017 -0.5179
  345MOL0     C45430   2.876   9.956   6.895 -0.6772 -0.0652  0.6521
  345MOL0     C45431   2.737   9.916   6.919 -0.7897 -0.0767  1.1141
  345MOL0     O45432   2.689  10.026   6.992  0.4127 -0.9557 -0.4782
  345MOL0     C45433   2.559   9.995   7.028 -0.3950  0.3426  0.2224
  345MOL0     C45434   2.516   9.941   7.150 -0.9007 -0.7293  0.3173
  345MOL0     C45435   2.383   9.911   7.175 -0.7901 -0.4123 -0.6760
  345MOL0     C45436   2.281   9.941   7.073  0.4368 -0.5438 -0.3360
  345MOL0     C45437   2.139   9.912   7.099 -0.2799 -0.3920 -0.6441
  345MOL0     O45438   2.116   9.863   7.222 -0.0913  0.1582 -0.1180
  345MOL0     C45439   1.990   9.859   7.262  0.7776  0.6038  0.2629
  345MOL0     C45440   1.958   9.748   7.336  0.1168  0.0177 -0.0606
  345MOL0     C45441   1.833   9.739   7.392 -0.9798  0.5084  0.0609
  345MOL0     C45442   1.744   9.835   7.380  0.4826  0.3292 -0.2714
  345MOL0     O45443   1.617   9.813   7.448  0.3301  0.1360 -0.3315
  345MOL0     C45444   1.529   9.929   7.475 -0.0272 -0.1435 -0.0511
  345MOL0     C45445   1.406   9.873   7.541 -0.1390  0.1655 -0.7808
  345MOL0     C45446   1.434   9.809   7.680 -0.4184  0.0036  0.5741
  345MOL0     C45447   1.489   9.910   7.787  0.7472  0.0948  0.2555
  345MOL0     C45448   1.474   9.868   7.926 -0.7744 -0.1290 -0.4758
  345MOL0     C45449   1.502   9.976   8.039  0.0216  0.7591  0.8934
  345MOL0     C45450   1.646  10.025   8.029  0.3059  0.4577 -0.5007
  345MOL0     C45451   1.751   9.923   8.059 -0.9651 -0.3750 -0.7454
  345MOL0    Cl45452   1.713   9.857   8.224  0.2661  0.1767  0.1994
  345MOL0     C45453   1.777   9.948   7.299  0.0015 -0.5691  0.4061
  345MOL0     C45454   1.899   9.961   7.236  0.2913 -0.2793  0.4907
  345MOL0     O45455   2.054   9.947   7.011 -0.2506  0.3492 -0.0594
  345MOL0     C45456   2.328   9.999   6.954 -0.6538 -0.8326 -0.4036
  345MOL0     C45457   2.461  10.024   6.929 -0.1221  0.0060 -0.7384
  345MOL0     N45458   3.152   9.944   6.613  0.3519 -0.4522 -1.0380
  345MOL0     N45459   3.239   9.853   6.612  0.1271  0.0621 -0.1027
  345MOL0     C45460   4.449   9.645   6.879  0.0109  0.0392  0.5479
  345MOL0     C45461   4.572   9.630   6.807 -0.9411 -0.2355  0.0173
  345MOL0     C45462   4.896   9.375   6.539 -0.8725  0.1481  0.1301
  345MOL0     C45463   5.010   9.457   6.569 -0.9973  0.1630 -0.6520
  345MOL0     C45464   5.136   9.426   6.525 -0.2562  0.6323 -0.1478
  345MOL0     C45465   5.147   9.314   6.432 -0.5651  0.1659 -0.6361
  345MOL0     O45466   5.267   9.264   6.381  0.3723 -0.0684  0.4526
  345MOL0     C45467   5.381   9.344   6.391 -0.2572 -0.8981  0.2854
  345MOL0     C45468   5.495   9.275   6.317  0.4135 -0.1185  0.1836
  345MOL0     C45469   5.628   9.342   6.344 -0.5335 -0.1686  0.8481
  345MOL0     C45470   5.683   9.284   6.480  0.8132 -0.6477 -0.7166
  345MOL0     C45471   5.806   9.354   6.527 -0.4947  0.1843  0.1025
  345MOL0     C45472   5.911   9.411   6.557  0.5376 -0.5372 -0.8056
  345MOL0     C45473   5.031   9.238   6.396 -0.4233 -0.2361 -0.8291
  345MOL0     C45474   4.910   9.265   6.455  1.0448  0.0079  1.0261
  345MOL0     H45475   4.533   9.298   6.714  0.9902  0.5539  0.4017
  345MOL0     H45476   4.314   9.344   6.844  2.3437 -0.5160  1.2474
  345MOL0     H45477   4.197   9.757   6.898 -0.5744  0.4355  0.2181
  345MOL0     H45478   4.149   9.714   7.057 -0.1187 -0.5281  1.0351
  345MOL0     H45479   3.988   9.545   6.973  1.2006 -1.2950 -0.4144
  345MOL0     H45480   4.023   9.594   6.802  2.7827 -2.4548  0.7196
  345MOL0     H45481   3.981   9.824   6.859 -0.1490  1.4058  1.5051
  345MOL0     H45482   3.946   9.788   7.028  0.7955 -0.0929  0.1809
  345MOL0     H45483   3.775   9.662   6.814  0.6568  1.6279 -0.6687
  345MOL0     H45484   3.761   9.642   6.990  2.2060  0.2455  0.4176
  345MOL0     H45485   3.712   9.895   6.826  0.9060 -1.5416 -1.4874
  345MOL0     H45486   3.717   9.881   7.011  1.3719 -0.4979  0.0851
  345MOL0     H45487   3.479   9.875   6.916 -1.1336  0.0112  2.9807
  345MOL0     H45488   3.521   9.718   6.979 -1.9021 -1.7503 -1.8725
  345MOL0     H45489   3.533   9.734   6.685  1.3577  0.0668  0.9739
  345MOL0     H45490   3.531   9.593   6.785  0.0937  0.3194  1.1121
  345MOL0     H45491   3.310   9.678   6.870 -1.3703  1.0098 -0.6706
  345MOL0     H45492   3.322   9.616   6.706 -1.5450  0.1701 -1.0386
  345MOL0     H45493   3.215   9.931   6.934 -1.0978 -0.1710  0.4834
  345MOL0     H45494   3.042  10.178   6.685  1.6366  2.5391  2.6527
  345MOL0     H45495   3.063  10.148   6.854 -1.6429  1.8905 -1.6032
  345MOL0     H45496   2.862  10.002   6.678  0.4618  2.0890 -2.4651
  345MOL0     H45497   2.830  10.140   6.798 -2.2025 -2.6500  2.8430
  345MOL0     H45498   2.921   9.860   6.869  0.1658  0.2816  0.8186
  345MOL0     H45499   2.925   9.994   6.985 -0.3587  0.7415  0.1455
  345MOL0     H45500   2.726   9.832   6.988  0.4529  1.9434  3.9547
  345MOL0     H45501   2.679   9.903   6.827 -1.5616 -3.2816  1.9323
  345MOL0     H45502   2.597   9.924   7.220 -1.5328 -2.7863  0.6238
  345MOL0     H45503   2.362   9.879   7.276 -1.5222 -1.5244 -1.1697
  345MOL0     H45504   2.035   9.677   7.366  0.8333 -0.9845 -3.6959
  345MOL0     H45505   1.801   9.657   7.455  2.1238 -3.5581 -3.1033
  345MOL0     H45506   1.507   9.991   7.388  2.5070  1.2077  0.1946
  345MOL0     H45507   1.581  10.000   7.540  2.7565 -0.9077 -1.2803
  345MOL0     H45508   1.373   9.804   7.463  0.4396 -1.5823  0.4382
  345MOL0     H45509   1.320   9.940   7.549 -1.2039 -1.2082 -0.1067
  345MOL0     H45510   1.487   9.713   7.677 -0.4691 -0.0214  0.4694
  345MOL0     H45511   1.329   9.791   7.705 -1.1202  3.5556  0.6490
  345MOL0     H45512   1.598   9.910   7.774  0.5358  0.2999 -1.8910
  345MOL0     H45513   1.448  10.010   7.774  1.5406  0.3839 -0.1374
  345MOL0     H45514   1.530   9.777   7.947  0.7504  0.6200 -1.1746
  345MOL0     H45515   1.368   9.840   7.937 -0.3844 -2.1100 -1.2058
  345MOL0     H45516   1.487   9.957   8.146 -1.6404  0.2611  0.6035
  345MOL0     H45517   1.424  10.051   8.017 -2.3994 -1.4690  1.3640
  345MOL0     H45518   1.671  10.077   7.936 -1.7241  0.0115 -1.3591
  345MOL0     H45519   1.648  10.105   8.104 -2.6131  0.2808 -0.1298
  345MOL0     H45520   1.844   9.980   8.062 -1.1866 -0.0455  0.4692
  345MOL0     H45521   1.760   9.847   7.981 -1.0563 -1.5106  0.3154
  345MOL0     H45522   1.706  10.030   7.292 -0.4349 -0.9369  0.4908
  345MOL0     H45523   1.920  10.050   7.176  3.0311 -1.7011 -0.8736
  345MOL0     H45524   2.265  10.033   6.872  2.2114  0.0501 -2.3806
  345MOL0     H45525   2.497  10.066   6.836  0.3179 -0.7503 -0.9189
  345MOL0     H45526   4.428   9.734   6.937  1.1609  0.0758  0.9331
  345MOL0     H45527   4.644   9.710   6.820 -0.5784 -1.0852  4.9735
  345MOL0     H45528   4.989   9.537   6.639 -1.8551 -0.3767 -0.2761
  345MOL0     H45529   5.224   9.486   6.548 -1.0317  2.2205 -1.1181
  345MOL0     H45530   5.416   9.356   6.494 -1.9030 -2.5852  1.1046
  345MOL0     H45531   5.355   9.438   6.340  1.9639 -0.1948  0.3359
  345MOL0     H45532   5.493   9.167   6.331 -0.6221 -0.2587 -0.8977
  345MOL0     H45533   5.468   9.292   6.212  0.3525  0.5347  0.2977
  345MOL0     H45534   5.627   9.452   6.343  0.2381 -0.1527  0.8862
  345MOL0     H45535   5.693   9.318   6.259 -2.6305 -1.1937 -0.5347
  345MOL0     H45536   5.607   9.282   6.558  0.2112 -0.8338 -1.2940
  345MOL0     H45537   5.709   9.178   6.468 -0.0964 -0.9866  0.2345
  345MOL0     H45538   6.007   9.448   6.588 -0.1331 -1.4400  2.7454
  345MOL0     H45539   5.029   9.153   6.329 -1.6459  0.8460 -2.2344
  345MOL0     H45540   4.822   9.216   6.414  2.3510  0.9433 -3.4940
  346MOL0     O45541   2.733  10.449   6.196 -0.1130 -0.0466  0.3370
  346MOL0     C45542   2.827  10.466   6.116 -0.5716  0.7611  1.3179
  346MOL0     O45543   2.838  10.407   5.994 -0.0186 -0.4767  0.0898
  346MOL0     C45544   2.748  10.320   5.939 -0.7942 -0.0470  0.3968
  346MOL0     C45545   2.615  10.313   5.976 -0.3762  0.5054  0.1220
  346MOL0     C45546   2.527  10.219   5.916  0.6820  0.3543  0.2263
  346MOL0     C45547   2.581  10.138   5.815 -1.0469 -0.4164 -0.1794
  346MOL0     O45548   2.509  10.050   5.738  0.1920  0.4360  0.0267
  346MOL0     C45549   2.410   9.961   5.811 -0.5541 -1.0373  0.0004
  346MOL0     C45550   2.395   9.829   5.734  0.6526  0.3749  0.0253
  346MOL0     C45551   2.320   9.714   5.813 -0.5126 -0.2891 -0.1185
  346MOL0     C45552   2.305   9.579   5.741 -0.1001 -0.2475  0.7890
  346MOL0     C45553   2.203   9.490   5.815  0.6663  0.5761 -0.0534
  346MOL0     C45554   2.250   9.448   5.945 -0.2984 -0.7573 -0.8475
  346MOL0     C45555   2.176   9.328   6.008  0.7589  0.0443  0.5803
  346MOL0     C45556   2.204   9.196   5.936 -0.4412 -0.2753  0.0212
  346MOL0     N45557   2.074   9.120   5.919  0.1461  0.0891  0.0125
  346MOL0     C45558   1.996   9.106   5.806 -0.1374  0.4632 -0.2338
  346MOL0     C45559   1.908   9.010   5.854 -0.2383  0.3138 -0.2848
  346MOL0     C45560   1.804   8.950   5.762  0.6481 -0.1629  1.3627
  346MOL0     C45561   1.663   8.964   5.814 -0.3198 -0.4955  0.0277
  346MOL0     C45562   1.558   8.945   5.706  0.5970 -0.5157  0.7320
  346MOL0     C45563   1.416   8.958   5.765  0.7806  0.9162 -0.0591
  346MOL0     O45564   1.382   9.095   5.799 -0.0969  0.7436 -0.4897
  346MOL0     C45565   1.255   9.121   5.838  0.8109  0.0088 -0.3624
  346MOL0     C45566   1.152   9.029   5.865  0.1439 -0.0060  0.3408
  346MOL0     C45567   1.022   9.080   5.893  1.1026  0.6321 -0.4103
  346MOL0     C45568   0.988   9.215   5.871  0.0372 -0.0334 -0.1282
  346MOL0     C45569   0.846   9.267   5.867 -0.1484  0.0362  0.1564
  346MOL0     O45570   0.821   9.401   5.834 -1.2727  0.3924  0.6143
  346MOL0     C45571   0.688   9.434   5.829 -1.2227 -0.4208 -0.0913
  346MOL0     C45572   0.636   9.474   5.707 -0.8683  0.1935 -0.2710
  346MOL0     C45573   0.505   9.530   5.708 -0.2141  0.0356  0.9615
  346MOL0     C45574   0.412   9.523   5.815 -1.6838  0.2115  0.1617
  346MOL0     O45575   0.289   9.562   5.802 -0.2871 -0.8084  0.2992
  346MOL0     C45576   0.207   9.512   5.696 -0.7541 -0.6203 -0.1123
  346MOL0     C45577   0.177   9.602   5.576  0.0068  0.2812 -0.7795
  346MOL0     C45578   0.061   9.544   5.491 -1.0772 -0.8080 -0.1732
  346MOL0     C45579  -0.081   9.605   5.503  0.4013  0.6754 -0.1057
  346MOL0     C45580  -0.180   9.526   5.415 -0.2203 -0.0161 -0.6077
  346MOL0     C45581  -0.308   9.586   5.390  0.3304  0.6580 -0.8599
  346MOL0     C45582  -0.405   9.504   5.301  0.5102  0.5092  0.2568
  346MOL0     C45583  -0.516   9.590   5.250  0.8952 -0.2113 -0.6742
  346MOL0    Cl45584  -0.606   9.505   5.122 -0.2459 -0.0476 -0.1685
  346MOL0     C45585   0.472   9.478   5.934  0.4541  0.1288  0.2686
  346MOL0     C45586   0.606   9.434   5.943 -0.4190  1.0569  0.6575
  346MOL0     O45587   0.752   9.186   5.884 -0.5118  0.5231 -0.3524
  346MOL0     C45588   1.089   9.302   5.844 -0.2231 -0.2891 -0.1892
  346MOL0     C45589   1.226   9.258   5.837  0.3205 -0.0560 -0.9952
  346MOL0     N45590   1.918   8.979   5.981 -0.2447  0.5202  0.1331
  346MOL0     N45591   2.023   9.044   6.022  0.5846 -0.1992 -0.2729
  346MOL0     C45592   2.708  10.153   5.774  0.0334  1.1388  0.3810
  346MOL0     C45593   2.797  10.236   5.843  0.0146 -0.1789 -0.6218
  346MOL0     C45594   2.935  10.561   6.161 -0.3213  0.1198 -0.2771
  346MOL0     C45595   2.898  10.669   6.243  0.3545  0.1010  0.7278
  346MOL0     C45596   2.998  10.748   6.305  0.1246  0.2819  0.1694
  346MOL0     C45597   3.129  10.737   6.271 -0.5337  0.0465 -0.8414
  346MOL0     O45598   3.220  10.836   6.313 -0.5085 -0.4765 -0.5027
  346MOL0     C45599   3.352  10.800   6.338 -0.5624  0.1684  1.0714
  346MOL0     C45600   3.448  10.920   6.357 -0.0308  0.3918 -0.1941
  346MOL0     C45601   3.445  11.029   6.235 -0.3357 -0.0485 -0.1214
  346MOL0     C45602   3.500  11.163   6.274  0.8630  0.1240 -0.4254
  346MOL0     C45603   3.427  11.232   6.381  0.4739 -0.1728  0.1479
  346MOL0     C45604   3.352  11.301   6.449 -1.0120 -0.8105  0.5107
  346MOL0     C45605   3.166  10.639   6.178  0.2708  0.4617  0.3165
  346MOL0     C45606   3.068  10.551   6.117  0.4845 -0.1377 -0.0548
  346MOL0     H45607   2.578  10.386   6.047  1.2089  0.0207  1.5184
  346MOL0     H45608   2.419  10.226   5.926 -0.0699 -1.9050 -4.0453
  346MOL0     H45609   2.319  10.020   5.794  0.7438  0.6258 -1.6803
  346MOL0     H45610   2.441   9.930   5.911  1.7312 -2.1350 -0.9682
  346MOL0     H45611   2.494   9.791   5.706  0.2573 -0.9657  0.3711
  346MOL0     H45612   2.347   9.844   5.637  0.5350  0.2284  0.0587
  346MOL0     H45613   2.218   9.749   5.827 -0.7457 -0.8073 -0.4557
  346MOL0     H45614   2.373   9.696   5.907 -1.5786 -0.6599  0.4202
  346MOL0     H45615   2.265   9.597   5.641 -0.2362 -0.8087  0.7397
  346MOL0     H45616   2.398   9.522   5.735 -0.7854 -1.3490  0.2870
  346MOL0     H45617   2.169   9.401   5.763 -2.5890 -0.7207  3.8025
  346MOL0     H45618   2.121   9.560   5.832  0.1272  0.1617 -0.9154
  346MOL0     H45619   2.262   9.538   6.007  3.3409 -1.3369 -0.4286
  346MOL0     H45620   2.354   9.412   5.943  0.5870  0.5510  4.6990
  346MOL0     H45621   2.191   9.309   6.115  0.2376 -3.2770  0.1946
  346MOL0     H45622   2.068   9.345   6.014  0.9265  1.7284 -0.6446
  346MOL0     H45623   2.273   9.133   5.993  0.6456  0.4280 -0.5063
  346MOL0     H45624   2.256   9.211   5.841 -0.8093  0.3287 -0.0895
  346MOL0     H45625   2.005   9.148   5.706 -0.1105 -1.7758 -1.2409
  346MOL0     H45626   1.819   8.842   5.750 -1.7652 -0.4695  0.5384
  346MOL0     H45627   1.799   9.004   5.667  1.7135  0.4432  1.6375
  346MOL0     H45628   1.642   9.051   5.877 -2.5410 -1.6911  1.0631
  346MOL0     H45629   1.646   8.880   5.881 -2.1234  1.4053  2.1213
  346MOL0     H45630   1.568   9.009   5.618 -0.6089 -1.3290 -0.0226
  346MOL0     H45631   1.564   8.842   5.669 -0.0246 -0.7452  1.2556
  346MOL0     H45632   1.411   8.892   5.852 -1.0030  1.3664  0.2282
  346MOL0     H45633   1.345   8.927   5.687 -1.0896  2.8699  0.7496
  346MOL0     H45634   1.171   8.922   5.872 -2.1176 -0.4313  0.5121
  346MOL0     H45635   0.945   9.008   5.915  2.5156 -0.7786  0.0875
  346MOL0     H45636   0.702   9.489   5.622 -1.6083  0.5581 -0.7930
  346MOL0     H45637   0.485   9.579   5.613  0.6410 -1.2756  0.0759
  346MOL0     H45638   0.113   9.497   5.750 -0.5606 -1.0327  0.1171
  346MOL0     H45639   0.255   9.415   5.675 -2.3643 -1.3591 -0.5245
  346MOL0     H45640   0.268   9.602   5.515  1.0006  1.2079  0.6417
  346MOL0     H45641   0.150   9.702   5.610  0.2907  1.4736 -3.6943
  346MOL0     H45642   0.053   9.436   5.511 -4.0131 -1.0770 -2.1973
  346MOL0     H45643   0.094   9.548   5.387  2.0796 -1.2175  0.7067
  346MOL0     H45644  -0.122   9.599   5.604  3.0716  0.8100  1.0748
  346MOL0     H45645  -0.075   9.713   5.483 -0.1604  0.5044 -1.2728
  346MOL0     H45646  -0.191   9.420   5.437 -0.6932 -0.0720 -1.0782
  346MOL0     H45647  -0.134   9.515   5.316 -2.1787 -0.3878 -1.5303
  346MOL0     H45648  -0.292   9.686   5.350 -2.3519  0.3110 -3.1798
  346MOL0     H45649  -0.367   9.587   5.482  2.2748 -0.1654  0.4445
  346MOL0     H45650  -0.342   9.472   5.218  0.4874 -0.5830  0.6416
  346MOL0     H45651  -0.434   9.414   5.356 -1.0413  0.0479 -1.2188
  346MOL0     H45652  -0.461   9.672   5.203 -0.0280 -0.5604 -2.4239
  346MOL0     H45653  -0.575   9.624   5.336  1.9305  2.3963 -0.8900
  346MOL0     H45654   0.417   9.469   6.027  0.7000  1.3917  0.5535
  346MOL0     H45655   0.638   9.402   6.042  0.6386  1.8961  0.6154
  346MOL0     H45656   1.072   9.409   5.831  1.2247 -0.3195 -2.9708
  346MOL0     H45657   1.302   9.334   5.822 -2.3250  3.5015  1.6596
  346MOL0     H45658   2.733  10.098   5.683 -1.0537 -0.4475  0.9899
  346MOL0     H45659   2.901  10.251   5.815 -0.2451  0.6919 -1.1521
  346MOL0     H45660   2.795  10.690   6.271 -1.7234 -1.9967 -4.2004
  346MOL0     H45661   2.947  10.821   6.367  1.3347  0.9419  0.4173
  346MOL0     H45662   3.392  10.743   6.254 -0.6233 -0.2487  1.3217
  346MOL0     H45663   3.367  10.738   6.426  3.1236  2.2015  2.0795
  346MOL0     H45664   3.411  10.957   6.453  0.8213  0.6878  0.0235
  346MOL0     H45665   3.550  10.887   6.374  0.1046 -0.2839 -2.0370
  346MOL0     H45666   3.342  11.042   6.202  0.5468  3.5344 -1.8833
  346MOL0     H45667   3.500  10.987   6.150  0.8490 -4.4223  2.4584
  346MOL0     H45668   3.599  11.153   6.320 -0.2276  0.5070  2.1798
  346MOL0     H45669   3.515  11.218   6.180  3.1932  3.2883  1.5907
  346MOL0     H45670   3.276  11.355   6.502 -0.8303 -1.5978  1.6152
  346MOL0     H45671   3.269  10.628   6.147 -0.4203 -1.5176 -1.5547
  346MOL0     H45672   3.093  10.474   6.046 -0.3813 -0.6250  0.1532
  347MOL0     O45673   0.109  10.919  10.942  0.0405  0.1029 -0.2432
  347MOL0     C45674   0.125  10.888  11.063  0.4282  0.8030  1.0163
  347MOL0     O45675   0.020  10.863  11.149 -0.0351 -0.1112  0.3369
  347MOL0     C45676  -0.111  10.887  11.101  0.4141 -0.3224  0.1389
  347MOL0     C45677  -0.169  11.011  11.118 -0.2239 -0.1942  0.8731
  347MOL0     C45678  -0.303  11.029  11.098  1.1570  0.2524  0.2380
  347MOL0     C45679  -0.375  10.930  11.025 -1.3063 -0.1082  0.2737
  347MOL0     O45680  -0.502  10.973  10.978 -0.9830 -0.0144 -0.5339
  347MOL0     C45681  -0.581  10.867  10.924  0.0418  0.2915 -0.1037
  347MOL0     C45682  -0.715  10.922  10.904  0.2081  0.4072 -0.1725
  347MOL0     C45683  -0.831  10.821  10.871  0.4490  0.7982  0.8257
  347MOL0     C45684  -0.949  10.890  10.794  0.3868 -0.0322  0.5482
  347MOL0     C45685  -1.061  10.793  10.781 -0.3986  0.5061 -0.6325
  347MOL0     C45686  -1.180  10.845  10.697  0.1184 -0.5374 -0.0402
  347MOL0     C45687  -1.291  10.740  10.696 -0.2179  0.0191 -0.3754
  347MOL0     C45688  -1.408  10.740  10.589  0.1391 -0.3196 -0.3049
  347MOL0     N45689  -1.512  10.845  10.618  0.0626  0.4150 -0.2036
  347MOL0     C45690  -1.478  10.980  10.619 -0.5350  0.3427  0.1483
  347MOL0     C45691  -1.590  11.035  10.675 -0.3111  0.0261  0.5058
  347MOL0     C45692  -1.600  11.183  10.698  0.1953  0.0566 -0.3720
  347MOL0     C45693  -1.481  11.218  10.797 -0.3373  0.3966  0.4077
  347MOL0     C45694  -1.447  11.119  10.909 -0.3203 -0.3819 -1.0673
  347MOL0     C45695  -1.339  11.170  11.001 -0.4562  0.1278 -0.0439
  347MOL0     O45696  -1.221  11.200  10.915 -0.1776  0.1681  0.5994
  347MOL0     C45697  -1.102  11.236  10.969 -0.5799 -0.2037 -0.3441
  347MOL0     C45698  -1.004  11.260  10.869 -0.3574  0.5640  0.5330
  347MOL0     C45699  -0.872  11.316  10.901  0.2542  0.0095  0.3535
  347MOL0     C45700  -0.843  11.328  11.042 -0.3664  0.3164 -0.4271
  347MOL0     C45701  -0.712  11.370  11.086 -0.0173  0.7738  0.3362
  347MOL0     O45702  -0.634  11.398  10.982 -0.4964  0.7595 -0.5112
  347MOL0     C45703  -0.495  11.399  10.997  0.2615  0.0623  0.0842
  347MOL0     C45704  -0.436  11.320  10.909  0.1984  0.6224  0.5906
  347MOL0     C45705  -0.293  11.310  10.907 -0.3032  0.4723 -0.2824
  347MOL0     C45706  -0.223  11.387  11.000  0.3058  0.3828  0.1100
  347MOL0     O45707  -0.086  11.390  11.015  0.4505  0.3904  0.2699
  347MOL0     C45708  -0.004  11.297  10.929 -0.9779 -0.1614 -0.6991
  347MOL0     C45709   0.130  11.272  11.007 -0.2933  0.0912 -0.0095
  347MOL0     C45710   0.249  11.215  10.923 -0.1383  0.6335  0.1023
  347MOL0     C45711   0.355  11.319  10.873  0.6472 -0.4158  0.9964
  347MOL0     C45712   0.456  11.267  10.765 -0.5704 -0.2603  0.9177
  347MOL0     C45713   0.565  11.361  10.723 -0.1351  0.2659 -0.5429
  347MOL0     C45714   0.499  11.491  10.649 -1.0787  0.1101 -0.2714
  347MOL0     C45715   0.603  11.562  10.564 -0.0076  0.2806 -1.1674
  347MOL0    Cl45716   0.692  11.660  10.672 -0.6480 -0.6956 -0.5789
  347MOL0     C45717  -0.293  11.456  11.097  0.4143 -0.2995 -0.7539
  347MOL0     C45718  -0.430  11.474  11.083  0.2190  0.4426  0.0036
  347MOL0     O45719  -0.680  11.374  11.204  0.7424 -0.0864 -0.5214
  347MOL0     C45720  -0.943  11.308  11.143 -0.9575 -0.6848 -0.8666
  347MOL0     C45721  -1.072  11.261  11.105 -0.0707  0.3507  0.1447
  347MOL0     N45722  -1.681  10.937  10.716 -0.5298  0.4349 -0.3564
  347MOL0     N45723  -1.628  10.821  10.683  1.0128 -0.6682 -0.4938
  347MOL0     C45724  -0.317  10.799  10.991  0.2347 -0.4496 -0.1898
  347MOL0     C45725  -0.184  10.782  11.039  0.5523  0.3991  0.2963
  347MOL0     C45726   0.261  10.837  11.115  0.5367 -0.8622 -0.8571
  347MOL0     C45727   0.336  10.779  11.017 -0.1454  0.1722 -0.5894
  347MOL0     C45728   0.470  10.741  11.046 -0.0966 -0.1493  0.2116
  347MOL0     C45729   0.517  10.751  11.175 -0.2001 -0.5604  0.2071
  347MOL0     O45730   0.647  10.710  11.192 -0.0412 -0.3980 -0.4977
  347MOL0     C45731   0.674  10.578  11.249  0.2463  0.1565 -0.4113
  347MOL0     C45732   0.670  10.593  11.404  0.2163 -0.2113  0.1363
  347MOL0     C45733   0.713  10.462  11.476 -0.2959 -0.4098 -0.1613
  347MOL0     C45734   0.860  10.411  11.450  0.9190 -0.9242 -1.3115
  347MOL0     C45735   0.961  10.519  11.438  0.2613 -0.1361 -0.2648
  347MOL0     C45736   1.039  10.608  11.414 -0.4162 -0.5045  0.6815
  347MOL0     C45737   0.446  10.808  11.271  1.5088  0.7507  0.1635
  347MOL0     C45738   0.314  10.845  11.248 -0.1542  0.2818  0.3837
  347MOL0     H45739  -0.108  11.094  11.154 -0.9641  2.3146 -3.0578
  347MOL0     H45740  -0.339  11.130  11.119  1.3615  0.3979 -0.1009
  347MOL0     H45741  -0.606  10.778  10.982 -1.7040  1.1890  0.5862
  347MOL0     H45742  -0.539  10.864  10.823 -0.3734  3.8646 -0.4997
  347MOL0     H45743  -0.708  11.004  10.831 -0.8992  1.9455  1.3900
  347MOL0     H45744  -0.744  10.957  11.003  3.1093 -0.2107  0.9892
  347MOL0     H45745  -0.875  10.778  10.962 -1.4037  0.3877 -0.2153
  347MOL0     H45746  -0.785  10.741  10.812  0.4383  1.3828  0.0107
  347MOL0     H45747  -0.987  10.983  10.838 -0.9019 -1.0898  1.7703
  347MOL0     H45748  -0.914  10.923  10.696 -0.1716  2.5435  1.1225
  347MOL0     H45749  -1.092  10.768  10.882 -0.4817  0.5938 -0.6359
  347MOL0     H45750  -1.013  10.705  10.736  0.9374  0.6241  0.5002
  347MOL0     H45751  -1.153  10.869  10.594 -0.6144 -5.6897 -1.6900
  347MOL0     H45752  -1.216  10.934  10.750  2.1467  0.0106  0.4969
  347MOL0     H45753  -1.241  10.643  10.683  0.5067  0.3032  0.2420
  347MOL0     H45754  -1.342  10.747  10.792  0.5072  1.1902 -0.0512
  347MOL0     H45755  -1.455  10.641  10.586 -2.6823  0.9616 -2.6666
  347MOL0     H45756  -1.356  10.754  10.494  0.7888 -0.0251  0.0917
  347MOL0     H45757  -1.383  11.020  10.586 -0.5331  0.3544  0.1675
  347MOL0     H45758  -1.696  11.191  10.751 -0.1416  0.7770 -1.0835
  347MOL0     H45759  -1.603  11.233  10.601  1.3462 -0.4923 -0.7052
  347MOL0     H45760  -1.522  11.313  10.832 -2.3390 -0.2158 -0.1599
  347MOL0     H45761  -1.389  11.226  10.738  0.0124 -2.2885  0.4955
  347MOL0     H45762  -1.532  11.098  10.975 -1.7849  0.4814 -2.6223
  347MOL0     H45763  -1.411  11.024  10.867  1.5897  0.5071 -1.5547
  347MOL0     H45764  -1.305  11.091  11.068  2.0841  0.9202 -0.2867
  347MOL0     H45765  -1.378  11.260  11.051 -3.3716 -0.7111 -0.5938
  347MOL0     H45766  -1.043  11.261  10.768 -0.8994 -3.1131  0.5857
  347MOL0     H45767  -0.799  11.351  10.828  0.8197  0.5788  1.1760
  347MOL0     H45768  -0.508  11.274  10.842  1.9589  0.4028 -1.2533
  347MOL0     H45769  -0.247  11.245  10.834 -2.0178  0.5270 -1.4518
  347MOL0     H45770   0.011  11.344  10.831 -3.7284  1.1920 -0.5694
  347MOL0     H45771  -0.053  11.200  10.929 -0.7920 -0.2966  1.2431
  347MOL0     H45772   0.113  11.195  11.082  0.7878  0.2838  0.4667
  347MOL0     H45773   0.168  11.357  11.064  3.0727 -0.3667 -1.2918
  347MOL0     H45774   0.210  11.175  10.830 -1.4195  0.0047  0.8879
  347MOL0     H45775   0.300  11.135  10.977 -2.1830 -0.5128  0.4462
  347MOL0     H45776   0.299  11.400  10.827  2.4903  0.4893  0.2250
  347MOL0     H45777   0.419  11.360  10.953  2.2214 -0.2479 -0.2897
  347MOL0     H45778   0.408  11.245  10.669  2.5130 -0.1183 -0.8043
  347MOL0     H45779   0.503  11.176  10.803  3.1391  1.4505  0.9005
  347MOL0     H45780   0.623  11.301  10.652  1.2725 -1.4196  1.8883
  347MOL0     H45781   0.641  11.387  10.798  2.5553  1.3652 -3.4279
  347MOL0     H45782   0.421  11.457  10.581 -1.1713  1.1444 -0.7046
  347MOL0     H45783   0.454  11.559  10.722  0.1354  1.1411 -0.4363
  347MOL0     H45784   0.557  11.616  10.480 -0.9766  1.3804  0.0230
  347MOL0     H45785   0.665  11.482  10.523 -0.4678 -1.5438  1.4705
  347MOL0     H45786  -0.246  11.511  11.177  0.7966  1.9025 -2.4109
  347MOL0     H45787  -0.483  11.544  11.148 -1.2237  0.6027 -1.2838
  347MOL0     H45788  -0.931  11.327  11.249 -0.6476 -2.8176 -0.4695
  347MOL0     H45789  -1.149  11.256  11.182 -0.7306 -0.7526 -0.5640
  347MOL0     H45790  -0.373  10.718  10.944  0.4291 -0.5820 -0.1932
  347MOL0     H45791  -0.130  10.688  11.039  2.8940  1.6646 -0.9502
  347MOL0     H45792   0.304  10.778  10.913  2.6169  1.2488 -1.5457
  347MOL0     H45793   0.529  10.676  10.981 -0.4950  0.7970 -1.1423
  347MOL0     H45794   0.765  10.526  11.217 -1.8589 -3.3407 -1.2834
  347MOL0     H45795   0.589  10.515  11.222 -0.9792  2.9447 -3.7769
  347MOL0     H45796   0.736  10.674  11.436  1.8645  0.1441 -3.6407
  347MOL0     H45797   0.571  10.622  11.441  0.8357  2.4184 -0.0751
  347MOL0     H45798   0.646  10.379  11.449 -0.5098 -0.7355  1.3038
  347MOL0     H45799   0.697  10.487  11.581 -2.0114  2.1281 -0.9377
  347MOL0     H45800   0.897  10.338  11.522  2.4770  1.8350  0.9196
  347MOL0     H45801   0.859  10.365  11.351  2.1432 -1.1259 -1.2458
  347MOL0     H45802   1.118  10.666  11.371 -1.0312 -1.1108 -1.4111
  347MOL0     H45803   0.488  10.823  11.370  0.1070  0.0824  0.8822
  347MOL0     H45804   0.252  10.883  11.330 -2.9055 -2.1069 -0.4035
  348MOL0     O45805   0.876   9.734   0.506  0.3658 -0.3365 -0.0396
  348MOL0     C45806   0.847   9.836   0.578 -0.2417  0.5129  0.1263
  348MOL0     O45807   0.931   9.927   0.637 -0.2371 -0.1488 -0.1057
  348MOL0     C45808   1.063   9.910   0.616  0.4281  0.5031  0.3360
  348MOL0     C45809   1.129   9.844   0.721 -0.3637  0.1122 -0.7103
  348MOL0     C45810   1.263   9.805   0.711  0.1093  0.7899 -0.1412
  348MOL0     C45811   1.332   9.826   0.597 -0.5160  0.2517  1.1222
  348MOL0     O45812   1.459   9.784   0.599  0.1049  0.8869  0.0647
  348MOL0     C45813   1.523   9.712   0.490 -0.1558 -0.9975 -0.0063
  348MOL0     C45814   1.654   9.782   0.460  0.7502 -0.7078  0.4269
  348MOL0     C45815   1.621   9.899   0.376  0.4057  0.3956  0.3369
  348MOL0     C45816   1.751   9.973   0.345  0.4832  0.3171 -0.6205
  348MOL0     C45817   1.713  10.106   0.286 -0.3124 -0.6462 -0.9262
  348MOL0     C45818   1.807  10.159   0.179 -0.0491  0.2773 -0.2992
  348MOL0     C45819   1.945  10.190   0.241 -0.9775  0.9186 -0.1639
  348MOL0     C45820   1.932  10.298   0.356 -0.5425  1.0003 -0.2546
  348MOL0     N45821   2.068  10.343   0.398  0.8475  1.2296  0.1899
  348MOL0     C45822   2.169  10.268   0.458 -0.0315  0.5175 -0.3169
  348MOL0     C45823   2.269  10.349   0.480  1.2339 -0.8850  0.2636
  348MOL0     C45824   2.396  10.291   0.536 -0.1582  0.3826  0.3455
  348MOL0     C45825   2.523  10.305   0.448  0.1976 -0.2595 -0.3645
  348MOL0     C45826   2.506  10.260   0.300 -0.2669 -0.0316 -0.2054
  348MOL0     C45827   2.517  10.112   0.281  0.2676  0.8470 -0.3321
  348MOL0     O45828   2.403  10.039   0.343 -0.1304 -0.1137  0.0299
  348MOL0     C45829   2.290   9.999   0.272 -0.2998 -0.4570 -0.4739
  348MOL0     C45830   2.270  10.011   0.135 -1.3185  0.7218 -0.3898
  348MOL0     C45831   2.168   9.942   0.067  0.3480  0.1144  0.5279
  348MOL0     C45832   2.088   9.850   0.140 -0.4299  0.2080 -0.1365
  348MOL0     C45833   1.980   9.771   0.068  1.1470 -0.0371 -0.0679
  348MOL0     O45834   1.907   9.693   0.140 -0.0568  0.7376  0.2530
  348MOL0     C45835   1.780   9.656   0.099  0.0055 -0.3454 -0.5371
  348MOL0     C45836   1.689   9.750   0.052  1.0157  0.2014  0.0468
  348MOL0     C45837   1.551   9.717   0.031 -0.2853  0.1295 -0.3246
  348MOL0     C45838   1.506   9.592   0.069 -0.1608 -0.5727 -0.6588
  348MOL0     O45839   1.378   9.551   0.051 -0.3264 -0.3750  0.5388
  348MOL0     C45840   1.263   9.636   0.052 -0.0389  0.4899  0.8021
  348MOL0     C45841   1.151   9.538   0.081  0.6118  0.4645 -1.0551
  348MOL0     C45842   1.096   9.552   0.227 -0.3924 -0.5306 -0.0121
  348MOL0     C45843   1.196   9.514   0.339 -0.0404 -1.5352 -0.7715
  348MOL0     C45844   1.232   9.371   0.363 -0.4321 -0.2032 -0.3790
  348MOL0     C45845   1.103   9.308   0.430  0.7381  0.0139  0.2825
  348MOL0     C45846   1.118   9.158   0.441  0.4824 -0.0886  0.6307
  348MOL0     C45847   1.121   9.080   0.309 -0.9296 -0.4138  0.2515
  348MOL0    Cl45848   1.085   8.907   0.327 -0.2466 -0.0657  0.1036
  348MOL0     C45849   1.596   9.500   0.134 -0.5812 -0.0335  0.3301
  348MOL0     C45850   1.734   9.529   0.143 -0.5670  0.3164  0.3101
  348MOL0     O45851   1.974   9.782  -0.053 -0.6314 -0.4252  0.3818
  348MOL0     C45852   2.104   9.852   0.278  0.3882 -0.0216 -0.4045
  348MOL0     C45853   2.197   9.930   0.350  0.2770 -0.7190  0.3109
  348MOL0     N45854   2.239  10.478   0.428 -0.5906 -0.3424 -0.1007
  348MOL0     N45855   2.111  10.472   0.398 -0.5374  0.1893  0.3924
  348MOL0     C45856   1.258   9.877   0.482  0.0558 -0.3046  0.3010
  348MOL0     C45857   1.127   9.923   0.493 -0.5013 -1.0022 -0.8806
  348MOL0     C45858   0.705   9.849   0.623 -0.0200 -1.1132 -0.8729
  348MOL0     C45859   0.610   9.779   0.549 -0.7387  1.1863 -0.6420
  348MOL0     C45860   0.478   9.794   0.581 -0.0299  0.6172  0.0624
  348MOL0     C45861   0.428   9.870   0.689 -0.5933 -0.7635  0.2070
  348MOL0     O45862   0.299   9.907   0.703  0.0878  0.4031  0.8663
  348MOL0     C45863   0.201   9.864   0.612  0.1646  0.6486 -0.7467
  348MOL0     C45864   0.180   9.717   0.657 -0.5686 -0.1832  0.1663
  348MOL0     C45865   0.040   9.668   0.600  0.5986  0.9046 -0.4179
  348MOL0     C45866   0.045   9.517   0.616 -0.2691 -0.3550  0.2312
  348MOL0     C45867  -0.091   9.476   0.613  0.3706 -0.1342  0.1712
  348MOL0     C45868  -0.204   9.433   0.621  0.0724 -0.4806 -0.1876
  348MOL0     C45869   0.526   9.926   0.773  0.1978 -0.3648 -1.1930
  348MOL0     C45870   0.666   9.916   0.741  0.1897  0.4925  0.0184
  348MOL0     H45871   1.073   9.807   0.806 -0.3930 -0.8807 -1.1529
  348MOL0     H45872   1.303   9.748   0.795 -0.6554  0.4073 -0.0250
  348MOL0     H45873   1.461   9.715   0.400  2.6231  1.1443 -2.0201
  348MOL0     H45874   1.539   9.607   0.516 -1.5546 -0.5563  3.0961
  348MOL0     H45875   1.713   9.707   0.406 -0.6712 -0.5679 -1.4407
  348MOL0     H45876   1.698   9.799   0.558  2.8342 -0.7858 -0.4254
  348MOL0     H45877   1.550   9.962   0.432 -1.8382  0.4173 -2.3267
  348MOL0     H45878   1.577   9.868   0.281  1.7457 -1.9641  0.4177
  348MOL0     H45879   1.815   9.977   0.433 -1.1636  2.3572  0.5666
  348MOL0     H45880   1.796   9.918   0.261 -0.0452 -0.2006 -0.5745
  348MOL0     H45881   1.708  10.183   0.364  2.9669 -0.8509 -0.3735
  348MOL0     H45882   1.613  10.101   0.241 -1.1800 -3.6493  1.0276
  348MOL0     H45883   1.766  10.257   0.152 -3.8024 -1.6228 -2.3510
  348MOL0     H45884   1.807  10.089   0.095  2.4582 -2.6423  1.9048
  348MOL0     H45885   1.986  10.104   0.296 -0.1240  1.5460  0.1993
  348MOL0     H45886   2.011  10.228   0.163  1.4251  0.8555  1.6994
  348MOL0     H45887   1.892  10.256   0.449  3.5549 -2.7795  0.1425
  348MOL0     H45888   1.872  10.385   0.330 -0.0797  1.4923  0.2904
  348MOL0     H45889   2.162  10.161   0.478 -0.0631  0.5319 -0.2506
  348MOL0     H45890   2.394  10.184   0.559  1.1639  0.6278  1.7981
  348MOL0     H45891   2.417  10.346   0.629 -0.3657 -1.0964  1.2974
  348MOL0     H45892   2.594  10.232   0.488  0.6624 -1.1440 -2.6558
  348MOL0     H45893   2.559  10.408   0.456 -3.6116  1.1339  1.2969
  348MOL0     H45894   2.414  10.304   0.261 -0.7994 -2.1216 -1.4692
  348MOL0     H45895   2.584  10.301   0.237 -0.2827 -0.0194 -0.2169
  348MOL0     H45896   2.598  10.065   0.336 -1.6032 -2.0075  0.1935
  348MOL0     H45897   2.535  10.087   0.176  1.7810  2.3095 -0.4650
  348MOL0     H45898   2.343  10.065   0.075  0.4434 -1.6206 -0.5491
  348MOL0     H45899   2.162   9.955  -0.040  1.4036  1.1727  0.5786
  348MOL0     H45900   1.729   9.848   0.031  1.5820  0.5070  2.3507
  348MOL0     H45901   1.481   9.788  -0.012 -0.5830 -0.4729 -0.8443
  348MOL0     H45902   1.230   9.688  -0.039 -3.3691  0.4522  1.8347
  348MOL0     H45903   1.265   9.703   0.138  1.2515  3.1967 -1.1863
  348MOL0     H45904   1.181   9.434   0.067 -0.9923  0.0009 -1.1844
  348MOL0     H45905   1.074   9.546   0.003  1.1917 -0.9387 -1.8213
  348MOL0     H45906   1.013   9.482   0.241  0.7784 -1.7564  1.0910
  348MOL0     H45907   1.054   9.652   0.243 -0.9049 -0.8454  0.6569
  348MOL0     H45908   1.290   9.569   0.324 -0.1892 -1.6830 -2.4631
  348MOL0     H45909   1.155   9.552   0.432  3.4902 -1.3973  0.9057
  348MOL0     H45910   1.318   9.358   0.429 -2.3305  0.6891  2.4633
  348MOL0     H45911   1.256   9.325   0.267 -2.2068 -1.2721 -0.3466
  348MOL0     H45912   1.014   9.340   0.374 -1.0580  0.0092  2.9353
  348MOL0     H45913   1.079   9.346   0.530 -1.6210  0.1579 -0.2805
  348MOL0     H45914   1.207   9.145   0.503  1.2332  2.5909  0.2426
  348MOL0     H45915   1.036   9.114   0.498 -1.7259  1.8357 -0.8341
  348MOL0     H45916   1.226   9.097   0.282  0.5108 -0.6188  4.8391
  348MOL0     H45917   1.063   9.126   0.229  0.5997  0.3133 -0.4801
  348MOL0     H45918   1.548   9.404   0.141 -1.4360  0.2715 -1.0079
  348MOL0     H45919   1.803   9.455   0.183 -0.4410  1.3971  2.2460
  348MOL0     H45920   2.042   9.785   0.337  1.6129 -1.1878 -0.3746
  348MOL0     H45921   2.208   9.925   0.458  4.1222  2.7581  0.3528
  348MOL0     H45922   1.312   9.902   0.391 -0.4440  0.0665  0.1005
  348MOL0     H45923   1.062   9.969   0.420 -2.0437  0.5837  1.3391
  348MOL0     H45924   0.642   9.706   0.475  3.4988  2.5582 -0.4107
  348MOL0     H45925   0.414   9.728   0.523  1.1300  1.1408 -1.9379
  348MOL0     H45926   0.229   9.860   0.506 -3.4001 -2.3820 -1.8174
  348MOL0     H45927   0.109   9.922   0.622  0.5262  0.9323  1.3545
  348MOL0     H45928   0.263   9.648   0.641  1.2851  1.5878  1.7217
  348MOL0     H45929   0.159   9.724   0.764  2.2569 -1.8176  0.9020
  348MOL0     H45930   0.012   9.690   0.497  0.9662 -0.9732 -0.9618
  348MOL0     H45931  -0.045   9.709   0.655 -0.5973 -1.6229 -0.2296
  348MOL0     H45932   0.100   9.503   0.522 -0.3691  3.0704 -0.4615
  348MOL0     H45933   0.108   9.486   0.700  1.3489  0.1012 -0.7724
  348MOL0     H45934  -0.304   9.394   0.632  0.4667 -2.0377 -1.6284
  348MOL0     H45935   0.497  10.002   0.845  0.7412 -0.9705 -0.3171
  348MOL0     H45936   0.739   9.965   0.805  0.1375  1.5738 -0.7371
  349MOL0     O45937   8.713   4.704   7.830 -0.2820 -0.3875 -0.0218
  349MOL0     C45938   8.755   4.676   7.939  0.3561 -0.1800  0.1821
  349MOL0     O45939   8.719   4.747   8.054  0.1614  0.1048 -0.0116
  349MOL0     C45940   8.652   4.871   8.049 -0.1845 -0.1037 -0.5545
  349MOL0     C45941   8.591   4.920   8.166 -0.3544  0.4612  0.0737
  349MOL0     C45942   8.514   5.032   8.182  0.6578  0.2934 -0.4983
  349MOL0     C45943   8.488   5.103   8.069 -0.3341 -1.0807 -0.1124
  349MOL0     O45944   8.419   5.220   8.097 -1.4493  0.0182 -0.3891
  349MOL0     C45945   8.322   5.256   7.998 -0.2666 -0.3365  0.3626
  349MOL0     C45946   8.255   5.382   8.054 -0.3238  0.1451  0.6830
  349MOL0     C45947   8.288   5.492   7.949  0.7335  0.0370  0.7146
  349MOL0     C45948   8.215   5.634   7.991 -0.0069  0.2677 -0.4919
  349MOL0     C45949   8.243   5.741   7.881  0.4193  0.1584  0.0796
  349MOL0     C45950   8.167   5.868   7.888  0.2311  0.3870 -0.1148
  349MOL0     C45951   8.223   5.979   7.800 -0.3697  0.2112  0.1269
  349MOL0     C45952   8.186   6.122   7.844 -0.7854  1.0464  0.6223
  349MOL0     N45953   8.037   6.143   7.825 -1.3769  0.6977 -0.0212
  349MOL0     C45954   7.954   6.164   7.923 -0.1416 -0.1390  0.2494
  349MOL0     C45955   7.840   6.202   7.861  0.0972 -0.3191  0.6305
  349MOL0     C45956   7.717   6.245   7.931 -0.5855  0.1039  0.6989
  349MOL0     C45957   7.613   6.136   7.921 -0.7256 -0.3720  0.4147
  349MOL0     C45958   7.470   6.208   7.915  0.5927 -0.0113  0.2232
  349MOL0     C45959   7.439   6.276   7.782  0.2026 -0.5738  0.8401
  349MOL0     O45960   7.346   6.394   7.806  0.3786 -0.1336 -0.0347
  349MOL0     C45961   7.258   6.440   7.701 -0.5666  0.6746  0.3280
  349MOL0     C45962   7.301   6.434   7.572 -0.1281  0.6275 -0.7571
  349MOL0     C45963   7.235   6.492   7.467 -0.6791 -0.2733 -0.0834
  349MOL0     C45964   7.111   6.553   7.499 -0.1604 -0.3806 -0.0677
  349MOL0     C45965   7.035   6.618   7.386  0.4501  0.2907  0.9440
  349MOL0     O45966   6.912   6.681   7.414 -0.0301  0.8381 -0.1164
  349MOL0     C45967   6.831   6.751   7.330  1.0837 -0.4772 -0.2656
  349MOL0     C45968   6.853   6.802   7.200 -0.0767  0.5678  0.3844
  349MOL0     C45969   6.745   6.866   7.135  0.3744 -0.0427 -0.9349
  349MOL0     C45970   6.622   6.881   7.191 -0.1979 -0.8909 -0.5251
  349MOL0     O45971   6.522   6.945   7.127 -0.0249 -0.4387  0.1091
  349MOL0     C45972   6.536   7.014   6.998 -1.1266 -0.7737  0.2669
  349MOL0     C45973   6.410   7.080   6.961 -0.4499 -0.7017 -0.6710
  349MOL0     C45974   6.379   7.191   7.060  0.5329 -0.1416 -0.3776
  349MOL0     C45975   6.270   7.272   6.989 -0.9590 -0.7228 -0.1868
  349MOL0     C45976   6.196   7.376   7.075 -0.1750 -1.1998  0.0455
  349MOL0     C45977   6.077   7.431   6.994  0.9423 -0.3173  0.2079
  349MOL0     C45978   6.013   7.567   7.060  0.7360  0.6679 -0.2684
  349MOL0     C45979   5.880   7.593   6.999  0.0759 -0.3905 -0.3715
  349MOL0    Cl45980   5.808   7.745   7.065 -0.2762  0.0313  0.3610
  349MOL0     C45981   6.615   6.858   7.326  1.2135 -0.8634 -0.4036
  349MOL0     C45982   6.714   6.792   7.396 -0.2782  0.5677 -0.8540
  349MOL0     O45983   7.085   6.624   7.274 -0.4479  0.0000 -0.3225
  349MOL0     C45984   7.067   6.570   7.630  0.7926 -0.0276  0.4106
  349MOL0     C45985   7.152   6.516   7.731  0.3993 -0.4231 -0.4912
  349MOL0     N45986   7.857   6.183   7.723  0.3182 -0.1441  0.0123
  349MOL0     N45987   7.973   6.147   7.702  0.3163 -0.7077 -0.0201
  349MOL0     C45988   8.546   5.072   7.948 -0.2587  0.0772  0.3926
  349MOL0     C45989   8.627   4.958   7.939 -0.6008 -0.8346 -0.9670
  349MOL0     C45990   8.835   4.550   7.950 -0.2246 -0.4899  0.2510
  349MOL0     C45991   8.869   4.464   7.841  0.0093 -0.2827 -0.6260
  349MOL0     C45992   8.967   4.371   7.856 -0.2151  0.2752  0.7362
  349MOL0     C45993   9.040   4.360   7.973  0.6206 -0.1280 -0.4999
  349MOL0     O45994   9.147   4.271   7.953 -0.3948 -0.0690 -0.0521
  349MOL0     C45995   9.233   4.240   8.066  0.4132  0.5324 -0.9956
  349MOL0     C45996   9.324   4.111   8.043  0.1237 -0.5427 -0.8061
  349MOL0     C45997   9.409   4.079   8.161 -0.2149 -0.0752 -0.1215
  349MOL0     C45998   9.457   3.938   8.182  0.6793 -0.4801  0.6828
  349MOL0     C45999   9.534   3.933   8.308 -0.1237 -0.6104 -0.6672
  349MOL0     C46000   9.574   3.919   8.423 -0.0891 -0.5255  1.3069
  349MOL0     C46001   9.007   4.454   8.079 -0.5534  0.5399  0.9613
  349MOL0     C46002   8.908   4.542   8.068 -0.2950 -0.6334  0.6685
  349MOL0     H46003   8.600   4.863   8.258 -0.4151  3.6576  2.2227
  349MOL0     H46004   8.487   5.059   8.283  1.2122 -1.5615  0.1855
  349MOL0     H46005   8.251   5.173   7.985 -0.4760 -0.0036 -0.6839
  349MOL0     H46006   8.364   5.276   7.899 -0.5620  2.3150  0.7012
  349MOL0     H46007   8.289   5.417   8.153  2.5909  2.6269 -1.0165
  349MOL0     H46008   8.148   5.360   8.048  0.3659 -3.8819  0.1538
  349MOL0     H46009   8.252   5.456   7.852 -1.8264 -0.8007  1.9042
  349MOL0     H46010   8.396   5.511   7.946  0.7451 -0.0634  0.4326
  349MOL0     H46011   8.108   5.615   7.986 -0.3621  2.0590 -0.2539
  349MOL0     H46012   8.230   5.671   8.093 -3.4856  0.1252  0.1755
  349MOL0     H46013   8.229   5.686   7.787 -1.0927 -3.6134  2.2727
  349MOL0     H46014   8.345   5.781   7.874  0.5853 -0.1429  0.6725
  349MOL0     H46015   8.173   5.908   7.990  1.5048  1.3314 -0.5405
  349MOL0     H46016   8.060   5.854   7.869 -0.2943  1.9759  1.4091
  349MOL0     H46017   8.333   5.976   7.797 -0.2776  1.1804 -4.3398
  349MOL0     H46018   8.193   5.965   7.696  2.5324 -1.4150 -0.6254
  349MOL0     H46019   8.247   6.189   7.783 -0.7358  0.4360 -0.0070
  349MOL0     H46020   8.208   6.141   7.950 -1.8712 -1.0355  1.2864
  349MOL0     H46021   7.986   6.162   8.026  3.1227 -2.0820 -0.6494
  349MOL0     H46022   7.699   6.337   7.875 -0.4603 -0.5645 -0.4769
  349MOL0     H46023   7.740   6.266   8.036  1.5545  3.1570 -0.2569
  349MOL0     H46024   7.607   6.095   8.022  0.7687 -2.5313 -0.3081
  349MOL0     H46025   7.631   6.054   7.851  0.2704 -1.4262  1.8434
  349MOL0     H46026   7.396   6.128   7.930 -0.6525  0.4611 -2.6950
  349MOL0     H46027   7.456   6.275   8.000 -1.1772  3.8009 -2.7959
  349MOL0     H46028   7.399   6.206   7.708  4.2109 -2.0023 -0.1761
  349MOL0     H46029   7.534   6.316   7.746  0.6291  0.4548  2.8972
  349MOL0     H46030   7.402   6.396   7.557  1.0474  1.6700  3.3116
  349MOL0     H46031   7.282   6.490   7.369 -2.8145 -1.3346 -1.1588
  349MOL0     H46032   6.944   6.780   7.144 -0.4210  2.2728 -0.9396
  349MOL0     H46033   6.755   6.911   7.037  0.8815  2.0779  0.0235
  349MOL0     H46034   6.563   6.948   6.915 -2.3847 -1.5288  0.4388
  349MOL0     H46035   6.606   7.095   7.018  1.0089 -2.7352  1.3268
  349MOL0     H46036   6.336   7.002   6.940  1.0959 -2.2864 -0.4548
  349MOL0     H46037   6.438   7.131   6.869 -0.6318  1.0941  0.2233
  349MOL0     H46038   6.463   7.257   7.083  0.5174  0.9977 -3.2015
  349MOL0     H46039   6.331   7.155   7.151 -0.7122  0.5517 -0.7345
  349MOL0     H46040   6.305   7.312   6.893  1.7876 -1.3117  0.4674
  349MOL0     H46041   6.190   7.203   6.965 -1.5428  0.0326 -0.4627
  349MOL0     H46042   6.268   7.450   7.110  0.5066 -0.4395 -2.6988
  349MOL0     H46043   6.158   7.329   7.166 -1.7412 -0.1426 -0.0290
  349MOL0     H46044   6.008   7.347   6.981  0.8573 -0.1520 -0.4445
  349MOL0     H46045   6.104   7.463   6.893  6.0427  0.1710  1.4555
  349MOL0     H46046   6.011   7.537   7.165  3.3145 -1.3683 -0.6747
  349MOL0     H46047   6.073   7.656   7.041  1.4643  0.3833  0.6465
  349MOL0     H46048   5.819   7.503   7.013 -1.8182  0.8727 -0.1395
  349MOL0     H46049   5.892   7.623   6.894  4.8627  1.1000  0.3655
  349MOL0     H46050   6.520   6.880   7.375  0.0007 -1.9869 -2.1102
  349MOL0     H46051   6.690   6.758   7.496 -1.8790  1.8695 -0.7496
  349MOL0     H46052   6.985   6.635   7.659  2.2101  1.3478  1.5592
  349MOL0     H46053   7.127   6.538   7.834 -0.2143  2.2409 -1.1164
  349MOL0     H46054   8.541   5.140   7.863  0.0697 -2.0856 -1.4658
  349MOL0     H46055   8.679   4.943   7.845  1.8444 -0.7400  0.2835
  349MOL0     H46056   8.826   4.497   7.747 -0.4295  0.3739 -0.1966
  349MOL0     H46057   8.992   4.298   7.780 -1.2663 -3.6955  3.8753
  349MOL0     H46058   9.168   4.230   8.153  1.3763  1.9613 -0.0691
  349MOL0     H46059   9.297   4.328   8.075  1.6651 -0.2907 -1.6517
  349MOL0     H46060   9.264   4.025   8.011  0.9194 -1.5347  0.2879
  349MOL0     H46061   9.384   4.131   7.953  0.1548 -2.7918 -1.3455
  349MOL0     H46062   9.356   4.113   8.250  0.2281 -0.5198  0.3231
  349MOL0     H46063   9.497   4.144   8.151 -0.4588  0.3325  0.3800
  349MOL0     H46064   9.373   3.869   8.186  0.8757 -0.7111  3.8242
  349MOL0     H46065   9.527   3.904   8.105 -2.0208  1.6231 -3.0092
  349MOL0     H46066   9.607   3.883   8.519  0.0956 -1.3419  0.9448
  349MOL0     H46067   9.082   4.462   8.157  1.4296  2.5936 -0.9736
  349MOL0     H46068   8.896   4.613   8.150 -0.5978  1.3166 -0.9859
  350MOL0     O46069   8.990   5.493  11.056  0.1206 -0.7681 -0.1422
  350MOL0     C46070   8.990   5.516  11.176  0.7803  0.6421  0.0414
  350MOL0     O46071   8.893   5.580  11.243  0.3909 -0.0923 -0.0767
  350MOL0     C46072   8.763   5.600  11.190 -0.8191 -0.1661 -0.5746
  350MOL0     C46073   8.741   5.657  11.063 -0.6115 -0.1101 -1.6304
  350MOL0     C46074   8.609   5.687  11.033  0.0926  1.1632 -0.1639
  350MOL0     C46075   8.499   5.659  11.122 -0.8939 -0.0276  1.3797
  350MOL0     O46076   8.371   5.696  11.083  0.4125 -0.0230 -0.0424
  350MOL0     C46077   8.276   5.718  11.184  0.7127 -0.4512  0.7019
  350MOL0     C46078   8.155   5.780  11.126  0.4943  1.0713 -0.2738
  350MOL0     C46079   8.086   5.684  11.029 -0.1295 -0.7688  0.3746
  350MOL0     C46080   7.950   5.744  10.991 -0.2540  0.1268  1.0979
  350MOL0     C46081   7.862   5.638  10.915 -0.1882  0.5340 -0.6645
  350MOL0     C46082   7.746   5.697  10.833  0.0259 -0.6323  0.0534
  350MOL0     C46083   7.641   5.591  10.792  0.2350  1.2041  0.6586
  350MOL0     C46084   7.549   5.650  10.672 -0.5092  0.6751 -0.5385
  350MOL0     N46085   7.423   5.720  10.713  0.6462  0.1358  0.7149
  350MOL0     C46086   7.383   5.792  10.828 -0.0357  0.2312  0.0500
  350MOL0     C46087   7.256   5.831  10.812  0.9512  0.0087 -0.1634
  350MOL0     C46088   7.176   5.912  10.910 -0.7603  0.0541 -0.6069
  350MOL0     C46089   7.232   5.896  11.053 -0.6340 -0.8364  0.0616
  350MOL0     C46090   7.135   5.965  11.142  0.1889 -0.0792 -1.0125
  350MOL0     C46091   7.194   5.986  11.281 -0.0017 -0.1272  0.6798
  350MOL0     O46092   7.105   6.065  11.361 -0.0044 -0.2350 -0.3615
  350MOL0     C46093   7.016   5.998  11.441  0.4484  0.3399  0.8344
  350MOL0     C46094   6.909   6.072  11.483  0.0659  0.0708  0.4316
  350MOL0     C46095   6.801   6.032  11.557 -0.2931 -0.8882  0.2529
  350MOL0     C46096   6.807   5.899  11.604 -0.1660 -1.0147 -0.8831
  350MOL0     C46097   6.695   5.852  11.685 -0.3153  0.2352  0.0840
  350MOL0     O46098   6.584   5.934  11.694  1.1140 -0.6940 -0.4284
  350MOL0     C46099   6.476   5.890  11.762 -0.3686 -0.8791  0.5703
  350MOL0     C46100   6.477   5.839  11.887 -0.0922 -0.6917  0.0851
  350MOL0     C46101   6.359   5.806  11.945 -0.7691  0.2145  0.0444
  350MOL0     C46102   6.236   5.817  11.883  0.6094  0.3243  0.6845
  350MOL0     O46103   6.130   5.789  11.963 -0.0355 -0.5312  0.2826
  350MOL0     C46104   6.002   5.818  11.910  0.9323  0.5136  0.4086
  350MOL0     C46105   5.891   5.791  12.016 -0.8992  0.3646 -0.0243
  350MOL0     C46106   5.875   5.925  12.096  0.6067  0.2915  0.4280
  350MOL0     C46107   5.765   5.909  12.201  0.0714 -0.2731  0.2032
  350MOL0     C46108   5.773   6.023  12.303 -0.7220 -0.2787  0.6940
  350MOL0     C46109   5.683   5.996  12.422 -0.9235 -0.2729  0.8698
  350MOL0     C46110   5.687   6.123  12.526  0.0239  0.6255  0.1825
  350MOL0     C46111   5.539   6.187  12.522 -0.3619 -0.6830 -0.2236
  350MOL0    Cl46112   5.416   6.073  12.579 -0.0999 -0.4111 -0.2831
  350MOL0     C46113   6.228   5.878  11.756 -0.8494  0.3407 -0.8734
  350MOL0     C46114   6.357   5.909  11.699  0.6463  0.3559 -1.2580
  350MOL0     O46115   6.699   5.737  11.740 -0.0830  0.9446 -0.2931
  350MOL0     C46116   6.923   5.829  11.579 -0.1318  0.0480 -0.0339
  350MOL0     C46117   7.028   5.868  11.492  0.4078 -0.7862 -0.4171
  350MOL0     N46118   7.217   5.783  10.692 -0.3174 -0.6408  0.5383
  350MOL0     N46119   7.313   5.726  10.632  0.4938 -0.0999 -0.6609
  350MOL0     C46120   8.526   5.597  11.235  1.2727  0.3007 -0.9800
  350MOL0     C46121   8.660   5.573  11.279  1.0841 -0.9747 -0.5425
  350MOL0     C46122   9.117   5.478  11.237  0.4568 -0.4032 -0.2596
  350MOL0     C46123   9.147   5.480  11.370  0.6944 -0.1803  0.6929
  350MOL0     C46124   9.271   5.437  11.418 -0.2565 -0.2428 -0.0666
  350MOL0     C46125   9.367   5.394  11.333 -0.2420 -0.4321  0.5261
  350MOL0     O46126   9.496   5.358  11.385 -0.2483  0.0192 -0.1966
  350MOL0     C46127   9.613   5.351  11.299 -1.1406 -0.1759 -0.6083
  350MOL0     C46128   9.743   5.353  11.376  0.4403  0.4841 -0.6717
  350MOL0     C46129   9.846   5.256  11.330 -0.6834  0.6070 -0.3356
  350MOL0     C46130   9.973   5.264  11.406 -0.5293 -0.0727 -0.2872
  350MOL0     C46131   9.960   5.223  11.553  0.5050 -0.3327  0.0301
  350MOL0     C46132   9.971   5.176  11.662  0.8874  0.1491 -0.1329
  350MOL0     C46133   9.346   5.400  11.194 -0.8870 -0.3542 -0.6203
  350MOL0     C46134   9.222   5.435  11.149 -0.1220  0.8705 -0.4921
  350MOL0     H46135   8.822   5.702  11.006 -1.1655  0.2592 -2.1321
  350MOL0     H46136   8.586   5.750  10.947  2.2519  2.1878 -0.0484
  350MOL0     H46137   8.320   5.791  11.253  1.8936 -1.1911  0.7691
  350MOL0     H46138   8.250   5.630  11.245 -1.9684  1.0343  1.8566
  350MOL0     H46139   8.184   5.875  11.081  1.8969  1.9195  2.1760
  350MOL0     H46140   8.082   5.799  11.205 -0.8545  0.4272 -1.3357
  350MOL0     H46141   8.076   5.592  11.087  0.2063  0.3355  2.2765
  350MOL0     H46142   8.133   5.660  10.933 -3.4521  0.9460 -1.8749
  350MOL0     H46143   7.896   5.771  11.082  0.4898  1.8959  1.0418
  350MOL0     H46144   7.956   5.836  10.933 -1.7927 -0.8835 -0.7873
  350MOL0     H46145   7.833   5.555  10.980 -1.3589  1.9450  0.7035
  350MOL0     H46146   7.926   5.602  10.834  1.5989  4.4510 -1.2195
  350MOL0     H46147   7.783   5.743  10.741 -0.7405 -0.4114 -0.1536
  350MOL0     H46148   7.691   5.768  10.896  2.6225  0.4868  1.2159
  350MOL0     H46149   7.688   5.498  10.759 -3.8041 -0.7893 -0.1265
  350MOL0     H46150   7.588   5.580  10.888 -2.9468 -1.5977 -1.1936
  350MOL0     H46151   7.509   5.567  10.613  1.2364 -0.6011 -0.0084
  350MOL0     H46152   7.619   5.699  10.603 -0.0278 -1.4055 -1.6275
  350MOL0     H46153   7.450   5.806  10.912  2.9581 -0.8791 -1.9691
  350MOL0     H46154   7.076   5.870  10.895 -0.2616 -0.7514 -1.8483
  350MOL0     H46155   7.186   6.017  10.882 -0.0086  0.6165  1.5338
  350MOL0     H46156   7.335   5.932  11.060 -0.6994 -0.7003  0.4017
  350MOL0     H46157   7.248   5.790  11.074  3.1612 -0.8440 -2.0017
  350MOL0     H46158   7.114   6.062  11.096  1.5250  0.1252 -1.2317
  350MOL0     H46159   7.043   5.908  11.161 -1.7220  2.9042 -0.5281
  350MOL0     H46160   7.281   6.051  11.265 -0.8322  1.4261  2.1328
  350MOL0     H46161   7.241   5.899  11.327  1.3737  1.3457  2.2310
  350MOL0     H46162   6.907   6.178  11.460 -0.8009  0.4214  2.0200
  350MOL0     H46163   6.719   6.098  11.584 -2.7293 -3.6755  0.1449
  350MOL0     H46164   6.569   5.826  11.944 -0.3009 -0.3646  0.5066
  350MOL0     H46165   6.367   5.744  12.034 -5.7617  1.0447  1.4300
  350MOL0     H46166   5.971   5.764  11.820 -0.5070  3.4994 -1.0313
  350MOL0     H46167   6.005   5.923  11.877  0.6000  0.8612  1.4472
  350MOL0     H46168   5.927   5.713  12.084  0.9994 -0.4343 -1.8479
  350MOL0     H46169   5.801   5.763  11.960 -1.6672 -1.8146  2.1192
  350MOL0     H46170   5.867   6.013  12.031  1.7900 -0.9445 -1.4756
  350MOL0     H46171   5.972   5.942  12.144  0.7446  0.7670 -0.0073
  350MOL0     H46172   5.664   5.903  12.159  1.0360 -0.6178 -2.2057
  350MOL0     H46173   5.780   5.812  12.250 -0.2306 -0.6193 -0.3707
  350MOL0     H46174   5.753   6.115  12.248 -1.3085  0.1844  1.6520
  350MOL0     H46175   5.876   6.025  12.340 -0.4646  1.6922  0.0090
  350MOL0     H46176   5.701   5.897  12.465 -3.2139 -0.7455  0.8930
  350MOL0     H46177   5.587   5.980  12.372  2.0900 -2.7960 -5.1686
  350MOL0     H46178   5.698   6.095  12.631  1.9160 -1.3575 -0.4731
  350MOL0     H46179   5.773   6.179  12.489 -0.8870  0.6710 -2.0017
  350MOL0     H46180   5.512   6.204  12.418 -0.2170 -1.1132 -0.3338
  350MOL0     H46181   5.533   6.282  12.575  1.9767  0.7229 -2.2763
  350MOL0     H46182   6.140   5.904  11.698 -0.1046 -0.8845 -2.6045
  350MOL0     H46183   6.350   5.958  11.603 -0.3170  1.3222 -0.7229
  350MOL0     H46184   6.934   5.726  11.612 -1.6959  0.8626  3.5418
  350MOL0     H46185   7.113   5.805  11.468  0.2617 -1.4597  0.7506
  350MOL0     H46186   8.456   5.564  11.312  3.4287  0.2798  1.0759
  350MOL0     H46187   8.683   5.521  11.371  2.3196 -0.6321 -0.6396
  350MOL0     H46188   9.080   5.521  11.445 -1.7166 -1.0351 -0.8670
  350MOL0     H46189   9.295   5.419  11.523  1.3193 -0.1894 -0.3913
  350MOL0     H46190   9.610   5.431  11.225 -0.3094  0.7666  0.3386
  350MOL0     H46191   9.611   5.257  11.242  0.5106 -0.3430 -0.4563
  350MOL0     H46192   9.788   5.452  11.371  0.8062  0.3837  0.3290
  350MOL0     H46193   9.716   5.332  11.480 -1.0961  0.0676 -1.1191
  350MOL0     H46194   9.880   5.275  11.228  0.4008  2.7147  0.3678
  350MOL0     H46195   9.817   5.151  11.343  1.5694 -0.3792 -2.4585
  350MOL0     H46196  10.053   5.204  11.362 -0.7062 -0.3326 -0.2552
  350MOL0     H46197  10.000   5.370  11.399  1.5939 -0.6896 -3.9731
  350MOL0     H46198   9.971   5.125  11.756 -3.8762  0.9216  0.5430
  350MOL0     H46199   9.423   5.378  11.120  2.4805  2.5879  1.6621
  350MOL0     H46200   9.212   5.424  11.042  2.5859 -1.1630 -0.6523
  351MOL0     O46201   3.946   2.909   7.111  0.6324 -0.1637 -0.7682
  351MOL0     C46202   3.949   2.803   7.050  0.3858  0.1300  1.3541
  351MOL0     O46203   3.842   2.740   6.996  0.6094 -0.8483 -0.1375
  351MOL0     C46204   3.718   2.804   7.006 -0.2068  1.0014  0.4949
  351MOL0     C46205   3.645   2.821   6.888  0.3906 -0.5349 -0.8034
  351MOL0     C46206   3.517   2.878   6.898 -0.0157  0.4516  0.2388
  351MOL0     C46207   3.464   2.930   7.016  1.1294  0.9950  0.4141
  351MOL0     O46208   3.333   2.988   7.004 -0.9980 -0.1128  0.0057
  351MOL0     C46209   3.252   2.983   7.119 -0.2818 -0.0408 -0.8356
  351MOL0     C46210   3.109   3.018   7.094 -0.4185  0.4324 -0.2618
  351MOL0     C46211   3.058   2.939   6.974  0.6985  0.4047 -1.0393
  351MOL0     C46212   2.918   2.981   6.928  0.0128 -0.0452  0.0359
  351MOL0     C46213   2.828   2.872   6.864  0.7165 -0.2812  0.5595
  351MOL0     C46214   2.671   2.915   6.849  0.3665  0.8839 -0.9073
  351MOL0     C46215   2.648   3.019   6.755 -0.1912 -0.6586  0.9032
  351MOL0     C46216   2.502   3.061   6.746  0.1062  0.0651 -0.4773
  351MOL0     N46217   2.406   2.939   6.735  0.1687 -0.4201  0.4274
  351MOL0     C46218   2.326   2.885   6.830 -0.0143  0.3212  0.3663
  351MOL0     C46219   2.288   2.764   6.782  0.3810  0.1302 -0.5463
  351MOL0     C46220   2.214   2.659   6.856  0.3635  1.1033  0.3220
  351MOL0     C46221   2.093   2.702   6.940 -1.1375  0.5045  0.1064
  351MOL0     C46222   2.006   2.589   6.980 -0.1854  0.1927 -0.1004
  351MOL0     C46223   1.875   2.636   7.051  0.0323 -0.2684  0.5282
  351MOL0     O46224   1.796   2.711   6.955  0.4268 -0.3349 -0.3182
  351MOL0     C46225   1.672   2.755   7.006 -1.0761  1.0748  0.3581
  351MOL0     C46226   1.621   2.712   7.128 -0.0336 -0.0943 -0.6278
  351MOL0     C46227   1.487   2.735   7.162 -0.3517 -0.0271 -0.5959
  351MOL0     C46228   1.408   2.818   7.076 -0.0414  0.5330 -0.8290
  351MOL0     C46229   1.276   2.842   7.110  0.4857  0.4978  0.1296
  351MOL0     O46230   1.241   2.810   7.241  0.4354  0.5402 -0.4937
  351MOL0     C46231   1.107   2.826   7.290  0.3383 -0.3677  0.1205
  351MOL0     C46232   0.986   2.810   7.218  0.4826 -0.2634 -0.8035
  351MOL0     C46233   0.865   2.843   7.275 -1.0421  0.5799  0.0423
  351MOL0     C46234   0.858   2.871   7.410 -0.3652 -0.0151  0.2921
  351MOL0     O46235   0.734   2.884   7.476  0.2872  0.2281 -0.5034
  351MOL0     C46236   0.622   2.826   7.409 -1.3133  0.0171  0.7931
  351MOL0     C46237   0.503   2.817   7.505 -0.3807  0.4623 -0.6875
  351MOL0     C46238   0.534   2.743   7.637 -0.6646 -0.1279  0.4489
  351MOL0     C46239   0.447   2.806   7.752  0.3204  0.1216  0.2756
  351MOL0     C46240   0.466   2.725   7.884 -0.6688 -0.0714 -0.1859
  351MOL0     C46241   0.401   2.807   7.996  0.0012 -0.3243  0.4750
  351MOL0     C46242   0.436   2.753   8.133 -0.2717 -0.6233  0.5982
  351MOL0     C46243   0.384   2.840   8.235  1.1813 -1.0008 -0.8013
  351MOL0    Cl46244   0.406   2.743   8.390 -0.3387  0.3826 -0.0918
  351MOL0     C46245   0.976   2.887   7.480  0.8598  0.5915  0.1059
  351MOL0     C46246   1.100   2.854   7.422  0.0706  0.2594 -0.1798
  351MOL0     O46247   1.200   2.895   7.027  0.4759 -0.1040 -0.2173
  351MOL0     C46248   1.462   2.865   6.959  0.3685  0.0244  0.3844
  351MOL0     C46249   1.588   2.833   6.923  0.1114  0.4064 -0.4107
  351MOL0     N46250   2.324   2.766   6.645  0.7030 -0.0907  0.4434
  351MOL0     N46251   2.399   2.871   6.618 -0.5563  0.7932 -0.3457
  351MOL0     C46252   3.548   2.931   7.126 -0.0694 -0.0135  0.0168
  351MOL0     C46253   3.667   2.857   7.121  0.6596 -0.2903 -0.4919
  351MOL0     C46254   4.078   2.738   7.035 -0.6438 -0.0955 -0.2178
  351MOL0     C46255   4.079   2.611   6.975 -0.0705  1.0736  0.0711
  351MOL0     C46256   4.204   2.543   6.973  0.7176  0.1933  0.2276
  351MOL0     C46257   4.323   2.595   7.014  0.7967  0.2384 -0.3153
  351MOL0     O46258   4.442   2.524   6.986  0.5951 -0.5993  0.6209
  351MOL0     C46259   4.561   2.615   6.974  0.4305 -0.4656 -0.9207
  351MOL0     C46260   4.673   2.525   6.941 -0.8429  0.2284  0.3927
  351MOL0     C46261   4.679   2.489   6.797  0.5815 -0.2242  0.4526
  351MOL0     C46262   4.593   2.372   6.751 -0.5133  0.4706 -1.1278
  351MOL0     C46263   4.630   2.316   6.625 -0.1840 -0.7701 -0.0572
  351MOL0     C46264   4.648   2.270   6.514  0.6595 -0.1498 -0.4415
  351MOL0     C46265   4.310   2.721   7.074  0.5745 -0.7716 -0.4270
  351MOL0     C46266   4.195   2.782   7.091  0.1652 -0.0520 -0.5325
  351MOL0     H46267   3.682   2.783   6.793 -0.4674 -1.6412 -0.7273
  351MOL0     H46268   3.469   2.896   6.802  1.1224 -0.3496 -0.5001
  351MOL0     H46269   3.285   3.045   7.202 -0.9987 -1.7746  0.8204
  351MOL0     H46270   3.259   2.879   7.152 -2.1854  0.2596  0.6862
  351MOL0     H46271   3.107   3.126   7.077  1.6036  0.4660 -0.5544
  351MOL0     H46272   3.042   3.016   7.181 -0.0341  1.6084  0.0787
  351MOL0     H46273   3.050   2.835   7.009 -2.9776 -0.1990 -3.1849
  351MOL0     H46274   3.133   2.923   6.896  2.4642  0.8260  0.4932
  351MOL0     H46275   2.859   3.024   7.009 -0.5702  3.4122 -2.0234
  351MOL0     H46276   2.934   3.058   6.852  3.6847  0.0171  0.6587
  351MOL0     H46277   2.832   2.790   6.936 -1.8863 -0.1117  0.9754
  351MOL0     H46278   2.864   2.841   6.766 -4.1434  1.1897 -1.9809
  351MOL0     H46279   2.644   2.951   6.949  2.1342  2.1842 -0.8498
  351MOL0     H46280   2.617   2.822   6.828  1.1416  0.1440  0.2212
  351MOL0     H46281   2.705   3.111   6.771  0.7346 -1.4679  2.4897
  351MOL0     H46282   2.680   2.977   6.659  0.9491 -0.5554  1.2277
  351MOL0     H46283   2.484   3.128   6.662  1.7334  1.6414  0.3557
  351MOL0     H46284   2.492   3.118   6.839  1.1139  0.4357 -0.5766
  351MOL0     H46285   2.305   2.935   6.924 -0.1953 -1.1499  1.1300
  351MOL0     H46286   2.283   2.609   6.924 -0.5296 -0.7452 -0.0652
  351MOL0     H46287   2.182   2.585   6.782  0.6179  3.2348 -2.0648
  351MOL0     H46288   2.035   2.757   6.865  0.3508 -1.2851 -2.5369
  351MOL0     H46289   2.131   2.764   7.022  1.5507 -3.1496  1.9115
  351MOL0     H46290   1.976   2.520   6.901  0.3355 -0.0960 -0.0533
  351MOL0     H46291   2.068   2.535   7.053  0.4631  0.6315 -0.3185
  351MOL0     H46292   1.893   2.701   7.137 -0.9600 -1.6748  1.8569
  351MOL0     H46293   1.833   2.547   7.099  1.5995 -1.6658 -0.5555
  351MOL0     H46294   1.670   2.652   7.204 -2.2787 -1.2295  0.0129
  351MOL0     H46295   1.443   2.680   7.245 -2.0153  2.5619  0.3853
  351MOL0     H46296   0.987   2.791   7.111 -1.5006  1.3264 -1.1640
  351MOL0     H46297   0.791   2.828   7.197  0.1839  0.7989 -1.1996
  351MOL0     H46298   0.656   2.728   7.374  0.7674  1.9120 -3.2323
  351MOL0     H46299   0.593   2.869   7.313 -3.8654 -2.4270  0.3493
  351MOL0     H46300   0.430   2.755   7.451 -0.0765 -0.6478  0.1485
  351MOL0     H46301   0.473   2.920   7.528 -0.6132  0.3848 -0.6459
  351MOL0     H46302   0.638   2.754   7.669 -1.5140  2.8369  2.7040
  351MOL0     H46303   0.518   2.637   7.618  1.3366 -0.1890 -1.2240
  351MOL0     H46304   0.486   2.906   7.774  0.6130 -0.5538  3.3804
  351MOL0     H46305   0.340   2.806   7.732  0.0914  4.9851  0.4751
  351MOL0     H46306   0.574   2.716   7.902 -0.5065  1.5144 -0.2453
  351MOL0     H46307   0.422   2.625   7.879 -0.3097 -0.2574  0.2069
  351MOL0     H46308   0.294   2.820   7.978  0.3070 -0.3524 -1.6611
  351MOL0     H46309   0.447   2.906   7.991  0.2417 -0.4742 -0.3900
  351MOL0     H46310   0.380   2.659   8.132 -2.6475  0.7030  0.3485
  351MOL0     H46311   0.543   2.735   8.142  1.0341  5.5310  2.4954
  351MOL0     H46312   0.279   2.865   8.221  0.9405 -2.4465 -1.7116
  351MOL0     H46313   0.450   2.926   8.250 -0.4936  0.0162  1.1674
  351MOL0     H46314   0.968   2.908   7.586 -0.8592  1.7190 -0.1926
  351MOL0     H46315   1.193   2.871   7.476  0.4202 -0.4807 -0.5322
  351MOL0     H46316   1.407   2.930   6.892  1.2335  0.7780  0.3859
  351MOL0     H46317   1.616   2.862   6.822  1.3828  0.4333 -0.0693
  351MOL0     H46318   3.520   2.984   7.217  1.9558  0.5334  0.3784
  351MOL0     H46319   3.725   2.839   7.211 -0.3548  4.5534  1.4363
  351MOL0     H46320   3.993   2.553   6.944 -0.1666 -0.3166  2.7072
  351MOL0     H46321   4.200   2.447   6.922  2.7330  0.2364 -0.1000
  351MOL0     H46322   4.576   2.652   7.076 -1.6002  0.1659 -0.8179
  351MOL0     H46323   4.544   2.700   6.908  0.1623 -0.2336 -0.5559
  351MOL0     H46324   4.768   2.572   6.965 -1.2666  1.4881 -0.2823
  351MOL0     H46325   4.660   2.439   7.008 -2.9511 -0.8969 -1.2935
  351MOL0     H46326   4.784   2.473   6.770  1.0185  0.4120  1.6801
  351MOL0     H46327   4.652   2.578   6.739  1.8147  1.3460  2.1725
  351MOL0     H46328   4.596   2.295   6.829  0.9330 -1.4652 -2.9827
  351MOL0     H46329   4.490   2.407   6.738  0.2023  2.7119 -1.1404
  351MOL0     H46330   4.666   2.240   6.413  1.0104 -0.5310 -0.2714
  351MOL0     H46331   4.403   2.761   7.113  0.4109 -1.3870  0.6390
  351MOL0     H46332   4.189   2.871   7.153 -0.8703 -1.2278  1.1410
  352MOL0     O46333   5.199   4.886   1.799  0.0916 -0.3384 -0.2669
  352MOL0     C46334   5.105   4.959   1.828  0.2138 -0.7471 -0.5590
  352MOL0     O46335   5.089   5.021   1.951  0.9145 -0.7039 -0.1406
  352MOL0     C46336   5.184   5.009   2.046 -0.2648 -0.0818 -1.0184
  352MOL0     C46337   5.162   4.927   2.153 -0.2341  0.4782  0.2079
  352MOL0     C46338   5.261   4.912   2.254 -0.9424 -0.3669 -0.7825
  352MOL0     C46339   5.389   4.968   2.250 -0.1227 -0.8892  0.1568
  352MOL0     O46340   5.500   4.950   2.331  0.9335 -0.5070 -0.2076
  352MOL0     C46341   5.487   4.929   2.477 -0.1436  0.6297 -0.0167
  352MOL0     C46342   5.594   5.003   2.544  0.5819 -0.3678 -0.6827
  352MOL0     C46343   5.609   5.155   2.505 -0.6088 -0.8339  0.1836
  352MOL0     C46344   5.725   5.218   2.602 -0.3957 -0.1589  0.3573
  352MOL0     C46345   5.697   5.366   2.621  0.2947 -0.0675  0.0490
  352MOL0     C46346   5.799   5.431   2.704 -0.2444 -0.1095  1.0971
  352MOL0     C46347   5.749   5.568   2.738  0.3220 -0.3665  0.4063
  352MOL0     C46348   5.827   5.644   2.853 -0.2894  0.1162 -0.0425
  352MOL0     N46349   5.774   5.783   2.871  0.8972 -0.6914  0.0871
  352MOL0     C46350   5.652   5.804   2.926 -0.3949  0.6393  0.6277
  352MOL0     C46351   5.639   5.939   2.934  0.5864  0.6437 -0.4722
  352MOL0     C46352   5.521   6.016   2.989  1.3537 -0.6440  0.3271
  352MOL0     C46353   5.384   5.958   2.931 -0.2596 -0.2055 -0.3151
  352MOL0     C46354   5.275   5.925   3.037 -0.6830  0.7118 -0.4355
  352MOL0     C46355   5.152   5.876   2.978  0.0446  1.0275  0.0070
  352MOL0     O46356   5.047   5.895   3.078 -0.2645 -0.5372  0.0116
  352MOL0     C46357   4.919   5.880   3.041  0.2924 -0.6077  0.9389
  352MOL0     C46358   4.873   5.811   2.928  0.3486  0.0803 -1.1039
  352MOL0     C46359   4.730   5.807   2.899 -0.7576 -1.2535  0.0746
  352MOL0     C46360   4.642   5.876   2.987  0.0173 -0.9916  0.3179
  352MOL0     C46361   4.501   5.869   2.956 -0.3953  0.3023 -0.5453
  352MOL0     O46362   4.434   5.970   3.013  0.3799  0.5350  0.2116
  352MOL0     C46363   4.300   5.976   2.972 -0.4299  0.1275  0.1550
  352MOL0     C46364   4.193   5.930   3.048 -0.5811  0.5315 -0.0731
  352MOL0     C46365   4.061   5.944   3.012 -0.4134 -0.5775  0.4366
  352MOL0     C46366   4.033   6.021   2.904  0.6020 -0.0299  0.6749
  352MOL0     O46367   3.904   6.047   2.863  0.0026  0.6166  0.2460
  352MOL0     C46368   3.831   5.931   2.814 -0.2147  0.3899  0.2028
  352MOL0     C46369   3.696   5.964   2.755  0.1023  0.0573 -0.8614
  352MOL0     C46370   3.648   5.844   2.674  0.6769 -0.5194 -0.4526
  352MOL0     C46371   3.714   5.838   2.541  0.1076  0.3888  0.2761
  352MOL0     C46372   3.683   5.706   2.467 -0.2672 -0.2645  0.1333
  352MOL0     C46373   3.761   5.688   2.331  0.0005  0.9291  0.0654
  352MOL0     C46374   3.753   5.546   2.284 -0.7477  0.3941 -0.0683
  352MOL0     C46375   3.619   5.488   2.226  0.1579  0.6499  1.0886
  352MOL0    Cl46376   3.572   5.557   2.069  0.4526  0.2174  0.0305
  352MOL0     C46377   4.134   6.070   2.823 -0.5218  0.9064 -0.0558
  352MOL0     C46378   4.268   6.067   2.868 -0.4078 -0.0983 -0.1372
  352MOL0     O46379   4.459   5.780   2.887 -0.3168  0.2622 -0.3432
  352MOL0     C46380   4.692   5.931   3.109  0.1186 -0.9656  0.4402
  352MOL0     C46381   4.828   5.942   3.127  0.2184  0.2376 -0.5123
  352MOL0     N46382   5.760   5.994   2.889 -0.0539  0.4441  0.6167
  352MOL0     N46383   5.842   5.900   2.854 -0.9247 -0.2515 -0.4847
  352MOL0     C46384   5.413   5.051   2.143 -0.2305  0.9155 -0.4262
  352MOL0     C46385   5.313   5.075   2.049  0.6008  1.4411 -0.2922
  352MOL0     C46386   5.010   5.002   1.719  1.0931  0.3607  1.4105
  352MOL0     C46387   4.877   5.044   1.744 -0.5726  0.2379 -0.2784
  352MOL0     C46388   4.790   5.074   1.641  1.3492  0.2953  0.9389
  352MOL0     C46389   4.825   5.061   1.502 -0.5575  0.4047 -0.3537
  352MOL0     O46390   4.735   5.093   1.406  0.1656 -0.0890 -0.1027
  352MOL0     C46391   4.785   5.100   1.268  0.6399  0.1677 -0.4965
  352MOL0     C46392   4.684   5.163   1.170 -0.5496  0.4551  0.7778
  352MOL0     C46393   4.757   5.242   1.059  0.3468 -0.1366  0.6684
  352MOL0     C46394   4.808   5.389   1.089  0.4492  0.4031 -0.3962
  352MOL0     C46395   4.693   5.468   1.131  0.1799  0.5273  0.0002
  352MOL0     C46396   4.582   5.517   1.154 -0.7245 -1.3039  0.9014
  352MOL0     C46397   4.960   5.017   1.480 -0.0726  0.6278 -0.5615
  352MOL0     C46398   5.053   4.987   1.579 -0.7900  0.5498 -0.1779
  352MOL0     H46399   5.063   4.883   2.153  0.3546 -1.0319  2.2015
  352MOL0     H46400   5.236   4.862   2.347 -0.9050  1.4490  0.2450
  352MOL0     H46401   5.506   4.824   2.501  3.2996  1.0864 -0.1988
  352MOL0     H46402   5.397   4.969   2.525  0.1399 -0.4024  1.4256
  352MOL0     H46403   5.691   4.961   2.515  0.6496  1.3251 -3.2115
  352MOL0     H46404   5.576   4.986   2.651 -1.4466 -0.0020 -0.9246
  352MOL0     H46405   5.518   5.214   2.521 -1.4433 -1.1635 -2.8109
  352MOL0     H46406   5.645   5.177   2.404 -0.8270 -1.9230 -0.1468
  352MOL0     H46407   5.733   5.165   2.697  1.0807 -2.3514 -0.8911
  352MOL0     H46408   5.824   5.189   2.566 -1.1444 -2.8362  0.1999
  352MOL0     H46409   5.601   5.380   2.673  0.9508  0.9714  1.0292
  352MOL0     H46410   5.685   5.415   2.524  0.0094 -1.9347 -0.8936
  352MOL0     H46411   5.883   5.446   2.635  0.3176 -0.7747  1.6258
  352MOL0     H46412   5.831   5.370   2.788  0.3934 -0.3516  0.6807
  352MOL0     H46413   5.748   5.637   2.653 -2.1755  0.3386  0.9347
  352MOL0     H46414   5.645   5.558   2.771 -0.1886  0.0039 -1.0316
  352MOL0     H46415   5.932   5.668   2.835 -0.9689  3.1276 -0.5470
  352MOL0     H46416   5.813   5.588   2.946 -2.5454  2.4420  1.1518
  352MOL0     H46417   5.583   5.724   2.949  1.5651 -0.9815  1.2525
  352MOL0     H46418   5.523   6.117   2.946 -4.4883 -0.8987 -1.4486
  352MOL0     H46419   5.513   6.018   3.098 -1.9861 -0.3344  0.1859
  352MOL0     H46420   5.410   5.869   2.874  1.8445  0.5744 -0.6577
  352MOL0     H46421   5.346   6.037   2.866 -0.4555 -1.5688 -1.9200
  352MOL0     H46422   5.307   5.842   3.100  1.0026  1.3879 -0.3278
  352MOL0     H46423   5.264   6.015   3.097 -3.2249  0.1855 -0.0095
  352MOL0     H46424   5.163   5.768   2.967 -0.5709  0.8825  0.7104
  352MOL0     H46425   5.128   5.924   2.883  0.3249 -2.4637 -1.9824
  352MOL0     H46426   4.944   5.768   2.858  0.5508  1.3617 -1.7141
  352MOL0     H46427   4.700   5.744   2.816 -2.2189 -0.6442  0.0995
  352MOL0     H46428   4.228   5.881   3.139 -0.8027 -0.1620 -0.3558
  352MOL0     H46429   3.989   5.910   3.085 -0.5444  2.2481  1.7560
  352MOL0     H46430   3.806   5.873   2.903 -0.5542 -0.1067 -0.2052
  352MOL0     H46431   3.883   5.863   2.746  1.7571 -1.7164  3.5786
  352MOL0     H46432   3.713   6.054   2.694  1.9462 -0.9011 -1.8556
  352MOL0     H46433   3.627   5.998   2.833  1.1747  2.5835 -0.9046
  352MOL0     H46434   3.539   5.834   2.667  0.5252  1.0500 -0.9640
  352MOL0     H46435   3.675   5.757   2.734 -3.0892 -2.7472 -1.6430
  352MOL0     H46436   3.691   5.926   2.481 -1.6840 -1.3366 -1.7188
  352MOL0     H46437   3.823   5.837   2.547  0.4075  0.6097 -3.0688
  352MOL0     H46438   3.574   5.703   2.460 -0.3382  1.1821  0.3362
  352MOL0     H46439   3.724   5.617   2.516  2.6098 -0.5392 -2.4888
  352MOL0     H46440   3.865   5.715   2.349 -1.0098  4.1915  1.7940
  352MOL0     H46441   3.716   5.754   2.256  0.1384  0.4796 -0.4198
  352MOL0     H46442   3.835   5.537   2.211 -2.2138  0.0739 -1.7244
  352MOL0     H46443   3.779   5.477   2.365 -0.0485  0.3673 -0.3071
  352MOL0     H46444   3.544   5.507   2.302 -0.2781  0.7637  0.6320
  352MOL0     H46445   3.620   5.379   2.214  0.9194  0.7799 -0.3810
  352MOL0     H46446   4.105   6.135   2.741 -0.7463 -1.0053 -1.5800
  352MOL0     H46447   4.346   6.127   2.821  1.2752 -1.3089  0.9760
  352MOL0     H46448   4.628   5.989   3.174 -0.5428 -1.2405  0.0461
  352MOL0     H46449   4.868   6.011   3.202  0.8542 -0.1684 -0.4753
  352MOL0     H46450   5.517   5.082   2.138  1.2648 -3.4827 -2.1256
  352MOL0     H46451   5.337   5.142   1.966  0.7397  0.1124 -1.3469
  352MOL0     H46452   4.844   5.062   1.845  3.3621  0.1345  1.1956
  352MOL0     H46453   4.686   5.099   1.662  1.2157 -0.4934  1.2315
  352MOL0     H46454   4.817   4.999   1.240  0.7909  0.6794 -2.2996
  352MOL0     H46455   4.878   5.157   1.259  0.3452  0.4872 -1.8092
  352MOL0     H46456   4.628   5.085   1.118 -0.2872  1.3677 -0.9595
  352MOL0     H46457   4.611   5.228   1.220 -1.9616 -0.6582  0.2209
  352MOL0     H46458   4.678   5.249   0.984  0.8652  1.8267  0.2376
  352MOL0     H46459   4.829   5.170   1.019 -0.6284 -0.5671 -0.3656
  352MOL0     H46460   4.883   5.393   1.169  1.4894 -1.5046 -1.2100
  352MOL0     H46461   4.857   5.437   1.003  2.1788  2.4524  1.5990
  352MOL0     H46462   4.492   5.564   1.189 -0.2151  0.7398 -0.3689
  352MOL0     H46463   4.991   5.004   1.377 -1.0483 -0.5125 -0.7288
  352MOL0     H46464   5.155   4.952   1.565 -0.6697  0.0619  1.6370
  353MOL0     O46465   1.514   7.701  10.465 -0.2301 -0.1645  1.0144
  353MOL0     C46466   1.579   7.797  10.490 -0.8073  0.3988  0.0272
  353MOL0     O46467   1.540   7.911  10.543 -0.0459 -0.3945 -0.2254
  353MOL0     C46468   1.405   7.926  10.577 -0.5552 -0.1739 -0.5235
  353MOL0     C46469   1.379   7.961  10.706  0.1036 -0.3618  0.5666
  353MOL0     C46470   1.244   7.968  10.746 -0.3563 -0.1425 -0.8750
  353MOL0     C46471   1.140   7.942  10.664  0.1537  0.2024 -0.2790
  353MOL0     O46472   1.018   7.948  10.725  1.3640  0.1097  0.3003
  353MOL0     C46473   0.909   7.888  10.653 -1.1978  0.6082  0.8188
  353MOL0     C46474   0.771   7.906  10.715 -0.1913  0.5202 -0.5258
  353MOL0     C46475   0.721   8.056  10.709 -0.9176 -0.3342  0.6011
  353MOL0     C46476   0.597   8.063  10.794 -0.1020  0.8591  0.3108
  353MOL0     C46477   0.472   8.007  10.729  0.0241  0.4125 -0.4843
  353MOL0     C46478   0.339   8.034  10.813 -0.4099 -0.2599  0.5589
  353MOL0     C46479   0.288   8.173  10.831 -0.1143  0.4682  0.0170
  353MOL0     C46480   0.183   8.207  10.729  0.0097  0.1048  0.5986
  353MOL0     N46481   0.108   8.321  10.769  0.0903  0.7346  0.6438
  353MOL0     C46482   0.154   8.444  10.729  0.2765  0.0693  0.4870
  353MOL0     C46483   0.082   8.527  10.802 -0.6688 -0.1834 -0.5151
  353MOL0     C46484   0.072   8.676  10.784 -0.4545  0.1900  0.7996
  353MOL0     C46485  -0.056   8.733  10.732  0.7418 -0.4031  0.5420
  353MOL0     C46486  -0.056   8.725  10.579  0.2884  0.5964  0.8412
  353MOL0     C46487  -0.185   8.732  10.498  0.7646 -0.2718  0.2392
  353MOL0     O46488  -0.256   8.827  10.569  0.2814 -0.4424 -0.0606
  353MOL0     C46489  -0.372   8.870  10.506 -0.8562  0.3529 -0.2362
  353MOL0     C46490  -0.418   8.847  10.377  0.0793 -0.2147  0.4752
  353MOL0     C46491  -0.535   8.909  10.330  0.5812 -0.1015 -0.1642
  353MOL0     C46492  -0.616   8.976  10.428  0.8442  0.3114 -0.0344
  353MOL0     C46493  -0.756   9.022  10.381 -0.4745 -0.7248 -0.0013
  353MOL0     O46494  -0.794   8.977  10.263  0.7327  0.2718 -0.2948
  353MOL0     C46495  -0.913   9.026  10.220  0.9559 -0.3383  1.0896
  353MOL0     C46496  -0.932   9.156  10.172 -0.0512  0.8343 -0.3340
  353MOL0     C46497  -1.046   9.199  10.095 -1.2636 -0.9820  0.3384
  353MOL0     C46498  -1.151   9.101  10.076  0.0056 -0.1193 -0.2099
  353MOL0     O46499  -1.266   9.123  10.003  0.2905 -0.6442  0.0443
  353MOL0     C46500  -1.257   9.244   9.920  0.3795 -0.1594 -0.2355
  353MOL0     C46501  -1.377   9.255   9.831 -0.1824  0.3078 -0.0316
  353MOL0     C46502  -1.500   9.283   9.921  0.4215 -0.1079  0.8407
  353MOL0     C46503  -1.639   9.257   9.842  0.4247 -0.2725 -0.4004
  353MOL0     C46504  -1.757   9.319   9.920  0.2559 -0.0072 -0.4238
  353MOL0     C46505  -1.803   9.243  10.044  0.5420  0.5258 -0.7776
  353MOL0     C46506  -1.947   9.270  10.073 -0.4693 -1.4085 -0.5375
  353MOL0     C46507  -1.986   9.197  10.206 -0.8405 -0.4111  0.5489
  353MOL0    Cl46508  -2.154   9.213  10.236  0.5239 -0.0247 -0.4091
  353MOL0     C46509  -1.139   8.974  10.136 -0.7529 -0.4745  0.2330
  353MOL0     C46510  -1.019   8.930  10.198  1.1264 -0.1398 -0.0356
  353MOL0     O46511  -0.817   9.096  10.452  0.0689 -0.4081  0.2671
  353MOL0     C46512  -0.577   8.999  10.557 -0.3161  0.1921  0.3691
  353MOL0     C46513  -0.451   8.944  10.591 -1.1319  1.1314 -0.9629
  353MOL0     N46514  -0.005   8.458  10.889 -0.0691 -0.0397 -0.5389
  353MOL0     N46515   0.007   8.335  10.859 -0.4368  0.3457  0.2502
  353MOL0     C46516   1.176   7.914  10.529 -0.0969  0.4309 -0.3844
  353MOL0     C46517   1.308   7.912  10.481  0.2555  0.0814  0.6903
  353MOL0     C46518   1.715   7.802  10.424 -0.6235  0.3972 -0.6870
  353MOL0     C46519   1.773   7.692  10.367  0.0134  0.0802  0.4319
  353MOL0     C46520   1.895   7.690  10.315  1.2345 -0.0264 -0.9928
  353MOL0     C46521   1.977   7.804  10.330  0.2698 -0.1043  0.1647
  353MOL0     O46522   2.094   7.804  10.267 -0.4006  0.4867  0.0019
  353MOL0     C46523   2.203   7.881  10.311 -0.1783  0.1836 -0.2085
  353MOL0     C46524   2.341   7.816  10.272  0.0086 -1.2634  0.6037
  353MOL0     C46525   2.465   7.901  10.309 -0.3205  0.3959  0.3801
  353MOL0     C46526   2.466   8.041  10.243  0.1420 -0.2576  0.0011
  353MOL0     C46527   2.444   8.027  10.103  0.2772  0.2055  0.0253
  353MOL0     C46528   2.450   7.998   9.989 -1.1221 -0.7113  0.4794
  353MOL0     C46529   1.923   7.917  10.394  0.8777  0.4873 -0.1410
  353MOL0     C46530   1.791   7.920  10.439 -0.1534 -0.4367  0.3233
  353MOL0     H46531   1.453   7.981  10.783 -0.0428  0.1828  0.5697
  353MOL0     H46532   1.224   7.990  10.850 -0.5683  3.1158 -1.4792
  353MOL0     H46533   0.938   7.783  10.639  0.0271  1.1202 -0.7886
  353MOL0     H46534   0.900   7.944  10.560  3.7648  0.3404 -0.0884
  353MOL0     H46535   0.769   7.880  10.821  2.6209  1.4544 -0.1566
  353MOL0     H46536   0.704   7.848  10.650  1.1616  1.1950 -2.6395
  353MOL0     H46537   0.700   8.094  10.609 -1.4280  0.2955  0.9436
  353MOL0     H46538   0.791   8.126  10.755  0.6100 -0.9670 -0.6859
  353MOL0     H46539   0.611   8.017  10.892  1.1790 -1.4616 -0.8615
  353MOL0     H46540   0.571   8.165  10.820  0.3291  1.3007 -0.9035
  353MOL0     H46541   0.496   7.900  10.727 -0.4023  0.3146 -2.3731
  353MOL0     H46542   0.461   8.056  10.632  0.4417 -1.0273 -1.2971
  353MOL0     H46543   0.358   7.993  10.913  1.3024 -5.0186 -1.4104
  353MOL0     H46544   0.266   7.966  10.768  0.2822 -0.2759 -0.5423
  353MOL0     H46545   0.238   8.183  10.928  0.5430 -2.6545  0.8104
  353MOL0     H46546   0.378   8.234  10.833  1.7156 -2.0516  1.8487
  353MOL0     H46547   0.110   8.125  10.726 -1.1746  0.8380  4.0127
  353MOL0     H46548   0.230   8.218  10.631  0.7399 -1.8185  0.6820
  353MOL0     H46549   0.226   8.466  10.651  0.6754  1.3537  1.1915
  353MOL0     H46550   0.154   8.717  10.725 -1.5756  2.7915  0.9035
  353MOL0     H46551   0.090   8.720  10.882 -0.4668  1.1853  0.3629
  353MOL0     H46552  -0.077   8.834  10.768  0.4559  0.3346 -1.5627
  353MOL0     H46553  -0.138   8.674  10.773  0.0667  0.4536  0.4485
  353MOL0     H46554   0.006   8.808  10.542  2.2571 -2.5526 -4.0230
  353MOL0     H46555   0.001   8.637  10.549 -2.8307 -0.6904 -2.0177
  353MOL0     H46556  -0.244   8.641  10.512 -1.2436  1.2997  2.8219
  353MOL0     H46557  -0.162   8.758  10.395 -0.7562  0.5141  0.0770
  353MOL0     H46558  -0.353   8.807  10.300 -0.6534 -3.5827  1.4262
  353MOL0     H46559  -0.561   8.894  10.226  0.0193 -0.6558  0.0472
  353MOL0     H46560  -0.861   9.235  10.195 -0.9108  1.6914 -0.5144
  353MOL0     H46561  -1.044   9.293  10.042 -1.7155 -0.3235  1.4605
  353MOL0     H46562  -1.167   9.247   9.858  0.6876  1.6282  0.2188
  353MOL0     H46563  -1.249   9.330   9.987  0.8066 -1.0750  0.9319
  353MOL0     H46564  -1.381   9.168   9.766 -1.3006 -0.5870  1.1687
  353MOL0     H46565  -1.352   9.339   9.765 -0.4525 -0.0215 -0.5597
  353MOL0     H46566  -1.494   9.389   9.948 -1.6837  0.5073 -0.8487
  353MOL0     H46567  -1.500   9.214  10.006  0.8059 -1.3674 -0.1506
  353MOL0     H46568  -1.636   9.316   9.750 -2.6349  0.4267 -0.1629
  353MOL0     H46569  -1.666   9.157   9.807 -0.8000 -0.3595  0.7223
  353MOL0     H46570  -1.834   9.342   9.847  2.6536  3.4953 -2.1568
  353MOL0     H46571  -1.733   9.420   9.956 -1.5659 -0.3091  1.8180
  353MOL0     H46572  -1.743   9.284  10.127 -0.7389  0.9689 -0.0430
  353MOL0     H46573  -1.777   9.137  10.044 -2.5494 -0.5087  3.2533
  353MOL0     H46574  -1.966   9.376  10.095 -1.4656 -2.0734  2.1848
  353MOL0     H46575  -2.016   9.235   9.996 -3.2533  0.1083  1.0828
  353MOL0     H46576  -1.925   9.241  10.286  2.8938  1.8192 -3.1481
  353MOL0     H46577  -1.965   9.090  10.194  2.1036 -0.0697  1.7913
  353MOL0     H46578  -1.205   8.894  10.103 -1.1377  0.9601 -2.7937
  353MOL0     H46579  -1.014   8.822  10.212 -0.4213 -0.2822 -0.4295
  353MOL0     H46580  -0.630   9.058  10.630  2.5389 -0.5960  3.3083
  353MOL0     H46581  -0.403   8.958  10.687 -0.7837 -0.4764 -0.8766
  353MOL0     H46582   1.095   7.892  10.461 -0.3298  2.7814 -0.9540
  353MOL0     H46583   1.330   7.892  10.376  2.0402 -2.5458  1.4471
  353MOL0     H46584   1.736   7.590  10.357  3.0650 -1.1977  0.7829
  353MOL0     H46585   1.937   7.601  10.268 -0.6805  0.6138 -4.1312
  353MOL0     H46586   2.199   7.891  10.420 -1.8367 -3.0080  0.1494
  353MOL0     H46587   2.188   7.982  10.272  1.8164  0.3163 -0.7128
  353MOL0     H46588   2.340   7.715  10.314  0.4562 -0.9361  1.4146
  353MOL0     H46589   2.336   7.799  10.164 -1.4043  1.4460  0.1434
  353MOL0     H46590   2.551   7.843  10.275  0.2200  1.9387 -1.0393
  353MOL0     H46591   2.466   7.915  10.417  0.4288  1.4276  0.2498
  353MOL0     H46592   2.378   8.097  10.274 -0.2506 -0.3994 -0.8089
  353MOL0     H46593   2.561   8.094  10.258  0.5833 -1.9406  4.5328
  353MOL0     H46594   2.453   7.974   9.884 -2.7775  0.8221  0.0250
  353MOL0     H46595   1.979   8.005  10.421 -1.2912  1.8490  0.1350
  353MOL0     H46596   1.757   8.018  10.471 -2.6401 -1.2653  0.4723
  354MOL0     O46597   4.295   3.192   5.901  0.6543 -0.0828  0.1162
  354MOL0     C46598   4.326   3.145   5.795 -0.0078  0.1030  1.1475
  354MOL0     O46599   4.231   3.100   5.709  0.1830  0.3093 -0.3080
  354MOL0     C46600   4.099   3.113   5.742 -0.4279 -0.7540 -0.1857
  354MOL0     C46601   4.041   3.069   5.862  0.2260  0.0181 -0.7349
  354MOL0     C46602   3.911   3.117   5.896  0.1692 -0.3943  0.3122
  354MOL0     C46603   3.825   3.168   5.791  0.0967  0.0160 -0.2032
  354MOL0     O46604   3.692   3.188   5.817  0.2214 -0.0679  0.7453
  354MOL0     C46605   3.631   3.187   5.943 -0.1181  0.4365  0.1292
  354MOL0     C46606   3.626   3.329   6.004  0.2161 -0.3529 -0.5384
  354MOL0     C46607   3.563   3.430   5.908 -0.0674  0.5986 -0.2118
  354MOL0     C46608   3.527   3.560   5.991 -0.4199  0.3121  0.1871
  354MOL0     C46609   3.423   3.648   5.916 -0.4230  0.1355 -0.6330
  354MOL0     C46610   3.494   3.763   5.837 -0.2473  0.3627 -0.4049
  354MOL0     C46611   3.404   3.869   5.781  0.1225  1.2528  0.2362
  354MOL0     C46612   3.469   3.946   5.657 -0.5327  0.1128  0.4810
  354MOL0     N46613   3.348   4.010   5.595  0.2835  0.5531 -0.2598
  354MOL0     C46614   3.273   3.939   5.511 -0.5930  0.3647  0.2856
  354MOL0     C46615   3.174   4.027   5.485 -0.2897  0.2349 -0.2977
  354MOL0     C46616   3.056   4.011   5.386  0.0534  0.3719 -0.0087
  354MOL0     C46617   3.063   4.110   5.266  0.2301 -0.1934 -1.0595
  354MOL0     C46618   2.932   4.147   5.190  0.2444  0.0553 -0.4711
  354MOL0     C46619   2.826   4.036   5.177 -0.9397 -0.3339 -0.0673
  354MOL0     O46620   2.755   4.019   5.305  0.7849  0.4950  0.3227
  354MOL0     C46621   2.649   4.092   5.332  0.0948 -0.2699 -1.3620
  354MOL0     C46622   2.636   4.155   5.458  0.2825 -0.4170 -0.3957
  354MOL0     C46623   2.527   4.224   5.500 -0.6633 -0.3242  0.7882
  354MOL0     C46624   2.414   4.229   5.409  0.2162 -0.4988 -0.0468
  354MOL0     C46625   2.284   4.293   5.456 -0.4011  0.0632 -0.8723
  354MOL0     O46626   2.275   4.341   5.583 -0.1427  0.0945  0.5187
  354MOL0     C46627   2.169   4.415   5.618  1.1023  0.7131 -0.0307
  354MOL0     C46628   2.048   4.343   5.640 -0.1813  0.1242 -0.3046
  354MOL0     C46629   1.936   4.410   5.674  0.6084  0.1508 -0.5558
  354MOL0     C46630   1.937   4.544   5.698  0.2962 -0.4002 -1.0009
  354MOL0     O46631   1.822   4.614   5.740  0.2459  0.4710  0.0811
  354MOL0     C46632   1.690   4.557   5.742  0.3671  0.1239 -0.7472
  354MOL0     C46633   1.610   4.565   5.615 -0.3008  0.5904  0.8409
  354MOL0     C46634   1.457   4.582   5.639  0.3227  0.6119 -1.0649
  354MOL0     C46635   1.403   4.446   5.699 -0.5495  0.7336 -0.3216
  354MOL0     C46636   1.250   4.440   5.672 -0.4297  0.4801 -1.1722
  354MOL0     C46637   1.185   4.335   5.768 -0.0591 -0.2159 -0.7326
  354MOL0     C46638   1.209   4.184   5.746  0.2289 -0.0662  0.6448
  354MOL0     C46639   1.079   4.116   5.775  0.2582  1.1000 -0.8604
  354MOL0    Cl46640   1.123   3.956   5.742 -0.2843 -0.2951 -0.0238
  354MOL0     C46641   2.055   4.616   5.677  0.1529  0.2537  0.1239
  354MOL0     C46642   2.178   4.552   5.634  0.9094 -0.5956 -0.2287
  354MOL0     O46643   2.198   4.310   5.371 -0.7750 -0.2101 -0.4769
  354MOL0     C46644   2.417   4.164   5.289  1.1790 -0.2049  1.1132
  354MOL0     C46645   2.536   4.085   5.249  0.4263 -0.7272 -0.4401
  354MOL0     N46646   3.191   4.143   5.559 -0.8004 -0.0207 -0.4364
  354MOL0     N46647   3.297   4.132   5.618 -0.8084  0.3402  0.4135
  354MOL0     C46648   3.876   3.177   5.664  0.4701  0.2011 -0.2791
  354MOL0     C46649   4.008   3.148   5.639  0.4044 -0.8807 -0.2647
  354MOL0     C46650   4.464   3.120   5.764  1.0197 -0.1655  0.3045
  354MOL0     C46651   4.563   3.197   5.826 -0.1827 -0.7341  0.4535
  354MOL0     C46652   4.698   3.187   5.792  1.0040 -1.3935 -0.0008
  354MOL0     C46653   4.738   3.081   5.706  0.1308  0.0086  0.5543
  354MOL0     O46654   4.879   3.074   5.680  0.0522  0.7225  0.1600
  354MOL0     C46655   4.919   3.011   5.562  0.4816 -0.0248  0.0040
  354MOL0     C46656   5.054   3.058   5.516  0.5233  0.8968  0.4096
  354MOL0     C46657   5.164   3.023   5.611 -0.0950 -0.1236  0.4190
  354MOL0     C46658   5.297   3.084   5.555 -0.7731  0.2022 -0.7121
  354MOL0     C46659   5.410   3.043   5.642 -0.2360  0.1770  0.0786
  354MOL0     C46660   5.497   3.025   5.726 -0.9183 -0.4604 -0.2762
  354MOL0     C46661   4.642   2.980   5.656 -0.4957 -0.4506 -0.7196
  354MOL0     C46662   4.504   3.017   5.672 -0.0118 -0.1637 -0.4420
  354MOL0     H46663   4.107   3.034   5.942 -3.5852 -0.9917  2.2877
  354MOL0     H46664   3.894   3.125   6.003  1.9536 -1.4692  0.7212
  354MOL0     H46665   3.678   3.118   6.013  0.1233 -0.9219 -1.3017
  354MOL0     H46666   3.525   3.158   5.942  0.2846 -1.5336  3.1101
  354MOL0     H46667   3.725   3.364   6.035 -0.4597  1.2990 -0.1544
  354MOL0     H46668   3.567   3.321   6.096  0.9683  0.7563  0.0577
  354MOL0     H46669   3.467   3.386   5.876  0.7011  0.8798 -3.2250
  354MOL0     H46670   3.629   3.450   5.824 -1.5158  0.3974 -1.4552
  354MOL0     H46671   3.487   3.518   6.083  1.1818 -1.5697  0.1093
  354MOL0     H46672   3.622   3.609   6.015  1.2121 -1.7624 -1.5504
  354MOL0     H46673   3.371   3.698   5.998 -0.0524 -2.7930  1.5591
  354MOL0     H46674   3.361   3.588   5.849 -0.3393 -0.8605  0.1443
  354MOL0     H46675   3.548   3.707   5.760  1.4900 -0.8320  1.5853
  354MOL0     H46676   3.567   3.814   5.900  0.0128 -1.3008  0.6815
  354MOL0     H46677   3.315   3.818   5.744 -0.6212  2.4119  0.3510
  354MOL0     H46678   3.369   3.937   5.859  1.4013  0.3717  1.6225
  354MOL0     H46679   3.515   3.891   5.575 -0.0749 -0.6206  1.2141
  354MOL0     H46680   3.548   4.015   5.690 -0.4741  0.8390 -1.0910
  354MOL0     H46681   3.296   3.849   5.455 -2.9143  1.8634 -3.5308
  354MOL0     H46682   2.964   4.028   5.444 -0.6468 -1.5726 -0.4781
  354MOL0     H46683   3.050   3.906   5.357 -1.2899  0.9212 -1.9444
  354MOL0     H46684   3.146   4.091   5.196  1.2161 -2.3481  0.5865
  354MOL0     H46685   3.088   4.204   5.317 -0.7170 -1.1353  1.2582
  354MOL0     H46686   2.891   4.231   5.247  0.8017 -1.5276  2.4538
  354MOL0     H46687   2.971   4.185   5.095 -0.7244  0.9456 -0.5402
  354MOL0     H46688   2.880   3.945   5.149  2.0453  1.6210 -1.1538
  354MOL0     H46689   2.759   4.049   5.091  0.2391 -1.7914 -1.2807
  354MOL0     H46690   2.730   4.149   5.512  2.1905 -1.0053 -3.5107
  354MOL0     H46691   2.524   4.272   5.597 -2.3569  1.7595 -0.2074
  354MOL0     H46692   2.042   4.238   5.610  0.8979 -0.3369  1.0016
  354MOL0     H46693   1.840   4.359   5.676 -1.4540  3.7250  0.9526
  354MOL0     H46694   1.623   4.609   5.812 -1.2139  0.5188 -2.4681
  354MOL0     H46695   1.699   4.451   5.770 -1.0918 -0.1395 -1.1800
  354MOL0     H46696   1.634   4.490   5.540 -0.2094  0.1276  1.3326
  354MOL0     H46697   1.650   4.657   5.570 -0.0308 -0.9214 -2.2407
  354MOL0     H46698   1.408   4.592   5.542 -3.7022 -0.5051  0.6816
  354MOL0     H46699   1.443   4.673   5.697 -0.6276  0.2093 -0.6589
  354MOL0     H46700   1.432   4.353   5.649 -2.8472 -0.6179  0.7108
  354MOL0     H46701   1.436   4.433   5.802  3.4070  0.9242 -1.4036
  354MOL0     H46702   1.236   4.419   5.566  2.4455  1.3556 -1.8089
  354MOL0     H46703   1.208   4.538   5.699 -2.6574 -1.1910  2.0444
  354MOL0     H46704   1.077   4.350   5.766 -0.3190 -1.2142  1.8454
  354MOL0     H46705   1.199   4.361   5.873 -1.1034 -1.3569 -0.2880
  354MOL0     H46706   1.235   4.164   5.641 -3.7762 -2.4829 -0.1158
  354MOL0     H46707   1.297   4.143   5.796 -0.0260 -0.3394  0.8708
  354MOL0     H46708   0.989   4.129   5.714 -1.3923 -1.4238  0.7985
  354MOL0     H46709   1.049   4.124   5.880  2.5601 -2.9996  0.3492
  354MOL0     H46710   2.061   4.723   5.691  0.6069 -0.0186  2.3577
  354MOL0     H46711   2.268   4.612   5.626  0.5199 -0.1259 -1.3415
  354MOL0     H46712   2.334   4.151   5.220  3.8585 -0.8169 -2.3057
  354MOL0     H46713   2.548   4.012   5.170 -1.7483 -2.5298  0.7677
  354MOL0     H46714   3.804   3.210   5.589  0.6786 -0.9850 -1.0415
  354MOL0     H46715   4.045   3.145   5.537  1.4701  1.4853 -0.0093
  354MOL0     H46716   4.536   3.276   5.896 -0.5965  1.6458 -2.2121
  354MOL0     H46717   4.766   3.258   5.838 -0.9627  0.7071 -0.1575
  354MOL0     H46718   4.839   3.014   5.488  1.7867  0.7045 -1.4230
  354MOL0     H46719   4.921   2.904   5.587  0.9706  0.1052  0.5419
  354MOL0     H46720   5.073   3.002   5.425  1.9507 -2.8265  2.7519
  354MOL0     H46721   5.047   3.166   5.501 -0.0464  0.8407  0.2402
  354MOL0     H46722   5.185   2.916   5.621  4.6170  0.5849  0.4228
  354MOL0     H46723   5.120   3.070   5.700 -0.9302  3.5277 -1.7459
  354MOL0     H46724   5.319   3.055   5.452 -0.3811  1.1215 -0.9024
  354MOL0     H46725   5.286   3.193   5.555  0.0205  0.2966  0.3018
  354MOL0     H46726   5.568   3.014   5.806 -3.2515  1.4108  2.2487
  354MOL0     H46727   4.677   2.890   5.607  1.2965 -1.2615  1.8700
  354MOL0     H46728   4.432   2.952   5.624  1.7995 -3.3498  0.8257
  355MOL0     O46729   3.641   4.342   1.330 -0.1141  0.1664 -0.1248
  355MOL0     C46730   3.614   4.221   1.315 -0.0411  0.1943 -0.3294
  355MOL0     O46731   3.489   4.163   1.334  0.1187 -0.1722 -0.8048
  355MOL0     C46732   3.370   4.225   1.374 -0.5086 -0.0568  0.5786
  355MOL0     C46733   3.336   4.364   1.359  0.2394 -0.6193  0.3477
  355MOL0     C46734   3.209   4.415   1.407 -1.6659 -0.3941  0.2363
  355MOL0     C46735   3.110   4.331   1.463  0.3884 -0.3188 -0.5470
  355MOL0     O46736   2.985   4.373   1.505 -0.2528  0.5558  0.3512
  355MOL0     C46737   2.936   4.493   1.445  0.1784  0.2717  0.1992
  355MOL0     C46738   2.778   4.509   1.464  0.0570  0.3695 -0.4708
  355MOL0     C46739   2.739   4.645   1.404 -0.0448  0.2188  0.3807
  355MOL0     C46740   2.583   4.662   1.421  0.2883  0.6503 -0.3151
  355MOL0     C46741   2.525   4.780   1.334 -0.8994 -0.4941  0.0060
  355MOL0     C46742   2.377   4.803   1.363 -0.3523  0.5694 -0.1592
  355MOL0     C46743   2.295   4.892   1.273  0.0523  0.0027 -0.5355
  355MOL0     C46744   2.338   5.039   1.274 -0.7703  0.5826  1.1706
  355MOL0     N46745   2.222   5.128   1.266 -0.4084  0.7337 -0.0210
  355MOL0     C46746   2.158   5.198   1.372  0.4978 -0.4223  0.3044
  355MOL0     C46747   2.039   5.240   1.319 -0.0351 -0.2955 -0.5382
  355MOL0     C46748   1.935   5.320   1.380 -0.0099 -0.4492 -0.0159
  355MOL0     C46749   1.886   5.230   1.504 -0.5193 -0.5925 -0.5465
  355MOL0     C46750   1.779   5.310   1.582  0.6168  0.0904  0.3516
  355MOL0     C46751   1.731   5.221   1.694 -0.5935 -0.0596  0.5583
  355MOL0     O46752   1.649   5.113   1.642  0.5736 -0.4740  0.1811
  355MOL0     C46753   1.547   5.054   1.716  0.1767 -0.7629  0.8007
  355MOL0     C46754   1.505   5.101   1.846  0.8990  0.0855  0.1384
  355MOL0     C46755   1.390   5.041   1.902  0.1908 -0.4948  0.6746
  355MOL0     C46756   1.312   4.939   1.832  0.1689  1.1850 -0.0000
  355MOL0     C46757   1.189   4.877   1.882 -0.6382 -0.4456  0.7558
  355MOL0     O46758   1.131   4.770   1.803 -0.3390  0.0126  0.3617
  355MOL0     C46759   1.023   4.716   1.851  0.3240  0.0236  0.1102
  355MOL0     C46760   0.901   4.778   1.877  0.1838  0.0993 -0.3979
  355MOL0     C46761   0.790   4.697   1.922 -0.4060  0.5905 -0.5335
  355MOL0     C46762   0.800   4.555   1.942 -0.1300 -0.2702  0.2108
  355MOL0     O46763   0.695   4.475   1.987 -0.4292 -0.6527 -0.4805
  355MOL0     C46764   0.557   4.516   1.974 -0.0417  0.4161 -0.1714
  355MOL0     C46765   0.514   4.520   2.115  0.9301 -0.5450 -0.0539
  355MOL0     C46766   0.363   4.571   2.129  0.5587  0.0615 -1.1175
  355MOL0     C46767   0.253   4.460   2.120  0.0307  0.2348  0.0755
  355MOL0     C46768   0.111   4.513   2.123 -0.0612  0.5023 -0.1530
  355MOL0     C46769   0.080   4.557   2.265 -0.1990 -0.6382 -1.2572
  355MOL0     C46770  -0.055   4.624   2.286 -0.2995 -0.0192  0.2789
  355MOL0     C46771  -0.069   4.766   2.225  0.2263  0.3090 -0.8996
  355MOL0    Cl46772   0.027   4.889   2.307  0.3170  0.3942  0.0677
  355MOL0     C46773   0.927   4.501   1.927  0.1893  0.2978  0.0302
  355MOL0     C46774   1.034   4.582   1.877  0.3115  0.2950  0.6036
  355MOL0     O46775   1.160   4.912   1.997 -0.4775 -0.7735  0.8523
  355MOL0     C46776   1.351   4.908   1.707 -0.3998  0.5961 -0.8000
  355MOL0     C46777   1.463   4.964   1.643  0.4626  0.1937 -0.5134
  355MOL0     N46778   2.038   5.202   1.185 -0.2855  0.6285  0.0593
  355MOL0     N46779   2.146   5.132   1.157  0.1871 -0.9375 -0.8380
  355MOL0     C46780   3.145   4.192   1.475  1.6587 -0.1199 -0.2561
  355MOL0     C46781   3.270   4.150   1.437  0.6667  0.6740 -0.4652
  355MOL0     C46782   3.722   4.129   1.265  0.6700  0.7557  0.8566
  355MOL0     C46783   3.838   4.168   1.207  0.4434  0.0231  0.8173
  355MOL0     C46784   3.938   4.079   1.172  0.4557 -0.2831  0.2306
  355MOL0     C46785   3.913   3.938   1.185 -0.3575  0.4024 -0.0794
  355MOL0     O46786   3.997   3.831   1.150 -0.1534 -0.5202  0.2426
  355MOL0     C46787   4.133   3.866   1.167  0.4767  0.2900 -0.0825
  355MOL0     C46788   4.226   3.753   1.117  0.1140  1.5182  0.0340
  355MOL0     C46789   4.369   3.809   1.119 -0.1401  0.5400 -0.2644
  355MOL0     C46790   4.481   3.731   1.054 -0.2891  0.2279  0.2148
  355MOL0     C46791   4.508   3.599   1.096  0.7585  0.7824  1.0518
  355MOL0     C46792   4.527   3.492   1.132 -0.0664  0.5350 -0.1483
  355MOL0     C46793   3.791   3.894   1.249 -0.3885  0.0628 -0.8545
  355MOL0     C46794   3.704   3.991   1.289 -0.5471 -0.8004 -0.0003
  355MOL0     H46795   3.395   4.443   1.314 -0.4703  0.2711  0.9399
  355MOL0     H46796   3.180   4.519   1.399 -2.1309 -0.5268  0.1607
  355MOL0     H46797   2.957   4.487   1.337 -2.7976  2.7621 -0.6656
  355MOL0     H46798   2.982   4.581   1.492 -3.3190  1.3431  1.9330
  355MOL0     H46799   2.749   4.512   1.569  2.3292  0.4970  0.2025
  355MOL0     H46800   2.725   4.423   1.425 -1.4945 -0.2077  2.6341
  355MOL0     H46801   2.761   4.628   1.298 -1.8401 -2.2128  0.3273
  355MOL0     H46802   2.795   4.736   1.430 -1.8905  1.5478 -0.1100
  355MOL0     H46803   2.543   4.563   1.399 -0.3513  0.3023  2.1091
  355MOL0     H46804   2.574   4.675   1.529  0.1876  0.6323 -0.3214
  355MOL0     H46805   2.531   4.771   1.225  2.5705 -1.9307  0.1870
  355MOL0     H46806   2.574   4.878   1.342 -1.8611  0.5032 -3.8902
  355MOL0     H46807   2.365   4.838   1.466  1.9914 -1.7084  0.9955
  355MOL0     H46808   2.334   4.703   1.360  0.5445 -0.1118  3.7565
  355MOL0     H46809   2.292   4.861   1.168  1.5967 -0.0477 -0.5830
  355MOL0     H46810   2.191   4.883   1.307 -0.2175  3.9649  0.1237
  355MOL0     H46811   2.404   5.050   1.187 -1.0357  1.5666  1.0820
  355MOL0     H46812   2.390   5.053   1.369 -1.2524  2.3594  1.2193
  355MOL0     H46813   2.199   5.225   1.469  0.6822  3.5082 -0.6951
  355MOL0     H46814   1.853   5.339   1.311  0.7694  1.2677 -0.5200
  355MOL0     H46815   1.974   5.418   1.409 -3.8572  1.2842 -0.0045
  355MOL0     H46816   1.975   5.219   1.567  0.2628 -0.7767 -1.6555
  355MOL0     H46817   1.850   5.132   1.473  1.5051 -1.9296  1.0418
  355MOL0     H46818   1.813   5.406   1.623 -0.6006 -0.2426  2.2704
  355MOL0     H46819   1.704   5.339   1.508  3.9590  5.1397 -1.5935
  355MOL0     H46820   1.669   5.292   1.750  0.4697  1.8180 -0.5594
  355MOL0     H46821   1.819   5.179   1.743  1.0932  1.3795 -1.1186
  355MOL0     H46822   1.556   5.177   1.904 -0.5994  0.3434  1.1761
  355MOL0     H46823   1.364   5.086   1.997 -1.0366 -0.3487  0.2819
  355MOL0     H46824   0.882   4.883   1.857 -0.1119 -0.1558 -1.4680
  355MOL0     H46825   0.689   4.734   1.935 -2.0549 -3.6835  0.4549
  355MOL0     H46826   0.506   4.430   1.930  0.4179 -0.8026  1.5910
  355MOL0     H46827   0.537   4.607   1.915  0.5061 -0.9528 -2.5825
  355MOL0     H46828   0.573   4.593   2.171  1.7938 -2.6262  1.9204
  355MOL0     H46829   0.520   4.418   2.153 -0.5104 -0.3417  0.8128
  355MOL0     H46830   0.343   4.637   2.044 -0.7077 -2.2639 -2.7292
  355MOL0     H46831   0.351   4.621   2.226  1.0218 -3.6875  1.0575
  355MOL0     H46832   0.278   4.416   2.023  2.5672 -1.4645  1.3676
  355MOL0     H46833   0.274   4.369   2.176 -0.9188  0.1358  0.2828
  355MOL0     H46834   0.049   4.428   2.092 -0.2232 -0.3190  2.1820
  355MOL0     H46835   0.104   4.597   2.054 -0.0940  0.0389 -0.7177
  355MOL0     H46836   0.157   4.626   2.302 -0.4765  0.1216 -2.0575
  355MOL0     H46837   0.095   4.461   2.315  2.7779 -0.6018 -1.8464
  355MOL0     H46838  -0.140   4.568   2.246 -0.0474  1.0992 -1.9398
  355MOL0     H46839  -0.071   4.635   2.394  0.5215 -0.4582  0.4594
  355MOL0     H46840  -0.174   4.789   2.248  0.0235 -1.5972  0.2634
  355MOL0     H46841  -0.054   4.766   2.116  0.8891  0.9097 -0.8165
  355MOL0     H46842   0.939   4.396   1.951 -1.2735  0.1098  0.0000
  355MOL0     H46843   1.122   4.524   1.849 -0.2016 -1.2677  2.0239
  355MOL0     H46844   1.298   4.835   1.647  0.0095  0.0541 -0.5153
  355MOL0     H46845   1.484   4.941   1.539 -0.2241 -0.8781 -0.4298
  355MOL0     H46846   3.067   4.135   1.524  3.6666 -2.0613  0.8623
  355MOL0     H46847   3.291   4.044   1.452 -0.5469  0.5754  0.7004
  355MOL0     H46848   3.866   4.272   1.198  2.8216 -0.4619  1.6701
  355MOL0     H46849   4.037   4.104   1.135  0.8517 -0.6699  1.0056
  355MOL0     H46850   4.146   3.895   1.272  0.9908  2.6849 -0.7451
  355MOL0     H46851   4.161   3.954   1.108  2.5921  0.1138  0.5594
  355MOL0     H46852   4.204   3.673   1.189 -0.9220  0.9663 -0.8592
  355MOL0     H46853   4.184   3.715   1.023 -1.3406 -0.7307  1.4892
  355MOL0     H46854   4.400   3.826   1.222  2.6368  1.6138 -1.1800
  355MOL0     H46855   4.369   3.906   1.069  0.1272  1.1964  0.9884
  355MOL0     H46856   4.461   3.728   0.947  0.1129  0.7552  0.1183
  355MOL0     H46857   4.570   3.793   1.070 -1.3471  1.8562  0.0484
  355MOL0     H46858   4.536   3.391   1.165  0.9447  0.5864 -0.2180
  355MOL0     H46859   3.777   3.788   1.268  1.2757 -0.1915 -0.8295
  355MOL0     H46860   3.607   3.964   1.330 -1.3655  2.3649  0.3799
  356MOL0     O46861   4.001   7.052   1.389  0.3152  0.2293 -0.6517
  356MOL0     C46862   4.025   7.157   1.440  0.4086  0.4040 -0.3178
  356MOL0     O46863   3.931   7.258   1.469  0.1801 -0.1268 -0.6722
  356MOL0     C46864   3.798   7.240   1.447  0.2050  1.2866 -0.4955
  356MOL0     C46865   3.715   7.202   1.552  1.3791 -0.1428 -0.7292
  356MOL0     C46866   3.580   7.207   1.522  1.9707  0.0548  0.8845
  356MOL0     C46867   3.521   7.240   1.397 -0.2052 -0.1751 -0.3843
  356MOL0     O46868   3.387   7.221   1.384 -0.5684 -0.2994  0.0033
  356MOL0     C46869   3.308   7.263   1.275 -0.4535  0.4462  0.3613
  356MOL0     C46870   3.159   7.261   1.321  0.1384  0.9552 -0.1334
  356MOL0     C46871   3.111   7.382   1.392 -0.2899  0.6034  0.2457
  356MOL0     C46872   3.133   7.366   1.543  0.0366  0.5225 -0.3305
  356MOL0     C46873   3.106   7.495   1.625  0.4047  0.6822  0.4694
  356MOL0     C46874   3.053   7.478   1.772 -0.8487 -0.2811 -0.0437
  356MOL0     C46875   3.011   7.609   1.819  0.3233  0.1190 -0.0469
  356MOL0     C46876   2.988   7.603   1.970 -0.0067 -0.1386 -0.1754
  356MOL0     N46877   2.867   7.522   2.010  0.6934  0.4208  0.3451
  356MOL0     C46878   2.727   7.565   1.995 -0.2810  0.3188  0.2682
  356MOL0     C46879   2.648   7.474   2.056 -0.2917  0.0886 -0.5271
  356MOL0     C46880   2.501   7.494   2.072 -0.4655 -0.9661 -0.0102
  356MOL0     C46881   2.452   7.467   2.211  0.9315 -0.3990  0.7206
  356MOL0     C46882   2.316   7.524   2.228  0.8985 -0.0665  0.5504
  356MOL0     C46883   2.253   7.509   2.370  0.6304  0.4831 -0.4870
  356MOL0     O46884   2.132   7.584   2.396  0.0865 -0.1259  0.4499
  356MOL0     C46885   2.074   7.553   2.517 -0.3257  1.0820 -0.7852
  356MOL0     C46886   2.147   7.493   2.620  0.5355 -1.0422  0.5390
  356MOL0     C46887   2.077   7.463   2.744  0.4387  0.0688 -0.1561
  356MOL0     C46888   1.942   7.495   2.757  0.1518  0.1274  0.5840
  356MOL0     C46889   1.865   7.461   2.880 -0.6630  0.3208 -0.6366
  356MOL0     O46890   1.944   7.389   2.977  0.3649 -0.0272  0.1942
  356MOL0     C46891   1.919   7.391   3.111 -0.7743 -0.2350  0.2344
  356MOL0     C46892   1.957   7.281   3.183 -0.7486  0.0712  0.0292
  356MOL0     C46893   1.945   7.276   3.319 -1.3855 -0.0107  0.2079
  356MOL0     C46894   1.895   7.382   3.396 -0.0805 -0.8530  0.2862
  356MOL0     O46895   1.903   7.362   3.529  0.1599  0.1297 -0.0486
  356MOL0     C46896   1.883   7.462   3.623 -0.2195  0.5424 -0.2596
  356MOL0     C46897   1.754   7.450   3.703  0.5624  0.4018  0.1896
  356MOL0     C46898   1.629   7.517   3.643 -0.0679  0.8837  0.2982
  356MOL0     C46899   1.509   7.469   3.718  0.5722 -0.7521  0.9682
  356MOL0     C46900   1.375   7.499   3.651 -0.4436 -0.7674  1.2893
  356MOL0     C46901   1.362   7.437   3.521 -0.0071 -0.1583 -0.5448
  356MOL0     C46902   1.233   7.361   3.498 -0.5724  0.7487  0.0975
  356MOL0     C46903   1.253   7.268   3.378  0.3824  0.4533 -0.1680
  356MOL0    Cl46904   1.258   7.380   3.227  0.3548  0.3484 -0.3498
  356MOL0     C46905   1.849   7.493   3.322 -0.8914  0.3891  0.3602
  356MOL0     C46906   1.864   7.498   3.184 -0.3344 -0.5390  0.0060
  356MOL0     O46907   1.757   7.518   2.902 -0.1102  0.9467  0.5625
  356MOL0     C46908   1.880   7.554   2.654  0.0458 -1.0042  0.3800
  356MOL0     C46909   1.942   7.584   2.532 -0.3641 -0.2268 -0.9515
  356MOL0     N46910   2.735   7.373   2.105 -0.2772 -0.0355  0.0833
  356MOL0     N46911   2.853   7.398   2.070 -0.1315  1.0900 -0.4076
  356MOL0     C46912   3.604   7.264   1.289 -0.0057 -0.2785  0.4126
  356MOL0     C46913   3.739   7.269   1.319  0.0987 -0.5770  1.0244
  356MOL0     C46914   4.163   7.172   1.495  0.0380 -0.3999 -0.2912
  356MOL0     C46915   4.256   7.070   1.474  0.2996  0.4332  0.1334
  356MOL0     C46916   4.390   7.082   1.508 -0.5871 -0.1644  0.1515
  356MOL0     C46917   4.439   7.190   1.578  0.0873  1.4900  0.2182
  356MOL0     O46918   4.570   7.186   1.620  0.8892 -0.3789 -0.2703
  356MOL0     C46919   4.596   7.253   1.745 -1.2081 -1.3551  0.4397
  356MOL0     C46920   4.542   7.152   1.845 -0.3194 -0.2916 -0.5089
  356MOL0     C46921   4.537   7.003   1.819 -1.6755  0.1213  0.0840
  356MOL0     C46922   4.501   6.923   1.934 -0.1591  0.4642 -0.5750
  356MOL0     C46923   4.483   6.777   1.905  0.4059  1.0290  0.1322
  356MOL0     C46924   4.465   6.660   1.888 -0.1231  0.1149 -0.2058
  356MOL0     C46925   4.342   7.291   1.606  1.0232 -0.7711  0.3745
  356MOL0     C46926   4.204   7.283   1.573 -0.1084 -0.1116  1.1745
  356MOL0     H46927   3.754   7.154   1.641 -1.3854 -3.7125 -1.1908
  356MOL0     H46928   3.508   7.173   1.596 -0.5645 -2.3794 -2.3984
  356MOL0     H46929   3.315   7.195   1.190  2.6675 -1.8808  2.2554
  356MOL0     H46930   3.333   7.362   1.237  2.0311 -0.4946 -0.6604
  356MOL0     H46931   3.162   7.174   1.388  0.9015  0.0448 -1.3076
  356MOL0     H46932   3.097   7.240   1.234  0.0211  2.4130 -0.4261
  356MOL0     H46933   3.002   7.379   1.382 -0.3849  1.6233  0.8966
  356MOL0     H46934   3.155   7.479   1.366 -0.8265  0.9330  0.5372
  356MOL0     H46935   3.066   7.291   1.586  1.7805 -0.7042  0.3472
  356MOL0     H46936   3.234   7.326   1.552 -0.8179 -1.3136  2.6580
  356MOL0     H46937   3.032   7.560   1.576  3.2752  2.7802 -1.3700
  356MOL0     H46938   3.194   7.560   1.628  0.5434  0.4738  1.3735
  356MOL0     H46939   3.136   7.438   1.832  1.1959 -1.0679 -3.1578
  356MOL0     H46940   2.975   7.402   1.773  0.6316 -1.9433 -1.8740
  356MOL0     H46941   3.075   7.695   1.799 -0.1707  0.4454 -0.2578
  356MOL0     H46942   2.918   7.638   1.770  0.2813  3.6502  1.7805
  356MOL0     H46943   2.983   7.707   2.003  3.7413  0.2715 -0.4419
  356MOL0     H46944   3.064   7.550   2.028 -1.8383  0.9867  3.5334
  356MOL0     H46945   2.698   7.662   1.955  2.3793  2.0921  2.3139
  356MOL0     H46946   2.447   7.424   2.008 -1.2332 -0.3782 -0.0072
  356MOL0     H46947   2.477   7.589   2.025 -2.3141 -2.6839 -2.7972
  356MOL0     H46948   2.516   7.506   2.291  0.8831 -0.0127  0.5765
  356MOL0     H46949   2.461   7.359   2.206  2.4119 -0.2785  0.1363
  356MOL0     H46950   2.339   7.626   2.198  2.1759 -0.6198 -0.4577
  356MOL0     H46951   2.243   7.480   2.158  0.4390  0.4977  0.6713
  356MOL0     H46952   2.329   7.548   2.438  2.2234  0.1717 -2.0027
  356MOL0     H46953   2.233   7.402   2.376 -2.2724  0.8731 -1.6585
  356MOL0     H46954   2.253   7.474   2.607  0.9651  1.0320  0.6317
  356MOL0     H46955   2.133   7.412   2.823  1.6451 -1.2675 -1.7995
  356MOL0     H46956   1.981   7.185   3.138 -0.3049  0.8242 -1.4380
  356MOL0     H46957   1.990   7.189   3.367 -1.4622 -0.6291 -0.8183
  356MOL0     H46958   1.888   7.563   3.582 -1.7551  0.3059 -1.1158
  356MOL0     H46959   1.973   7.463   3.685  0.1836  2.2724 -0.8248
  356MOL0     H46960   1.774   7.505   3.796  1.1710  1.0924 -0.3409
  356MOL0     H46961   1.740   7.344   3.727  2.2514 -0.0875 -0.8204
  356MOL0     H46962   1.621   7.483   3.539 -1.0376  2.3782 -0.1533
  356MOL0     H46963   1.638   7.625   3.653  3.7903  0.7143 -0.0554
  356MOL0     H46964   1.493   7.363   3.740 -3.4849 -0.9385 -1.7340
  356MOL0     H46965   1.507   7.515   3.818 -1.1127  2.6262 -0.4508
  356MOL0     H46966   1.364   7.607   3.638  0.3913 -0.5442  2.2649
  356MOL0     H46967   1.296   7.458   3.715 -0.8834  0.3660  1.4944
  356MOL0     H46968   1.446   7.371   3.497  0.2477  0.7925 -2.4517
  356MOL0     H46969   1.367   7.523   3.454  1.7268  0.4215  0.2934
  356MOL0     H46970   1.195   7.303   3.583  0.1220  1.4173  0.8917
  356MOL0     H46971   1.154   7.430   3.469  0.2526  0.0808 -4.6214
  356MOL0     H46972   1.162   7.208   3.369 -0.4117  1.4995  0.5933
  356MOL0     H46973   1.344   7.207   3.382 -0.1813 -0.3128  2.0761
  356MOL0     H46974   1.804   7.581   3.368 -1.1201  1.5947 -2.0436
  356MOL0     H46975   1.826   7.583   3.129 -2.1648  0.2420  2.3035
  356MOL0     H46976   1.776   7.585   2.657 -0.1388 -0.6706 -3.4860
  356MOL0     H46977   1.892   7.621   2.442 -1.3010  0.7195 -0.0691
  356MOL0     H46978   3.578   7.276   1.184  2.9452  0.5993 -0.3381
  356MOL0     H46979   3.807   7.301   1.240 -2.0620 -2.4121 -1.7565
  356MOL0     H46980   4.231   6.982   1.417  0.0505  1.3661 -1.2394
  356MOL0     H46981   4.454   6.996   1.488 -0.6164  0.2700 -2.0791
  356MOL0     H46982   4.554   7.352   1.765 -0.6748 -1.0135 -0.0948
  356MOL0     H46983   4.704   7.264   1.761 -0.4615 -2.3039 -3.0890
  356MOL0     H46984   4.592   7.172   1.940 -1.4206  1.9457 -0.3294
  356MOL0     H46985   4.439   7.172   1.873 -1.0201 -3.0611 -0.8066
  356MOL0     H46986   4.626   6.959   1.775 -2.5350 -1.2007 -0.4060
  356MOL0     H46987   4.455   6.991   1.747 -3.4642  1.6159  1.7494
  356MOL0     H46988   4.581   6.925   2.009  0.0855 -2.3167 -0.6537
  356MOL0     H46989   4.409   6.961   1.978  0.7378  2.5174 -0.3899
  356MOL0     H46990   4.447   6.556   1.875  2.0721 -0.7161  2.4321
  356MOL0     H46991   4.367   7.379   1.664  1.0038 -0.5776  0.0853
  356MOL0     H46992   4.129   7.358   1.595 -0.5801 -0.5270  1.0087
  357MOL0     O46993   9.274   7.390  10.629 -0.4933 -0.4700  0.3920
  357MOL0     C46994   9.204   7.465  10.562  0.0071 -0.0692 -0.7954
  357MOL0     O46995   9.057   7.454  10.550  0.4044  0.6219 -0.6607
  357MOL0     C46996   8.974   7.408  10.647 -0.0063  0.7780 -0.1790
  357MOL0     C46997   9.006   7.426  10.782  0.1669 -1.3280  0.2432
  357MOL0     C46998   8.927   7.392  10.893  0.2842 -0.2958  0.9829
  357MOL0     C46999   8.800   7.337  10.866 -0.1048  0.0597 -0.4137
  357MOL0     O47000   8.725   7.306  10.978 -0.9931  0.7920  0.2799
  357MOL0     C47001   8.594   7.254  10.941  0.4187 -0.5062 -0.3317
  357MOL0     C47002   8.511   7.241  11.073 -0.6696 -0.1375 -0.5278
  357MOL0     C47003   8.365   7.225  11.062  0.1431  0.4877  0.6663
  357MOL0     C47004   8.318   7.083  11.004 -0.6104  0.1435  0.2851
  357MOL0     C47005   8.242   7.098  10.878 -0.1909 -0.7095  0.0817
  357MOL0     C47006   8.164   6.968  10.837 -0.2851 -0.2675 -0.1732
  357MOL0     C47007   8.051   7.003  10.736 -1.1755  0.1009 -0.9658
  357MOL0     C47008   7.937   7.092  10.793  0.2936 -0.2768  0.0256
  357MOL0     N47009   7.814   7.057  10.729 -0.2219  0.8646  0.1046
  357MOL0     C47010   7.768   7.108  10.611  0.6385 -0.5392 -0.6893
  357MOL0     C47011   7.652   7.044  10.586 -0.1286 -0.2615 -0.2790
  357MOL0     C47012   7.549   7.066  10.475  0.2808 -0.1334  0.7583
  357MOL0     C47013   7.431   7.151  10.530  0.6134 -0.2873 -0.0145
  357MOL0     C47014   7.298   7.070  10.565  0.3462  0.0771  0.2847
  357MOL0     C47015   7.186   7.173  10.587 -0.1615 -0.3104  0.0132
  357MOL0     O47016   7.167   7.252  10.465 -0.5086  0.5152 -0.6211
  357MOL0     C47017   7.084   7.359  10.477 -0.0829  0.0203  1.0578
  357MOL0     C47018   7.064   7.435  10.590 -0.7328 -0.4474 -0.1360
  357MOL0     C47019   6.975   7.545  10.591 -0.6731  1.5065  0.6489
  357MOL0     C47020   6.885   7.554  10.482 -0.2505 -0.5199 -0.2769
  357MOL0     C47021   6.779   7.667  10.478 -1.1760  0.6635  0.8297
  357MOL0     O47022   6.701   7.655  10.369  0.5164 -0.6778 -0.3785
  357MOL0     C47023   6.582   7.730  10.370  0.0653  0.6799 -0.0328
  357MOL0     C47024   6.472   7.653  10.344  0.1569 -0.6844 -0.1993
  357MOL0     C47025   6.352   7.715  10.332 -0.0109 -0.2777  0.0572
  357MOL0     C47026   6.335   7.852  10.332 -0.5054 -0.1127  0.3304
  357MOL0     O47027   6.218   7.920  10.331  0.4723 -0.5160 -0.1045
  357MOL0     C47028   6.154   7.908  10.202  0.4199 -0.3332 -0.2989
  357MOL0     C47029   6.073   8.029  10.169  0.9610 -1.2875  0.3243
  357MOL0     C47030   5.932   8.010  10.232 -0.1793  0.2920 -1.2876
  357MOL0     C47031   5.841   8.139  10.229  0.8310 -0.3167  0.2229
  357MOL0     C47032   5.703   8.094  10.274  0.2061 -0.6017 -0.3087
  357MOL0     C47033   5.614   8.025  10.175 -0.3542  0.2590 -1.1060
  357MOL0     C47034   5.480   7.990  10.248 -0.0225  0.4208  0.3674
  357MOL0     C47035   5.379   8.101  10.232  0.5762  0.2361 -0.9695
  357MOL0    Cl47036   5.214   8.025  10.273 -0.3403 -0.6034 -0.2051
  357MOL0     C47037   6.455   7.931  10.345  0.2608  0.2269 -0.0375
  357MOL0     C47038   6.575   7.866  10.375 -0.1494 -1.1481  0.5262
  357MOL0     O47039   6.777   7.752  10.567 -0.2154  0.9445 -0.2887
  357MOL0     C47040   6.911   7.484  10.364  0.0016  0.0527  0.2402
  357MOL0     C47041   7.005   7.385  10.361 -0.3288  0.0634  0.1510
  357MOL0     N47042   7.623   6.963  10.691  0.9845 -0.3771  0.1409
  357MOL0     N47043   7.722   6.970  10.779 -0.2095 -0.0039  0.0361
  357MOL0     C47044   8.768   7.299  10.732 -0.0309  0.8933 -0.1824
  357MOL0     C47045   8.853   7.344  10.622  0.1288  0.0759 -0.8477
  357MOL0     C47046   9.258   7.555  10.466  0.6819  0.5114  0.2409
  357MOL0     C47047   9.170   7.603  10.364 -1.4249  0.4922 -0.1384
  357MOL0     C47048   9.225   7.678  10.264  0.4904  0.1156  0.2426
  357MOL0     C47049   9.358   7.701  10.248 -0.9778  0.0030  0.2335
  357MOL0     O47050   9.408   7.757  10.135  0.0225  0.3896 -0.1754
  357MOL0     C47051   9.547   7.789  10.117 -0.3771 -0.5417  0.4786
  357MOL0     C47052   9.587   7.929  10.156 -0.3596 -0.7832 -0.4340
  357MOL0     C47053   9.731   7.940  10.218  0.5115 -0.2155  0.6694
  357MOL0     C47054   9.772   8.079  10.277  0.0560 -0.0298  0.2775
  357MOL0     C47055   9.798   8.175  10.164  0.2449  0.3009 -0.2181
  357MOL0     C47056   9.806   8.260  10.082  0.4752 -0.7886  0.6455
  357MOL0     C47057   9.441   7.661  10.355  0.0112 -0.3657 -0.1669
  357MOL0     C47058   9.392   7.594  10.465  0.4730  0.3621  0.0827
  357MOL0     H47059   9.100   7.477  10.803 -0.3544  0.1756 -0.9245
  357MOL0     H47060   8.964   7.426  10.989 -0.6865  1.0363  0.9119
  357MOL0     H47061   8.602   7.153  10.899 -2.2849 -0.5571 -0.9084
  357MOL0     H47062   8.540   7.316  10.870  1.1783  1.7069  0.9380
  357MOL0     H47063   8.535   7.321  11.144  1.4269  0.7458 -2.0988
  357MOL0     H47064   8.548   7.149  11.120 -0.6817 -0.0890 -0.4230
  357MOL0     H47065   8.323   7.303  10.998 -0.7256 -0.4020  0.1039
  357MOL0     H47066   8.319   7.230  11.161  0.1077  3.1847  0.5935
  357MOL0     H47067   8.408   7.024  10.981  0.0080 -0.6006  3.9932
  357MOL0     H47068   8.262   7.021  11.074 -0.5811 -1.5835 -1.1209
  357MOL0     H47069   8.307   7.110  10.791  1.0685  1.8840  1.2803
  357MOL0     H47070   8.177   7.185  10.886 -0.7584 -1.0559 -0.6370
  357MOL0     H47071   8.119   6.916  10.922  0.3708 -1.2631 -0.4213
  357MOL0     H47072   8.244   6.902  10.802  2.4819  1.1184  2.9912
  357MOL0     H47073   8.092   7.041  10.643  0.3091 -1.8459 -1.1676
  357MOL0     H47074   8.008   6.906  10.710 -0.9930 -0.2446 -0.0300
  357MOL0     H47075   7.972   7.193  10.768  1.1747 -1.3659 -3.7469
  357MOL0     H47076   7.939   7.075  10.901 -0.9631  0.1528  0.1309
  357MOL0     H47077   7.809   7.193  10.558  2.2336 -1.9292 -1.7747
  357MOL0     H47078   7.517   6.967  10.443  0.6831  0.8712 -3.2748
  357MOL0     H47079   7.592   7.115  10.387 -0.1535 -3.8278 -1.7314
  357MOL0     H47080   7.416   7.215  10.443 -0.9114 -2.2762 -1.2965
  357MOL0     H47081   7.474   7.211  10.611  3.0395  0.0002 -1.4183
  357MOL0     H47082   7.270   7.011  10.476 -1.0698  1.2581 -0.0777
  357MOL0     H47083   7.305   7.003  10.651 -2.5009 -1.4370 -0.5144
  357MOL0     H47084   7.228   7.239  10.663 -0.4267  0.7941 -0.7716
  357MOL0     H47085   7.095   7.117  10.609  0.0711 -0.0729  1.6864
  357MOL0     H47086   7.124   7.419  10.679 -3.4061 -0.6294  1.7503
  357MOL0     H47087   6.963   7.606  10.680  0.2309  2.2504  0.2852
  357MOL0     H47088   6.476   7.549  10.315 -1.1345 -0.6963 -0.3859
  357MOL0     H47089   6.264   7.653  10.318 -0.2516 -0.2210  1.1981
  357MOL0     H47090   6.095   7.816  10.195  0.4310 -0.6050  2.2491
  357MOL0     H47091   6.220   7.904  10.115 -1.5946  0.2226 -1.9508
  357MOL0     H47092   6.052   8.049  10.063  2.0829 -1.3816  0.0691
  357MOL0     H47093   6.126   8.111  10.218 -1.3608  0.1059  0.6217
  357MOL0     H47094   5.947   7.974  10.334  2.1000 -3.9843 -2.9040
  357MOL0     H47095   5.886   7.929  10.175 -0.4407  1.3050 -2.5750
  357MOL0     H47096   5.881   8.211  10.301 -0.1290 -0.5735  1.0486
  357MOL0     H47097   5.829   8.181  10.129  0.0490 -2.7573 -0.7798
  357MOL0     H47098   5.652   8.185  10.306  1.0579 -0.3729  0.4340
  357MOL0     H47099   5.715   8.043  10.371 -0.8902 -1.1792 -0.4544
  357MOL0     H47100   5.663   7.930  10.153  1.4627  0.6189  1.1279
  357MOL0     H47101   5.600   8.093  10.090  0.7567  2.9066  0.6923
  357MOL0     H47102   5.441   7.895  10.210 -2.1380  1.8952 -1.4147
  357MOL0     H47103   5.498   7.968  10.354 -3.5114 -0.4256  0.9044
  357MOL0     H47104   5.375   8.125  10.126 -0.6414 -3.4345 -1.9204
  357MOL0     H47105   5.397   8.192  10.290 -0.8371 -1.7483  2.9701
  357MOL0     H47106   6.442   8.038  10.350 -1.2268  0.1062  5.8576
  357MOL0     H47107   6.661   7.922  10.410  0.2195 -0.1141 -1.8555
  357MOL0     H47108   6.859   7.499  10.270  3.7843  1.2555 -1.8682
  357MOL0     H47109   7.005   7.321  10.273 -0.3375 -0.6058  0.6307
  357MOL0     H47110   8.675   7.249  10.706 -0.1572  1.1197 -0.1702
  357MOL0     H47111   8.829   7.310  10.522 -1.0169  2.8948 -1.6260
  357MOL0     H47112   9.066   7.576  10.352 -0.9280 -0.6168 -2.4323
  357MOL0     H47113   9.152   7.713  10.192 -1.7145 -0.3745  2.1176
  357MOL0     H47114   9.564   7.780  10.009  2.4788  2.5487  0.5004
  357MOL0     H47115   9.613   7.712  10.158  2.4964  1.0987 -0.7492
  357MOL0     H47116   9.580   7.989  10.065  1.3533 -0.0863 -0.1403
  357MOL0     H47117   9.511   7.970  10.224  2.4568  2.1452  1.2203
  357MOL0     H47118   9.810   7.897  10.155 -2.3188 -3.7395 -0.8318
  357MOL0     H47119   9.718   7.875  10.305 -0.1319 -0.4261  0.4198
  357MOL0     H47120   9.701   8.126  10.346  1.2492  3.0944 -0.4578
  357MOL0     H47121   9.860   8.058  10.337  0.3817  1.8045  0.5159
  357MOL0     H47122   9.801   8.335  10.005 -2.1630 -0.7920  0.7073
  357MOL0     H47123   9.544   7.693  10.358 -0.4256  1.1144  0.3074
  357MOL0     H47124   9.451   7.559  10.549 -1.1461  1.4519  1.7555
  358MOL0     O47125   7.470   2.311   5.044  0.5779  0.9062 -0.1949
  358MOL0     C47126   7.541   2.286   5.145  0.1380  0.4497 -0.0690
  358MOL0     O47127   7.678   2.321   5.161 -0.2564 -0.9358  0.6713
  358MOL0     C47128   7.743   2.401   5.062  1.3391 -0.9259 -0.3284
  358MOL0     C47129   7.854   2.352   4.985  0.3453 -0.6608 -0.8712
  358MOL0     C47130   7.906   2.429   4.887  0.2001 -0.2748  0.4588
  358MOL0     C47131   7.853   2.556   4.864  0.0491 -0.1952  0.9036
  358MOL0     O47132   7.929   2.621   4.768  0.1268 -0.7791  0.5166
  358MOL0     C47133   7.967   2.747   4.805 -1.2612  0.4792 -0.2889
  358MOL0     C47134   8.101   2.745   4.886  0.1250 -0.5106  0.2599
  358MOL0     C47135   8.226   2.725   4.800 -0.1363  0.0107  0.5138
  358MOL0     C47136   8.358   2.731   4.879 -0.1616 -0.4033 -0.0519
  358MOL0     C47137   8.476   2.679   4.801  0.0299 -0.9349 -0.5038
  358MOL0     C47138   8.596   2.662   4.902 -0.3302 -0.1682 -0.7291
  358MOL0     C47139   8.717   2.594   4.827 -0.4359 -0.1187  0.1642
  358MOL0     C47140   8.813   2.531   4.934 -0.4340  0.9111 -0.0115
  358MOL0     N47141   8.936   2.510   4.865 -0.2981 -0.7353 -0.9602
  358MOL0     C47142   9.021   2.614   4.857 -0.0714 -0.4510  0.3148
  358MOL0     C47143   9.105   2.575   4.761  0.6857 -1.2293 -1.0884
  358MOL0     C47144   9.217   2.664   4.708 -0.1539  0.2858 -0.1806
  358MOL0     C47145   9.335   2.583   4.658  0.0205 -0.3294  0.5401
  358MOL0     C47146   9.428   2.500   4.754  0.9826 -1.3053 -0.3882
  358MOL0     C47147   9.474   2.587   4.873 -0.1329  0.8644 -0.4529
  358MOL0     O47148   9.545   2.507   4.970  0.4882 -0.0393 -0.5436
  358MOL0     C47149   9.677   2.487   4.937 -0.3223  0.3527 -0.2457
  358MOL0     C47150   9.779   2.582   4.964 -0.0595 -0.6769 -0.1068
  358MOL0     C47151   9.913   2.566   4.907  1.0529  0.1132 -0.6462
  358MOL0     C47152   9.954   2.447   4.836 -0.4786 -0.8097 -0.3073
  358MOL0     C47153  10.084   2.438   4.772  0.7666 -1.3277  0.4434
  358MOL0     O47154  10.158   2.552   4.763  0.1500  0.2558  0.2407
  358MOL0     C47155  10.277   2.550   4.697  0.2612  0.7320 -0.2749
  358MOL0     C47156  10.401   2.500   4.763  0.1398 -0.3712  0.5858
  358MOL0     C47157  10.527   2.533   4.698  0.7696 -0.2316  0.4543
  358MOL0     C47158  10.525   2.623   4.588 -0.2722 -0.0012 -0.4953
  358MOL0     O47159  10.650   2.657   4.545  0.1353  0.0739  0.5467
  358MOL0     C47160  10.683   2.695   4.411  0.1763  0.4580 -0.7859
  358MOL0     C47161  10.834   2.706   4.398 -0.8252 -0.9035 -0.1912
  358MOL0     C47162  10.874   2.696   4.253 -0.7975  0.1670  0.6899
  358MOL0     C47163  11.031   2.678   4.245 -0.0149 -0.5069 -0.6107
  358MOL0     C47164  11.064   2.643   4.097 -0.5567  0.6547 -0.5680
  358MOL0     C47165  11.207   2.628   4.063  0.4644  0.2022  0.6277
  358MOL0     C47166  11.271   2.514   4.144  0.3734  0.1510 -0.1016
  358MOL0     C47167  11.422   2.506   4.133  0.5848  0.4038  0.6810
  358MOL0    Cl47168  11.469   2.511   3.959 -0.0096 -0.0884  0.1931
  358MOL0     C47169  10.409   2.673   4.535  0.8059  0.2356 -0.2774
  358MOL0     C47170  10.283   2.640   4.597 -0.9526  1.2378 -0.2539
  358MOL0     O47171  10.110   2.337   4.723  0.3909 -0.0669  0.5517
  358MOL0     C47172   9.845   2.353   4.824 -0.2095 -0.5170  1.1942
  358MOL0     C47173   9.715   2.376   4.870 -0.6114  0.4101 -0.8343
  358MOL0     N47174   9.059   2.462   4.702  0.6422 -0.0784 -0.4078
  358MOL0     N47175   8.955   2.427   4.762  0.0490  0.1645  0.1896
  358MOL0     C47176   7.745   2.605   4.933 -0.2043 -0.0828 -0.2354
  358MOL0     C47177   7.682   2.528   5.028 -0.1568  0.0224 -0.2719
  358MOL0     C47178   7.468   2.250   5.263  0.0834 -0.1757  0.6876
  358MOL0     C47179   7.532   2.237   5.383 -0.2437 -0.3743 -0.0972
  358MOL0     C47180   7.462   2.204   5.497 -0.6521 -0.5807  0.0104
  358MOL0     C47181   7.327   2.199   5.503  0.1385 -0.2730 -0.5807
  358MOL0     O47182   7.277   2.171   5.628  0.7884 -0.2208 -0.2516
  358MOL0     C47183   7.142   2.123   5.633 -0.2236 -1.4981  0.4617
  358MOL0     C47184   7.128   1.983   5.565  1.2428  0.2515 -0.1368
  358MOL0     C47185   6.981   1.942   5.574  0.7284 -0.3982 -0.2304
  358MOL0     C47186   6.904   1.937   5.440 -0.4023 -0.0166 -0.0167
  358MOL0     C47187   6.878   2.074   5.401  0.5085  0.1244  0.7160
  358MOL0     C47188   6.848   2.177   5.351 -0.0869  0.3160 -0.1416
  358MOL0     C47189   7.259   2.228   5.386  0.0914 -0.0607 -0.1052
  358MOL0     C47190   7.330   2.256   5.268  0.1997  1.1106 -0.1122
  358MOL0     H47191   7.893   2.253   5.008 -1.1702 -1.0750  0.1153
  358MOL0     H47192   8.000   2.403   4.838 -0.8371  1.3954 -2.6710
  358MOL0     H47193   7.891   2.800   4.863 -0.5634 -1.2030  2.3418
  358MOL0     H47194   7.974   2.810   4.716 -2.6670 -1.4840 -1.8973
  358MOL0     H47195   8.103   2.680   4.974 -0.0338 -0.5344  0.2461
  358MOL0     H47196   8.115   2.838   4.940  1.7168  0.1429 -1.1599
  358MOL0     H47197   8.227   2.801   4.721  1.1793  3.1306  3.2851
  358MOL0     H47198   8.215   2.623   4.762 -0.5183  0.5358 -0.8663
  358MOL0     H47199   8.375   2.831   4.918  0.6797  0.0590 -1.5321
  358MOL0     H47200   8.341   2.660   4.961 -1.0047 -2.0035 -1.5432
  358MOL0     H47201   8.505   2.749   4.722  0.4235  0.3043  0.6994
  358MOL0     H47202   8.461   2.583   4.750  0.2138 -1.7591  0.9312
  358MOL0     H47203   8.571   2.593   4.983 -3.3735  0.8919 -0.6512
  358MOL0     H47204   8.627   2.759   4.940 -2.5895  0.7124 -0.9680
  358MOL0     H47205   8.675   2.515   4.763 -0.4231  1.7860 -2.3869
  358MOL0     H47206   8.771   2.665   4.764 -0.2645  0.6684  1.1855
  358MOL0     H47207   8.776   2.434   4.969 -0.5822  1.2087  0.6559
  358MOL0     H47208   8.835   2.595   5.020  2.2290  0.3394 -0.1907
  358MOL0     H47209   9.021   2.708   4.910  0.4623  0.8623 -1.9162
  358MOL0     H47210   9.239   2.742   4.781 -2.3145  0.2045  0.6451
  358MOL0     H47211   9.172   2.712   4.620 -1.9651 -0.0855  0.4885
  358MOL0     H47212   9.399   2.654   4.606 -0.4655 -3.1328 -4.4825
  358MOL0     H47213   9.305   2.518   4.575 -0.1528 -1.0385  1.1388
  358MOL0     H47214   9.367   2.413   4.777 -0.2214 -1.6921 -4.3210
  358MOL0     H47215   9.522   2.464   4.712 -0.1835 -2.2340 -2.3390
  358MOL0     H47216   9.390   2.637   4.921 -0.6073  1.1875 -1.5744
  358MOL0     H47217   9.538   2.661   4.823  0.8568 -1.2499 -2.5517
  358MOL0     H47218   9.752   2.683   4.993 -3.0843 -1.6391  0.7456
  358MOL0     H47219   9.981   2.645   4.937 -0.0253  0.2857  1.5645
  358MOL0     H47220  10.386   2.450   4.858  1.3086 -0.2944  0.8225
  358MOL0     H47221  10.620   2.505   4.746  0.6591  1.4189  1.7179
  358MOL0     H47222  10.629   2.787   4.384 -0.0527  0.3295 -0.7714
  358MOL0     H47223  10.654   2.625   4.332  1.1917  2.3950 -3.0013
  358MOL0     H47224  10.886   2.627   4.452  4.1003  0.5014 -2.3076
  358MOL0     H47225  10.873   2.800   4.438 -2.9356  0.4309 -1.1109
  358MOL0     H47226  10.860   2.789   4.197 -1.2210 -0.1751  0.2186
  358MOL0     H47227  10.834   2.611   4.197  2.0423 -0.3550 -0.7522
  358MOL0     H47228  11.077   2.769   4.284  0.7892 -1.0616 -0.2317
  358MOL0     H47229  11.061   2.592   4.306  0.4376 -0.1067 -0.2523
  358MOL0     H47230  11.025   2.729   4.041 -1.3444  1.2326  0.8178
  358MOL0     H47231  11.021   2.548   4.066  3.3346 -1.3978 -0.3085
  358MOL0     H47232  11.266   2.717   4.086  0.2631  0.3370  0.6276
  358MOL0     H47233  11.219   2.605   3.957  0.0676 -0.0433  0.6327
  358MOL0     H47234  11.260   2.528   4.252  1.8201  0.2348  0.0575
  358MOL0     H47235  11.223   2.421   4.109 -0.5055  1.2038 -1.8319
  358MOL0     H47236  11.465   2.411   4.166 -0.8464 -0.4839  0.0867
  358MOL0     H47237  11.463   2.580   4.203  2.8149 -0.9184  0.8660
  358MOL0     H47238  10.417   2.758   4.468  0.2921 -1.5197 -2.6852
  358MOL0     H47239  10.200   2.696   4.556 -1.6201  0.5369  0.0971
  358MOL0     H47240   9.877   2.258   4.780 -0.6194  0.3410 -1.1212
  358MOL0     H47241   9.643   2.303   4.834 -2.7114  1.8865  0.1856
  358MOL0     H47242   7.717   2.707   4.912 -0.4912  0.1214  1.0824
  358MOL0     H47243   7.595   2.562   5.083 -0.4383 -2.3490  0.8792
  358MOL0     H47244   7.639   2.225   5.397 -0.0639 -0.7721 -1.6559
  358MOL0     H47245   7.507   2.193   5.595 -0.9603 -0.5353  0.1577
  358MOL0     H47246   7.075   2.200   5.596 -0.1972 -1.0668  1.2924
  358MOL0     H47247   7.127   2.128   5.741  1.8741  3.8377  0.7737
  358MOL0     H47248   7.162   1.995   5.462 -0.1805  0.7119 -0.5879
  358MOL0     H47249   7.184   1.907   5.619 -2.7704 -2.8814  0.1284
  358MOL0     H47250   6.926   2.010   5.640  1.0712 -0.3276 -0.0177
  358MOL0     H47251   6.969   1.838   5.605 -4.2133  0.1801  0.7070
  358MOL0     H47252   6.963   1.886   5.364  2.4556  0.0474  1.9803
  358MOL0     H47253   6.812   1.880   5.455  0.3237 -1.1082  0.4009
  358MOL0     H47254   6.835   2.271   5.300 -0.7011 -0.4985 -1.5668
  358MOL0     H47255   7.152   2.246   5.392  0.2051  0.4363  0.5917
  358MOL0     H47256   7.268   2.267   5.180  3.4363 -0.2948 -2.7734
  359MOL0     O47257  10.167   4.931  10.874  0.4237  0.8084  0.1755
  359MOL0     C47258  10.120   4.899  10.977 -0.1338  0.3182  0.4435
  359MOL0     O47259   9.998   4.929  11.020  0.3563 -0.1875 -0.1839
  359MOL0     C47260   9.907   5.012  10.967  0.4342  0.8366 -0.5366
  359MOL0     C47261   9.787   4.999  11.042  0.5836  0.4202 -0.6690
  359MOL0     C47262   9.679   5.078  11.024 -0.5250  0.0287  0.2640
  359MOL0     C47263   9.684   5.183  10.929 -0.1840  0.1852 -0.2560
  359MOL0     O47264   9.572   5.247  10.912  0.8763  0.9466 -0.5007
  359MOL0     C47265   9.535   5.303  10.787 -1.0782 -0.4952 -0.3065
  359MOL0     C47266   9.383   5.305  10.786  1.1776 -0.0904 -0.0489
  359MOL0     C47267   9.323   5.171  10.784  0.0900  0.1173 -0.5124
  359MOL0     C47268   9.174   5.175  10.742  1.0687 -0.0091  0.6882
  359MOL0     C47269   9.121   5.030  10.708 -0.2014  0.6808 -0.5580
  359MOL0     C47270   8.978   5.034  10.655  0.2102  0.0575 -0.0963
  359MOL0     C47271   8.938   4.892  10.588  0.9307 -0.2187  0.8847
  359MOL0     C47272   8.930   4.773  10.690 -0.2684 -0.0141  0.5996
  359MOL0     N47273   8.867   4.644  10.646 -0.1464  0.3537  0.0996
  359MOL0     C47274   8.936   4.533  10.619 -0.0823  0.4590 -0.9427
  359MOL0     C47275   8.846   4.430  10.631  0.4413  0.6962 -0.3247
  359MOL0     C47276   8.872   4.292  10.593 -0.2614  0.1485 -0.8796
  359MOL0     C47277   8.781   4.242  10.484  0.6361 -0.4316  0.4919
  359MOL0     C47278   8.828   4.107  10.427  0.1446 -0.1576 -0.5782
  359MOL0     C47279   8.738   4.076  10.305 -0.3786 -0.3760  0.3711
  359MOL0     O47280   8.604   4.074  10.347  0.4507 -0.4652  0.4359
  359MOL0     C47281   8.500   4.082  10.261  0.1123  0.0569  0.6397
  359MOL0     C47282   8.515   4.066  10.120  1.1855  0.1417 -0.3177
  359MOL0     C47283   8.402   4.050  10.038  0.1571 -0.7059 -0.1441
  359MOL0     C47284   8.278   4.050  10.085 -0.0931 -0.4513 -0.1177
  359MOL0     C47285   8.164   4.040   9.998  0.1185 -0.0916 -0.8337
  359MOL0     O47286   8.179   3.966   9.889  0.8548  0.1149  0.2738
  359MOL0     C47287   8.070   3.963   9.807 -0.3084  0.9311  0.9920
  359MOL0     C47288   8.042   3.841   9.740  0.4118  0.4693  0.1050
  359MOL0     C47289   7.940   3.829   9.643 -0.2688 -0.1371 -0.7500
  359MOL0     C47290   7.870   3.949   9.607  1.1194  0.0305  0.0171
  359MOL0     O47291   7.756   3.946   9.531 -0.3292 -0.3878  0.1574
  359MOL0     C47292   7.764   3.872   9.411  0.3346  0.5436 -0.1325
  359MOL0     C47293   7.630   3.907   9.354  0.5759  0.6158  0.3996
  359MOL0     C47294   7.587   3.809   9.246 -0.0696 -0.6619 -0.5907
  359MOL0     C47295   7.519   3.687   9.310 -0.0291 -0.1911 -0.7400
  359MOL0     C47296   7.404   3.617   9.228 -0.4238  0.1770  0.2079
  359MOL0     C47297   7.446   3.575   9.083 -0.0970 -1.2601 -0.7748
  359MOL0     C47298   7.350   3.480   9.011  0.3677  0.4479  0.7745
  359MOL0     C47299   7.318   3.340   9.073  0.4306 -0.3038 -0.2047
  359MOL0    Cl47300   7.211   3.244   8.960  0.0644 -0.1379  0.1337
  359MOL0     C47301   7.909   4.070   9.673 -0.5039  0.1259  0.6977
  359MOL0     C47302   8.005   4.077   9.758  0.7953  1.1668 -0.7817
  359MOL0     O47303   8.061   4.092  10.036  0.0136  0.2985 -0.3630
  359MOL0     C47304   8.254   4.070  10.227  0.0915  0.5849 -0.0162
  359MOL0     C47305   8.367   4.082  10.308  0.2318 -0.7425 -0.0952
  359MOL0     N47306   8.727   4.478  10.677 -0.1403 -0.2016 -0.8902
  359MOL0     N47307   8.733   4.605  10.671  0.5077 -0.0514 -0.7775
  359MOL0     C47308   9.805   5.190  10.853  0.3532 -0.5396  0.9968
  359MOL0     C47309   9.916   5.110  10.867  0.3581  0.8584 -0.0940
  359MOL0     C47310  10.212   4.819  11.060 -0.2373  0.3239  0.0760
  359MOL0     C47311  10.158   4.744  11.162  0.4530  0.0158 -0.1829
  359MOL0     C47312  10.233   4.643  11.222  0.0911 -0.5482 -0.6359
  359MOL0     C47313  10.374   4.645  11.195  0.7726  1.0231 -0.4926
  359MOL0     O47314  10.441   4.539  11.260  0.6130  0.6834  0.4264
  359MOL0     C47315  10.469   4.565  11.400 -0.5141  0.1727  0.7717
  359MOL0     C47316  10.599   4.652  11.411 -0.9129 -0.1275  0.3159
  359MOL0     C47317  10.675   4.656  11.542 -0.4979 -0.9504 -0.0222
  359MOL0     C47318  10.821   4.699  11.522 -0.8909 -0.1287 -0.4832
  359MOL0     C47319  10.881   4.684  11.657  0.5662  0.4168 -0.1302
  359MOL0     C47320  10.925   4.689  11.768 -0.4090  0.1777 -0.2111
  359MOL0     C47321  10.424   4.714  11.092  0.0158 -0.0974  0.2472
  359MOL0     C47322  10.346   4.802  11.027  0.4137  0.7681 -0.0815
  359MOL0     H47323   9.773   4.916  11.111  1.5164  2.5205  2.2098
  359MOL0     H47324   9.591   5.048  11.081 -1.3838 -1.5715 -1.7526
  359MOL0     H47325   9.581   5.249  10.704 -1.8080  1.8426 -2.3764
  359MOL0     H47326   9.569   5.408  10.791 -1.4625 -0.3529 -0.7494
  359MOL0     H47327   9.353   5.359  10.696 -0.6758 -1.5966 -0.3950
  359MOL0     H47328   9.350   5.355  10.878 -1.2021  0.0158 -0.8939
  359MOL0     H47329   9.321   5.122  10.882  3.3961 -2.1847 -1.3983
  359MOL0     H47330   9.379   5.099  10.724 -2.2084 -1.4851 -0.8678
  359MOL0     H47331   9.119   5.215  10.828 -0.9469 -3.1055  1.0132
  359MOL0     H47332   9.147   5.241  10.660  0.3022  2.6139  2.9034
  359MOL0     H47333   9.131   4.965  10.796  2.7443 -1.0304 -2.0109
  359MOL0     H47334   9.180   4.986  10.628 -3.8985  0.3497 -3.3522
  359MOL0     H47335   8.973   5.112  10.578 -2.5195  1.6485  1.5554
  359MOL0     H47336   8.899   5.062  10.725  0.5973 -1.3808  0.9569
  359MOL0     H47337   8.843   4.893  10.534  2.8183 -0.6139 -2.8190
  359MOL0     H47338   9.014   4.872  10.512  0.6373  1.0062  0.2378
  359MOL0     H47339   8.862   4.807  10.768 -1.2755 -2.2563  0.7752
  359MOL0     H47340   9.031   4.771  10.732  0.3501  2.7419 -0.4720
  359MOL0     H47341   9.040   4.525  10.591  0.1576 -0.4770  0.1185
  359MOL0     H47342   8.864   4.223  10.678  1.1944  1.0301  0.0230
  359MOL0     H47343   8.980   4.282  10.575  0.4182  2.3160  1.4631
  359MOL0     H47344   8.785   4.316  10.404  0.2701  0.5936  1.3989
  359MOL0     H47345   8.678   4.223  10.513 -0.1927 -0.3101 -2.1032
  359MOL0     H47346   8.936   4.116  10.413 -0.2981  1.8504 -3.4432
  359MOL0     H47347   8.800   4.038  10.508 -1.3225 -0.3377 -1.2107
  359MOL0     H47348   8.772   3.983  10.260 -0.1614 -0.2094  0.1850
  359MOL0     H47349   8.744   4.162  10.237 -2.9449 -1.3170 -1.1702
  359MOL0     H47350   8.614   4.042  10.083  1.1453  1.3309 -1.2626
  359MOL0     H47351   8.436   4.049   9.935  1.0614  0.7778  0.1144
  359MOL0     H47352   8.085   3.746   9.771 -3.6712 -1.1732  1.4718
  359MOL0     H47353   7.923   3.731   9.600  2.9121  0.8198 -4.8949
  359MOL0     H47354   7.772   3.764   9.430  1.2805  0.7195  0.5582
  359MOL0     H47355   7.842   3.901   9.341 -0.5993  0.8999 -1.0543
  359MOL0     H47356   7.633   4.004   9.304  1.1142 -0.0858 -0.9802
  359MOL0     H47357   7.553   3.903   9.431  1.2832 -2.2663  1.0600
  359MOL0     H47358   7.670   3.798   9.176 -0.3366  2.9665 -1.6789
  359MOL0     H47359   7.508   3.857   9.186 -1.8042  2.3886  3.6463
  359MOL0     H47360   7.597   3.616   9.339 -0.8309 -0.4294  1.0133
  359MOL0     H47361   7.481   3.713   9.409 -1.4065 -2.9001 -0.4487
  359MOL0     H47362   7.323   3.690   9.226  0.1482  0.8054 -0.8067
  359MOL0     H47363   7.366   3.531   9.285  2.1084 -0.0556  1.6897
  359MOL0     H47364   7.544   3.527   9.092  1.4342  2.0058  2.4083
  359MOL0     H47365   7.462   3.664   9.022 -0.2349  2.6747  4.3277
  359MOL0     H47366   7.255   3.527   8.985  1.7060  1.5368 -2.6636
  359MOL0     H47367   7.398   3.455   8.916 -0.0550  2.0151  0.1305
  359MOL0     H47368   7.265   3.360   9.166 -0.0031 -2.9278  0.1806
  359MOL0     H47369   7.405   3.283   9.107 -0.2531 -1.9207 -1.0715
  359MOL0     H47370   7.857   4.157   9.634 -3.6706 -0.8319  2.3958
  359MOL0     H47371   8.016   4.168   9.816 -0.9554  1.8130 -1.3888
  359MOL0     H47372   8.156   4.076  10.274  0.2445 -3.5890  1.3048
  359MOL0     H47373   8.354   4.099  10.414  1.0344 -2.3410  0.2863
  359MOL0     H47374   9.824   5.269  10.782  2.6039 -0.0152  2.0924
  359MOL0     H47375   9.993   5.129  10.793 -2.3952  2.2309 -2.8630
  359MOL0     H47376  10.050   4.750  11.169  0.2091 -2.6958 -0.5292
  359MOL0     H47377  10.205   4.564  11.291  3.8631  0.5134  2.4799
  359MOL0     H47378  10.478   4.471  11.456  0.1682  1.6398  3.2897
  359MOL0     H47379  10.385   4.611  11.454  0.8443  0.9475  2.3338
  359MOL0     H47380  10.669   4.614  11.337 -2.0596  1.6593 -1.7944
  359MOL0     H47381  10.573   4.753  11.379 -2.8895 -0.9463 -0.8570
  359MOL0     H47382  10.657   4.564  11.597 -1.0352 -0.0627  1.3393
  359MOL0     H47383  10.628   4.730  11.608 -1.1500  0.2884 -1.7990
  359MOL0     H47384  10.871   4.634  11.449  0.6983  1.3161 -0.7310
  359MOL0     H47385  10.827   4.803  11.488  0.2070  0.0217  0.1241
  359MOL0     H47386  10.967   4.702  11.865 -0.2614 -1.9933  0.0677
  359MOL0     H47387  10.528   4.704  11.065 -0.0744 -1.1897  0.2553
  359MOL0     H47388  10.398   4.856  10.949  3.9966 -1.4884  0.5067
  360MOL0     O47389   2.530   4.672   4.917 -0.2799  0.5563  0.7183
  360MOL0     C47390   2.547   4.584   4.995  0.5269  0.4379 -0.4173
  360MOL0     O47391   2.457   4.481   5.014  0.8035  0.5470 -0.3140
  360MOL0     C47392   2.347   4.471   4.938 -0.0786  0.4718 -0.6090
  360MOL0     C47393   2.224   4.470   5.000  0.2929  0.8169 -0.2637
  360MOL0     C47394   2.105   4.445   4.934  0.7004  0.3261 -0.9061
  360MOL0     C47395   2.103   4.441   4.793  0.0029  0.4555  1.1176
  360MOL0     O47396   1.984   4.434   4.728  0.7779  0.8026  0.5955
  360MOL0     C47397   1.983   4.434   4.587 -0.6758  0.6635  0.3547
  360MOL0     C47398   1.853   4.467   4.532  0.9271 -0.7034  0.1626
  360MOL0     C47399   1.747   4.357   4.537 -0.7741  0.4788  0.7200
  360MOL0     C47400   1.695   4.335   4.684  1.2899 -0.0846 -0.0466
  360MOL0     C47401   1.556   4.266   4.694 -0.0207 -0.3713  0.0372
  360MOL0     C47402   1.500   4.230   4.830 -0.5035 -0.7012 -0.2250
  360MOL0     C47403   1.448   4.360   4.897 -0.0570 -0.4434 -0.0303
  360MOL0     C47404   1.331   4.425   4.836  0.1044 -1.5143 -0.0222
  360MOL0     N47405   1.217   4.336   4.799  0.2220 -0.6668  0.2414
  360MOL0     C47406   1.159   4.229   4.877 -0.5821  0.1183 -0.6984
  360MOL0     C47407   1.041   4.204   4.823  0.9786 -0.2020  0.4768
  360MOL0     C47408   0.941   4.094   4.865  0.3388  0.0970 -0.8501
  360MOL0     C47409   0.814   4.160   4.923 -0.8877 -0.3407 -0.2759
  360MOL0     C47410   0.704   4.050   4.928 -0.7109  0.2235  0.5766
  360MOL0     C47411   0.561   4.118   4.920  0.2410 -1.3115 -0.3280
  360MOL0     O47412   0.460   4.016   4.906  0.2942  0.5405  0.7502
  360MOL0     C47413   0.339   4.046   4.961  0.2121  0.0799  0.6460
  360MOL0     C47414   0.270   4.159   4.932 -1.1918 -0.1642 -0.9458
  360MOL0     C47415   0.148   4.180   5.009 -0.5370  1.3214 -0.1103
  360MOL0     C47416   0.088   4.073   5.081 -0.7723  0.0639  0.5363
  360MOL0     C47417  -0.054   4.083   5.129 -0.3038 -0.3628  0.1888
  360MOL0     O47418  -0.106   4.208   5.152  0.0947 -0.1336  0.8827
  360MOL0     C47419  -0.225   4.226   5.215  0.0381  0.0189 -0.4999
  360MOL0     C47420  -0.330   4.137   5.202 -0.2196  0.7317  0.3280
  360MOL0     C47421  -0.442   4.156   5.281  0.6747 -0.2276  0.4436
  360MOL0     C47422  -0.457   4.263   5.377  1.3208 -0.2794 -0.4185
  360MOL0     O47423  -0.573   4.279   5.458  0.1074 -0.5789 -0.4040
  360MOL0     C47424  -0.637   4.160   5.507 -1.0534 -0.2099 -0.0794
  360MOL0     C47425  -0.691   4.171   5.656  0.2163  0.4981  0.1853
  360MOL0     C47426  -0.808   4.260   5.664  0.4887 -0.6909  0.9084
  360MOL0     C47427  -0.867   4.254   5.808 -0.2053 -0.3037  0.5813
  360MOL0     C47428  -0.997   4.341   5.824  0.2236  0.0242  0.4028
  360MOL0     C47429  -1.015   4.397   5.967  0.1960  0.2547  0.2338
  360MOL0     C47430  -1.138   4.487   5.994 -0.0738  0.0221  0.7868
  360MOL0     C47431  -1.259   4.418   6.056 -0.1661 -0.5772 -0.1636
  360MOL0    Cl47432  -1.309   4.278   5.956 -0.0498 -0.2361  0.2717
  360MOL0     C47433  -0.359   4.362   5.374  0.3204  0.9764  0.3998
  360MOL0     C47434  -0.243   4.337   5.299 -0.0041 -0.0294  0.2318
  360MOL0     O47435  -0.105   3.979   5.158  0.0300 -0.1316 -0.2337
  360MOL0     C47436   0.160   3.955   5.086  0.1024 -0.2452  0.5066
  360MOL0     C47437   0.284   3.941   5.029 -1.0634 -0.3161 -0.1194
  360MOL0     N47438   1.036   4.271   4.707  0.7131  0.4223 -0.0688
  360MOL0     N47439   1.127   4.361   4.699 -0.0298 -0.2760  0.3752
  360MOL0     C47440   2.232   4.444   4.727  0.8488  0.2726 -0.2961
  360MOL0     C47441   2.342   4.463   4.800 -0.5285  0.0357  0.9092
  360MOL0     C47442   2.663   4.580   5.075 -0.5983  0.6989  0.6100
  360MOL0     C47443   2.763   4.671   5.063 -1.4639 -0.0688  1.2989
  360MOL0     C47444   2.882   4.676   5.140  0.4676  0.1292 -0.1945
  360MOL0     C47445   2.905   4.570   5.229 -0.1659  0.0595 -0.6263
  360MOL0     O47446   3.020   4.552   5.302 -0.4393  0.1055  0.4240
  360MOL0     C47447   3.140   4.627   5.277  0.3257 -0.0629  0.7061
  360MOL0     C47448   3.260   4.539   5.270 -0.7573  0.6363 -0.5176
  360MOL0     C47449   3.299   4.504   5.415 -0.2809  0.7172  0.1229
  360MOL0     C47450   3.424   4.409   5.429  0.1177  0.4070 -1.4505
  360MOL0     C47451   3.550   4.458   5.370 -0.0614 -0.9736 -0.2531
  360MOL0     C47452   3.662   4.489   5.337  0.2679  0.5385 -0.2674
  360MOL0     C47453   2.800   4.479   5.258  0.3937  0.6814  0.5000
  360MOL0     C47454   2.685   4.485   5.185  0.1300 -1.0360  0.6402
  360MOL0     H47455   2.239   4.473   5.107  0.7040  1.4715 -0.3276
  360MOL0     H47456   2.009   4.417   4.975  2.3775 -1.1237  2.3702
  360MOL0     H47457   1.995   4.335   4.543 -2.7279  0.2620  0.6311
  360MOL0     H47458   2.059   4.507   4.556  0.1121  1.6968  4.1878
  360MOL0     H47459   1.858   4.498   4.428  0.5173 -0.7524  0.1240
  360MOL0     H47460   1.810   4.556   4.581 -0.8894 -0.8678 -1.0361
  360MOL0     H47461   1.786   4.261   4.502 -1.4550  1.2740 -2.5149
  360MOL0     H47462   1.667   4.386   4.469  1.1258  3.0356 -0.5836
  360MOL0     H47463   1.770   4.284   4.746 -0.4156 -2.2306  0.3822
  360MOL0     H47464   1.688   4.436   4.726  0.5376 -0.3136  0.3953
  360MOL0     H47465   1.563   4.177   4.631  2.4627  0.0141 -0.3502
  360MOL0     H47466   1.484   4.332   4.646 -2.0363  0.2877  3.6645
  360MOL0     H47467   1.581   4.194   4.893  1.0639  0.8931 -1.2477
  360MOL0     H47468   1.420   4.155   4.825 -1.2362 -0.0076  0.6425
  360MOL0     H47469   1.440   4.351   5.006  0.7814 -1.6315 -0.0428
  360MOL0     H47470   1.531   4.430   4.889  3.0413 -2.7723  5.7753
  360MOL0     H47471   1.371   4.479   4.751 -0.1613 -0.8178  0.2895
  360MOL0     H47472   1.298   4.490   4.917  0.2011 -1.0490 -0.3576
  360MOL0     H47473   1.201   4.177   4.962  0.4513  0.8439 -0.7588
  360MOL0     H47474   0.991   4.047   4.951  0.1382  0.9079 -0.2783
  360MOL0     H47475   0.933   4.023   4.783  1.0175 -2.3070  1.0192
  360MOL0     H47476   0.785   4.238   4.852  1.4996 -1.3230 -2.5044
  360MOL0     H47477   0.844   4.206   5.017  0.3491 -1.9454  0.1660
  360MOL0     H47478   0.706   3.985   4.839 -0.1003 -2.1350  2.2102
  360MOL0     H47479   0.726   3.979   5.008  1.6916 -0.2881 -0.4668
  360MOL0     H47480   0.566   4.175   4.826  1.8658  0.0329  0.5151
  360MOL0     H47481   0.548   4.178   5.011  0.4706 -1.6956 -0.0408
  360MOL0     H47482   0.302   4.248   4.879 -2.4484  1.3615  0.7068
  360MOL0     H47483   0.104   4.278   5.024 -1.7224  0.7582  0.2122
  360MOL0     H47484  -0.322   4.050   5.139 -1.0409  0.8648  0.0288
  360MOL0     H47485  -0.518   4.078   5.280  2.2497 -1.8793  2.3518
  360MOL0     H47486  -0.562   4.081   5.500 -0.6347  0.0930  0.8448
  360MOL0     H47487  -0.719   4.141   5.437 -0.9216  0.1012 -0.3240
  360MOL0     H47488  -0.608   4.206   5.718 -0.4820  2.9895 -0.1892
  360MOL0     H47489  -0.715   4.067   5.680 -0.8403  0.0057 -2.6206
  360MOL0     H47490  -0.893   4.232   5.601  1.3285  0.3696 -0.7684
  360MOL0     H47491  -0.777   4.361   5.634  0.5705 -0.6745  1.0461
  360MOL0     H47492  -0.898   4.151   5.826  0.9686 -0.6623  0.6098
  360MOL0     H47493  -0.781   4.289   5.865  0.4906  0.4440 -0.8706
  360MOL0     H47494  -1.085   4.287   5.788  0.2039  0.0628  0.3891
  360MOL0     H47495  -1.007   4.421   5.750 -2.2017 -2.4346 -2.1410
  360MOL0     H47496  -0.929   4.460   5.992 -0.9118  0.9750  2.4383
  360MOL0     H47497  -1.024   4.315   6.038  1.5709  1.1890  1.5419
  360MOL0     H47498  -1.109   4.564   6.066 -2.4125 -0.1859  2.0570
  360MOL0     H47499  -1.171   4.547   5.909  0.4592  3.0679  2.5661
  360MOL0     H47500  -1.336   4.496   6.069  0.8400  0.3469  0.3738
  360MOL0     H47501  -1.235   4.379   6.155 -0.3521 -0.9409 -0.2568
  360MOL0     H47502  -0.366   4.447   5.441 -0.2002 -0.2288  1.9327
  360MOL0     H47503  -0.163   4.407   5.323  0.0989  0.2411 -0.8411
  360MOL0     H47504   0.119   3.867   5.135 -1.8148 -0.6729 -1.6732
  360MOL0     H47505   0.332   3.844   5.035 -0.3883  0.0933  2.7455
  360MOL0     H47506   2.235   4.409   4.625 -2.6441 -4.6186  0.9202
  360MOL0     H47507   2.435   4.478   4.746 -1.5965  3.4683 -0.2006
  360MOL0     H47508   2.751   4.742   4.982  1.5707 -0.0052  0.7953
  360MOL0     H47509   2.959   4.751   5.121 -0.4142  1.3569  0.8960
  360MOL0     H47510   3.156   4.703   5.354  1.5329 -0.9030  1.3132
  360MOL0     H47511   3.147   4.681   5.183  1.9585 -2.0772 -0.4313
  360MOL0     H47512   3.242   4.450   5.210  1.5588  1.5178 -2.7404
  360MOL0     H47513   3.350   4.573   5.216 -0.5881 -2.1888 -2.1887
  360MOL0     H47514   3.214   4.466   5.474  2.6348 -2.3599  2.7451
  360MOL0     H47515   3.331   4.600   5.455  0.7834  1.4198 -2.2423
  360MOL0     H47516   3.441   4.390   5.535 -0.9052  0.6846 -1.2282
  360MOL0     H47517   3.406   4.313   5.380  0.6910 -1.0832  1.0514
  360MOL0     H47518   3.758   4.514   5.298  0.4357  1.2102  0.5485
  360MOL0     H47519   2.807   4.411   5.343  0.8817  2.8466  2.2614
  360MOL0     H47520   2.603   4.417   5.208 -2.1329 -0.3436 -4.0771
  361MOL0     O47521   4.705   8.678  11.122  0.0891 -0.4702  0.6257
  361MOL0     C47522   4.705   8.796  11.089 -0.8519 -0.2396 -0.4329
  361MOL0     O47523   4.596   8.868  11.054 -0.2563 -0.2536  0.2078
  361MOL0     C47524   4.465   8.826  11.077 -0.0554 -0.1802 -0.4035
  361MOL0     C47525   4.361   8.891  11.004  0.0216  0.0890  1.0049
  361MOL0     C47526   4.223   8.859  11.020  0.5411 -0.2886  0.4290
  361MOL0     C47527   4.182   8.759  11.096 -0.0246  0.6805 -0.4611
  361MOL0     O47528   4.045   8.742  11.103  0.6830  0.3098 -0.2511
  361MOL0     C47529   3.995   8.623  11.179  0.3929 -0.2018  0.0545
  361MOL0     C47530   3.850   8.597  11.139 -0.0001  0.0191  0.1433
  361MOL0     C47531   3.829   8.550  10.992  0.6398 -0.0325 -0.1203
  361MOL0     C47532   3.839   8.399  10.965  0.7523 -0.4383 -0.1802
  361MOL0     C47533   3.815   8.368  10.813  0.0406 -0.3437 -0.2411
  361MOL0     C47534   3.667   8.326  10.793  0.5802  0.1752 -0.8802
  361MOL0     C47535   3.634   8.291  10.645 -0.1188  0.6467 -0.5922
  361MOL0     C47536   3.489   8.293  10.611  0.4506  0.5289  0.5890
  361MOL0     N47537   3.417   8.191  10.684 -0.2787 -0.2347  0.2821
  361MOL0     C47538   3.323   8.229  10.780  0.2463 -0.1655 -0.2530
  361MOL0     C47539   3.275   8.117  10.831  0.0890 -0.3338 -0.2825
  361MOL0     C47540   3.183   8.108  10.952  0.3379  0.0345  0.9666
  361MOL0     C47541   3.053   8.168  10.915 -0.3301  0.1586 -0.7439
  361MOL0     C47542   2.948   8.175  11.028  0.6369 -0.4283 -0.5753
  361MOL0     C47543   2.820   8.217  10.957  0.8470 -0.0897 -0.5533
  361MOL0     O47544   2.746   8.285  11.058  0.0533 -0.3429 -0.0310
  361MOL0     C47545   2.612   8.317  11.040  0.0459  0.4903  0.7641
  361MOL0     C47546   2.549   8.363  11.152 -0.0907  0.2427  0.5265
  361MOL0     C47547   2.411   8.398  11.153 -1.1773  0.2401 -0.8602
  361MOL0     C47548   2.340   8.391  11.036 -0.2611  0.4914  0.1306
  361MOL0     C47549   2.192   8.426  11.048 -0.2035  0.4583 -0.1093
  361MOL0     O47550   2.144   8.474  11.170  1.1801 -0.2279  0.0710
  361MOL0     C47551   2.009   8.506  11.197  0.4952 -0.8803 -0.0180
  361MOL0     C47552   1.900   8.453  11.129  1.2979  0.1411  0.2852
  361MOL0     C47553   1.770   8.484  11.161 -1.5857 -0.7637  0.2118
  361MOL0     C47554   1.744   8.593  11.251  0.7444  1.1711  0.6347
  361MOL0     O47555   1.619   8.628  11.283  0.2426  0.5233 -0.0225
  361MOL0     C47556   1.584   8.628  11.421 -0.7287 -0.4175  1.0555
  361MOL0     C47557   1.537   8.496  11.475 -0.7799 -0.8773  0.2355
  361MOL0     C47558   1.384   8.447  11.452 -0.0317  0.0358 -0.2460
  361MOL0     C47559   1.275   8.542  11.498 -0.5898  0.4331  0.8139
  361MOL0     C47560   1.142   8.474  11.476  0.1593  0.6639  0.4685
  361MOL0     C47561   1.029   8.553  11.547  0.1138 -0.7529  0.1977
  361MOL0     C47562   0.885   8.524  11.510  0.0139 -0.4543  0.3413
  361MOL0     C47563   0.791   8.620  11.575  0.0887 -0.5148  0.1764
  361MOL0    Cl47564   0.723   8.546  11.724  0.0212  0.0736 -0.1732
  361MOL0     C47565   1.851   8.648  11.317 -0.3032 -0.0862  0.0157
  361MOL0     C47566   1.982   8.597  11.295  0.6161 -0.6463 -0.5150
  361MOL0     O47567   2.122   8.403  10.946  0.8419 -0.5147 -0.0112
  361MOL0     C47568   2.394   8.337  10.916  0.2904 -1.9404  0.3502
  361MOL0     C47569   2.532   8.304  10.917 -0.2272 -0.3982 -0.1026
  361MOL0     N47570   3.334   8.013  10.760 -0.0746  0.2709  0.4348
  361MOL0     N47571   3.419   8.061  10.667  0.2675  0.9155  0.2898
  361MOL0     C47572   4.277   8.696  11.182 -0.6134 -0.5972 -0.5369
  361MOL0     C47573   4.416   8.715  11.161 -0.5569 -0.1790 -0.0645
  361MOL0     C47574   4.826   8.877  11.118  0.1850 -0.6154  0.8327
  361MOL0     C47575   4.838   9.015  11.143  0.8084  0.3610 -0.3270
  361MOL0     C47576   4.957   9.076  11.182  0.6058  0.6714 -0.7678
  361MOL0     C47577   5.077   9.006  11.171  0.0968  0.6737  0.9709
  361MOL0     O47578   5.194   9.066  11.207 -0.3266 -0.2135  0.0132
  361MOL0     C47579   5.317   9.047  11.119  0.3077 -0.5593  0.1734
  361MOL0     C47580   5.432   9.146  11.158  0.0421 -0.8462  0.1852
  361MOL0     C47581   5.547   9.098  11.263  1.0424  0.5030  0.0046
  361MOL0     C47582   5.632   9.210  11.306  0.2690 -0.3420  0.6704
  361MOL0     C47583   5.713   9.183  11.428  0.2812 -0.1464  0.2506
  361MOL0     C47584   5.774   9.156  11.531  0.4130 -1.0043 -0.4370
  361MOL0     C47585   5.069   8.867  11.136 -0.3335 -0.4439 -0.2394
  361MOL0     C47586   4.950   8.807  11.109  1.1905  0.1595 -0.4476
  361MOL0     H47587   4.387   8.971  10.935 -1.7838 -0.5145 -0.4625
  361MOL0     H47588   4.157   8.914  10.954  2.2896 -1.5082 -2.5517
  361MOL0     H47589   3.989   8.631  11.288 -0.8117 -1.0547  0.0726
  361MOL0     H47590   4.054   8.533  11.160  0.7656 -0.3578  1.8100
  361MOL0     H47591   3.775   8.676  11.151 -1.4891 -1.5123  1.4071
  361MOL0     H47592   3.805   8.532  11.215 -1.7638 -0.0042 -0.8638
  361MOL0     H47593   3.882   8.614  10.921 -1.7065  2.2066 -0.0172
  361MOL0     H47594   3.723   8.577  10.987  0.8821  2.1929  3.3286
  361MOL0     H47595   3.944   8.369  10.975  0.3318 -1.5482  1.2121
  361MOL0     H47596   3.769   8.339  11.024 -0.8607  1.5722  0.0911
  361MOL0     H47597   3.879   8.283  10.789 -0.5622 -1.5653  2.1767
  361MOL0     H47598   3.852   8.452  10.754 -2.5702  0.0092 -1.5493
  361MOL0     H47599   3.596   8.400  10.831 -2.7032 -0.6901 -4.5686
  361MOL0     H47600   3.635   8.234  10.843 -0.0512  0.8877  0.0551
  361MOL0     H47601   3.692   8.362  10.586 -0.0366  0.2812 -0.9546
  361MOL0     H47602   3.683   8.194  10.631 -1.8657 -0.2423 -0.9284
  361MOL0     H47603   3.477   8.285  10.503 -2.0283 -1.8901  0.9470
  361MOL0     H47604   3.442   8.392  10.609  3.1258  1.9154 -2.7179
  361MOL0     H47605   3.289   8.327  10.810 -3.6337 -0.7118 -2.2406
  361MOL0     H47606   3.223   8.175  11.028  1.4504  3.1373 -2.0562
  361MOL0     H47607   3.171   8.001  10.972 -2.0662  0.2218  0.8352
  361MOL0     H47608   3.005   8.099  10.845 -2.1682  0.8117 -0.1880
  361MOL0     H47609   3.064   8.269  10.873  1.5587  0.1432 -0.3835
  361MOL0     H47610   2.950   8.085  11.090 -0.1766 -0.0768 -0.0271
  361MOL0     H47611   2.969   8.260  11.093 -2.1474 -0.4184  0.4530
  361MOL0     H47612   2.757   8.137  10.917  0.0930  0.4537 -0.4907
  361MOL0     H47613   2.841   8.297  10.885  2.0260 -0.1964 -0.3525
  361MOL0     H47614   2.605   8.364  11.245  0.8258 -1.3531  0.0124
  361MOL0     H47615   2.367   8.437  11.244  1.1956 -0.0749  0.5040
  361MOL0     H47616   1.907   8.375  11.054 -1.2663 -0.3062  0.4321
  361MOL0     H47617   1.688   8.445  11.101 -0.3909  0.0555 -2.0859
  361MOL0     H47618   1.505   8.702  11.432 -0.4098 -0.1324  1.4443
  361MOL0     H47619   1.668   8.658  11.485  0.3133  2.1638 -1.2728
  361MOL0     H47620   1.543   8.519  11.582  0.8817 -1.5151  0.3035
  361MOL0     H47621   1.617   8.422  11.472 -1.0850 -1.2462  0.9533
  361MOL0     H47622   1.378   8.360  11.518  0.8362 -0.3960 -0.7041
  361MOL0     H47623   1.363   8.403  11.354 -2.9800 -0.2046  0.4035
  361MOL0     H47624   1.302   8.567  11.601  1.2351  2.8401 -0.1254
  361MOL0     H47625   1.273   8.636  11.442 -0.4239  0.5029  0.9251
  361MOL0     H47626   1.139   8.379  11.530 -4.0921 -0.2400 -0.9544
  361MOL0     H47627   1.128   8.459  11.368 -2.9394  2.2615  0.5316
  361MOL0     H47628   1.047   8.659  11.525 -1.7519 -0.0551  1.6842
  361MOL0     H47629   1.033   8.541  11.656 -2.6728 -0.6842  0.3735
  361MOL0     H47630   0.872   8.523  11.402 -5.1158  2.0496  0.5746
  361MOL0     H47631   0.853   8.426  11.548 -0.1438  0.7128  3.5614
  361MOL0     H47632   0.712   8.643  11.503 -1.5332  0.5474  2.1939
  361MOL0     H47633   0.821   8.725  11.587 -1.5060  0.0836 -0.7146
  361MOL0     H47634   1.832   8.727  11.389 -1.2558  1.3052 -1.6805
  361MOL0     H47635   2.062   8.651  11.344  1.1699 -1.0026 -1.0122
  361MOL0     H47636   2.332   8.331  10.827 -1.2852 -2.7109  1.4525
  361MOL0     H47637   2.594   8.279  10.831  0.4332  2.5088 -0.5646
  361MOL0     H47638   4.240   8.616  11.246  0.5920 -1.1505 -0.5050
  361MOL0     H47639   4.481   8.645  11.213  2.0060  3.1945  1.6435
  361MOL0     H47640   4.743   9.067  11.137  1.1543  0.8728 -1.7068
  361MOL0     H47641   4.961   9.161  11.249  1.8352 -0.2384  0.3578
  361MOL0     H47642   5.294   9.065  11.013  1.2594 -1.5467 -0.2203
  361MOL0     H47643   5.361   8.947  11.127  2.7655  0.3336 -1.2694
  361MOL0     H47644   5.490   9.182  11.073 -0.6767 -3.0282 -1.3027
  361MOL0     H47645   5.383   9.237  11.193  2.0270  1.4061 -2.4051
  361MOL0     H47646   5.602   9.018  11.212 -0.6881 -1.7758  1.5161
  361MOL0     H47647   5.495   9.053  11.348  0.2227 -3.5500 -2.3546
  361MOL0     H47648   5.700   9.237  11.225 -0.0977  0.8900  0.7469
  361MOL0     H47649   5.581   9.306  11.314  4.2846  2.1842 -0.8442
  361MOL0     H47650   5.825   9.151  11.626 -0.0289  2.0661  0.0699
  361MOL0     H47651   5.154   8.800  11.135 -1.5333 -2.0633  0.4620
  361MOL0     H47652   4.944   8.701  11.084 -1.4359 -0.1524  1.0825
  362MOL0     O47653   1.575   4.757   7.603  0.1211  0.2402  0.3734
  362MOL0     C47654   1.551   4.725   7.723  0.3007 -0.0932  0.8097
  362MOL0     O47655   1.457   4.637   7.759  0.1920 -0.0841 -0.7178
  362MOL0     C47656   1.328   4.645   7.716 -0.1719 -0.9860  0.6500
  362MOL0     C47657   1.265   4.768   7.674 -0.5425  0.3222  0.2200
  362MOL0     C47658   1.135   4.762   7.624 -0.3743  0.3632 -0.1085
  362MOL0     C47659   1.062   4.647   7.611 -0.4276 -0.7344  0.3239
  362MOL0     O47660   0.930   4.639   7.598 -0.0117  0.1440 -0.6678
  362MOL0     C47661   0.873   4.730   7.504 -0.3935 -0.1284 -0.5461
  362MOL0     C47662   0.728   4.706   7.500  0.4564  0.3047  0.1813
  362MOL0     C47663   0.670   4.689   7.645  0.4245  0.1986 -0.4894
  362MOL0     C47664   0.510   4.674   7.648  0.3504 -0.7328 -0.4119
  362MOL0     C47665   0.458   4.673   7.789  0.5933  0.6764  0.0069
  362MOL0     C47666   0.314   4.602   7.795 -0.6352  0.2697  0.1261
  362MOL0     C47667   0.247   4.646   7.924  0.7447  0.3644 -0.3531
  362MOL0     C47668   0.125   4.559   7.952  1.1561  0.5725 -1.0008
  362MOL0     N47669   0.020   4.572   7.840  0.3919 -0.3944  0.2564
  362MOL0     C47670   0.021   4.508   7.716 -0.1708  0.0469 -0.5524
  362MOL0     C47671  -0.105   4.514   7.662 -0.6922  0.3981 -0.2912
  362MOL0     C47672  -0.149   4.478   7.523  0.3704  0.6223  0.3845
  362MOL0     C47673  -0.294   4.502   7.492  0.6681 -0.3787 -0.1458
  362MOL0     C47674  -0.332   4.422   7.366 -0.5895  0.2075 -0.0135
  362MOL0     C47675  -0.469   4.368   7.396  0.2862 -0.0045 -0.5532
  362MOL0     O47676  -0.566   4.475   7.421  0.1593 -0.3318  0.4666
  362MOL0     C47677  -0.687   4.484   7.347 -0.0767  0.0684 -1.0397
  362MOL0     C47678  -0.740   4.606   7.303 -0.6405  0.3884  0.3522
  362MOL0     C47679  -0.862   4.618   7.246  0.2606 -0.4754 -0.2831
  362MOL0     C47680  -0.951   4.506   7.243  0.3029 -1.0219 -0.4270
  362MOL0     C47681  -1.093   4.520   7.189  0.0004  0.4345 -0.2306
  362MOL0     O47682  -1.167   4.407   7.202 -0.3296 -0.4999 -0.0963
  362MOL0     C47683  -1.296   4.409   7.166 -0.4625 -0.2279  0.0996
  362MOL0     C47684  -1.380   4.467   7.256 -0.5156  0.5359  0.1848
  362MOL0     C47685  -1.515   4.461   7.237 -0.2425  0.4696  0.1244
  362MOL0     C47686  -1.567   4.409   7.119  0.3265 -0.1424  0.9308
  362MOL0     O47687  -1.702   4.402   7.103  0.3593  0.5064  0.4789
  362MOL0     C47688  -1.746   4.288   7.026  0.1554  0.1917 -0.1668
  362MOL0     C47689  -1.891   4.268   7.039  0.9896  0.1036 -0.2626
  362MOL0     C47690  -1.978   4.389   7.059  0.7364  0.8181  0.4799
  362MOL0     C47691  -2.128   4.350   7.031  0.2041  0.1131 -0.2022
  362MOL0     C47692  -2.220   4.456   6.970  0.1981  0.5723 -0.0471
  362MOL0     C47693  -2.370   4.413   6.966  0.0725 -0.1146  0.4219
  362MOL0     C47694  -2.448   4.524   6.893 -0.8239  0.1722 -0.0785
  362MOL0     C47695  -2.557   4.454   6.816 -0.5140  0.1554 -0.1135
  362MOL0    Cl47696  -2.664   4.583   6.740 -0.0794  0.1674 -0.4025
  362MOL0     C47697  -1.484   4.364   7.014  0.1098  0.5113  0.4582
  362MOL0     C47698  -1.343   4.369   7.038  0.2603 -0.4552  0.1818
  362MOL0     O47699  -1.128   4.624   7.141 -0.2505  0.5707 -0.1701
  362MOL0     C47700  -0.905   4.386   7.289  0.6737 -0.3527 -0.5742
  362MOL0     C47701  -0.774   4.378   7.326  0.4524  0.3639  0.8989
  362MOL0     N47702  -0.183   4.575   7.760  0.1727 -0.1602 -0.2942
  362MOL0     N47703  -0.104   4.614   7.863 -0.1460  0.5771 -0.0579
  362MOL0     C47704   1.117   4.532   7.655 -0.5281 -0.3078 -1.0044
  362MOL0     C47705   1.244   4.525   7.718  1.0835  0.3105 -0.5709
  362MOL0     C47706   1.652   4.747   7.819  0.0519 -1.1716 -0.2871
  362MOL0     C47707   1.780   4.792   7.781  0.3288  1.4168  1.1651
  362MOL0     C47708   1.873   4.816   7.875  0.0508 -0.8854 -0.4515
  362MOL0     C47709   1.853   4.795   8.012  0.0681 -0.0829 -0.5106
  362MOL0     O47710   1.952   4.811   8.105 -0.7437  0.1264 -0.1330
  362MOL0     C47711   2.091   4.802   8.053  0.1080 -0.6206 -0.2112
  362MOL0     C47712   2.200   4.815   8.159  0.5934  0.7947  0.6101
  362MOL0     C47713   2.182   4.709   8.267 -0.1761 -0.5883  0.3185
  362MOL0     C47714   2.306   4.693   8.350  0.4244  0.7589 -0.6209
  362MOL0     C47715   2.415   4.630   8.280 -0.5784 -0.3001 -0.1214
  362MOL0     C47716   2.515   4.576   8.234  0.1410 -0.1467  0.0247
  362MOL0     C47717   1.728   4.757   8.056 -0.0402  0.2551 -0.4305
  362MOL0     C47718   1.628   4.741   7.960 -1.0663 -0.3045  0.2044
  362MOL0     H47719   1.311   4.866   7.685 -2.4410  1.0938  1.9849
  362MOL0     H47720   1.096   4.854   7.581 -1.8536  0.6808  1.7810
  362MOL0     H47721   0.914   4.703   7.406 -0.4577  1.3963 -1.0318
  362MOL0     H47722   0.895   4.833   7.533  0.0047  0.0324 -1.3731
  362MOL0     H47723   0.704   4.615   7.444  1.8972  0.8216 -1.3511
  362MOL0     H47724   0.681   4.796   7.461 -1.5140  1.1801  4.0389
  362MOL0     H47725   0.701   4.773   7.707 -2.6740  0.5674  0.7245
  362MOL0     H47726   0.708   4.597   7.691 -0.5450 -0.9350 -1.8567
  362MOL0     H47727   0.458   4.760   7.606 -1.6471 -0.1954  2.7715
  362MOL0     H47728   0.482   4.586   7.589 -1.2662  0.5019 -1.5940
  362MOL0     H47729   0.450   4.774   7.828  0.9686 -0.2269  2.6353
  362MOL0     H47730   0.514   4.611   7.860 -3.8753 -1.6255  1.8910
  362MOL0     H47731   0.322   4.493   7.791  0.6807  0.3806 -0.9633
  362MOL0     H47732   0.256   4.634   7.708 -2.8210 -2.8190  0.2814
  362MOL0     H47733   0.322   4.637   8.004  2.1387 -2.6650 -1.8218
  362MOL0     H47734   0.218   4.751   7.931 -1.5684 -0.2349 -0.2859
  362MOL0     H47735   0.072   4.583   8.045 -0.8944  2.9450 -2.6774
  362MOL0     H47736   0.167   4.461   7.977  4.5396  2.7412  3.3479
  362MOL0     H47737   0.110   4.462   7.675  2.0319  3.3259  0.2040
  362MOL0     H47738  -0.139   4.370   7.511 -0.7583  0.7799 -3.7259
  362MOL0     H47739  -0.086   4.532   7.450  0.6596 -1.3781 -0.9324
  362MOL0     H47740  -0.307   4.608   7.470  0.3717  0.2566  2.6939
  362MOL0     H47741  -0.358   4.476   7.577  0.2366 -2.8416 -1.1380
  362MOL0     H47742  -0.331   4.489   7.279  1.6352 -2.5464 -2.3284
  362MOL0     H47743  -0.260   4.343   7.343 -0.6356 -0.0078  0.5785
  362MOL0     H47744  -0.461   4.294   7.477  3.9537  0.7406 -0.0745
  362MOL0     H47745  -0.491   4.303   7.311 -1.3622 -1.5935  0.9922
  362MOL0     H47746  -0.685   4.698   7.324  0.2271  0.5462 -2.2645
  362MOL0     H47747  -0.910   4.709   7.212  1.8352  0.6096  0.2725
  362MOL0     H47748  -1.355   4.503   7.355  1.1266 -0.4595  0.1707
  362MOL0     H47749  -1.574   4.486   7.324  2.1962  1.5205  1.5639
  362MOL0     H47750  -1.688   4.205   7.066 -1.1250 -1.0147 -0.7444
  362MOL0     H47751  -1.717   4.295   6.921 -0.0514  3.5471 -0.1193
  362MOL0     H47752  -1.905   4.200   7.123 -0.3840 -0.7381 -1.1400
  362MOL0     H47753  -1.926   4.210   6.954  0.1621 -1.3272  1.0180
  362MOL0     H47754  -1.948   4.479   7.004  1.7798 -1.0819 -2.2435
  362MOL0     H47755  -1.974   4.425   7.162  1.9816  3.9107 -0.5330
  362MOL0     H47756  -2.118   4.266   6.961  0.2057  0.7101 -0.9296
  362MOL0     H47757  -2.160   4.313   7.129  1.7085  0.2983  0.4002
  362MOL0     H47758  -2.181   4.489   6.873  0.5270 -0.5209 -0.3114
  362MOL0     H47759  -2.211   4.545   7.032 -1.4005  1.3545 -0.8697
  362MOL0     H47760  -2.404   4.400   7.069 -1.1242 -0.1919  0.0307
  362MOL0     H47761  -2.381   4.313   6.924  2.6192 -0.2322 -0.1181
  362MOL0     H47762  -2.499   4.590   6.964  1.1871 -1.8656  3.5453
  362MOL0     H47763  -2.384   4.580   6.824  1.4232 -0.7026  1.1935
  362MOL0     H47764  -2.605   4.388   6.889 -0.1756  2.1769  2.0879
  362MOL0     H47765  -2.510   4.392   6.739 -1.5649  3.6588 -3.9203
  362MOL0     H47766  -1.518   4.320   6.921 -0.5624  1.3464  0.2927
  362MOL0     H47767  -1.271   4.320   6.973  1.2047  0.2239  0.6807
  362MOL0     H47768  -0.971   4.300   7.301  0.9525 -0.8218 -2.2303
  362MOL0     H47769  -0.728   4.286   7.361  4.3684  0.8945 -2.0649
  362MOL0     H47770   1.066   4.437   7.664  0.0408 -0.3939  2.7134
  362MOL0     H47771   1.282   4.427   7.746 -0.4971 -0.7982 -2.0949
  362MOL0     H47772   1.817   4.805   7.680 -0.5945 -1.7639  0.2821
  362MOL0     H47773   1.966   4.862   7.842  0.6682  0.7288  3.0352
  362MOL0     H47774   2.112   4.876   7.975 -0.1104  0.4453  0.7135
  362MOL0     H47775   2.111   4.704   8.008 -0.2627 -0.2252 -1.2488
  362MOL0     H47776   2.297   4.815   8.109 -0.0540 -0.4598 -0.7189
  362MOL0     H47777   2.176   4.916   8.197  0.8189  0.0959  2.7725
  362MOL0     H47778   2.159   4.608   8.232  3.1986 -1.9212  1.5461
  362MOL0     H47779   2.098   4.740   8.331 -2.1581 -1.6595 -1.6266
  362MOL0     H47780   2.351   4.779   8.400  2.8538 -0.5789 -0.3348
  362MOL0     H47781   2.273   4.634   8.435 -2.8146  3.0777 -0.0834
  362MOL0     H47782   2.596   4.523   8.188 -0.3533 -2.8359  2.0260
  362MOL0     H47783   1.709   4.724   8.158  0.2390 -2.7050 -1.2409
  362MOL0     H47784   1.537   4.704   8.005 -0.5470  0.2953  1.8135
  363MOL0     O47785   0.434   5.365  10.821  0.9534 -0.2069 -0.3427
  363MOL0     C47786   0.449   5.312  10.711 -0.3372 -0.3346 -1.0839
  363MOL0     O47787   0.357   5.254  10.639 -1.0329 -0.2621 -1.0151
  363MOL0     C47788   0.224   5.254  10.687  0.4112 -0.1193 -0.3691
  363MOL0     C47789   0.167   5.276  10.817  0.2389  0.3762  0.0790
  363MOL0     C47790   0.022   5.281  10.830 -0.5021 -0.9412 -0.4269
  363MOL0     C47791  -0.063   5.272  10.716 -0.1914  0.1966 -0.5811
  363MOL0     O47792  -0.196   5.288  10.739  0.5982  0.4085 -0.0575
  363MOL0     C47793  -0.290   5.259  10.628 -0.2055 -1.1180  0.0614
  363MOL0     C47794  -0.432   5.240  10.683 -0.3572  0.3238  0.2432
  363MOL0     C47795  -0.521   5.222  10.561  0.9407 -0.4397  0.1273
  363MOL0     C47796  -0.673   5.220  10.585 -0.6639 -0.3383 -0.0583
  363MOL0     C47797  -0.744   5.142  10.465 -1.0995  0.2097 -0.6505
  363MOL0     C47798  -0.901   5.143  10.456 -0.3195  0.1171  0.4104
  363MOL0     C47799  -0.978   5.154  10.585 -0.5407  0.0649 -1.0256
  363MOL0     C47800  -1.118   5.207  10.572  0.6975  0.4313  0.4031
  363MOL0     N47801  -1.225   5.136  10.501 -0.1935 -0.6024  0.2532
  363MOL0     C47802  -1.256   5.009  10.538 -0.7609 -0.8566  0.2520
  363MOL0     C47803  -1.321   4.967  10.428  0.2648  0.0189 -0.2992
  363MOL0     C47804  -1.394   4.832  10.435  0.2303 -0.2142  0.3161
  363MOL0     C47805  -1.302   4.715  10.397  0.7851 -0.1570  0.3264
  363MOL0     C47806  -1.364   4.576  10.423 -0.0261 -0.3275  0.7547
  363MOL0     C47807  -1.446   4.522  10.306  0.8421  0.1772 -1.0999
  363MOL0     O47808  -1.522   4.407  10.328 -0.3152 -0.9327 -0.5705
  363MOL0     C47809  -1.606   4.356  10.224 -0.4793 -0.1963  0.1218
  363MOL0     C47810  -1.657   4.231  10.262  0.3835  0.4790 -0.3819
  363MOL0     C47811  -1.742   4.163  10.170 -0.5044  0.2949 -0.1922
  363MOL0     C47812  -1.773   4.220  10.048 -0.1258  0.0684 -0.3395
  363MOL0     C47813  -1.870   4.155   9.965  0.0867 -0.2205 -1.4719
  363MOL0     O47814  -1.922   4.222   9.863 -0.3676 -0.0204  0.5681
  363MOL0     C47815  -2.015   4.171   9.778 -0.5749  1.3957  0.0536
  363MOL0     C47816  -2.006   4.228   9.653  0.0670 -0.7153 -0.0747
  363MOL0     C47817  -2.101   4.204   9.553 -0.6671  0.1102 -0.3621
  363MOL0     C47818  -2.203   4.114   9.569 -0.0104  0.1651  0.0489
  363MOL0     O47819  -2.269   4.078   9.453  0.5457 -0.5980  0.0043
  363MOL0     C47820  -2.313   3.938   9.451  0.3396 -0.6093  0.8072
  363MOL0     C47821  -2.403   3.904   9.314  0.6228 -0.2995 -1.0351
  363MOL0     C47822  -2.327   3.950   9.188 -0.0450  0.6022  0.1060
  363MOL0     C47823  -2.403   3.939   9.055 -0.5408  0.5062  0.5513
  363MOL0     C47824  -2.315   3.993   8.935 -0.6146 -0.7579 -0.2532
  363MOL0     C47825  -2.385   3.958   8.799 -0.1461 -0.1496  0.5643
  363MOL0     C47826  -2.297   4.007   8.676 -1.6959  0.1239  0.0318
  363MOL0     C47827  -2.170   3.924   8.652 -0.3850 -0.0447  0.5476
  363MOL0    Cl47828  -2.082   4.011   8.531  0.2490 -0.1447 -0.2444
  363MOL0     C47829  -2.209   4.045   9.689 -0.5353 -0.7534 -0.1660
  363MOL0     C47830  -2.123   4.080   9.795 -1.0545  0.7514  0.5612
  363MOL0     O47831  -1.899   4.037   9.989 -0.6917 -0.3980 -0.1467
  363MOL0     C47832  -1.726   4.346  10.011 -0.8004  0.8048  0.3070
  363MOL0     C47833  -1.633   4.412  10.097 -0.4607 -0.7905 -0.1155
  363MOL0     N47834  -1.341   5.059  10.333  0.8656 -0.7317 -0.2642
  363MOL0     N47835  -1.268   5.157  10.369 -0.6564 -0.2239 -0.6490
  363MOL0     C47836  -0.006   5.236  10.594  0.0906  0.8808 -0.4573
  363MOL0     C47837   0.133   5.234  10.581  0.4042 -0.2719 -0.3260
  363MOL0     C47838   0.588   5.326  10.661  0.5919  0.5295  0.0543
  363MOL0     C47839   0.633   5.260  10.536  0.3596  0.1876 -0.3446
  363MOL0     C47840   0.761   5.274  10.497  1.0071 -0.0125  0.0011
  363MOL0     C47841   0.855   5.348  10.576  0.0504 -0.5430  0.2008
  363MOL0     O47842   0.986   5.360  10.533 -0.0427  0.1760  0.5683
  363MOL0     C47843   1.085   5.448  10.591  0.4072  1.0899 -0.0486
  363MOL0     C47844   1.175   5.379  10.692  0.0427 -0.2750 -0.1763
  363MOL0     C47845   1.109   5.357  10.831 -0.1035 -0.1843 -0.5070
  363MOL0     C47846   1.199   5.318  10.949  0.3736 -0.6386  0.6509
  363MOL0     C47847   1.133   5.289  11.078 -0.1556 -0.2695 -0.4112
  363MOL0     C47848   1.093   5.252  11.184  0.2467  0.6898 -0.0057
  363MOL0     C47849   0.816   5.412  10.696  0.7037  0.0087 -0.1570
  363MOL0     C47850   0.680   5.405  10.733  0.4364  0.1903 -0.5221
  363MOL0     H47851   0.234   5.289  10.901 -0.1676  3.5379  0.0381
  363MOL0     H47852  -0.027   5.298  10.926  0.1791 -1.0016 -0.0580
  363MOL0     H47853  -0.262   5.165  10.580  1.6648 -0.4662 -0.2021
  363MOL0     H47854  -0.288   5.343  10.558 -1.0102  0.0986  1.4333
  363MOL0     H47855  -0.470   5.314  10.754 -0.7756 -0.5225  0.9181
  363MOL0     H47856  -0.446   5.142  10.730 -0.7672  0.2936  0.0612
  363MOL0     H47857  -0.497   5.124  10.518 -0.3583 -0.6158 -0.2425
  363MOL0     H47858  -0.492   5.284  10.476  0.3837  0.4640  0.5792
  363MOL0     H47859  -0.693   5.155  10.670  2.0101 -3.0243 -1.2623
  363MOL0     H47860  -0.708   5.323  10.595  0.8022  0.2206 -0.2868
  363MOL0     H47861  -0.702   5.042  10.477 -1.2328  0.4171  2.4011
  363MOL0     H47862  -0.696   5.180  10.374  0.8535 -4.5004 -1.8780
  363MOL0     H47863  -0.935   5.048  10.413  1.0302  0.9085 -2.6976
  363MOL0     H47864  -0.928   5.226  10.390  0.5934  0.6638  0.6999
  363MOL0     H47865  -0.988   5.053  10.626 -3.1439  1.7504  3.0804
  363MOL0     H47866  -0.932   5.213  10.665 -0.1483 -2.8871  1.1095
  363MOL0     H47867  -1.116   5.300  10.514  1.1522 -0.4927 -1.1353
  363MOL0     H47868  -1.155   5.226  10.673 -1.2851 -0.6645 -0.0580
  363MOL0     H47869  -1.233   4.960  10.632  0.0484  0.5192  0.8122
  363MOL0     H47870  -1.474   4.845  10.361  2.4802  1.1809 -2.0613
  363MOL0     H47871  -1.446   4.801  10.526  1.4670 -0.7812  0.8495
  363MOL0     H47872  -1.207   4.724  10.451  1.4657  1.2914 -1.0572
  363MOL0     H47873  -1.274   4.719  10.292 -0.8956  1.5440 -0.1010
  363MOL0     H47874  -1.294   4.497  10.452  0.8415  0.3040  0.3937
  363MOL0     H47875  -1.432   4.587  10.508 -0.1862  3.3243  0.2859
  363MOL0     H47876  -1.377   4.497  10.225  3.2345 -2.6873  1.6018
  363MOL0     H47877  -1.521   4.597  10.277 -1.8984 -0.4933  3.3831
  363MOL0     H47878  -1.639   4.202  10.365 -0.9604  2.0775  0.3631
  363MOL0     H47879  -1.778   4.065  10.198  3.1944 -1.0039  0.6899
  363MOL0     H47880  -1.935   4.308   9.638 -1.3074  0.7807  1.0930
  363MOL0     H47881  -2.097   4.249   9.454 -1.1585 -0.2230 -0.5340
  363MOL0     H47882  -2.384   3.924   9.533  0.3043  1.0014  1.0896
  363MOL0     H47883  -2.234   3.863   9.457 -1.4989 -2.9192 -1.3799
  363MOL0     H47884  -2.499   3.956   9.316 -0.7673 -2.6610  1.7631
  363MOL0     H47885  -2.426   3.797   9.312  0.6599 -0.3006 -1.5088
  363MOL0     H47886  -2.232   3.895   9.186 -1.1123 -1.3378  0.6072
  363MOL0     H47887  -2.291   4.050   9.212 -1.9003  0.8820  1.9928
  363MOL0     H47888  -2.433   3.835   9.040 -1.1163  0.8958 -1.1765
  363MOL0     H47889  -2.499   3.992   9.059 -0.6282  0.4402 -0.4402
  363MOL0     H47890  -2.216   3.951   8.957  1.3761  2.0393 -3.0727
  363MOL0     H47891  -2.300   4.101   8.945 -0.4697 -0.7417 -0.6388
  363MOL0     H47892  -2.485   4.001   8.793  1.0382  2.8921  0.9804
  363MOL0     H47893  -2.397   3.849   8.805 -1.0902 -0.0307  1.1641
  363MOL0     H47894  -2.345   4.005   8.577  3.3006 -1.1055 -2.7166
  363MOL0     H47895  -2.264   4.109   8.696  0.3181 -0.3628 -0.6172
  363MOL0     H47896  -2.195   3.821   8.625 -0.6552 -0.2716  1.6197
  363MOL0     H47897  -2.101   3.929   8.736 -0.0622 -0.1992  0.2957
  363MOL0     H47898  -2.283   3.966   9.699  1.1873 -2.7956 -2.5079
  363MOL0     H47899  -2.126   4.014   9.881  0.4128 -1.7976 -1.2327
  363MOL0     H47900  -1.766   4.387   9.919 -1.7675 -0.9461 -0.0920
  363MOL0     H47901  -1.587   4.505  10.066  2.7251 -3.1145 -3.0451
  363MOL0     H47902  -0.065   5.218  10.505  2.6112  1.2678 -2.2953
  363MOL0     H47903   0.163   5.213  10.479  0.5669  0.8628 -0.5230
  363MOL0     H47904   0.579   5.190  10.473 -0.6988 -0.9789  1.7355
  363MOL0     H47905   0.788   5.234  10.399  2.0783  1.1178 -0.1942
  363MOL0     H47906   1.040   5.541  10.625 -0.7581  1.0851 -1.4755
  363MOL0     H47907   1.142   5.494  10.509  1.5978  1.5608  1.0183
  363MOL0     H47908   1.217   5.280  10.669  3.2547  0.6405  1.1978
  363MOL0     H47909   1.264   5.440  10.704 -0.8097  1.0326 -0.3277
  363MOL0     H47910   1.033   5.278  10.819 -0.1170 -0.4331  0.9527
  363MOL0     H47911   1.057   5.449  10.859 -3.0096 -2.4194  2.3592
  363MOL0     H47912   1.258   5.229  10.924 -2.4617 -2.2677 -0.7601
  363MOL0     H47913   1.268   5.401  10.964  1.3024 -0.9530 -1.5715
  363MOL0     H47914   1.075   5.209  11.280  0.1458  2.3353  0.7532
  363MOL0     H47915   0.883   5.475  10.754 -0.7028  0.6782  0.8036
  363MOL0     H47916   0.655   5.468  10.817  0.1526 -2.0726  1.2106
  364MOL0     O47917   4.026  10.064   9.181 -1.1423 -0.1242  0.1989
  364MOL0     C47918   4.013   9.957   9.229  0.5980  0.5664 -0.0160
  364MOL0     O47919   3.890   9.914   9.280 -0.5796 -0.4066 -0.3247
  364MOL0     C47920   3.780   9.997   9.286 -0.3036  0.1351 -0.9727
  364MOL0     C47921   3.660   9.946   9.241  0.5709  0.6701  0.8638
  364MOL0     C47922   3.548  10.025   9.242  0.3392 -1.0093 -0.4096
  364MOL0     C47923   3.548  10.159   9.286 -0.0474 -0.0652  0.1346
  364MOL0     O47924   3.434  10.238   9.279 -0.2448  0.0767 -0.2257
  364MOL0     C47925   3.356  10.230   9.158 -0.2082  1.3026  0.0006
  364MOL0     C47926   3.271  10.346   9.143  1.0005  0.3719 -0.0994
  364MOL0     C47927   3.122  10.313   9.130  0.7694  0.2652  0.6018
  364MOL0     C47928   3.029  10.418   9.179  0.7176  0.5905  0.4572
  364MOL0     C47929   2.881  10.369   9.194  0.6582 -0.3496  0.1286
  364MOL0     C47930   2.791  10.497   9.226 -0.1257 -0.1829  0.2391
  364MOL0     C47931   2.636  10.455   9.256  0.4352 -0.3414  0.3880
  364MOL0     C47932   2.571  10.576   9.311  0.0674  0.6739 -0.0910
  364MOL0     N47933   2.447  10.556   9.385  0.1608 -0.4654 -0.3383
  364MOL0     C47934   2.336  10.510   9.335  0.8105  0.2254  0.0477
  364MOL0     C47935   2.240  10.511   9.427 -0.3027 -0.5389 -0.0922
  364MOL0     C47936   2.102  10.461   9.426  0.2521  0.0880 -0.0865
  364MOL0     C47937   2.088  10.317   9.489 -0.5580 -0.7608  0.8018
  364MOL0     C47938   1.955  10.246   9.449  0.3107 -0.1080 -0.3768
  364MOL0     C47939   1.883  10.188   9.568  0.9916  0.4160 -0.0493
  364MOL0     O47940   1.770  10.102   9.523  0.4664 -0.6890  0.5280
  364MOL0     C47941   1.669  10.080   9.613  0.4233  1.0165 -0.3505
  364MOL0     C47942   1.674  10.097   9.747 -0.6655  1.0342 -0.2637
  364MOL0     C47943   1.569  10.053   9.830  1.1119  0.1664 -0.0802
  364MOL0     C47944   1.445  10.007   9.779 -0.5205 -0.6913  0.9224
  364MOL0     C47945   1.338   9.966   9.868 -0.4346  0.2833  0.1517
  364MOL0     O47946   1.338  10.017   9.994 -0.1121 -0.2189 -0.2487
  364MOL0     C47947   1.233   9.991  10.075 -0.1382  0.3977 -0.5579
  364MOL0     C47948   1.264   9.931  10.194  0.2951 -0.1480 -0.9704
  364MOL0     C47949   1.165   9.931  10.294 -0.0175 -0.0222  0.1629
  364MOL0     C47950   1.036   9.962  10.268  0.2588  0.1722  0.5934
  364MOL0     O47951   0.949   9.949  10.375 -0.3645  0.0193 -0.4772
  364MOL0     C47952   0.816   9.931  10.324  0.5515  0.1833  0.0674
  364MOL0     C47953   0.726   9.883  10.443  0.2521 -0.7925 -0.2681
  364MOL0     C47954   0.709   9.730  10.454  0.0767 -0.7965 -0.2054
  364MOL0     C47955   0.842   9.645  10.453  0.8425  1.0520  0.6482
  364MOL0     C47956   0.823   9.492  10.469  0.0764 -0.3190 -0.2890
  364MOL0     C47957   0.712   9.428  10.377  1.3893 -0.1770  0.3901
  364MOL0     C47958   0.728   9.281  10.403 -0.3096  0.1773 -0.1324
  364MOL0     C47959   0.608   9.191  10.369 -0.8411 -0.0089  0.3056
  364MOL0    Cl47960   0.642   9.021  10.410  0.0136 -0.4033  0.1646
  364MOL0     C47961   0.997  10.022  10.150 -0.2628  0.7710  0.3156
  364MOL0     C47962   1.103  10.047  10.059 -0.1935  0.4568 -0.3727
  364MOL0     O47963   1.256   9.884   9.826  0.0299  0.7406 -0.1939
  364MOL0     C47964   1.444   9.991   9.635  0.2496  0.3676  0.3154
  364MOL0     C47965   1.554  10.031   9.554  0.0044  0.0501  0.9132
  364MOL0     N47966   2.297  10.562   9.538  0.6439  0.4378  0.1375
  364MOL0     N47967   2.423  10.592   9.517 -0.2760  0.0080 -0.2413
  364MOL0     C47968   3.673  10.206   9.328 -0.3643 -0.4969 -0.4247
  364MOL0     C47969   3.786  10.133   9.329 -0.6064  0.7191  0.5621
  364MOL0     C47970   4.133   9.866   9.241  0.4528 -0.0854 -1.0400
  364MOL0     C47971   4.259   9.928   9.265 -0.1595  0.3092  0.6847
  364MOL0     C47972   4.369   9.842   9.260  0.4652  0.0670 -0.0408
  364MOL0     C47973   4.359   9.701   9.250  0.4572  0.3538  0.3045
  364MOL0     O47974   4.476   9.625   9.248 -1.0696 -0.4694 -0.2673
  364MOL0     C47975   4.576   9.680   9.341 -1.3399 -0.5935  0.3738
  364MOL0     C47976   4.687   9.579   9.387  1.0859 -0.1055  0.0116
  364MOL0     C47977   4.769   9.646   9.503 -0.1233  0.5144  0.3534
  364MOL0     C47978   4.871   9.552   9.573 -0.2028  0.1489 -0.1114
  364MOL0     C47979   4.975   9.499   9.488  0.4903  0.4723 -0.0893
  364MOL0     C47980   5.044   9.435   9.410 -0.7247 -0.1319  0.0363
  364MOL0     C47981   4.233   9.641   9.229  0.4064 -0.2201  0.0357
  364MOL0     C47982   4.121   9.732   9.228 -1.1938 -0.1851  0.9119
  364MOL0     H47983   3.660   9.847   9.195  0.1322 -0.0537  2.3784
  364MOL0     H47984   3.452   9.991   9.205  0.8151 -1.9410 -0.7924
  364MOL0     H47985   3.293  10.142   9.144  2.6702 -0.5462 -2.9563
  364MOL0     H47986   3.428  10.220   9.076  0.5147  1.1452  0.6406
  364MOL0     H47987   3.314  10.400   9.057  1.5453 -2.8324 -2.0071
  364MOL0     H47988   3.282  10.410   9.231  0.8683  2.3738 -1.4694
  364MOL0     H47989   3.105  10.223   9.191  0.3680 -0.3914 -0.4528
  364MOL0     H47990   3.117  10.284   9.025  3.2345  0.7030  0.3082
  364MOL0     H47991   3.064  10.448   9.278  1.5464  1.6467 -0.1290
  364MOL0     H47992   3.031  10.500   9.107  0.4630  0.7866  0.6701
  364MOL0     H47993   2.875  10.298   9.277  1.0115 -0.3236  0.1766
  364MOL0     H47994   2.849  10.320   9.101  1.8648 -1.5946  0.3419
  364MOL0     H47995   2.808  10.578   9.154  2.7280 -1.5235 -0.7821
  364MOL0     H47996   2.838  10.544   9.313  0.5930  0.5860 -0.5471
  364MOL0     H47997   2.574  10.411   9.177  0.6937  0.0314 -0.0218
  364MOL0     H47998   2.643  10.380   9.336  1.6160 -0.4128  0.2250
  364MOL0     H47999   2.556  10.635   9.220  0.5456 -3.8676 -3.4323
  364MOL0     H48000   2.636  10.634   9.377  2.8115 -3.6513  1.4122
  364MOL0     H48001   2.336  10.475   9.232  2.4283  3.7063 -1.3126
  364MOL0     H48002   2.076  10.469   9.320  1.0000 -0.8270 -0.3619
  364MOL0     H48003   2.024  10.529   9.461 -1.2377  0.2350 -3.3283
  364MOL0     H48004   2.087  10.329   9.597  0.1934  4.2637  0.4890
  364MOL0     H48005   2.169  10.252   9.456 -0.3886 -1.2332  2.1208
  364MOL0     H48006   1.888  10.318   9.401  0.4069 -2.1075 -3.7253
  364MOL0     H48007   1.968  10.169   9.374 -3.7441  1.5557 -3.1252
  364MOL0     H48008   1.860  10.262   9.644  0.1661  0.5642 -0.4367
  364MOL0     H48009   1.951  10.119   9.619  0.6827 -1.1780 -1.6689
  364MOL0     H48010   1.774  10.123   9.781  1.9440 -1.0357 -5.3128
  364MOL0     H48011   1.565  10.057   9.938 -3.8137  0.9440 -0.0659
  364MOL0     H48012   1.372   9.930  10.209  0.1822 -0.9477 -0.1115
  364MOL0     H48013   1.173   9.890  10.395 -2.4898 -1.0658  0.0019
  364MOL0     H48014   0.815   9.858  10.242 -1.1585 -1.0481  1.1110
  364MOL0     H48015   0.765  10.021  10.288 -2.0999 -0.8956  0.8824
  364MOL0     H48016   0.636   9.943  10.428  1.0637  0.9207  1.2727
  364MOL0     H48017   0.764   9.921  10.538  1.8133 -1.8037 -0.4582
  364MOL0     H48018   0.645   9.702  10.370 -1.1208  1.9030 -0.2865
  364MOL0     H48019   0.659   9.712  10.549  2.3950 -0.1851  1.2170
  364MOL0     H48020   0.892   9.658  10.356 -0.0104 -0.2118  0.0075
  364MOL0     H48021   0.904   9.693  10.530 -1.5057 -0.4849  3.7066
  364MOL0     H48022   0.806   9.463  10.573  3.5727 -1.5883  0.0926
  364MOL0     H48023   0.920   9.441  10.465 -1.4783 -3.5124 -0.4941
  364MOL0     H48024   0.719   9.458  10.272  1.8860  1.9034  0.9602
  364MOL0     H48025   0.612   9.459  10.410  0.6217 -2.3670  0.2734
  364MOL0     H48026   0.809   9.249  10.336  0.1017  2.9184 -1.0774
  364MOL0     H48027   0.746   9.259  10.508 -0.4745 -1.0503 -0.3440
  364MOL0     H48028   0.585   9.196  10.262  3.6308 -2.5977 -1.0226
  364MOL0     H48029   0.523   9.228  10.428 -0.8581  0.2983  0.0913
  364MOL0     H48030   0.905  10.073  10.126  1.0590  2.1076 -2.3098
  364MOL0     H48031   1.092  10.124   9.983 -0.0709  3.7917  2.7299
  364MOL0     H48032   1.356   9.948   9.589  1.6425 -0.8778 -1.3060
  364MOL0     H48033   1.544  10.023   9.446 -1.4179  0.0297  1.0233
  364MOL0     H48034   3.693  10.311   9.345 -1.4535 -0.2714 -0.4401
  364MOL0     H48035   3.874  10.183   9.366 -1.5220  2.2246  0.7625
  364MOL0     H48036   4.260  10.037   9.267  1.4222  0.5213 -3.1526
  364MOL0     H48037   4.460   9.900   9.263 -0.7874  2.7167 -4.3451
  364MOL0     H48038   4.534   9.717   9.435 -0.5345 -1.6804  1.1913
  364MOL0     H48039   4.636   9.750   9.283 -0.9518 -3.3393 -2.8766
  364MOL0     H48040   4.641   9.499   9.446  2.8580 -0.6937  0.6841
  364MOL0     H48041   4.742   9.542   9.300  0.3733 -0.9796 -0.0788
  364MOL0     H48042   4.702   9.699   9.570 -0.7562  1.0420 -0.6650
  364MOL0     H48043   4.828   9.731   9.468  2.4825 -2.1513 -2.3666
  364MOL0     H48044   4.923   9.610   9.650 -0.7340  0.2463  0.1809
  364MOL0     H48045   4.810   9.472   9.617  0.7783 -0.3347  0.4081
  364MOL0     H48046   5.084   9.386   9.324 -1.3764 -5.3413  2.2662
  364MOL0     H48047   4.216   9.534   9.226  0.5186 -0.2372  0.0295
  364MOL0     H48048   4.016   9.707   9.214 -1.8312  0.7988  3.3454
  365MOL0     O48049   9.140   6.634  10.515 -0.1802  0.3379 -0.4534
  365MOL0     C48050   9.120   6.708  10.421  1.2698 -0.4883 -0.0502
  365MOL0     O48051   9.195   6.720  10.308  0.2364  0.3976 -0.1021
  365MOL0     C48052   9.326   6.677  10.307 -0.1034 -0.0749 -0.2530
  365MOL0     C48053   9.414   6.741  10.213 -0.3547 -0.2015 -0.6253
  365MOL0     C48054   9.551   6.710  10.192  0.3120  0.7137  0.8323
  365MOL0     C48055   9.607   6.612  10.274 -0.3802  0.0352 -0.4992
  365MOL0     O48056   9.741   6.588  10.263 -0.4388 -0.5372  0.6623
  365MOL0     C48057   9.804   6.498  10.358  0.4377 -0.3869 -1.4798
  365MOL0     C48058   9.951   6.541  10.376 -0.3555 -0.0138 -0.2312
  365MOL0     C48059  10.024   6.564  10.239 -0.2778  0.0273  0.2209
  365MOL0     C48060  10.031   6.711  10.180 -0.3135  0.5804  0.4141
  365MOL0     C48061  10.082   6.706  10.024  0.2988  0.4900  0.4324
  365MOL0     C48062  10.118   6.836   9.965 -0.0677 -0.2087  0.1307
  365MOL0     C48063  10.220   6.936  10.035 -0.1025 -0.5206  0.7451
  365MOL0     C48064  10.363   6.872  10.046 -0.1981 -0.2190 -0.7772
  365MOL0     N48065  10.434   6.876   9.921  0.0940 -0.9524 -0.3835
  365MOL0     C48066  10.510   6.977   9.877 -0.7972  0.8313 -0.3771
  365MOL0     C48067  10.549   6.942   9.756 -1.1185  0.3081 -0.6737
  365MOL0     C48068  10.657   7.028   9.684  0.4808 -0.2297 -0.0279
  365MOL0     C48069  10.788   6.959   9.684 -0.0705 -0.2998 -0.0150
  365MOL0     C48070  10.843   6.941   9.818 -0.8965 -1.0253 -0.3246
  365MOL0     C48071  10.969   6.869   9.803 -0.5701 -0.0717 -1.3594
  365MOL0     O48072  11.082   6.963   9.779  0.1038  0.5295 -0.1369
  365MOL0     C48073  11.209   6.943   9.831  0.6745 -0.9177 -0.1796
  365MOL0     C48074  11.312   7.031   9.805  1.6293  0.3592  0.2857
  365MOL0     C48075  11.436   7.004   9.846 -0.6965  0.4361  0.1529
  365MOL0     C48076  11.463   6.899   9.936 -0.4018  0.6708 -0.3058
  365MOL0     C48077  11.603   6.863   9.985  0.1522 -0.3055 -0.0136
  365MOL0     O48078  11.709   6.934   9.941  0.1104  0.3161  0.2920
  365MOL0     C48079  11.831   6.898   9.987 -1.2062 -0.3427 -0.0269
  365MOL0     C48080  11.906   6.807   9.908  0.7753  0.6414  0.5308
  365MOL0     C48081  12.023   6.758   9.946 -0.3824  0.8875 -0.4613
  365MOL0     C48082  12.081   6.803  10.070 -0.1881  0.3638  0.4578
  365MOL0     O48083  12.200   6.756  10.123  0.5125 -0.9851  0.1575
  365MOL0     C48084  12.272   6.663  10.043  0.3867 -0.3633  0.4390
  365MOL0     C48085  12.395   6.630  10.130 -0.4072 -0.5730  0.8748
  365MOL0     C48086  12.494   6.538  10.047  0.6257 -1.0231  0.5641
  365MOL0     C48087  12.628   6.512  10.108 -0.0214 -0.5856 -0.3853
  365MOL0     C48088  12.731   6.438  10.022 -0.7287 -0.1793 -0.2349
  365MOL0     C48089  12.748   6.488   9.880  1.3987  0.0912 -0.0232
  365MOL0     C48090  12.871   6.424   9.809  0.2620 -0.4259  0.2862
  365MOL0     C48091  13.011   6.421   9.875 -0.4055  0.3570  0.2341
  365MOL0    Cl48092  13.026   6.285   9.989 -0.0420  0.1808  0.7415
  365MOL0     C48093  12.019   6.904  10.142  0.1889 -0.3088 -0.3387
  365MOL0     C48094  11.889   6.950  10.109  0.3274  0.5258  0.2160
  365MOL0     O48095  11.613   6.783  10.083  0.3624  0.2172  0.2948
  365MOL0     C48096  11.361   6.822   9.983  0.9364 -0.3726  1.2055
  365MOL0     C48097  11.229   6.846   9.937 -0.3813  0.4304 -0.6675
  365MOL0     N48098  10.491   6.816   9.720 -0.2010 -0.0047  0.4471
  365MOL0     N48099  10.422   6.780   9.828  0.3401 -0.2610 -0.2837
  365MOL0     C48100   9.521   6.538  10.370 -0.1662 -0.7679 -0.3302
  365MOL0     C48101   9.385   6.576  10.384 -0.7166  0.0470  0.1477
  365MOL0     C48102   8.995   6.800  10.417 -0.0101  0.3437  0.0339
  365MOL0     C48103   8.901   6.796  10.523  0.6126  0.1698 -0.2120
  365MOL0     C48104   8.787   6.876  10.526 -0.2917 -0.2281 -0.9455
  365MOL0     C48105   8.756   6.959  10.417  0.6047 -0.3528 -0.2553
  365MOL0     O48106   8.635   7.035  10.405 -0.9194 -0.7496 -0.1825
  365MOL0     C48107   8.532   7.007  10.505  0.2731 -0.5272 -0.3419
  365MOL0     C48108   8.395   7.025  10.438 -1.4439 -0.9126  0.0222
  365MOL0     C48109   8.371   7.177  10.433 -0.3167 -0.4597  0.1171
  365MOL0     C48110   8.237   7.221  10.375 -0.4050 -0.4998 -0.2894
  365MOL0     C48111   8.224   7.220  10.225  0.7241 -0.5841 -0.5434
  365MOL0     C48112   8.220   7.205  10.114  0.3132  0.5069  0.1630
  365MOL0     C48113   8.851   6.968  10.312 -0.8231  0.4842 -0.3209
  365MOL0     C48114   8.971   6.891  10.313  0.1097 -0.1444 -0.8000
  365MOL0     H48115   9.376   6.812  10.140  2.5818  0.7257 -1.4222
  365MOL0     H48116   9.624   6.762  10.131 -0.4416 -0.2177 -0.9544
  365MOL0     H48117   9.794   6.398  10.315 -0.9258  0.6957 -3.8890
  365MOL0     H48118   9.760   6.506  10.458  0.2642 -0.6567 -1.5324
  365MOL0     H48119  10.014   6.466  10.424 -0.1766  2.0290  3.0543
  365MOL0     H48120   9.967   6.630  10.437 -1.5128  1.2495 -1.6841
  365MOL0     H48121   9.989   6.492  10.164 -0.4548  1.3377 -0.9863
  365MOL0     H48122  10.129   6.538  10.258  0.3781  1.5132 -1.1766
  365MOL0     H48123   9.932   6.759  10.185 -1.1945 -0.6461 -2.7527
  365MOL0     H48124  10.096   6.773  10.242 -0.6107  2.3185 -0.9345
  365MOL0     H48125  10.014   6.649   9.961  0.6287  0.4638  0.0962
  365MOL0     H48126  10.173   6.645  10.028 -0.5162 -0.8718 -0.9697
  365MOL0     H48127  10.029   6.894   9.937  0.3824  0.6055  0.3593
  365MOL0     H48128  10.162   6.818   9.866  0.9134  2.7282 -0.0679
  365MOL0     H48129  10.222   7.035   9.990  1.1803  0.6566  3.1494
  365MOL0     H48130  10.174   6.952  10.133 -1.2474 -1.3594  0.3602
  365MOL0     H48131  10.337   6.770  10.075  0.2811  0.3688  2.0670
  365MOL0     H48132  10.423   6.923  10.122 -0.3137 -0.6913 -0.3596
  365MOL0     H48133  10.531   7.059   9.945  0.8237  0.1840 -0.0394
  365MOL0     H48134  10.673   7.121   9.739  1.6005 -0.3971 -0.0401
  365MOL0     H48135  10.642   7.059   9.580 -0.4130 -0.7754 -0.0768
  365MOL0     H48136  10.852   7.014   9.614 -1.1121 -0.1394 -0.8858
  365MOL0     H48137  10.764   6.861   9.641  0.5706 -0.2496 -0.4938
  365MOL0     H48138  10.858   7.042   9.857  0.5848  0.4726 -4.2245
  365MOL0     H48139  10.789   6.868   9.879  2.6759 -1.5821  2.4800
  365MOL0     H48140  10.967   6.799   9.719  1.7602 -0.5911 -1.0492
  365MOL0     H48141  10.988   6.815   9.897 -1.1918 -0.3726 -1.3982
  365MOL0     H48142  11.281   7.107   9.733 -2.6314 -0.3466  1.1247
  365MOL0     H48143  11.525   7.052   9.808 -0.3014  0.0946  0.6254
  365MOL0     H48144  11.853   6.771   9.821  1.6898  1.8836 -0.5660
  365MOL0     H48145  12.082   6.689   9.886  0.4308  2.2670 -1.2863
  365MOL0     H48146  12.294   6.705   9.944  0.5409  0.2159  0.7176
  365MOL0     H48147  12.218   6.571  10.015 -0.9251  0.9484 -1.6113
  365MOL0     H48148  12.365   6.577  10.221 -2.0644 -4.1612 -1.5584
  365MOL0     H48149  12.456   6.719  10.151  1.4884 -1.5564 -0.1833
  365MOL0     H48150  12.513   6.581   9.949  0.2963 -1.6530  0.2155
  365MOL0     H48151  12.440   6.450  10.010 -2.0095  1.8311 -3.0447
  365MOL0     H48152  12.683   6.604  10.128 -1.4858  0.4243 -0.8831
  365MOL0     H48153  12.622   6.451  10.199  3.5408 -3.3905 -1.7592
  365MOL0     H48154  12.704   6.332  10.018 -1.7594  0.0943 -0.8388
  365MOL0     H48155  12.827   6.443  10.075  0.3638 -3.2809 -1.6315
  365MOL0     H48156  12.752   6.596   9.872 -0.0489  0.0734 -1.3845
  365MOL0     H48157  12.651   6.455   9.840 -0.9785  1.6268  3.8672
  365MOL0     H48158  12.840   6.325   9.776 -0.4767 -0.8215  2.0843
  365MOL0     H48159  12.890   6.477   9.715 -2.5550 -1.1133 -0.7520
  365MOL0     H48160  13.040   6.521   9.907  2.1352 -0.6523  1.3973
  365MOL0     H48161  13.085   6.398   9.798  3.5049  1.9361  3.1684
  365MOL0     H48162  12.054   6.940  10.238 -3.5659  0.2360  0.9911
  365MOL0     H48163  11.842   7.034  10.158  1.8944  2.5042 -1.4262
  365MOL0     H48164  11.379   6.741  10.053 -1.8071 -1.2425  1.0001
  365MOL0     H48165  11.164   6.766   9.973  0.7955 -0.7134 -1.0154
  365MOL0     H48166   9.551   6.460  10.439 -2.0448  0.0099  1.4431
  365MOL0     H48167   9.329   6.517  10.456 -0.8118  0.3340  0.3152
  365MOL0     H48168   8.921   6.735  10.610 -1.5621 -0.9032 -0.3927
  365MOL0     H48169   8.717   6.870  10.608 -1.1107 -0.0195 -1.6109
  365MOL0     H48170   8.540   7.072  10.592  2.2568  0.0532 -0.9015
  365MOL0     H48171   8.526   6.908  10.551 -2.4231 -0.6732 -0.8189
  365MOL0     H48172   8.386   6.970  10.344 -2.9499 -3.6230  1.5895
  365MOL0     H48173   8.316   6.984  10.502  1.4436 -3.3484  2.3577
  365MOL0     H48174   8.441   7.233  10.371  0.2529  1.9117  2.7131
  365MOL0     H48175   8.379   7.218  10.534  0.5932  3.8698 -1.4986
  365MOL0     H48176   8.163   7.160  10.429  2.8365 -1.3415  3.6833
  365MOL0     H48177   8.219   7.325  10.405  0.3059 -1.3999  3.9460
  365MOL0     H48178   8.214   7.196  10.007  2.8417 -0.1431  0.0048
  365MOL0     H48179   8.829   7.031  10.226 -1.0140 -0.5221 -1.0243
  365MOL0     H48180   9.038   6.898  10.228  1.5909  1.8846  0.4240
  366MOL0     O48181   7.057   5.620   8.442  0.1914 -0.3269  0.0504
  366MOL0     C48182   6.991   5.573   8.345 -0.7852  0.3900 -0.2017
  366MOL0     O48183   7.029   5.587   8.216 -0.4627 -0.3971  0.3199
  366MOL0     C48184   7.153   5.635   8.191 -0.5483 -0.2299 -0.0817
  366MOL0     C48185   7.176   5.742   8.112  0.4169 -0.6563  0.5904
  366MOL0     C48186   7.299   5.808   8.088  0.9069 -0.1304 -0.0632
  366MOL0     C48187   7.417   5.740   8.124 -0.1114  0.6279  0.5018
  366MOL0     O48188   7.536   5.801   8.079 -0.2280 -0.4885 -0.0297
  366MOL0     C48189   7.656   5.747   8.119 -0.6668 -0.0528  0.8020
  366MOL0     C48190   7.767   5.768   8.014  1.0503  0.3158  0.0893
  366MOL0     C48191   7.791   5.661   7.910 -0.4159 -0.5743 -0.1102
  366MOL0     C48192   7.661   5.646   7.815  0.6002  0.4467  0.0518
  366MOL0     C48193   7.671   5.742   7.702 -0.1256 -0.1283 -0.1973
  366MOL0     C48194   7.542   5.784   7.619 -0.0370 -0.1728 -0.9139
  366MOL0     C48195   7.439   5.849   7.717  0.6840 -0.0742  0.7084
  366MOL0     C48196   7.307   5.870   7.628  0.1193 -0.0650 -0.8427
  366MOL0     N48197   7.187   5.924   7.698  0.1541  0.5193 -0.3460
  366MOL0     C48198   7.131   6.052   7.686  0.0383  0.1467 -0.0700
  366MOL0     C48199   7.038   6.059   7.792  0.3479  0.4134  1.0060
  366MOL0     C48200   6.939   6.160   7.825 -0.1714 -0.5211 -1.1168
  366MOL0     C48201   6.886   6.226   7.695 -0.1077  0.2686 -0.0787
  366MOL0     C48202   6.757   6.299   7.721  0.1655 -0.0770  1.3801
  366MOL0     C48203   6.700   6.369   7.603 -0.1721 -0.6885 -0.7767
  366MOL0     O48204   6.559   6.368   7.609  0.4546 -0.0549 -0.1796
  366MOL0     C48205   6.490   6.431   7.519 -0.3146 -0.1915  0.4043
  366MOL0     C48206   6.544   6.512   7.416 -0.8129  0.3570 -0.0976
  366MOL0     C48207   6.462   6.561   7.313 -1.7056 -0.3239  0.2634
  366MOL0     C48208   6.327   6.548   7.319  0.1604 -0.0760 -1.3654
  366MOL0     C48209   6.234   6.611   7.217  0.4476 -0.3042  0.1543
  366MOL0     O48210   6.106   6.635   7.256  0.3188  0.5128  1.1139
  366MOL0     C48211   6.019   6.694   7.167  0.4407 -0.2842 -0.3142
  366MOL0     C48212   5.886   6.654   7.192 -0.0902  0.4743  0.4109
  366MOL0     C48213   5.777   6.707   7.124  0.5767 -0.1611  1.0374
  366MOL0     C48214   5.785   6.807   7.031 -0.8178 -0.7423  1.1219
  366MOL0     O48215   5.682   6.867   6.955 -0.1925  0.3221  0.2863
  366MOL0     C48216   5.549   6.845   6.996  0.4863  0.2314 -0.1508
  366MOL0     C48217   5.449   6.936   6.918  0.1542  1.0056  0.0391
  366MOL0     C48218   5.320   6.936   7.004 -0.0070  0.0985 -0.6815
  366MOL0     C48219   5.230   7.046   6.955 -0.3087  0.1383 -0.6950
  366MOL0     C48220   5.086   7.038   7.016 -0.1891  0.2881  0.3007
  366MOL0     C48221   4.998   6.917   6.950 -0.4065 -0.4139  0.2566
  366MOL0     C48222   4.838   6.931   6.963 -0.2090  0.1841  0.2985
  366MOL0     C48223   4.761   6.813   6.903  0.4475  0.4390  0.0521
  366MOL0    Cl48224   4.758   6.688   7.022  0.1764  0.5049  0.0985
  366MOL0     C48225   5.917   6.854   7.011 -0.6994 -0.2997 -0.6804
  366MOL0     C48226   6.033   6.800   7.078  1.1410 -0.1788  0.6593
  366MOL0     O48227   6.290   6.649   7.117  0.2041 -1.0362 -0.0144
  366MOL0     C48228   6.274   6.483   7.430  1.1554  0.3871  0.3309
  366MOL0     C48229   6.350   6.420   7.524  0.5052  0.6328  0.5004
  366MOL0     N48230   7.047   5.946   7.860 -0.0498  0.7682  0.4641
  366MOL0     N48231   7.131   5.861   7.808  0.2671 -0.2710 -0.2404
  366MOL0     C48232   7.394   5.628   8.205  0.6163  0.3393 -0.1195
  366MOL0     C48233   7.267   5.575   8.240  0.2290  0.9656  0.1719
  366MOL0     C48234   6.874   5.484   8.378  0.8452 -0.4562  0.8427
  366MOL0     C48235   6.832   5.461   8.506  0.1023 -0.0009 -0.6525
  366MOL0     C48236   6.735   5.374   8.535  0.8997 -0.4702 -0.1196
  366MOL0     C48237   6.649   5.312   8.437  0.1175  0.0066 -0.6462
  366MOL0     O48238   6.551   5.229   8.482  0.6088  0.5386  0.1201
  366MOL0     C48239   6.434   5.191   8.395 -0.5927  0.4895 -0.2499
  366MOL0     C48240   6.314   5.156   8.469  0.3672  0.1311 -0.9333
  366MOL0     C48241   6.311   5.015   8.524  0.3476 -0.2590  0.1901
  366MOL0     C48242   6.174   4.966   8.562  0.9362 -0.1948 -0.2816
  366MOL0     C48243   6.186   4.839   8.632 -0.1431 -0.1830  0.5126
  366MOL0     C48244   6.210   4.740   8.692 -0.3708 -0.7339 -0.0218
  366MOL0     C48245   6.688   5.342   8.309  0.6023 -0.1369 -0.4053
  366MOL0     C48246   6.797   5.418   8.274 -0.7506 -0.1312 -1.2856
  366MOL0     H48247   7.086   5.786   8.071 -0.1869 -3.0942 -0.9458
  366MOL0     H48248   7.311   5.888   8.015  3.0158  0.1952  0.5676
  366MOL0     H48249   7.637   5.641   8.138 -0.3895  0.2097  2.8433
  366MOL0     H48250   7.675   5.793   8.216 -1.7282 -0.8942  1.4272
  366MOL0     H48251   7.854   5.777   8.080 -2.0645  2.0547  4.4594
  366MOL0     H48252   7.752   5.867   7.969 -1.9300  1.2728  2.8348
  366MOL0     H48253   7.803   5.564   7.960 -1.1563 -0.0364  1.1670
  366MOL0     H48254   7.879   5.689   7.852 -2.0469  1.5868 -1.7149
  366MOL0     H48255   7.669   5.547   7.770 -0.8534  1.1976 -1.9996
  366MOL0     H48256   7.569   5.663   7.871  1.6810  3.1428  1.1959
  366MOL0     H48257   7.748   5.703   7.635 -0.0661  1.1989 -0.9529
  366MOL0     H48258   7.725   5.825   7.750  0.2107 -1.4465  1.8102
  366MOL0     H48259   7.491   5.700   7.573  1.3042 -1.5943  0.0893
  366MOL0     H48260   7.565   5.857   7.540 -1.1745  0.1216 -0.9939
  366MOL0     H48261   7.411   5.778   7.796 -2.7044 -2.0193 -1.9899
  366MOL0     H48262   7.474   5.947   7.749  3.0470 -0.0545 -1.6112
  366MOL0     H48263   7.278   5.774   7.584 -2.2437 -0.2113  0.8042
  366MOL0     H48264   7.333   5.938   7.547  2.9572  0.2404  0.2222
  366MOL0     H48265   7.171   6.123   7.614  0.4929 -2.5254 -2.6092
  366MOL0     H48266   6.991   6.231   7.889  0.4472 -2.5715  0.8035
  366MOL0     H48267   6.853   6.115   7.877 -1.1377 -1.8911 -3.6749
  366MOL0     H48268   6.873   6.145   7.623  3.0087 -0.4516  0.0254
  366MOL0     H48269   6.960   6.302   7.667  1.7394 -0.1639  3.1852
  366MOL0     H48270   6.685   6.234   7.772 -0.1770  2.0692  3.8349
  366MOL0     H48271   6.775   6.388   7.782 -0.0193  0.1068  1.1693
  366MOL0     H48272   6.728   6.324   7.507 -3.5541 -0.7669 -1.8407
  366MOL0     H48273   6.746   6.468   7.596  2.4010 -1.7201  0.3687
  366MOL0     H48274   6.652   6.521   7.404 -0.9575  0.5325 -1.5425
  366MOL0     H48275   6.503   6.615   7.228 -0.6086  1.5361  1.8727
  366MOL0     H48276   5.871   6.580   7.270  2.8982  2.2691  2.9183
  366MOL0     H48277   5.677   6.666   7.139  0.1706 -0.8260 -2.4512
  366MOL0     H48278   5.556   6.863   7.104  1.6060  1.5463 -0.4133
  366MOL0     H48279   5.510   6.745   6.975 -2.3592  0.3306  3.5368
  366MOL0     H48280   5.420   6.905   6.817 -1.2806  0.5454  0.5642
  366MOL0     H48281   5.490   7.038   6.920  0.3444  0.9353 -0.3172
  366MOL0     H48282   5.340   6.941   7.112  2.3404 -1.8099 -0.9615
  366MOL0     H48283   5.279   6.836   6.989  0.3680  0.2760 -3.1660
  366MOL0     H48284   5.277   7.142   6.979  0.8222 -0.9306  1.7024
  366MOL0     H48285   5.232   7.035   6.846 -0.5586 -0.9202 -0.6013
  366MOL0     H48286   5.034   7.131   6.991  2.1236  1.1929 -1.5569
  366MOL0     H48287   5.098   7.038   7.125 -1.3318 -2.7061  0.5081
  366MOL0     H48288   5.037   6.827   6.997 -1.0145 -2.9427 -3.6250
  366MOL0     H48289   5.021   6.906   6.844 -0.1778 -2.2220  0.4740
  366MOL0     H48290   4.812   6.955   7.066 -2.5378 -0.0189 -0.1812
  366MOL0     H48291   4.820   7.025   6.908 -3.3871 -0.4994 -0.0130
  366MOL0     H48292   4.785   6.777   6.803 -2.2722 -0.3495 -0.4069
  366MOL0     H48293   4.656   6.844   6.891 -0.6528 -1.1604  3.8291
  366MOL0     H48294   5.933   6.936   6.941 -2.0343  0.7960  0.2352
  366MOL0     H48295   6.130   6.848   7.069  0.5533  0.7206 -1.5935
  366MOL0     H48296   6.167   6.469   7.441  0.9667  1.0169 -0.6057
  366MOL0     H48297   6.307   6.368   7.608 -0.8770 -1.5995 -1.4576
  366MOL0     H48298   7.485   5.582   8.244  1.2886  2.1985  0.5803
  366MOL0     H48299   7.271   5.487   8.303 -1.3728  0.4446 -0.4137
  366MOL0     H48300   6.892   5.507   8.583 -1.3760 -0.6935  0.9780
  366MOL0     H48301   6.719   5.351   8.640  1.1799 -1.4162 -0.2688
  366MOL0     H48302   6.466   5.107   8.333  1.5852  2.4160 -1.9314
  366MOL0     H48303   6.406   5.273   8.328 -0.8402  1.2480  0.7551
  366MOL0     H48304   6.295   5.223   8.553  1.5436  0.1737 -0.6860
  366MOL0     H48305   6.229   5.166   8.401 -0.5239 -2.1256 -0.2476
  366MOL0     H48306   6.378   5.014   8.611 -2.1437  0.6925  2.2498
  366MOL0     H48307   6.343   4.948   8.444  0.4912 -1.0326  0.8869
  366MOL0     H48308   6.128   5.051   8.613  0.9090  0.4722 -1.3772
  366MOL0     H48309   6.116   4.944   8.472  0.0579 -1.4351  0.5606
  366MOL0     H48310   6.229   4.650   8.747 -0.0787 -0.0493  1.0212
  366MOL0     H48311   6.621   5.302   8.233 -1.0646 -0.0783  0.9805
  366MOL0     H48312   6.822   5.432   8.170  0.1527 -2.4238 -1.4431
  367MOL0     O48313   7.958   3.854   2.859 -0.2168  0.4266  0.0321
  367MOL0     C48314   7.884   3.910   2.783 -0.2233 -0.0535  0.2448
  367MOL0     O48315   7.822   3.856   2.675  0.4642  0.1555  0.2691
  367MOL0     C48316   7.828   3.718   2.665  0.0374 -0.4347 -0.4370
  367MOL0     C48317   7.940   3.636   2.668  0.2943 -0.4058  0.1104
  367MOL0     C48318   7.922   3.499   2.638  0.3761  0.5540 -0.0882
  367MOL0     C48319   7.795   3.445   2.612 -0.8433  0.0254 -0.1217
  367MOL0     O48320   7.750   3.320   2.596  0.3987  0.2755  0.4659
  367MOL0     C48321   7.847   3.224   2.639 -0.2689 -0.4361 -0.1106
  367MOL0     C48322   7.789   3.084   2.654 -1.1973  0.8237 -0.1859
  367MOL0     C48323   7.735   3.018   2.533  0.6616  0.7297 -0.2968
  367MOL0     C48324   7.666   2.882   2.554 -0.4220 -1.2607  0.2432
  367MOL0     C48325   7.608   2.857   2.422  0.3326  1.3695  0.0103
  367MOL0     C48326   7.571   2.709   2.426  0.4855 -0.2276 -0.4496
  367MOL0     C48327   7.536   2.668   2.283 -0.1843  0.1025  0.5769
  367MOL0     C48328   7.458   2.538   2.292  0.2937  0.0044 -0.0280
  367MOL0     N48329   7.447   2.472   2.165 -0.0529  0.0482 -0.2385
  367MOL0     C48330   7.449   2.529   2.039 -0.6349 -0.5344 -0.9629
  367MOL0     C48331   7.449   2.432   1.952 -0.1455  0.1100 -0.1061
  367MOL0     C48332   7.496   2.438   1.807 -0.1455  0.0385  0.1341
  367MOL0     C48333   7.364   2.452   1.715  0.3162  0.1509  0.2230
  367MOL0     C48334   7.273   2.327   1.731  0.1910  0.7167  0.6522
  367MOL0     C48335   7.149   2.331   1.632 -0.2693 -0.2291  0.5249
  367MOL0     O48336   7.071   2.438   1.671  0.5690 -0.6338  0.2589
  367MOL0     C48337   6.935   2.416   1.672  0.6900  0.0128 -0.1259
  367MOL0     C48338   6.843   2.533   1.666 -0.1866  0.3276  1.0357
  367MOL0     C48339   6.702   2.529   1.654  0.7673 -0.1215  0.1733
  367MOL0     C48340   6.633   2.409   1.662 -0.3845  1.1068  0.2924
  367MOL0     C48341   6.489   2.403   1.669  0.4319 -0.3875 -0.6352
  367MOL0     O48342   6.421   2.523   1.689 -0.6243  0.4824 -0.8539
  367MOL0     C48343   6.286   2.535   1.718 -0.4905  0.0639  0.5153
  367MOL0     C48344   6.243   2.672   1.724 -0.4035 -0.6864  0.1045
  367MOL0     C48345   6.107   2.703   1.727 -0.3557  0.7968  0.6980
  367MOL0     C48346   6.007   2.601   1.727  0.6065  0.2338  0.2408
  367MOL0     O48347   5.882   2.653   1.755  0.3197  0.2001  0.4351
  367MOL0     C48348   5.792   2.576   1.842 -0.9110  0.4485 -0.8900
  367MOL0     C48349   5.667   2.644   1.870  0.0481  0.0468 -0.5083
  367MOL0     C48350   5.673   2.736   1.990 -0.0393  0.3620 -0.4386
  367MOL0     C48351   5.534   2.807   2.014  0.0411  0.0090  1.1467
  367MOL0     C48352   5.541   2.918   2.125 -0.5049  1.3337  0.9200
  367MOL0     C48353   5.449   3.033   2.096  0.5023 -0.0676  1.3212
  367MOL0     C48354   5.483   3.095   1.957 -1.4996 -0.2657 -0.1343
  367MOL0     C48355   5.520   3.242   1.972 -0.8943  0.6096 -0.2020
  367MOL0    Cl48356   5.519   3.308   1.812  0.1478  0.0629  0.3502
  367MOL0     C48357   6.052   2.468   1.714 -0.8327  0.6045 -0.3299
  367MOL0     C48358   6.187   2.440   1.702 -0.3354  0.5896  0.2181
  367MOL0     O48359   6.437   2.293   1.654 -0.7240  0.3130 -0.4863
  367MOL0     C48360   6.712   2.292   1.667  0.0106  0.1588 -0.8170
  367MOL0     C48361   6.859   2.299   1.685 -0.3560 -0.1951 -0.6305
  367MOL0     N48362   7.436   2.320   2.024 -0.6690  0.5153 -0.8999
  367MOL0     N48363   7.424   2.340   2.147 -0.3340 -0.9206  0.7586
  367MOL0     C48364   7.686   3.529   2.615 -0.6017 -0.2319 -0.4572
  367MOL0     C48365   7.697   3.664   2.633 -0.1951 -0.8774 -0.1583
  367MOL0     C48366   7.870   4.062   2.799 -0.2767  0.4238  0.9542
  367MOL0     C48367   7.781   4.138   2.724  0.6810 -0.4850  0.1289
  367MOL0     C48368   7.772   4.279   2.743  0.2837 -0.6059  0.0401
  367MOL0     C48369   7.854   4.355   2.831 -0.5393 -0.3241 -0.0171
  367MOL0     O48370   7.863   4.494   2.821 -0.3515  0.3263 -0.7105
  367MOL0     C48371   7.990   4.531   2.760 -0.8465  0.0371 -0.3523
  367MOL0     C48372   7.964   4.669   2.695  0.5840 -0.1546 -0.1391
  367MOL0     C48373   8.097   4.737   2.657 -0.3492 -0.2080 -0.9054
  367MOL0     C48374   8.128   4.843   2.760  0.3379 -0.0545 -0.4588
  367MOL0     C48375   8.175   4.787   2.890  0.2373  0.5373 -0.6554
  367MOL0     C48376   8.225   4.730   2.991 -0.1442 -0.3523  0.4541
  367MOL0     C48377   7.940   4.275   2.908 -0.1438 -0.8056  0.7908
  367MOL0     C48378   7.955   4.136   2.886  0.0540  0.3678  0.1670
  367MOL0     H48379   8.043   3.669   2.680 -0.3525  1.7699 -0.0797
  367MOL0     H48380   8.019   3.450   2.634  0.4371  0.5452  1.0909
  367MOL0     H48381   7.885   3.260   2.734 -1.5119  2.2053 -0.5243
  367MOL0     H48382   7.939   3.229   2.581  0.8460  1.1346  1.6897
  367MOL0     H48383   7.713   3.086   2.732 -0.8804  1.8585  0.1028
  367MOL0     H48384   7.862   3.015   2.698 -1.9819  0.4322  0.5355
  367MOL0     H48385   7.810   3.004   2.455  0.3996 -2.1045 -0.1407
  367MOL0     H48386   7.673   3.101   2.496  3.9505  2.5723 -2.0660
  367MOL0     H48387   7.740   2.808   2.583 -0.2561 -1.4788 -0.7076
  367MOL0     H48388   7.586   2.892   2.628  0.5881 -1.5852  1.4144
  367MOL0     H48389   7.686   2.889   2.353  0.3744  3.8410  1.1098
  367MOL0     H48390   7.523   2.922   2.402 -0.3539 -0.6439 -4.8149
  367MOL0     H48391   7.486   2.694   2.492 -0.0481 -0.4125 -1.1649
  367MOL0     H48392   7.642   2.634   2.463 -2.4884 -2.8842  0.3133
  367MOL0     H48393   7.473   2.739   2.229  0.6360  1.3449  1.2149
  367MOL0     H48394   7.628   2.659   2.225 -1.0155  0.4924 -0.8403
  367MOL0     H48395   7.357   2.552   2.333 -0.9162  1.0130 -3.0553
  367MOL0     H48396   7.511   2.468   2.357  1.3095  2.9803  2.6309
  367MOL0     H48397   7.448   2.636   2.024 -2.8139 -0.3200  0.2929
  367MOL0     H48398   7.556   2.352   1.776  0.5708  1.1195 -1.5850
  367MOL0     H48399   7.549   2.532   1.791  0.3063 -0.1635  0.4279
  367MOL0     H48400   7.404   2.455   1.613  0.0866  3.8252  0.0972
  367MOL0     H48401   7.311   2.540   1.753  1.3039  1.4138 -1.1932
  367MOL0     H48402   7.334   2.246   1.690 -2.0275 -1.4023  1.3090
  367MOL0     H48403   7.247   2.301   1.834 -0.7475 -1.7501 -0.1384
  367MOL0     H48404   7.099   2.237   1.658 -0.5352  0.6528  3.7429
  367MOL0     H48405   7.177   2.339   1.527  3.5225 -2.9839  1.1040
  367MOL0     H48406   6.878   2.630   1.633  2.2452 -1.5154 -2.5460
  367MOL0     H48407   6.634   2.608   1.623  1.2121  0.2165  0.0389
  367MOL0     H48408   6.314   2.754   1.717 -1.5249  0.2742 -0.1950
  367MOL0     H48409   6.069   2.804   1.736  1.6435  1.4708  2.2958
  367MOL0     H48410   5.850   2.553   1.932 -0.3428  1.8159 -0.8659
  367MOL0     H48411   5.765   2.483   1.791 -1.5348 -0.7523  1.5023
  367MOL0     H48412   5.598   2.561   1.886 -1.5619  1.3077 -0.7075
  367MOL0     H48413   5.638   2.706   1.786 -3.9061 -0.4960  0.2877
  367MOL0     H48414   5.747   2.816   1.978 -1.3613  1.6773 -0.1089
  367MOL0     H48415   5.704   2.687   2.083  0.0800  0.5956 -0.3543
  367MOL0     H48416   5.506   2.844   1.915  4.3660  1.2779  0.1977
  367MOL0     H48417   5.467   2.728   2.050  2.1552 -1.9413  1.0227
  367MOL0     H48418   5.646   2.943   2.140  0.0188 -0.9777  1.4693
  367MOL0     H48419   5.508   2.860   2.212  1.7372 -0.0004  0.9473
  367MOL0     H48420   5.463   3.105   2.177 -4.0528 -0.1136  2.4266
  367MOL0     H48421   5.351   2.987   2.107  0.0926  0.1228 -0.9408
  367MOL0     H48422   5.578   3.062   1.913 -1.0104  2.0088 -0.9034
  367MOL0     H48423   5.402   3.086   1.885 -1.7164  1.5881 -0.1584
  367MOL0     H48424   5.619   3.238   2.018 -1.3334 -3.2594  0.7273
  367MOL0     H48425   5.463   3.294   2.050  2.7480  0.5688  2.7375
  367MOL0     H48426   5.975   2.392   1.706  1.5704 -2.5934  3.2836
  367MOL0     H48427   6.215   2.337   1.678 -0.4294  0.3811  0.9948
  367MOL0     H48428   6.661   2.199   1.691  0.8759  0.1983  1.4348
  367MOL0     H48429   6.915   2.214   1.722 -3.4110 -2.0015  0.2352
  367MOL0     H48430   7.584   3.493   2.610 -1.5154  2.1285  0.0389
  367MOL0     H48431   7.623   3.743   2.636  1.6563  0.9304  0.6560
  367MOL0     H48432   7.723   4.099   2.640 -1.8411  3.9918 -0.5506
  367MOL0     H48433   7.710   4.337   2.675  1.6885 -0.8974 -1.5473
  367MOL0     H48434   8.019   4.459   2.683  1.8269  0.4455  0.1795
  367MOL0     H48435   8.061   4.533   2.842  1.6320  1.9731 -2.3832
  367MOL0     H48436   7.918   4.650   2.598 -0.8083 -2.0044  0.8236
  367MOL0     H48437   7.899   4.723   2.765  2.2510 -0.7389  1.9697
  367MOL0     H48438   8.101   4.774   2.554  1.7416  0.9303 -0.4727
  367MOL0     H48439   8.178   4.663   2.649 -0.1733 -0.0376 -0.7187
  367MOL0     H48440   8.213   4.901   2.723 -1.1985  1.2340 -2.1277
  367MOL0     H48441   8.048   4.917   2.769  2.2327  2.4119 -2.3621
  367MOL0     H48442   8.274   4.680   3.071  3.1230  1.0082 -0.5064
  367MOL0     H48443   8.019   4.317   2.970 -0.2053 -2.2198  1.8974
  367MOL0     H48444   8.026   4.089   2.954  1.7251 -1.1798 -2.4938
  368MOL0     O48445   4.466   4.762   1.691 -0.3415  0.1421  0.0628
  368MOL0     C48446   4.456   4.819   1.796  0.5956  0.2917  0.6012
  368MOL0     O48447   4.353   4.893   1.840  0.2675  0.6083  0.3617
  368MOL0     C48448   4.253   4.940   1.750 -0.5980  0.1370 -0.4738
  368MOL0     C48449   4.287   4.996   1.624 -0.4059  0.0146  0.7405
  368MOL0     C48450   4.182   5.034   1.522 -1.1176  0.2621  0.1395
  368MOL0     C48451   4.051   5.045   1.565 -0.6914  0.8858  0.9424
  368MOL0     O48452   3.968   5.082   1.464 -1.0509  0.6964 -0.4215
  368MOL0     C48453   3.886   4.967   1.430  0.4929 -0.1590 -0.6188
  368MOL0     C48454   3.747   5.020   1.391 -0.7070  0.3082  0.9744
  368MOL0     C48455   3.650   5.068   1.496  0.2970 -1.3254 -0.3121
  368MOL0     C48456   3.515   5.106   1.448  0.4760 -0.2165 -0.5161
  368MOL0     C48457   3.408   5.131   1.556  0.7615 -0.2475  0.3117
  368MOL0     C48458   3.410   5.274   1.608 -0.8362  0.4083 -0.9705
  368MOL0     C48459   3.512   5.323   1.713  0.4691  0.3871  0.0671
  368MOL0     C48460   3.533   5.474   1.725 -1.8119  1.2365  0.7451
  368MOL0     N48461   3.398   5.537   1.730  0.3476 -0.3429 -0.0553
  368MOL0     C48462   3.313   5.552   1.833  0.5164  0.8113 -0.4548
  368MOL0     C48463   3.195   5.598   1.784  0.2219 -0.2942 -0.6231
  368MOL0     C48464   3.073   5.636   1.869  0.3228 -0.1454 -0.1600
  368MOL0     C48465   3.047   5.779   1.903 -0.1015 -0.2008 -0.2207
  368MOL0     C48466   2.900   5.802   1.964  0.7296 -0.3525  0.4654
  368MOL0     C48467   2.849   5.948   1.955  0.6281  0.1200 -0.0054
  368MOL0     O48468   2.707   5.940   1.968 -0.3690  0.2202 -0.3236
  368MOL0     C48469   2.640   6.056   2.000 -0.8472 -0.3766  0.1231
  368MOL0     C48470   2.503   6.057   1.993  0.0346 -0.1162  1.1317
  368MOL0     C48471   2.434   6.178   2.011  0.0898  0.0361 -0.3090
  368MOL0     C48472   2.494   6.296   2.053 -0.4605  0.0191  0.3127
  368MOL0     C48473   2.410   6.415   2.096  0.0919  0.4398  0.0617
  368MOL0     O48474   2.271   6.396   2.118 -0.8274  0.0031  0.0032
  368MOL0     C48475   2.207   6.483   2.193 -0.1130 -1.3586  0.4264
  368MOL0     C48476   2.183   6.453   2.332  0.8027  0.2996  0.3488
  368MOL0     C48477   2.109   6.530   2.412  0.0899 -0.4873  0.3019
  368MOL0     C48478   2.045   6.647   2.360  0.2562  0.2509 -0.1786
  368MOL0     O48479   1.979   6.728   2.445 -0.0601 -0.8462 -0.4313
  368MOL0     C48480   1.881   6.825   2.382 -0.1821  0.9774  0.0747
  368MOL0     C48481   1.765   6.831   2.482 -0.6031 -0.2282 -0.1093
  368MOL0     C48482   1.658   6.927   2.429 -0.0143  0.0906 -0.3411
  368MOL0     C48483   1.530   6.936   2.515  0.3951 -0.8914  0.5154
  368MOL0     C48484   1.422   7.022   2.453  0.1356 -0.4508  0.1984
  368MOL0     C48485   1.283   7.009   2.534 -0.4041 -0.0449 -0.6533
  368MOL0     C48486   1.169   7.062   2.454  0.4188 -0.3527  0.0221
  368MOL0     C48487   1.041   6.996   2.513 -0.6747 -0.1234  0.1432
  368MOL0    Cl48488   0.908   7.042   2.398 -0.1129  0.2801 -0.6374
  368MOL0     C48489   2.065   6.683   2.221 -0.1235  0.5041  0.2029
  368MOL0     C48490   2.147   6.597   2.141 -0.0635 -0.8379  0.5302
  368MOL0     O48491   2.469   6.526   2.117  0.1960 -0.1230  0.6877
  368MOL0     C48492   2.636   6.296   2.054 -0.2213 -0.4037 -0.9114
  368MOL0     C48493   2.705   6.183   2.034 -0.4109  0.6002  0.5564
  368MOL0     N48494   3.215   5.634   1.651  0.5921 -0.0074  0.0069
  368MOL0     N48495   3.334   5.594   1.619  0.2562 -0.1157 -0.0949
  368MOL0     C48496   4.017   5.002   1.693  0.1008  1.2051  0.5995
  368MOL0     C48497   4.112   4.940   1.780 -0.4043 -0.3707 -0.2685
  368MOL0     C48498   4.562   4.779   1.889  0.5002 -0.6772 -0.6270
  368MOL0     C48499   4.552   4.778   2.029 -0.1748 -0.1549  0.9593
  368MOL0     C48500   4.662   4.754   2.119 -0.1419 -0.4239  0.0934
  368MOL0     C48501   4.792   4.725   2.072 -0.3738 -0.6577 -0.8213
  368MOL0     O48502   4.888   4.700   2.167 -0.3293  0.3792  0.1304
  368MOL0     C48503   4.995   4.605   2.145 -0.4645  0.0649  0.4876
  368MOL0     C48504   5.071   4.590   2.282 -1.0184  0.2870  0.4576
  368MOL0     C48505   5.171   4.471   2.281  0.5678  0.4043 -0.8323
  368MOL0     C48506   5.280   4.506   2.181  0.4023 -0.7428 -0.3025
  368MOL0     C48507   5.264   4.429   2.062  0.1154  1.0571  0.6042
  368MOL0     C48508   5.247   4.364   1.965 -0.4277 -0.1550  0.4649
  368MOL0     C48509   4.798   4.701   1.934  0.0159  0.2927  0.0804
  368MOL0     C48510   4.689   4.736   1.844 -1.0768 -0.0565  0.5103
  368MOL0     H48511   4.392   4.994   1.596 -0.3244 -2.0927  1.0871
  368MOL0     H48512   4.211   5.072   1.425  0.7516  1.2737  1.0308
  368MOL0     H48513   3.876   4.900   1.515  2.8443 -0.8665 -0.8222
  368MOL0     H48514   3.929   4.911   1.346  0.8225  0.9164 -1.1886
  368MOL0     H48515   3.705   4.951   1.317  1.6078  0.6287 -0.7505
  368MOL0     H48516   3.778   5.107   1.332 -0.2741 -0.2285  0.3875
  368MOL0     H48517   3.692   5.158   1.542  0.7045 -1.0839 -1.1534
  368MOL0     H48518   3.626   4.990   1.569 -7.1660  0.7288  0.2182
  368MOL0     H48519   3.524   5.190   1.379  3.6925 -0.1079 -0.0753
  368MOL0     H48520   3.477   5.016   1.398  0.3469  0.4568 -1.6777
  368MOL0     H48521   3.418   5.060   1.639  0.3512  0.0504  0.6173
  368MOL0     H48522   3.309   5.117   1.512  0.5650  0.0041  0.6630
  368MOL0     H48523   3.313   5.286   1.656  0.1733  0.1056  1.2722
  368MOL0     H48524   3.420   5.346   1.526  4.0817  2.2336  0.8471
  368MOL0     H48525   3.467   5.293   1.808  1.0600 -2.4316 -0.4366
  368MOL0     H48526   3.610   5.276   1.698  1.1819  0.5276  3.3867
  368MOL0     H48527   3.597   5.504   1.642 -0.3933 -1.1287  0.9006
  368MOL0     H48528   3.600   5.498   1.808  2.0374 -0.3117 -1.6351
  368MOL0     H48529   3.337   5.548   1.939 -2.8131 -2.0689  0.3945
  368MOL0     H48530   3.068   5.571   1.957  0.7426 -1.9059 -1.3728
  368MOL0     H48531   2.982   5.614   1.812  0.2546  1.2489 -0.6305
  368MOL0     H48532   3.063   5.843   1.816 -0.7247  2.5848  1.5439
  368MOL0     H48533   3.109   5.822   1.983 -0.5170  2.0223 -1.0284
  368MOL0     H48534   2.826   5.754   1.900 -0.7643  1.6386  0.5857
  368MOL0     H48535   2.886   5.779   2.070 -2.6968 -1.3591 -0.1019
  368MOL0     H48536   2.882   5.998   1.863  0.0098 -0.4126 -0.5272
  368MOL0     H48537   2.888   6.012   2.035 -2.0315 -0.1253  1.5905
  368MOL0     H48538   2.451   5.970   1.954 -0.5696  0.6819  0.1116
  368MOL0     H48539   2.327   6.175   1.993 -0.6174  0.6756  3.0248
  368MOL0     H48540   2.229   6.364   2.374  1.6138  0.9720  0.9214
  368MOL0     H48541   2.084   6.513   2.516 -3.7009  2.3194  0.0675
  368MOL0     H48542   1.843   6.777   2.291  0.8697  0.0530  0.1018
  368MOL0     H48543   1.915   6.926   2.359  1.4631  0.4895  0.2457
  368MOL0     H48544   1.794   6.853   2.585 -2.0349  1.2900  0.0171
  368MOL0     H48545   1.728   6.728   2.483  0.9696 -0.8194  0.0573
  368MOL0     H48546   1.631   6.876   2.335 -1.6594  0.6892 -0.2210
  368MOL0     H48547   1.707   7.020   2.403 -0.1568  0.3590  0.3421
  368MOL0     H48548   1.484   6.839   2.535  1.6609 -1.5309  0.4188
  368MOL0     H48549   1.564   6.979   2.610  3.5353  2.7607 -1.9809
  368MOL0     H48550   1.402   6.972   2.358 -1.5768 -3.6524  2.0387
  368MOL0     H48551   1.450   7.127   2.446 -1.5229  0.0149  0.1833
  368MOL0     H48552   1.294   7.073   2.622 -0.4893  2.8705 -2.6013
  368MOL0     H48553   1.270   6.909   2.575 -0.8928  0.8666  1.5733
  368MOL0     H48554   1.162   7.170   2.441 -1.0606 -0.4858 -0.5248
  368MOL0     H48555   1.184   7.026   2.351 -1.2560 -2.8285  0.5412
  368MOL0     H48556   1.001   7.031   2.608  1.8758  2.3317  0.4317
  368MOL0     H48557   1.053   6.888   2.500  0.4359  0.0818 -0.7136
  368MOL0     H48558   2.032   6.772   2.169 -0.1149 -0.3682 -1.3705
  368MOL0     H48559   2.145   6.613   2.033 -2.2239 -0.1701  0.6160
  368MOL0     H48560   2.677   6.386   2.101 -1.3108 -0.8598  1.0411
  368MOL0     H48561   2.812   6.200   2.034 -0.1096 -1.0555  0.5223
  368MOL0     H48562   3.911   5.003   1.718 -1.8244  0.6742 -5.8109
  368MOL0     H48563   4.094   4.904   1.880 -1.8143 -0.9399 -0.7136
  368MOL0     H48564   4.459   4.800   2.081  1.3194  2.8786  2.6720
  368MOL0     H48565   4.646   4.768   2.225  2.9396  3.6258  0.2330
  368MOL0     H48566   5.047   4.650   2.060 -0.6808 -0.0285  0.3053
  368MOL0     H48567   4.953   4.508   2.116 -0.5457  0.7700 -1.9742
  368MOL0     H48568   5.122   4.678   2.322  1.1738 -1.3181  1.4106
  368MOL0     H48569   4.996   4.560   2.356 -1.7933  1.7207  0.2838
  368MOL0     H48570   5.118   4.378   2.259 -0.3714  0.5469  0.6692
  368MOL0     H48571   5.218   4.463   2.379 -0.1183 -0.7734 -0.5799
  368MOL0     H48572   5.287   4.609   2.145  2.2825 -0.0798  1.7585
  368MOL0     H48573   5.381   4.492   2.222  0.7815  1.4195 -0.3946
  368MOL0     H48574   5.248   4.291   1.887  1.6697  0.0134  0.2891
  368MOL0     H48575   4.891   4.662   1.894  0.4285 -0.3242  1.5762
  368MOL0     H48576   4.698   4.726   1.736 -1.3430 -3.9374  0.6978
  369MOL0     O48577   0.767   5.768   5.915 -0.0013 -0.4653  0.4374
  369MOL0     C48578   0.828   5.866   5.962 -0.6487  0.6595  0.2193
  369MOL0     O48579   0.793   5.996   5.965  0.1633 -0.3260  0.5411
  369MOL0     C48580   0.655   6.016   5.928 -0.5698  0.1415 -0.5772
  369MOL0     C48581   0.601   5.985   5.800  0.2719 -1.3631  0.9112
  369MOL0     C48582   0.465   6.009   5.768  0.0658 -0.0566 -0.4775
  369MOL0     C48583   0.381   6.065   5.868 -0.4288 -0.0601 -0.8764
  369MOL0     O48584   0.243   6.077   5.845 -0.0767 -0.8479 -0.3210
  369MOL0     C48585   0.165   6.144   5.945 -0.1733 -0.6158  0.3360
  369MOL0     C48586   0.013   6.162   5.909  0.2897 -0.1644  0.3837
  369MOL0     C48587  -0.081   6.214   6.013  0.1825  0.1025 -0.5134
  369MOL0     C48588  -0.223   6.185   5.966  0.5920  0.2657  0.0227
  369MOL0     C48589  -0.331   6.285   6.031  0.1181 -0.0863  0.5523
  369MOL0     C48590  -0.316   6.432   5.979  0.3976 -0.0151 -0.9219
  369MOL0     C48591  -0.427   6.522   6.011 -0.6130  0.1267  0.0427
  369MOL0     C48592  -0.451   6.542   6.166 -0.1706 -0.2272  0.2220
  369MOL0     N48593  -0.573   6.618   6.207 -0.4688  0.0854  0.7733
  369MOL0     C48594  -0.608   6.738   6.152 -0.2769 -0.4071  0.1382
  369MOL0     C48595  -0.727   6.770   6.206 -1.1935 -0.0074 -0.8486
  369MOL0     C48596  -0.813   6.894   6.170 -0.9783 -1.0674  0.3913
  369MOL0     C48597  -0.899   6.863   6.047  0.3229  0.8775  0.5988
  369MOL0     C48598  -1.012   6.963   6.044  0.5346  0.0863  0.5970
  369MOL0     C48599  -1.126   6.920   5.946 -0.7930 -0.7141 -0.0854
  369MOL0     O48600  -1.215   7.039   5.934  0.3955 -0.2963 -0.2829
  369MOL0     C48601  -1.300   7.081   6.033  0.6178 -0.8687  0.2317
  369MOL0     C48602  -1.326   7.008   6.145  0.3419 -0.1210 -0.2815
  369MOL0     C48603  -1.404   7.057   6.246 -0.1246  0.1687  0.6454
  369MOL0     C48604  -1.464   7.183   6.229  0.4200 -0.4828 -0.2024
  369MOL0     C48605  -1.552   7.241   6.339 -0.1792 -0.6847 -0.1101
  369MOL0     O48606  -1.613   7.360   6.330  0.0746 -0.4421 -0.5626
  369MOL0     C48607  -1.689   7.417   6.433 -0.0312  0.3797 -0.3172
  369MOL0     C48608  -1.831   7.395   6.441 -0.0229 -0.7169 -1.0109
  369MOL0     C48609  -1.908   7.473   6.532 -0.7385  0.3942  0.4328
  369MOL0     C48610  -1.848   7.580   6.600  0.0497 -0.4803 -0.3866
  369MOL0     O48611  -1.921   7.661   6.695 -0.2692  0.9199  0.1167
  369MOL0     C48612  -1.850   7.732   6.796  0.2724 -0.2729  0.4167
  369MOL0     C48613  -1.967   7.790   6.866 -0.2096 -0.4595 -0.5985
  369MOL0     C48614  -2.065   7.683   6.930 -0.3141  0.3243  0.0387
  369MOL0     C48615  -2.122   7.720   7.069  0.1681 -0.2806  0.0499
  369MOL0     C48616  -2.226   7.621   7.129 -0.3555  0.2046 -0.2640
  369MOL0     C48617  -2.313   7.708   7.227  0.3615  0.6396  0.7487
  369MOL0     C48618  -2.403   7.632   7.304  0.4454 -0.3392  0.0484
  369MOL0     C48619  -2.452   7.724   7.416  0.2222  0.1381 -0.8096
  369MOL0    Cl48620  -2.628   7.736   7.424 -0.2967  0.1161  0.3982
  369MOL0     C48621  -1.706   7.593   6.594 -0.7285 -0.0711 -0.3031
  369MOL0     C48622  -1.630   7.511   6.518 -0.6958  0.3970  0.2242
  369MOL0     O48623  -1.571   7.167   6.434  0.2793  0.0063  0.2575
  369MOL0     C48624  -1.436   7.260   6.119 -0.1385  0.0790 -0.5885
  369MOL0     C48625  -1.354   7.209   6.020 -0.1655  0.4710 -0.3307
  369MOL0     N48626  -0.763   6.662   6.290  0.2746 -0.7892 -0.4883
  369MOL0     N48627  -0.670   6.578   6.298  0.4105 -0.0527  0.8582
  369MOL0     C48628   0.440   6.097   5.995  1.0541 -0.9336 -0.6178
  369MOL0     C48629   0.576   6.078   6.021  0.8796  0.0138 -0.8621
  369MOL0     C48630   0.954   5.846   6.036  0.0554 -0.0302  0.3788
  369MOL0     C48631   1.062   5.929   6.013 -0.6107 -0.7796 -0.1506
  369MOL0     C48632   1.183   5.905   6.085  0.1011 -0.3376 -0.7194
  369MOL0     C48633   1.196   5.803   6.177  1.0826 -0.5081 -0.8256
  369MOL0     O48634   1.300   5.778   6.266  0.7386 -0.5933 -0.2621
  369MOL0     C48635   1.327   5.890   6.346  0.0326  0.0561 -0.0329
  369MOL0     C48636   1.475   5.909   6.337  0.2647 -1.2844 -0.1983
  369MOL0     C48637   1.567   5.793   6.372  0.5292  0.4536 -0.3950
  369MOL0     C48638   1.718   5.842   6.382 -0.5206  0.1968 -0.1766
  369MOL0     C48639   1.819   5.729   6.377 -0.3204 -1.2151  0.6178
  369MOL0     C48640   1.902   5.643   6.353 -0.3318  0.9365 -0.3267
  369MOL0     C48641   1.088   5.718   6.191 -0.7974  0.0090  0.5385
  369MOL0     C48642   0.970   5.736   6.120  0.0764 -0.0963  0.5864
  369MOL0     H48643   0.661   5.932   5.727  1.4475  0.7037  0.3018
  369MOL0     H48644   0.412   5.990   5.675 -1.0709 -0.2193  0.1846
  369MOL0     H48645   0.213   6.239   5.972  2.2697 -0.9730 -2.2853
  369MOL0     H48646   0.172   6.072   6.027  0.0883 -1.0054 -0.0311
  369MOL0     H48647  -0.023   6.071   5.860  1.0825 -0.1564 -0.2263
  369MOL0     H48648   0.011   6.241   5.834 -1.8871 -1.1304 -0.6530
  369MOL0     H48649  -0.064   6.321   6.032 -0.9857 -0.1622  2.8950
  369MOL0     H48650  -0.064   6.158   6.106 -4.1457  0.4933  0.7699
  369MOL0     H48651  -0.220   6.200   5.858  3.0272 -2.0796 -0.3593
  369MOL0     H48652  -0.250   6.079   5.969 -2.7186  0.9242 -1.4735
  369MOL0     H48653  -0.323   6.280   6.140  2.1524  2.4311  0.6360
  369MOL0     H48654  -0.429   6.256   5.991 -0.4504  0.6391  1.3939
  369MOL0     H48655  -0.290   6.433   5.873  0.8966  0.2912 -0.8000
  369MOL0     H48656  -0.232   6.475   6.033  1.3058 -0.7429 -1.7316
  369MOL0     H48657  -0.410   6.615   5.956 -1.2040 -0.5207 -1.2918
  369MOL0     H48658  -0.526   6.488   5.977 -1.0235 -0.8071  2.0207
  369MOL0     H48659  -0.374   6.613   6.197 -2.3891  2.6349 -0.3543
  369MOL0     H48660  -0.452   6.449   6.223 -0.4215  0.8127  2.0071
  369MOL0     H48661  -0.553   6.805   6.086  0.7642  1.0171  2.3579
  369MOL0     H48662  -0.751   6.984   6.164 -0.3391 -1.2120  3.1497
  369MOL0     H48663  -0.888   6.905   6.249 -1.7807 -1.3887 -0.3199
  369MOL0     H48664  -0.943   6.763   6.041 -0.9582  1.4206  0.6136
  369MOL0     H48665  -0.846   6.873   5.952 -0.2615 -3.4770 -0.4089
  369MOL0     H48666  -1.044   6.990   6.145  3.5534 -0.3068  1.7574
  369MOL0     H48667  -0.971   7.059   6.010  0.0328  0.1726  0.2285
  369MOL0     H48668  -1.188   6.834   5.976 -0.1881 -0.9363  0.5550
  369MOL0     H48669  -1.095   6.889   5.846  0.2461  0.3612 -0.1165
  369MOL0     H48670  -1.279   6.911   6.160  0.6431  0.1286  0.3983
  369MOL0     H48671  -1.430   6.997   6.333 -1.1068  1.0588  0.9900
  369MOL0     H48672  -1.879   7.316   6.385 -1.3933 -0.6981  0.0829
  369MOL0     H48673  -2.014   7.450   6.535 -0.5200 -0.5082  1.7187
  369MOL0     H48674  -1.782   7.811   6.764 -2.1899  2.4822  1.5582
  369MOL0     H48675  -1.797   7.655   6.853  0.3926 -1.6456 -1.4791
  369MOL0     H48676  -2.021   7.858   6.800  2.3357  0.0427 -2.3081
  369MOL0     H48677  -1.926   7.846   6.951  3.7127 -0.3032 -2.3439
  369MOL0     H48678  -2.022   7.584   6.949  1.2195  0.1936 -3.3755
  369MOL0     H48679  -2.147   7.682   6.858 -1.0613  2.5994  0.7708
  369MOL0     H48680  -2.042   7.729   7.142  1.0872 -1.9119 -0.7116
  369MOL0     H48681  -2.181   7.808   7.041  1.7834  0.6139 -0.6667
  369MOL0     H48682  -2.175   7.534   7.170  1.0666 -0.8140 -3.7725
  369MOL0     H48683  -2.283   7.582   7.044 -0.9755  0.7784 -0.1202
  369MOL0     H48684  -2.380   7.773   7.170 -1.8031 -1.1054  1.1771
  369MOL0     H48685  -2.255   7.782   7.283 -0.6881  2.0959 -0.0195
  369MOL0     H48686  -2.488   7.614   7.237  0.6913  0.7694 -0.5875
  369MOL0     H48687  -2.349   7.551   7.353 -1.0088 -1.6655 -0.4497
  369MOL0     H48688  -2.406   7.823   7.405  0.1845  0.3256  0.6102
  369MOL0     H48689  -2.418   7.682   7.511 -1.7527  0.6776  0.1879
  369MOL0     H48690  -1.668   7.669   6.661  0.4823 -0.4505 -0.5384
  369MOL0     H48691  -1.523   7.530   6.509 -0.8138  2.0150  1.6961
  369MOL0     H48692  -1.482   7.356   6.098 -1.6663 -0.1900  1.3048
  369MOL0     H48693  -1.338   7.247   5.920 -0.5174  0.0108 -0.5630
  369MOL0     H48694   0.382   6.130   6.082 -0.2014 -0.2588 -1.6679
  369MOL0     H48695   0.626   6.110   6.112  2.0469 -1.9977 -0.7195
  369MOL0     H48696   1.043   6.021   5.958 -0.7661 -0.2902  0.7057
  369MOL0     H48697   1.258   5.985   6.084 -0.2320 -0.0247 -1.2007
  369MOL0     H48698   1.298   5.874   6.450  0.4201  0.5891  0.1635
  369MOL0     H48699   1.274   5.981   6.320  0.3774  0.7770  1.6350
  369MOL0     H48700   1.501   5.935   6.234  2.1377 -0.6849  0.3863
  369MOL0     H48701   1.506   6.000   6.390  1.8009 -0.8647 -1.7369
  369MOL0     H48702   1.558   5.701   6.313 -1.0661 -0.0555  0.5906
  369MOL0     H48703   1.531   5.754   6.468 -0.9641 -2.6855 -2.0778
  369MOL0     H48704   1.738   5.903   6.293 -0.0073  0.4861  0.1276
  369MOL0     H48705   1.729   5.905   6.471  0.2039 -1.3675  0.8953
  369MOL0     H48706   1.969   5.560   6.342  0.5035  1.2997  1.5887
  369MOL0     H48707   1.102   5.629   6.252  2.0602 -1.9178 -2.6058
  369MOL0     H48708   0.896   5.657   6.125 -1.3499  1.2408  1.1204
  370MOL0     O48709   6.007   3.758   2.230 -0.2885  0.3525  0.2635
  370MOL0     C48710   6.072   3.682   2.302  0.2240  0.1974 -0.3838
  370MOL0     O48711   6.028   3.560   2.345  0.7112 -0.1623  0.0471
  370MOL0     C48712   5.904   3.502   2.322 -0.3006 -1.2733 -1.2846
  370MOL0     C48713   5.801   3.561   2.257 -0.1628 -0.4142  0.4497
  370MOL0     C48714   5.676   3.503   2.254 -0.4206  0.2863 -0.1962
  370MOL0     C48715   5.654   3.380   2.321 -0.3136 -0.5440  0.8829
  370MOL0     O48716   5.529   3.326   2.339 -0.0601 -0.2736 -0.0349
  370MOL0     C48717   5.412   3.404   2.339  0.1529 -0.3744  0.5250
  370MOL0     C48718   5.300   3.302   2.339  1.0280 -0.4873 -0.3017
  370MOL0     C48719   5.160   3.372   2.321  0.3404  1.0888 -0.0135
  370MOL0     C48720   5.039   3.279   2.335 -0.6746 -0.7948 -0.4446
  370MOL0     C48721   4.912   3.342   2.281 -0.8891  0.2093  0.3176
  370MOL0     C48722   4.801   3.246   2.280 -0.1164 -0.6729  0.4052
  370MOL0     C48723   4.668   3.311   2.248  0.5271  0.7600 -0.4648
  370MOL0     C48724   4.556   3.216   2.288 -0.2028  0.3965  1.0139
  370MOL0     N48725   4.424   3.257   2.239 -0.4271  1.0982 -0.2421
  370MOL0     C48726   4.363   3.374   2.279 -0.6296  0.0124  0.8927
  370MOL0     C48727   4.250   3.371   2.217  0.3724 -0.1296  0.4739
  370MOL0     C48728   4.153   3.480   2.243  0.0027 -0.0323 -0.2739
  370MOL0     C48729   4.089   3.459   2.385  0.5689  0.1681  0.1942
  370MOL0     C48730   4.021   3.588   2.449  0.3617  0.6309  0.1649
  370MOL0     C48731   3.932   3.561   2.579  1.2867  0.5080 -1.0477
  370MOL0     O48732   3.857   3.688   2.593 -0.7386  0.5350  0.1879
  370MOL0     C48733   3.721   3.692   2.594 -0.3412  0.4017 -0.0627
  370MOL0     C48734   3.639   3.589   2.644 -0.0883  0.4027 -0.4305
  370MOL0     C48735   3.498   3.598   2.639 -0.1108  0.5563 -0.3656
  370MOL0     C48736   3.439   3.703   2.575 -0.0069 -0.5561 -0.1923
  370MOL0     C48737   3.290   3.702   2.559  0.3455  0.5173 -0.0910
  370MOL0     O48738   3.246   3.805   2.486 -0.4813  0.2889 -0.7879
  370MOL0     C48739   3.113   3.841   2.466 -0.1847 -0.4525  0.0444
  370MOL0     C48740   3.093   3.926   2.356 -0.5785 -0.1382 -0.2011
  370MOL0     C48741   2.956   3.958   2.318 -0.2422 -0.4069  0.0676
  370MOL0     C48742   2.848   3.916   2.397  0.0422  0.1033  0.0560
  370MOL0     O48743   2.724   3.955   2.361 -0.1421  0.9998 -0.0265
  370MOL0     C48744   2.653   3.856   2.272 -0.4810 -0.6914  0.0982
  370MOL0     C48745   2.535   3.913   2.197  0.3392 -1.0981  0.5305
  370MOL0     C48746   2.563   4.048   2.116  0.4979 -1.5847 -0.5496
  370MOL0     C48747   2.443   4.080   2.027  0.5957 -0.6613  0.0688
  370MOL0     C48748   2.308   4.076   2.103 -0.7885  0.9602  0.0416
  370MOL0     C48749   2.210   4.158   2.025  0.0056  0.2602  0.1613
  370MOL0     C48750   2.065   4.118   2.035 -1.1227  0.3817 -0.7197
  370MOL0     C48751   1.958   4.214   1.969 -0.3022  0.0704  0.4337
  370MOL0    Cl48752   1.971   4.198   1.791 -0.1013  0.1437 -0.5995
  370MOL0     C48753   2.870   3.836   2.508  0.0309 -0.0130 -0.5262
  370MOL0     C48754   3.005   3.798   2.538  0.3737 -0.0397 -0.5528
  370MOL0     O48755   3.231   3.602   2.590  0.1838  0.5379  0.9847
  370MOL0     C48756   3.519   3.799   2.508 -0.8523 -0.7136 -1.0056
  370MOL0     C48757   3.660   3.784   2.514  1.3763 -1.0956 -0.3915
  370MOL0     N48758   4.232   3.251   2.154 -0.3237 -0.5428 -0.7279
  370MOL0     N48759   4.337   3.190   2.158 -0.7789  0.5282 -0.2947
  370MOL0     C48760   5.760   3.321   2.389  0.2135  0.3055 -1.1288
  370MOL0     C48761   5.889   3.384   2.389  0.5695 -0.0224 -0.0166
  370MOL0     C48762   6.201   3.739   2.337 -0.8639  0.1856 -0.2893
  370MOL0     C48763   6.268   3.814   2.243  1.4327 -0.0488 -0.2552
  370MOL0     C48764   6.394   3.866   2.269  0.1789 -0.1077  0.8887
  370MOL0     C48765   6.461   3.845   2.388 -0.2730  0.7483  0.6447
  370MOL0     O48766   6.585   3.904   2.396  0.3328 -0.3490 -0.5255
  370MOL0     C48767   6.651   3.892   2.523  0.4168  0.7231  0.2951
  370MOL0     C48768   6.782   3.962   2.489  0.6939  0.0318 -0.3842
  370MOL0     C48769   6.863   3.973   2.614  0.3055 -0.1304  0.5373
  370MOL0     C48770   7.003   4.028   2.586  0.1347 -1.0208  0.2410
  370MOL0     C48771   7.011   4.171   2.558 -0.1382  1.0697 -0.1065
  370MOL0     C48772   7.015   4.291   2.548  0.5882  0.5474 -0.4458
  370MOL0     C48773   6.406   3.754   2.479  0.2135 -0.4456  0.0904
  370MOL0     C48774   6.275   3.705   2.449 -0.6515  0.1380  0.2521
  370MOL0     H48775   5.806   3.657   2.206  1.8158 -0.3466  0.7044
  370MOL0     H48776   5.591   3.562   2.220  0.1260  0.5651 -1.0973
  370MOL0     H48777   5.405   3.457   2.243  2.9590 -3.0195 -1.3392
  370MOL0     H48778   5.416   3.472   2.424  1.0365 -0.6371  0.7069
  370MOL0     H48779   5.294   3.247   2.434 -1.6191 -1.7761 -1.1255
  370MOL0     H48780   5.311   3.230   2.258  0.0626 -0.8946 -0.0808
  370MOL0     H48781   5.169   3.424   2.225  3.2261  1.3409  0.3157
  370MOL0     H48782   5.150   3.441   2.405 -1.0612 -0.7663  1.4378
  370MOL0     H48783   5.063   3.184   2.287  3.5037 -0.1096 -0.1254
  370MOL0     H48784   5.030   3.248   2.440  0.1599  1.2930  0.3072
  370MOL0     H48785   4.931   3.384   2.182 -3.5521  1.2900  0.1807
  370MOL0     H48786   4.893   3.426   2.348 -0.2226 -2.0782  3.6555
  370MOL0     H48787   4.797   3.207   2.383  2.5123 -2.3959 -0.0278
  370MOL0     H48788   4.820   3.159   2.217  0.8954  0.9955 -1.7033
  370MOL0     H48789   4.646   3.402   2.305 -2.7932  0.9026 -1.7648
  370MOL0     H48790   4.646   3.326   2.142 -1.4031  0.7002 -0.1200
  370MOL0     H48791   4.557   3.198   2.396 -1.1327 -2.1210  0.6546
  370MOL0     H48792   4.581   3.115   2.253  0.6883  0.9594 -0.0424
  370MOL0     H48793   4.406   3.453   2.340 -0.1108 -0.1171  0.6979
  370MOL0     H48794   4.077   3.482   2.165  1.0273 -0.3620 -1.3175
  370MOL0     H48795   4.189   3.583   2.237 -2.3839  1.0581  1.9518
  370MOL0     H48796   4.169   3.444   2.459  0.2541  1.5072  0.8369
  370MOL0     H48797   4.029   3.369   2.371 -0.3270  0.6440  0.8855
  370MOL0     H48798   4.101   3.660   2.471 -0.9890  2.5352 -0.8282
  370MOL0     H48799   3.954   3.634   2.376 -0.9844 -0.2463  0.8096
  370MOL0     H48800   3.992   3.542   2.668 -2.6150  1.2596  2.0261
  370MOL0     H48801   3.871   3.477   2.543  0.9205 -0.0668  0.8074
  370MOL0     H48802   3.685   3.507   2.699 -2.1248  0.9588  2.3087
  370MOL0     H48803   3.445   3.515   2.685  0.9023 -0.0932 -0.3482
  370MOL0     H48804   3.179   3.969   2.307  1.1789 -1.4882  1.5485
  370MOL0     H48805   2.940   4.015   2.227  1.3078  0.8780  0.5470
  370MOL0     H48806   2.613   3.780   2.340 -1.2390  1.7753  2.5880
  370MOL0     H48807   2.717   3.807   2.198 -2.3564 -0.2385 -1.8995
  370MOL0     H48808   2.445   3.916   2.259 -0.6114 -2.7900 -0.6449
  370MOL0     H48809   2.505   3.836   2.124  0.2636 -0.2945 -0.3038
  370MOL0     H48810   2.654   4.032   2.057  0.3252 -2.7271 -0.5158
  370MOL0     H48811   2.586   4.136   2.177 -3.8352  3.3391 -4.9937
  370MOL0     H48812   2.457   4.184   1.997  0.6276 -1.2387 -2.0446
  370MOL0     H48813   2.441   4.002   1.950  0.4150 -1.0265  0.4367
  370MOL0     H48814   2.326   4.119   2.202 -1.2377 -0.5448  0.8035
  370MOL0     H48815   2.290   3.970   2.124 -0.3238  1.2253  1.9173
  370MOL0     H48816   2.236   4.150   1.919 -2.8895 -0.6805 -0.5882
  370MOL0     H48817   2.218   4.262   2.056 -2.0005 -0.2021  2.5463
  370MOL0     H48818   2.041   4.015   2.008  2.1090 -0.7417  0.2715
  370MOL0     H48819   2.046   4.135   2.141 -1.9850  4.8465 -1.4003
  370MOL0     H48820   1.968   4.312   2.016  0.1023  1.1430 -1.7680
  370MOL0     H48821   1.857   4.179   1.990 -0.2826 -0.3999 -0.2139
  370MOL0     H48822   2.784   3.801   2.566 -1.4895  1.6454 -1.6860
  370MOL0     H48823   3.029   3.729   2.618  3.7881 -0.2614 -1.6312
  370MOL0     H48824   3.482   3.877   2.442 -1.0260  0.4333  0.3994
  370MOL0     H48825   3.703   3.863   2.453 -0.5321 -0.8568 -1.4925
  370MOL0     H48826   5.748   3.230   2.446  0.6154  1.6825  1.2884
  370MOL0     H48827   5.968   3.340   2.450  0.1655  1.0278  1.3038
  370MOL0     H48828   6.218   3.827   2.148  1.6679 -1.7148 -0.6432
  370MOL0     H48829   6.449   3.910   2.187 -1.8030 -1.1821 -1.1271
  370MOL0     H48830   6.668   3.789   2.553 -2.6872  0.0888  0.1695
  370MOL0     H48831   6.587   3.927   2.604 -1.4616 -0.3715 -0.6533
  370MOL0     H48832   6.831   3.897   2.415 -0.0548 -2.0744  0.8896
  370MOL0     H48833   6.764   4.063   2.450 -0.6299  0.2644  0.7663
  370MOL0     H48834   6.876   3.885   2.677  0.2058  0.9175  2.1068
  370MOL0     H48835   6.800   4.039   2.675 -2.8564 -0.3091 -2.2559
  370MOL0     H48836   7.073   3.991   2.661  1.4564 -3.2008 -1.8979
  370MOL0     H48837   7.039   3.975   2.497  0.3175  0.6302 -0.7176
  370MOL0     H48838   6.994   4.394   2.526  1.7936  1.0279  0.5651
  370MOL0     H48839   6.463   3.722   2.566  1.7510  0.2867 -0.6171
  370MOL0     H48840   6.225   3.640   2.520 -3.2669 -0.9666 -2.4069
  371MOL0     O48841  10.053   7.900  10.867 -0.1367 -0.1957  0.2076
  371MOL0     C48842  10.101   7.956  10.765  0.7101 -0.0309 -0.5469
  371MOL0     O48843  10.021   7.984  10.650  0.7298 -0.2770 -0.0254
  371MOL0     C48844   9.892   7.946  10.660 -0.6829 -0.1144 -0.2998
  371MOL0     C48845   9.844   7.822  10.625 -0.1175 -0.3444  1.3757
  371MOL0     C48846   9.711   7.790  10.639  0.3456 -0.2582 -0.0644
  371MOL0     C48847   9.617   7.894  10.679 -0.6388  0.9207 -0.1326
  371MOL0     O48848   9.489   7.837  10.704 -0.3649 -0.1805  0.0933
  371MOL0     C48849   9.383   7.923  10.658  0.2683  0.5573 -0.2954
  371MOL0     C48850   9.252   7.845  10.688 -0.2065 -0.2131 -1.2182
  371MOL0     C48851   9.146   7.933  10.627 -0.0478  0.4492  0.8440
  371MOL0     C48852   9.008   7.865  10.623 -0.0676 -0.3474  0.3088
  371MOL0     C48853   8.952   7.828  10.763  0.3250 -0.2212 -0.0009
  371MOL0     C48854   8.807   7.760  10.768  0.4373  0.3640 -0.0429
  371MOL0     C48855   8.695   7.865  10.734 -0.9393  0.4655  0.2484
  371MOL0     C48856   8.560   7.782  10.721  0.6608 -0.0288  0.8543
  371MOL0     N48857   8.479   7.770  10.840  0.1904  0.8299 -0.7083
  371MOL0     C48858   8.422   7.873  10.905 -0.0962 -0.4011 -1.2391
  371MOL0     C48859   8.368   7.816  11.020 -0.2570  0.8646  0.0783
  371MOL0     C48860   8.303   7.892  11.129 -0.7683 -0.7055 -0.2414
  371MOL0     C48861   8.177   7.969  11.090  0.0128  0.9792 -0.4995
  371MOL0     C48862   8.115   8.068  11.187 -1.3589 -0.2246  0.9462
  371MOL0     C48863   7.963   8.093  11.158  0.5289  0.7122  0.0603
  371MOL0     O48864   7.903   8.195  11.237  0.5606 -0.2109 -0.4821
  371MOL0     C48865   7.777   8.238  11.191  0.2888  0.6575  0.4404
  371MOL0     C48866   7.712   8.344  11.249 -0.7016 -0.9544 -0.0326
  371MOL0     C48867   7.583   8.376  11.215 -0.3692  0.7838 -0.1908
  371MOL0     C48868   7.514   8.308  11.111 -0.7146 -0.6564 -0.3980
  371MOL0     C48869   7.376   8.352  11.067  0.1417  0.2097 -0.7685
  371MOL0     O48870   7.310   8.440  11.155  0.1096 -0.0906  0.0357
  371MOL0     C48871   7.179   8.476  11.110 -0.1081 -0.7115 -1.0328
  371MOL0     C48872   7.146   8.616  11.116  0.1729  0.1068  0.3763
  371MOL0     C48873   7.016   8.650  11.074 -0.5352  0.0661 -0.8703
  371MOL0     C48874   6.915   8.556  11.049 -0.5404  0.9508 -0.2319
  371MOL0     O48875   6.788   8.603  11.037  0.0135 -0.6978 -0.4170
  371MOL0     C48876   6.692   8.518  10.966 -0.5227 -0.6603 -0.1790
  371MOL0     C48877   6.577   8.612  10.935 -0.9187 -0.8806 -0.3538
  371MOL0     C48878   6.475   8.606  11.056  0.4074 -0.1754  0.4457
  371MOL0     C48879   6.376   8.719  11.042 -0.4276  0.4091 -0.3781
  371MOL0     C48880   6.256   8.688  11.131 -0.8934  0.7921  0.4976
  371MOL0     C48881   6.150   8.792  11.114 -0.5701 -0.3250  0.7749
  371MOL0     C48882   6.020   8.754  11.196 -0.3812  0.2572 -0.3646
  371MOL0     C48883   5.917   8.868  11.185 -1.1216  0.4606 -0.4740
  371MOL0    Cl48884   5.773   8.806  11.101 -0.6017 -0.2711 -0.0484
  371MOL0     C48885   6.950   8.414  11.049 -0.1202  0.5245  0.1241
  371MOL0     C48886   7.084   8.380  11.086  0.0001 -0.7464 -0.2390
  371MOL0     O48887   7.333   8.301  10.961 -0.3183  0.7184 -0.4986
  371MOL0     C48888   7.575   8.197  11.055 -0.2409  0.6873  0.2135
  371MOL0     C48889   7.703   8.156  11.102 -0.1255 -0.1578  0.8561
  371MOL0     N48890   8.390   7.678  11.012  0.2966  0.2895 -0.6152
  371MOL0     N48891   8.459   7.651  10.907 -0.2938  0.7290  0.0126
  371MOL0     C48892   9.664   8.026  10.712 -0.4700  0.2985  0.2171
  371MOL0     C48893   9.801   8.040  10.706 -0.7493  0.2586 -0.7293
  371MOL0     C48894  10.240   8.004  10.769  0.4051  0.0218 -0.1914
  371MOL0     C48895  10.301   8.018  10.897 -0.1603  0.1801 -1.0217
  371MOL0     C48896  10.424   8.079  10.908  0.2594 -0.0897  0.7094
  371MOL0     C48897  10.490   8.128  10.795  0.3925 -0.5102 -0.0459
  371MOL0     O48898  10.615   8.174  10.824 -0.0152 -1.2572  0.5287
  371MOL0     C48899  10.718   8.180  10.723  0.0527 -0.8613 -0.1006
  371MOL0     C48900  10.852   8.218  10.784  0.2120  0.3362 -0.1260
  371MOL0     C48901  10.950   8.226  10.668  0.4204 -0.2131  0.3381
  371MOL0     C48902  11.063   8.337  10.682  0.0955  0.8632 -0.7154
  371MOL0     C48903  11.134   8.346  10.556  0.2987 -1.6719 -0.6195
  371MOL0     C48904  11.166   8.345  10.442  0.0992 -0.9351  0.3716
  371MOL0     C48905  10.433   8.113  10.673  0.5450 -0.2650 -0.0920
  371MOL0     C48906  10.300   8.052  10.656 -0.2389 -0.9435 -0.6770
  371MOL0     H48907   9.906   7.737  10.599 -0.9969 -1.1887  1.9670
  371MOL0     H48908   9.677   7.690  10.618 -0.1090 -0.0766 -0.2055
  371MOL0     H48909   9.387   7.941  10.550 -0.2716  1.2683 -0.2093
  371MOL0     H48910   9.372   8.018  10.713 -2.3725  1.9027 -2.8541
  371MOL0     H48911   9.237   7.823  10.794  2.8072  1.0001 -0.4202
  371MOL0     H48912   9.258   7.751  10.633 -0.1346 -1.0968  0.2565
  371MOL0     H48913   9.178   7.938  10.522 -2.3683  0.9840  0.1231
  371MOL0     H48914   9.143   8.037  10.660  0.3068  0.4419  0.9074
  371MOL0     H48915   8.944   7.941  10.578  2.1903  0.7004 -1.2963
  371MOL0     H48916   9.004   7.776  10.559  0.4824  1.1636 -1.9490
  371MOL0     H48917   8.958   7.923  10.817  1.8820 -0.7048  0.7455
  371MOL0     H48918   9.028   7.762  10.805 -1.3187 -2.8698 -0.9869
  371MOL0     H48919   8.779   7.725  10.868 -2.0666  0.7020 -0.5624
  371MOL0     H48920   8.806   7.675  10.698  1.0378  0.4340 -0.1372
  371MOL0     H48921   8.693   7.941  10.812  1.6404  1.7059 -0.7582
  371MOL0     H48922   8.705   7.914  10.636 -0.0224  2.0024  1.0728
  371MOL0     H48923   8.586   7.686  10.677  0.7488  0.9927 -1.4704
  371MOL0     H48924   8.499   7.830  10.643  0.3326 -0.7825  0.6433
  371MOL0     H48925   8.422   7.980  10.886 -2.5775 -0.2500 -0.8470
  371MOL0     H48926   8.371   7.967  11.170 -1.1858 -1.0035  1.0230
  371MOL0     H48927   8.277   7.817  11.204 -0.6294  1.4016  2.0557
  371MOL0     H48928   8.110   7.884  11.072  2.4496 -1.5554  1.5977
  371MOL0     H48929   8.187   8.022  10.995  0.6030 -0.5535 -1.3315
  371MOL0     H48930   8.135   8.025  11.286  0.4048 -2.4198 -0.2920
  371MOL0     H48931   8.167   8.163  11.169  2.7059 -2.2501  0.9149
  371MOL0     H48932   7.908   8.001  11.180 -0.9755  1.4206 -0.5616
  371MOL0     H48933   7.965   8.106  11.049 -1.2246  3.2016  0.2579
  371MOL0     H48934   7.776   8.406  11.310 -0.9470  1.2441 -1.8756
  371MOL0     H48935   7.547   8.467  11.261 -1.5869  1.9222 -3.1900
  371MOL0     H48936   7.210   8.700  11.140 -0.3112  0.7135 -0.3925
  371MOL0     H48937   6.990   8.754  11.056  2.3612  0.9649 -0.3363
  371MOL0     H48938   6.669   8.436  11.035  1.8058 -0.2256  1.2199
  371MOL0     H48939   6.727   8.466  10.877  1.2713 -0.9727  0.6582
  371MOL0     H48940   6.534   8.581  10.839 -2.9223  3.4290 -1.1228
  371MOL0     H48941   6.613   8.715  10.925  0.9095 -1.5363 -0.8981
  371MOL0     H48942   6.533   8.625  11.146 -0.5896  1.3658  0.8066
  371MOL0     H48943   6.424   8.510  11.052  1.1742 -0.5673 -0.7345
  371MOL0     H48944   6.426   8.809  11.079  1.5768 -1.4755  1.8992
  371MOL0     H48945   6.339   8.732  10.940  1.0303  0.2924 -0.9481
  371MOL0     H48946   6.287   8.658  11.231 -1.1099 -0.3849  0.2317
  371MOL0     H48947   6.200   8.600  11.095 -0.8594  0.8384  0.3279
  371MOL0     H48948   6.136   8.806  11.006  3.4503  0.2909  0.1952
  371MOL0     H48949   6.182   8.889  11.153 -0.0354 -0.4289  0.5914
  371MOL0     H48950   5.965   8.666  11.163 -1.1491  0.5714  0.0410
  371MOL0     H48951   6.059   8.745  11.298  0.4822 -0.1323 -0.7201
  371MOL0     H48952   5.950   8.958  11.133 -1.0780  0.3877 -0.5732
  371MOL0     H48953   5.899   8.893  11.289 -0.1985  1.1313 -0.4625
  371MOL0     H48954   6.878   8.332  11.045  1.7340 -1.1046 -3.2446
  371MOL0     H48955   7.109   8.276  11.099  0.8379 -0.2724  2.6204
  371MOL0     H48956   7.531   8.140  10.973 -1.4858  2.2777 -0.2922
  371MOL0     H48957   7.739   8.055  11.083  2.9644  0.5014  2.6012
  371MOL0     H48958   9.604   8.107  10.751  0.1316  0.1734  1.4804
  371MOL0     H48959   9.847   8.134  10.736  3.7151 -1.6949 -0.6274
  371MOL0     H48960  10.253   7.982  10.987  3.0701  0.8832  1.1125
  371MOL0     H48961  10.463   8.088  11.009 -0.4649  1.7538  0.8641
  371MOL0     H48962  10.679   8.254  10.652 -0.5111 -1.2097 -0.1594
  371MOL0     H48963  10.715   8.082  10.673 -0.1587  0.1556 -2.1821
  371MOL0     H48964  10.852   8.320  10.822  2.9278  0.2759  0.2076
  371MOL0     H48965  10.887   8.154  10.865 -2.6897 -1.6520 -0.2796
  371MOL0     H48966  10.910   8.228  10.566  1.1394 -0.1904  0.0498
  371MOL0     H48967  11.014   8.137  10.674  0.7250 -0.1466 -1.3849
  371MOL0     H48968  11.012   8.430  10.707 -0.9740 -0.4239  2.4406
  371MOL0     H48969  11.135   8.315  10.761 -0.5530 -0.7998 -0.5489
  371MOL0     H48970  11.194   8.340  10.339  1.3446 -1.3788  0.7081
  371MOL0     H48971  10.476   8.167  10.589  3.4424  0.1974  1.5296
  371MOL0     H48972  10.246   8.050  10.562 -0.7626  4.1765 -0.7641
  372MOL0     O48973   2.862   6.764   9.312  0.2480  0.5374 -0.2426
  372MOL0     C48974   2.867   6.769   9.186  0.2595  0.1747 -0.1391
  372MOL0     O48975   2.972   6.810   9.117  0.1976  0.0774 -0.3933
  372MOL0     C48976   3.074   6.866   9.187 -0.8193 -0.0053 -0.7353
  372MOL0     C48977   3.047   6.972   9.275 -0.3098 -0.1942  0.1296
  372MOL0     C48978   3.141   7.026   9.362  0.3304  0.7164 -0.3899
  372MOL0     C48979   3.274   6.963   9.354 -0.3367 -0.7785 -0.3940
  372MOL0     O48980   3.375   6.990   9.438 -0.2961 -1.4294  0.2601
  372MOL0     C48981   3.347   7.075   9.550 -1.2543 -0.3150 -1.1524
  372MOL0     C48982   3.476   7.090   9.633 -0.1370  0.4621 -0.6375
  372MOL0     C48983   3.455   7.177   9.755 -0.7665  0.2037 -0.2242
  372MOL0     C48984   3.547   7.140   9.873 -0.2375 -1.0641 -0.0507
  372MOL0     C48985   3.519   7.217  10.007  0.7524 -0.7337  0.4703
  372MOL0     C48986   3.629   7.174  10.110 -0.0586 -0.0011 -0.1686
  372MOL0     C48987   3.580   7.056  10.189  0.2031 -0.5182 -0.5209
  372MOL0     C48988   3.642   7.017  10.321  0.4470 -1.4678 -0.6604
  372MOL0     N48989   3.571   6.902  10.370  0.6515  0.2053 -0.8116
  372MOL0     C48990   3.577   6.780  10.307 -0.7185 -0.5482  0.2222
  372MOL0     C48991   3.497   6.703  10.386 -0.0048 -0.2720  1.1944
  372MOL0     C48992   3.446   6.561  10.347  0.6633 -0.0441  1.6965
  372MOL0     C48993   3.561   6.456  10.355  0.1051 -0.1978 -0.0582
  372MOL0     C48994   3.531   6.318  10.398 -0.4516 -0.8613  0.1987
  372MOL0     C48995   3.450   6.238  10.302 -0.1234  0.1679  0.3257
  372MOL0     O48996   3.317   6.290  10.295 -0.2225  0.1379 -0.1794
  372MOL0     C48997   3.226   6.242  10.204 -0.4680 -0.6533 -0.0053
  372MOL0     C48998   3.224   6.117  10.157 -0.6805 -0.0962  0.7536
  372MOL0     C48999   3.122   6.078  10.065  0.3318  0.1523 -0.0049
  372MOL0     C49000   3.030   6.166  10.008  0.8700 -0.1806 -0.8252
  372MOL0     C49001   2.923   6.113   9.931  0.9088 -0.4426  0.8252
  372MOL0     O49002   2.814   6.192   9.896 -0.0806  0.1201 -0.3171
  372MOL0     C49003   2.709   6.130   9.823  0.0590 -0.6141 -0.1183
  372MOL0     C49004   2.694   6.182   9.695 -0.0670  0.7326 -0.2009
  372MOL0     C49005   2.590   6.118   9.611 -0.1310 -0.2307  0.3699
  372MOL0     C49006   2.508   6.022   9.660  0.3086  0.2488  0.4324
  372MOL0     O49007   2.418   5.958   9.578 -0.5870  0.5205 -0.5069
  372MOL0     C49008   2.365   6.014   9.461 -0.8192 -0.7808  0.2838
  372MOL0     C49009   2.454   5.959   9.344  0.1990  0.3121  0.6879
  372MOL0     C49010   2.369   5.972   9.220  0.6949  0.8012 -0.0584
  372MOL0     C49011   2.457   5.953   9.094  0.5359  0.7194 -0.6447
  372MOL0     C49012   2.481   5.797   9.084  0.1418  0.3844 -0.3618
  372MOL0     C49013   2.526   5.758   8.944 -0.8759 -0.2439 -0.0471
  372MOL0     C49014   2.566   5.607   8.940  0.2843 -0.6077 -0.5165
  372MOL0     C49015   2.642   5.573   8.808 -0.5582  0.3061  0.3961
  372MOL0    Cl49016   2.592   5.410   8.729  0.2224  0.1571 -0.2247
  372MOL0     C49017   2.525   5.978   9.791  0.0549 -1.2216  0.6515
  372MOL0     C49018   2.630   6.025   9.873  0.1991  0.1616  0.5293
  372MOL0     O49019   2.940   6.001   9.893  0.0753  0.4227  0.3619
  372MOL0     C49020   3.054   6.302  10.047  0.6334  0.8218 -1.1386
  372MOL0     C49021   3.152   6.341  10.143  0.0109 -0.0631  0.9388
  372MOL0     N49022   3.455   6.770  10.496 -0.0473 -0.0053  0.8735
  372MOL0     N49023   3.508   6.886  10.495 -0.4833 -0.7644  0.2311
  372MOL0     C49024   3.306   6.862   9.266 -0.1666  0.8211  1.0592
  372MOL0     C49025   3.205   6.821   9.174  0.7972  0.1667  0.5021
  372MOL0     C49026   2.751   6.725   9.105 -0.7975  0.2582  0.6967
  372MOL0     C49027   2.742   6.741   8.970 -0.6750 -0.1572  0.1040
  372MOL0     C49028   2.636   6.706   8.894  0.2931 -0.2924 -0.0381
  372MOL0     C49029   2.520   6.661   8.964 -0.1376  0.6147 -0.4703
  372MOL0     O49030   2.409   6.609   8.900  0.0851  0.1695 -0.2397
  372MOL0     C49031   2.370   6.685   8.785 -0.5111 -0.2337 -0.6513
  372MOL0     C49032   2.226   6.659   8.754 -0.6874 -0.5448  0.2320
  372MOL0     C49033   2.140   6.685   8.875  0.3602 -0.6061 -0.1547
  372MOL0     C49034   1.994   6.731   8.848 -0.8284  0.3347 -0.6973
  372MOL0     C49035   1.918   6.666   8.743  0.7564 -0.6488 -0.0403
  372MOL0     C49036   1.838   6.619   8.660 -0.4734  1.2489  0.2429
  372MOL0     C49037   2.520   6.666   9.101  0.5834  0.1794  0.0386
  372MOL0     C49038   2.636   6.687   9.173  0.7984 -0.2097  0.2204
  372MOL0     H49039   2.946   7.012   9.280 -1.1688 -1.2835 -4.2877
  372MOL0     H49040   3.122   7.107   9.432  3.0597 -0.1157  1.4879
  372MOL0     H49041   3.279   7.014   9.610 -1.4549 -0.0087 -1.0640
  372MOL0     H49042   3.304   7.174   9.532 -2.1425 -0.0272  2.0328
  372MOL0     H49043   3.559   7.131   9.575  0.7891  0.7452  0.8452
  372MOL0     H49044   3.512   6.993   9.667  1.5358  0.9300 -0.9936
  372MOL0     H49045   3.355   7.159   9.795 -1.5783  1.8618 -1.3591
  372MOL0     H49046   3.466   7.282   9.726 -0.6034 -0.2911 -2.0909
  372MOL0     H49047   3.541   7.032   9.894  2.6430 -1.4787 -0.8263
  372MOL0     H49048   3.650   7.160   9.842 -1.0945  1.5126 -1.5401
  372MOL0     H49049   3.418   7.188  10.038  0.8145 -1.9942 -0.3927
  372MOL0     H49050   3.530   7.325   9.999 -1.4228 -0.1049  3.9865
  372MOL0     H49051   3.644   7.261  10.175  0.7728 -0.9607  0.9652
  372MOL0     H49052   3.726   7.161  10.061  0.1311 -1.3726  0.5505
  372MOL0     H49053   3.476   7.079  10.215  0.7071 -0.5555  1.7650
  372MOL0     H49054   3.591   6.967  10.127  1.0419 -0.4984 -0.4159
  372MOL0     H49055   3.624   7.101  10.389  2.4002 -0.6817 -1.0639
  372MOL0     H49056   3.748   6.994  10.325  0.7829 -0.0991  3.1329
  372MOL0     H49057   3.626   6.754  10.214 -1.7658  0.3500 -0.6108
  372MOL0     H49058   3.387   6.565  10.255 -0.1773  0.0939  2.2294
  372MOL0     H49059   3.374   6.527  10.423  0.8379 -0.2244  1.7822
  372MOL0     H49060   3.636   6.494  10.425 -0.9063  2.1182 -0.1782
  372MOL0     H49061   3.609   6.455  10.257 -1.6666  0.2766 -0.9737
  372MOL0     H49062   3.628   6.272  10.418  2.3107  4.0015 -0.3684
  372MOL0     H49063   3.476   6.325  10.492 -1.7449 -0.3520 -0.5723
  372MOL0     H49064   3.451   6.134  10.334 -1.1159 -0.6605 -2.1488
  372MOL0     H49065   3.497   6.245  10.204 -0.0059 -0.4578  0.3366
  372MOL0     H49066   3.293   6.041  10.191  0.4381  1.7725  3.0031
  372MOL0     H49067   3.110   5.973  10.039 -0.8960  0.2079  0.2803
  372MOL0     H49068   2.762   6.252   9.647  1.6390 -1.1641 -0.6672
  372MOL0     H49069   2.582   6.149   9.507 -2.3636  0.2941  0.6498
  372MOL0     H49070   2.356   6.123   9.463  0.8092 -0.5781  3.7377
  372MOL0     H49071   2.267   5.966   9.453  0.5285 -3.7298  0.1330
  372MOL0     H49072   2.481   5.854   9.355 -0.2617  0.1464  0.2875
  372MOL0     H49073   2.547   6.013   9.327  1.7868 -1.6127  2.6921
  372MOL0     H49074   2.339   6.077   9.214 -2.2663  0.1222  0.9143
  372MOL0     H49075   2.277   5.913   9.221 -0.8575  2.4314 -6.4249
  372MOL0     H49076   2.404   5.987   9.005 -3.3818 -2.7141  0.0470
  372MOL0     H49077   2.551   6.007   9.109  1.5892 -1.6907  2.4440
  372MOL0     H49078   2.384   5.756   9.113  0.6040 -0.2932  0.2603
  372MOL0     H49079   2.554   5.770   9.161 -1.8152 -2.0770  0.7793
  372MOL0     H49080   2.613   5.816   8.914 -1.1973  0.3549  0.1640
  372MOL0     H49081   2.444   5.778   8.875 -1.2473 -1.8994 -0.1177
  372MOL0     H49082   2.636   5.578   9.019  0.3383 -1.7130 -0.9567
  372MOL0     H49083   2.467   5.561   8.946 -0.6627  1.3583 -0.2152
  372MOL0     H49084   2.746   5.559   8.837 -0.4595 -2.3445 -0.9614
  372MOL0     H49085   2.634   5.652   8.732 -0.4515 -0.9399 -0.9465
  372MOL0     H49086   2.464   5.901   9.838  3.0221 -4.6226 -0.5829
  372MOL0     H49087   2.660   5.987   9.970  2.5503  0.7982  0.1143
  372MOL0     H49088   3.001   6.386  10.002 -0.2071 -0.4337 -2.5849
  372MOL0     H49089   3.161   6.448  10.161  1.9740  0.0680 -0.5046
  372MOL0     H49090   3.404   6.819   9.246  1.4134  5.3050 -2.7677
  372MOL0     H49091   3.238   6.753   9.095 -2.1754 -0.6342 -0.1829
  372MOL0     H49092   2.830   6.781   8.920  0.3801 -1.9705  0.4222
  372MOL0     H49093   2.640   6.710   8.785  0.9442  3.4188  0.0082
  372MOL0     H49094   2.424   6.667   8.692 -0.2252 -1.6349 -0.2417
  372MOL0     H49095   2.383   6.792   8.806 -0.4612 -0.3035 -0.3164
  372MOL0     H49096   2.193   6.728   8.676  1.1706  0.4648  0.3121
  372MOL0     H49097   2.205   6.560   8.711 -1.1708 -0.2851 -0.1462
  372MOL0     H49098   2.188   6.759   8.940  4.1028 -0.0264 -3.1373
  372MOL0     H49099   2.128   6.591   8.929 -1.9912 -1.1479 -1.4954
  372MOL0     H49100   1.941   6.751   8.941  2.5685  1.0419  1.2641
  372MOL0     H49101   2.002   6.830   8.801 -0.8206  1.1659  0.9939
  372MOL0     H49102   1.779   6.570   8.585 -1.2938 -0.5915  2.0089
  372MOL0     H49103   2.423   6.643   9.143  0.6316  1.4496  0.9391
  372MOL0     H49104   2.612   6.689   9.279 -1.4852  2.0656 -0.2491
  373MOL0     O49105   7.914   7.940   0.970 -1.4102  0.3057 -0.6461
  373MOL0     C49106   7.957   7.899   1.077  0.4428 -1.5096  0.3862
  373MOL0     O49107   7.897   7.800   1.153 -0.0010  0.1905 -0.5682
  373MOL0     C49108   7.779   7.740   1.126  0.0799  0.0584  0.1567
  373MOL0     C49109   7.680   7.794   1.034  0.4730  0.3996  0.4171
  373MOL0     C49110   7.566   7.722   1.012  0.5372  0.0153  0.5463
  373MOL0     C49111   7.528   7.606   1.076 -0.3765  0.6441  0.8929
  373MOL0     O49112   7.405   7.548   1.061 -0.6470  0.4060  0.0626
  373MOL0     C49113   7.337   7.556   1.186  2.2554  0.2718 -0.3737
  373MOL0     C49114   7.214   7.464   1.187  0.3171 -0.4752  0.3421
  373MOL0     C49115   7.136   7.483   1.314  1.2810  0.9681 -0.1261
  373MOL0     C49116   6.997   7.407   1.300 -0.3802 -0.2001 -0.0454
  373MOL0     C49117   6.936   7.373   1.433  0.0723 -0.1145 -1.5357
  373MOL0     C49118   6.788   7.329   1.409 -0.3215 -0.1337  0.2883
  373MOL0     C49119   6.715   7.319   1.543 -0.2539  0.7234 -0.4132
  373MOL0     C49120   6.588   7.218   1.529 -0.5543 -0.2737  0.7893
  373MOL0     N49121   6.505   7.271   1.420 -0.0129 -0.5699 -0.0847
  373MOL0     C49122   6.506   7.241   1.295 -0.5643 -0.3447 -0.4964
  373MOL0     C49123   6.396   7.303   1.253 -0.2494 -0.1267 -0.1537
  373MOL0     C49124   6.351   7.312   1.109  0.6941 -0.4878  0.0861
  373MOL0     C49125   6.370   7.462   1.061 -0.3707 -0.4556  0.4306
  373MOL0     C49126   6.511   7.507   1.058  1.0771  0.4866  0.3168
  373MOL0     C49127   6.520   7.644   0.990 -0.7167 -0.7530 -0.8559
  373MOL0     O49128   6.454   7.654   0.864 -0.1198 -0.0428  0.3414
  373MOL0     C49129   6.351   7.738   0.855 -0.1061  0.5394 -0.1764
  373MOL0     C49130   6.234   7.690   0.797  0.6756  0.4668  0.1087
  373MOL0     C49131   6.121   7.765   0.784 -0.4172 -1.3437 -0.1066
  373MOL0     C49132   6.122   7.899   0.828 -0.7245 -0.5899 -0.3518
  373MOL0     C49133   6.005   7.992   0.801  0.3298 -0.2947 -0.0537
  373MOL0     O49134   6.002   8.103   0.883 -0.0816  0.0305  0.9611
  373MOL0     C49135   5.892   8.178   0.884 -0.9946 -0.3158 -0.1290
  373MOL0     C49136   5.812   8.176   1.002  0.7153  0.2554 -1.1125
  373MOL0     C49137   5.701   8.253   1.017  0.6801  0.0092  0.0769
  373MOL0     C49138   5.649   8.322   0.907 -0.3082 -0.5954 -0.2778
  373MOL0     O49139   5.535   8.403   0.901 -0.3044 -0.3485  0.9208
  373MOL0     C49140   5.452   8.381   1.012 -0.3127 -0.4996 -0.4549
  373MOL0     C49141   5.350   8.494   1.001 -0.3629  0.5964  0.8795
  373MOL0     C49142   5.380   8.602   1.101 -0.1908  0.1529 -0.0582
  373MOL0     C49143   5.389   8.734   1.015  0.0711 -0.0618  0.4843
  373MOL0     C49144   5.382   8.862   1.101 -0.0263 -0.0378  0.0380
  373MOL0     C49145   5.268   8.955   1.063 -0.2183  0.2405 -0.4348
  373MOL0     C49146   5.275   9.088   1.130 -0.6774 -0.7266 -0.1380
  373MOL0     C49147   5.165   9.188   1.089 -0.4041  0.2277  0.3779
  373MOL0    Cl49148   5.202   9.354   1.162  0.5238  0.0572 -0.0932
  373MOL0     C49149   5.729   8.324   0.789 -0.7266 -0.1962 -0.2555
  373MOL0     C49150   5.847   8.257   0.781  0.4909  0.5603  0.5848
  373MOL0     O49151   5.922   7.957   0.720 -0.4880  0.0169 -0.9450
  373MOL0     C49152   6.239   7.959   0.874 -1.1132 -0.2327 -0.3326
  373MOL0     C49153   6.353   7.873   0.891  0.1989 -0.9289 -1.4641
  373MOL0     N49154   6.333   7.373   1.352  1.0596  1.0200  0.4547
  373MOL0     N49155   6.401   7.349   1.457  0.2449 -0.2500  0.1999
  373MOL0     C49156   7.632   7.549   1.161  0.2377 -0.0453 -0.4273
  373MOL0     C49157   7.749   7.617   1.187  0.1822 -0.5601  0.1093
  373MOL0     C49158   8.088   7.947   1.115 -0.1007 -0.0503  0.0244
  373MOL0     C49159   8.106   8.085   1.088 -0.1254  0.6564  0.0951
  373MOL0     C49160   8.235   8.135   1.111 -0.1266 -0.5965 -0.9521
  373MOL0     C49161   8.340   8.054   1.170  0.2334  0.1296  0.0312
  373MOL0     O49162   8.461   8.114   1.196  0.1423 -0.0731  1.1318
  373MOL0     C49163   8.446   8.226   1.279  0.9823 -1.5303 -0.6719
  373MOL0     C49164   8.579   8.283   1.331  0.2518  0.1211  0.7058
  373MOL0     C49165   8.573   8.388   1.436 -0.2604 -0.3864 -0.7704
  373MOL0     C49166   8.559   8.524   1.360 -0.4231 -1.0507  0.4179
  373MOL0     C49167   8.675   8.570   1.285  0.3789  0.3562  1.0659
  373MOL0     C49168   8.769   8.610   1.228 -0.0277 -0.2569  0.3766
  373MOL0     C49169   8.317   7.916   1.203  0.1659 -0.7011 -0.8892
  373MOL0     C49170   8.187   7.867   1.183  0.0670  0.3968  1.1068
  373MOL0     H49171   7.686   7.891   0.985  2.0511 -0.5238 -1.3711
  373MOL0     H49172   7.494   7.769   0.945  4.5139  2.4129 -2.4993
  373MOL0     H49173   7.312   7.658   1.218 -0.8234 -0.2230 -0.9432
  373MOL0     H49174   7.405   7.515   1.262  3.1464 -1.2983 -1.9478
  373MOL0     H49175   7.236   7.357   1.176 -0.1944 -0.7567  1.7669
  373MOL0     H49176   7.152   7.498   1.104  1.5490 -1.6241 -1.1222
  373MOL0     H49177   7.125   7.587   1.346  0.3044  0.4224  1.4311
  373MOL0     H49178   7.199   7.429   1.384 -2.2389 -1.2726  1.6157
  373MOL0     H49179   6.927   7.468   1.244 -0.4377 -1.4008 -1.3483
  373MOL0     H49180   6.999   7.315   1.241 -1.1987 -0.1981 -0.0855
  373MOL0     H49181   6.941   7.466   1.491 -1.1175  0.7397 -2.7581
  373MOL0     H49182   6.992   7.290   1.478 -2.3237 -1.4184 -0.7807
  373MOL0     H49183   6.791   7.235   1.354  2.8931  1.3667 -2.4561
  373MOL0     H49184   6.741   7.405   1.346 -0.6231  0.1383  0.8314
  373MOL0     H49185   6.772   7.292   1.632 -3.8481 -0.0306  1.8627
  373MOL0     H49186   6.664   7.416   1.547 -1.2155  0.4934 -3.8645
  373MOL0     H49187   6.539   7.210   1.626 -4.2311  0.1820 -0.8569
  373MOL0     H49188   6.621   7.120   1.493  0.2781 -0.0292  0.8657
  373MOL0     H49189   6.577   7.180   1.239  0.1078  0.8598 -1.0149
  373MOL0     H49190   6.247   7.282   1.098 -0.4563  2.5025  1.7819
  373MOL0     H49191   6.410   7.245   1.045 -0.1292 -0.1879 -1.0217
  373MOL0     H49192   6.313   7.522   1.133 -4.4753 -1.6927 -1.4808
  373MOL0     H49193   6.317   7.472   0.966  0.6922 -2.9885 -0.5249
  373MOL0     H49194   6.559   7.511   1.157  1.8713 -2.0465  0.0979
  373MOL0     H49195   6.566   7.433   1.000  1.1039  1.2398 -0.6299
  373MOL0     H49196   6.627   7.665   0.982 -0.8156  0.1013 -0.1456
  373MOL0     H49197   6.481   7.724   1.055 -2.9377  0.2975 -3.2661
  373MOL0     H49198   6.248   7.596   0.743 -3.3356 -1.2296  1.6343
  373MOL0     H49199   6.035   7.728   0.730 -2.4304  4.1559 -1.3183
  373MOL0     H49200   5.826   8.112   1.089 -0.8773  2.0398  0.5372
  373MOL0     H49201   5.648   8.253   1.112  0.5830  0.5764  0.0241
  373MOL0     H49202   5.505   8.393   1.107 -1.2197 -2.8527  0.4271
  373MOL0     H49203   5.408   8.282   1.026  2.4996 -1.5691  1.9104
  373MOL0     H49204   5.250   8.450   1.001  0.1155 -1.4785 -5.6361
  373MOL0     H49205   5.362   8.542   0.903  1.3677 -2.9336 -0.8068
  373MOL0     H49206   5.479   8.600   1.147  1.2287 -0.9519 -2.9173
  373MOL0     H49207   5.296   8.619   1.169  0.3085  0.3451  0.5122
  373MOL0     H49208   5.484   8.728   0.962  0.6091 -1.7649  1.5698
  373MOL0     H49209   5.309   8.726   0.941 -2.1296 -3.7814  2.9415
  373MOL0     H49210   5.477   8.916   1.091  1.1611 -2.2314 -1.2289
  373MOL0     H49211   5.372   8.833   1.205  0.1522 -0.1585  0.0229
  373MOL0     H49212   5.171   8.908   1.084  1.7231 -3.5571  0.8223
  373MOL0     H49213   5.255   8.976   0.957  0.0998  3.4178  0.0639
  373MOL0     H49214   5.261   9.080   1.238  1.8345 -2.2274  0.1338
  373MOL0     H49215   5.374   9.127   1.107 -0.4751 -2.4709 -2.5639
  373MOL0     H49216   5.066   9.147   1.112 -0.9265  2.2065  1.9091
  373MOL0     H49217   5.171   9.198   0.980 -1.5443  0.4454  0.3261
  373MOL0     H49218   5.707   8.383   0.701  1.1233  1.3685  0.2385
  373MOL0     H49219   5.911   8.244   0.693 -2.3702  0.2837 -1.5962
  373MOL0     H49220   6.249   8.065   0.893  2.8712 -0.5574  0.3995
  373MOL0     H49221   6.441   7.913   0.942 -2.6222  2.1006  1.5032
  373MOL0     H49222   7.627   7.446   1.193  0.8973  0.1271  0.2626
  373MOL0     H49223   7.818   7.574   1.258  1.1699  0.5473 -0.1490
  373MOL0     H49224   8.019   8.144   1.061 -0.0032  1.5441  1.5534
  373MOL0     H49225   8.251   8.234   1.072 -2.6049  0.3799  0.2514
  373MOL0     H49226   8.400   8.193   1.372  1.5525  2.0011  1.0221
  373MOL0     H49227   8.379   8.302   1.237 -1.5375 -1.7566  2.6025
  373MOL0     H49228   8.623   8.197   1.384  0.9068  1.0817  1.7861
  373MOL0     H49229   8.637   8.312   1.244  0.6723  3.0420  1.8371
  373MOL0     H49230   8.654   8.381   1.509 -0.9819 -0.1477  0.0723
  373MOL0     H49231   8.485   8.377   1.500  0.0991  0.6199 -0.0732
  373MOL0     H49232   8.473   8.517   1.293  1.1477 -1.3292 -1.6800
  373MOL0     H49233   8.543   8.604   1.433  1.9825  1.2683 -1.3617
  373MOL0     H49234   8.853   8.643   1.171 -0.1147  0.9021  0.9007
  373MOL0     H49235   8.406   7.864   1.237  3.9362  3.4363 -3.3679
  373MOL0     H49236   8.177   7.760   1.202  1.5917  0.0361  0.0126
  374MOL0     O49237   8.879   6.385   6.164  0.1714 -0.2842  0.1399
  374MOL0     C49238   8.785   6.434   6.103 -0.2823  0.5198  0.0774
  374MOL0     O49239   8.791   6.476   5.975  0.6399  0.5113  0.3121
  374MOL0     C49240   8.908   6.455   5.897  0.2994  0.6006  0.3324
  374MOL0     C49241   9.044   6.465   5.957 -0.1461  0.7179  0.8460
  374MOL0     C49242   9.158   6.443   5.877  0.6651  0.1019 -0.7781
  374MOL0     C49243   9.144   6.408   5.743  0.2431  0.6269  0.4781
  374MOL0     O49244   9.258   6.373   5.667  0.6823  0.8016  0.1851
  374MOL0     C49245   9.309   6.244   5.695  0.0140  0.5229  1.0448
  374MOL0     C49246   9.464   6.253   5.690  0.3740  0.0426 -1.1576
  374MOL0     C49247   9.519   6.114   5.635 -0.1795 -0.2658 -0.0107
  374MOL0     C49248   9.667   6.138   5.590 -0.0209 -0.0765 -0.0273
  374MOL0     C49249   9.747   6.031   5.518  0.4443 -0.2131  0.4381
  374MOL0     C49250   9.752   5.901   5.583 -0.6997 -0.8803 -0.9093
  374MOL0     C49251   9.826   5.791   5.496  0.0497 -0.6585 -0.2214
  374MOL0     C49252   9.875   5.661   5.564  0.5883 -0.4787  0.5926
  374MOL0     N49253   9.961   5.582   5.475  1.1871 -0.9819  0.7446
  374MOL0     C49254  10.095   5.589   5.473  0.3642  0.1606 -0.1672
  374MOL0     C49255  10.138   5.491   5.398 -0.0308  0.1335 -0.5054
  374MOL0     C49256  10.281   5.478   5.341  0.3258 -0.9106 -0.6116
  374MOL0     C49257  10.318   5.618   5.298 -0.7349  0.0755  0.0043
  374MOL0     C49258  10.441   5.619   5.210  0.9550 -0.1290  0.0252
  374MOL0     C49259  10.568   5.607   5.281  0.0531 -0.1886  1.1345
  374MOL0     O49260  10.588   5.728   5.355 -0.0685  0.0898 -0.0567
  374MOL0     C49261  10.680   5.732   5.451 -0.4067 -0.0699  0.4429
  374MOL0     C49262  10.715   5.860   5.501  0.5669 -0.0795  0.2310
  374MOL0     C49263  10.822   5.879   5.590 -0.9409  0.1858  0.1238
  374MOL0     C49264  10.893   5.772   5.634  1.2165  0.1054  0.4293
  374MOL0     C49265  11.011   5.796   5.716  0.0508  0.5523 -0.6577
  374MOL0     O49266  11.067   5.682   5.772 -0.6948  0.4473 -0.4035
  374MOL0     C49267  11.187   5.719   5.838  1.0675 -0.0784 -0.4247
  374MOL0     C49268  11.297   5.678   5.778  0.2916  0.2317 -0.0991
  374MOL0     C49269  11.422   5.700   5.830  0.4952 -0.1699  0.3063
  374MOL0     C49270  11.447   5.776   5.947 -0.6325 -0.5815  0.2000
  374MOL0     O49271  11.561   5.820   6.016  0.2955 -0.1813  0.3134
  374MOL0     C49272  11.678   5.741   6.000  0.2972 -0.1919 -0.2418
  374MOL0     C49273  11.664   5.613   6.077 -0.7524 -0.8603 -0.5466
  374MOL0     C49274  11.814   5.574   6.113  0.1522  0.1939  0.1987
  374MOL0     C49275  11.825   5.444   6.192 -0.5679  0.8321  0.2507
  374MOL0     C49276  11.976   5.421   6.238  0.2869 -0.3826  0.4580
  374MOL0     C49277  11.995   5.269   6.266 -0.3056 -0.5904 -0.2746
  374MOL0     C49278  12.143   5.243   6.296  0.5107  0.2521  0.2665
  374MOL0     C49279  12.230   5.254   6.175 -0.2645  0.3504  0.1870
  374MOL0    Cl49280  12.405   5.250   6.237 -0.2707  0.6370 -0.1264
  374MOL0     C49281  11.327   5.797   6.025  0.3767  0.1477 -0.2417
  374MOL0     C49282  11.199   5.785   5.962  0.6772 -0.3669 -0.2684
  374MOL0     O49283  11.035   5.914   5.740 -0.0833  0.5762  0.0324
  374MOL0     C49284  10.869   5.647   5.585  0.2802  0.1363 -0.5289
  374MOL0     C49285  10.761   5.626   5.498  0.1242 -0.0724 -0.2396
  374MOL0     N49286  10.025   5.408   5.375  0.0034  0.1613 -0.7599
  374MOL0     N49287   9.919   5.480   5.391  0.3009 -0.6860  0.1537
  374MOL0     C49288   9.019   6.404   5.683 -0.5413  0.0761 -0.9576
  374MOL0     C49289   8.904   6.438   5.759 -0.7166  0.2696  0.6959
  374MOL0     C49290   8.656   6.460   6.173 -0.0141  0.0715  0.4702
  374MOL0     C49291   8.560   6.561   6.131 -0.4325 -0.5245 -0.6787
  374MOL0     C49292   8.444   6.588   6.210  0.6604 -0.7576 -0.2494
  374MOL0     C49293   8.414   6.503   6.315  0.4168 -0.5937  0.0833
  374MOL0     O49294   8.306   6.526   6.402 -0.0399 -0.1497  0.4072
  374MOL0     C49295   8.183   6.500   6.331  0.0779  0.1787  0.1749
  374MOL0     C49296   8.073   6.584   6.376  0.0454 -0.7552  0.4796
  374MOL0     C49297   7.943   6.509   6.348 -1.5232 -0.0309  0.5643
  374MOL0     C49298   7.823   6.580   6.405  0.3020 -0.1482 -0.3527
  374MOL0     C49299   7.814   6.708   6.338  0.2816  0.3965  0.6298
  374MOL0     C49300   7.787   6.812   6.285 -0.3538  0.6111 -0.3256
  374MOL0     C49301   8.506   6.402   6.357  0.3588  0.3907 -0.1467
  374MOL0     C49302   8.626   6.374   6.283  0.0150 -0.4495  0.2846
  374MOL0     H49303   9.051   6.473   6.065  1.5842 -2.8866  1.1580
  374MOL0     H49304   9.252   6.445   5.932  1.2415  4.1340 -1.6015
  374MOL0     H49305   9.279   6.176   5.614  2.8027 -2.2072  2.0734
  374MOL0     H49306   9.275   6.197   5.788  1.1234 -0.1768  1.1246
  374MOL0     H49307   9.501   6.269   5.791 -0.0336 -0.1655 -0.9737
  374MOL0     H49308   9.492   6.340   5.629 -1.0793  0.7478 -0.8718
  374MOL0     H49309   9.452   6.082   5.555  1.8405 -3.6848 -0.5136
  374MOL0     H49310   9.514   6.034   5.710  1.1906  1.8952  2.5984
  374MOL0     H49311   9.669   6.223   5.521  0.1592 -0.4119 -0.4396
  374MOL0     H49312   9.728   6.174   5.673 -3.3981  2.4222  1.5972
  374MOL0     H49313   9.843   6.078   5.494 -0.7299  0.7465 -2.9001
  374MOL0     H49314   9.695   6.011   5.423  0.6407  2.2088 -0.2408
  374MOL0     H49315   9.656   5.854   5.606 -0.5706 -0.3433  0.8567
  374MOL0     H49316   9.806   5.925   5.675  1.9390  2.8452 -3.1503
  374MOL0     H49317   9.757   5.761   5.417 -0.8884 -2.0921  1.0697
  374MOL0     H49318   9.912   5.840   5.450 -0.5499 -2.7568 -3.8848
  374MOL0     H49319   9.785   5.610   5.601 -1.2280  1.5994 -0.6657
  374MOL0     H49320   9.929   5.697   5.652 -0.8365  1.5164  0.7177
  374MOL0     H49321  10.133   5.688   5.498 -0.8177  0.5569  0.1042
  374MOL0     H49322  10.276   5.408   5.256 -0.3421  0.1160 -1.4476
  374MOL0     H49323  10.364   5.448   5.405  1.8816  2.5273 -0.7909
  374MOL0     H49324  10.335   5.676   5.389 -2.1003 -0.3877  0.5813
  374MOL0     H49325  10.229   5.662   5.251 -2.0086 -1.4050  0.9275
  374MOL0     H49326  10.431   5.544   5.130 -1.6022 -0.9435  1.0185
  374MOL0     H49327  10.435   5.720   5.169  1.9374  0.7201  1.8855
  374MOL0     H49328  10.652   5.609   5.210 -2.1527  1.0423 -1.6350
  374MOL0     H49329  10.570   5.511   5.331 -0.8271 -0.7897  0.0553
  374MOL0     H49330  10.664   5.943   5.454  0.7245 -1.5002 -2.6057
  374MOL0     H49331  10.845   5.980   5.622 -0.2097  0.0975 -0.1136
  374MOL0     H49332  11.291   5.624   5.684  1.2144  2.4610 -1.5155
  374MOL0     H49333  11.505   5.653   5.778 -0.9928  0.9873 -3.4556
  374MOL0     H49334  11.759   5.808   6.033 -1.5098  2.6738 -1.2667
  374MOL0     H49335  11.708   5.723   5.897  2.2505 -0.0680  0.2590
  374MOL0     H49336  11.618   5.538   6.012  1.4103 -3.1689  0.4364
  374MOL0     H49337  11.626   5.632   6.178  0.5857  1.1785 -0.3733
  374MOL0     H49338  11.854   5.650   6.181  0.5392 -1.1902  1.5888
  374MOL0     H49339  11.866   5.566   6.018 -0.3468  0.8710 -0.1318
  374MOL0     H49340  11.749   5.454   6.270 -1.8819  3.1676 -1.2254
  374MOL0     H49341  11.792   5.366   6.122 -1.7259 -0.5669  2.2397
  374MOL0     H49342  11.990   5.469   6.335 -1.4178 -0.8009  0.9439
  374MOL0     H49343  12.051   5.456   6.167 -0.2682  0.0341  0.0755
  374MOL0     H49344  11.964   5.203   6.184 -4.7505  0.6215  0.2247
  374MOL0     H49345  11.937   5.243   6.354  2.0451  0.1374  1.5938
  374MOL0     H49346  12.175   5.295   6.387 -1.1514 -0.7843  1.5119
  374MOL0     H49347  12.147   5.134   6.311 -2.3542  0.2126  1.3580
  374MOL0     H49348  12.212   5.344   6.116 -0.3275 -0.0730 -0.4492
  374MOL0     H49349  12.200   5.163   6.122 -2.3221 -2.0538  4.8878
  374MOL0     H49350  11.314   5.855   6.116 -0.0123 -0.5132  0.1291
  374MOL0     H49351  11.111   5.833   6.005  0.6236 -0.6637 -0.0473
  374MOL0     H49352  10.936   5.568   5.618  0.2156  0.3597  0.1493
  374MOL0     H49353  10.741   5.528   5.454  5.0658 -0.3538 -2.4790
  374MOL0     H49354   9.010   6.377   5.578  1.3910  1.4862 -1.5472
  374MOL0     H49355   8.802   6.450   5.722 -0.8966 -2.2663  0.1296
  374MOL0     H49356   8.593   6.623   6.049 -1.0457  1.5556  0.5682
  374MOL0     H49357   8.385   6.678   6.194  3.1536  1.7605  2.9971
  374MOL0     H49358   8.147   6.398   6.352 -2.2082  1.1375  1.2180
  374MOL0     H49359   8.169   6.510   6.223 -2.8661 -1.7943  0.2462
  374MOL0     H49360   8.086   6.609   6.481  2.4984 -1.6545  0.4653
  374MOL0     H49361   8.062   6.671   6.310 -0.4418 -1.5320 -0.5019
  374MOL0     H49362   7.948   6.407   6.386 -0.9841 -0.0973  0.3293
  374MOL0     H49363   7.932   6.498   6.240  2.6283 -0.4903  0.0213
  374MOL0     H49364   7.732   6.533   6.369  1.6641 -0.9064 -3.0992
  374MOL0     H49365   7.828   6.596   6.513  0.4302  2.5701 -0.6957
  374MOL0     H49366   7.757   6.910   6.256 -1.2893  0.3088 -0.4223
  374MOL0     H49367   8.491   6.337   6.443  1.9412 -0.4494 -0.4651
  374MOL0     H49368   8.694   6.292   6.303  0.0053 -0.6010 -0.2839
  375MOL0     O49369   0.348   5.228   4.496 -0.9601 -0.5941  0.5268
  375MOL0     C49370   0.372   5.107   4.479  0.4233 -0.1639 -0.6289
  375MOL0     O49371   0.302   4.997   4.535  0.3073  0.3770  0.8420
  375MOL0     C49372   0.211   5.022   4.626 -0.7064  0.1738 -0.1440
  375MOL0     C49373   0.232   4.989   4.762 -0.3599  0.2923  0.4297
  375MOL0     C49374   0.132   5.014   4.860 -0.0490 -1.0720 -0.5580
  375MOL0     C49375   0.019   5.088   4.821  0.3585 -0.0333 -0.9302
  375MOL0     O49376  -0.072   5.105   4.918 -0.0614 -0.2903  0.1416
  375MOL0     C49377  -0.192   5.182   4.882  0.0826 -1.3015 -1.1298
  375MOL0     C49378  -0.304   5.101   4.818 -0.4643  0.2384  0.0099
  375MOL0     C49379  -0.413   5.177   4.736 -0.2760 -0.1384 -0.0052
  375MOL0     C49380  -0.516   5.239   4.831  0.4455 -0.5446  0.3747
  375MOL0     C49381  -0.604   5.337   4.750 -0.6426 -0.0567  0.5018
  375MOL0     C49382  -0.698   5.407   4.850 -0.5277 -0.1466 -0.1463
  375MOL0     C49383  -0.806   5.494   4.796  0.2024 -0.1765  0.2109
  375MOL0     C49384  -0.929   5.412   4.732 -0.4367  0.9734 -0.3324
  375MOL0     N49385  -1.036   5.491   4.686  0.6192 -0.4221  0.2213
  375MOL0     C49386  -1.099   5.499   4.563 -0.9476  0.5244  0.3406
  375MOL0     C49387  -1.198   5.594   4.582 -0.1210 -0.1722  0.1433
  375MOL0     C49388  -1.281   5.636   4.463 -0.3064  0.0245  0.0300
  375MOL0     C49389  -1.385   5.532   4.426  0.0592  0.0165 -0.0342
  375MOL0     C49390  -1.493   5.505   4.533 -0.3726  0.6582 -0.8218
  375MOL0     C49391  -1.597   5.614   4.549 -0.3914  0.7740  0.4841
  375MOL0     O49392  -1.696   5.577   4.648  0.1711 -0.3074 -0.3402
  375MOL0     C49393  -1.810   5.658   4.673 -0.3614 -0.2033 -0.0744
  375MOL0     C49394  -1.910   5.605   4.756 -0.3519  0.4121  0.0794
  375MOL0     C49395  -2.024   5.677   4.779 -0.4466 -0.3066 -0.5483
  375MOL0     C49396  -2.040   5.807   4.738 -0.4427 -0.2122 -0.5971
  375MOL0     C49397  -2.166   5.875   4.772 -0.7394 -0.4036  0.4496
  375MOL0     O49398  -2.246   5.825   4.875 -0.7886  0.7325 -0.2007
  375MOL0     C49399  -2.377   5.871   4.907  0.0591 -0.1649  1.0691
  375MOL0     C49400  -2.454   5.975   4.875 -1.1473 -0.1214 -0.0277
  375MOL0     C49401  -2.589   5.988   4.911  0.1719 -0.1197 -0.0459
  375MOL0     C49402  -2.657   5.884   4.968  0.1922  0.6140  0.2317
  375MOL0     O49403  -2.796   5.895   4.995 -0.2748  0.5647 -0.2756
  375MOL0     C49404  -2.881   5.979   4.923 -0.1649  0.2445 -0.2533
  375MOL0     C49405  -3.026   5.946   4.971  0.4885  0.3182  0.0067
  375MOL0     C49406  -3.048   6.002   5.111  0.3273  0.3802 -1.2947
  375MOL0     C49407  -3.063   6.151   5.118  0.0363 -0.4816 -0.1057
  375MOL0     C49408  -3.097   6.207   5.252  0.2553  0.5232 -0.1984
  375MOL0     C49409  -3.254   6.217   5.277 -0.0918  0.3436 -0.1335
  375MOL0     C49410  -3.285   6.279   5.418  1.3860 -0.7851  0.4298
  375MOL0     C49411  -3.431   6.341   5.439 -0.0956  0.7271  0.8558
  375MOL0    Cl49412  -3.535   6.197   5.455 -0.1883 -0.0495 -0.2926
  375MOL0     C49413  -2.577   5.775   5.011  0.1789 -0.6683  0.5739
  375MOL0     C49414  -2.442   5.774   4.984  0.1246 -0.1343 -0.1424
  375MOL0     O49415  -2.192   5.982   4.716  0.5237 -0.8241 -0.3496
  375MOL0     C49416  -1.939   5.869   4.661  0.8391  0.0741  0.9132
  375MOL0     C49417  -1.819   5.796   4.633 -0.5099 -0.1640 -0.1388
  375MOL0     N49418  -1.192   5.636   4.707  0.5120  0.2752  0.2308
  375MOL0     N49419  -1.098   5.579   4.768 -0.2555  0.8710 -0.3875
  375MOL0     C49420  -0.002   5.127   4.687 -0.7049 -2.0608 -0.3973
  375MOL0     C49421   0.089   5.081   4.586  0.0149 -0.1413 -0.8318
  375MOL0     C49422   0.495   5.076   4.404  0.0261  0.0960  1.5197
  375MOL0     C49423   0.589   5.176   4.393  0.1285  0.3716 -0.2192
  375MOL0     C49424   0.693   5.168   4.310 -0.6584 -0.2068 -0.1078
  375MOL0     C49425   0.712   5.049   4.230  0.6467  0.6798 -0.9532
  375MOL0     O49426   0.823   5.016   4.155 -0.1817  0.5014 -0.6885
  375MOL0     C49427   0.905   5.119   4.090 -0.0606 -0.2065 -0.3850
  375MOL0     C49428   1.036   5.145   4.145  0.5685  0.2575 -0.4447
  375MOL0     C49429   1.120   5.238   4.057 -0.7155 -0.0240 -0.3000
  375MOL0     C49430   1.244   5.283   4.142 -0.1318  0.4579  0.2860
  375MOL0     C49431   1.318   5.392   4.068  0.7529  0.9182 -0.6564
  375MOL0     C49432   1.364   5.480   4.006 -0.3214  0.5595 -0.5317
  375MOL0     C49433   0.621   4.943   4.250  0.0039 -0.1028 -0.3849
  375MOL0     C49434   0.522   4.949   4.345 -0.4799  0.1053 -0.1654
  375MOL0     H49435   0.329   4.942   4.776 -0.8502 -0.9249 -0.1002
  375MOL0     H49436   0.136   4.983   4.964  0.9149  1.5909  0.2813
  375MOL0     H49437  -0.173   5.264   4.811 -0.6115 -1.0103 -0.9907
  375MOL0     H49438  -0.243   5.225   4.968 -3.8450 -3.5771 -2.0620
  375MOL0     H49439  -0.360   5.054   4.899  1.1276 -2.5912 -0.3775
  375MOL0     H49440  -0.260   5.023   4.755  1.6928  0.1909  1.4576
  375MOL0     H49441  -0.448   5.115   4.654  1.3125 -0.0306 -0.7944
  375MOL0     H49442  -0.357   5.254   4.683  0.6190  0.3485  1.5971
  375MOL0     H49443  -0.576   5.164   4.883  0.3799 -0.7852 -0.0424
  375MOL0     H49444  -0.473   5.301   4.910 -2.1215  0.3896  1.1336
  375MOL0     H49445  -0.662   5.279   4.678  0.9149  3.3787 -3.9557
  375MOL0     H49446  -0.545   5.414   4.700  0.1366 -0.6512  0.4972
  375MOL0     H49447  -0.636   5.462   4.921 -0.7230 -0.2898  0.1351
  375MOL0     H49448  -0.748   5.333   4.913 -2.7372  1.3152 -0.0480
  375MOL0     H49449  -0.862   5.561   4.860  0.0566 -1.3277  1.3289
  375MOL0     H49450  -0.755   5.553   4.719  0.8271 -3.5878 -2.2313
  375MOL0     H49451  -0.976   5.340   4.800 -0.1273  3.1553  2.3408
  375MOL0     H49452  -0.896   5.343   4.654 -3.5612 -1.0289 -0.0715
  375MOL0     H49453  -1.089   5.432   4.479 -1.3505  1.3271 -0.3531
  375MOL0     H49454  -1.210   5.665   4.386  0.7915  1.2690  1.4372
  375MOL0     H49455  -1.335   5.725   4.499  0.4521  0.8269 -0.7616
  375MOL0     H49456  -1.329   5.443   4.395 -1.7435 -0.8537 -0.8959
  375MOL0     H49457  -1.446   5.559   4.340  0.4161 -2.8788 -1.3160
  375MOL0     H49458  -1.542   5.413   4.499  1.8361 -1.2998  0.9855
  375MOL0     H49459  -1.458   5.487   4.635  1.3528 -0.6057 -1.5830
  375MOL0     H49460  -1.646   5.617   4.452  0.3577  1.0175  0.1090
  375MOL0     H49461  -1.545   5.706   4.579 -1.7739  1.8185 -0.2597
  375MOL0     H49462  -1.905   5.501   4.789 -2.1412  0.6665  1.2795
  375MOL0     H49463  -2.106   5.628   4.832 -2.1151  0.4693 -2.2871
  375MOL0     H49464  -2.419   6.055   4.810 -0.1287 -1.4829 -1.2074
  375MOL0     H49465  -2.641   6.070   4.862  2.0404 -0.2190 -2.4038
  375MOL0     H49466  -2.875   5.948   4.819 -0.3751  0.4801 -0.3370
  375MOL0     H49467  -2.854   6.085   4.934  2.4449 -0.4970  1.2964
  375MOL0     H49468  -3.036   5.837   4.982 -0.2554  0.2242 -1.3213
  375MOL0     H49469  -3.092   5.983   4.892  0.1388 -0.6881 -0.1956
  375MOL0     H49470  -2.965   5.975   5.177 -0.0706 -0.1241 -0.9903
  375MOL0     H49471  -3.142   5.963   5.150 -0.3356  1.4466 -1.7863
  375MOL0     H49472  -2.970   6.196   5.082  0.2783 -0.2670  0.7645
  375MOL0     H49473  -3.142   6.189   5.052 -0.3584  0.8614  1.0790
  375MOL0     H49474  -3.052   6.306   5.266 -2.8210  1.5918  4.9429
  375MOL0     H49475  -3.056   6.147   5.334  0.7758 -0.5441 -1.2081
  375MOL0     H49476  -3.304   6.120   5.274  1.1247 -0.3015 -0.1067
  375MOL0     H49477  -3.299   6.284   5.203 -2.0870  1.7286  2.1639
  375MOL0     H49478  -3.261   6.205   5.494  3.6042 -2.8180 -2.0366
  375MOL0     H49479  -3.218   6.364   5.434  1.4547 -0.4410 -1.4237
  375MOL0     H49480  -3.468   6.411   5.364  2.4734  1.4823  0.1827
  375MOL0     H49481  -3.430   6.401   5.530  2.0482  0.9068  0.7819
  375MOL0     H49482  -2.622   5.690   5.061  0.4534 -0.3866  1.3100
  375MOL0     H49483  -2.384   5.691   5.022 -1.9060 -0.9922  1.2503
  375MOL0     H49484  -1.964   5.961   4.609  0.1707 -1.4731 -1.6523
  375MOL0     H49485  -1.731   5.830   4.579  0.7600  2.4458  3.1913
  375MOL0     H49486  -0.087   5.181   4.647 -0.4808 -1.5594 -0.2013
  375MOL0     H49487   0.068   5.072   4.480 -0.0291 -4.8172 -0.6262
  375MOL0     H49488   0.567   5.275   4.432 -0.9621  0.4867 -1.0759
  375MOL0     H49489   0.766   5.248   4.312 -1.7773  0.8707  1.8055
  375MOL0     H49490   0.861   5.218   4.108  1.3868  0.3492  0.3077
  375MOL0     H49491   0.926   5.095   3.986  2.0021 -0.0071 -0.0655
  375MOL0     H49492   1.020   5.188   4.244 -0.0769 -1.1712  0.0931
  375MOL0     H49493   1.083   5.047   4.162  2.0002  1.0132  0.1523
  375MOL0     H49494   1.063   5.329   4.039  1.8697  1.8501  0.5249
  375MOL0     H49495   1.149   5.202   3.958  2.0173 -1.8248  1.0107
  375MOL0     H49496   1.219   5.312   4.244  0.4698  1.2910  0.2067
  375MOL0     H49497   1.301   5.190   4.145  0.2170  0.6246 -0.6038
  375MOL0     H49498   1.393   5.566   3.950  1.0809  1.4519  1.4448
  375MOL0     H49499   0.630   4.850   4.195 -3.8918 -0.8684 -0.0019
  375MOL0     H49500   0.448   4.876   4.376  0.5197 -0.0383  2.1009
  376MOL0     O49501   7.465   9.105   9.871 -0.1004 -0.6711  0.5614
  376MOL0     C49502   7.524   9.120   9.759  0.1581 -0.1731 -0.4284
  376MOL0     O49503   7.454   9.122   9.639 -0.1294 -0.2567 -0.8368
  376MOL0     C49504   7.324   9.164   9.655 -0.2239 -0.0743  0.3130
  376MOL0     C49505   7.283   9.301   9.679 -0.0028  0.3827 -0.3674
  376MOL0     C49506   7.148   9.331   9.697 -0.3721  0.4419 -0.4093
  376MOL0     C49507   7.050   9.222   9.685  0.1546  0.0182 -1.1495
  376MOL0     O49508   6.911   9.234   9.693  0.6800  0.1214  0.0950
  376MOL0     C49509   6.872   9.368   9.738  0.1613 -0.6389 -0.3348
  376MOL0     C49510   6.731   9.373   9.798 -0.3008 -0.3883  1.1509
  376MOL0     C49511   6.626   9.336   9.694 -0.0885  0.0627 -0.0136
  376MOL0     C49512   6.486   9.326   9.753 -0.0108  0.2791  0.4391
  376MOL0     C49513   6.452   9.432   9.851 -0.5831 -0.1622  0.0031
  376MOL0     C49514   6.443   9.565   9.786  0.5248 -0.1218  0.7667
  376MOL0     C49515   6.384   9.668   9.881  0.3447  0.0730 -0.2574
  376MOL0     C49516   6.359   9.799   9.805  0.3134  0.4135 -0.0993
  376MOL0     N49517   6.460   9.902   9.842  0.0398 -0.2435  0.8354
  376MOL0     C49518   6.586   9.916   9.778 -0.5903 -0.4959  0.0737
  376MOL0     C49519   6.650  10.009   9.849  1.4253  0.4352 -0.1173
  376MOL0     C49520   6.777  10.083   9.808 -0.0526  0.1044 -0.3016
  376MOL0     C49521   6.869  10.111   9.925  0.3754 -0.0021  0.6638
  376MOL0     C49522   6.886   9.984  10.019 -0.0423  0.0739  0.2580
  376MOL0     C49523   7.019   9.994  10.089 -0.5712  0.0689  0.1269
  376MOL0     O49524   7.125   9.951  10.000 -0.2924  0.5285 -0.2403
  376MOL0     C49525   7.250   9.944  10.050  0.3066 -0.2883 -0.0665
  376MOL0     C49526   7.334   9.887   9.954 -0.7380 -0.4061 -0.2770
  376MOL0     C49527   7.462   9.854   9.988 -0.9072 -0.3295  1.2418
  376MOL0     C49528   7.512   9.874  10.122 -0.4010 -0.4700  0.5939
  376MOL0     C49529   7.652   9.847  10.152  0.2955  0.9566 -0.5582
  376MOL0     O49530   7.702   9.908  10.255 -0.0323 -0.1231 -0.7041
  376MOL0     C49531   7.831   9.882  10.310 -0.1440 -0.2138 -0.6187
  376MOL0     C49532   7.854   9.976  10.418  0.1447  0.0950  0.7108
  376MOL0     C49533   7.976   9.975  10.479  0.0282 -0.3511  0.0806
  376MOL0     C49534   8.080   9.888  10.441 -0.3139  0.0310  1.1440
  376MOL0     O49535   8.196   9.908  10.500 -0.3212 -0.5680  0.9021
  376MOL0     C49536   8.311   9.839  10.460  0.5468  0.3036  0.5038
  376MOL0     C49537   8.430   9.876  10.545  0.4541  0.2788 -0.6180
  376MOL0     C49538   8.407   9.819  10.690  0.8827 -0.3441 -0.2600
  376MOL0     C49539   8.523   9.865  10.776 -0.8088  0.5805 -0.1658
  376MOL0     C49540   8.655   9.783  10.751  0.1455  0.2068  0.2798
  376MOL0     C49541   8.772   9.836  10.831 -0.5368  0.1429 -0.6582
  376MOL0     C49542   8.797   9.986  10.799  0.1252  0.2697 -0.2620
  376MOL0     C49543   8.918  10.034  10.873  0.3503  1.0120  0.5186
  376MOL0    Cl49544   9.067   9.941  10.836  0.1293 -0.4881 -0.2224
  376MOL0     C49545   8.061   9.807  10.331  0.5832 -0.0024  0.4618
  376MOL0     C49546   7.935   9.800  10.266 -0.8815 -0.8713  0.2641
  376MOL0     O49547   7.704   9.754  10.084 -0.1427 -0.0103 -0.0295
  376MOL0     C49548   7.431   9.941  10.213 -0.3594  0.2900 -0.6399
  376MOL0     C49549   7.300   9.967  10.181  0.7497 -0.1489  0.2855
  376MOL0     N49550   6.570  10.046   9.953  0.1014 -0.1827 -0.4090
  376MOL0     N49551   6.461   9.979   9.952 -0.0670  0.3213  0.0595
  376MOL0     C49552   7.093   9.094   9.664 -0.5425 -0.2784  0.0459
  376MOL0     C49553   7.225   9.067   9.646 -0.0811  0.1823  0.3386
  376MOL0     C49554   7.670   9.135   9.747  0.3293  0.3811 -0.0792
  376MOL0     C49555   7.755   9.076   9.837 -1.0431 -0.8027 -0.3072
  376MOL0     C49556   7.896   9.093   9.826  0.3508  0.0231  0.2446
  376MOL0     C49557   7.949   9.172   9.728 -0.1038  1.1044  0.2119
  376MOL0     O49558   8.084   9.200   9.732 -0.7193 -0.7422 -0.1735
  376MOL0     C49559   8.142   9.307   9.662  0.4479 -1.2555 -1.2590
  376MOL0     C49560   8.293   9.324   9.686  0.6112 -0.0417 -0.3028
  376MOL0     C49561   8.318   9.432   9.783  0.3512 -0.5949  0.6181
  376MOL0     C49562   8.459   9.439   9.832 -0.1946  0.6857  0.3854
  376MOL0     C49563   8.514   9.579   9.805 -0.7777  1.3093 -0.8894
  376MOL0     C49564   8.545   9.697   9.796  0.4252  0.8336  0.0871
  376MOL0     C49565   7.863   9.223   9.630 -0.5294  0.3982  0.4975
  376MOL0     C49566   7.725   9.204   9.643  0.6102 -0.7715  0.6348
  376MOL0     H49567   7.361   9.375   9.670  1.0993 -0.7642 -0.5969
  376MOL0     H49568   7.114   9.433   9.710 -4.1486 -0.9859  3.6373
  376MOL0     H49569   6.879   9.434   9.651 -3.1069  2.7806  1.7158
  376MOL0     H49570   6.929   9.396   9.827 -2.5494  0.2743  1.2355
  376MOL0     H49571   6.714   9.472   9.842 -0.8223 -0.1140  0.3666
  376MOL0     H49572   6.729   9.309   9.887  1.6665  2.8384  3.7380
  376MOL0     H49573   6.655   9.245   9.642 -0.7117 -0.3038  0.2661
  376MOL0     H49574   6.632   9.420   9.624  3.0215  0.7053  0.8608
  376MOL0     H49575   6.408   9.328   9.676  0.8935 -2.8955 -0.7022
  376MOL0     H49576   6.476   9.230   9.803 -1.0164  0.5942  0.8820
  376MOL0     H49577   6.523   9.435   9.934  0.3050 -1.0679 -0.6893
  376MOL0     H49578   6.353   9.404   9.889  0.0325 -0.3044  1.5952
  376MOL0     H49579   6.385   9.559   9.693  1.0922  0.6207  0.3609
  376MOL0     H49580   6.546   9.592   9.762  1.0090  0.9849  3.7238
  376MOL0     H49581   6.292   9.628   9.924 -1.2477  0.7621 -2.8050
  376MOL0     H49582   6.459   9.673   9.961  0.0179  0.5913  0.0204
  376MOL0     H49583   6.263   9.839   9.837 -1.6939 -2.5429 -1.8620
  376MOL0     H49584   6.359   9.785   9.696 -1.5952  0.6007 -0.1566
  376MOL0     H49585   6.614   9.867   9.685 -2.5120 -2.3877  0.4102
  376MOL0     H49586   6.763  10.175   9.751  0.4911 -1.8105 -3.8330
  376MOL0     H49587   6.827  10.026   9.729 -0.6548  0.8373 -1.2225
  376MOL0     H49588   6.831  10.199   9.977  4.0052  2.2906 -0.1904
  376MOL0     H49589   6.967  10.130   9.880 -1.3632 -0.5326 -3.8564
  376MOL0     H49590   6.804   9.978  10.092 -0.9901 -2.7929 -0.8799
  376MOL0     H49591   6.893   9.887   9.968 -1.0265 -0.6346  1.4172
  376MOL0     H49592   7.016   9.939  10.183 -1.0536  2.7635  1.8032
  376MOL0     H49593   7.041  10.101  10.099 -1.5150  1.2068 -6.1507
  376MOL0     H49594   7.292   9.876   9.854 -3.9198 -0.3717  0.9288
  376MOL0     H49595   7.529   9.802   9.920 -2.7724 -1.6442  0.3085
  376MOL0     H49596   7.771  10.030  10.462  1.2392  2.3057  0.2016
  376MOL0     H49597   7.992  10.045  10.560 -0.4287 -0.4300  0.2386
  376MOL0     H49598   8.330   9.862  10.354 -1.8732 -1.3838 -0.3856
  376MOL0     H49599   8.281   9.734  10.462  1.2474  0.1058  2.7062
  376MOL0     H49600   8.437   9.984  10.559 -0.8134  0.2886  0.1007
  376MOL0     H49601   8.519   9.831  10.499 -0.3062  0.0460 -1.9309
  376MOL0     H49602   8.408   9.710  10.686  0.8654 -0.8224  5.0015
  376MOL0     H49603   8.317   9.857  10.740  0.8293  0.3163 -0.8432
  376MOL0     H49604   8.544   9.971  10.761 -0.2577  0.5021  0.0225
  376MOL0     H49605   8.502   9.838  10.880  1.5625 -2.3675 -0.3319
  376MOL0     H49606   8.684   9.784  10.646  1.8928 -2.9749  0.6093
  376MOL0     H49607   8.634   9.679  10.777 -4.5629  1.1708  1.4000
  376MOL0     H49608   8.859   9.770  10.823 -0.1527  0.3253  1.3518
  376MOL0     H49609   8.755   9.839  10.940  0.4248 -0.8932 -0.4681
  376MOL0     H49610   8.801  10.007  10.692  1.3663 -1.2288 -0.5378
  376MOL0     H49611   8.717  10.047  10.842  0.2490  1.0207 -1.0698
  376MOL0     H49612   8.895  10.014  10.978  0.4725 -1.0996  0.1855
  376MOL0     H49613   8.945  10.139  10.860 -0.9171  1.0169 -3.6479
  376MOL0     H49614   8.134   9.735  10.295 -0.1570 -1.1142  1.1121
  376MOL0     H49615   7.919   9.745  10.174 -0.8946 -1.7235  0.7605
  376MOL0     H49616   7.475   9.974  10.307 -1.3305  2.1844 -0.8182
  376MOL0     H49617   7.233  10.011  10.253 -0.4752 -1.7369  0.1692
  376MOL0     H49618   7.014   9.019   9.665 -0.4911 -0.3765  2.3464
  376MOL0     H49619   7.256   8.970   9.607  1.9904  1.6836 -2.0649
  376MOL0     H49620   7.714   9.037   9.930 -2.0166  2.0634  0.5649
  376MOL0     H49621   7.956   9.057   9.909  0.3236  0.8860  0.6474
  376MOL0     H49622   8.081   9.398   9.667  0.0997 -1.4679 -1.6060
  376MOL0     H49623   8.129   9.282   9.557 -1.7550 -0.9424 -1.1117
  376MOL0     H49624   8.332   9.230   9.726  0.8947 -1.2146 -3.1268
  376MOL0     H49625   8.348   9.344   9.593  0.4057  2.9280  0.1011
  376MOL0     H49626   8.261   9.407   9.873  1.0251 -3.4333  0.3450
  376MOL0     H49627   8.290   9.528   9.737  1.6960  0.2216  1.4322
  376MOL0     H49628   8.460   9.432   9.942 -0.7796  0.1692  0.3637
  376MOL0     H49629   8.522   9.364   9.784  2.4488  3.2730 -0.5089
  376MOL0     H49630   8.574   9.800   9.803  0.3346  0.8307  0.5128
  376MOL0     H49631   7.897   9.280   9.544  2.5848  4.2974  3.9357
  376MOL0     H49632   7.653   9.250   9.576  1.0946 -0.2685  0.4444
  377MOL0     O49633   1.972   3.187   4.287  0.2327 -0.2106 -0.4496
  377MOL0     C49634   2.003   3.114   4.196  0.1175  0.3227 -0.3624
  377MOL0     O49635   1.917   3.035   4.128  0.0970 -0.2527  0.1311
  377MOL0     C49636   1.786   3.050   4.139  0.4819 -0.0181 -0.6481
  377MOL0     C49637   1.721   2.939   4.200 -0.3360 -0.3795 -0.4296
  377MOL0     C49638   1.586   2.932   4.225 -0.4148  0.1927 -0.3546
  377MOL0     C49639   1.508   3.037   4.186  0.5523  0.7657  0.6894
  377MOL0     O49640   1.369   3.028   4.188  0.2973 -0.0879  0.1536
  377MOL0     C49641   1.295   3.128   4.128  0.2047 -0.1780  0.5784
  377MOL0     C49642   1.151   3.088   4.097 -0.2581  0.2508  0.9295
  377MOL0     C49643   1.084   3.012   4.202  0.5023 -0.2270  0.2582
  377MOL0     C49644   0.936   2.982   4.174 -0.2777  0.2378  0.5358
  377MOL0     C49645   0.913   2.885   4.061  0.5181  0.3943 -0.0650
  377MOL0     C49646   0.772   2.883   3.999 -0.2098 -0.2500 -0.1899
  377MOL0     C49647   0.661   2.837   4.088 -0.2342 -0.6618  1.1258
  377MOL0     C49648   0.688   2.738   4.200 -0.0856 -0.1968 -0.1233
  377MOL0     N49649   0.557   2.699   4.264 -0.7273  0.3886 -0.4465
  377MOL0     C49650   0.490   2.781   4.345 -0.3132 -0.3153 -0.2524
  377MOL0     C49651   0.368   2.739   4.355  1.1133 -0.4681  0.4840
  377MOL0     C49652   0.240   2.802   4.414  0.6158  0.3554  0.6841
  377MOL0     C49653   0.235   2.784   4.565 -0.4072  0.3120 -0.7827
  377MOL0     C49654   0.312   2.891   4.650  0.9209 -0.3819  0.2647
  377MOL0     C49655   0.217   3.004   4.701  0.5749 -0.2432 -0.6311
  377MOL0     O49656   0.158   3.071   4.584 -0.5113  0.0229 -0.0822
  377MOL0     C49657   0.029   3.130   4.582  0.8490 -0.0255 -0.0991
  377MOL0     C49658  -0.043   3.179   4.698 -0.6282  0.2190 -0.3304
  377MOL0     C49659  -0.175   3.231   4.681  0.1375 -0.2709  0.4412
  377MOL0     C49660  -0.227   3.255   4.555 -0.1426  0.1393  1.0517
  377MOL0     C49661  -0.371   3.291   4.538 -0.6807  0.9502  0.1263
  377MOL0     O49662  -0.444   3.320   4.645  0.1478 -0.2929 -0.5172
  377MOL0     C49663  -0.574   3.358   4.640  0.1251 -0.0041  0.2255
  377MOL0     C49664  -0.630   3.410   4.757  0.1566  0.1238  0.0712
  377MOL0     C49665  -0.768   3.453   4.773 -0.7354  0.6717 -0.4845
  377MOL0     C49666  -0.848   3.446   4.654  1.4895  0.7441  0.0294
  377MOL0     O49667  -0.984   3.480   4.638 -1.2371 -0.2024 -0.1806
  377MOL0     C49668  -1.037   3.568   4.741 -1.4036  0.9802  0.0730
  377MOL0     C49669  -1.174   3.612   4.718 -0.8331 -0.7423 -0.0933
  377MOL0     C49670  -1.272   3.488   4.726 -0.2214  0.2560  0.2417
  377MOL0     C49671  -1.408   3.516   4.662  0.0814 -0.0844 -0.7651
  377MOL0     C49672  -1.496   3.617   4.736 -0.5347 -0.5277  0.4183
  377MOL0     C49673  -1.629   3.656   4.668 -0.4153 -0.3115 -0.4389
  377MOL0     C49674  -1.714   3.742   4.768 -0.0143 -0.4156  0.0258
  377MOL0     C49675  -1.639   3.876   4.806  0.1473 -0.2762  0.1499
  377MOL0    Cl49676  -1.559   3.961   4.660 -0.4761 -0.3405  0.1656
  377MOL0     C49677  -0.799   3.383   4.537  0.2994  1.2743 -0.3797
  377MOL0     C49678  -0.661   3.343   4.530  0.3360  0.3940  0.0111
  377MOL0     O49679  -0.416   3.290   4.419 -0.3718  0.9633 -0.4721
  377MOL0     C49680  -0.151   3.214   4.443 -0.1761 -0.2491 -0.4985
  377MOL0     C49681  -0.030   3.146   4.457 -0.6365 -0.2609  0.0651
  377MOL0     N49682   0.364   2.620   4.282 -0.5462  0.5869 -0.1591
  377MOL0     N49683   0.479   2.594   4.230  0.3061  0.5072  0.3530
  377MOL0     C49684   1.569   3.155   4.131 -0.8085 -0.2300  0.0600
  377MOL0     C49685   1.708   3.166   4.113 -0.0568  0.4706 -0.3230
  377MOL0     C49686   2.144   3.094   4.162  0.1894  0.0892 -0.6538
  377MOL0     C49687   2.177   2.967   4.110 -0.1363 -0.2926 -0.3548
  377MOL0     C49688   2.317   2.944   4.093 -0.5297  0.7872 -0.0951
  377MOL0     C49689   2.417   3.027   4.145  1.1055 -0.3126  0.0872
  377MOL0     O49690   2.542   2.982   4.144 -0.4665  0.4900  0.6756
  377MOL0     C49691   2.651   3.041   4.225  0.0987  0.5915  0.7499
  377MOL0     C49692   2.739   3.139   4.147 -1.1188 -0.2178  0.8214
  377MOL0     C49693   2.831   3.071   4.051 -0.0134  0.3342 -0.0184
  377MOL0     C49694   2.901   3.175   3.956 -0.1211 -0.0151 -0.0943
  377MOL0     C49695   3.019   3.121   3.876  0.6006 -1.0795 -0.4183
  377MOL0     C49696   3.103   3.070   3.807 -0.0355  0.3299  0.1909
  377MOL0     C49697   2.385   3.149   4.196 -0.0241 -0.0717  0.2257
  377MOL0     C49698   2.249   3.183   4.206  0.7759  0.0759 -0.1369
  377MOL0     H49699   1.773   2.849   4.230  1.2621  0.7948  0.5086
  377MOL0     H49700   1.546   2.845   4.276  1.3736 -2.0719 -2.4906
  377MOL0     H49701   1.349   3.164   4.039 -1.0128 -0.9895 -0.5360
  377MOL0     H49702   1.273   3.205   4.202 -0.3458  0.7741 -0.5403
  377MOL0     H49703   1.158   3.016   4.014  0.3400  0.8782  0.4229
  377MOL0     H49704   1.099   3.176   4.057  1.4303  0.9515  0.1504
  377MOL0     H49705   1.099   3.059   4.300  2.2027 -1.5837  0.7129
  377MOL0     H49706   1.139   2.919   4.219 -1.3943 -1.5938 -0.7780
  377MOL0     H49707   0.906   2.937   4.269 -1.1429  0.2299  0.2734
  377MOL0     H49708   0.880   3.075   4.162 -1.7731 -0.9510 -3.6568
  377MOL0     H49709   0.942   2.784   4.091  0.5185 -0.4221 -2.5406
  377MOL0     H49710   0.974   2.921   3.977 -2.6125  4.2890 -0.9738
  377MOL0     H49711   0.775   2.814   3.913  2.2646  1.5319 -1.6727
  377MOL0     H49712   0.755   2.980   3.951  2.2050 -0.1785 -1.0557
  377MOL0     H49713   0.609   2.926   4.125  0.0115 -1.2404  2.9688
  377MOL0     H49714   0.593   2.781   4.024 -1.4635  0.7574  1.1412
  377MOL0     H49715   0.759   2.782   4.271 -1.0975  1.6944 -0.2285
  377MOL0     H49716   0.737   2.649   4.159  0.2816 -1.5452  2.9329
  377MOL0     H49717   0.530   2.865   4.402 -0.2747 -0.9291  0.6396
  377MOL0     H49718   0.151   2.761   4.365  2.2619 -0.8880 -1.4729
  377MOL0     H49719   0.241   2.910   4.399  0.9451  0.0937 -1.6057
  377MOL0     H49720   0.276   2.688   4.598 -0.6212  0.6402  0.4904
  377MOL0     H49721   0.132   2.780   4.600 -0.2319 -2.6515 -0.3696
  377MOL0     H49722   0.356   2.844   4.738 -0.1012 -0.0514  0.9732
  377MOL0     H49723   0.391   2.921   4.581 -0.6779  0.9445 -1.1084
  377MOL0     H49724   0.266   3.064   4.778 -1.2443 -1.2843  1.4453
  377MOL0     H49725   0.132   2.964   4.756 -1.5498  6.0981  1.4999
  377MOL0     H49726  -0.005   3.165   4.798 -1.1724 -1.8593 -0.3736
  377MOL0     H49727  -0.239   3.257   4.765 -0.2883 -0.0629  0.0634
  377MOL0     H49728  -0.563   3.421   4.842  1.3026 -3.7982 -0.1062
  377MOL0     H49729  -0.793   3.485   4.873  1.1265  0.1938  0.1752
  377MOL0     H49730  -0.986   3.665   4.743  1.3980 -0.3907  2.0582
  377MOL0     H49731  -1.040   3.506   4.830  0.0176 -1.4675 -1.4750
  377MOL0     H49732  -1.179   3.638   4.612 -1.1036 -0.6445 -0.0564
  377MOL0     H49733  -1.200   3.703   4.774  0.7553  0.7841 -1.7043
  377MOL0     H49734  -1.289   3.466   4.831 -1.8702  1.6876  0.3111
  377MOL0     H49735  -1.228   3.397   4.683 -1.6782 -0.8637  1.0130
  377MOL0     H49736  -1.390   3.543   4.558  0.8299 -0.0610 -0.6369
  377MOL0     H49737  -1.468   3.425   4.662 -2.3591  1.4432 -0.5451
  377MOL0     H49738  -1.435   3.705   4.758  0.0274 -0.7113 -0.3681
  377MOL0     H49739  -1.508   3.587   4.840 -0.9042  0.6596  0.7413
  377MOL0     H49740  -1.677   3.561   4.640 -0.6076  0.2039 -1.9663
  377MOL0     H49741  -1.605   3.714   4.578  1.0135  1.9138  1.2661
  377MOL0     H49742  -1.818   3.761   4.740  0.4577  2.9125  0.1656
  377MOL0     H49743  -1.721   3.681   4.858 -0.8180 -3.5019 -1.9482
  377MOL0     H49744  -1.560   3.861   4.880 -0.9286  3.6452  2.3892
  377MOL0     H49745  -1.707   3.952   4.844  0.2432  0.8015 -1.6763
  377MOL0     H49746  -0.865   3.346   4.459 -1.8534 -3.5138  3.1430
  377MOL0     H49747  -0.639   3.284   4.442  1.5218  0.8554 -0.0217
  377MOL0     H49748  -0.175   3.240   4.340  4.3261  0.4365 -1.5738
  377MOL0     H49749   0.029   3.110   4.373  2.5981  0.6739  1.7730
  377MOL0     H49750   1.517   3.248   4.109 -2.0185 -1.3783 -2.4750
  377MOL0     H49751   1.769   3.253   4.091  1.5977 -0.9800 -1.7495
  377MOL0     H49752   2.110   2.883   4.098 -3.5581  2.2696 -0.6854
  377MOL0     H49753   2.338   2.850   4.042  2.7036  1.7162 -0.6866
  377MOL0     H49754   2.721   2.971   4.271 -2.4274 -1.5582  1.5558
  377MOL0     H49755   2.602   3.087   4.312 -1.4402  0.7808 -0.1789
  377MOL0     H49756   2.679   3.210   4.089 -0.4293  1.4791  2.1024
  377MOL0     H49757   2.797   3.198   4.219 -1.7664  0.5273  0.7456
  377MOL0     H49758   2.780   3.008   3.977  1.6930  0.2817 -1.1890
  377MOL0     H49759   2.906   3.014   4.107 -1.4465 -0.5257  1.1410
  377MOL0     H49760   2.832   3.233   3.894  0.2846  0.0924 -0.4552
  377MOL0     H49761   2.941   3.258   4.015  0.5714 -0.5353  0.1885
  377MOL0     H49762   3.176   3.014   3.751 -0.0290 -1.0665  1.5338
  377MOL0     H49763   2.462   3.211   4.241 -1.0279 -0.6425  2.9456
  377MOL0     H49764   2.212   3.272   4.256  2.5057  0.7899 -0.0553
  378MOL0     O49765   8.214   1.004   1.863  0.5381 -0.1641  0.2036
  378MOL0     C49766   8.138   1.056   1.938  0.2956 -0.4246 -0.2675
  378MOL0     O49767   8.169   1.155   2.027  0.3098  0.7218 -0.3438
  378MOL0     C49768   8.302   1.183   2.045 -0.5858  0.0067 -0.1666
  378MOL0     C49769   8.378   1.122   2.143  0.1144  0.2859  0.5202
  378MOL0     C49770   8.507   1.163   2.177  0.3604 -0.1423 -0.4239
  378MOL0     C49771   8.570   1.270   2.106  0.7073 -0.3776  0.0587
  378MOL0     O49772   8.692   1.327   2.146 -0.3002 -0.6220  0.4776
  378MOL0     C49773   8.768   1.377   2.036 -0.4037 -0.6533  0.3507
  378MOL0     C49774   8.921   1.361   2.075  1.3442  0.3449  0.9575
  378MOL0     C49775   8.982   1.481   2.143 -0.1258 -0.4638 -0.3072
  378MOL0     C49776   9.124   1.451   2.190 -0.4268  0.2481  0.5321
  378MOL0     C49777   9.228   1.570   2.191 -0.2966 -0.5407  0.6067
  378MOL0     C49778   9.284   1.591   2.047 -0.2681 -0.6371 -0.0029
  378MOL0     C49779   9.381   1.711   2.034 -1.2206  0.0245  0.1313
  378MOL0     C49780   9.514   1.666   2.093  0.1627  0.4091  0.1285
  378MOL0     N49781   9.627   1.757   2.082 -0.6465  0.7947  0.9678
  378MOL0     C49782   9.618   1.879   2.026 -0.2889 -0.2988 -0.0917
  378MOL0     C49783   9.741   1.933   2.070  0.5271  0.3705  0.0963
  378MOL0     C49784   9.803   2.060   2.043 -0.2627 -0.6485  0.1419
  378MOL0     C49785   9.761   2.134   1.918  0.2679  0.5247 -0.4384
  378MOL0     C49786   9.782   2.059   1.793 -0.2416  0.2932  1.4779
  378MOL0     C49787   9.919   2.000   1.758  0.0241 -0.1057 -0.1592
  378MOL0     O49788  10.025   2.097   1.768 -0.1931  0.0220 -0.7390
  378MOL0     C49789  10.155   2.059   1.756  1.0370 -0.3728 -0.4500
  378MOL0     C49790  10.253   2.147   1.798 -0.5564  0.5751 -0.7164
  378MOL0     C49791  10.387   2.104   1.818 -0.0247  0.8900  0.0977
  378MOL0     C49792  10.423   1.976   1.776 -0.1578  0.2176 -0.1682
  378MOL0     C49793  10.566   1.929   1.774  0.2957 -0.1798 -0.1021
  378MOL0     O49794  10.587   1.842   1.672 -1.0032 -0.5615 -0.0037
  378MOL0     C49795  10.712   1.806   1.646 -0.2645  0.0357 -0.5693
  378MOL0     C49796  10.796   1.745   1.736  0.7254 -0.5619  0.6295
  378MOL0     C49797  10.922   1.706   1.705  0.0758  0.1741  0.8797
  378MOL0     C49798  10.973   1.747   1.581  0.3558 -1.4284  0.4428
  378MOL0     O49799  11.105   1.730   1.546  0.4785 -0.2625  0.3414
  378MOL0     C49800  11.163   1.863   1.528 -0.2903  1.3106 -0.2329
  378MOL0     C49801  11.314   1.869   1.585  0.4517  0.0644 -0.2692
  378MOL0     C49802  11.369   2.009   1.592  0.2633  0.1697  1.3539
  378MOL0     C49803  11.512   2.016   1.626  0.1624 -0.2638  0.8892
  378MOL0     C49804  11.571   2.161   1.619  0.4264  0.1180 -0.7298
  378MOL0     C49805  11.683   2.172   1.724  0.7135  0.4807  0.0489
  378MOL0     C49806  11.736   2.323   1.720  0.7312 -0.7025  0.4381
  378MOL0     C49807  11.847   2.347   1.608  1.1514 -0.0639 -1.0945
  378MOL0    Cl49808  11.986   2.232   1.655 -0.3282  0.2425  0.2130
  378MOL0     C49809  10.893   1.819   1.493  0.3071 -0.1220  0.0620
  378MOL0     C49810  10.760   1.837   1.522 -0.3832 -0.5064  0.7807
  378MOL0     O49811  10.641   1.977   1.862 -0.6634 -0.3443 -0.9306
  378MOL0     C49812  10.325   1.897   1.711 -0.0585 -0.2397 -0.3151
  378MOL0     C49813  10.192   1.935   1.709 -0.6385  0.9495  0.9843
  378MOL0     N49814   9.808   1.834   2.143  0.3066  0.2479  0.7073
  378MOL0     N49815   9.741   1.722   2.152 -0.5923  0.2048  1.0493
  378MOL0     C49816   8.487   1.333   2.011 -0.2937 -0.5582  0.3126
  378MOL0     C49817   8.359   1.294   1.982  0.6410 -0.4771  0.5277
  378MOL0     C49818   7.990   1.034   1.918 -0.0418 -0.0073 -0.8715
  378MOL0     C49819   7.899   1.123   1.959  0.1580  0.4131  0.5284
  378MOL0     C49820   7.763   1.103   1.917  0.5838  0.6685 -0.0922
  378MOL0     C49821   7.716   0.992   1.851 -0.6499  0.4281 -0.1369
  378MOL0     O49822   7.592   0.977   1.800  0.4003 -0.4137 -1.0194
  378MOL0     C49823   7.508   0.881   1.861  0.2369  0.0459 -0.7577
  378MOL0     C49824   7.365   0.914   1.827 -0.1252  0.5100 -0.2478
  378MOL0     C49825   7.334   0.886   1.681 -0.7879  0.4988  0.5263
  378MOL0     C49826   7.185   0.896   1.641 -0.7174 -0.4230 -0.0600
  378MOL0     C49827   7.082   0.819   1.712 -0.5869 -0.5386  0.4251
  378MOL0     C49828   7.012   0.735   1.757  0.1079 -0.2589 -0.1839
  378MOL0     C49829   7.815   0.898   1.829 -0.0500 -0.4488  0.7934
  378MOL0     C49830   7.953   0.915   1.852 -0.5419 -0.0764  0.5769
  378MOL0     H49831   8.318   1.050   2.196 -1.6858  1.4330  0.1496
  378MOL0     H49832   8.569   1.111   2.249  2.1890  1.1065 -1.0167
  378MOL0     H49833   8.744   1.484   2.032 -2.1421 -1.0367 -1.2075
  378MOL0     H49834   8.741   1.328   1.942 -0.4655  0.2223 -0.1035
  378MOL0     H49835   8.980   1.318   1.994 -0.1097 -0.5653  0.3627
  378MOL0     H49836   8.919   1.284   2.152 -5.3199 -0.9308  0.0729
  378MOL0     H49837   8.913   1.519   2.218 -1.2661 -0.5175 -1.2883
  378MOL0     H49838   8.989   1.563   2.070 -1.0962  0.4338  0.5835
  378MOL0     H49839   9.118   1.425   2.296 -0.4865  3.0863  1.3221
  378MOL0     H49840   9.173   1.371   2.135  3.1811  1.1285  2.1582
  378MOL0     H49841   9.313   1.552   2.258  0.1143  1.8116  0.7825
  378MOL0     H49842   9.172   1.652   2.236 -0.8854 -0.2586 -0.6053
  378MOL0     H49843   9.207   1.615   1.973  1.0991  1.2166 -0.9005
  378MOL0     H49844   9.339   1.500   2.022  0.7007  0.2825 -1.4045
  378MOL0     H49845   9.411   1.729   1.930  2.5133 -2.1328  0.6634
  378MOL0     H49846   9.350   1.799   2.091 -0.4857 -2.1213  4.2634
  378MOL0     H49847   9.547   1.572   2.048  1.7936  1.2099 -0.4110
  378MOL0     H49848   9.505   1.655   2.202  1.0315 -0.5345  0.1203
  378MOL0     H49849   9.540   1.932   1.973  0.2015  0.7832  0.2276
  378MOL0     H49850   9.912   2.049   2.040  0.0600  0.5452  3.3720
  378MOL0     H49851   9.779   2.124   2.129 -0.8838  1.0030 -1.2187
  378MOL0     H49852   9.819   2.226   1.909  0.5962  0.9191  3.6539
  378MOL0     H49853   9.657   2.168   1.925  0.0323  0.2080 -2.1258
  378MOL0     H49854   9.697   1.990   1.793  0.3468 -0.4468  0.6083
  378MOL0     H49855   9.760   2.128   1.712 -1.5833  1.2030  2.5759
  378MOL0     H49856   9.910   1.949   1.662 -0.2591 -0.7233  0.1941
  378MOL0     H49857   9.934   1.924   1.835 -1.9706 -0.6069 -0.2233
  378MOL0     H49858  10.216   2.237   1.847 -2.4613  1.4676 -3.5308
  378MOL0     H49859  10.465   2.167   1.860  0.2366  1.2886 -0.9522
  378MOL0     H49860  10.768   1.736   1.840 -1.1016 -0.8974  0.1560
  378MOL0     H49861  10.984   1.673   1.788 -0.1681  0.6269  1.2498
  378MOL0     H49862  11.112   1.938   1.589 -2.6590  1.2557 -2.0078
  378MOL0     H49863  11.154   1.888   1.422  0.8486  0.8619 -0.4506
  378MOL0     H49864  11.365   1.798   1.518  1.6435  0.2636  0.3876
  378MOL0     H49865  11.314   1.826   1.685 -1.4533  1.4402  0.3678
  378MOL0     H49866  11.309   2.066   1.664 -0.5151 -1.1836  1.8158
  378MOL0     H49867  11.353   2.050   1.492  4.1668 -1.7985 -0.2745
  378MOL0     H49868  11.537   1.972   1.723 -2.2434 -1.3666  1.0879
  378MOL0     H49869  11.556   1.955   1.547  0.5264  1.0405  0.0447
  378MOL0     H49870  11.497   2.229   1.662  0.0087 -1.2132  0.7406
  378MOL0     H49871  11.605   2.176   1.516  3.5850  1.1550  0.3213
  378MOL0     H49872  11.755   2.099   1.686  0.7506  0.3122  0.4427
  378MOL0     H49873  11.639   2.144   1.820 -1.2376  1.1291 -0.5915
  378MOL0     H49874  11.650   2.389   1.704  0.8028 -0.1432  2.1479
  378MOL0     H49875  11.775   2.360   1.815  1.5008 -0.5857  0.0814
  378MOL0     H49876  11.888   2.448   1.605  1.9592 -0.1434  2.4700
  378MOL0     H49877  11.792   2.320   1.517 -2.1479 -1.0619  1.0359
  378MOL0     H49878  10.947   1.856   1.407  2.5194  0.2769  1.5369
  378MOL0     H49879  10.696   1.883   1.447  1.3990 -0.3757 -0.7267
  378MOL0     H49880  10.354   1.805   1.661 -1.5864 -1.0078  0.1669
  378MOL0     H49881  10.125   1.868   1.656  0.8430  0.1429  0.0653
  378MOL0     H49882   8.501   1.431   1.967 -3.1659 -0.8854 -1.6403
  378MOL0     H49883   8.303   1.344   1.904 -1.3230 -0.3530  1.9683
  378MOL0     H49884   7.930   1.206   2.022  0.6640 -1.0894  2.3682
  378MOL0     H49885   7.699   1.173   1.970  2.1801  1.1494  1.3197
  378MOL0     H49886   7.514   0.885   1.970  2.6948 -2.2374 -0.6989
  378MOL0     H49887   7.529   0.775   1.839 -2.2098 -0.9692  1.2877
  378MOL0     H49888   7.291   0.865   1.891 -2.0850  1.5077 -1.6435
  378MOL0     H49889   7.348   1.020   1.846 -0.7914 -0.0102  2.5150
  378MOL0     H49890   7.375   0.786   1.664 -0.6377  0.9742 -2.3618
  378MOL0     H49891   7.388   0.954   1.615 -1.5856  2.4461  1.7998
  378MOL0     H49892   7.159   1.002   1.648 -2.7783 -0.7223 -2.0400
  378MOL0     H49893   7.177   0.883   1.532  2.1745  2.1896 -0.7512
  378MOL0     H49894   6.940   0.664   1.794  1.8662 -1.0395  1.9316
  378MOL0     H49895   7.796   0.817   1.759  0.5513  0.6541 -0.7050
  378MOL0     H49896   8.023   0.840   1.818 -0.8550 -0.6085  1.0868
  379MOL0     O49897   4.507   9.143   2.296  0.1726  0.5564  0.3569
  379MOL0     C49898   4.486   9.031   2.345 -0.1938  1.1044 -0.1207
  379MOL0     O49899   4.579   8.943   2.399 -0.2635  0.2104  0.3943
  379MOL0     C49900   4.714   8.956   2.385  0.9362  0.0846  0.1770
  379MOL0     C49901   4.781   9.048   2.305  0.3040  0.1338  0.8683
  379MOL0     C49902   4.915   9.059   2.301 -0.2573 -0.5033  0.9110
  379MOL0     C49903   4.989   8.980   2.381 -0.8435 -0.4988  0.0171
  379MOL0     O49904   5.126   8.993   2.370  0.4265 -0.0705  0.2067
  379MOL0     C49905   5.206   8.873   2.343 -0.6403  0.0938 -0.0366
  379MOL0     C49906   5.352   8.871   2.396  0.8178  0.0802  0.8276
  379MOL0     C49907   5.418   9.003   2.382 -1.5894 -0.4625  1.2005
  379MOL0     C49908   5.564   8.964   2.417  0.5406  0.7356  0.0373
  379MOL0     C49909   5.627   9.084   2.480  0.4941 -0.2806 -0.0596
  379MOL0     C49910   5.770   9.054   2.519 -0.0857  0.2262  0.5476
  379MOL0     C49911   5.801   8.925   2.595 -0.6922  0.7201 -0.5966
  379MOL0     C49912   5.941   8.902   2.645  0.2303 -0.2957  0.4330
  379MOL0     N49913   5.979   8.758   2.657 -0.4327 -1.2995 -0.4159
  379MOL0     C49914   5.996   8.691   2.772  0.4683  0.5122 -0.1827
  379MOL0     C49915   6.010   8.558   2.732 -0.4452 -0.3282  0.1415
  379MOL0     C49916   6.051   8.446   2.813 -0.6945  0.4616  0.1560
  379MOL0     C49917   6.208   8.443   2.843 -0.3711 -0.7721  0.3669
  379MOL0     C49918   6.279   8.367   2.728 -0.2865  0.5861 -0.1945
  379MOL0     C49919   6.436   8.374   2.716 -0.2525  0.0237  0.5817
  379MOL0     O49920   6.506   8.335   2.831  0.4022 -0.0182 -0.6273
  379MOL0     C49921   6.624   8.398   2.858  0.2069 -0.1326  0.6129
  379MOL0     C49922   6.724   8.382   2.767 -0.3367 -0.4005 -0.3123
  379MOL0     C49923   6.853   8.414   2.794  0.3045  0.9157 -0.1718
  379MOL0     C49924   6.884   8.476   2.918  0.6793  0.2667  0.3181
  379MOL0     C49925   7.025   8.520   2.941  0.8815  0.4325 -0.7454
  379MOL0     O49926   7.063   8.542   3.067  0.8220  0.2874  0.2889
  379MOL0     C49927   7.188   8.580   3.089 -0.1957  0.5128 -0.7450
  379MOL0     C49928   7.215   8.639   3.220 -0.1873  0.8189  0.2355
  379MOL0     C49929   7.341   8.682   3.254 -0.7099 -0.2444  0.7200
  379MOL0     C49930   7.451   8.643   3.181  0.5531  0.3386  0.6387
  379MOL0     O49931   7.570   8.681   3.229 -0.0205  0.4853 -0.9868
  379MOL0     C49932   7.679   8.589   3.220  1.3780  0.5106 -0.2977
  379MOL0     C49933   7.775   8.622   3.330  0.5764 -0.4217 -0.6147
  379MOL0     C49934   7.859   8.731   3.269 -0.1195 -1.0508 -0.3020
  379MOL0     C49935   7.984   8.754   3.359 -1.1442 -1.3361 -0.2474
  379MOL0     C49936   8.071   8.868   3.296  0.9957  0.3166  0.3502
  379MOL0     C49937   8.217   8.872   3.341 -0.0589  0.2559 -0.2771
  379MOL0     C49938   8.321   8.789   3.256  0.0337 -0.2894 -0.3200
  379MOL0     C49939   8.418   8.697   3.338  1.0155 -0.9133  0.8488
  379MOL0    Cl49940   8.314   8.560   3.389  0.1121 -0.4328 -0.1275
  379MOL0     C49941   7.428   8.557   3.073  0.3541  0.1320  0.3469
  379MOL0     C49942   7.305   8.525   3.025  0.2989 -0.3451 -0.7611
  379MOL0     O49943   7.088   8.544   2.835  0.2542 -0.4720 -0.1382
  379MOL0     C49944   6.774   8.507   3.002  0.4573  0.7549  0.5578
  379MOL0     C49945   6.653   8.458   2.979  0.6001 -0.1501  0.6381
  379MOL0     N49946   6.004   8.555   2.591 -0.3861  0.0333  0.4618
  379MOL0     N49947   5.993   8.681   2.552  0.7598  0.0426  0.2990
  379MOL0     C49948   4.932   8.893   2.473 -0.0157  0.0642 -0.2524
  379MOL0     C49949   4.794   8.879   2.474  0.2637 -0.2401 -0.9644
  379MOL0     C49950   4.351   8.984   2.346  0.1409  0.8122  0.2120
  379MOL0     C49951   4.317   8.871   2.433  0.3555 -0.1396  0.5832
  379MOL0     C49952   4.176   8.833   2.434  0.2997 -0.5150  0.6574
  379MOL0     C49953   4.070   8.913   2.372 -0.4506 -0.9136 -0.2187
  379MOL0     O49954   3.938   8.884   2.356 -0.3835  0.1008  0.2760
  379MOL0     C49955   3.901   8.745   2.389 -0.7184  0.9411  0.4877
  379MOL0     C49956   3.756   8.709   2.353  0.4345 -0.7954  0.5017
  379MOL0     C49957   3.718   8.793   2.229 -0.4789 -0.8792  0.8309
  379MOL0     C49958   3.582   8.766   2.178  0.5987  0.3874 -0.2602
  379MOL0     C49959   3.538   8.861   2.085 -0.1704 -0.5442  0.4455
  379MOL0     C49960   3.489   8.935   2.002 -0.6741 -0.7593 -0.6766
  379MOL0     C49961   4.119   9.018   2.294  0.2011 -0.2515 -1.2686
  379MOL0     C49962   4.250   9.048   2.278 -0.1990  0.4316  0.2865
  379MOL0     H49963   4.713   9.097   2.237 -1.7077 -0.7630  2.1375
  379MOL0     H49964   4.950   9.128   2.226 -0.3712 -0.1593  1.1695
  379MOL0     H49965   5.207   8.874   2.234 -1.4819  1.2121 -0.0586
  379MOL0     H49966   5.150   8.781   2.362 -0.6250  0.0135 -0.3783
  379MOL0     H49967   5.420   8.803   2.344  0.9524  1.7800 -1.3819
  379MOL0     H49968   5.338   8.834   2.497 -0.4592 -0.6242  0.4226
  379MOL0     H49969   5.383   9.075   2.457  1.5102  0.5154  1.8852
  379MOL0     H49970   5.415   9.055   2.286 -0.1017 -1.0778  0.7928
  379MOL0     H49971   5.565   8.876   2.482 -0.2006  0.2324 -0.6078
  379MOL0     H49972   5.633   8.949   2.334  0.7427 -1.7318  0.5823
  379MOL0     H49973   5.565   9.121   2.562 -0.1411  0.7364 -0.9790
  379MOL0     H49974   5.635   9.172   2.416  0.5556 -1.1152 -1.2221
  379MOL0     H49975   5.799   9.135   2.586 -3.1427 -0.8418  3.4881
  379MOL0     H49976   5.839   9.053   2.434  0.9906 -3.5907  1.2672
  379MOL0     H49977   5.734   8.904   2.679  0.1127 -0.5177 -0.2431
  379MOL0     H49978   5.788   8.843   2.524  1.0428  2.0832 -2.5892
  379MOL0     H49979   5.945   8.955   2.741 -4.2289 -2.7714  2.2656
  379MOL0     H49980   6.010   8.954   2.578 -0.4977  1.9968  1.3409
  379MOL0     H49981   5.983   8.735   2.871 -4.0714  1.7692 -1.1026
  379MOL0     H49982   6.012   8.351   2.777 -2.0786 -0.2547  3.2708
  379MOL0     H49983   6.008   8.462   2.912  0.6189  4.0285  0.3297
  379MOL0     H49984   6.223   8.398   2.942  2.4987 -1.7334 -0.4182
  379MOL0     H49985   6.252   8.542   2.839 -2.9849  0.4356 -1.3814
  379MOL0     H49986   6.270   8.258   2.723 -0.3777  0.6350 -1.4787
  379MOL0     H49987   6.243   8.414   2.636  4.0152  1.1424 -1.8443
  379MOL0     H49988   6.454   8.474   2.674 -1.4610 -0.3556 -0.9457
  379MOL0     H49989   6.478   8.314   2.635 -0.5797  0.0830  0.3662
  379MOL0     H49990   6.703   8.350   2.665 -2.3756 -1.2498  0.3225
  379MOL0     H49991   6.924   8.402   2.713  0.2184  0.0968 -0.1363
  379MOL0     H49992   7.133   8.667   3.286 -0.3820  0.5824  0.0940
  379MOL0     H49993   7.344   8.745   3.343  0.5437  1.0990 -0.2248
  379MOL0     H49994   7.737   8.597   3.128  3.1212  0.5668  0.7560
  379MOL0     H49995   7.640   8.488   3.233  1.0916  0.8831  2.2456
  379MOL0     H49996   7.837   8.540   3.368 -0.4601 -1.3465 -0.8616
  379MOL0     H49997   7.734   8.679   3.414  1.9012  1.9434 -1.4753
  379MOL0     H49998   7.803   8.825   3.262 -1.4127 -1.8283 -0.7519
  379MOL0     H49999   7.908   8.697   3.177  1.0556  1.3112 -0.6300
  379MOL0     H50000   7.961   8.777   3.463  0.8822 -0.0639 -0.0293
  379MOL0     H50001   8.034   8.657   3.364 -3.1388 -2.6407 -3.0103
  379MOL0     H50002   8.022   8.964   3.312  1.3530  0.6023 -0.2137
  379MOL0     H50003   8.077   8.847   3.189 -1.6338  0.6647  0.0843
  379MOL0     H50004   8.227   8.846   3.447 -1.0579  4.1816  0.9652
  379MOL0     H50005   8.243   8.978   3.332 -2.1888  0.8653  0.1792
  379MOL0     H50006   8.269   8.723   3.186 -1.4129 -0.5650  0.9602
  379MOL0     H50007   8.379   8.855   3.190 -3.7101  0.0225 -3.7224
  379MOL0     H50008   8.455   8.757   3.422  1.6523  0.7517 -0.5718
  379MOL0     H50009   8.497   8.663   3.269  1.7776 -0.6099  1.5483
  379MOL0     H50010   7.511   8.507   3.024 -1.0724 -0.1568 -1.9326
  379MOL0     H50011   7.301   8.459   2.938  0.2204 -1.9914  0.4495
  379MOL0     H50012   6.795   8.556   3.096  2.0206  2.0919 -0.4219
  379MOL0     H50013   6.570   8.475   3.046 -1.3967 -0.1489 -1.7002
  379MOL0     H50014   4.993   8.849   2.551 -0.3729  0.6127  0.3516
  379MOL0     H50015   4.744   8.815   2.545 -2.0582  2.6625  0.2057
  379MOL0     H50016   4.405   8.820   2.472  2.0592  1.5144 -0.9218
  379MOL0     H50017   4.167   8.740   2.489  1.3714  0.1263  1.9688
  379MOL0     H50018   3.916   8.729   2.496  3.2158 -0.2482 -0.0906
  379MOL0     H50019   3.972   8.679   2.339 -0.1321  1.0849  1.1174
  379MOL0     H50020   3.750   8.603   2.326 -0.0914 -0.2245 -1.7564
  379MOL0     H50021   3.686   8.734   2.433 -2.5740 -1.1137 -1.8593
  379MOL0     H50022   3.800   8.774   2.159  0.6708 -1.0440  2.1833
  379MOL0     H50023   3.724   8.900   2.253 -1.1360 -0.5371 -0.4233
  379MOL0     H50024   3.586   8.665   2.137  1.9585 -0.5376  1.9621
  379MOL0     H50025   3.510   8.771   2.260  0.5335  2.1416 -0.3822
  379MOL0     H50026   3.466   9.001   1.921 -1.9767 -2.3175 -1.6458
  379MOL0     H50027   4.042   9.083   2.254 -1.1776  0.0283  1.6023
  379MOL0     H50028   4.286   9.133   2.221 -1.8618  0.5156 -0.7002
  380MOL0     O50029   9.714   8.933   7.356 -0.2978  0.6688  0.3337
  380MOL0     C50030   9.658   9.036   7.394  0.6710 -0.5993 -0.3774
  380MOL0     O50031   9.524   9.041   7.427  0.1758 -0.2777  0.1141
  380MOL0     C50032   9.439   8.941   7.395  0.0351  0.1133  0.1841
  380MOL0     C50033   9.438   8.851   7.290 -0.3301 -0.3579  0.6200
  380MOL0     C50034   9.348   8.745   7.272 -0.3696 -0.7534  0.2204
  380MOL0     C50035   9.241   8.722   7.364 -0.3911 -0.6572 -0.1486
  380MOL0     O50036   9.141   8.625   7.352 -0.0137  0.7057  0.0289
  380MOL0     C50037   9.160   8.524   7.244 -0.2037  0.2370 -0.2264
  380MOL0     C50038   9.048   8.419   7.246 -0.2888  0.4064 -0.8598
  380MOL0     C50039   8.904   8.472   7.281 -0.3405 -0.6432  0.0140
  380MOL0     C50040   8.796   8.367   7.280  0.3676 -0.5554 -0.1837
  380MOL0     C50041   8.790   8.275   7.410  0.0594 -0.4359  0.3396
  380MOL0     C50042   8.704   8.159   7.382  0.2095  0.5325 -0.8123
  380MOL0     C50043   8.689   8.079   7.511  0.1403  0.3864 -0.2159
  380MOL0     C50044   8.615   8.142   7.627 -0.1442 -0.1216  0.5741
  380MOL0     N50045   8.644   8.078   7.755 -0.0411  0.0991  0.6505
  380MOL0     C50046   8.554   8.067   7.861 -0.1238  0.1372 -0.4944
  380MOL0     C50047   8.611   7.976   7.942  0.3450 -0.8103 -0.6190
  380MOL0     C50048   8.548   7.917   8.073 -0.4197  0.2195 -0.9200
  380MOL0     C50049   8.479   8.032   8.156 -1.3518 -0.7481  0.4231
  380MOL0     C50050   8.375   7.963   8.236  0.7382 -0.4946  0.4287
  380MOL0     C50051   8.317   8.067   8.333 -0.4627  0.5879  0.5066
  380MOL0     O50052   8.229   8.171   8.290 -0.8587  0.4412 -0.8450
  380MOL0     C50053   8.097   8.158   8.311  0.6437  0.3993  1.0501
  380MOL0     C50054   8.029   8.271   8.362  1.2094 -0.4142 -0.7219
  380MOL0     C50055   7.899   8.266   8.401  0.1411 -0.3560  1.3000
  380MOL0     C50056   7.828   8.148   8.378  0.0349  0.1026 -0.2538
  380MOL0     C50057   7.683   8.148   8.409  0.2621 -0.5010 -0.9280
  380MOL0     O50058   7.615   8.035   8.381 -0.6011  0.3404  0.2490
  380MOL0     C50059   7.481   8.018   8.395  1.5802 -0.5763 -0.3320
  380MOL0     C50060   7.394   8.038   8.286 -0.1415 -0.1359  0.2244
  380MOL0     C50061   7.250   8.043   8.285 -0.4981 -0.4888 -0.9580
  380MOL0     C50062   7.187   8.018   8.410  0.5243  0.4876 -0.0917
  380MOL0     O50063   7.051   8.012   8.428 -0.0102 -0.4530 -0.1161
  380MOL0     C50064   6.982   8.074   8.537  0.6498  0.8668 -0.7339
  380MOL0     C50065   6.841   8.129   8.505  0.3744 -0.1368 -0.3297
  380MOL0     C50066   6.846   8.275   8.447  0.3606  0.2733  0.1036
  380MOL0     C50067   6.934   8.282   8.319  0.5385  0.4363  1.0626
  380MOL0     C50068   6.938   8.412   8.234 -0.0535  0.6087 -0.6502
  380MOL0     C50069   7.049   8.418   8.124  0.0269  0.2593  0.0673
  380MOL0     C50070   7.063   8.555   8.072  0.1584  0.3336  0.5591
  380MOL0     C50071   7.190   8.572   7.990 -0.2091  0.7545 -0.0775
  380MOL0    Cl50072   7.161   8.464   7.834  0.1151 -0.1710  0.0696
  380MOL0     C50073   7.269   7.996   8.527 -0.4133  0.0277  0.8002
  380MOL0     C50074   7.407   8.006   8.516 -0.1737 -0.0102 -0.2168
  380MOL0     O50075   7.634   8.252   8.461 -0.4304 -0.7412  0.2755
  380MOL0     C50076   7.884   8.038   8.322  0.5107 -0.0652 -0.1635
  380MOL0     C50077   8.021   8.041   8.285  0.0333 -1.2546  0.5053
  380MOL0     N50078   8.742   7.949   7.892  0.1164 -0.9258 -0.7258
  380MOL0     N50079   8.762   8.025   7.792  0.0725  0.2052  0.3581
  380MOL0     C50080   9.229   8.822   7.469  0.4573 -0.0096 -0.1342
  380MOL0     C50081   9.328   8.925   7.475  0.6888 -1.0139 -1.3356
  380MOL0     C50082   9.729   9.172   7.414  0.3056 -1.1633 -0.0161
  380MOL0     C50083   9.848   9.200   7.353  0.1297 -0.1444  0.1733
  380MOL0     C50084   9.921   9.317   7.387  0.3739  0.3628  0.4822
  380MOL0     C50085   9.868   9.415   7.459  0.3750  0.1547  1.0017
  380MOL0     O50086   9.948   9.526   7.477  0.1930  0.5664 -0.5270
  380MOL0     C50087   9.936   9.592   7.609  0.1810  0.0107  0.6401
  380MOL0     C50088  10.077   9.661   7.623  0.9534 -0.5240 -0.5401
  380MOL0     C50089  10.178   9.564   7.652  0.0253  0.8663 -0.7686
  380MOL0     C50090  10.317   9.616   7.677  0.0957 -0.4099 -1.5065
  380MOL0     C50091  10.324   9.759   7.689 -0.0434 -0.4418 -0.5286
  380MOL0     C50092  10.352   9.876   7.701  0.7157 -0.1177  0.5916
  380MOL0     C50093   9.746   9.393   7.520  0.9245  0.2896 -0.9763
  380MOL0     C50094   9.675   9.270   7.503  0.0556  0.4288  0.3056
  380MOL0     H50095   9.518   8.865   7.217  1.4605  0.0730  2.5814
  380MOL0     H50096   9.352   8.688   7.180 -0.2974  0.2306 -0.4042
  380MOL0     H50097   9.256   8.472   7.254 -0.1220 -0.4031 -3.3620
  380MOL0     H50098   9.163   8.571   7.145  1.8004 -3.0511 -1.9209
  380MOL0     H50099   9.078   8.345   7.320 -3.8742  0.0882  0.4568
  380MOL0     H50100   9.048   8.363   7.152 -1.3013 -2.8644  0.9470
  380MOL0     H50101   8.890   8.543   7.199  3.1407 -0.1961 -0.3665
  380MOL0     H50102   8.900   8.524   7.377 -0.2066  0.9180 -0.8042
  380MOL0     H50103   8.703   8.425   7.276  0.9706  0.4346 -0.1442
  380MOL0     H50104   8.799   8.307   7.189 -0.3706  1.4229 -1.5848
  380MOL0     H50105   8.743   8.340   7.484  0.3243  3.5144 -2.6123
  380MOL0     H50106   8.889   8.236   7.437  0.7071 -0.0486 -1.2939
  380MOL0     H50107   8.746   8.085   7.313 -0.5152 -0.1101 -0.5780
  380MOL0     H50108   8.611   8.192   7.336 -1.2061  0.7572  1.9781
  380MOL0     H50109   8.634   7.987   7.491 -3.7123  2.2371  1.0106
  380MOL0     H50110   8.792   8.055   7.538 -0.5055 -0.2872  1.7477
  380MOL0     H50111   8.508   8.127   7.608  0.3756 -3.1309 -0.6104
  380MOL0     H50112   8.642   8.248   7.631 -2.9859  0.8617 -2.0660
  380MOL0     H50113   8.450   8.097   7.853  0.1442  0.8863 -1.2960
  380MOL0     H50114   8.627   7.872   8.134 -0.1502  1.6136 -0.2049
  380MOL0     H50115   8.474   7.839   8.050  0.9594 -0.3912 -3.8230
  380MOL0     H50116   8.446   8.118   8.097  0.3505  1.4783  2.4974
  380MOL0     H50117   8.559   8.078   8.215  0.9589 -1.3247 -2.0520
  380MOL0     H50118   8.300   7.916   8.171  1.0925  0.1804 -0.5043
  380MOL0     H50119   8.407   7.884   8.303 -2.9535 -0.6564  2.2783
  380MOL0     H50120   8.398   8.119   8.386 -1.3480  0.4052  2.1307
  380MOL0     H50121   8.264   8.001   8.403  1.9491 -1.7032  0.3473
  380MOL0     H50122   8.072   8.370   8.370  0.1011 -0.0153  0.9151
  380MOL0     H50123   7.848   8.345   8.455 -0.4694 -0.2219  0.5261
  380MOL0     H50124   7.438   8.055   8.188 -1.3649  0.7813 -0.1872
  380MOL0     H50125   7.198   8.054   8.190 -0.2595  1.0053 -0.9337
  380MOL0     H50126   7.052   8.147   8.579 -0.1769  0.0299  2.4383
  380MOL0     H50127   6.976   8.005   8.622 -1.6528 -0.6085 -1.9969
  380MOL0     H50128   6.790   8.128   8.602 -0.3911 -0.7461 -0.7270
  380MOL0     H50129   6.788   8.059   8.440 -2.1799 -0.2887  1.7559
  380MOL0     H50130   6.874   8.352   8.520 -0.0027  1.2315 -0.7418
  380MOL0     H50131   6.745   8.301   8.413  0.1648 -0.1264  0.3720
  380MOL0     H50132   7.040   8.258   8.334  1.0530  1.8603 -0.0430
  380MOL0     H50133   6.904   8.202   8.250  1.2735 -1.4341  2.7866
  380MOL0     H50134   6.973   8.488   8.306 -2.4019  0.8930  0.2840
  380MOL0     H50135   6.837   8.431   8.197  0.5658  1.7432 -1.8183
  380MOL0     H50136   7.021   8.344   8.047 -2.1143 -2.0219  2.8180
  380MOL0     H50137   7.141   8.374   8.163 -1.5339 -0.6301  3.0093
  380MOL0     H50138   6.973   8.588   8.019  1.1993  0.8745 -0.9177
  380MOL0     H50139   7.055   8.618   8.161 -1.5949  0.5723  0.2628
  380MOL0     H50140   7.278   8.534   8.042 -1.2677 -0.6861  0.7240
  380MOL0     H50141   7.215   8.678   7.974 -2.4276  1.8503  2.8347
  380MOL0     H50142   7.222   7.988   8.624  3.6920 -1.0119  2.9383
  380MOL0     H50143   7.465   8.028   8.605  2.3661  0.4964 -1.8927
  380MOL0     H50144   7.827   7.948   8.300  0.7753 -0.4552  0.6893
  380MOL0     H50145   8.070   7.961   8.231  1.3620 -1.0652  1.3602
  380MOL0     H50146   9.146   8.815   7.538  0.8468  3.0884  0.8030
  380MOL0     H50147   9.314   9.000   7.551  3.2183  2.3149 -3.8730
  380MOL0     H50148   9.893   9.118   7.298 -0.1832 -0.6477  0.6640
  380MOL0     H50149  10.023   9.333   7.352 -0.4427  1.2490 -1.6030
  380MOL0     H50150   9.922   9.518   7.689  4.6826 -0.7799  0.9965
  380MOL0     H50151   9.860   9.671   7.607  2.5904  2.4562 -1.1030
  380MOL0     H50152  10.091   9.722   7.533  0.3334  0.6092  0.1064
  380MOL0     H50153  10.065   9.726   7.709  0.2029 -3.3477  1.6372
  380MOL0     H50154  10.190   9.492   7.570  2.3450  0.5150 -0.1893
  380MOL0     H50155  10.147   9.517   7.745  0.2778  1.1678 -0.5266
  380MOL0     H50156  10.358   9.573   7.769 -0.0375  5.1957  1.6485
  380MOL0     H50157  10.388   9.585   7.600  3.6678  3.7932 -0.3470
  380MOL0     H50158  10.367   9.981   7.714  0.7929 -0.2669  1.8569
  380MOL0     H50159   9.707   9.467   7.588  0.4850 -1.4694  0.8043
  380MOL0     H50160   9.585   9.259   7.562 -0.0791  0.7033  0.1564
  381MOL0     O50161   4.183   9.337  10.209  0.5173 -0.5043 -0.2950
  381MOL0     C50162   4.209   9.383  10.099  0.6776 -0.7932 -0.2170
  381MOL0     O50163   4.123   9.426  10.004 -0.4522  0.7347 -0.4868
  381MOL0     C50164   3.988   9.425  10.007  0.1572  0.2578  0.2383
  381MOL0     C50165   3.903   9.405  10.112  0.5220 -0.1406 -0.3680
  381MOL0     C50166   3.769   9.388  10.098 -0.4498 -0.1404 -0.0888
  381MOL0     C50167   3.710   9.419   9.973  0.0642  0.2833  0.5764
  381MOL0     O50168   3.575   9.412   9.977  0.0251 -0.0195  0.5521
  381MOL0     C50169   3.507   9.451   9.856 -0.6087  0.5028  0.4400
  381MOL0     C50170   3.357   9.440   9.878 -0.2655 -0.1438  0.0706
  381MOL0     C50171   3.273   9.504   9.765  1.5616 -0.1310  0.1732
  381MOL0     C50172   3.132   9.434   9.763 -0.5417  0.5836 -0.3145
  381MOL0     C50173   3.032   9.509   9.678 -0.1939 -0.3005 -0.2071
  381MOL0     C50174   2.920   9.407   9.627 -0.0776 -0.0446 -0.5008
  381MOL0     C50175   2.810   9.463   9.530 -0.2633 -1.2877 -0.5017
  381MOL0     C50176   2.693   9.531   9.602 -0.5157  0.3524  0.4699
  381MOL0     N50177   2.583   9.426   9.605  0.0877 -0.1437 -0.1071
  381MOL0     C50178   2.596   9.312   9.679  0.8144 -0.3764 -0.7435
  381MOL0     C50179   2.480   9.246   9.664  0.6656 -1.3110  0.1180
  381MOL0     C50180   2.446   9.109   9.712 -0.0072  0.2926  0.3932
  381MOL0     C50181   2.318   9.040   9.642  0.7389  0.1441 -0.7685
  381MOL0     C50182   2.319   9.006   9.491 -1.0075  0.1634 -0.2795
  381MOL0     C50183   2.191   8.943   9.446 -0.2551 -0.2617  0.5165
  381MOL0     O50184   2.096   9.053   9.440 -0.2395  0.2198 -0.8110
  381MOL0     C50185   1.966   9.030   9.410  0.6191  0.1043  0.4744
  381MOL0     C50186   1.876   9.121   9.353  0.6736 -0.1904  0.2064
  381MOL0     C50187   1.735   9.099   9.340  0.6881  0.4607 -0.0013
  381MOL0     C50188   1.677   8.981   9.388  0.3718 -0.0525 -0.0375
  381MOL0     C50189   1.529   8.967   9.392  1.4235  0.5667 -0.1299
  381MOL0     O50190   1.444   9.067   9.361  0.0705 -0.2767  0.3581
  381MOL0     C50191   1.310   9.051   9.358  0.1399 -0.0023  0.4477
  381MOL0     C50192   1.240   8.990   9.464  0.3214 -0.3080 -0.3536
  381MOL0     C50193   1.100   8.970   9.452 -0.0132  0.0873  1.0427
  381MOL0     C50194   1.036   9.002   9.334  0.9355 -0.3700  0.7707
  381MOL0     O50195   0.897   8.983   9.320 -0.0344 -1.1739  0.3590
  381MOL0     C50196   0.803   8.975   9.433  1.2750  1.2166 -0.3377
  381MOL0     C50197   0.797   9.107   9.525 -1.0580  0.3547  0.9002
  381MOL0     C50198   0.665   9.115   9.603  0.7928  0.1025 -0.4479
  381MOL0     C50199   0.674   9.215   9.719  0.3656 -0.4024  0.0319
  381MOL0     C50200   0.550   9.232   9.809  0.5759 -0.9798 -0.2418
  381MOL0     C50201   0.503   9.108   9.879  0.1386  0.5093  0.4392
  381MOL0     C50202   0.617   9.055   9.956 -0.4694 -0.2281 -0.1481
  381MOL0     C50203   0.580   8.935  10.040 -0.3319 -0.2325 -0.1499
  381MOL0    Cl50204   0.533   8.802   9.934 -0.0538 -0.5041  0.4752
  381MOL0     C50205   1.110   9.050   9.218  0.2314  0.9446 -0.2725
  381MOL0     C50206   1.250   9.072   9.232 -0.0163  0.1108 -0.1649
  381MOL0     O50207   1.491   8.861   9.439  0.8733  0.5278  0.0861
  381MOL0     C50208   1.769   8.879   9.435  0.3952 -0.5424  0.1321
  381MOL0     C50209   1.908   8.903   9.438  0.9693 -0.6303  0.5746
  381MOL0     N50210   2.394   9.332   9.590  0.3886  0.1335 -0.6966
  381MOL0     N50211   2.459   9.440   9.560  0.1953 -1.1386  0.2572
  381MOL0     C50212   3.795   9.457   9.859  1.1189 -0.5482 -0.6427
  381MOL0     C50213   3.928   9.465   9.883 -1.5568  0.0647 -0.2703
  381MOL0     C50214   4.358   9.384  10.072 -0.1322  1.1004 -0.0411
  381MOL0     C50215   4.406   9.343   9.948 -0.2606 -0.8748  0.4711
  381MOL0     C50216   4.539   9.343   9.912 -0.6738  0.6173 -0.0754
  381MOL0     C50217   4.633   9.378  10.007  0.3955  1.0422 -0.9230
  381MOL0     O50218   4.764   9.368   9.990  0.1071 -1.0758 -0.7518
  381MOL0     C50219   4.831   9.314   9.873  0.0682 -0.8003 -0.3595
  381MOL0     C50220   4.976   9.342   9.897 -0.7883  0.0192 -0.5280
  381MOL0     C50221   5.066   9.255   9.802  0.2057 -0.0130 -0.6948
  381MOL0     C50222   5.212   9.303   9.813 -0.3684 -0.0373 -0.6966
  381MOL0     C50223   5.299   9.217   9.742 -0.2098  0.0904 -0.2013
  381MOL0     C50224   5.368   9.139   9.677 -0.4211  0.3385  0.1821
  381MOL0     C50225   4.587   9.407  10.138  0.4175 -0.7998 -0.1093
  381MOL0     C50226   4.451   9.407  10.175  0.0965 -0.1479  0.2467
  381MOL0     H50227   3.939   9.361  10.205  3.7474  3.1182  0.1820
  381MOL0     H50228   3.701   9.351  10.174 -0.0990 -0.7214 -0.0575
  381MOL0     H50229   3.530   9.394   9.766  2.7707  4.1332 -1.2977
  381MOL0     H50230   3.538   9.554   9.838  0.8697  0.4731  2.5044
  381MOL0     H50231   3.341   9.485   9.976  1.3923  0.5858  0.0309
  381MOL0     H50232   3.343   9.332   9.871  0.7547 -0.4456  1.9686
  381MOL0     H50233   3.317   9.487   9.667 -1.2364 -1.5028 -0.9757
  381MOL0     H50234   3.263   9.613   9.773 -3.6646 -0.3906  0.6020
  381MOL0     H50235   3.137   9.332   9.725  1.1495  0.3766  0.3875
  381MOL0     H50236   3.110   9.425   9.870  3.0707  0.0333  0.5050
  381MOL0     H50237   3.079   9.563   9.595 -0.0624  1.4003  0.9240
  381MOL0     H50238   2.997   9.586   9.748 -0.0329 -0.3946 -0.0236
  381MOL0     H50239   2.882   9.344   9.707  1.8101  0.2791  0.7138
  381MOL0     H50240   2.970   9.342   9.554 -0.9615 -0.1516 -1.0161
  381MOL0     H50241   2.848   9.535   9.457 -1.9696  1.9619  1.5735
  381MOL0     H50242   2.768   9.378   9.475 -0.9734 -0.1338 -1.8399
  381MOL0     H50243   2.673   9.628   9.555  1.8616  2.7281  3.9100
  381MOL0     H50244   2.733   9.562   9.699 -0.9006 -0.2892  0.8392
  381MOL0     H50245   2.673   9.290   9.752 -1.5439  0.2155  2.1473
  381MOL0     H50246   2.419   9.114   9.818  2.8888 -3.2056  1.4776
  381MOL0     H50247   2.536   9.048   9.706  0.9513  1.6375  0.7026
  381MOL0     H50248   2.235   9.107   9.665  1.2238  0.6853 -0.5791
  381MOL0     H50249   2.282   8.950   9.694 -2.9412  2.0117  0.2742
  381MOL0     H50250   2.321   9.099   9.434 -2.3987  1.0600  1.0522
  381MOL0     H50251   2.400   8.933   9.478 -0.8231 -1.1072  5.5279
  381MOL0     H50252   2.154   8.864   9.512 -1.8503 -1.1209 -1.3309
  381MOL0     H50253   2.200   8.894   9.349 -0.0456  0.9257 -0.0822
  381MOL0     H50254   1.908   9.219   9.318  1.4308 -0.6244 -0.3187
  381MOL0     H50255   1.675   9.177   9.295 -1.3968 -2.6889 -3.1556
  381MOL0     H50256   1.301   8.972   9.551  2.0555 -1.0254 -1.6573
  381MOL0     H50257   1.046   8.937   9.541 -2.4118 -2.5815 -1.2084
  381MOL0     H50258   0.825   8.883   9.487 -1.6551  0.5501 -0.0737
  381MOL0     H50259   0.704   8.954   9.390  0.9468  1.8049  0.1042
  381MOL0     H50260   0.825   9.195   9.466 -2.6637 -0.1201 -0.6570
  381MOL0     H50261   0.874   9.075   9.595  2.0476  0.2609 -2.2906
  381MOL0     H50262   0.639   9.017   9.644  0.3712  1.1518  1.9402
  381MOL0     H50263   0.585   9.143   9.533 -1.3188  0.4939  1.9585
  381MOL0     H50264   0.750   9.175   9.788 -0.4239  0.3878  1.4187
  381MOL0     H50265   0.713   9.314   9.695 -0.2584 -0.6844 -2.3577
  381MOL0     H50266   0.464   9.272   9.754  1.4834 -1.2267 -1.9101
  381MOL0     H50267   0.575   9.303   9.888 -2.4404 -1.2197  1.0782
  381MOL0     H50268   0.468   9.035   9.805  3.2094  0.4742 -1.1401
  381MOL0     H50269   0.418   9.126   9.945 -0.3420 -0.6712  0.1814
  381MOL0     H50270   0.698   9.024   9.890  3.7786  4.8225  2.0189
  381MOL0     H50271   0.663   9.125  10.026 -0.8987  1.4299 -1.4563
  381MOL0     H50272   0.501   8.960  10.111  0.3378 -2.6212  1.5541
  381MOL0     H50273   0.662   8.916  10.110 -0.8481  0.0423  0.5372
  381MOL0     H50274   1.056   9.049   9.124  0.1047 -6.1355 -0.6616
  381MOL0     H50275   1.298   9.127   9.152  0.9216 -1.7416 -0.9380
  381MOL0     H50276   1.729   8.780   9.455 -0.4610 -0.3503 -0.5905
  381MOL0     H50277   1.962   8.814   9.470  3.1836  0.0258 -1.0914
  381MOL0     H50278   3.750   9.489   9.765  1.6043  1.3435 -0.2757
  381MOL0     H50279   3.997   9.495   9.805 -0.5190 -1.6490 -0.0523
  381MOL0     H50280   4.340   9.325   9.863 -1.0176  0.3506  0.7789
  381MOL0     H50281   4.560   9.312   9.810 -0.2812  1.8249 -0.3730
  381MOL0     H50282   4.797   9.365   9.782 -3.7538  0.6700  1.6602
  381MOL0     H50283   4.811   9.207   9.864  0.6861 -0.8520 -1.2058
  381MOL0     H50284   4.991   9.448   9.876 -2.3879  0.3724 -0.0171
  381MOL0     H50285   4.997   9.323  10.003 -0.3184 -1.0778 -0.7985
  381MOL0     H50286   5.032   9.285   9.703  0.6760 -0.5377 -1.0226
  381MOL0     H50287   5.046   9.152   9.832  3.2518 -0.0487  1.7989
  381MOL0     H50288   5.227   9.403   9.771  0.5051  0.9600  1.7793
  381MOL0     H50289   5.247   9.325   9.914  4.2480  0.2450 -2.1426
  381MOL0     H50290   5.425   9.059   9.632 -1.5629 -0.8522  0.7727
  381MOL0     H50291   4.658   9.421  10.219 -0.2104  2.6469 -0.0169
  381MOL0     H50292   4.409   9.434  10.271  0.3210  1.5611 -0.0937
  382MOL0     O50293   8.572   9.293   1.183  0.2582 -0.0568 -1.1017
  382MOL0     C50294   8.480   9.213   1.187  0.8354  0.8680  0.7412
  382MOL0     O50295   8.448   9.120   1.286 -0.6284  0.3404  0.0215
  382MOL0     C50296   8.543   9.113   1.388  0.1508 -0.3058  0.2778
  382MOL0     C50297   8.551   9.210   1.489  0.4900  0.2916  0.5366
  382MOL0     C50298   8.645   9.198   1.589  0.1122  0.0019  0.3246
  382MOL0     C50299   8.729   9.083   1.591 -0.6521 -0.2773 -0.5104
  382MOL0     O50300   8.818   9.068   1.697 -0.5466 -0.0797 -0.6836
  382MOL0     C50301   8.882   8.940   1.715 -0.7039  0.6073  0.7257
  382MOL0     C50302   8.975   8.925   1.839  0.4156  0.3015 -0.4348
  382MOL0     C50303   9.080   9.034   1.837  1.0580  0.9810  0.1750
  382MOL0     C50304   9.152   9.053   1.974  1.0340 -0.5874  0.3024
  382MOL0     C50305   9.225   8.933   2.034 -0.0452 -0.3159  0.2827
  382MOL0     C50306   9.330   8.856   1.969 -1.8729  0.6814 -0.3450
  382MOL0     C50307   9.417   8.779   2.080 -0.4256 -0.0888  0.0157
  382MOL0     C50308   9.554   8.732   2.015 -0.1392 -0.7440 -0.0483
  382MOL0     N50309   9.538   8.673   1.884  0.1854  0.1500 -0.4791
  382MOL0     C50310   9.468   8.558   1.847 -0.6293  0.3797  0.2693
  382MOL0     C50311   9.497   8.539   1.721  0.4504  0.3386  0.3558
  382MOL0     C50312   9.445   8.434   1.626 -0.1109 -0.5967  0.1795
  382MOL0     C50313   9.476   8.454   1.479 -0.3708 -0.5921  0.5606
  382MOL0     C50314   9.372   8.372   1.396 -0.9566 -0.9259 -0.0630
  382MOL0     C50315   9.415   8.374   1.243 -0.5484 -0.1744 -0.6660
  382MOL0     O50316   9.363   8.483   1.167  0.6362 -0.2183 -0.1997
  382MOL0     C50317   9.236   8.481   1.113  0.4842 -0.2875  0.0471
  382MOL0     C50318   9.130   8.400   1.155 -0.0090  0.1216  0.2843
  382MOL0     C50319   9.010   8.416   1.091  0.0121 -0.1630  0.6068
  382MOL0     C50320   8.986   8.501   0.980 -0.2808 -0.1831 -0.1989
  382MOL0     C50321   8.852   8.506   0.928  0.4721 -0.2219  0.1187
  382MOL0     O50322   8.748   8.439   0.989  0.3706 -0.4991 -0.6016
  382MOL0     C50323   8.622   8.426   0.935  0.0349 -0.2233  0.7095
  382MOL0     C50324   8.589   8.310   0.862 -0.4900 -0.3709  0.7220
  382MOL0     C50325   8.460   8.279   0.820  0.2436 -0.4416 -0.6810
  382MOL0     C50326   8.357   8.374   0.859 -0.2330 -0.1322 -0.0289
  382MOL0     O50327   8.228   8.368   0.846  0.6110 -0.4691 -0.9386
  382MOL0     C50328   8.178   8.380   0.715 -0.7793  0.0750  0.1529
  382MOL0     C50329   8.189   8.263   0.619 -0.3755  0.2936 -0.1043
  382MOL0     C50330   8.168   8.289   0.466  0.0529 -0.3315 -0.7640
  382MOL0     C50331   8.066   8.387   0.407 -0.1679  0.4580 -0.2959
  382MOL0     C50332   8.090   8.416   0.262 -0.4233  0.4910  0.7097
  382MOL0     C50333   7.993   8.523   0.201 -1.2573  0.2191  0.1027
  382MOL0     C50334   8.050   8.608   0.091  0.0516 -0.3399 -0.1276
  382MOL0     C50335   7.933   8.672   0.006  0.2075 -0.3365 -0.1792
  382MOL0    Cl50336   7.861   8.796   0.111 -0.2823  0.1732  0.4889
  382MOL0     C50337   8.396   8.488   0.933 -1.0802 -0.3257  0.1903
  382MOL0     C50338   8.524   8.520   0.968  0.7171  0.0251 -0.3882
  382MOL0     O50339   8.832   8.573   0.830  0.6115  0.0758  1.0265
  382MOL0     C50340   9.093   8.575   0.932 -0.0944  1.1580  1.2618
  382MOL0     C50341   9.216   8.562   0.999  0.6325  0.0637 -0.1027
  382MOL0     N50342   9.566   8.653   1.679  0.2466  0.2648  0.9242
  382MOL0     N50343   9.608   8.725   1.771 -0.7171  0.7792 -0.7949
  382MOL0     C50344   8.713   8.982   1.488  0.2839 -0.0884  0.1603
  382MOL0     C50345   8.616   9.002   1.394  0.6948  0.1105 -0.1529
  382MOL0     C50346   8.388   9.213   1.070 -0.1507 -0.8617  0.5823
  382MOL0     C50347   8.256   9.178   1.098  0.4596 -0.6119 -0.0832
  382MOL0     C50348   8.168   9.177   0.994  0.0510  1.1796  0.9816
  382MOL0     C50349   8.203   9.211   0.863 -0.7974  0.7075 -0.4205
  382MOL0     O50350   8.111   9.177   0.772 -0.1437 -0.6185  0.5616
  382MOL0     C50351   8.149   9.163   0.630  0.2312 -0.5534  0.3074
  382MOL0     C50352   8.027   9.134   0.539  0.1872  1.0055 -0.8423
  382MOL0     C50353   7.924   9.251   0.545 -0.6105 -0.0044  0.2243
  382MOL0     C50354   7.914   9.317   0.403  0.1768  0.2585 -0.0127
  382MOL0     C50355   7.834   9.442   0.427 -0.3618  0.7446  0.1117
  382MOL0     C50356   7.766   9.541   0.462 -0.4919  1.0345  0.5925
  382MOL0     C50357   8.336   9.250   0.838 -0.0263  0.2661 -0.3686
  382MOL0     C50358   8.432   9.250   0.940  0.2963  0.4218 -0.3942
  382MOL0     H50359   8.485   9.294   1.473 -0.4613 -0.7793 -1.6391
  382MOL0     H50360   8.646   9.269   1.671  0.6548 -1.2172  1.4085
  382MOL0     H50361   8.945   8.922   1.627 -2.9385 -2.1719 -0.4685
  382MOL0     H50362   8.797   8.871   1.713 -0.2922 -0.0197 -3.3059
  382MOL0     H50363   9.016   8.823   1.837  1.4485  0.7024 -0.4438
  382MOL0     H50364   8.921   8.929   1.934 -0.9890  0.1922 -1.2073
  382MOL0     H50365   9.021   9.125   1.821 -1.0563 -0.2840  0.4219
  382MOL0     H50366   9.149   9.025   1.752  0.0218  0.6628 -0.6591
  382MOL0     H50367   9.224   9.135   1.968 -1.7665  2.0046 -0.2139
  382MOL0     H50368   9.077   9.096   2.041 -1.6050  0.7642 -3.1930
  382MOL0     H50369   9.147   8.868   2.076  0.9308 -1.6724  0.0612
  382MOL0     H50370   9.268   8.976   2.125 -4.5822  1.1141  1.9977
  382MOL0     H50371   9.389   8.929   1.913 -0.4506  0.7866  1.2370
  382MOL0     H50372   9.286   8.783   1.900 -0.1640 -0.0585 -0.6975
  382MOL0     H50373   9.453   8.835   2.167  0.8053 -1.1998  0.2444
  382MOL0     H50374   9.356   8.694   2.110  0.7250 -1.0773 -0.3640
  382MOL0     H50375   9.603   8.665   2.086 -1.4580 -0.4028  1.2380
  382MOL0     H50376   9.619   8.819   2.009 -0.8759 -0.2320 -0.9948
  382MOL0     H50377   9.408   8.505   1.921 -1.2376  0.1553 -0.3810
  382MOL0     H50378   9.339   8.411   1.641 -0.7679 -0.7026 -3.5600
  382MOL0     H50379   9.493   8.345   1.668  0.3313  1.1047  3.6517
  382MOL0     H50380   9.578   8.434   1.445  0.3665  2.0911  0.9567
  382MOL0     H50381   9.456   8.561   1.467  0.0585 -0.5830 -0.0985
  382MOL0     H50382   9.382   8.272   1.439  1.1814  0.8162  4.0989
  382MOL0     H50383   9.270   8.408   1.409 -0.9886 -1.0958  0.1557
  382MOL0     H50384   9.378   8.282   1.196  0.1100 -0.6208 -0.3201
  382MOL0     H50385   9.522   8.385   1.228 -0.8975  2.6029 -1.7447
  382MOL0     H50386   9.143   8.337   1.242 -0.7917 -0.1906  0.1869
  382MOL0     H50387   8.926   8.360   1.134 -1.7111  1.0318 -1.0484
  382MOL0     H50388   8.674   8.246   0.840 -0.6944 -0.8415  1.2539
  382MOL0     H50389   8.444   8.191   0.759  2.1015 -0.7788 -0.7273
  382MOL0     H50390   8.231   8.466   0.673  0.6225 -1.8508 -2.3024
  382MOL0     H50391   8.072   8.409   0.715 -1.2388 -1.0669 -3.4381
  382MOL0     H50392   8.109   8.198   0.656 -1.7176  2.5820  1.2075
  382MOL0     H50393   8.283   8.207   0.628 -0.9912 -0.8174 -0.3727
  382MOL0     H50394   8.162   8.191   0.418 -0.9331 -0.2657 -0.7929
  382MOL0     H50395   8.268   8.317   0.431  0.1820  0.0461 -0.1129
  382MOL0     H50396   7.965   8.347   0.413 -0.3664  0.9506 -0.2585
  382MOL0     H50397   8.072   8.478   0.467  0.3984 -0.7088  1.5089
  382MOL0     H50398   8.087   8.323   0.206 -2.2848  1.5995 -1.1611
  382MOL0     H50399   8.192   8.454   0.255  0.0763 -1.0512 -0.6652
  382MOL0     H50400   7.963   8.595   0.277  0.5330  2.8687 -1.5131
  382MOL0     H50401   7.901   8.476   0.166 -0.1639 -2.0424  0.1054
  382MOL0     H50402   8.119   8.682   0.134  0.5133 -1.3736  0.9435
  382MOL0     H50403   8.115   8.550   0.025  2.1842  2.9225 -1.1674
  382MOL0     H50404   7.855   8.602  -0.028  0.2488  0.4013 -1.9003
  382MOL0     H50405   7.961   8.717  -0.090  1.0558 -2.2273 -0.8738
  382MOL0     H50406   8.326   8.562   0.969 -2.6448 -1.2333 -0.8357
  382MOL0     H50407   8.559   8.606   1.024  2.0892  0.8552 -2.4075
  382MOL0     H50408   9.081   8.642   0.848 -2.4661 -0.8758 -0.1942
  382MOL0     H50409   9.297   8.622   0.958  2.0776  0.9012  3.6092
  382MOL0     H50410   8.777   8.894   1.491 -1.5370 -1.5402 -1.5008
  382MOL0     H50411   8.612   8.920   1.323 -1.3162 -0.6012  0.7018
  382MOL0     H50412   8.223   9.165   1.201 -3.3213  3.8360 -0.3923
  382MOL0     H50413   8.065   9.150   1.013 -0.1448 -0.0705 -1.4751
  382MOL0     H50414   8.228   9.089   0.613  0.9449 -0.0733  1.4057
  382MOL0     H50415   8.185   9.262   0.597 -2.7590  1.1174  1.6156
  382MOL0     H50416   8.058   9.110   0.437 -0.8795 -0.4463 -0.8550
  382MOL0     H50417   7.985   9.039   0.574 -1.7653  1.6140 -1.4008
  382MOL0     H50418   7.953   9.326   0.619  0.0444  0.5664 -0.5818
  382MOL0     H50419   7.823   9.223   0.576 -0.4973 -0.3526  0.2754
  382MOL0     H50420   8.000   9.340   0.340 -2.2413  0.3435 -3.5706
  382MOL0     H50421   7.856   9.247   0.342 -1.2994 -2.5978  4.1967
  382MOL0     H50422   7.719   9.620   0.517  0.9487  3.0759 -0.9607
  382MOL0     H50423   8.362   9.276   0.736  1.4775  3.1209  0.6199
  382MOL0     H50424   8.533   9.268   0.906 -0.6376 -0.2896 -3.9350
  383MOL0     O50425   6.778   0.648   6.141 -0.8674 -0.5252  0.2922
  383MOL0     C50426   6.821   0.564   6.067 -0.4070  0.1493  0.3282
  383MOL0     O50427   6.941   0.565   5.998  0.4498 -0.3797 -0.3519
  383MOL0     C50428   7.026   0.662   6.040 -0.1859 -1.2290 -0.2830
  383MOL0     C50429   7.001   0.799   6.007 -0.5883 -0.8303 -0.0031
  383MOL0     C50430   7.088   0.907   6.042  0.0525  0.4249  0.0397
  383MOL0     C50431   7.208   0.865   6.098  0.8253  0.5100  0.0406
  383MOL0     O50432   7.296   0.951   6.149 -0.1776  0.4830  0.4573
  383MOL0     C50433   7.324   1.076   6.086 -0.1669  0.1583 -0.2100
  383MOL0     C50434   7.458   1.118   6.148 -0.0152  0.1577 -1.1299
  383MOL0     C50435   7.521   1.259   6.143  0.0148 -0.0376  0.1059
  383MOL0     C50436   7.563   1.298   5.998 -0.3356 -0.3235  0.5795
  383MOL0     C50437   7.648   1.429   6.001  0.3529 -0.3478 -0.7318
  383MOL0     C50438   7.562   1.538   6.043 -0.2389 -0.9554 -1.1076
  383MOL0     C50439   7.653   1.661   6.069  0.1990  0.1060 -0.2286
  383MOL0     C50440   7.625   1.779   5.967  0.5612 -0.5707  0.4513
  383MOL0     N50441   7.694   1.907   6.000 -0.3775 -0.0752  0.6208
  383MOL0     C50442   7.756   1.984   5.906  0.5513  0.0768  0.2797
  383MOL0     C50443   7.764   2.110   5.963 -0.9336 -0.6925  0.5373
  383MOL0     C50444   7.817   2.233   5.901 -0.0192 -0.6923 -0.0588
  383MOL0     C50445   7.732   2.304   5.791  0.3033  0.6521 -0.0777
  383MOL0     C50446   7.586   2.336   5.840 -0.1452  0.4461  0.0103
  383MOL0     C50447   7.582   2.424   5.962  0.0132 -0.2372 -0.7929
  383MOL0     O50448   7.655   2.556   5.938 -0.2492  0.0248  0.4700
  383MOL0     C50449   7.669   2.622   6.062 -0.2704  0.1945 -0.2526
  383MOL0     C50450   7.794   2.615   6.125 -0.6741  0.2403 -0.6009
  383MOL0     C50451   7.820   2.698   6.238  0.3597  0.5527 -0.7332
  383MOL0     C50452   7.714   2.767   6.298  0.2699 -0.3563  0.5636
  383MOL0     C50453   7.732   2.824   6.429  0.9680 -0.7437  0.2499
  383MOL0     O50454   7.613   2.845   6.499  0.0129  0.1238  0.3282
  383MOL0     C50455   7.615   2.867   6.631 -0.2642  0.6925  0.2856
  383MOL0     C50456   7.658   2.977   6.702 -0.5248  0.4531 -0.9012
  383MOL0     C50457   7.644   2.990   6.838 -0.7512  1.2342 -0.1375
  383MOL0     C50458   7.592   2.883   6.917  0.1091  0.1235  0.3967
  383MOL0     O50459   7.574   2.888   7.052 -0.1570 -0.5041  0.3866
  383MOL0     C50460   7.477   2.984   7.100  0.4876  0.0220 -0.0312
  383MOL0     C50461   7.419   2.939   7.232  0.6130  0.4915  0.4812
  383MOL0     C50462   7.374   2.793   7.228  0.1053  0.9422 -0.6580
  383MOL0     C50463   7.431   2.710   7.345  0.4545 -0.9556  0.8387
  383MOL0     C50464   7.395   2.564   7.357  1.4609  0.8174  0.3589
  383MOL0     C50465   7.445   2.487   7.226 -0.9511  0.3571 -0.3911
  383MOL0     C50466   7.459   2.338   7.228 -0.2523  0.5582 -0.3703
  383MOL0     C50467   7.520   2.286   7.093 -0.6936  0.4182  0.7449
  383MOL0    Cl50468   7.426   2.339   6.954 -0.0539  0.7824  0.0290
  383MOL0     C50469   7.549   2.773   6.845  0.0100 -1.1805  0.4363
  383MOL0     C50470   7.564   2.761   6.709 -0.1298 -0.3871 -0.4346
  383MOL0     O50471   7.845   2.842   6.478 -0.4561 -0.1506  0.2562
  383MOL0     C50472   7.582   2.764   6.237 -0.2756  0.3760  0.2155
  383MOL0     C50473   7.561   2.697   6.117 -0.7849 -0.1775  0.1577
  383MOL0     N50474   7.716   2.105   6.087  0.4654 -0.0675 -0.3850
  383MOL0     N50475   7.656   1.995   6.099  0.0631 -0.3224 -0.1192
  383MOL0     C50476   7.238   0.720   6.122 -0.6849 -1.6032  0.4010
  383MOL0     C50477   7.146   0.625   6.097  0.2401  0.3396 -0.6305
  383MOL0     C50478   6.735   0.456   6.022 -0.2342 -0.3582  0.4425
  383MOL0     C50479   6.621   0.421   6.096  0.9008  0.1919  0.1108
  383MOL0     C50480   6.532   0.312   6.048  0.0642  0.0340  0.2358
  383MOL0     C50481   6.565   0.247   5.931 -0.1211  0.5630 -0.8930
  383MOL0     O50482   6.481   0.148   5.882  0.3134  0.5710 -0.0226
  383MOL0     C50483   6.368   0.096   5.958 -0.7487  0.2119  0.4869
  383MOL0     C50484   6.409  -0.004   6.068  0.4219  0.6701  0.2808
  383MOL0     C50485   6.504  -0.110   6.025 -0.5909 -0.2941 -0.8112
  383MOL0     C50486   6.547  -0.201   6.140 -0.3931 -0.3367  0.2184
  383MOL0     C50487   6.442  -0.283   6.186  0.7242 -0.8883  0.5219
  383MOL0     C50488   6.355  -0.367   6.204  0.1256  0.1926 -0.6494
  383MOL0     C50489   6.675   0.293   5.858 -0.2356  0.0940 -0.5953
  383MOL0     C50490   6.754   0.396   5.904  0.0226  0.3354  0.4699
  383MOL0     H50491   6.906   0.827   5.963  0.4251  0.6902 -1.3474
  383MOL0     H50492   7.046   1.006   6.029  0.4094  0.5744  0.0069
  383MOL0     H50493   7.250   1.145   6.127 -1.8377 -1.9735  0.5620
  383MOL0     H50494   7.329   1.078   5.977  0.0633  1.2499 -0.1850
  383MOL0     H50495   7.542   1.051   6.129  0.2904  0.2774 -0.2533
  383MOL0     H50496   7.444   1.092   6.254 -0.6238  2.6783 -0.5089
  383MOL0     H50497   7.603   1.267   6.214 -0.1394  2.0423  0.1099
  383MOL0     H50498   7.452   1.332   6.187  2.3736  2.3124  0.1744
  383MOL0     H50499   7.614   1.216   5.947  2.4374  1.1266  0.8259
  383MOL0     H50500   7.480   1.326   5.932  1.3878  1.6763 -0.8860
  383MOL0     H50501   7.678   1.450   5.898 -1.8728 -0.4799 -1.4639
  383MOL0     H50502   7.728   1.414   6.074 -1.2876 -3.1901  0.6638
  383MOL0     H50503   7.513   1.512   6.137 -1.2617 -3.4557 -2.2352
  383MOL0     H50504   7.487   1.576   5.973 -0.5674  0.6211  0.0456
  383MOL0     H50505   7.651   1.689   6.175  1.6670  1.8050 -0.5960
  383MOL0     H50506   7.753   1.626   6.043  0.0763 -1.3735  1.1063
  383MOL0     H50507   7.522   1.816   5.956  1.8310  3.3271  0.1588
  383MOL0     H50508   7.671   1.762   5.869 -0.1494  5.4708 -1.3509
  383MOL0     H50509   7.763   1.948   5.804 -0.4521 -1.0672  0.5931
  383MOL0     H50510   7.913   2.202   5.857 -0.3596 -0.1005 -1.2524
  383MOL0     H50511   7.830   2.303   5.984  0.2959 -0.5119 -0.2616
  383MOL0     H50512   7.727   2.234   5.707 -2.0489  0.1328  0.4071
  383MOL0     H50513   7.786   2.397   5.772  0.5323  0.7566  0.9781
  383MOL0     H50514   7.526   2.381   5.759  0.7599 -0.9750 -1.5208
  383MOL0     H50515   7.524   2.246   5.849  1.9337 -0.9929  0.4914
  383MOL0     H50516   7.623   2.361   6.041  0.1099 -2.5037 -2.5544
  383MOL0     H50517   7.478   2.437   5.993  0.5933  1.6701  0.5140
  383MOL0     H50518   7.878   2.561   6.081 -1.0651  0.0812 -1.1683
  383MOL0     H50519   7.912   2.709   6.295 -1.4060  4.0319  1.9225
  383MOL0     H50520   7.711   3.054   6.647 -2.1747  1.4758 -1.1114
  383MOL0     H50521   7.679   3.078   6.890 -0.7081  0.6544  0.8489
  383MOL0     H50522   7.396   2.988   7.027  1.6900 -0.8657 -1.4650
  383MOL0     H50523   7.523   3.083   7.109 -0.1330  0.4719 -1.5015
  383MOL0     H50524   7.327   2.993   7.257 -1.5265 -2.3624 -0.7350
  383MOL0     H50525   7.491   2.957   7.312 -1.2665 -2.2346  3.0069
  383MOL0     H50526   7.402   2.745   7.134  0.6981  0.7585 -0.3935
  383MOL0     H50527   7.266   2.782   7.223  0.0701  1.1914 -0.4711
  383MOL0     H50528   7.539   2.723   7.343  0.1854  1.8140  0.6485
  383MOL0     H50529   7.393   2.762   7.434 -2.8489 -0.5913 -0.6182
  383MOL0     H50530   7.288   2.554   7.381  0.7465  1.5377 -2.2276
  383MOL0     H50531   7.440   2.523   7.448  1.0501  3.9336  2.1446
  383MOL0     H50532   7.548   2.520   7.210 -0.7455 -0.0982 -0.0322
  383MOL0     H50533   7.382   2.520   7.142 -0.7619 -2.0000 -1.5374
  383MOL0     H50534   7.522   2.308   7.311  0.6775 -0.0917 -1.2879
  383MOL0     H50535   7.357   2.301   7.244 -0.6334  1.9294  0.6269
  383MOL0     H50536   7.532   2.177   7.101  2.2153  0.6140  0.0444
  383MOL0     H50537   7.621   2.328   7.087 -0.9796  0.8868 -2.0883
  383MOL0     H50538   7.499   2.692   6.896 -0.4119  0.6837  3.2259
  383MOL0     H50539   7.525   2.667   6.672  1.2172 -1.1235 -0.0473
  383MOL0     H50540   7.507   2.826   6.286 -0.9949 -1.5603  1.6568
  383MOL0     H50541   7.467   2.706   6.064  0.3331 -0.2079 -1.9616
  383MOL0     H50542   7.332   0.681   6.159  1.0294  0.1208 -1.8236
  383MOL0     H50543   7.155   0.519   6.119 -3.6299  0.1249  0.7616
  383MOL0     H50544   6.605   0.479   6.186 -2.6357  3.1833 -2.1371
  383MOL0     H50545   6.448   0.276   6.107 -1.7781 -0.2936 -2.4044
  383MOL0     H50546   6.309   0.045   5.882 -1.3357  0.3178  0.8676
  383MOL0     H50547   6.298   0.171   5.994 -2.6377 -0.2194 -2.0257
  383MOL0     H50548   6.448   0.062   6.146  3.5388 -0.5107 -0.1397
  383MOL0     H50549   6.320  -0.058   6.101  2.0581 -2.5475 -0.1992
  383MOL0     H50550   6.599  -0.068   5.990  1.0530 -0.3409  3.0382
  383MOL0     H50551   6.467  -0.177   5.947 -1.6261 -2.9217  1.7318
  383MOL0     H50552   6.631  -0.261   6.105  0.5907  1.6715 -1.0667
  383MOL0     H50553   6.565  -0.134   6.224 -0.4642  0.9828 -0.7778
  383MOL0     H50554   6.272  -0.433   6.223  2.7172 -2.3690  3.0876
  383MOL0     H50555   6.703   0.239   5.768 -0.0790  0.6679 -0.8930
  383MOL0     H50556   6.845   0.407   5.846  0.9357 -0.4452  1.6907
  384MOL0     O50557   4.010   6.537   2.347 -0.9272  0.0449  0.8996
  384MOL0     C50558   3.907   6.486   2.327  0.4352  0.0435 -0.5737
  384MOL0     O50559   3.870   6.349   2.369  0.1283 -0.8198  0.2486
  384MOL0     C50560   3.970   6.252   2.394  0.3909 -0.4498  0.1404
  384MOL0     C50561   4.099   6.263   2.340 -0.4308 -0.6044 -1.0513
  384MOL0     C50562   4.203   6.180   2.385 -0.0449 -0.6429  0.1133
  384MOL0     C50563   4.172   6.078   2.478  0.7749 -0.0056 -0.0740
  384MOL0     O50564   4.265   6.004   2.548 -0.0780  0.1693 -0.1247
  384MOL0     C50565   4.399   6.030   2.508 -0.1945  1.2480  0.2709
  384MOL0     C50566   4.496   5.934   2.593 -0.1441 -0.4144  0.2663
  384MOL0     C50567   4.639   5.988   2.610 -0.2367 -0.0200  0.2025
  384MOL0     C50568   4.691   6.055   2.475 -0.0346  0.4653 -0.2828
  384MOL0     C50569   4.825   6.118   2.497 -0.4837 -1.2508  0.0180
  384MOL0     C50570   4.863   6.201   2.386 -0.2422  0.0641  0.5186
  384MOL0     C50571   5.000   6.264   2.419 -0.3119  0.3303 -0.4037
  384MOL0     C50572   5.052   6.354   2.317  0.2471 -0.1295  0.9161
  384MOL0     N50573   5.166   6.435   2.369  0.2818  0.3532  0.3193
  384MOL0     C50574   5.300   6.401   2.360 -1.1524  0.6632  0.1115
  384MOL0     C50575   5.359   6.517   2.402 -1.3779  0.4767 -0.6004
  384MOL0     C50576   5.505   6.538   2.415 -0.6916  0.5634 -0.5500
  384MOL0     C50577   5.556   6.559   2.272 -0.4530 -0.0753 -1.2723
  384MOL0     C50578   5.713   6.570   2.274  0.2274  0.0115  0.4417
  384MOL0     C50579   5.783   6.653   2.389 -0.3590  0.2977  0.1294
  384MOL0     O50580   5.935   6.655   2.375  1.2297  0.1485  1.1171
  384MOL0     C50581   6.008   6.732   2.453 -0.2866 -0.8199  0.0530
  384MOL0     C50582   6.150   6.737   2.456 -0.1205 -0.7783 -0.2005
  384MOL0     C50583   6.230   6.815   2.546  1.5876  0.2076 -0.0817
  384MOL0     C50584   6.165   6.882   2.648 -0.2680  0.2221  0.0414
  384MOL0     C50585   6.230   6.957   2.757  0.4586 -1.2056 -0.0295
  384MOL0     O50586   6.358   6.995   2.720 -0.3877 -0.3387  0.3963
  384MOL0     C50587   6.432   7.072   2.811 -0.2978 -0.8379 -0.0086
  384MOL0     C50588   6.486   7.022   2.924 -0.3539 -0.0795  0.1255
  384MOL0     C50589   6.553   7.106   3.014 -0.9414 -0.1929  0.1745
  384MOL0     C50590   6.574   7.238   2.982 -0.2973 -0.4618  0.1420
  384MOL0     O50591   6.635   7.320   3.078 -0.3193  0.0440  0.8811
  384MOL0     C50592   6.546   7.358   3.179  0.2264 -0.4080 -0.0492
  384MOL0     C50593   6.583   7.505   3.226 -0.9780 -0.0474 -0.2705
  384MOL0     C50594   6.490   7.562   3.336  0.6645  0.2975  0.0830
  384MOL0     C50595   6.341   7.570   3.270 -0.5465 -0.7191 -0.8308
  384MOL0     C50596   6.262   7.678   3.349 -0.7296  0.4216  0.1937
  384MOL0     C50597   6.112   7.625   3.369  1.0196 -0.9436  0.1041
  384MOL0     C50598   6.018   7.738   3.422  0.4932  0.3736  0.1110
  384MOL0     C50599   5.877   7.712   3.375 -0.1654  1.0398 -0.0536
  384MOL0    Cl50600   5.851   7.703   3.204  0.3948 -0.1823 -0.0008
  384MOL0     C50601   6.526   7.293   2.863  0.5416  0.3455  0.5405
  384MOL0     C50602   6.462   7.208   2.779 -0.0775  0.8110 -0.0400
  384MOL0     O50603   6.186   6.959   2.871  0.3075 -0.4104 -0.0767
  384MOL0     C50604   6.025   6.882   2.648 -0.4579  0.6519 -0.5796
  384MOL0     C50605   5.948   6.810   2.559  0.8896 -0.1979  0.2508
  384MOL0     N50606   5.271   6.619   2.428  1.1449 -0.3786  0.1150
  384MOL0     N50607   5.153   6.560   2.416 -0.4185 -0.9869 -0.5618
  384MOL0     C50608   4.045   6.057   2.523 -0.0500  0.6281  0.2992
  384MOL0     C50609   3.943   6.142   2.487 -0.1137 -0.0849  0.7086
  384MOL0     C50610   3.798   6.569   2.281  1.1348  0.4747  0.3651
  384MOL0     C50611   3.821   6.696   2.228 -0.0369 -0.0411  0.6675
  384MOL0     C50612   3.713   6.760   2.179  0.7259 -0.4068  0.7583
  384MOL0     C50613   3.584   6.709   2.164  0.4796 -0.3798  0.3596
  384MOL0     O50614   3.486   6.774   2.095  0.3327 -0.1660 -0.0071
  384MOL0     C50615   3.509   6.897   2.036  0.2796 -0.3360 -0.2493
  384MOL0     C50616   3.398   6.927   1.934  0.0446  0.2885  0.8314
  384MOL0     C50617   3.420   7.057   1.850  0.8803 -0.2065  0.6644
  384MOL0     C50618   3.293   7.118   1.788  0.7369  0.1648 -0.3048
  384MOL0     C50619   3.191   7.130   1.887 -0.4679 -0.1317 -0.0299
  384MOL0     C50620   3.091   7.160   1.947 -0.7021  1.2177  0.6692
  384MOL0     C50621   3.563   6.585   2.214  0.2909  0.2031  0.5564
  384MOL0     C50622   3.669   6.516   2.273  0.0811  0.0599 -0.4271
  384MOL0     H50623   4.120   6.350   2.278 -2.9874  3.4112  3.0170
  384MOL0     H50624   4.301   6.207   2.348  0.2356 -0.2168  1.1288
  384MOL0     H50625   4.421   6.131   2.544  0.4088  0.8272  1.1173
  384MOL0     H50626   4.421   6.005   2.404 -1.0814 -0.8160  0.5416
  384MOL0     H50627   4.499   5.833   2.549  1.9484  0.4170 -1.7030
  384MOL0     H50628   4.464   5.920   2.697  2.0370 -2.4932  0.7610
  384MOL0     H50629   4.701   5.914   2.662  0.6466 -0.0504 -0.8556
  384MOL0     H50630   4.632   6.066   2.687  0.0963 -1.6639  1.9645
  384MOL0     H50631   4.694   5.983   2.392 -0.3781  0.7610 -0.5550
  384MOL0     H50632   4.628   6.141   2.454  1.9243  2.4314  1.3421
  384MOL0     H50633   4.900   6.039   2.509  0.5737 -0.3215 -0.3041
  384MOL0     H50634   4.820   6.181   2.587 -2.7198 -1.9037  0.4151
  384MOL0     H50635   4.793   6.283   2.367  0.2716  0.3443 -0.2150
  384MOL0     H50636   4.869   6.137   2.298 -1.0234  0.9304 -0.1720
  384MOL0     H50637   4.982   6.320   2.511 -1.9791  0.6434 -0.8890
  384MOL0     H50638   5.073   6.187   2.446 -1.7500 -0.0047  3.0418
  384MOL0     H50639   4.971   6.420   2.284  1.2300  1.1846  1.0978
  384MOL0     H50640   5.096   6.316   2.224 -2.0510  4.3948 -2.4125
  384MOL0     H50641   5.338   6.302   2.337 -1.5180  0.8941 -1.5498
  384MOL0     H50642   5.549   6.464   2.481 -2.4748  2.6256  3.2909
  384MOL0     H50643   5.525   6.635   2.463  0.8782 -1.3520  3.0236
  384MOL0     H50644   5.515   6.657   2.244  1.5748  2.4336  3.3415
  384MOL0     H50645   5.520   6.478   2.208 -1.5765 -1.2479  0.7258
  384MOL0     H50646   5.752   6.469   2.295  2.9161  1.1109  1.2129
  384MOL0     H50647   5.762   6.599   2.181  1.8108 -0.9773  0.9129
  384MOL0     H50648   5.766   6.599   2.483 -0.0750  0.1718  0.1100
  384MOL0     H50649   5.736   6.752   2.394 -0.1185  0.4989 -1.3235
  384MOL0     H50650   6.204   6.682   2.379  2.2736  2.7148 -1.2432
  384MOL0     H50651   6.338   6.822   2.533  1.9771 -3.2489  0.2999
  384MOL0     H50652   6.481   6.917   2.949 -0.5388 -0.5460 -1.6707
  384MOL0     H50653   6.586   7.067   3.110  2.2968 -0.6515 -1.0031
  384MOL0     H50654   6.560   7.293   3.265 -0.2518 -2.5304 -1.5084
  384MOL0     H50655   6.443   7.361   3.144 -0.2907 -1.0124  1.3906
  384MOL0     H50656   6.579   7.562   3.133  3.0617  2.5487  0.8750
  384MOL0     H50657   6.687   7.509   3.259 -1.6025 -0.0130  1.7749
  384MOL0     H50658   6.529   7.661   3.361 -1.6027  1.0086  1.0648
  384MOL0     H50659   6.492   7.496   3.424  1.7184  1.3945  0.8986
  384MOL0     H50660   6.342   7.593   3.163  1.7430  1.1005 -0.4937
  384MOL0     H50661   6.288   7.475   3.284 -5.4115  1.7982  0.0371
  384MOL0     H50662   6.267   7.771   3.291 -0.5807 -0.9020 -2.0474
  384MOL0     H50663   6.305   7.707   3.446  0.3754  2.6856 -0.8834
  384MOL0     H50664   6.119   7.546   3.443  1.0462 -1.1744 -0.1433
  384MOL0     H50665   6.071   7.594   3.272 -1.8333 -1.1336  1.2763
  384MOL0     H50666   6.023   7.750   3.530 -0.2351  0.6448  0.1223
  384MOL0     H50667   6.056   7.830   3.376  0.1418  1.5985  2.1243
  384MOL0     H50668   5.810   7.791   3.410 -0.7957  0.3050  0.4216
  384MOL0     H50669   5.839   7.622   3.422  0.0462  1.2133  0.4660
  384MOL0     H50670   6.557   7.396   2.852  0.7993  0.0445 -2.0558
  384MOL0     H50671   6.412   7.248   2.692 -0.5797  1.7270  0.6478
  384MOL0     H50672   5.966   6.945   2.714 -2.6827  0.1828 -2.0066
  384MOL0     H50673   5.842   6.796   2.579  0.4160 -0.0822 -1.9634
  384MOL0     H50674   4.018   5.977   2.591  0.0322  0.2648 -0.0930
  384MOL0     H50675   3.846   6.120   2.529 -0.8633  3.9183  1.3886
  384MOL0     H50676   3.924   6.729   2.218  1.0277 -1.5720  4.8063
  384MOL0     H50677   3.741   6.859   2.145 -0.0759 -1.4685 -3.6427
  384MOL0     H50678   3.596   6.904   1.970 -1.2325 -1.1842 -2.4677
  384MOL0     H50679   3.517   6.982   2.104  0.1298 -1.5832  1.3754
  384MOL0     H50680   3.404   6.843   1.865  1.3437 -1.9833  3.4890
  384MOL0     H50681   3.301   6.918   1.985 -1.6858 -1.7635 -2.4450
  384MOL0     H50682   3.499   7.029   1.779  4.0894  2.4120  2.9254
  384MOL0     H50683   3.463   7.132   1.916 -0.3592  1.4916 -0.3680
  384MOL0     H50684   3.322   7.219   1.760  2.3215 -0.6650 -1.8198
  384MOL0     H50685   3.273   7.063   1.696  3.5823  0.7020 -1.3357
  384MOL0     H50686   2.998   7.174   1.999  0.1812  1.7368  2.1852
  384MOL0     H50687   3.466   6.539   2.200  1.6029 -2.6170  0.1238
  384MOL0     H50688   3.641   6.413   2.291  0.4067 -0.7329 -3.7396
  385MOL0     O50689   9.758   7.903   0.873 -0.8145 -0.0308  0.0013
  385MOL0     C50690   9.765   7.987   0.780  0.4570  0.3295  0.4119
  385MOL0     O50691   9.661   8.044   0.724  0.5054 -0.5236 -0.7411
  385MOL0     C50692   9.542   8.029   0.778 -0.5028  1.0325  0.5421
  385MOL0     C50693   9.483   8.133   0.850 -0.7263  0.6250  0.2145
  385MOL0     C50694   9.350   8.140   0.878  1.0034 -0.5214  0.8077
  385MOL0     C50695   9.264   8.043   0.843  0.5704  1.1807  0.0352
  385MOL0     O50696   9.128   8.054   0.872  0.0364 -0.1149 -0.1493
  385MOL0     C50697   9.048   7.935   0.880 -0.0155 -0.1744  0.6880
  385MOL0     C50698   8.904   7.979   0.897  0.0815  0.2139  0.3650
  385MOL0     C50699   8.817   7.863   0.895  0.0698  0.0402  0.3135
  385MOL0     C50700   8.677   7.906   0.942 -0.0479  0.3853  0.0190
  385MOL0     C50701   8.580   7.787   0.920 -0.1254  0.4745  0.6422
  385MOL0     C50702   8.448   7.835   0.869  0.0080  0.6110  0.3523
  385MOL0     C50703   8.340   7.729   0.841  0.2436  0.3763  0.1659
  385MOL0     C50704   8.360   7.608   0.926  0.2593  0.1328 -0.6623
  385MOL0     N50705   8.228   7.537   0.939  0.7293  0.1998  1.2347
  385MOL0     C50706   8.174   7.454   0.837 -1.2812  0.7519 -0.8734
  385MOL0     C50707   8.039   7.439   0.868  0.5151 -0.1945  0.6195
  385MOL0     C50708   7.936   7.362   0.785 -0.2342  0.5545 -0.5944
  385MOL0     C50709   7.785   7.357   0.840  0.5201 -0.3266  1.1782
  385MOL0     C50710   7.773   7.249   0.943 -0.0538 -0.5469  0.5426
  385MOL0     C50711   7.628   7.223   0.966 -0.1875  0.6399  0.3335
  385MOL0     O50712   7.606   7.117   1.056  0.7002  0.4610  0.9766
  385MOL0     C50713   7.482   7.102   1.128  0.4808 -0.0540 -0.0053
  385MOL0     C50714   7.486   7.063   1.266  0.0781  0.2857  0.9479
  385MOL0     C50715   7.371   7.034   1.336  0.0182  1.0714  0.9619
  385MOL0     C50716   7.245   7.052   1.278 -0.6930  0.1059  0.1619
  385MOL0     C50717   7.123   7.019   1.349  0.7657  0.0415  1.7957
  385MOL0     O50718   7.131   6.976   1.476 -0.2676  0.1647  0.4359
  385MOL0     C50719   7.015   6.963   1.553  0.8317 -1.1181 -0.0140
  385MOL0     C50720   6.905   6.890   1.521  0.6372 -0.2044  0.3027
  385MOL0     C50721   6.793   6.870   1.610 -0.9168  0.3515 -0.0073
  385MOL0     C50722   6.789   6.945   1.724 -0.6076 -0.2901 -0.1348
  385MOL0     O50723   6.678   6.934   1.805 -0.4711 -0.0258 -0.2184
  385MOL0     C50724   6.636   7.040   1.888  0.1531 -0.1500 -0.3730
  385MOL0     C50725   6.499   7.036   1.947  0.0803  0.1818 -0.4051
  385MOL0     C50726   6.382   7.034   1.848  0.1312  1.1017 -0.7256
  385MOL0     C50727   6.243   7.019   1.924  0.2268  0.3937  0.6257
  385MOL0     C50728   6.124   6.995   1.825 -1.1259 -0.2617  0.7081
  385MOL0     C50729   5.998   6.961   1.900 -0.5313  0.4800 -0.2794
  385MOL0     C50730   5.896   6.908   1.805  0.4751  0.1163 -0.3092
  385MOL0     C50731   5.805   6.825   1.887 -0.2696  0.1788  0.8160
  385MOL0    Cl50732   5.668   6.750   1.776 -0.7937  0.1765 -0.0938
  385MOL0     C50733   6.895   7.037   1.750  0.5418  0.1795 -0.3369
  385MOL0     C50734   7.002   7.047   1.665  0.1336 -0.1979  0.2565
  385MOL0     O50735   7.020   7.010   1.283 -0.3012  0.0733 -0.2346
  385MOL0     C50736   7.242   7.097   1.141  1.1498 -0.8516 -0.6892
  385MOL0     C50737   7.360   7.129   1.073 -0.0692  0.9453  0.0439
  385MOL0     N50738   8.016   7.511   0.990 -0.2897  0.3075 -0.0456
  385MOL0     N50739   8.124   7.568   1.028 -0.3471  0.4423  0.4614
  385MOL0     C50740   9.321   7.926   0.777 -0.9831 -0.0200  0.5324
  385MOL0     C50741   9.459   7.915   0.747  0.8511  0.9975 -0.8677
  385MOL0     C50742   9.893   8.022   0.720 -1.1217  0.8815 -0.4163
  385MOL0     C50743  10.010   7.951   0.758  1.2151  0.4063  0.0339
  385MOL0     C50744  10.131   7.961   0.694  0.0890 -0.5757  0.5568
  385MOL0     C50745  10.144   8.061   0.591 -0.0808 -0.2486 -0.0717
  385MOL0     O50746  10.264   8.080   0.538  0.0418  0.0307 -0.0518
  385MOL0     C50747  10.271   8.171   0.430 -0.2798  0.1235  0.5517
  385MOL0     C50748  10.403   8.155   0.355 -0.8650 -0.0585  0.5704
  385MOL0     C50749  10.522   8.212   0.443  0.5945  0.2988  0.2217
  385MOL0     C50750  10.648   8.130   0.424 -0.3067 -0.1649 -0.6084
  385MOL0     C50751  10.759   8.212   0.475 -0.5477  0.3710  0.4576
  385MOL0     C50752  10.852   8.284   0.504  0.3802  0.2260  1.4826
  385MOL0     C50753  10.029   8.141   0.562 -0.5393 -0.2234 -0.1187
  385MOL0     C50754   9.908   8.125   0.623 -0.2715  0.7432  0.1117
  385MOL0     H50755   9.549   8.218   0.868 -0.0626  1.2255 -3.9909
  385MOL0     H50756   9.304   8.224   0.929 -2.2632 -2.2516  1.0172
  385MOL0     H50757   9.087   7.878   0.965  0.7254  1.0879  1.2233
  385MOL0     H50758   9.049   7.871   0.791 -0.9441  1.1642 -0.3165
  385MOL0     H50759   8.870   8.032   0.807 -3.1964  1.0567  1.9293
  385MOL0     H50760   8.892   8.043   0.985 -0.7441 -0.8251  1.0269
  385MOL0     H50761   8.861   7.785   0.957  2.0615  0.1308 -0.9062
  385MOL0     H50762   8.814   7.826   0.792 -3.0614  2.4301 -0.6321
  385MOL0     H50763   8.677   7.922   1.050  1.8644  1.6091 -0.1217
  385MOL0     H50764   8.644   8.000   0.897  0.0188 -0.1436 -1.1835
  385MOL0     H50765   8.577   7.727   1.012  0.2945 -3.0522 -1.4380
  385MOL0     H50766   8.618   7.718   0.843 -0.2543  3.0738 -1.9212
  385MOL0     H50767   8.459   7.903   0.784 -2.6769 -1.6390 -2.0202
  385MOL0     H50768   8.407   7.902   0.945 -0.7609  0.7923 -0.2010
  385MOL0     H50769   8.248   7.781   0.870  0.6861  2.2613 -1.5399
  385MOL0     H50770   8.336   7.700   0.736 -0.0437  1.7505 -0.2311
  385MOL0     H50771   8.392   7.638   1.027  0.0229 -1.3535 -0.1143
  385MOL0     H50772   8.429   7.541   0.875  1.0211  1.2765 -1.1680
  385MOL0     H50773   8.216   7.430   0.740  1.6629  1.8278  0.0040
  385MOL0     H50774   7.978   7.261   0.772  0.5665  1.0584 -2.2398
  385MOL0     H50775   7.918   7.410   0.688  1.0156 -0.5027 -1.3946
  385MOL0     H50776   7.721   7.336   0.754  2.4424  0.9964 -0.6937
  385MOL0     H50777   7.750   7.449   0.886 -0.0891  0.4935 -0.8213
  385MOL0     H50778   7.815   7.154   0.907 -0.5414 -0.2061 -0.9801
  385MOL0     H50779   7.827   7.274   1.034 -1.6068  1.6919  0.9183
  385MOL0     H50780   7.593   7.183   0.871  1.2391 -3.2704  1.2867
  385MOL0     H50781   7.571   7.313   0.993 -0.3291  1.5146 -2.5235
  385MOL0     H50782   7.583   7.039   1.310  1.2224  0.4392 -1.3156
  385MOL0     H50783   7.376   6.991   1.435  1.4926  1.7354  1.2073
  385MOL0     H50784   6.901   6.827   1.433  1.2517 -2.6469  1.9022
  385MOL0     H50785   6.714   6.801   1.584 -1.2164  0.8874 -0.5232
  385MOL0     H50786   6.638   7.133   1.830  1.7607  0.6742  0.9181
  385MOL0     H50787   6.708   7.043   1.970  0.6240 -1.9794 -0.6724
  385MOL0     H50788   6.482   7.118   2.018  0.9809  0.2927 -0.2974
  385MOL0     H50789   6.483   6.943   2.004 -0.0300 -0.4231 -1.4062
  385MOL0     H50790   6.387   6.949   1.779  1.7907  0.2079  0.4472
  385MOL0     H50791   6.388   7.123   1.784 -0.7218  0.8166 -1.2194
  385MOL0     H50792   6.254   6.925   1.979  1.0514 -0.3801 -0.7935
  385MOL0     H50793   6.219   7.107   1.984  1.8985  1.3003  0.0188
  385MOL0     H50794   6.156   6.922   1.751 -0.1814  2.2087 -1.5021
  385MOL0     H50795   6.112   7.083   1.760  0.2858 -0.6593 -0.1361
  385MOL0     H50796   5.960   7.046   1.957 -1.6334 -0.4265  0.3812
  385MOL0     H50797   6.027   6.881   1.969  0.7609  2.1001  1.1698
  385MOL0     H50798   5.844   6.995   1.764  0.8646  0.9452  0.9011
  385MOL0     H50799   5.941   6.844   1.728 -1.1179 -0.1711 -1.0353
  385MOL0     H50800   5.763   6.878   1.972  0.8519  0.1887  1.3761
  385MOL0     H50801   5.858   6.744   1.938  0.1460  0.0393  0.1814
  385MOL0     H50802   6.895   7.094   1.843  1.9973  1.6789 -1.1968
  385MOL0     H50803   7.084   7.118   1.678 -2.8791  3.5532  0.5217
  385MOL0     H50804   7.146   7.108   1.093 -0.0707  4.4773  2.2161
  385MOL0     H50805   7.343   7.175   0.976 -0.4050  1.1172  0.1855
  385MOL0     H50806   9.250   7.856   0.734 -0.0039 -1.3004  0.9511
  385MOL0     H50807   9.489   7.838   0.678 -0.3997  1.2778 -1.7736
  385MOL0     H50808  10.012   7.878   0.839  3.5575  2.2549  1.7997
  385MOL0     H50809  10.214   7.897   0.721  0.5859 -0.3773 -0.4879
  385MOL0     H50810  10.262   8.275   0.464  1.3931  1.1277 -1.7949
  385MOL0     H50811  10.196   8.162   0.351  0.9286  1.1855 -0.8039
  385MOL0     H50812  10.423   8.052   0.327 -1.7695 -0.2195  0.5063
  385MOL0     H50813  10.396   8.209   0.260 -1.2400  0.4616  0.8864
  385MOL0     H50814  10.490   8.213   0.548 -3.2857 -2.9793 -0.7046
  385MOL0     H50815  10.524   8.316   0.409 -1.6484  0.1874 -0.3857
  385MOL0     H50816  10.647   8.038   0.483 -2.3274 -0.3492 -0.8667
  385MOL0     H50817  10.664   8.121   0.316 -0.4556  3.8056 -1.0999
  385MOL0     H50818  10.939   8.339   0.533  1.0475  1.0056 -1.7202
  385MOL0     H50819  10.039   8.223   0.491 -0.9310 -1.6117 -1.8465
  385MOL0     H50820   9.818   8.179   0.595 -0.3699  1.5630  1.8642
  386MOL0     O50821   5.330   3.958   4.341 -0.2134  0.5971  0.6564
  386MOL0     C50822   5.328   4.078   4.379  0.6366  0.1715  0.3618
  386MOL0     O50823   5.215   4.148   4.395 -0.4994 -0.1699 -0.3261
  386MOL0     C50824   5.095   4.089   4.390 -1.2888 -0.4449 -0.7469
  386MOL0     C50825   5.001   4.174   4.336 -0.1874  0.2678 -0.2199
  386MOL0     C50826   4.865   4.144   4.347  0.5059 -1.7504 -0.4047
  386MOL0     C50827   4.814   4.034   4.412 -0.4545 -0.2642 -0.1767
  386MOL0     O50828   4.671   4.014   4.408  0.3762 -0.2801  0.4053
  386MOL0     C50829   4.622   3.886   4.445 -0.5990  0.0360 -0.7266
  386MOL0     C50830   4.479   3.895   4.411 -0.1417  0.0454  0.7884
  386MOL0     C50831   4.397   3.993   4.488  0.5187  0.2138  0.4611
  386MOL0     C50832   4.259   4.002   4.430  0.5642 -0.0836 -0.3839
  386MOL0     C50833   4.146   4.051   4.534  0.7971 -0.1960  0.3483
  386MOL0     C50834   4.001   4.049   4.458 -0.4543 -0.2811  0.5700
  386MOL0     C50835   3.991   4.152   4.355 -0.1808 -0.4564 -0.2027
  386MOL0     C50836   3.875   4.128   4.260 -0.6543  0.4049  0.8133
  386MOL0     N50837   3.745   4.099   4.324 -0.8789  0.4655  0.2423
  386MOL0     C50838   3.701   4.180   4.423  0.4218 -1.2360 -0.4083
  386MOL0     C50839   3.565   4.158   4.432 -0.1553 -0.4150  0.4274
  386MOL0     C50840   3.460   4.231   4.527  0.3412 -0.5046 -0.1460
  386MOL0     C50841   3.321   4.258   4.451 -0.2949 -0.3892  0.2674
  386MOL0     C50842   3.215   4.151   4.454 -0.2402  0.0915  0.1526
  386MOL0     C50843   3.088   4.208   4.396 -0.0094  0.8282  0.0258
  386MOL0     O50844   2.997   4.096   4.373  0.0844  0.4594  0.9648
  386MOL0     C50845   2.864   4.124   4.354  0.6576 -0.0512 -0.4958
  386MOL0     C50846   2.771   4.021   4.340 -0.6685 -0.2190  0.7580
  386MOL0     C50847   2.635   4.043   4.328 -0.7483 -0.1302  0.1915
  386MOL0     C50848   2.580   4.170   4.338  0.8645 -0.1332  0.5166
  386MOL0     C50849   2.433   4.193   4.310  0.4412 -0.1643 -0.5858
  386MOL0     O50850   2.360   4.084   4.274 -0.1651  0.3202  0.2270
  386MOL0     C50851   2.223   4.087   4.264  0.8066 -0.2943  1.0317
  386MOL0     C50852   2.137   4.202   4.244  0.3715 -0.0012 -0.0373
  386MOL0     C50853   1.995   4.189   4.236 -0.3079 -0.4305 -0.4360
  386MOL0     C50854   1.948   4.065   4.254  0.8881 -0.9042  0.4453
  386MOL0     O50855   1.811   4.035   4.233  0.2468  0.8052  0.3673
  386MOL0     C50856   1.727   4.122   4.157  0.5687 -0.5887  0.4088
  386MOL0     C50857   1.575   4.083   4.166 -0.1867  0.4885  0.7312
  386MOL0     C50858   1.537   4.053   4.313  0.0403  0.4059  0.5774
  386MOL0     C50859   1.381   4.042   4.328 -1.4047 -0.8488  0.4737
  386MOL0     C50860   1.349   3.946   4.437  0.2925  0.0119 -0.7076
  386MOL0     C50861   1.207   3.968   4.500 -0.3789  0.0179  0.2959
  386MOL0     C50862   1.101   3.965   4.394  0.1261 -0.2368 -0.5663
  386MOL0     C50863   0.963   3.981   4.450 -0.3216 -0.4461  0.2939
  386MOL0    Cl50864   0.937   3.853   4.569 -0.3487 -0.0831  0.1250
  386MOL0     C50865   2.029   3.954   4.270 -0.4688  0.3035 -0.6920
  386MOL0     C50866   2.163   3.962   4.273  0.1824 -1.0979 -0.5972
  386MOL0     O50867   2.391   4.305   4.336  0.4031 -0.4157 -0.2438
  386MOL0     C50868   2.667   4.280   4.356 -0.6500  0.9592 -0.2328
  386MOL0     C50869   2.811   4.256   4.358  0.4606 -0.2564  0.1359
  386MOL0     N50870   3.539   4.054   4.341 -0.0925  0.4047  0.1576
  386MOL0     N50871   3.651   4.016   4.276  0.3209  0.0030  0.2292
  386MOL0     C50872   4.906   3.956   4.465 -0.1090 -0.0652 -0.1409
  386MOL0     C50873   5.046   3.977   4.464  0.9381 -0.3764  0.7668
  386MOL0     C50874   5.463   4.138   4.410 -0.2265 -0.7532 -0.8186
  386MOL0     C50875   5.594   4.083   4.392  0.0496 -0.0530 -0.9505
  386MOL0     C50876   5.709   4.153   4.423  0.0179 -0.5392 -0.2779
  386MOL0     C50877   5.710   4.285   4.472 -1.4023  0.4720 -0.2734
  386MOL0     O50878   5.822   4.365   4.505  0.8813 -0.2992  0.8961
  386MOL0     C50879   5.948   4.323   4.448  0.2944 -0.2672  0.0952
  386MOL0     C50880   5.933   4.337   4.295 -1.0707  1.1749 -0.7149
  386MOL0     C50881   5.889   4.474   4.260 -0.3397  0.7601 -0.7083
  386MOL0     C50882   5.914   4.504   4.106 -0.7563  0.3634 -0.7147
  386MOL0     C50883   5.804   4.442   4.030  0.4486 -0.0001 -0.3248
  386MOL0     C50884   5.689   4.412   3.995  0.3708 -0.5754  0.3689
  386MOL0     C50885   5.587   4.335   4.503  0.7744  0.3548  0.2364
  386MOL0     C50886   5.464   4.260   4.481  0.6464 -0.2988 -0.8413
  386MOL0     H50887   5.030   4.271   4.297  0.9935 -0.2560 -0.7061
  386MOL0     H50888   4.792   4.217   4.312 -0.7971 -0.8311  3.7023
  386MOL0     H50889   4.631   3.872   4.553  0.8451  1.1480 -0.6841
  386MOL0     H50890   4.683   3.823   4.380 -0.8079  0.4790 -1.3562
  386MOL0     H50891   4.431   3.797   4.421  1.8572 -0.9770  0.7471
  386MOL0     H50892   4.467   3.938   4.311 -1.7285  0.9717  1.3436
  386MOL0     H50893   4.445   4.092   4.481  2.6966 -0.8995 -3.1256
  386MOL0     H50894   4.395   3.962   4.593 -3.1095  0.9083  0.7108
  386MOL0     H50895   4.261   4.070   4.345 -2.6997 -0.7030 -1.0853
  386MOL0     H50896   4.223   3.907   4.391 -1.8181  0.7664 -0.3882
  386MOL0     H50897   4.166   4.147   4.582 -5.3890 -0.1079  3.7363
  386MOL0     H50898   4.146   3.976   4.613  0.3912 -2.2209 -1.4486
  386MOL0     H50899   3.929   4.074   4.537 -1.1603 -0.8106  0.1128
  386MOL0     H50900   3.983   3.949   4.417 -0.1668  0.6571 -2.0363
  386MOL0     H50901   3.970   4.251   4.396 -1.8497 -0.1914 -1.5651
  386MOL0     H50902   4.080   4.165   4.293  0.7561 -2.5219  0.6146
  386MOL0     H50903   3.913   4.053   4.190  1.6713  3.1424 -1.0472
  386MOL0     H50904   3.867   4.214   4.193  1.5384  0.3552  0.4277
  386MOL0     H50905   3.758   4.257   4.472 -1.4391  1.0452 -1.5839
  386MOL0     H50906   3.505   4.326   4.556 -0.6110  0.1140 -0.6642
  386MOL0     H50907   3.462   4.171   4.619  3.8828 -2.1805 -1.1376
  386MOL0     H50908   3.344   4.302   4.354 -0.3982 -0.6556  0.1197
  386MOL0     H50909   3.268   4.345   4.488 -1.5842  0.0194 -2.2971
  386MOL0     H50910   3.253   4.081   4.379 -0.5006  1.3425 -1.1768
  386MOL0     H50911   3.203   4.093   4.546 -1.9174 -0.6381 -0.4881
  386MOL0     H50912   3.114   4.248   4.297 -3.1066 -0.1221 -1.3064
  386MOL0     H50913   3.048   4.289   4.458 -2.4532 -0.3844  0.1403
  386MOL0     H50914   2.810   3.922   4.317 -0.8766 -0.2299  0.4463
  386MOL0     H50915   2.585   3.951   4.300 -1.2145  0.6407 -1.6551
  386MOL0     H50916   2.182   4.297   4.218 -2.9484  0.9880 -3.0452
  386MOL0     H50917   1.923   4.271   4.237  0.0479 -0.0163  2.6677
  386MOL0     H50918   1.755   4.128   4.052  0.0019  2.7842  0.3388
  386MOL0     H50919   1.725   4.226   4.193  0.5984 -0.2638 -0.5036
  386MOL0     H50920   1.563   3.992   4.107 -0.5273  2.5416 -2.5844
  386MOL0     H50921   1.510   4.159   4.123 -2.3710 -2.3781 -1.4031
  386MOL0     H50922   1.580   4.125   4.384  0.0271 -0.8566  1.9271
  386MOL0     H50923   1.579   3.956   4.341 -1.1717 -0.0043  1.0289
  386MOL0     H50924   1.357   4.143   4.363  1.5142 -0.7147  2.4260
  386MOL0     H50925   1.331   4.021   4.232 -2.4407 -1.0501  1.0448
  386MOL0     H50926   1.420   3.952   4.521 -0.6485 -0.6379  0.1618
  386MOL0     H50927   1.361   3.844   4.400  0.1921 -1.7692  3.5661
  386MOL0     H50928   1.208   4.064   4.552  2.5586 -0.7284  1.8498
  386MOL0     H50929   1.197   3.881   4.567 -1.7081 -1.1725 -1.3615
  386MOL0     H50930   1.118   4.052   4.330  0.0453  1.9556  2.2234
  386MOL0     H50931   1.114   3.872   4.336 -0.4587 -2.1783  2.2371
  386MOL0     H50932   0.889   3.976   4.370 -0.8301 -0.3068  0.7484
  386MOL0     H50933   0.959   4.082   4.492  2.0257 -0.9534  2.0078
  386MOL0     H50934   1.981   3.857   4.266  0.0956 -0.1082  1.3132
  386MOL0     H50935   2.227   3.878   4.299  1.0629 -0.1543  0.3518
  386MOL0     H50936   2.631   4.382   4.365 -0.9975  0.7086  1.4275
  386MOL0     H50937   2.883   4.337   4.350  0.9674 -0.7735 -0.6167
  386MOL0     H50938   4.877   3.860   4.507 -0.6521 -0.0961 -0.5749
  386MOL0     H50939   5.121   3.908   4.499  4.1516  1.4111 -1.9875
  386MOL0     H50940   5.599   3.987   4.342  2.2346  0.9856 -2.8904
  386MOL0     H50941   5.803   4.100   4.412  0.7643  0.9123 -1.1958
  386MOL0     H50942   5.989   4.227   4.480 -1.6649 -0.8452  1.0155
  386MOL0     H50943   6.029   4.388   4.483 -0.8022  1.5521 -0.5789
  386MOL0     H50944   6.036   4.335   4.259 -1.6353  2.7639 -2.6002
  386MOL0     H50945   5.892   4.250   4.242  0.9873 -0.3528  0.0544
  386MOL0     H50946   5.960   4.540   4.311  1.0949 -1.8517  0.8983
  386MOL0     H50947   5.783   4.496   4.278 -1.0737 -2.5793 -0.2305
  386MOL0     H50948   5.903   4.607   4.073 -1.2453 -0.4974 -3.5009
  386MOL0     H50949   6.019   4.477   4.088  1.0144  4.5907  1.9014
  386MOL0     H50950   5.587   4.412   3.962  1.1247  1.3208 -2.3727
  386MOL0     H50951   5.580   4.434   4.547 -1.6080 -0.7704  2.7079
  386MOL0     H50952   5.375   4.317   4.509  1.6829  0.2486  1.5829
  387MOL0     O50953   8.378   6.883   8.516 -0.4573  0.0054 -0.0989
  387MOL0     C50954   8.479   6.914   8.447  0.3988 -0.3534 -0.2710
  387MOL0     O50955   8.473   7.001   8.345  0.5971  0.4069  0.7040
  387MOL0     C50956   8.352   7.037   8.282  0.2376 -0.3011  0.1976
  387MOL0     C50957   8.245   6.946   8.267 -0.7121 -1.0594 -1.2995
  387MOL0     C50958   8.135   6.990   8.191 -0.1617 -0.8355 -0.2658
  387MOL0     C50959   8.130   7.125   8.155 -0.6369 -0.2840 -0.0453
  387MOL0     O50960   8.025   7.178   8.092 -0.0619 -0.3343  0.5934
  387MOL0     C50961   7.974   7.130   7.962 -0.6123  0.0256  0.2035
  387MOL0     C50962   7.851   7.031   7.967 -0.4768  0.8723 -0.5503
  387MOL0     C50963   7.745   7.084   8.074 -0.0646 -0.1315 -0.2051
  387MOL0     C50964   7.615   6.996   8.085 -0.6143 -0.0369  0.3700
  387MOL0     C50965   7.513   7.056   8.179  0.2953  0.4016 -0.2292
  387MOL0     C50966   7.570   7.096   8.318  0.3381  0.3552  0.0237
  387MOL0     C50967   7.466   7.131   8.420  0.1288  0.6175 -0.3285
  387MOL0     C50968   7.399   7.269   8.399 -0.6204  0.8525  0.3667
  387MOL0     N50969   7.308   7.308   8.507 -0.4109  0.6657 -0.4428
  387MOL0     C50970   7.176   7.269   8.518  0.6570 -0.5894  0.1594
  387MOL0     C50971   7.138   7.302   8.646  0.8935 -0.3883  1.0949
  387MOL0     C50972   7.012   7.289   8.716  0.1974  1.5318 -0.2685
  387MOL0     C50973   6.980   7.146   8.745 -0.3525  0.3970 -0.4371
  387MOL0     C50974   6.855   7.122   8.841 -0.2550 -0.6136  0.7706
  387MOL0     C50975   6.835   6.967   8.853 -0.0148  0.1079  0.5189
  387MOL0     O50976   6.743   6.932   8.749  0.6598  0.8142 -0.8298
  387MOL0     C50977   6.610   6.969   8.748 -0.3213  0.1042  0.2339
  387MOL0     C50978   6.550   6.969   8.622  0.7816 -0.6733 -0.6336
  387MOL0     C50979   6.413   7.011   8.606 -0.4570  0.0975  0.4380
  387MOL0     C50980   6.340   7.025   8.722  1.2229  0.4992 -0.3864
  387MOL0     C50981   6.192   7.028   8.707  0.1444  0.3036  0.2574
  387MOL0     O50982   6.114   7.043   8.824 -0.1952 -0.4755 -0.1484
  387MOL0     C50983   5.981   7.072   8.817  0.0348  0.1183  0.2150
  387MOL0     C50984   5.931   7.179   8.890  0.0152 -0.0783 -0.0586
  387MOL0     C50985   5.796   7.206   8.897  0.1782 -0.3179  0.6073
  387MOL0     C50986   5.706   7.123   8.841  0.4104  0.6064 -0.1414
  387MOL0     O50987   5.575   7.149   8.878 -0.2166 -0.5796 -0.9863
  387MOL0     C50988   5.465   7.097   8.805  0.5094  0.1000  0.0727
  387MOL0     C50989   5.325   7.157   8.831  0.5458 -0.7650 -1.4139
  387MOL0     C50990   5.272   7.120   8.976 -0.3838  0.2317 -0.0084
  387MOL0     C50991   5.129   7.179   9.001  0.1768  0.2060 -0.0095
  387MOL0     C50992   5.019   7.083   8.947  1.2123  0.8311 -0.1383
  387MOL0     C50993   4.891   7.151   8.908  0.9994 -1.4481  0.2773
  387MOL0     C50994   4.845   7.259   9.010  0.3209 -0.4474 -0.4840
  387MOL0     C50995   4.698   7.305   8.998  0.0401  0.3913 -0.5155
  387MOL0    Cl50996   4.648   7.436   9.115  0.0944 -0.2887 -0.0846
  387MOL0     C50997   5.743   7.004   8.782  0.8319  0.9481 -0.5015
  387MOL0     C50998   5.886   6.981   8.774 -0.3403 -0.1414 -0.0000
  387MOL0     O50999   6.150   7.029   8.585  0.0000  0.4254  0.4225
  387MOL0     C51000   6.402   7.014   8.851  0.5745 -0.7236 -0.7458
  387MOL0     C51001   6.536   7.004   8.854  0.0540  0.5363 -0.2035
  387MOL0     N51002   7.254   7.361   8.706 -0.1426 -0.2307  0.3618
  387MOL0     N51003   7.357   7.352   8.629  0.4700 -0.2903  0.1965
  387MOL0     C51004   8.231   7.215   8.169 -0.2505  0.4047  0.0283
  387MOL0     C51005   8.350   7.162   8.224  0.5431  0.0070  0.6300
  387MOL0     C51006   8.603   6.856   8.471 -0.5608  0.1288  0.3131
  387MOL0     C51007   8.615   6.743   8.554  0.8686  0.1335  0.9791
  387MOL0     C51008   8.745   6.689   8.582  0.1735  0.3475  0.1970
  387MOL0     C51009   8.866   6.748   8.536 -0.2703  1.0308  0.9237
  387MOL0     O51010   8.984   6.684   8.573  0.4130  0.7342 -0.0921
  387MOL0     C51011   9.107   6.718   8.515  0.3121 -0.2013  0.4288
  387MOL0     C51012   9.164   6.852   8.549 -0.9152 -0.0702 -0.1014
  387MOL0     C51013   9.287   6.876   8.467  0.3997  0.4507  0.5720
  387MOL0     C51014   9.263   6.963   8.349  1.0719 -0.0073 -0.3372
  387MOL0     C51015   9.193   6.898   8.241  1.2851 -0.9359  0.7608
  387MOL0     C51016   9.139   6.848   8.152  0.3542 -0.8172  0.4819
  387MOL0     C51017   8.858   6.855   8.447 -0.7719 -0.2316 -0.2258
  387MOL0     C51018   8.728   6.911   8.421 -0.2558  0.0597  0.0340
  387MOL0     H51019   8.260   6.845   8.305  0.5532 -0.5979 -0.5039
  387MOL0     H51020   8.061   6.913   8.171 -2.0069  0.8743 -0.3181
  387MOL0     H51021   8.046   7.089   7.890 -2.4361 -2.4468 -0.3659
  387MOL0     H51022   7.928   7.218   7.915 -2.4873 -1.6031 -1.2313
  387MOL0     H51023   7.881   6.932   8.002 -4.3455 -0.7652 -1.3614
  387MOL0     H51024   7.802   7.013   7.871 -0.3358 -0.9693 -0.3142
  387MOL0     H51025   7.711   7.183   8.041  1.7389  0.8159  0.6485
  387MOL0     H51026   7.791   7.097   8.172 -0.3049  0.3695 -0.1579
  387MOL0     H51027   7.558   6.988   7.992 -0.2320  0.9667  0.0336
  387MOL0     H51028   7.631   6.891   8.107 -0.6414  0.2027  1.6130
  387MOL0     H51029   7.436   6.980   8.198  1.0496 -0.0848  1.0257
  387MOL0     H51030   7.464   7.142   8.133  2.2881  1.0559 -1.2286
  387MOL0     H51031   7.650   7.171   8.314  0.2524  0.4450 -0.0078
  387MOL0     H51032   7.615   7.004   8.356 -1.1488 -0.3409  0.1619
  387MOL0     H51033   7.383   7.060   8.425  0.2573  0.5441  1.3202
  387MOL0     H51034   7.506   7.135   8.522  0.6105  0.4417 -0.5080
  387MOL0     H51035   7.351   7.264   8.300 -3.3066 -2.6482  1.6260
  387MOL0     H51036   7.490   7.329   8.400  2.6718 -3.5749 -0.5856
  387MOL0     H51037   7.109   7.223   8.444  0.0485 -1.4885  1.2367
  387MOL0     H51038   6.933   7.332   8.653  0.0794  0.3081 -0.9892
  387MOL0     H51039   7.015   7.346   8.810  3.2813 -3.5762  3.2786
  387MOL0     H51040   7.066   7.099   8.793  1.8693  1.6165 -2.9350
  387MOL0     H51041   6.975   7.087   8.652 -1.6394 -0.5316  0.1864
  387MOL0     H51042   6.870   7.161   8.942 -2.0438  0.6835  0.5732
  387MOL0     H51043   6.774   7.182   8.799  1.4395  1.1563 -0.1610
  387MOL0     H51044   6.792   6.945   8.951  1.2674 -1.1977  0.8209
  387MOL0     H51045   6.924   6.905   8.848  0.2363  0.4086  1.1105
  387MOL0     H51046   6.597   6.947   8.526 -0.5910 -0.1103 -1.4609
  387MOL0     H51047   6.375   7.006   8.505  1.8334  0.2303 -0.4786
  387MOL0     H51048   6.003   7.250   8.929 -1.8321  1.7618  0.1968
  387MOL0     H51049   5.760   7.302   8.932  1.0991  0.1550  0.3082
  387MOL0     H51050   5.458   6.993   8.836 -0.0334 -0.0981 -0.6778
  387MOL0     H51051   5.495   7.102   8.700  1.5420  2.8404  0.4115
  387MOL0     H51052   5.262   7.097   8.765  0.7143 -0.5484 -1.7743
  387MOL0     H51053   5.324   7.264   8.806  0.9461  0.1532  1.9611
  387MOL0     H51054   5.339   7.163   9.050  0.2122 -0.9273  0.1362
  387MOL0     H51055   5.281   7.012   8.986 -0.9762  0.1506 -0.3100
  387MOL0     H51056   5.105   7.182   9.108  0.7769  1.4319  0.1088
  387MOL0     H51057   5.133   7.281   8.962  1.0615  0.5086  0.8303
  387MOL0     H51058   4.994   7.008   9.022 -1.1428  2.0155  0.3713
  387MOL0     H51059   5.048   7.028   8.857  3.6257  2.0967 -0.2248
  387MOL0     H51060   4.808   7.080   8.898 -0.7330  0.8040 -3.2270
  387MOL0     H51061   4.899   7.200   8.811 -3.4777 -1.7028 -0.4449
  387MOL0     H51062   4.852   7.202   9.103  0.0389  0.8114  0.3361
  387MOL0     H51063   4.912   7.345   9.011 -0.9609  0.5777 -0.1098
  387MOL0     H51064   4.649   7.208   9.006  2.5746 -1.4185 -3.8653
  387MOL0     H51065   4.676   7.352   8.901 -2.7566  3.1078  1.2719
  387MOL0     H51066   5.666   6.945   8.734 -0.3180  0.9377  1.2753
  387MOL0     H51067   5.921   6.885   8.737  0.8978  0.7152 -1.1597
  387MOL0     H51068   6.347   7.023   8.944  0.9747  1.7235 -0.6692
  387MOL0     H51069   6.595   7.014   8.944  0.0233 -0.2436 -0.0888
  387MOL0     H51070   8.214   7.311   8.121 -2.2365  0.3364  0.5049
  387MOL0     H51071   8.437   7.225   8.235  1.1900 -0.4073 -1.6839
  387MOL0     H51072   8.524   6.693   8.583 -0.0381  0.6783 -0.8035
  387MOL0     H51073   8.747   6.602   8.646  0.4722 -0.1876 -0.5338
  387MOL0     H51074   9.100   6.714   8.406  1.7006  3.8718  0.0166
  387MOL0     H51075   9.183   6.645   8.546 -0.6182 -2.1372 -1.5670
  387MOL0     H51076   9.089   6.931   8.540  0.6847  1.4451 -0.6900
  387MOL0     H51077   9.184   6.844   8.657  0.4249 -4.7806 -0.4610
  387MOL0     H51078   9.326   6.783   8.425 -1.7196 -0.0221 -0.4562
  387MOL0     H51079   9.360   6.922   8.534 -1.6001  2.2880  1.6303
  387MOL0     H51080   9.218   7.058   8.380  0.5039  0.7711 -3.2412
  387MOL0     H51081   9.363   6.995   8.319  0.1296  1.4271 -2.1119
  387MOL0     H51082   9.088   6.804   8.068 -0.2012  1.6764 -0.6179
  387MOL0     H51083   8.944   6.895   8.394 -0.6716 -0.1830 -0.0270
  387MOL0     H51084   8.723   6.992   8.349  0.6564  1.4601  1.4732
  388MOL0     O51085   9.245  10.198   0.793 -0.0124 -0.3180 -0.6914
  388MOL0     C51086   9.223  10.165   0.914  0.3974  0.0548 -0.4585
  388MOL0     O51087   9.315  10.103   1.001 -0.4163  0.0080 -0.7524
  388MOL0     C51088   9.443  10.083   0.956  0.7752 -0.7534  0.5705
  388MOL0     C51089   9.537  10.175   1.003  0.0600  0.0529 -0.7852
  388MOL0     C51090   9.671  10.144   0.979  0.0546  0.5827  0.4561
  388MOL0     C51091   9.712  10.040   0.900  0.3162  0.2068  0.0916
  388MOL0     O51092   9.851  10.019   0.894  0.3299 -0.4066  0.0078
  388MOL0     C51093   9.898   9.909   0.811 -0.3553  0.2617  0.1788
  388MOL0     C51094  10.043   9.924   0.784  0.6412 -0.7562 -0.0322
  388MOL0     C51095  10.080  10.060   0.715 -0.8236 -0.2282 -1.1501
  388MOL0     C51096  10.229  10.091   0.712  0.9143 -0.2812 -0.0533
  388MOL0     C51097  10.253  10.234   0.769 -0.0369 -0.6269 -0.1275
  388MOL0     C51098  10.223  10.342   0.665  0.3661  0.0002  0.2086
  388MOL0     C51099  10.250  10.483   0.726  0.0966  0.2170 -0.0971
  388MOL0     C51100  10.312  10.573   0.621  0.1987 -0.1559 -0.0278
  388MOL0     N51101  10.212  10.598   0.517  0.2023  0.5339  0.5031
  388MOL0     C51102  10.202  10.525   0.396 -1.5937  0.3970 -0.2475
  388MOL0     C51103  10.102  10.598   0.333 -0.4306  0.1057 -0.6228
  388MOL0     C51104  10.049  10.569   0.202 -0.1283 -0.3721 -0.0165
  388MOL0     C51105   9.909  10.492   0.220  0.3508 -0.1701 -0.6673
  388MOL0     C51106   9.863  10.429   0.093 -0.2269 -0.3196 -0.2176
  388MOL0     C51107   9.731  10.351   0.116  0.6288  1.6958 -0.0435
  388MOL0     O51108   9.666  10.321  -0.013 -0.2935 -0.7101 -0.5790
  388MOL0     C51109   9.532  10.281  -0.014  0.2238 -1.0415  0.0592
  388MOL0     C51110   9.474  10.275  -0.143  0.6081 -0.7025  0.0454
  388MOL0     C51111   9.338  10.243  -0.158 -0.2116  0.3846  0.1048
  388MOL0     C51112   9.252  10.219  -0.038 -0.5975  0.6091  0.0802
  388MOL0     C51113   9.103  10.179  -0.039  0.0493  0.6075 -0.4201
  388MOL0     O51114   9.044  10.151   0.083 -0.2112 -0.3159  0.8602
  388MOL0     C51115   8.917  10.110   0.072 -0.5541 -0.9741  0.3225
  388MOL0     C51116   8.818  10.203   0.039  0.5525  0.8364  0.4449
  388MOL0     C51117   8.684  10.159   0.020  0.4689 -0.8274  0.5445
  388MOL0     C51118   8.648  10.027   0.040 -1.1493  0.3529 -0.2752
  388MOL0     O51119   8.512  10.000   0.025  0.5167 -0.2191 -0.9962
  388MOL0     C51120   8.479   9.854   0.022 -0.1091 -0.9838  0.8613
  388MOL0     C51121   8.334   9.842  -0.014  0.5661  0.7893 -0.5997
  388MOL0     C51122   8.326   9.855  -0.176  0.4003  0.1896 -0.4317
  388MOL0     C51123   8.191   9.812  -0.233  1.0111  0.7491  0.5372
  388MOL0     C51124   8.177   9.789  -0.383  0.8923  0.6521  0.2167
  388MOL0     C51125   8.061   9.704  -0.423  0.0603  0.0460  0.2332
  388MOL0     C51126   8.048   9.697  -0.576 -0.3262 -0.3373 -0.4664
  388MOL0     C51127   7.922   9.623  -0.623  0.1322  0.1420  0.2717
  388MOL0    Cl51128   7.916   9.462  -0.558 -0.5082 -0.1656  0.3429
  388MOL0     C51129   8.751   9.935   0.084 -0.1149  0.2333  0.0651
  388MOL0     C51130   8.885   9.979   0.091  0.0661 -0.3782 -0.1220
  388MOL0     O51131   9.052  10.154  -0.151 -0.6687 -0.6212  0.5689
  388MOL0     C51132   9.317  10.224   0.088  0.0263  0.5752  0.0540
  388MOL0     C51133   9.456  10.257   0.097 -0.0755 -0.3540  0.3373
  388MOL0     N51134  10.052  10.690   0.419 -0.1753 -0.1097  0.0879
  388MOL0     N51135  10.124  10.700   0.527  0.3419 -0.0914  0.5277
  388MOL0     C51136   9.614   9.952   0.852 -0.0921 -0.5989  0.8412
  388MOL0     C51137   9.473   9.972   0.876 -1.4179 -0.6568  1.0565
  388MOL0     C51138   9.097  10.207   0.967  0.6003 -0.1816  0.1283
  388MOL0     C51139   9.051  10.184   1.096 -0.5112  0.3220 -0.7530
  388MOL0     C51140   8.944  10.247   1.153  1.0244  0.4795  0.4801
  388MOL0     C51141   8.865  10.342   1.089  0.2850 -0.8268 -0.0123
  388MOL0     O51142   8.753  10.407   1.130 -0.0752  0.4125  0.3674
  388MOL0     C51143   8.691  10.365   1.251 -0.0270 -0.1540 -0.5893
  388MOL0     C51144   8.562  10.439   1.284  0.4138 -0.3308  0.3924
  388MOL0     C51145   8.578  10.587   1.275 -0.1247 -1.2947  0.9382
  388MOL0     C51146   8.451  10.667   1.238 -0.2441 -0.2351 -0.1996
  388MOL0     C51147   8.331  10.624   1.323 -0.2449  1.0869 -0.0920
  388MOL0     C51148   8.229  10.623   1.385  0.5084  0.1903  0.5465
  388MOL0     C51149   8.901  10.361   0.958 -0.0330 -0.0702 -0.8533
  388MOL0     C51150   9.011  10.295   0.896 -0.4036  0.2604 -0.2532
  388MOL0     H51151   9.517  10.258   1.069 -2.8351  0.1762 -1.6411
  388MOL0     H51152   9.753  10.199   1.026  1.9711 -1.1141 -0.7192
  388MOL0     H51153   9.847   9.902   0.714  0.0928 -3.7479  0.0476
  388MOL0     H51154   9.883   9.811   0.857  0.4224  0.3412  0.6246
  388MOL0     H51155  10.073   9.847   0.712  0.4382  0.6947 -1.7435
  388MOL0     H51156  10.095   9.910   0.879 -0.6587  0.0411  0.8320
  388MOL0     H51157  10.040  10.138   0.780  1.2180 -0.7238  0.8190
  388MOL0     H51158  10.036  10.077   0.616 -2.7845  1.6304 -0.0443
  388MOL0     H51159  10.268  10.018   0.784 -3.1595 -2.8158 -0.1073
  388MOL0     H51160  10.267  10.092   0.610  4.3048  1.0269  1.0721
  388MOL0     H51161  10.360  10.235   0.794 -0.7200  1.9865  3.6149
  388MOL0     H51162  10.197  10.253   0.861 -1.2298  0.2665 -1.0161
  388MOL0     H51163  10.121  10.325   0.627  0.1978 -0.1922  0.7422
  388MOL0     H51164  10.285  10.315   0.579  0.9421  1.9193 -0.0138
  388MOL0     H51165  10.164  10.538   0.766 -0.1316 -0.5017  0.4274
  388MOL0     H51166  10.327  10.469   0.802  0.9764 -0.5472 -1.1094
  388MOL0     H51167  10.402  10.523   0.585  0.9066  1.1421 -0.0764
  388MOL0     H51168  10.344  10.666   0.668  1.0148 -0.0080 -0.8537
  388MOL0     H51169  10.268  10.449   0.356 -0.8047 -0.2533  2.1451
  388MOL0     H51170  10.118  10.514   0.138 -1.6901 -1.9249 -0.4678
  388MOL0     H51171  10.021  10.667   0.162 -0.1340 -0.1875  0.4405
  388MOL0     H51172   9.828  10.552   0.262 -2.8006 -2.4377 -3.0494
  388MOL0     H51173   9.923  10.410   0.292 -1.0459  0.3267  0.2171
  388MOL0     H51174   9.832  10.513   0.031 -4.8629  1.8558  4.2993
  388MOL0     H51175   9.945  10.370   0.051  2.4869  3.1295 -0.1589
  388MOL0     H51176   9.658  10.413   0.169 -1.2747 -0.0019 -0.5733
  388MOL0     H51177   9.748  10.258   0.172 -0.1194  1.4593 -0.2017
  388MOL0     H51178   9.531  10.309  -0.229  0.6922  2.6946  1.3014
  388MOL0     H51179   9.288  10.223  -0.253 -2.6239  2.3125  0.8634
  388MOL0     H51180   8.838  10.306   0.012 -1.0567  0.9874 -0.3109
  388MOL0     H51181   8.600  10.216  -0.018  0.5195 -2.3075 -1.9732
  388MOL0     H51182   8.505   9.818   0.121  0.6929 -3.0631 -0.0498
  388MOL0     H51183   8.544   9.798  -0.046 -0.4899  0.9070 -1.1690
  388MOL0     H51184   8.276   9.922   0.033 -1.0731  0.4005 -1.8622
  388MOL0     H51185   8.314   9.743   0.026  2.1441  0.4625 -0.5337
  388MOL0     H51186   8.396   9.783  -0.219 -0.5922 -0.3845 -1.1516
  388MOL0     H51187   8.339   9.960  -0.203 -0.2580  1.2626  2.9456
  388MOL0     H51188   8.172   9.720  -0.178 -4.2249  1.9563  1.2673
  388MOL0     H51189   8.110   9.876  -0.198 -0.3628 -0.6681  0.0224
  388MOL0     H51190   8.270   9.742  -0.418 -0.4007 -2.8106  1.0815
  388MOL0     H51191   8.170   9.885  -0.436 -1.8951 -1.1579 -3.0812
  388MOL0     H51192   7.969   9.747  -0.382 -0.5752  0.1541 -1.2487
  388MOL0     H51193   8.062   9.602  -0.383  1.8763  0.1856  0.6578
  388MOL0     H51194   8.054   9.799  -0.615  0.2440  0.4182  1.4617
  388MOL0     H51195   8.137   9.655  -0.625  1.0195  1.2485  0.4830
  388MOL0     H51196   7.936   9.620  -0.731  1.3842 -0.8401  0.4310
  388MOL0     H51197   7.832   9.678  -0.594  0.6117  0.3905  1.3190
  388MOL0     H51198   8.736   9.830   0.107 -0.0138  0.6405  2.1228
  388MOL0     H51199   8.964   9.909   0.117  2.3115  2.4296  1.0783
  388MOL0     H51200   9.267  10.204   0.182 -1.1230 -2.6753 -1.1149
  388MOL0     H51201   9.506  10.251   0.193 -0.2153  2.8502  0.7104
  388MOL0     H51202   9.645   9.871   0.787 -0.6174 -0.6127  0.6055
  388MOL0     H51203   9.393   9.911   0.837 -0.9644 -0.3650 -0.4117
  388MOL0     H51204   9.102  10.104   1.148  0.8725  1.0241 -0.9754
  388MOL0     H51205   8.915  10.213   1.252 -0.6490  0.6589  0.0808
  388MOL0     H51206   8.764  10.387   1.329 -0.0783 -1.1981 -0.2283
  388MOL0     H51207   8.658  10.261   1.256 -1.5961  0.3234 -0.6125
  388MOL0     H51208   8.483  10.406   1.216 -1.1923  0.8412  1.6053
  388MOL0     H51209   8.526  10.416   1.385  1.8731  2.1425  1.5693
  388MOL0     H51210   8.660  10.624   1.213 -0.4797 -2.2398 -0.1368
  388MOL0     H51211   8.606  10.615   1.377  1.5942 -0.1577  0.2129
  388MOL0     H51212   8.461  10.776   1.242  1.0820 -0.3618  0.4405
  388MOL0     H51213   8.429  10.648   1.132 -0.0560 -1.9831  0.0477
  388MOL0     H51214   8.135  10.622   1.436 -0.1380 -2.0307 -0.5471
  388MOL0     H51215   8.848  10.421   0.884 -3.0021 -2.6750 -1.0579
  388MOL0     H51216   9.031  10.322   0.793 -3.2742 -2.6586 -1.7784
  389MOL0     O51217   1.607   4.761   7.045  0.0876 -0.7913  0.0131
  389MOL0     C51218   1.625   4.873   7.091  0.0915  0.2191 -0.5122
  389MOL0     O51219   1.533   4.954   7.143 -0.2542  0.5814  0.2541
  389MOL0     C51220   1.409   4.908   7.146  0.7352  0.4952 -0.2972
  389MOL0     C51221   1.341   4.851   7.253 -0.9654 -0.4786 -0.9201
  389MOL0     C51222   1.210   4.821   7.250 -0.0733 -0.1023 -0.0158
  389MOL0     C51223   1.136   4.850   7.137  0.9883  0.5363 -0.0667
  389MOL0     O51224   1.001   4.834   7.132 -0.7372 -0.1781 -0.2866
  389MOL0     C51225   0.919   4.938   7.165  0.6916  0.0496  0.3756
  389MOL0     C51226   0.777   4.914   7.111  0.1076  0.4863  0.3241
  389MOL0     C51227   0.680   5.027   7.149 -0.0916  0.5764  0.3051
  389MOL0     C51228   0.542   4.989   7.083  0.4994  0.2857  0.8223
  389MOL0     C51229   0.461   5.111   7.062 -0.4030  0.0700 -0.6370
  389MOL0     C51230   0.329   5.063   6.991  0.8981  0.0579 -0.1710
  389MOL0     C51231   0.223   5.170   6.993 -0.8398  0.1822  0.3649
  389MOL0     C51232   0.089   5.129   6.932  0.8708 -1.1064  0.1610
  389MOL0     N51233  -0.002   5.244   6.934  0.8713  1.0679 -0.4646
  389MOL0     C51234   0.027   5.369   6.896 -0.8668 -0.5397 -0.0730
  389MOL0     C51235  -0.091   5.437   6.908 -0.2738  0.8426  0.6539
  389MOL0     C51236  -0.105   5.570   6.843  0.4596 -1.3174  0.2827
  389MOL0     C51237  -0.237   5.634   6.874 -0.0418 -0.2128  0.0232
  389MOL0     C51238  -0.344   5.576   6.787 -0.0802 -0.0141 -0.2749
  389MOL0     C51239  -0.480   5.645   6.809  0.5805  0.7894 -0.1520
  389MOL0     O51240  -0.564   5.578   6.709  0.3255  0.5181  0.0213
  389MOL0     C51241  -0.637   5.651   6.619  0.0023  0.0495  0.6082
  389MOL0     C51242  -0.637   5.621   6.487  0.5679 -0.2476  0.8641
  389MOL0     C51243  -0.732   5.680   6.401 -0.2372 -0.2219  0.4783
  389MOL0     C51244  -0.828   5.775   6.444 -0.2626  0.1522  0.0154
  389MOL0     C51245  -0.939   5.824   6.361 -0.8518 -0.4881 -0.0060
  389MOL0     O51246  -1.005   5.937   6.403  0.2284  0.6568 -0.2670
  389MOL0     C51247  -1.115   5.989   6.334  0.4873 -0.2339 -0.5630
  389MOL0     C51248  -1.199   6.068   6.408 -0.3201  0.3818 -0.5647
  389MOL0     C51249  -1.313   6.110   6.356 -0.6984 -0.5470  0.5092
  389MOL0     C51250  -1.347   6.085   6.221 -0.2679 -0.4509  0.6837
  389MOL0     O51251  -1.475   6.131   6.179 -0.5618  0.7328  0.2988
  389MOL0     C51252  -1.525   6.089   6.052  0.0078  0.9752  0.2982
  389MOL0     C51253  -1.651   6.168   6.021  0.0816  0.1791  0.3155
  389MOL0     C51254  -1.768   6.142   6.123 -0.9324  0.3051  0.5223
  389MOL0     C51255  -1.894   6.209   6.076 -0.2313  0.3580 -0.0904
  389MOL0     C51256  -1.994   6.202   6.194  0.0037  0.1686 -0.3398
  389MOL0     C51257  -1.959   6.310   6.296 -0.5727  0.1044 -0.1421
  389MOL0     C51258  -2.063   6.319   6.403 -0.4896  0.5775  0.6276
  389MOL0     C51259  -2.173   6.412   6.359  0.4057  0.0292 -0.2633
  389MOL0    Cl51260  -2.288   6.392   6.497  0.1138 -0.2918 -0.4712
  389MOL0     C51261  -1.266   6.008   6.145  0.2915  0.5663  0.4456
  389MOL0     C51262  -1.147   5.965   6.199 -0.2376 -0.0785  0.3798
  389MOL0     O51263  -0.967   5.759   6.259  0.2433  0.3398  0.3036
  389MOL0     C51264  -0.816   5.812   6.578  0.6175 -0.4437  0.5053
  389MOL0     C51265  -0.722   5.758   6.658  0.2232 -0.4745  0.2400
  389MOL0     N51266  -0.181   5.357   6.980 -0.0152 -0.3870  0.0412
  389MOL0     N51267  -0.127   5.243   7.001 -0.4240 -0.1048  1.0782
  389MOL0     C51268   1.204   4.903   7.023  1.0606  0.0215  0.0997
  389MOL0     C51269   1.346   4.920   7.026 -0.3161 -0.5284 -0.3172
  389MOL0     C51270   1.766   4.924   7.085  0.3485  0.0951  0.1254
  389MOL0     C51271   1.804   5.047   7.133  0.8149 -0.1743 -0.5077
  389MOL0     C51272   1.938   5.090   7.123 -0.2248  0.4355  0.9845
  389MOL0     C51273   2.037   5.027   7.053  0.0577 -0.2403  1.1058
  389MOL0     O51274   2.162   5.086   7.033  0.0090  0.6983 -0.4937
  389MOL0     C51275   2.268   4.995   6.989 -0.4667  1.7025  0.6978
  389MOL0     C51276   2.390   5.081   6.981 -0.9849 -0.3364 -0.0419
  389MOL0     C51277   2.525   5.024   6.943 -0.8668  0.5223 -0.8443
  389MOL0     C51278   2.572   4.916   7.048  0.2225  0.5505 -0.2375
  389MOL0     C51279   2.693   4.848   6.989  0.4611 -0.4643  0.0603
  389MOL0     C51280   2.791   4.796   6.953 -0.2115  0.0457  0.1821
  389MOL0     C51281   2.004   4.899   6.995  0.0219 -0.8566  0.0922
  389MOL0     C51282   1.873   4.850   7.013  1.0847  0.1782 -0.3120
  389MOL0     H51283   1.392   4.836   7.348  1.7904 -1.3151 -2.4077
  389MOL0     H51284   1.161   4.782   7.339 -0.5169  0.1926 -0.1234
  389MOL0     H51285   0.947   5.039   7.133  0.4658  0.1962  0.6456
  389MOL0     H51286   0.916   4.948   7.274 -1.3972 -0.2688  0.3888
  389MOL0     H51287   0.736   4.824   7.157 -0.5888  1.0393  0.8034
  389MOL0     H51288   0.781   4.908   7.002  0.7162 -1.5205  0.4230
  389MOL0     H51289   0.720   5.123   7.115 -1.6748  0.3599 -2.4218
  389MOL0     H51290   0.671   5.028   7.258  0.6387  1.4769  0.3729
  389MOL0     H51291   0.548   4.946   6.983 -1.2115 -0.4627  1.0164
  389MOL0     H51292   0.485   4.926   7.152  0.0323  0.6319  0.7598
  389MOL0     H51293   0.507   5.186   6.998  0.8282 -1.0386 -1.0912
  389MOL0     H51294   0.444   5.162   7.157  0.7037 -1.7270  0.5822
  389MOL0     H51295   0.284   4.985   7.054 -1.0675 -0.6143 -2.2718
  389MOL0     H51296   0.363   5.017   6.898 -0.2050 -4.8312  1.5288
  389MOL0     H51297   0.219   5.205   7.097 -0.0118 -1.3806  0.9576
  389MOL0     H51298   0.263   5.259   6.944  0.6789 -0.1706  0.9096
  389MOL0     H51299   0.040   5.042   6.976 -0.9638 -1.1372 -1.7691
  389MOL0     H51300   0.105   5.110   6.825 -1.0143  1.7376 -0.7444
  389MOL0     H51301   0.118   5.406   6.851 -1.1532 -0.7835 -0.8654
  389MOL0     H51302  -0.107   5.555   6.735 -2.7604 -2.6867  0.4240
  389MOL0     H51303  -0.025   5.636   6.879 -0.8097 -0.3608  1.5018
  389MOL0     H51304  -0.239   5.741   6.849 -1.1285 -0.4084 -0.8174
  389MOL0     H51305  -0.272   5.631   6.978 -2.9879 -0.1209 -0.8693
  389MOL0     H51306  -0.308   5.577   6.684 -1.0979  1.2228 -0.6568
  389MOL0     H51307  -0.364   5.473   6.817  2.2983 -1.1690 -2.2817
  389MOL0     H51308  -0.476   5.751   6.783  0.2957  0.8682  0.1235
  389MOL0     H51309  -0.504   5.633   6.915  2.4161 -1.2197  0.1119
  389MOL0     H51310  -0.565   5.548   6.452 -0.2727 -1.1805  1.0346
  389MOL0     H51311  -0.726   5.651   6.296  3.0057  0.1366  0.4693
  389MOL0     H51312  -1.171   6.098   6.509 -0.7006  1.6335 -0.8108
  389MOL0     H51313  -1.385   6.164   6.417 -1.1591  0.0867 -0.5602
  389MOL0     H51314  -1.543   5.982   6.052  0.1858  0.9409 -0.8659
  389MOL0     H51315  -1.453   6.107   5.972  2.1290 -2.7842  1.1466
  389MOL0     H51316  -1.677   6.137   5.919 -0.7609 -2.1481  1.1736
  389MOL0     H51317  -1.622   6.274   6.018 -0.6105  0.4781  2.5932
  389MOL0     H51318  -1.734   6.176   6.221 -0.4418  1.7969 -0.1441
  389MOL0     H51319  -1.786   6.034   6.135 -1.0775  0.3260  0.4953
  389MOL0     H51320  -1.874   6.313   6.048  0.8239  0.0812 -0.4193
  389MOL0     H51321  -1.931   6.148   5.993 -0.0331 -0.0120  0.0924
  389MOL0     H51322  -1.994   6.105   6.244 -1.0359  0.3796  0.1126
  389MOL0     H51323  -2.098   6.214   6.161  0.2027  0.7555 -0.7551
  389MOL0     H51324  -1.956   6.408   6.246  1.4788  1.4097  2.3147
  389MOL0     H51325  -1.860   6.292   6.338 -0.6422 -0.7271 -0.3153
  389MOL0     H51326  -2.108   6.224   6.434 -1.6498  1.1127  0.6374
  389MOL0     H51327  -2.011   6.361   6.490 -2.9691  3.7083  0.7608
  389MOL0     H51328  -2.223   6.382   6.266  0.7515  2.3218 -1.2636
  389MOL0     H51329  -2.131   6.513   6.355  3.9547 -1.3698 -2.2670
  389MOL0     H51330  -1.299   5.973   6.047 -0.1176 -0.8108  1.0528
  389MOL0     H51331  -1.076   5.911   6.137  0.0374 -2.2326  2.4113
  389MOL0     H51332  -0.891   5.875   6.626 -0.4253 -1.2467 -0.0299
  389MOL0     H51333  -0.732   5.794   6.760  0.1936  3.0367 -0.8700
  389MOL0     H51334   1.147   4.928   6.935 -0.0903  0.4514  0.9353
  389MOL0     H51335   1.408   4.967   6.950 -1.6642  2.1323  0.1146
  389MOL0     H51336   1.735   5.107   7.193  0.6307 -3.1176  2.5304
  389MOL0     H51337   1.968   5.189   7.156  0.4999  0.3325  0.6526
  389MOL0     H51338   2.245   4.960   6.888  0.1138  3.0812  0.0610
  389MOL0     H51339   2.280   4.904   7.049  1.2867  2.1352  1.0603
  389MOL0     H51340   2.367   5.160   6.909 -1.0105 -1.0789 -0.8592
  389MOL0     H51341   2.400   5.120   7.083 -1.4482 -1.6583  0.5236
  389MOL0     H51342   2.596   5.106   6.933  1.6208 -0.3451  5.1284
  389MOL0     H51343   2.506   4.974   6.847 -0.0385  0.6708 -1.0898
  389MOL0     H51344   2.583   4.961   7.147  1.4234 -0.6415  0.2052
  389MOL0     H51345   2.497   4.838   7.063 -1.7427  2.7783  2.6831
  389MOL0     H51346   2.883   4.743   6.946  0.0752  0.4089  1.0038
  389MOL0     H51347   2.077   4.834   6.947 -2.2959 -3.5807  0.0187
  389MOL0     H51348   1.841   4.777   6.939  1.3137  0.1666 -0.3986
  390MOL0     O51349   1.977   9.223   8.634 -0.3116 -0.1709 -0.5095
  390MOL0     C51350   2.045   9.314   8.682  0.1099 -0.7323  0.5200
  390MOL0     O51351   1.999   9.402   8.780 -0.6153  0.2810  0.2235
  390MOL0     C51352   1.873   9.376   8.821 -0.8703  0.1019  0.8314
  390MOL0     C51353   1.767   9.441   8.773 -0.1338 -1.0070 -0.1057
  390MOL0     C51354   1.641   9.424   8.827  0.6338 -0.5059 -0.0177
  390MOL0     C51355   1.617   9.328   8.926  0.5793 -0.1845  0.7178
  390MOL0     O51356   1.487   9.287   8.967  0.1905  0.5946  0.5429
  390MOL0     C51357   1.362   9.333   8.909 -0.3485 -0.6069  0.4737
  390MOL0     C51358   1.318   9.473   8.962 -0.3677  0.2676  0.0535
  390MOL0     C51359   1.165   9.488   8.964  0.3137  0.0460  0.4969
  390MOL0     C51360   1.104   9.450   8.834  0.2634  0.1660 -0.4512
  390MOL0     C51361   0.956   9.504   8.817 -0.7686 -0.0928 -0.5937
  390MOL0     C51362   0.875   9.426   8.712 -0.0887 -0.4415 -0.3340
  390MOL0     C51363   0.719   9.421   8.745 -1.0803 -0.2026  0.0196
  390MOL0     C51364   0.638   9.357   8.621 -0.3941 -0.9049  0.1889
  390MOL0     N51365   0.591   9.474   8.540  0.1867  1.3891  0.4484
  390MOL0     C51366   0.642   9.513   8.419 -0.4525  0.2421  0.1188
  390MOL0     C51367   0.550   9.589   8.367  1.1312 -0.0125  0.3784
  390MOL0     C51368   0.547   9.658   8.231  0.7569 -0.4280  0.4254
  390MOL0     C51369   0.466   9.787   8.241 -0.0093 -0.0246  0.1447
  390MOL0     C51370   0.472   9.864   8.103 -0.3220 -0.8846  0.7822
  390MOL0     C51371   0.389   9.802   7.988  0.3032 -0.0099  0.2233
  390MOL0     O51372   0.250   9.787   8.030 -0.1731  0.0618  0.0871
  390MOL0     C51373   0.151   9.732   7.954  0.2163  0.4860 -1.1042
  390MOL0     C51374   0.166   9.659   7.836 -0.5829  0.1759 -0.1726
  390MOL0     C51375   0.050   9.608   7.776 -0.7406  0.2167 -0.1335
  390MOL0     C51376  -0.078   9.634   7.820 -0.4604  0.5018  0.0276
  390MOL0     C51377  -0.193   9.577   7.749 -0.2336 -0.3366  0.6807
  390MOL0     O51378  -0.314   9.592   7.819  0.4059  0.3212 -0.1806
  390MOL0     C51379  -0.437   9.591   7.748 -0.0609  0.0958 -0.4752
  390MOL0     C51380  -0.471   9.508   7.639 -0.0011  0.4703  0.1448
  390MOL0     C51381  -0.592   9.533   7.570 -0.2583  0.9308  0.7267
  390MOL0     C51382  -0.671   9.644   7.600 -0.0717 -0.0355 -0.7530
  390MOL0     O51383  -0.776   9.682   7.516 -0.0728 -0.2412 -0.0145
  390MOL0     C51384  -0.765   9.640   7.380 -0.2529 -0.4744  0.0462
  390MOL0     C51385  -0.848   9.740   7.304 -0.5196  0.0826 -0.6319
  390MOL0     C51386  -0.814   9.886   7.333 -0.3144  0.1516 -1.0015
  390MOL0     C51387  -0.891   9.993   7.257  0.3612  0.0638 -0.2257
  390MOL0     C51388  -1.047   9.998   7.285  0.3308  0.3845 -0.2789
  390MOL0     C51389  -1.111  10.088   7.177 -0.3882  0.6475 -1.1583
  390MOL0     C51390  -1.258  10.105   7.192 -0.0618 -0.1979  0.0770
  390MOL0     C51391  -1.336  10.152   7.064  0.7686 -0.1438  0.0695
  390MOL0    Cl51392  -1.352  10.013   6.949 -0.0789 -0.1716 -0.1799
  390MOL0     C51393  -0.641   9.715   7.717  0.6780 -0.7752 -1.1403
  390MOL0     C51394  -0.524   9.692   7.796  0.2747  0.8757  0.2156
  390MOL0     O51395  -0.180   9.529   7.640 -0.1540  0.0330 -0.0798
  390MOL0     C51396  -0.088   9.692   7.943  0.0043  0.2686 -0.2426
  390MOL0     C51397   0.018   9.747   8.001  0.6335  0.2703 -0.5283
  390MOL0     N51398   0.441   9.606   8.456  0.3077  0.6855  0.1888
  390MOL0     N51399   0.472   9.539   8.563  0.4683  0.2978  0.2916
  390MOL0     C51400   1.728   9.270   8.985 -0.0982 -0.3143  0.0653
  390MOL0     C51401   1.854   9.290   8.932 -0.3332  0.3070  0.7199
  390MOL0     C51402   2.191   9.318   8.644 -0.5000  1.0033 -0.7825
  390MOL0     C51403   2.239   9.215   8.564 -0.3712  0.0104  0.2009
  390MOL0     C51404   2.369   9.213   8.511  0.4509 -0.7124 -0.3043
  390MOL0     C51405   2.445   9.328   8.541 -0.3177  0.0404  0.0154
  390MOL0     O51406   2.571   9.345   8.493 -0.1485  0.1213  0.2328
  390MOL0     C51407   2.636   9.232   8.423 -0.9430  0.3940  0.2342
  390MOL0     C51408   2.681   9.115   8.518 -0.2004  0.0502  1.0200
  390MOL0     C51409   2.762   9.163   8.641 -0.1803  0.1204 -0.1874
  390MOL0     C51410   2.889   9.251   8.596 -0.2419  0.2401 -0.7022
  390MOL0     C51411   3.002   9.240   8.692  0.4266  0.5670 -0.3739
  390MOL0     C51412   3.090   9.239   8.775  0.1765  0.9088 -0.5016
  390MOL0     C51413   2.407   9.425   8.631  0.2942  0.0897  0.3669
  390MOL0     C51414   2.281   9.426   8.691 -0.9922 -0.4247 -0.8276
  390MOL0     H51415   1.781   9.523   8.702  0.5725 -0.9220  0.1266
  390MOL0     H51416   1.570   9.492   8.779  0.0964 -2.1348 -1.6861
  390MOL0     H51417   1.280   9.262   8.923  1.9083 -3.7154 -0.6858
  390MOL0     H51418   1.359   9.336   8.800 -3.3283 -0.2623  0.4976
  390MOL0     H51419   1.359   9.545   8.890  3.3895 -0.9762  0.7708
  390MOL0     H51420   1.365   9.489   9.059 -0.4159 -0.1927  0.1505
  390MOL0     H51421   1.137   9.587   9.004  2.1639 -0.1029  2.3193
  390MOL0     H51422   1.133   9.422   9.045 -0.8652  1.0537  0.9037
  390MOL0     H51423   1.159   9.502   8.755 -0.4784  0.2878 -0.8950
  390MOL0     H51424   1.116   9.342   8.818  3.0674  0.4874 -1.0364
  390MOL0     H51425   0.945   9.612   8.807 -1.6136  0.2855  3.0214
  390MOL0     H51426   0.899   9.489   8.909  3.4789  1.4242  2.6353
  390MOL0     H51427   0.915   9.325   8.700  2.5942  0.4624  0.1359
  390MOL0     H51428   0.871   9.477   8.616 -0.4266 -2.0215 -1.1822
  390MOL0     H51429   0.698   9.354   8.830  1.5064  0.2554  1.1039
  390MOL0     H51430   0.672   9.516   8.770  0.3561 -0.1053  2.6680
  390MOL0     H51431   0.547   9.301   8.644 -0.5662 -1.0083 -0.6888
  390MOL0     H51432   0.702   9.295   8.557 -1.2347 -1.6822  0.0784
  390MOL0     H51433   0.732   9.482   8.367 -2.4981 -3.1668 -1.6841
  390MOL0     H51434   0.490   9.594   8.163 -0.7713  3.4405 -2.3322
  390MOL0     H51435   0.643   9.688   8.187  0.1381  3.1580  1.1694
  390MOL0     H51436   0.505   9.855   8.318 -0.2524 -0.7404  0.9127
  390MOL0     H51437   0.365   9.765   8.277 -0.9022  1.9953 -0.9289
  390MOL0     H51438   0.442   9.969   8.108  2.1359 -0.0700 -0.2086
  390MOL0     H51439   0.576   9.866   8.070  0.4959 -1.8932  3.0724
  390MOL0     H51440   0.427   9.709   7.946 -2.0020 -0.4568 -1.0781
  390MOL0     H51441   0.381   9.863   7.897  1.5325 -0.9548 -0.5333
  390MOL0     H51442   0.264   9.632   7.799 -0.7139 -1.7013  0.7533
  390MOL0     H51443   0.056   9.552   7.683  2.1719 -1.1163  0.7401
  390MOL0     H51444  -0.409   9.424   7.609 -1.3294 -2.5903  4.8189
  390MOL0     H51445  -0.619   9.458   7.496  1.6854  1.1011 -0.2091
  390MOL0     H51446  -0.790   9.534   7.374  2.1977 -1.1108  0.0736
  390MOL0     H51447  -0.658   9.656   7.362  0.2197 -1.6572  1.5499
  390MOL0     H51448  -0.956   9.728   7.322 -0.4539  0.1018 -0.1944
  390MOL0     H51449  -0.828   9.725   7.198 -0.6813 -0.4761 -0.5893
  390MOL0     H51450  -0.707   9.891   7.307  0.3484 -0.9591  1.1981
  390MOL0     H51451  -0.823   9.907   7.440  1.7753 -1.8045 -0.3470
  390MOL0     H51452  -0.848  10.089   7.289  1.3463 -0.2039 -0.7088
  390MOL0     H51453  -0.879   9.978   7.149  0.6725  1.0669 -0.3450
  390MOL0     H51454  -1.069  10.048   7.379  0.6496  1.2049 -0.6358
  390MOL0     H51455  -1.094   9.900   7.267 -2.0550  1.9632 -3.9965
  390MOL0     H51456  -1.086  10.049   7.077 -2.7925 -1.3320 -1.0942
  390MOL0     H51457  -1.063  10.185   7.195  0.0394 -0.0768  2.3080
  390MOL0     H51458  -1.310  10.013   7.220  1.0663 -0.8359  0.1453
  390MOL0     H51459  -1.275  10.181   7.269  0.8322  0.3282 -0.2158
  390MOL0     H51460  -1.292  10.240   7.016  1.4028  0.6925  2.0825
  390MOL0     H51461  -1.440  10.176   7.088  1.0346  1.2909 -0.1254
  390MOL0     H51462  -0.705   9.795   7.753  2.1803 -0.7384  1.7075
  390MOL0     H51463  -0.500   9.748   7.886 -0.6003 -1.2044  1.8381
  390MOL0     H51464  -0.185   9.703   7.991  0.4070 -1.2689  1.0266
  390MOL0     H51465   0.001   9.810   8.088 -0.9311 -0.7460 -0.0542
  390MOL0     H51466   1.703   9.206   9.069  1.9780 -0.0438  0.9423
  390MOL0     H51467   1.941   9.233   8.962  0.2435  0.5609 -0.4156
  390MOL0     H51468   2.183   9.126   8.539 -0.7962  0.2778  0.1898
  390MOL0     H51469   2.411   9.141   8.442  1.3861 -0.1039 -0.3916
  390MOL0     H51470   2.727   9.268   8.374  0.1468  2.7142  3.5931
  390MOL0     H51471   2.567   9.203   8.344  0.6285 -0.0455 -1.0302
  390MOL0     H51472   2.590   9.065   8.554 -1.1367 -0.1261 -1.4272
  390MOL0     H51473   2.746   9.040   8.472  2.0342  1.5749  1.5493
  390MOL0     H51474   2.788   9.068   8.689 -2.4887 -1.1965 -1.3865
  390MOL0     H51475   2.698   9.217   8.712  0.3841 -0.6491  0.9385
  390MOL0     H51476   2.911   9.209   8.498 -1.6984  3.0201 -2.3438
  390MOL0     H51477   2.862   9.357   8.583 -2.2576 -0.2191 -0.6303
  390MOL0     H51478   3.165   9.246   8.852 -0.9251  1.6670  0.5336
  390MOL0     H51479   2.480   9.497   8.667 -1.7391  1.8586  1.1899
  390MOL0     H51480   2.253   9.508   8.756  0.2876  2.3697 -3.5410
  391MOL0     O51481   9.703   3.077   9.741 -0.2124 -0.7815 -0.4434
  391MOL0     C51482   9.639   3.050   9.841  0.2494 -0.2862  0.3657
  391MOL0     O51483   9.536   2.960   9.855  0.4261 -0.1877  0.7486
  391MOL0     C51484   9.492   2.891   9.743 -0.2347  0.1021  0.1802
  391MOL0     C51485   9.573   2.816   9.662  0.2143 -0.5177 -0.2200
  391MOL0     C51486   9.530   2.739   9.553 -0.1675 -0.1722  0.1904
  391MOL0     C51487   9.396   2.735   9.523  0.4893  0.0502  0.1582
  391MOL0     O51488   9.354   2.649   9.429 -0.3215 -0.7624  0.0183
  391MOL0     C51489   9.267   2.547   9.474 -0.0982  0.5839 -0.4237
  391MOL0     C51490   9.222   2.465   9.349 -0.2713  0.3370  0.1859
  391MOL0     C51491   9.338   2.413   9.255 -0.1523 -0.5020 -0.4167
  391MOL0     C51492   9.430   2.317   9.331 -0.7433 -0.3274  0.0551
  391MOL0     C51493   9.550   2.257   9.267 -0.7413  0.5551  0.5451
  391MOL0     C51494   9.651   2.358   9.212 -1.2025 -0.2373 -0.1517
  391MOL0     C51495   9.634   2.392   9.061  0.2128 -0.5368  0.9304
  391MOL0     C51496   9.751   2.476   8.991 -0.0186  0.1098  0.3101
  391MOL0     N51497   9.707   2.488   8.855 -0.5993  0.1154  0.3022
  391MOL0     C51498   9.604   2.569   8.801  0.3273  0.3109  0.2622
  391MOL0     C51499   9.621   2.556   8.670 -0.2789  0.0856 -0.3031
  391MOL0     C51500   9.545   2.633   8.568  0.2610 -0.3248 -0.0853
  391MOL0     C51501   9.405   2.570   8.541 -0.4764  0.0107 -0.0617
  391MOL0     C51502   9.303   2.629   8.633 -0.0486  0.0503 -0.1418
  391MOL0     C51503   9.170   2.549   8.606 -0.5245 -0.0949  0.5960
  391MOL0     O51504   9.108   2.552   8.474  0.5246  0.2415  0.1657
  391MOL0     C51505   8.979   2.528   8.453  0.6245  1.0013 -0.6021
  391MOL0     C51506   8.904   2.428   8.527 -0.4008 -0.1680 -0.0711
  391MOL0     C51507   8.763   2.416   8.510  0.0082 -1.1016 -0.9916
  391MOL0     C51508   8.696   2.505   8.435 -0.2219 -0.7411  1.1389
  391MOL0     C51509   8.546   2.496   8.419 -0.3625 -0.0463 -0.0151
  391MOL0     O51510   8.493   2.384   8.469  0.4493 -0.3746 -0.5132
  391MOL0     C51511   8.353   2.352   8.451 -0.5017 -0.8800  0.6947
  391MOL0     C51512   8.254   2.416   8.522 -0.3709 -0.1072  0.4837
  391MOL0     C51513   8.116   2.377   8.504 -0.0202 -0.0743 -0.6458
  391MOL0     C51514   8.085   2.274   8.412 -0.4560 -0.1836 -0.2227
  391MOL0     O51515   7.962   2.222   8.396 -0.1478 -0.6969 -0.2265
  391MOL0     C51516   7.866   2.327   8.363 -0.7268  0.2358 -0.2793
  391MOL0     C51517   7.735   2.264   8.302 -0.7220 -0.0884 -0.2508
  391MOL0     C51518   7.672   2.148   8.373  0.0364 -0.7985  0.2016
  391MOL0     C51519   7.605   2.195   8.505 -0.4602 -0.3920  0.2234
  391MOL0     C51520   7.611   2.098   8.622 -1.3242 -0.1224 -0.2247
  391MOL0     C51521   7.541   1.957   8.631 -0.3672 -0.2013 -0.4353
  391MOL0     C51522   7.585   1.881   8.757  0.6734  0.4902  0.5404
  391MOL0     C51523   7.547   1.737   8.751  0.3538 -0.2772  0.0481
  391MOL0    Cl51524   7.408   1.720   8.870  0.3062 -0.2713  0.3392
  391MOL0     C51525   8.184   2.214   8.344 -0.2949  0.6517 -0.5496
  391MOL0     C51526   8.320   2.257   8.356  1.2800 -0.2000  0.0515
  391MOL0     O51527   8.488   2.587   8.366 -0.3606 -0.3003  0.6672
  391MOL0     C51528   8.763   2.609   8.370 -0.2217  0.3444 -0.4559
  391MOL0     C51529   8.906   2.615   8.379  0.5885 -0.6995 -0.6083
  391MOL0     N51530   9.720   2.462   8.651 -0.7597  0.6442 -0.2265
  391MOL0     N51531   9.769   2.412   8.758 -0.1626 -0.3548 -0.6172
  391MOL0     C51532   9.307   2.814   9.604 -0.0675  0.1313  0.1408
  391MOL0     C51533   9.357   2.897   9.705  0.4505  0.3453  0.3671
  391MOL0     C51534   9.698   3.122   9.962 -0.4155  0.8398  0.4505
  391MOL0     C51535   9.797   3.222   9.969  0.5795  0.1650 -0.0093
  391MOL0     C51536   9.852   3.262  10.093  0.2070  0.1179 -0.2150
  391MOL0     C51537   9.799   3.225  10.215 -0.7709  0.0369 -0.9256
  391MOL0     O51538   9.846   3.291  10.331  0.0411  1.1397  0.1192
  391MOL0     C51539   9.829   3.217  10.453  0.0655 -1.3231 -0.6164
  391MOL0     C51540   9.858   3.308  10.571 -0.2434 -0.5369 -0.3999
  391MOL0     C51541   9.798   3.244  10.705  0.5090 -0.3799  0.2364
  391MOL0     C51542   9.715   3.339  10.798  0.2224 -0.0994 -0.7289
  391MOL0     C51543   9.796   3.466  10.809 -0.0123  0.5047  0.2651
  391MOL0     C51544   9.851   3.574  10.808 -1.2125  1.3976 -0.7482
  391MOL0     C51545   9.691   3.138  10.210 -0.1501  0.2383  0.9738
  391MOL0     C51546   9.651   3.081  10.086  0.3048 -0.2666  0.0288
  391MOL0     H51547   9.681   2.820   9.672  0.2813  0.9567 -1.0825
  391MOL0     H51548   9.608   2.692   9.493  0.0253 -1.8771  1.6874
  391MOL0     H51549   9.177   2.581   9.526  0.5636 -3.8889  4.4529
  391MOL0     H51550   9.323   2.489   9.548  1.4981 -0.4167 -2.3115
  391MOL0     H51551   9.143   2.513   9.289 -1.9485 -2.7045 -0.2637
  391MOL0     H51552   9.176   2.371   9.380  1.1757  0.2235  2.1535
  391MOL0     H51553   9.394   2.502   9.225 -1.8169  0.4218 -0.8777
  391MOL0     H51554   9.281   2.370   9.173 -2.4711  1.2792  0.1666
  391MOL0     H51555   9.464   2.358   9.426  0.6435 -1.0648 -0.0995
  391MOL0     H51556   9.380   2.233   9.381 -3.2043 -0.2844 -2.1217
  391MOL0     H51557   9.521   2.199   9.179 -2.4785  2.2346 -0.0622
  391MOL0     H51558   9.604   2.190   9.335 -1.0972 -0.4749 -0.1519
  391MOL0     H51559   9.752   2.316   9.223 -1.5682 -0.8154  1.2051
  391MOL0     H51560   9.646   2.450   9.270  3.7307 -0.2633  0.7627
  391MOL0     H51561   9.630   2.298   9.005 -2.3052 -0.2126  0.4212
  391MOL0     H51562   9.536   2.438   9.042 -0.7058 -2.6255  0.2688
  391MOL0     H51563   9.846   2.422   9.002 -0.6603 -1.0199  0.4567
  391MOL0     H51564   9.767   2.573   9.039  0.8653  0.5021 -0.7444
  391MOL0     H51565   9.531   2.634   8.849  0.6105 -0.5848  1.9890
  391MOL0     H51566   9.598   2.630   8.472 -1.0244  0.2238 -0.8470
  391MOL0     H51567   9.527   2.738   8.591 -1.4869 -0.3653 -1.0311
  391MOL0     H51568   9.415   2.462   8.556  1.1197  0.0284 -0.8675
  391MOL0     H51569   9.364   2.569   8.440 -1.8355  0.1999  0.4543
  391MOL0     H51570   9.324   2.618   8.740 -0.0626 -5.3092 -0.4413
  391MOL0     H51571   9.296   2.736   8.611 -0.9221 -0.1593 -0.9450
  391MOL0     H51572   9.092   2.567   8.680 -1.7364  1.4151 -0.9749
  391MOL0     H51573   9.194   2.444   8.624  3.1483  0.7005  1.1456
  391MOL0     H51574   8.947   2.361   8.600  1.0933  2.1156  1.2682
  391MOL0     H51575   8.718   2.331   8.561  0.0833  0.8926  2.8002
  391MOL0     H51576   8.272   2.503   8.583  0.8104  0.3946 -0.5366
  391MOL0     H51577   8.047   2.431   8.568  1.4594  1.2548 -0.0935
  391MOL0     H51578   7.902   2.397   8.287 -0.6930  1.8907  1.1803
  391MOL0     H51579   7.846   2.382   8.456  2.0100  0.0037  0.5377
  391MOL0     H51580   7.768   2.212   8.211  1.5263 -0.2379  0.5696
  391MOL0     H51581   7.665   2.341   8.269  0.7886  1.4082 -0.0982
  391MOL0     H51582   7.748   2.076   8.404 -0.1143 -1.7451 -1.5301
  391MOL0     H51583   7.600   2.083   8.323 -2.4603 -1.2477  3.9157
  391MOL0     H51584   7.667   2.276   8.545 -0.3760 -0.4126  0.1354
  391MOL0     H51585   7.504   2.224   8.477 -0.5823 -2.6796 -2.0911
  391MOL0     H51586   7.602   2.146   8.721  1.8055 -1.7961  1.0235
  391MOL0     H51587   7.714   2.060   8.626 -1.8260 -1.4978  0.2351
  391MOL0     H51588   7.553   1.898   8.540 -0.0815  0.4774 -0.8496
  391MOL0     H51589   7.432   1.960   8.639 -0.5709 -2.1126 -1.7581
  391MOL0     H51590   7.692   1.882   8.777  0.8759  6.0988  0.7280
  391MOL0     H51591   7.538   1.918   8.849 -2.6625 -1.4711 -0.2078
  391MOL0     H51592   7.631   1.676   8.785  0.2627 -0.7186 -0.5072
  391MOL0     H51593   7.515   1.707   8.650 -0.7833  3.0222 -0.6890
  391MOL0     H51594   8.168   2.117   8.298  0.9589 -1.6152  3.3777
  391MOL0     H51595   8.400   2.231   8.288  0.5610 -0.6973 -0.6217
  391MOL0     H51596   8.711   2.690   8.320 -1.3327  1.0848  1.7581
  391MOL0     H51597   8.958   2.698   8.332 -1.1114 -0.3270 -1.9249
  391MOL0     H51598   9.200   2.824   9.588 -0.0624  1.7133  0.8650
  391MOL0     H51599   9.291   2.954   9.771  0.7425  0.0921  0.8826
  391MOL0     H51600   9.807   3.279   9.877 -1.1502  0.0126 -0.3277
  391MOL0     H51601   9.942   3.322  10.083  0.6066 -0.1990  1.3598
  391MOL0     H51602   9.891   3.127  10.451 -1.3190 -2.6020  3.3448
  391MOL0     H51603   9.731   3.168  10.464  0.3361 -2.2330 -2.0594
  391MOL0     H51604   9.960   3.343  10.589 -0.9683  2.9802 -2.1985
  391MOL0     H51605   9.804   3.403  10.562  4.3516  2.7679  2.5959
  391MOL0     H51606   9.871   3.188  10.764 -1.0867 -1.8692  0.9066
  391MOL0     H51607   9.719   3.170  10.687  2.5938 -1.8985 -4.2263
  391MOL0     H51608   9.618   3.369  10.757  0.6949  1.4454 -0.7959
  391MOL0     H51609   9.705   3.283  10.891  2.8278 -1.1174 -0.9697
  391MOL0     H51610   9.906   3.665  10.815  3.2338 -0.9510 -1.8830
  391MOL0     H51611   9.638   3.126  10.304  1.5639 -1.7887  1.7816
  391MOL0     H51612   9.569   3.011  10.093 -1.1044  1.2933 -0.1292
  392MOL0     O51613   9.767   4.639   4.223 -0.3544  0.1868  0.0306
  392MOL0     C51614   9.751   4.635   4.102 -0.3985  0.0318  0.5221
  392MOL0     O51615   9.631   4.612   4.034 -0.0234  0.7956 -0.0236
  392MOL0     C51616   9.510   4.627   4.097 -0.2860 -0.8371 -0.2587
  392MOL0     C51617   9.400   4.600   4.022  0.7112  0.8078  1.1974
  392MOL0     C51618   9.270   4.605   4.073  0.1639  0.3525 -0.2685
  392MOL0     C51619   9.252   4.646   4.202  0.0960  0.2406 -0.1416
  392MOL0     O51620   9.125   4.677   4.253 -0.3579  0.7291 -0.4404
  392MOL0     C51621   9.053   4.789   4.196  0.4258 -0.0372  0.3479
  392MOL0     C51622   8.958   4.847   4.294  0.4497  0.6430  0.6361
  392MOL0     C51623   8.815   4.795   4.296  0.3973 -0.5351  0.7549
  392MOL0     C51624   8.741   4.811   4.155 -0.3605 -0.0417 -0.4118
  392MOL0     C51625   8.590   4.812   4.162  1.1006  0.2070 -0.6805
  392MOL0     C51626   8.528   4.708   4.257 -0.3031 -0.0199  0.3911
  392MOL0     C51627   8.381   4.693   4.244  0.7468 -0.7912  0.4796
  392MOL0     C51628   8.321   4.602   4.350 -0.4098 -0.3257 -0.2853
  392MOL0     N51629   8.180   4.626   4.354  0.1354 -0.4575  0.3918
  392MOL0     C51630   8.102   4.570   4.259 -0.6358  0.2817  0.4249
  392MOL0     C51631   7.982   4.565   4.311  1.0025  0.7953 -0.4905
  392MOL0     C51632   7.868   4.496   4.244  0.1091  0.7235 -1.0768
  392MOL0     C51633   7.740   4.578   4.256  0.6383  0.0682  1.1499
  392MOL0     C51634   7.609   4.508   4.201 -0.3513 -0.7013  0.3667
  392MOL0     C51635   7.564   4.381   4.277  0.0589  0.1380  0.3157
  392MOL0     O51636   7.422   4.392   4.278 -0.5855  0.2328  0.5593
  392MOL0     C51637   7.356   4.309   4.197 -0.1839  0.1197  0.2914
  392MOL0     C51638   7.351   4.307   4.053 -0.0231  0.0462  0.6591
  392MOL0     C51639   7.283   4.206   3.984 -0.3645 -0.6633  0.4033
  392MOL0     C51640   7.213   4.111   4.053  0.0986  0.4869  0.6850
  392MOL0     C51641   7.129   4.014   3.977 -0.2064 -0.6352 -0.8450
  392MOL0     O51642   7.053   3.927   4.047  0.3953  0.0618 -0.6717
  392MOL0     C51643   6.955   3.859   3.983 -0.1607  0.8829 -0.0398
  392MOL0     C51644   6.964   3.717   3.974 -0.7698  0.1610 -0.1908
  392MOL0     C51645   6.885   3.642   3.896 -0.3392  0.2423 -0.2530
  392MOL0     C51646   6.778   3.711   3.831 -0.3682 -0.5301  0.3128
  392MOL0     O51647   6.691   3.642   3.746  0.4749 -0.6749 -0.5574
  392MOL0     C51648   6.735   3.515   3.685  0.7687  0.2205  0.4231
  392MOL0     C51649   6.614   3.423   3.643 -0.0689 -0.0600  0.1496
  392MOL0     C51650   6.517   3.427   3.765  0.4524  0.6478 -1.0074
  392MOL0     C51651   6.398   3.333   3.731  0.3807 -0.4964 -0.2128
  392MOL0     C51652   6.279   3.358   3.832 -0.2401 -0.2993 -0.7254
  392MOL0     C51653   6.160   3.267   3.808  0.0424  0.1942 -0.7475
  392MOL0     C51654   6.058   3.303   3.916  0.4816  0.5142  0.3826
  392MOL0     C51655   5.931   3.227   3.895 -0.4629 -0.4106  0.5423
  392MOL0    Cl51656   5.822   3.242   4.037 -0.4116  0.0713 -0.0940
  392MOL0     C51657   6.761   3.843   3.844  0.5588 -0.2184 -0.3029
  392MOL0     C51658   6.851   3.918   3.920  0.8474 -0.2745 -0.3398
  392MOL0     O51659   7.127   4.027   3.857 -0.0382  0.3485  0.5647
  392MOL0     C51660   7.221   4.100   4.187 -0.0890 -0.1811 -0.6927
  392MOL0     C51661   7.293   4.200   4.259  0.0053  0.5908 -0.0191
  392MOL0     N51662   7.987   4.622   4.436 -0.1491  0.3753  0.5037
  392MOL0     N51663   8.110   4.658   4.459  0.3446 -0.4008  0.9111
  392MOL0     C51664   9.363   4.682   4.283  0.2376 -0.0789  1.6859
  392MOL0     C51665   9.488   4.681   4.235 -0.8017 -0.1064 -0.0419
  392MOL0     C51666   9.869   4.665   4.009  0.6509 -0.7263  0.0757
  392MOL0     C51667   9.998   4.671   4.058 -0.2880  0.2099 -0.1252
  392MOL0     C51668  10.113   4.679   3.979  0.4216 -0.8323  0.3564
  392MOL0     C51669  10.088   4.714   3.841  0.2973 -0.2255  0.1754
  392MOL0     O51670  10.195   4.742   3.765 -0.4081 -0.2341  0.7703
  392MOL0     C51671  10.199   4.713   3.623  1.8009 -0.9091 -0.4537
  392MOL0     C51672  10.344   4.696   3.577 -0.9884  0.4188  1.0037
  392MOL0     C51673  10.430   4.820   3.592 -0.4512 -0.2550 -0.1912
  392MOL0     C51674  10.579   4.787   3.559  0.4477  0.5077 -0.3496
  392MOL0     C51675  10.650   4.912   3.542 -0.3429  0.4345 -0.6603
  392MOL0     C51676  10.699   5.016   3.527 -0.4361  0.5833  0.0838
  392MOL0     C51677   9.964   4.727   3.789  0.3176  0.7806 -0.3217
  392MOL0     C51678   9.855   4.700   3.873  0.0265  0.2676 -0.2090
  392MOL0     H51679   9.403   4.552   3.925 -1.0667  2.0776  0.4723
  392MOL0     H51680   9.190   4.581   4.004  1.1789  3.4866 -2.7535
  392MOL0     H51681   8.994   4.750   4.113 -1.9439 -0.4985  2.1576
  392MOL0     H51682   9.131   4.860   4.164 -0.5401  1.5330  1.3199
  392MOL0     H51683   8.958   4.954   4.272 -0.3337  0.6803  0.7874
  392MOL0     H51684   9.010   4.840   4.390 -0.8114 -1.1342  1.2381
  392MOL0     H51685   8.738   4.842   4.358 -2.3238  1.0168 -3.3146
  392MOL0     H51686   8.803   4.696   4.340 -2.2966  0.2996  2.1111
  392MOL0     H51687   8.772   4.901   4.101  1.3358 -2.2032 -3.3421
  392MOL0     H51688   8.762   4.719   4.100  1.7593  0.2462 -0.1410
  392MOL0     H51689   8.566   4.787   4.059  0.6450 -0.8342 -0.3324
  392MOL0     H51690   8.551   4.910   4.191  3.4457  1.2759 -0.9199
  392MOL0     H51691   8.547   4.740   4.360 -0.9123  1.6204  0.0345
  392MOL0     H51692   8.571   4.609   4.241 -2.7081 -0.9789 -0.6814
  392MOL0     H51693   8.323   4.786   4.239 -1.4458 -2.1239 -1.6260
  392MOL0     H51694   8.372   4.652   4.143  2.4971 -0.7906  0.3034
  392MOL0     H51695   8.363   4.631   4.447 -1.7970  4.5847 -0.8710
  392MOL0     H51696   8.344   4.497   4.332  2.3373  0.1155  0.2536
  392MOL0     H51697   8.134   4.532   4.163  1.0931  0.6913  0.8045
  392MOL0     H51698   7.856   4.403   4.301 -1.3411  0.3992 -1.8448
  392MOL0     H51699   7.899   4.479   4.140  0.6577  1.3719 -1.0231
  392MOL0     H51700   7.761   4.672   4.205 -1.9388 -0.3134 -0.7966
  392MOL0     H51701   7.729   4.605   4.362  0.7979  0.5409  1.0498
  392MOL0     H51702   7.532   4.585   4.212  2.5335  2.6709 -1.2097
  392MOL0     H51703   7.621   4.491   4.093  0.3819  0.1508  0.3051
  392MOL0     H51704   7.592   4.383   4.383 -0.3435 -0.9255  0.4543
  392MOL0     H51705   7.601   4.294   4.222  1.4433  0.9304 -0.0615
  392MOL0     H51706   7.395   4.395   4.006 -1.3215  0.7513  0.7303
  392MOL0     H51707   7.264   4.205   3.877 -3.9048 -1.3607  0.9159
  392MOL0     H51708   7.049   3.664   4.016  0.1394 -1.3509 -3.5634
  392MOL0     H51709   6.900   3.535   3.899  0.3912  0.2133 -2.5105
  392MOL0     H51710   6.809   3.462   3.745 -1.0253 -3.5354 -0.4350
  392MOL0     H51711   6.785   3.548   3.594  3.2897 -2.0649  0.8491
  392MOL0     H51712   6.639   3.319   3.619  0.6778  0.2105 -0.2870
  392MOL0     H51713   6.568   3.456   3.550 -0.1087 -2.1531 -0.6057
  392MOL0     H51714   6.482   3.531   3.775  0.0729  0.4966 -0.7667
  392MOL0     H51715   6.567   3.392   3.855  0.3525  1.5904 -0.5758
  392MOL0     H51716   6.382   3.347   3.623 -2.1734  1.2595  0.2800
  392MOL0     H51717   6.429   3.228   3.732 -3.1592 -1.6889  1.8007
  392MOL0     H51718   6.248   3.463   3.831  2.0694  0.5407  2.2066
  392MOL0     H51719   6.329   3.345   3.928  2.6348  3.4475 -1.4613
  392MOL0     H51720   6.202   3.168   3.827  2.9046  1.9333  4.0248
  392MOL0     H51721   6.114   3.279   3.710 -0.4556 -0.2022 -0.5661
  392MOL0     H51722   6.114   3.289   4.009  2.8803  0.1087 -1.0428
  392MOL0     H51723   6.026   3.407   3.927 -1.2789  0.1846 -1.1486
  392MOL0     H51724   5.930   3.119   3.876 -2.4023 -0.6851  1.8509
  392MOL0     H51725   5.879   3.284   3.818  0.9983  1.6085  0.9867
  392MOL0     H51726   6.667   3.873   3.799 -1.3928 -2.6349  1.8213
  392MOL0     H51727   6.821   4.021   3.934 -1.2706 -0.9088  0.2872
  392MOL0     H51728   7.182   4.015   4.242  1.4626 -1.3004 -1.2721
  392MOL0     H51729   7.299   4.196   4.368 -2.1290 -1.5176  0.1035
  392MOL0     H51730   9.347   4.725   4.381 -2.0448  1.3736  0.7591
  392MOL0     H51731   9.566   4.706   4.307 -0.3364 -0.6110 -0.3623
  392MOL0     H51732   9.997   4.648   4.164 -2.2264  3.5627  0.7308
  392MOL0     H51733  10.214   4.654   4.011  0.8307  0.8287  0.4420
  392MOL0     H51734  10.128   4.783   3.577  2.0500  0.4438  1.1276
  392MOL0     H51735  10.167   4.608   3.621  0.1445 -0.5142  1.7864
  392MOL0     H51736  10.385   4.611   3.631  2.4069  1.0400 -0.3664
  392MOL0     H51737  10.343   4.663   3.472  3.7637  0.1852  0.8360
  392MOL0     H51738  10.423   4.864   3.691  1.1791  2.1477 -1.0372
  392MOL0     H51739  10.389   4.889   3.517 -1.8128 -0.1089  0.6649
  392MOL0     H51740  10.620   4.726   3.641 -1.6162  2.6736  2.5101
  392MOL0     H51741  10.600   4.739   3.463  0.6180  1.0586 -0.5930
  392MOL0     H51742  10.723   5.119   3.513 -1.7905  0.8184 -0.6842
  392MOL0     H51743   9.938   4.758   3.688  2.1451  1.5006 -0.5966
  392MOL0     H51744   9.752   4.705   3.837  0.5606 -3.4586 -2.7729
  393MOL0     O51745   8.808   1.705   5.585  0.2771  0.4521 -0.1602
  393MOL0     C51746   8.694   1.675   5.614  0.4280 -0.9939 -0.6257
  393MOL0     O51747   8.652   1.683   5.744  0.1530  0.4035  0.2945
  393MOL0     C51748   8.736   1.742   5.833 -1.0361  0.2690  1.5868
  393MOL0     C51749   8.742   1.880   5.837 -0.7377 -0.6708  0.3746
  393MOL0     C51750   8.830   1.943   5.932  0.4339 -0.2783 -0.2500
  393MOL0     C51751   8.917   1.865   6.004 -0.0986  0.9911  0.3708
  393MOL0     O51752   9.020   1.921   6.074  0.2082  0.0262  0.1379
  393MOL0     C51753   9.117   1.968   5.967 -0.5668  0.3846  0.1670
  393MOL0     C51754   9.261   1.960   6.023 -1.1109 -0.2670 -0.2275
  393MOL0     C51755   9.297   2.083   6.114  0.0822 -1.0222 -0.9410
  393MOL0     C51756   9.441   2.098   6.163 -0.3132 -0.2452  0.2623
  393MOL0     C51757   9.460   2.229   6.244  0.5653  0.1090  0.3792
  393MOL0     C51758   9.353   2.256   6.349  0.4607 -0.0965 -0.8487
  393MOL0     C51759   9.393   2.368   6.448  0.8332 -0.6233  0.3129
  393MOL0     C51760   9.278   2.388   6.553  0.7747  0.0962 -0.0280
  393MOL0     N51761   9.248   2.261   6.624  1.3051 -0.0975 -0.2234
  393MOL0     C51762   9.123   2.197   6.624  0.3190  0.1820 -0.1933
  393MOL0     C51763   9.143   2.088   6.702  0.0556 -0.5084 -0.2802
  393MOL0     C51764   9.033   1.991   6.738 -0.6974 -0.1827 -0.7168
  393MOL0     C51765   9.037   1.854   6.667  1.1927 -0.5861 -0.3676
  393MOL0     C51766   8.899   1.781   6.689  0.7311  0.7684 -1.0129
  393MOL0     C51767   8.910   1.625   6.717 -0.2905 -0.0276 -0.5778
  393MOL0     O51768   8.787   1.579   6.766 -0.1730 -0.0984 -1.1968
  393MOL0     C51769   8.741   1.455   6.743 -0.5942 -0.0203  0.0991
  393MOL0     C51770   8.810   1.363   6.661 -1.0430  0.5728  0.4128
  393MOL0     C51771   8.738   1.257   6.602 -0.7271  0.0320  0.3815
  393MOL0     C51772   8.600   1.227   6.636 -0.3792  0.5480  0.0951
  393MOL0     C51773   8.525   1.105   6.575 -0.0425  0.2538 -0.3795
  393MOL0     O51774   8.417   1.071   6.648  0.3180 -0.0869 -0.1170
  393MOL0     C51775   8.331   0.967   6.608 -0.4576 -0.2430 -0.8637
  393MOL0     C51776   8.299   0.940   6.474 -1.0117 -0.6156 -0.0180
  393MOL0     C51777   8.202   0.849   6.443 -0.4851  0.5689  0.3249
  393MOL0     C51778   8.145   0.781   6.553 -0.2230 -0.5252 -1.0703
  393MOL0     O51779   8.053   0.680   6.546  0.2133 -0.2691 -0.0801
  393MOL0     C51780   7.980   0.655   6.428 -0.3889 -0.1120  0.0473
  393MOL0     C51781   7.898   0.527   6.439  0.0876  0.2326 -0.5292
  393MOL0     C51782   7.994   0.411   6.432  0.5906 -1.1858  0.6465
  393MOL0     C51783   8.012   0.359   6.287  0.5746 -0.3975 -0.4095
  393MOL0     C51784   8.059   0.221   6.271  0.5848 -0.3779  0.3866
  393MOL0     C51785   8.068   0.190   6.121 -0.5035 -0.9007 -0.5725
  393MOL0     C51786   8.119   0.051   6.103  0.1001  0.0889 -0.4565
  393MOL0     C51787   8.095  -0.003   5.964 -0.4392 -0.0253 -0.3465
  393MOL0    Cl51788   8.168  -0.177   5.961 -0.2870  0.1450  0.0080
  393MOL0     C51789   8.179   0.806   6.687  0.4049  0.0439 -0.1205
  393MOL0     C51790   8.273   0.906   6.709 -0.0744 -0.5712 -1.0042
  393MOL0     O51791   8.575   1.045   6.481  0.2681  0.3031  0.4980
  393MOL0     C51792   8.534   1.315   6.735 -0.2998  0.9145 -0.3421
  393MOL0     C51793   8.609   1.430   6.779 -0.6086  0.2633 -0.0323
  393MOL0     N51794   9.268   2.080   6.747 -0.1276 -0.3515 -0.2845
  393MOL0     N51795   9.327   2.188   6.704 -0.3080 -0.3341 -0.2912
  393MOL0     C51796   8.894   1.729   6.010 -0.7946  0.7717 -0.0474
  393MOL0     C51797   8.805   1.663   5.918  0.2746  0.4157  0.2356
  393MOL0     C51798   8.608   1.613   5.517 -0.9461  0.4938  0.5943
  393MOL0     C51799   8.482   1.550   5.534  0.4777  0.5683 -0.4605
  393MOL0     C51800   8.406   1.483   5.432  0.7436 -0.5588  0.3286
  393MOL0     C51801   8.458   1.496   5.297  1.0580 -0.6720  0.6694
  393MOL0     O51802   8.381   1.440   5.200  0.7669  0.1989 -0.5096
  393MOL0     C51803   8.412   1.457   5.064 -0.3612  0.2587 -0.3527
  393MOL0     C51804   8.287   1.408   4.985 -0.5630 -0.5756 -0.2143
  393MOL0     C51805   8.324   1.378   4.837 -0.6823  0.7503  0.0128
  393MOL0     C51806   8.202   1.362   4.755 -0.3301  0.7572  0.7096
  393MOL0     C51807   8.124   1.482   4.749  0.6196 -0.0681  0.1095
  393MOL0     C51808   8.051   1.576   4.753  0.3405  0.1105  0.1814
  393MOL0     C51809   8.573   1.568   5.279 -0.2822  0.5446 -0.3537
  393MOL0     C51810   8.655   1.615   5.385 -0.6477 -0.5347 -0.2169
  393MOL0     H51811   8.677   1.947   5.780  2.6735  0.2486 -2.8175
  393MOL0     H51812   8.815   2.050   5.945 -2.9584 -0.8739  2.1905
  393MOL0     H51813   9.098   2.069   5.928  2.9524  0.6497 -1.1905
  393MOL0     H51814   9.101   1.898   5.885 -1.7056  0.3477  0.3929
  393MOL0     H51815   9.325   1.964   5.935 -0.8391  0.5912  0.0042
  393MOL0     H51816   9.289   1.866   6.072  1.8661 -0.3144 -1.8124
  393MOL0     H51817   9.223   2.081   6.195  1.4052 -2.0644  0.2735
  393MOL0     H51818   9.271   2.167   6.048 -2.3586 -2.8302 -2.4697
  393MOL0     H51819   9.471   2.012   6.223  0.4377 -0.3924 -0.3111
  393MOL0     H51820   9.500   2.103   6.071 -4.3755  1.0552 -2.5652
  393MOL0     H51821   9.446   2.310   6.172  0.3697 -0.6965 -0.5127
  393MOL0     H51822   9.561   2.229   6.284  2.4566  0.3492 -3.8498
  393MOL0     H51823   9.325   2.167   6.407 -3.4856  1.4048 -0.1208
  393MOL0     H51824   9.257   2.280   6.301 -0.3050  0.5461  0.9046
  393MOL0     H51825   9.493   2.348   6.488  0.5808 -1.1323  0.6994
  393MOL0     H51826   9.406   2.461   6.392 -2.3611 -0.3517 -0.1937
  393MOL0     H51827   9.191   2.434   6.505 -1.0475 -1.2157  1.8360
  393MOL0     H51828   9.311   2.464   6.624  0.9833 -1.1049  1.1989
  393MOL0     H51829   9.034   2.236   6.575  0.2415  0.8202  0.4404
  393MOL0     H51830   8.936   2.040   6.721 -0.3917  0.0276 -1.9357
  393MOL0     H51831   9.044   1.966   6.844 -0.1317  2.3975 -0.0924
  393MOL0     H51832   9.120   1.798   6.708 -1.3296 -2.3047  2.8819
  393MOL0     H51833   9.043   1.866   6.558  0.0426 -0.5591 -0.4447
  393MOL0     H51834   8.848   1.817   6.778  0.5355  2.4717 -1.7706
  393MOL0     H51835   8.825   1.805   6.612 -2.6031  0.2567  1.7837
  393MOL0     H51836   8.991   1.595   6.784  0.6352  1.8548 -0.7856
  393MOL0     H51837   8.936   1.579   6.621  1.0866  1.7651 -1.1362
  393MOL0     H51838   8.915   1.361   6.636 -1.6360 -0.0637 -2.3262
  393MOL0     H51839   8.799   1.192   6.540 -2.8724 -0.1044 -1.6881
  393MOL0     H51840   8.348   0.991   6.392 -3.9340 -0.7918 -2.0253
  393MOL0     H51841   8.156   0.837   6.345  0.5970  2.1850 -0.4277
  393MOL0     H51842   8.055   0.634   6.351 -0.4277 -1.8387  0.4395
  393MOL0     H51843   7.916   0.739   6.400 -1.3605 -1.0816 -0.7256
  393MOL0     H51844   7.822   0.519   6.360  1.0482  3.6529 -2.0001
  393MOL0     H51845   7.846   0.529   6.535  2.4758 -1.1708  0.8696
  393MOL0     H51846   7.963   0.332   6.501 -0.9282 -0.2878  1.0212
  393MOL0     H51847   8.093   0.447   6.463 -0.1858  0.4164  1.3537
  393MOL0     H51848   7.918   0.374   6.234 -0.4983 -1.0142  1.2414
  393MOL0     H51849   8.067   0.439   6.235  2.1558 -2.8544 -2.7805
  393MOL0     H51850   7.986   0.156   6.320 -1.3237  0.3169 -1.3967
  393MOL0     H51851   8.156   0.221   6.323  0.3146 -0.2255  0.8964
  393MOL0     H51852   8.131   0.272   6.087 -1.3112  1.0985  2.3240
  393MOL0     H51853   7.974   0.197   6.065 -1.6721  2.8315  1.4890
  393MOL0     H51854   8.225   0.048   6.129 -0.3037 -0.6750  1.2416
  393MOL0     H51855   8.076  -0.013   6.181  1.1344 -0.5449 -0.3947
  393MOL0     H51856   8.149   0.061   5.893 -1.2956  1.1120 -0.0216
  393MOL0     H51857   7.993  -0.009   5.924  0.6802 -2.2321 -3.2526
  393MOL0     H51858   8.124   0.752   6.764 -1.0218  1.7763  0.1377
  393MOL0     H51859   8.302   0.928   6.812 -0.4848 -0.7117 -0.8553
  393MOL0     H51860   8.429   1.309   6.760 -0.3852  2.2471 -0.2993
  393MOL0     H51861   8.568   1.495   6.855 -0.7384  1.0877 -0.7861
  393MOL0     H51862   8.962   1.669   6.070  1.6610  2.7531 -0.6906
  393MOL0     H51863   8.781   1.559   5.934 -3.5761  1.5028  3.3340
  393MOL0     H51864   8.440   1.538   5.634  1.4663  2.0222  0.1595
  393MOL0     H51865   8.321   1.426   5.467  0.1108  0.6435  0.8229
  393MOL0     H51866   8.498   1.392   5.046 -1.2724 -0.8113 -1.0168
  393MOL0     H51867   8.421   1.562   5.035 -2.2303  0.2471 -1.1139
  393MOL0     H51868   8.248   1.318   5.033 -1.0221  0.6077  1.7609
  393MOL0     H51869   8.211   1.487   4.987  0.8183  0.8145  1.4639
  393MOL0     H51870   8.376   1.283   4.830 -3.1355 -0.6771  0.0692
  393MOL0     H51871   8.383   1.465   4.806  1.7839  0.3138  3.0580
  393MOL0     H51872   8.224   1.321   4.656 -0.8154  3.3442 -0.5279
  393MOL0     H51873   8.146   1.276   4.794  0.0448  0.3894  0.4594
  393MOL0     H51874   8.004   1.671   4.740  1.4374  0.7613  0.7830
  393MOL0     H51875   8.608   1.570   5.176  0.3861 -0.0286 -0.1426
  393MOL0     H51876   8.748   1.667   5.364 -1.9137  2.3937  0.9679
  394MOL0     O51877   4.352   8.274  11.313 -0.2624 -0.5445 -0.0156
  394MOL0     C51878   4.297   8.292  11.207  0.1339  0.4079 -0.2878
  394MOL0     O51879   4.165   8.283  11.184 -0.6043 -0.0752 -0.8495
  394MOL0     C51880   4.066   8.276  11.281  0.2216 -0.6884  0.2773
  394MOL0     C51881   4.083   8.306  11.418 -1.1373 -0.1190  0.0044
  394MOL0     C51882   3.972   8.304  11.502  0.1210 -0.4509 -0.1324
  394MOL0     C51883   3.842   8.262  11.462 -0.2224 -0.0761  0.0753
  394MOL0     O51884   3.738   8.289  11.554 -0.0929  0.3511  0.4610
  394MOL0     C51885   3.720   8.434  11.569 -0.3412  0.8372 -0.5606
  394MOL0     C51886   3.583   8.457  11.624 -0.1600  0.4180  0.3565
  394MOL0     C51887   3.574   8.607  11.651  0.1010  0.4386  0.4937
  394MOL0     C51888   3.439   8.636  11.715  0.5106 -0.6264 -0.0836
  394MOL0     C51889   3.322   8.634  11.615  0.6757  0.1336  0.3220
  394MOL0     C51890   3.202   8.697  11.661 -0.7224 -0.3458  0.7378
  394MOL0     C51891   3.127   8.606  11.772 -0.2939 -0.5543  0.5934
  394MOL0     C51892   3.013   8.676  11.840  0.0941 -0.3793 -0.4337
  394MOL0     N51893   2.945   8.582  11.928 -0.0063  0.8057  0.5090
  394MOL0     C51894   2.833   8.508  11.895 -0.1007 -1.0178  0.0080
  394MOL0     C51895   2.792   8.462  12.018  0.7686 -0.5287 -0.4946
  394MOL0     C51896   2.665   8.386  12.049 -0.4693  0.5778  0.1025
  394MOL0     C51897   2.576   8.441  12.160 -0.4164  0.1639 -0.0425
  394MOL0     C51898   2.444   8.363  12.126 -0.2740  0.1432  0.3739
  394MOL0     C51899   2.329   8.391  12.214 -0.3753  0.0218 -0.2226
  394MOL0     O51900   2.341   8.290  12.319  0.1058 -0.5054 -0.0044
  394MOL0     C51901   2.238   8.253  12.406 -0.9432  0.0598 -0.1407
  394MOL0     C51902   2.114   8.301  12.397  0.7890  0.3565  0.0745
  394MOL0     C51903   2.010   8.239  12.472 -0.7495  0.2072  0.2752
  394MOL0     C51904   2.038   8.140  12.572  0.3364  0.4452  0.3539
  394MOL0     C51905   1.924   8.079  12.663 -0.7593  0.5203 -0.7100
  394MOL0     O51906   1.955   7.963  12.731 -0.2952  0.1619 -0.5971
  394MOL0     C51907   1.868   7.917  12.827  0.4823 -0.4409 -0.2626
  394MOL0     C51908   1.857   7.964  12.957  0.5959 -0.3843 -0.1050
  394MOL0     C51909   1.752   7.931  13.037  0.0189 -0.1751 -0.2373
  394MOL0     C51910   1.656   7.831  12.998  0.0238 -0.5497  0.7208
  394MOL0     O51911   1.550   7.796  13.082  0.1046  0.0005 -0.0801
  394MOL0     C51912   1.476   7.678  13.052  0.2764  0.6885 -1.7235
  394MOL0     C51913   1.369   7.664  13.166  0.0580 -0.0581 -0.9745
  394MOL0     C51914   1.345   7.513  13.208  0.8075  0.8884 -0.8856
  394MOL0     C51915   1.250   7.445  13.107 -0.1855  0.4486  0.4376
  394MOL0     C51916   1.320   7.360  13.000  0.4394 -0.5677  0.4679
  394MOL0     C51917   1.238   7.295  12.888  0.1353  0.3087 -0.4292
  394MOL0     C51918   1.179   7.162  12.936  0.6595  0.4790  0.1717
  394MOL0     C51919   1.084   7.098  12.828  0.2256  0.6261 -0.4443
  394MOL0    Cl51920   1.187   7.039  12.685  0.0546 -0.0474  0.2509
  394MOL0     C51921   1.670   7.782  12.867  0.3395  1.1645 -0.0152
  394MOL0     C51922   1.777   7.824  12.785  0.9518  0.7064 -0.3215
  394MOL0     O51923   1.813   8.136  12.668 -0.6942 -0.4409  0.8147
  394MOL0     C51924   2.175   8.109  12.589  0.3858  0.3568 -0.2122
  394MOL0     C51925   2.280   8.160  12.504 -0.1517 -0.7939 -0.4277
  394MOL0     N51926   2.875   8.505  12.120  0.7260 -0.5101 -0.4696
  394MOL0     N51927   2.960   8.580  12.061 -0.0773 -0.5906 -1.0293
  394MOL0     C51928   3.826   8.224  11.324  0.3467 -0.3724  0.3915
  394MOL0     C51929   3.938   8.233  11.238  0.4851 -0.2936 -0.1958
  394MOL0     C51930   4.373   8.324  11.091  0.3382  0.4470 -0.0425
  394MOL0     C51931   4.321   8.308  10.965  1.0444 -0.7092  1.1185
  394MOL0     C51932   4.406   8.344  10.854 -0.1366 -0.0431  0.0743
  394MOL0     C51933   4.537   8.383  10.868 -0.6027  1.0807 -0.7181
  394MOL0     O51934   4.597   8.409  10.747 -0.1280  0.4411 -0.1072
  394MOL0     C51935   4.731   8.444  10.744 -0.5735  0.1681 -0.3895
  394MOL0     C51936   4.823   8.324  10.768  0.3008  0.4633  0.5152
  394MOL0     C51937   4.972   8.379  10.771  0.4848 -1.7158 -0.1127
  394MOL0     C51938   5.059   8.262  10.739 -0.6122  0.3133  0.2641
  394MOL0     C51939   5.190   8.297  10.777 -0.6778  0.1314 -0.1253
  394MOL0     C51940   5.306   8.320  10.800 -0.0079 -0.2669  0.1536
  394MOL0     C51941   4.588   8.393  10.997  0.4938 -0.7202  0.3464
  394MOL0     C51942   4.507   8.372  11.107 -0.4264  0.2942 -0.3238
  394MOL0     H51943   4.174   8.312  11.475 -1.1250 -4.5673  0.8307
  394MOL0     H51944   3.994   8.321  11.607 -1.7455 -1.5124  0.4848
  394MOL0     H51945   3.720   8.481  11.470  2.7781 -0.0201 -1.0800
  394MOL0     H51946   3.795   8.481  11.633 -0.5325 -0.9459  1.0484
  394MOL0     H51947   3.575   8.396  11.715  0.9354 -0.8116 -0.3382
  394MOL0     H51948   3.518   8.414  11.548  2.1969  1.4056 -2.4052
  394MOL0     H51949   3.579   8.658  11.554 -1.8495 -0.6426 -0.2426
  394MOL0     H51950   3.650   8.636  11.724  1.0222 -0.7841  0.0432
  394MOL0     H51951   3.420   8.576  11.804 -1.5966  1.3099  0.8753
  394MOL0     H51952   3.452   8.738  11.752 -0.3730  0.1134 -1.6871
  394MOL0     H51953   3.299   8.534  11.577  2.3826  0.5438 -1.9852
  394MOL0     H51954   3.349   8.685  11.522  0.5871 -0.4348 -0.0189
  394MOL0     H51955   3.142   8.698  11.570 -1.0723  1.3147  0.9547
  394MOL0     H51956   3.221   8.795  11.706  1.3425 -0.3473 -0.0248
  394MOL0     H51957   3.077   8.525  11.719  2.5613 -0.4463 -2.6694
  394MOL0     H51958   3.187   8.562  11.853 -0.6241 -3.9116 -0.8049
  394MOL0     H51959   2.941   8.717  11.768 -1.0410 -0.0616  0.8354
  394MOL0     H51960   3.055   8.758  11.898  0.5450 -0.9256  0.0157
  394MOL0     H51961   2.799   8.491  11.793  2.8353 -1.0910 -1.0404
  394MOL0     H51962   2.712   8.296  12.091  0.8573  0.3339 -1.7731
  394MOL0     H51963   2.613   8.370  11.954 -0.0376  1.5422 -0.3116
  394MOL0     H51964   2.556   8.547  12.144  1.0319  0.1682 -2.3926
  394MOL0     H51965   2.615   8.427  12.261 -2.0824  0.4017  0.6590
  394MOL0     H51966   2.406   8.395  12.028 -1.5407 -1.9300  0.1194
  394MOL0     H51967   2.450   8.254  12.126  0.1355  0.1642  0.4696
  394MOL0     H51968   2.240   8.385  12.151 -2.0364  2.9645  1.5864
  394MOL0     H51969   2.338   8.493  12.254 -2.3045  0.3464 -0.5116
  394MOL0     H51970   2.071   8.364  12.320 -0.9542 -0.7069  0.1296
  394MOL0     H51971   1.908   8.269  12.452 -0.6947  2.2369  2.6495
  394MOL0     H51972   1.938   8.022  12.999  3.2665 -2.2386 -2.3444
  394MOL0     H51973   1.746   7.977  13.135  0.3200  0.1798 -0.3802
  394MOL0     H51974   1.545   7.596  13.033  0.1396  0.1021  0.0853
  394MOL0     H51975   1.409   7.679  12.966 -1.4052 -1.8468 -0.5564
  394MOL0     H51976   1.272   7.707  13.139  0.7707  0.9062 -2.0700
  394MOL0     H51977   1.407   7.706  13.259  0.3806 -3.3530  0.5416
  394MOL0     H51978   1.282   7.521  13.298  3.5408  0.2061  1.2124
  394MOL0     H51979   1.432   7.457  13.242 -1.0881 -0.8767  1.3883
  394MOL0     H51980   1.174   7.391  13.165 -1.3175 -0.1105 -1.4782
  394MOL0     H51981   1.194   7.518  13.048 -1.4144 -0.7466  0.0725
  394MOL0     H51982   1.375   7.280  13.051  0.5951  1.0888  3.0954
  394MOL0     H51983   1.387   7.431  12.950 -0.3203 -1.8107 -2.5039
  394MOL0     H51984   1.299   7.277  12.800 -0.5920 -0.1709 -0.8397
  394MOL0     H51985   1.162   7.364  12.851  0.2447  0.0416 -1.1597
  394MOL0     H51986   1.266   7.100  12.961  3.4044  2.8799 -2.5756
  394MOL0     H51987   1.118   7.193  13.021 -1.7548 -0.6565 -1.0428
  394MOL0     H51988   1.015   7.177  12.798 -1.5254 -0.5603  0.2995
  394MOL0     H51989   1.026   7.015  12.869  1.5792  0.6615  1.6653
  394MOL0     H51990   1.601   7.705  12.834  3.1952 -2.0901  0.9318
  394MOL0     H51991   1.767   7.766  12.694 -3.4662 -0.1496  0.4787
  394MOL0     H51992   2.207   8.031  12.658  3.3750  1.4790 -0.1471
  394MOL0     H51993   2.377   8.114  12.510 -0.4617 -1.3013  1.1004
  394MOL0     H51994   3.726   8.197  11.293  0.8308 -4.3445  1.7921
  394MOL0     H51995   3.924   8.214  11.132 -2.0876  2.3680 -0.4451
  394MOL0     H51996   4.222   8.284  10.928  0.7938  1.7276 -0.0224
  394MOL0     H51997   4.369   8.360  10.753 -1.3911  2.6999  0.8728
  394MOL0     H51998   4.737   8.511  10.830 -4.6674  2.4978 -1.6374
  394MOL0     H51999   4.754   8.495  10.651  2.6530 -2.0790 -0.9933
  394MOL0     H52000   4.799   8.287  10.868 -1.4249  3.9414  1.5302
  394MOL0     H52001   4.811   8.245  10.693  1.0155 -0.5640  1.4631
  394MOL0     H52002   4.989   8.415  10.873  0.2060  3.2083 -1.5386
  394MOL0     H52003   4.983   8.454  10.692 -1.2048 -2.2960 -0.9492
  394MOL0     H52004   5.028   8.169  10.788  2.9966 -1.2660 -0.1039
  394MOL0     H52005   5.052   8.257  10.630  0.3514  0.3502  0.1899
  394MOL0     H52006   5.410   8.323  10.824  0.2266 -1.8571 -0.5418
  394MOL0     H52007   4.686   8.440  11.004  0.5119 -0.4816 -1.0964
  394MOL0     H52008   4.533   8.384  11.212 -4.1538 -0.4835  0.8326
  395MOL0     O52009   2.011   8.769   3.893  0.0040  0.2165 -0.4037
  395MOL0     C52010   2.000   8.770   3.771 -0.5125  0.1381 -0.1716
  395MOL0     O52011   1.887   8.776   3.699  0.1322 -0.9586 -0.7311
  395MOL0     C52012   1.766   8.776   3.760 -0.3464  0.1755  0.3460
  395MOL0     C52013   1.705   8.658   3.824  0.5564  0.0087 -0.2981
  395MOL0     C52014   1.575   8.672   3.879 -0.3578 -0.4365 -0.3158
  395MOL0     C52015   1.502   8.795   3.873  0.3365 -0.9263 -1.2416
  395MOL0     O52016   1.376   8.810   3.931 -0.9500 -0.1491  0.0532
  395MOL0     C52017   1.285   8.697   3.939 -0.7091 -0.0796  0.6031
  395MOL0     C52018   1.139   8.737   3.895 -0.4749 -0.7820 -0.8466
  395MOL0     C52019   1.121   8.718   3.745  0.0034  1.2031 -0.2627
  395MOL0     C52020   0.966   8.736   3.710  0.2631 -0.3937  0.3924
  395MOL0     C52021   0.920   8.878   3.667 -0.9571 -0.1226  0.0657
  395MOL0     C52022   0.810   8.939   3.748  0.1003  0.7238  0.7468
  395MOL0     C52023   0.790   9.089   3.734  1.1627 -0.8181  0.3152
  395MOL0     C52024   0.913   9.156   3.805 -0.5042 -0.5180 -0.5349
  395MOL0     N52025   0.916   9.299   3.834  0.2948  0.3299 -0.4118
  395MOL0     C52026   0.857   9.395   3.771  0.6513  0.0964 -0.0580
  395MOL0     C52027   0.865   9.509   3.851  0.1239  0.3206  0.5208
  395MOL0     C52028   0.794   9.628   3.811 -0.4351 -0.6708 -0.1735
  395MOL0     C52029   0.690   9.694   3.904 -0.0479  0.1544 -1.0311
  395MOL0     C52030   0.748   9.741   4.037 -0.5566  0.6277  0.0923
  395MOL0     C52031   0.642   9.814   4.129  0.5271 -0.2867  0.7327
  395MOL0     O52032   0.542   9.722   4.178  0.5183  0.4593 -0.3248
  395MOL0     C52033   0.443   9.757   4.263  0.0033  0.4855 -0.2406
  395MOL0     C52034   0.328   9.672   4.257  0.1534  0.1916 -0.0146
  395MOL0     C52035   0.211   9.705   4.330  0.0187 -0.0214  0.3599
  395MOL0     C52036   0.200   9.821   4.412 -0.0500  0.0397  0.3553
  395MOL0     C52037   0.077   9.871   4.481 -0.2375  0.1737  0.0048
  395MOL0     O52038  -0.036   9.799   4.458  0.5817 -0.1211  0.5360
  395MOL0     C52039  -0.162   9.863   4.464 -0.0057 -1.0324  0.8031
  395MOL0     C52040  -0.182  10.005   4.463 -0.3660  0.2949 -0.3656
  395MOL0     C52041  -0.309  10.068   4.467  0.0034  0.1608 -0.5708
  395MOL0     C52042  -0.414   9.981   4.457 -0.2629  0.3120 -0.2971
  395MOL0     O52043  -0.535  10.050   4.446 -0.0807 -0.9830 -0.2895
  395MOL0     C52044  -0.574  10.080   4.311  0.1537  0.2658 -0.5076
  395MOL0     C52045  -0.655  10.209   4.314  0.2067 -0.4446  0.3611
  395MOL0     C52046  -0.790  10.176   4.380 -0.1850 -0.6367  0.8467
  395MOL0     C52047  -0.881  10.302   4.399 -0.6002 -0.3862  0.0615
  395MOL0     C52048  -1.027  10.274   4.357  0.7546 -0.3972 -0.1160
  395MOL0     C52049  -1.042  10.230   4.209 -0.3445 -0.2158 -0.8571
  395MOL0     C52050  -0.969  10.323   4.101 -0.1750 -0.1762 -0.1703
  395MOL0     C52051  -1.049  10.453   4.089 -0.2039 -0.6689  0.1858
  395MOL0    Cl52052  -1.200  10.414   4.000 -0.1935  0.1050  0.0628
  395MOL0     C52053  -0.406   9.841   4.455 -0.5122  0.0029  0.0716
  395MOL0     C52054  -0.278   9.787   4.467 -0.2494 -0.1613 -0.4829
  395MOL0     O52055   0.093   9.952   4.575  0.3592 -0.3494  0.3802
  395MOL0     C52056   0.313   9.901   4.412 -0.0961 -0.6300  0.1922
  395MOL0     C52057   0.432   9.874   4.340  0.8873 -0.7634  0.1415
  395MOL0     N52058   0.948   9.477   3.960  0.3020 -0.4511  0.2723
  395MOL0     N52059   0.973   9.349   3.947  0.2657 -0.8634 -0.1142
  395MOL0     C52060   1.565   8.902   3.810 -0.4659  0.0093  0.7465
  395MOL0     C52061   1.696   8.894   3.765  0.3968  0.6639 -0.1013
  395MOL0     C52062   2.127   8.764   3.693  0.0259 -0.1435  0.2134
  395MOL0     C52063   2.255   8.750   3.753  1.1340 -0.6302 -0.3950
  395MOL0     C52064   2.371   8.747   3.667  0.2839  0.0728 -0.4674
  395MOL0     C52065   2.365   8.778   3.529 -0.5256  0.7131 -1.2820
  395MOL0     O52066   2.487   8.782   3.462 -0.7348  0.5281 -0.7353
  395MOL0     C52067   2.494   8.826   3.326  0.1910 -0.8644  0.0439
  395MOL0     C52068   2.483   8.714   3.222 -0.3940 -0.4233  0.0592
  395MOL0     C52069   2.495   8.754   3.070 -0.0339  0.2990 -1.0532
  395MOL0     C52070   2.538   8.655   2.969 -0.0461 -0.5623  0.1570
  395MOL0     C52071   2.419   8.573   2.927 -0.9310 -0.1641  0.0661
  395MOL0     C52072   2.337   8.495   2.885  1.0168  0.1146  0.3935
  395MOL0     C52073   2.241   8.797   3.477 -0.2951 -0.7705 -0.6186
  395MOL0     C52074   2.122   8.789   3.553 -0.5406 -0.0610 -0.5737
  395MOL0     H52075   1.761   8.566   3.832  0.4485  0.0821  1.6171
  395MOL0     H52076   1.541   8.577   3.920 -1.7386  0.6624  1.2326
  395MOL0     H52077   1.287   8.666   4.044  0.0038  0.0832  0.6394
  395MOL0     H52078   1.327   8.614   3.881  1.2789  2.4604 -1.9131
  395MOL0     H52079   1.109   8.839   3.921 -0.8111 -0.8757 -0.8626
  395MOL0     H52080   1.063   8.677   3.946 -3.0582  2.1053 -1.0067
  395MOL0     H52081   1.158   8.619   3.717 -0.8005  1.0146 -0.6870
  395MOL0     H52082   1.177   8.797   3.693  0.8129 -0.2476 -1.6761
  395MOL0     H52083   0.948   8.677   3.619  0.9654  0.0878 -0.0677
  395MOL0     H52084   0.904   8.695   3.790 -2.8620  2.2083 -0.4667
  395MOL0     H52085   0.884   8.853   3.567  0.0098 -0.0485 -0.3110
  395MOL0     H52086   1.007   8.943   3.656 -1.7449  0.9523  0.1062
  395MOL0     H52087   0.828   8.908   3.851  0.8024  0.9148  0.6859
  395MOL0     H52088   0.718   8.888   3.720 -0.5560  1.5273  1.3906
  395MOL0     H52089   0.801   9.111   3.627 -4.4682 -2.4725 -0.9155
  395MOL0     H52090   0.694   9.126   3.771  0.6598  1.3571 -2.7783
  395MOL0     H52091   0.998   9.138   3.738  0.5062  1.9467 -0.0194
  395MOL0     H52092   0.934   9.102   3.898  0.9023 -0.1642 -0.6273
  395MOL0     H52093   0.784   9.379   3.692 -2.0464 -2.0340  2.6042
  395MOL0     H52094   0.747   9.626   3.712 -3.3188  0.5970  1.0622
  395MOL0     H52095   0.873   9.703   3.801  0.5612 -1.6150  0.4502
  395MOL0     H52096   0.616   9.625   3.944  1.3332  0.8239  3.1733
  395MOL0     H52097   0.636   9.775   3.853  0.2635  0.4398 -0.9168
  395MOL0     H52098   0.791   9.660   4.097 -1.5744  0.7668  1.0362
  395MOL0     H52099   0.829   9.814   4.023  0.7361 -0.5402  1.2787
  395MOL0     H52100   0.596   9.891   4.066 -1.3408 -1.2629  0.8344
  395MOL0     H52101   0.682   9.866   4.217 -1.4343  3.1313 -0.1954
  395MOL0     H52102   0.340   9.579   4.202 -0.0787 -0.3948  0.9055
  395MOL0     H52103   0.129   9.635   4.323 -0.7642  0.9298 -0.2185
  395MOL0     H52104  -0.098  10.073   4.463  0.3429 -0.3769  3.4075
  395MOL0     H52105  -0.306  10.176   4.479 -0.5544  0.0178  1.1953
  395MOL0     H52106  -0.644   9.999   4.286  0.2170 -1.3342  3.7105
  395MOL0     H52107  -0.483  10.089   4.251  0.5546  2.6638  0.3755
  395MOL0     H52108  -0.658  10.253   4.214  1.1663 -2.2152 -0.4980
  395MOL0     H52109  -0.596  10.273   4.380 -0.5817 -0.6848  1.3349
  395MOL0     H52110  -0.772  10.140   4.482 -1.2516 -0.3522  1.1512
  395MOL0     H52111  -0.832  10.092   4.324  0.5321  0.7701 -1.9988
  395MOL0     H52112  -0.887  10.334   4.504 -3.2758  2.0242 -0.7422
  395MOL0     H52113  -0.821  10.376   4.345  1.5603 -0.2169  2.4613
  395MOL0     H52114  -1.092  10.360   4.375  2.3221  0.9913 -0.7930
  395MOL0     H52115  -1.064  10.184   4.406 -0.2273 -1.4028 -2.5231
  395MOL0     H52116  -1.143  10.192   4.190 -0.3728  0.3274 -1.8984
  395MOL0     H52117  -0.989  10.136   4.192  2.5652  1.4106 -1.4561
  395MOL0     H52118  -0.864  10.343   4.122  0.0813 -0.0940 -1.4616
  395MOL0     H52119  -0.967  10.271   4.005 -5.1259 -4.1049  1.4110
  395MOL0     H52120  -0.989  10.519   4.025 -1.2072 -2.2563 -2.5760
  395MOL0     H52121  -1.040  10.512   4.181  1.3170  0.5984 -0.7265
  395MOL0     H52122  -0.490   9.775   4.440  1.2214 -3.0887  2.7467
  395MOL0     H52123  -0.268   9.678   4.466  2.0965 -0.1313  2.7582
  395MOL0     H52124   0.308   9.993   4.470  1.0268  0.1171 -0.8644
  395MOL0     H52125   0.517   9.942   4.348  0.6920 -0.5213  0.1691
  395MOL0     H52126   1.514   8.995   3.789 -1.3516 -0.6053  0.0978
  395MOL0     H52127   1.734   8.990   3.730 -0.2069  0.8253 -0.3391
  395MOL0     H52128   2.258   8.748   3.862 -1.7858 -1.3770 -0.2419
  395MOL0     H52129   2.468   8.718   3.708  0.1584  1.5388  0.9351
  395MOL0     H52130   2.589   8.878   3.313 -0.7132  0.8518  0.0491
  395MOL0     H52131   2.408   8.886   3.297  0.2916 -0.9932 -0.5360
  395MOL0     H52132   2.563   8.648   3.256 -0.1020 -0.4621 -0.6786
  395MOL0     H52133   2.393   8.653   3.229 -0.2821 -0.7489 -1.1634
  395MOL0     H52134   2.564   8.839   3.081 -3.1204  2.6973  3.1260
  395MOL0     H52135   2.398   8.797   3.044 -2.3129 -3.3134  0.6278
  395MOL0     H52136   2.572   8.706   2.878 -1.9252  1.7041  0.6379
  395MOL0     H52137   2.618   8.589   3.001 -2.2006 -2.8038  1.2769
  395MOL0     H52138   2.256   8.432   2.856  0.9469 -1.3904  3.4837
  395MOL0     H52139   2.221   8.818   3.373 -1.2845 -0.9601 -0.4728
  395MOL0     H52140   2.027   8.808   3.505  0.2041  3.1184 -1.0138
  396MOL0     O52141   6.807   2.980  11.261  0.5100  0.5608 -0.2229
  396MOL0     C52142   6.854   3.082  11.222 -0.3361 -0.4815  0.7881
  396MOL0     O52143   6.786   3.197  11.219  0.7392 -0.4389  0.0071
  396MOL0     C52144   6.671   3.210  11.291  0.3805  0.1150 -0.2471
  396MOL0     C52145   6.551   3.218  11.223  0.0349 -0.2828  0.6090
  396MOL0     C52146   6.440   3.231  11.289  0.5018 -0.2490 -0.1620
  396MOL0     C52147   6.440   3.232  11.429 -0.4799  0.5771  0.0089
  396MOL0     O52148   6.322   3.253  11.502 -0.3610 -0.2879  0.2917
  396MOL0     C52149   6.252   3.132  11.522  0.3753 -0.0284  0.9954
  396MOL0     C52150   6.156   3.152  11.637  0.4492  0.0253 -0.0674
  396MOL0     C52151   6.063   3.271  11.620  0.6871 -0.5200 -0.2230
  396MOL0     C52152   5.940   3.262  11.723  0.6655  1.0460  0.3496
  396MOL0     C52153   5.832   3.371  11.719 -0.1684 -0.4445 -1.2098
  396MOL0     C52154   5.704   3.330  11.793 -0.9520 -0.4136 -0.2356
  396MOL0     C52155   5.630   3.444  11.858 -0.0089 -0.4278  0.4528
  396MOL0     C52156   5.556   3.522  11.757  0.8136  0.4104 -0.0335
  396MOL0     N52157   5.445   3.452  11.678 -0.0375 -0.6570  0.2635
  396MOL0     C52158   5.317   3.480  11.715 -0.4431  0.6001 -0.0349
  396MOL0     C52159   5.245   3.435  11.601  0.7358  0.1987 -0.3947
  396MOL0     C52160   5.100   3.464  11.568  0.5420 -0.6051  0.7153
  396MOL0     C52161   5.071   3.612  11.531 -0.3759  0.5004  0.1221
  396MOL0     C52162   4.927   3.621  11.510  0.6620  0.0956  0.4786
  396MOL0     C52163   4.877   3.763  11.490  0.2719 -0.3716 -0.5085
  396MOL0     O52164   4.730   3.754  11.516  0.7066 -0.0085 -0.9546
  396MOL0     C52165   4.657   3.873  11.497  0.3006 -0.5266  0.7286
  396MOL0     C52166   4.706   3.992  11.452 -0.5669  0.0939  0.5420
  396MOL0     C52167   4.618   4.106  11.440 -0.2263 -0.8183 -1.2078
  396MOL0     C52168   4.493   4.109  11.501  0.1525  0.7585  0.1319
  396MOL0     C52169   4.413   4.228  11.513  0.2359 -1.1566 -0.5560
  396MOL0     O52170   4.468   4.344  11.458  0.2972  0.4589  0.2822
  396MOL0     C52171   4.412   4.463  11.469  0.8184 -1.1761 -0.5286
  396MOL0     C52172   4.479   4.561  11.392  0.7960 -0.6847 -0.6788
  396MOL0     C52173   4.414   4.678  11.366  0.4671  0.2742  0.3623
  396MOL0     C52174   4.288   4.712  11.416 -0.7655 -0.4313  0.9248
  396MOL0     O52175   4.228   4.835  11.374 -0.2603  0.4363 -0.8596
  396MOL0     C52176   4.227   4.940  11.471 -0.0186  0.1050 -0.0190
  396MOL0     C52177   4.367   5.005  11.465  0.2335  0.1954 -0.0036
  396MOL0     C52178   4.375   5.139  11.542 -0.3142 -0.1190 -0.7979
  396MOL0     C52179   4.514   5.201  11.560 -0.6759  0.1820 -0.2839
  396MOL0     C52180   4.533   5.341  11.620 -0.7601 -0.5410  0.7327
  396MOL0     C52181   4.674   5.398  11.621 -0.3829  0.6945 -0.3294
  396MOL0     C52182   4.735   5.406  11.483  0.0707 -1.2824  0.4474
  396MOL0     C52183   4.863   5.492  11.480 -0.8013  0.1210 -0.1089
  396MOL0    Cl52184   4.987   5.392  11.582 -0.1048  0.0827  0.1088
  396MOL0     C52185   4.223   4.623  11.495 -0.6773  0.7857  0.5426
  396MOL0     C52186   4.281   4.494  11.522  0.2323 -0.4892  0.0417
  396MOL0     O52187   4.306   4.214  11.569  0.0101 -0.0090  0.4489
  396MOL0     C52188   4.446   3.984  11.538 -0.6649 -0.0238 -0.1757
  396MOL0     C52189   4.523   3.870  11.541  0.3794  1.0481 -1.0030
  396MOL0     N52190   5.330   3.379  11.513  0.5069  0.0104  0.3510
  396MOL0     N52191   5.452   3.387  11.559 -0.1975  0.1335  0.4635
  396MOL0     C52192   6.555   3.195  11.498  0.0518  1.2538 -0.5232
  396MOL0     C52193   6.674   3.196  11.424 -0.1601 -0.6675 -0.3896
  396MOL0     C52194   6.998   3.086  11.171 -0.1495 -0.0737  0.3208
  396MOL0     C52195   7.074   2.970  11.144  0.2091 -0.1233  0.1685
  396MOL0     C52196   7.204   2.988  11.100  0.8515 -0.1452 -0.2554
  396MOL0     C52197   7.258   3.116  11.086 -0.4560  0.2275  0.3866
  396MOL0     O52198   7.387   3.144  11.025  0.5219  0.6116  0.1043
  396MOL0     C52199   7.483   3.036  11.012  0.2221 -0.7890 -0.3182
  396MOL0     C52200   7.615   3.081  10.944 -0.2100 -0.0628 -0.1800
  396MOL0     C52201   7.582   3.078  10.784 -0.1454 -0.5670 -0.0621
  396MOL0     C52202   7.691   3.055  10.689 -0.2041 -0.2609 -1.2064
  396MOL0     C52203   7.666   3.133  10.569 -0.5530  0.2889  0.7319
  396MOL0     C52204   7.646   3.186  10.461 -0.0639 -0.3322 -0.0761
  396MOL0     C52205   7.187   3.228  11.105 -0.4706  0.0081 -1.1813
  396MOL0     C52206   7.050   3.207  11.142  0.9768 -0.1999 -0.4239
  396MOL0     H52207   6.557   3.211  11.115 -0.7217  0.5323  0.5109
  396MOL0     H52208   6.346   3.237  11.236  1.2017 -1.5494 -1.6146
  396MOL0     H52209   6.315   3.043  11.533 -0.7386 -1.4770 -2.6667
  396MOL0     H52210   6.191   3.119  11.432 -0.4408  1.6609  1.2696
  396MOL0     H52211   6.208   3.177  11.730  0.7648  3.3771 -1.0044
  396MOL0     H52212   6.089   3.066  11.628 -0.6486  0.7279  1.1399
  396MOL0     H52213   6.023   3.255  11.519  0.2714 -0.6792 -0.0358
  396MOL0     H52214   6.111   3.368  11.630 -1.6108  0.7619 -0.7976
  396MOL0     H52215   5.893   3.171  11.684  0.4979  1.0443  0.5524
  396MOL0     H52216   5.991   3.255  11.820  5.7170  2.6035 -1.8710
  396MOL0     H52217   5.800   3.394  11.617  2.8849 -1.6344 -2.5386
  396MOL0     H52218   5.883   3.459  11.759  0.3587 -1.5070  0.5330
  396MOL0     H52219   5.735   3.268  11.879  0.7892  1.6200  0.7053
  396MOL0     H52220   5.640   3.283  11.718 -1.5777 -0.4528  0.3190
  396MOL0     H52221   5.555   3.406  11.928 -1.9505  1.8614 -0.2273
  396MOL0     H52222   5.702   3.505  11.914 -2.0642  1.9647  0.6637
  396MOL0     H52223   5.622   3.571  11.684 -1.0876  2.0085 -0.7889
  396MOL0     H52224   5.512   3.606  11.812 -0.7456 -0.2343 -0.2563
  396MOL0     H52225   5.287   3.529  11.807 -3.1672  1.9976 -1.5487
  396MOL0     H52226   5.041   3.421  11.650  1.8728 -0.5161  1.7493
  396MOL0     H52227   5.081   3.420  11.470  5.0368  1.0124 -1.1404
  396MOL0     H52228   5.116   3.641  11.436  1.2840  2.1057  1.3267
  396MOL0     H52229   5.115   3.673  11.610  0.8068 -0.2792  0.0937
  396MOL0     H52230   4.898   3.563  11.421  1.7461  0.8479 -0.3995
  396MOL0     H52231   4.873   3.582  11.596 -1.7724 -1.2041 -1.4982
  396MOL0     H52232   4.895   3.800  11.388 -2.3886  0.4189 -0.7678
  396MOL0     H52233   4.930   3.826  11.561 -0.6105 -3.2406  2.9985
  396MOL0     H52234   4.807   4.007  11.413 -1.4699 -1.0870 -2.5314
  396MOL0     H52235   4.654   4.194  11.388  2.8417 -1.6405 -0.7225
  396MOL0     H52236   4.574   4.546  11.342  0.8184  0.4333 -0.9843
  396MOL0     H52237   4.461   4.739  11.290 -0.0066  0.0265 -0.1389
  396MOL0     H52238   4.203   4.912  11.574 -1.1681  1.6729  0.1770
  396MOL0     H52239   4.163   5.021  11.437  2.9075  1.6358 -2.4049
  396MOL0     H52240   4.391   5.037  11.363  0.8267 -2.0663 -0.6242
  396MOL0     H52241   4.452   4.939  11.487  0.1039 -0.1692 -0.5935
  396MOL0     H52242   4.331   5.120  11.641 -0.9747  1.1355 -0.8288
  396MOL0     H52243   4.308   5.211  11.493  0.0936 -0.6262 -2.1365
  396MOL0     H52244   4.570   5.134  11.626  0.9927  2.5276  0.8167
  396MOL0     H52245   4.555   5.191  11.459  2.6071  1.3087  0.8184
  396MOL0     H52246   4.500   5.353  11.724  2.1163  3.8180  1.4365
  396MOL0     H52247   4.472   5.406  11.556  3.0475  2.2448 -0.4473
  396MOL0     H52248   4.742   5.342  11.685 -1.9984 -1.7548 -0.6266
  396MOL0     H52249   4.654   5.496  11.666 -3.1010 -0.0974  0.4036
  396MOL0     H52250   4.773   5.306  11.460  1.1763 -1.2130  1.8229
  396MOL0     H52251   4.667   5.439  11.404  0.7722  1.7151  0.9585
  396MOL0     H52252   4.840   5.588  11.526 -0.7890 -0.4585  1.1482
  396MOL0     H52253   4.908   5.511  11.382 -3.6486  1.1520 -1.3145
  396MOL0     H52254   4.130   4.657  11.540 -0.6295  0.3190  1.0047
  396MOL0     H52255   4.225   4.429  11.588  1.7225  2.1065  4.2492
  396MOL0     H52256   4.340   3.978  11.561 -0.3056 -2.0518  1.1519
  396MOL0     H52257   4.483   3.773  11.568 -1.8036  1.5388 -2.2567
  396MOL0     H52258   6.557   3.174  11.605  1.7614 -1.4473 -0.9935
  396MOL0     H52259   6.767   3.176  11.477 -0.4169 -0.0991  0.2772
  396MOL0     H52260   7.026   2.874  11.159  1.3664 -0.5117  1.5308
  396MOL0     H52261   7.258   2.900  11.066  3.2962  1.0540  0.3329
  396MOL0     H52262   7.433   2.952  10.963 -0.1038 -1.0224  0.3979
  396MOL0     H52263   7.518   3.002  11.110  1.7546  0.1647 -0.5063
  396MOL0     H52264   7.656   3.179  10.968  0.9043 -1.0039  2.0560
  396MOL0     H52265   7.682   2.996  10.957  0.4437  0.2909 -1.1359
  396MOL0     H52266   7.523   3.168  10.765  1.8564  0.7271 -0.4608
  396MOL0     H52267   7.516   2.992  10.772 -2.7118  1.3494 -0.3175
  396MOL0     H52268   7.788   3.065  10.739 -0.5959  0.0075 -0.4842
  396MOL0     H52269   7.687   2.948  10.667 -1.4093 -0.5461  0.2275
  396MOL0     H52270   7.634   3.236  10.367  1.6585  0.1550 -0.0667
  396MOL0     H52271   7.224   3.330  11.099  0.6061 -0.2923 -0.1705
  396MOL0     H52272   6.985   3.293  11.151 -2.2146 -2.5503  0.7369
  397MOL0     O52273   9.570   7.297   1.834  0.0105 -0.2904 -1.0709
  397MOL0     C52274   9.565   7.249   1.721 -1.0281  0.0770  0.0828
  397MOL0     O52275   9.469   7.161   1.683 -0.0837 -0.6891 -0.3956
  397MOL0     C52276   9.375   7.125   1.784  0.1109 -0.1668 -0.1155
  397MOL0     C52277   9.414   7.074   1.913  0.6091  0.1054  0.5188
  397MOL0     C52278   9.315   7.020   1.999 -0.1010  0.7110 -0.0333
  397MOL0     C52279   9.179   7.039   1.977 -0.4533  0.2288  0.4273
  397MOL0     O52280   9.079   6.983   2.051  0.6719  0.1443 -0.3091
  397MOL0     C52281   9.004   7.084   2.127 -0.1286  1.4812  1.4745
  397MOL0     C52282   8.931   7.024   2.254  0.4211  0.6248  0.7829
  397MOL0     C52283   8.824   6.915   2.228 -0.4919  0.6648 -0.9465
  397MOL0     C52284   8.695   6.983   2.182  0.1648 -0.2037 -0.2404
  397MOL0     C52285   8.574   6.887   2.171 -0.0726  0.6635 -0.0540
  397MOL0     C52286   8.508   6.857   2.308  0.1112  0.7447 -0.0054
  397MOL0     C52287   8.354   6.831   2.301 -0.0038 -0.6915 -0.1011
  397MOL0     C52288   8.287   6.751   2.412 -0.6368  0.5252  0.4869
  397MOL0     N52289   8.140   6.744   2.381 -0.1968 -0.5056  0.2754
  397MOL0     C52290   8.038   6.799   2.463 -1.0441  0.3717 -0.1651
  397MOL0     C52291   7.929   6.730   2.429  0.0278 -0.7443  1.2635
  397MOL0     C52292   7.790   6.756   2.487 -0.6321  0.2346 -0.1989
  397MOL0     C52293   7.672   6.698   2.412  0.1785 -0.0733  1.0459
  397MOL0     C52294   7.536   6.734   2.465  0.9712  0.3369  0.9924
  397MOL0     C52295   7.404   6.675   2.410 -0.5127 -0.1080  0.0481
  397MOL0     O52296   7.375   6.539   2.440 -0.0295  0.2034  0.0363
  397MOL0     C52297   7.248   6.514   2.404  0.8341  0.6427  0.5566
  397MOL0     C52298   7.188   6.548   2.283  0.2614 -0.1164 -0.3462
  397MOL0     C52299   7.051   6.510   2.250 -0.1807 -0.1143 -0.6730
  397MOL0     C52300   6.968   6.447   2.340  0.1652 -0.8595 -0.5563
  397MOL0     C52301   6.824   6.417   2.318  0.1987  0.0628 -0.2506
  397MOL0     O52302   6.772   6.294   2.363 -0.4637  0.1915  0.4291
  397MOL0     C52303   6.647   6.266   2.322 -0.3051 -0.3494 -0.1216
  397MOL0     C52304   6.542   6.320   2.398 -0.7958 -0.6865  1.1556
  397MOL0     C52305   6.404   6.299   2.366 -0.4489  0.8949 -0.8673
  397MOL0     C52306   6.373   6.237   2.247 -0.3674  0.8914 -0.8252
  397MOL0     O52307   6.241   6.226   2.201  0.4106  0.7371 -0.0203
  397MOL0     C52308   6.134   6.295   2.268  0.0262 -0.8354 -0.7126
  397MOL0     C52309   5.997   6.265   2.189 -0.4426 -0.1122 -1.3701
  397MOL0     C52310   5.972   6.374   2.081 -0.2048  0.3277  0.5414
  397MOL0     C52311   5.953   6.308   1.944  0.2564 -0.2258  1.2413
  397MOL0     C52312   5.901   6.421   1.838 -0.5466  0.8789  0.3954
  397MOL0     C52313   5.878   6.357   1.702 -0.1381 -0.4869 -0.8983
  397MOL0     C52314   5.809   6.444   1.598  0.6527 -0.3666  0.6969
  397MOL0     C52315   5.773   6.363   1.481 -0.1058 -0.5059  0.8413
  397MOL0    Cl52316   5.636   6.258   1.521  0.5815  0.2873 -0.1017
  397MOL0     C52317   6.482   6.182   2.172  1.0720  0.3085 -0.1500
  397MOL0     C52318   6.621   6.196   2.208  0.3618 -0.2347 -0.0723
  397MOL0     O52319   6.761   6.501   2.254 -0.3870 -0.0138  0.0134
  397MOL0     C52320   7.037   6.401   2.457 -0.5057 -1.1732 -0.1568
  397MOL0     C52321   7.171   6.427   2.489 -0.2859  0.1664 -0.1042
  397MOL0     N52322   7.957   6.641   2.325  0.2034 -0.3018  0.0784
  397MOL0     N52323   8.084   6.651   2.298 -0.0513  0.5121 -0.1024
  397MOL0     C52324   9.148   7.098   1.848 -1.0202 -0.1918 -0.2893
  397MOL0     C52325   9.239   7.148   1.757  0.7922 -0.6783 -0.3034
  397MOL0     C52326   9.664   7.296   1.620 -0.3155  0.5942  0.7846
  397MOL0     C52327   9.765   7.387   1.643 -0.0343  0.3703 -0.5104
  397MOL0     C52328   9.839   7.423   1.535  0.2338  0.0229  0.2090
  397MOL0     C52329   9.809   7.387   1.403  0.9996 -0.3102 -0.0240
  397MOL0     O52330   9.879   7.427   1.288  0.0760  0.2757  0.7144
  397MOL0     C52331   9.993   7.515   1.308 -0.9340 -0.7572  0.1302
  397MOL0     C52332  10.031   7.557   1.166  0.3599  0.3960 -0.3870
  397MOL0     C52333  10.154   7.650   1.158  0.0312  0.2477 -0.4909
  397MOL0     C52334  10.165   7.728   1.022 -0.4388  0.0208  0.3819
  397MOL0     C52335  10.293   7.800   1.025  0.0064 -0.2519  0.2685
  397MOL0     C52336  10.404   7.861   1.037  1.3310  0.3119  0.5317
  397MOL0     C52337   9.712   7.295   1.379  1.3346  0.3275  0.1856
  397MOL0     C52338   9.634   7.246   1.488  0.0933 -0.6624  0.3584
  397MOL0     H52339   9.518   7.050   1.935  0.2224 -2.1785  0.0385
  397MOL0     H52340   9.341   6.962   2.088  1.5915  0.9200 -0.3591
  397MOL0     H52341   8.939   7.132   2.053  0.4536  0.5580  0.3154
  397MOL0     H52342   9.067   7.163   2.168  0.2451  2.2159 -0.4048
  397MOL0     H52343   8.873   7.109   2.291 -1.2777 -0.7427  1.3853
  397MOL0     H52344   9.012   6.989   2.318  0.5359  1.2629  0.9879
  397MOL0     H52345   8.810   6.863   2.323  3.3131 -0.3858 -0.8092
  397MOL0     H52346   8.856   6.828   2.170  1.5227  1.2084 -0.7314
  397MOL0     H52347   8.669   7.060   2.255  1.4215  1.5988 -1.6100
  397MOL0     H52348   8.700   7.029   2.083 -2.5320 -1.2238 -0.9392
  397MOL0     H52349   8.603   6.791   2.127 -2.2365  0.5861 -1.4714
  397MOL0     H52350   8.503   6.934   2.103  0.5073  0.8752 -0.5155
  397MOL0     H52351   8.505   6.947   2.369 -3.6385  2.5656 -2.4781
  397MOL0     H52352   8.563   6.780   2.363  0.7143  1.0138 -0.2248
  397MOL0     H52353   8.308   6.931   2.298 -0.0609 -0.4966  3.2072
  397MOL0     H52354   8.325   6.776   2.211 -1.6680 -0.4869  0.2666
  397MOL0     H52355   8.307   6.798   2.508  4.7683 -0.2860  0.0572
  397MOL0     H52356   8.331   6.651   2.406 -1.8374 -0.1555  2.1947
  397MOL0     H52357   8.036   6.864   2.551 -1.2514  0.3645 -0.1653
  397MOL0     H52358   7.772   6.863   2.495 -0.0860  0.5941 -3.0249
  397MOL0     H52359   7.803   6.718   2.589  1.1206  2.5716  0.5302
  397MOL0     H52360   7.673   6.589   2.402 -5.7483 -0.6588  3.0579
  397MOL0     H52361   7.673   6.736   2.309 -2.4296 -0.2387  0.8861
  397MOL0     H52362   7.537   6.701   2.570  0.9975  0.0242  0.8962
  397MOL0     H52363   7.526   6.843   2.462  1.4025  0.3603 -0.3733
  397MOL0     H52364   7.416   6.686   2.302  2.6428  3.0788  0.5451
  397MOL0     H52365   7.315   6.732   2.442 -1.9556  0.0432 -3.7063
  397MOL0     H52366   7.232   6.617   2.212 -0.7129  2.9436  1.8269
  397MOL0     H52367   7.002   6.532   2.155 -1.8516 -1.3676 -0.1552
  397MOL0     H52368   6.571   6.383   2.481  1.0544  1.5640 -1.0676
  397MOL0     H52369   6.318   6.336   2.421 -0.3232  3.3300 -2.1756
  397MOL0     H52370   6.155   6.402   2.264  0.4638 -0.9331 -1.0528
  397MOL0     H52371   6.130   6.264   2.373 -1.5737  1.9088  0.1142
  397MOL0     H52372   5.916   6.271   2.262 -0.0227 -0.9385 -0.8181
  397MOL0     H52373   5.993   6.167   2.142 -2.1774  0.3886 -2.3522
  397MOL0     H52374   6.051   6.450   2.072  0.9252 -0.9222 -0.4413
  397MOL0     H52375   5.872   6.417   2.093 -0.7412 -0.5463 -0.6679
  397MOL0     H52376   6.051   6.281   1.903  0.6869  0.5250  1.7515
  397MOL0     H52377   5.887   6.222   1.941 -1.2727  0.8999  1.3123
  397MOL0     H52378   5.971   6.505   1.829  0.9445 -0.0747  2.2961
  397MOL0     H52379   5.812   6.465   1.885 -0.3305  0.4719  1.2062
  397MOL0     H52380   5.812   6.274   1.729 -0.4036  0.3046  1.0468
  397MOL0     H52381   5.973   6.321   1.660  0.1429  0.4342 -1.0764
  397MOL0     H52382   5.718   6.493   1.633 -0.4419  0.5027 -2.8693
  397MOL0     H52383   5.886   6.515   1.564 -0.7428  0.9863  0.2383
  397MOL0     H52384   5.849   6.295   1.443 -1.7332 -1.7907 -0.2662
  397MOL0     H52385   5.757   6.430   1.396  0.4522  1.5620  2.2716
  397MOL0     H52386   6.460   6.136   2.077 -1.1267  1.1132 -0.0946
  397MOL0     H52387   6.696   6.142   2.151  2.1326 -0.7850  2.5993
  397MOL0     H52388   6.995   6.334   2.532  0.8382  0.0458  1.7967
  397MOL0     H52389   7.210   6.388   2.582  4.1537 -3.1181 -2.9102
  397MOL0     H52390   9.047   7.120   1.813 -1.2506 -1.2537 -0.3364
  397MOL0     H52391   9.202   7.199   1.669 -0.8361  1.6870  1.6423
  397MOL0     H52392   9.793   7.418   1.743 -0.6691  2.5545 -0.9599
  397MOL0     H52393   9.921   7.493   1.550 -0.6056  1.0584  0.0722
  397MOL0     H52394  10.082   7.464   1.345 -0.8415 -0.7874 -0.1323
  397MOL0     H52395   9.968   7.607   1.362  2.0770  0.6543 -0.6650
  397MOL0     H52396  10.060   7.461   1.123  1.2014  0.1095  0.7572
  397MOL0     H52397   9.948   7.613   1.122  0.7376 -1.3932 -3.6240
  397MOL0     H52398  10.238   7.581   1.173 -0.3054 -0.5225 -1.8842
  397MOL0     H52399  10.147   7.712   1.248 -2.9112 -2.3051  1.2321
  397MOL0     H52400  10.159   7.665   0.933 -1.7496 -1.1699  1.2669
  397MOL0     H52401  10.081   7.796   1.011  0.2834  0.5904 -2.5893
  397MOL0     H52402  10.500   7.905   1.056  2.3474 -1.9301  0.8150
  397MOL0     H52403   9.704   7.278   1.272  0.1824 -0.1121  0.3333
  397MOL0     H52404   9.549   7.178   1.479  0.0904 -1.6109  4.9764
  398MOL0     O52405   9.207   4.817   6.856  1.1538  0.5785 -0.7572
  398MOL0     C52406   9.295   4.835   6.774  0.1500 -0.3748  0.4949
  398MOL0     O52407   9.266   4.858   6.637 -0.7209 -0.1707 -0.1736
  398MOL0     C52408   9.132   4.844   6.597 -0.3440 -0.5411 -0.4050
  398MOL0     C52409   9.100   4.719   6.537  0.5479 -0.7928 -0.7743
  398MOL0     C52410   8.973   4.695   6.493  0.6012 -0.3334  0.7837
  398MOL0     C52411   8.882   4.803   6.487 -0.0076 -0.1995 -0.2514
  398MOL0     O52412   8.780   4.802   6.397  0.1209 -0.5992 -0.6876
  398MOL0     C52413   8.795   4.726   6.282  0.0267  0.6401 -0.9035
  398MOL0     C52414   8.723   4.801   6.170  0.4513  0.4584 -0.6042
  398MOL0     C52415   8.571   4.768   6.172  0.0731  0.2039 -0.3549
  398MOL0     C52416   8.512   4.837   6.046 -0.1490 -0.1987  0.3587
  398MOL0     C52417   8.362   4.818   6.020  0.0415 -0.4478 -0.2324
  398MOL0     C52418   8.336   4.670   5.989  0.1098  0.9163  1.0315
  398MOL0     C52419   8.191   4.648   5.948 -0.6555  0.2102  0.8010
  398MOL0     C52420   8.165   4.513   5.894  0.3678  0.0004  0.1975
  398MOL0     N52421   8.030   4.496   5.829 -0.2730  0.3461 -0.3334
  398MOL0     C52422   7.912   4.473   5.892  0.0357  0.2785  0.3127
  398MOL0     C52423   7.810   4.494   5.801 -0.2681 -0.3466 -0.6150
  398MOL0     C52424   7.664   4.485   5.843  0.6358  0.7297  0.3131
  398MOL0     C52425   7.584   4.426   5.726  0.5815 -0.0718 -0.0966
  398MOL0     C52426   7.450   4.364   5.784 -0.6110 -0.3841  0.3549
  398MOL0     C52427   7.367   4.304   5.680  0.9596 -0.5806  0.1080
  398MOL0     O52428   7.254   4.237   5.742  0.1555 -0.7577 -0.5815
  398MOL0     C52429   7.153   4.175   5.674 -0.1559 -0.0075 -0.1727
  398MOL0     C52430   7.152   4.174   5.530  0.8466  0.0503  0.2384
  398MOL0     C52431   7.041   4.111   5.459 -0.4944  0.7112  0.3195
  398MOL0     C52432   6.922   4.078   5.524 -0.4783 -0.0165  0.1132
  398MOL0     C52433   6.801   4.031   5.449  0.5370  0.4325 -0.6000
  398MOL0     O52434   6.704   3.978   5.533  0.0050 -0.1522 -0.6520
  398MOL0     C52435   6.601   3.899   5.481 -1.0539 -0.3847 -0.0008
  398MOL0     C52436   6.572   3.777   5.537 -0.9457  0.5990  1.0796
  398MOL0     C52437   6.469   3.695   5.480  1.8569 -0.1493 -0.8558
  398MOL0     C52438   6.389   3.734   5.374  0.8120 -0.1455 -0.4776
  398MOL0     O52439   6.280   3.652   5.355  0.9144  0.3201 -0.4121
  398MOL0     C52440   6.202   3.687   5.234 -0.0561  0.3379  0.3570
  398MOL0     C52441   6.134   3.561   5.177 -0.5825  0.0431  0.4461
  398MOL0     C52442   6.076   3.576   5.035  0.0660 -0.2560  0.4334
  398MOL0     C52443   6.027   3.439   4.987  0.8688  0.0599 -0.1212
  398MOL0     C52444   5.939   3.448   4.860  1.3625 -0.2049  0.3048
  398MOL0     C52445   5.917   3.313   4.775  0.0266 -0.3366  0.2383
  398MOL0     C52446   5.889   3.191   4.859 -0.4708 -0.2850  0.2401
  398MOL0     C52447   5.838   3.080   4.770 -1.3717  0.3836  1.1297
  398MOL0    Cl52448   5.685   3.128   4.716 -0.2200 -0.5015  0.0430
  398MOL0     C52449   6.414   3.864   5.322 -0.2254  0.0265  0.5264
  398MOL0     C52450   6.507   3.942   5.384 -0.2714 -0.5517  0.3657
  398MOL0     O52451   6.798   4.019   5.328  0.3483 -0.1224 -0.1900
  398MOL0     C52452   6.939   4.063   5.665 -0.1873  0.1852  0.7877
  398MOL0     C52453   7.051   4.109   5.738  1.3812 -0.6442  0.2846
  398MOL0     N52454   7.874   4.501   5.679  1.2194  0.3250 -0.6415
  398MOL0     N52455   8.004   4.507   5.698 -0.0141  0.2697 -0.3246
  398MOL0     C52456   8.904   4.915   6.562 -0.1502  0.0281  1.6051
  398MOL0     C52457   9.032   4.944   6.611  0.0909 -0.2388  0.0217
  398MOL0     C52458   9.437   4.856   6.802 -0.4034  0.3855 -0.0086
  398MOL0     C52459   9.487   4.832   6.928 -0.6827  0.8306 -0.0673
  398MOL0     C52460   9.621   4.832   6.961 -0.0302 -0.5193  0.3180
  398MOL0     C52461   9.718   4.876   6.871  0.0565 -0.1970  0.5487
  398MOL0     O52462   9.857   4.885   6.888 -0.6463  0.1911 -0.0061
  398MOL0     C52463   9.922   4.867   7.013  0.4104  0.6682 -0.3849
  398MOL0     C52464   9.918   4.989   7.097  0.1536 -0.9720 -0.7225
  398MOL0     C52465   9.945   4.966   7.251  0.4835  0.3285  0.8963
  398MOL0     C52466   9.822   4.976   7.341 -0.2364 -0.2272 -0.5032
  398MOL0     C52467   9.735   4.861   7.323 -0.8162  0.3603  0.1183
  398MOL0     C52468   9.643   4.782   7.305 -0.4007 -0.1103  0.0051
  398MOL0     C52469   9.668   4.901   6.740 -0.7108  0.2000  0.5408
  398MOL0     C52470   9.533   4.889   6.698 -0.0394 -0.0662  0.2265
  398MOL0     H52471   9.175   4.641   6.530  0.4493 -1.0644  0.7810
  398MOL0     H52472   8.952   4.600   6.445  0.4822  0.8993 -1.7734
  398MOL0     H52473   8.742   4.633   6.304  1.7079 -0.7206 -2.2672
  398MOL0     H52474   8.899   4.704   6.257 -0.0019 -1.3365  0.4846
  398MOL0     H52475   8.748   4.768   6.068  0.6563  0.7756 -0.6587
  398MOL0     H52476   8.739   4.909   6.175 -0.6656  0.5644  1.5152
  398MOL0     H52477   8.513   4.805   6.257 -0.1747  2.9006 -1.5628
  398MOL0     H52478   8.551   4.661   6.161 -0.0647 -0.0685  2.0222
  398MOL0     H52479   8.523   4.946   6.055  1.2383 -0.0167 -2.4006
  398MOL0     H52480   8.562   4.794   5.959  2.7353 -1.5644  2.5370
  398MOL0     H52481   8.329   4.883   5.938  2.8905  3.2852  1.2681
  398MOL0     H52482   8.299   4.840   6.106 -0.9493 -2.2214 -0.4669
  398MOL0     H52483   8.345   4.617   6.084 -0.2391  2.7328  2.1062
  398MOL0     H52484   8.405   4.628   5.914  0.4372  1.4855  1.0099
  398MOL0     H52485   8.132   4.657   6.040 -0.2894 -1.7976  1.2742
  398MOL0     H52486   8.166   4.726   5.876  0.7785  0.3999  0.4752
  398MOL0     H52487   8.184   4.432   5.965  3.1106  1.2140  0.9624
  398MOL0     H52488   8.231   4.500   5.808  0.7507  2.5811  0.0209
  398MOL0     H52489   7.888   4.461   5.997  0.8594  0.7112  0.5530
  398MOL0     H52490   7.612   4.576   5.874 -0.2333  1.0526 -1.8798
  398MOL0     H52491   7.657   4.419   5.930 -1.5233 -0.8129 -0.9034
  398MOL0     H52492   7.649   4.347   5.686  0.7664  0.5032 -0.9492
  398MOL0     H52493   7.564   4.498   5.647  2.0517  0.7278  0.2254
  398MOL0     H52494   7.469   4.290   5.863 -2.1406 -1.8463 -0.5815
  398MOL0     H52495   7.394   4.447   5.827 -2.4972 -0.5655 -1.6170
  398MOL0     H52496   7.421   4.233   5.615  0.4760 -0.9327  0.0846
  398MOL0     H52497   7.339   4.389   5.617 -2.3729 -0.0452  2.0949
  398MOL0     H52498   7.220   4.235   5.472  0.5181 -1.1606 -1.5062
  398MOL0     H52499   7.038   4.121   5.351  1.5709  0.8296  0.2330
  398MOL0     H52500   6.604   3.730   5.630 -0.7369  0.8518  1.1360
  398MOL0     H52501   6.423   3.609   5.527 -1.5862  0.2438 -3.1144
  398MOL0     H52502   6.274   3.723   5.160 -3.5042  2.4135 -2.3068
  398MOL0     H52503   6.129   3.766   5.253 -0.0508  0.5596 -0.5204
  398MOL0     H52504   6.059   3.526   5.248 -1.3657  1.3982  0.3235
  398MOL0     H52505   6.201   3.475   5.174 -1.5188 -0.6781 -1.0747
  398MOL0     H52506   6.158   3.611   4.972  0.3364  0.3821  1.1228
  398MOL0     H52507   5.998   3.652   5.049  0.7022  0.0112  2.9452
  398MOL0     H52508   6.110   3.373   4.959  2.1220  2.6553 -3.0795
  398MOL0     H52509   5.965   3.395   5.066 -1.5486  0.6788 -1.5531
  398MOL0     H52510   5.965   3.530   4.793  0.5942 -0.5449 -0.4345
  398MOL0     H52511   5.837   3.465   4.898  1.5424 -2.7372  2.2311
  398MOL0     H52512   6.006   3.284   4.718 -0.2491  0.5248 -0.6605
  398MOL0     H52513   5.840   3.330   4.699 -0.6709 -0.9223  0.7948
  398MOL0     H52514   5.973   3.159   4.921 -0.6691  0.9947  1.2275
  398MOL0     H52515   5.815   3.223   4.934  0.2566  0.6278  0.5897
  398MOL0     H52516   5.827   2.989   4.831  2.7060 -0.7148  0.4910
  398MOL0     H52517   5.901   3.072   4.681 -0.2542  1.6637  1.7657
  398MOL0     H52518   6.358   3.911   5.242 -1.9685  0.2177  1.8001
  398MOL0     H52519   6.523   4.040   5.341  1.2566 -0.7642  0.4169
  398MOL0     H52520   6.857   4.018   5.720 -0.2690 -0.1787  0.3719
  398MOL0     H52521   7.039   4.110   5.846  3.2566 -0.4104  0.5188
  398MOL0     H52522   8.835   4.998   6.571 -0.1424  0.2892 -0.4040
  398MOL0     H52523   9.050   5.027   6.678  0.8105 -2.2387  2.4727
  398MOL0     H52524   9.411   4.814   7.004  0.1544 -2.0779  0.1889
  398MOL0     H52525   9.648   4.805   7.063 -2.4524 -0.0476  1.1484
  398MOL0     H52526  10.026   4.852   6.985 -0.2753  0.1494 -2.8251
  398MOL0     H52527   9.885   4.778   7.066  0.3748  0.1038 -1.3506
  398MOL0     H52528   9.992   5.057   7.054  0.6997 -2.4791 -2.2471
  398MOL0     H52529   9.824   5.046   7.097  0.7760  0.3441  3.0223
  398MOL0     H52530  10.009   5.045   7.293 -1.5093  1.5940  1.7644
  398MOL0     H52531   9.999   4.872   7.258 -0.4006 -0.5619 -2.4522
  398MOL0     H52532   9.855   4.980   7.445  4.3389  1.4654 -1.7706
  398MOL0     H52533   9.768   5.070   7.327 -0.8434 -0.1631  1.8901
  398MOL0     H52534   9.564   4.712   7.286 -1.1793  0.8515 -0.3829
  398MOL0     H52535   9.757   4.919   6.679  2.4687  0.0093  4.6773
  398MOL0     H52536   9.508   4.913   6.595  2.9177  1.7486 -0.2087
  399MOL0     O52537  10.574   2.692   5.098  0.8182 -0.6806  0.1187
  399MOL0     C52538  10.534   2.577   5.108  0.7131  0.1277 -0.2847
  399MOL0     O52539  10.417   2.535   5.165 -0.2673  0.1135 -0.0546
  399MOL0     C52540  10.312   2.622   5.183  0.0955 -0.4160  0.0745
  399MOL0     C52541  10.187   2.575   5.165 -0.7093  0.1251  0.5397
  399MOL0     C52542  10.069   2.640   5.177  0.3090 -1.0581  0.1906
  399MOL0     C52543  10.068   2.770   5.227  0.0438  0.1126 -0.7002
  399MOL0     O52544   9.949   2.831   5.249 -0.9267 -0.0158 -0.1049
  399MOL0     C52545   9.944   2.944   5.340 -0.1223  0.3689 -0.2526
  399MOL0     C52546   9.801   2.991   5.365 -0.0786  0.0004 -0.2075
  399MOL0     C52547   9.696   2.880   5.395 -0.5341 -0.2752 -0.2813
  399MOL0     C52548   9.563   2.951   5.436  0.3721 -0.4283  0.2690
  399MOL0     C52549   9.444   2.848   5.463 -1.2285  0.3335 -0.2926
  399MOL0     C52550   9.333   2.908   5.549 -0.2804  0.0385 -0.0258
  399MOL0     C52551   9.230   2.804   5.602  0.7488  0.1509 -0.6343
  399MOL0     C52552   9.151   2.860   5.724  0.1829  0.2830  0.4255
  399MOL0     N52553   9.018   2.789   5.745 -0.5149  0.2569 -0.1948
  399MOL0     C52554   8.961   2.753   5.866 -0.7442  1.3793 -0.3593
  399MOL0     C52555   8.831   2.730   5.843 -0.2766 -0.3467  0.3134
  399MOL0     C52556   8.745   2.701   5.970  0.1697  0.5307  1.9234
  399MOL0     C52557   8.709   2.824   6.046 -0.4821  0.5059 -0.2015
  399MOL0     C52558   8.556   2.821   6.095 -0.2655 -0.6828 -0.6925
  399MOL0     C52559   8.541   2.892   6.228 -0.6081  0.1229 -0.1605
  399MOL0     O52560   8.635   2.851   6.333 -0.2703 -0.0286  0.3423
  399MOL0     C52561   8.594   2.861   6.461 -0.2932 -0.3299 -0.6857
  399MOL0     C52562   8.497   2.952   6.518  0.8684  0.5350  0.1752
  399MOL0     C52563   8.468   2.959   6.654  0.2135 -0.0687  0.5982
  399MOL0     C52564   8.545   2.884   6.748 -0.1031  0.2952 -1.5085
  399MOL0     C52565   8.530   2.889   6.895  1.3828 -0.3177  0.2740
  399MOL0     O52566   8.528   2.775   6.963  0.1889  0.5853 -1.0590
  399MOL0     C52567   8.493   2.765   7.095  0.9617 -0.1639  0.1481
  399MOL0     C52568   8.550   2.829   7.199 -0.5686 -1.1957  0.6094
  399MOL0     C52569   8.510   2.818   7.332  0.6504 -0.2579  0.6099
  399MOL0     C52570   8.400   2.739   7.366  0.7173  0.0458 -0.5621
  399MOL0     O52571   8.345   2.724   7.495  0.5156 -0.2784 -0.2559
  399MOL0     C52572   8.273   2.845   7.530  0.8072  0.1188 -0.5019
  399MOL0     C52573   8.326   2.913   7.657  0.6871 -0.0621 -0.0799
  399MOL0     C52574   8.225   2.941   7.776  0.0991 -0.4909  0.5678
  399MOL0     C52575   8.122   3.048   7.764  0.4526  0.5920  0.1182
  399MOL0     C52576   8.030   3.056   7.880  0.5442 -0.2136  0.4506
  399MOL0     C52577   7.884   3.072   7.836 -0.7814  0.3798  0.5845
  399MOL0     C52578   7.779   3.087   7.946 -0.0199 -0.7430  0.5590
  399MOL0     C52579   7.637   3.114   7.892 -0.2385  0.1775 -0.7022
  399MOL0    Cl52580   7.589   2.975   7.793  0.1096  0.5281 -0.0150
  399MOL0     C52581   8.344   2.668   7.254 -0.5684 -0.0835 -0.3472
  399MOL0     C52582   8.384   2.674   7.125  0.0672 -0.4847  1.0705
  399MOL0     O52583   8.510   2.999   6.938  0.1415 -0.5069  0.3125
  399MOL0     C52584   8.648   2.808   6.693 -0.5135  0.9300  0.0155
  399MOL0     C52585   8.664   2.789   6.555 -0.0425  0.3714  0.0940
  399MOL0     N52586   8.806   2.732   5.705 -0.0414  0.1155 -0.4848
  399MOL0     N52587   8.921   2.777   5.649 -0.2691 -0.3586  0.7800
  399MOL0     C52588  10.195   2.835   5.237  0.0914  0.9127 -0.4281
  399MOL0     C52589  10.313   2.758   5.218 -0.2260 -1.0180  0.4359
  399MOL0     C52590  10.617   2.473   5.045 -0.8705 -0.5537 -0.2997
  399MOL0     C52591  10.740   2.515   4.988 -1.0446  0.8748 -0.0773
  399MOL0     C52592  10.817   2.419   4.914  0.0252 -0.3949 -0.2766
  399MOL0     C52593  10.788   2.286   4.904  0.4169  0.0192 -0.3607
  399MOL0     O52594  10.870   2.198   4.841 -0.4462  0.2491 -0.1495
  399MOL0     C52595  10.804   2.123   4.737 -0.6377  0.2742 -1.2062
  399MOL0     C52596  10.776   2.198   4.607  0.3365  0.2919  0.1321
  399MOL0     C52597  10.877   2.242   4.516  0.0289  0.0336 -0.6692
  399MOL0     C52598  10.921   2.126   4.419  0.7129 -1.1086  0.5564
  399MOL0     C52599  11.023   2.035   4.471 -0.2925 -0.8207 -0.0346
  399MOL0     C52600  11.104   1.951   4.502 -0.2026 -0.3718  0.2822
  399MOL0     C52601  10.665   2.251   4.957  0.1851  0.5144 -0.2091
  399MOL0     C52602  10.582   2.341   5.022 -1.2766 -0.0567  0.0638
  399MOL0     H52603  10.167   2.472   5.137 -0.6664 -0.3186  2.0508
  399MOL0     H52604   9.975   2.592   5.155 -0.4294 -0.3629  1.6455
  399MOL0     H52605  10.007   3.025   5.303  1.5261 -1.2018 -1.0835
  399MOL0     H52606   9.979   2.922   5.442  2.0590 -0.4490 -1.1037
  399MOL0     H52607   9.774   3.054   5.279  0.9969  2.7482  1.3308
  399MOL0     H52608   9.799   3.057   5.453 -1.0206 -2.2124  1.5352
  399MOL0     H52609   9.727   2.814   5.477  0.4466  0.0676 -0.3632
  399MOL0     H52610   9.695   2.823   5.301 -0.3264 -2.4736  0.9776
  399MOL0     H52611   9.587   3.016   5.521  0.3465  0.1407 -0.1493
  399MOL0     H52612   9.529   3.028   5.367  0.1099 -0.3450  0.4871
  399MOL0     H52613   9.504   2.769   5.509 -0.7481  0.5248 -0.5773
  399MOL0     H52614   9.410   2.812   5.365 -0.2390 -5.0692  1.0146
  399MOL0     H52615   9.279   2.985   5.494 -1.2163 -0.1000  0.6825
  399MOL0     H52616   9.374   2.960   5.637 -0.3951  0.2189 -0.0791
  399MOL0     H52617   9.163   2.775   5.520  0.5991  1.1422 -0.8748
  399MOL0     H52618   9.284   2.713   5.631  0.6504  0.2915 -0.0016
  399MOL0     H52619   9.123   2.961   5.691  1.6517 -0.1726 -2.5312
  399MOL0     H52620   9.206   2.871   5.818  0.4125  1.4314  0.1644
  399MOL0     H52621   9.007   2.756   5.964  1.0997 -0.5688 -1.1034
  399MOL0     H52622   8.799   2.621   6.022  2.6435  0.7641 -0.0940
  399MOL0     H52623   8.654   2.652   5.933  1.3082  0.4688 -1.1514
  399MOL0     H52624   8.729   2.917   5.993  1.2008  0.2050 -0.1440
  399MOL0     H52625   8.761   2.811   6.141 -1.1401 -0.0128  0.0941
  399MOL0     H52626   8.494   2.875   6.022  1.0080  0.8832 -0.6829
  399MOL0     H52627   8.521   2.718   6.091 -0.7130 -0.5681  0.0793
  399MOL0     H52628   8.441   2.860   6.260 -0.2855  0.4410  1.2541
  399MOL0     H52629   8.549   3.000   6.215 -1.5543  0.3983  1.2447
  399MOL0     H52630   8.449   3.022   6.452 -0.2213  0.5578  0.9683
  399MOL0     H52631   8.392   3.025   6.693  0.2708  0.1681  0.3124
  399MOL0     H52632   8.644   2.873   7.168 -0.8815 -0.9784 -0.0491
  399MOL0     H52633   8.565   2.868   7.412  0.5101 -0.4281  0.8144
  399MOL0     H52634   8.169   2.813   7.540  1.5845 -1.9829  2.3843
  399MOL0     H52635   8.270   2.922   7.453 -0.7843  0.2737 -0.3115
  399MOL0     H52636   8.373   3.007   7.628 -0.5151  0.0194 -1.9104
  399MOL0     H52637   8.400   2.843   7.697  2.2316  1.2076 -0.6017
  399MOL0     H52638   8.297   2.968   7.854  0.2126 -0.1461  0.3463
  399MOL0     H52639   8.183   2.846   7.809  1.3304 -0.9755  0.8085
  399MOL0     H52640   8.174   3.143   7.750  0.9332  0.1428 -1.3759
  399MOL0     H52641   8.066   3.022   7.674 -0.3808 -1.5010  1.1897
  399MOL0     H52642   8.065   3.137   7.945  0.4451  1.0067 -0.9617
  399MOL0     H52643   8.024   2.960   7.932 -0.5980  1.2990  3.3303
  399MOL0     H52644   7.860   2.986   7.772 -1.5809 -0.0010  1.3629
  399MOL0     H52645   7.865   3.158   7.772  2.7796  1.7104  1.0946
  399MOL0     H52646   7.790   3.008   8.022 -0.6907 -1.9192 -0.5123
  399MOL0     H52647   7.799   3.179   8.000 -1.6343  0.4806 -0.8137
  399MOL0     H52648   7.622   3.207   7.837  1.4691  0.6975 -0.3574
  399MOL0     H52649   7.581   3.113   7.986 -0.1603  2.4050 -0.6011
  399MOL0     H52650   8.264   2.601   7.283  2.2182 -2.4836  2.5732
  399MOL0     H52651   8.331   2.624   7.044 -0.4128  1.7940 -0.1027
  399MOL0     H52652   8.715   2.750   6.756 -0.6400  1.7789  0.9500
  399MOL0     H52653   8.735   2.713   6.524 -0.9619 -0.8278  0.8739
  399MOL0     H52654  10.187   2.939   5.266  1.4150  1.1450 -0.8384
  399MOL0     H52655  10.404   2.813   5.196 -0.5977 -1.0684 -1.4369
  399MOL0     H52656  10.774   2.618   4.997 -0.0169  0.5857 -0.4659
  399MOL0     H52657  10.907   2.449   4.861  0.7662 -0.0715  1.1062
  399MOL0     H52658  10.717   2.064   4.769  0.1151  0.9717  2.5426
  399MOL0     H52659  10.874   2.040   4.721  0.5515  0.8472  0.7139
  399MOL0     H52660  10.698   2.152   4.545  0.0939 -1.1572  1.4249
  399MOL0     H52661  10.721   2.289   4.633  0.5602  0.6394 -0.6023
  399MOL0     H52662  10.958   2.286   4.576 -3.3049  3.5844  1.6850
  399MOL0     H52663  10.836   2.324   4.457 -0.0582  0.9215  0.5804
  399MOL0     H52664  10.839   2.058   4.391  1.1391 -1.2530 -0.3431
  399MOL0     H52665  10.952   2.181   4.331  3.0907  0.4957  2.2877
  399MOL0     H52666  11.174   1.878   4.537 -2.0825 -0.5343  4.2816
  399MOL0     H52667  10.651   2.144   4.961 -0.7551  0.4957 -2.2773
  399MOL0     H52668  10.489   2.321   5.074 -2.3218  0.6501 -1.4697
  400MOL0     O52669   3.481   7.426   6.049  0.0886 -0.5281  0.5273
  400MOL0     C52670   3.429   7.536   6.044 -0.6217 -0.7384  1.0612
  400MOL0     O52671   3.493   7.652   5.996  0.6842 -0.6576  0.7865
  400MOL0     C52672   3.631   7.647   5.974 -0.5346  0.2982  0.4560
  400MOL0     C52673   3.718   7.591   6.066  1.0394 -0.1760  0.3363
  400MOL0     C52674   3.852   7.589   6.046 -1.9845 -0.5217 -0.7450
  400MOL0     C52675   3.914   7.632   5.936  0.2363  0.0326 -1.1196
  400MOL0     O52676   4.053   7.621   5.920 -0.5981 -0.3283  0.1389
  400MOL0     C52677   4.102   7.536   5.816 -0.0308  0.2751 -0.2338
  400MOL0     C52678   4.242   7.505   5.857 -0.0404  0.1492 -0.1743
  400MOL0     C52679   4.313   7.394   5.777 -0.9808 -0.0794  0.0149
  400MOL0     C52680   4.466   7.384   5.821  0.6387 -0.1243  0.1825
  400MOL0     C52681   4.552   7.336   5.700 -0.4109 -0.4390 -0.3703
  400MOL0     C52682   4.698   7.300   5.735  0.7176 -0.5345  0.3998
  400MOL0     C52683   4.712   7.201   5.855 -0.9016  0.1293  0.8285
  400MOL0     C52684   4.859   7.210   5.900  0.2600  0.2564  0.2130
  400MOL0     N52685   4.948   7.150   5.794  0.2184  1.0208 -1.1353
  400MOL0     C52686   4.990   7.021   5.790  0.7916 -0.9030 -1.0647
  400MOL0     C52687   5.114   7.029   5.725  0.4240 -0.2390 -0.6435
  400MOL0     C52688   5.199   6.906   5.708 -0.2959  0.9652  0.4369
  400MOL0     C52689   5.180   6.859   5.557  0.3513  0.4419  0.0391
  400MOL0     C52690   5.193   6.705   5.556  0.3492  0.0652  0.6745
  400MOL0     C52691   5.216   6.661   5.405 -0.1947 -0.2162  0.2208
  400MOL0     O52692   5.105   6.690   5.326 -0.3694 -0.8394 -0.7886
  400MOL0     C52693   5.105   6.651   5.195 -0.5254  0.9717 -0.1657
  400MOL0     C52694   4.981   6.655   5.122 -0.4726 -0.5430 -0.3513
  400MOL0     C52695   4.973   6.602   4.995 -0.0817  0.3678 -0.6348
  400MOL0     C52696   5.076   6.531   4.940 -0.5394  0.1540  0.3290
  400MOL0     C52697   5.062   6.467   4.812 -0.7840  0.2630 -0.1494
  400MOL0     O52698   4.935   6.437   4.783  0.5125  0.3441 -0.1533
  400MOL0     C52699   4.908   6.383   4.660  0.3578  0.6945 -0.2756
  400MOL0     C52700   4.972   6.398   4.529  0.1392  1.1069  0.2462
  400MOL0     C52701   4.925   6.331   4.411  0.4213  0.1428 -0.1515
  400MOL0     C52702   4.817   6.251   4.415  0.0698 -0.1396  0.0987
  400MOL0     O52703   4.790   6.161   4.308 -0.0696 -0.9406  0.6546
  400MOL0     C52704   4.651   6.138   4.272  0.2830  0.6091  0.0477
  400MOL0     C52705   4.587   6.272   4.236  0.4923  0.1825  0.2427
  400MOL0     C52706   4.458   6.306   4.319  0.0123 -0.0017 -1.0046
  400MOL0     C52707   4.404   6.443   4.270 -0.1037 -0.1160  0.5023
  400MOL0     C52708   4.487   6.556   4.332 -0.6116 -0.3922 -0.3846
  400MOL0     C52709   4.436   6.696   4.283 -0.5687  0.7608 -0.1260
  400MOL0     C52710   4.533   6.804   4.341  0.0640 -1.0780 -0.1824
  400MOL0     C52711   4.462   6.950   4.329 -0.1861  0.6645 -0.4606
  400MOL0    Cl52712   4.333   6.966   4.443 -0.2639  0.0816 -0.2587
  400MOL0     C52713   4.741   6.240   4.540 -0.9577  0.4210 -0.1752
  400MOL0     C52714   4.784   6.315   4.655  0.0280  0.8121  0.3320
  400MOL0     O52715   5.159   6.467   4.733  0.4054  0.8725 -0.4127
  400MOL0     C52716   5.197   6.515   5.013 -0.0341 -0.0599  0.1807
  400MOL0     C52717   5.209   6.584   5.131  0.5903 -0.4826 -0.4440
  400MOL0     N52718   5.149   7.158   5.701  0.2095  0.0104  0.0342
  400MOL0     N52719   5.047   7.226   5.739 -0.1271  0.1484 -0.0186
  400MOL0     C52720   3.828   7.703   5.846 -0.1869  0.2477 -0.7581
  400MOL0     C52721   3.695   7.702   5.863  0.6218  0.0430 -0.1142
  400MOL0     C52722   3.288   7.532   6.079 -0.2107 -0.8632 -0.3118
  400MOL0     C52723   3.215   7.413   6.081  0.0048  0.0299  0.3651
  400MOL0     C52724   3.083   7.416   6.118 -0.6680  0.3609 -0.4411
  400MOL0     C52725   3.018   7.537   6.150 -0.5482 -0.0781  0.5982
  400MOL0     O52726   2.884   7.543   6.188  0.3902 -0.2329  0.8369
  400MOL0     C52727   2.831   7.438   6.269 -0.7636  0.0528  0.4576
  400MOL0     C52728   2.843   7.491   6.409  0.4756  0.6827 -1.2326
  400MOL0     C52729   2.725   7.574   6.456  0.6523 -0.1801  0.3177
  400MOL0     C52730   2.719   7.586   6.608 -0.4294  0.0249 -0.9663
  400MOL0     C52731   2.600   7.665   6.649 -0.8102 -0.3533  0.4635
  400MOL0     C52732   2.498   7.726   6.671  0.2975  0.3892  0.8256
  400MOL0     C52733   3.095   7.653   6.151 -0.9622  0.0942  0.0420
  400MOL0     C52734   3.231   7.649   6.120 -0.3006  0.0326 -0.7759
  400MOL0     H52735   3.679   7.563   6.164 -3.2837 -0.0263 -1.1090
  400MOL0     H52736   3.904   7.541   6.129 -2.4392  0.4219  0.1024
  400MOL0     H52737   4.111   7.580   5.716 -1.4810  0.1230 -0.4490
  400MOL0     H52738   4.061   7.436   5.804  1.0437 -0.7488  3.2697
  400MOL0     H52739   4.230   7.475   5.961  0.0695  2.3637  0.5237
  400MOL0     H52740   4.302   7.597   5.854  1.1283 -0.5603 -3.4822
  400MOL0     H52741   4.312   7.410   5.669 -1.5995 -1.1164 -0.1491
  400MOL0     H52742   4.263   7.297   5.789  2.9686 -2.1623  1.5946
  400MOL0     H52743   4.500   7.485   5.845  3.0463  0.0211 -3.0786
  400MOL0     H52744   4.474   7.319   5.908  1.0709 -0.0918  0.1685
  400MOL0     H52745   4.548   7.426   5.638  1.5032  0.0571  0.1454
  400MOL0     H52746   4.515   7.260   5.631 -1.4363  0.4142 -0.7750
  400MOL0     H52747   4.753   7.391   5.762 -3.0354  1.9748  0.3377
  400MOL0     H52748   4.751   7.245   5.656  2.0417 -0.3723  1.1426
  400MOL0     H52749   4.664   7.243   5.944 -0.1431  2.5498  0.1888
  400MOL0     H52750   4.677   7.099   5.835  0.1871 -0.0283 -0.4385
  400MOL0     H52751   4.871   7.158   5.995 -1.8861  1.6909  1.3444
  400MOL0     H52752   4.873   7.318   5.910 -2.0594  0.5865  0.4082
  400MOL0     H52753   4.931   6.949   5.845 -0.1322  0.8564  0.3185
  400MOL0     H52754   5.166   6.827   5.776  0.1441  0.1542 -0.2605
  400MOL0     H52755   5.305   6.923   5.732  0.8941 -4.0394 -0.1414
  400MOL0     H52756   5.237   6.918   5.485 -0.3413 -0.2285 -1.0840
  400MOL0     H52757   5.076   6.887   5.538  0.6043  0.1058 -2.1078
  400MOL0     H52758   5.274   6.673   5.621  0.0507  0.2797  1.1599
  400MOL0     H52759   5.098   6.663   5.591 -0.1660  0.2889 -0.3912
  400MOL0     H52760   5.223   6.552   5.401  2.8875 -0.0641 -1.9190
  400MOL0     H52761   5.311   6.705   5.373 -0.2173  0.7940  1.4613
  400MOL0     H52762   4.891   6.697   5.166 -0.6904  1.2519 -2.3271
  400MOL0     H52763   4.887   6.615   4.931  0.8884  0.9747 -1.8553
  400MOL0     H52764   5.061   6.458   4.515  0.9314 -0.3461 -1.2602
  400MOL0     H52765   4.978   6.356   4.319  2.2463  0.1622  0.8644
  400MOL0     H52766   4.591   6.088   4.349 -0.5683 -1.9044 -2.0953
  400MOL0     H52767   4.642   6.069   4.188  0.5030 -0.3478  0.7985
  400MOL0     H52768   4.557   6.269   4.131  1.3039  4.0635 -0.2400
  400MOL0     H52769   4.667   6.347   4.231  1.8805 -1.3168 -3.1558
  400MOL0     H52770   4.492   6.310   4.422  0.6455  1.4020 -1.2450
  400MOL0     H52771   4.389   6.224   4.294  1.0455 -1.2813  0.1912
  400MOL0     H52772   4.407   6.460   4.162  0.8141 -0.0585  0.5342
  400MOL0     H52773   4.297   6.452   4.291  0.3212  1.2206  2.3706
  400MOL0     H52774   4.590   6.539   4.300  0.5170 -1.7279  3.4062
  400MOL0     H52775   4.472   6.547   4.440  1.8591 -1.8239 -0.0855
  400MOL0     H52776   4.337   6.710   4.328 -0.1612  0.8322  0.7669
  400MOL0     H52777   4.423   6.703   4.174  2.1900  0.5806 -0.5531
  400MOL0     H52778   4.566   6.792   4.444 -2.3456  0.9999  0.9308
  400MOL0     H52779   4.622   6.798   4.277 -0.3962  0.2028 -0.9732
  400MOL0     H52780   4.426   6.970   4.228  0.6371  4.8659 -0.1247
  400MOL0     H52781   4.534   7.023   4.368 -0.4496  0.2812  0.8040
  400MOL0     H52782   4.654   6.177   4.555  1.0457 -1.9688  2.5431
  400MOL0     H52783   4.713   6.308   4.736 -2.0676 -1.2268 -1.5181
  400MOL0     H52784   5.265   6.439   4.974 -1.5722 -1.2973 -0.1669
  400MOL0     H52785   5.304   6.572   5.183 -0.2714 -1.3475  1.0089
  400MOL0     H52786   3.858   7.747   5.752 -0.3747 -0.2408 -1.0474
  400MOL0     H52787   3.634   7.748   5.785 -0.5782  0.2847  0.9488
  400MOL0     H52788   3.264   7.322   6.046 -1.2309 -0.8008  0.7599
  400MOL0     H52789   3.029   7.321   6.127  0.3711 -0.1166  1.2392
  400MOL0     H52790   2.888   7.346   6.252 -4.2421 -2.2713  0.3603
  400MOL0     H52791   2.728   7.407   6.247 -1.6644  2.6619  0.6357
  400MOL0     H52792   2.860   7.409   6.480 -4.5859 -0.5188 -1.0463
  400MOL0     H52793   2.938   7.546   6.413  0.9808 -0.1858 -1.0662
  400MOL0     H52794   2.635   7.524   6.418  3.0009 -2.6534 -2.6354
  400MOL0     H52795   2.731   7.668   6.401 -1.9662 -1.0977 -1.7974
  400MOL0     H52796   2.695   7.492   6.660  0.9305  2.1452  4.1503
  400MOL0     H52797   2.809   7.621   6.660  0.2038 -1.6864 -0.8391
  400MOL0     H52798   2.404   7.773   6.690 -1.2991 -1.4123 -1.8127
  400MOL0     H52799   3.049   7.749   6.175 -0.9258  0.0519  0.2841
  400MOL0     H52800   3.292   7.738   6.131  1.8423 -1.6212  2.8230
  401MOL0     O52801  11.326   0.344   6.334  0.0107  0.1637 -0.0902
  401MOL0     C52802  11.319   0.349   6.215  0.6368 -0.1799 -0.4008
  401MOL0     O52803  11.200   0.373   6.141 -0.3252  0.4895 -0.7234
  401MOL0     C52804  11.078   0.395   6.210 -0.2836  1.0029 -0.0265
  401MOL0     C52805  11.004   0.288   6.260 -0.1713  0.1540  0.6448
  401MOL0     C52806  10.868   0.309   6.297  0.5681  0.2523 -0.8260
  401MOL0     C52807  10.809   0.434   6.276  0.7339  0.1283  0.0327
  401MOL0     O52808  10.676   0.442   6.289 -0.4644 -0.5827  0.8277
  401MOL0     C52809  10.586   0.344   6.232 -0.5377 -0.9747  0.1160
  401MOL0     C52810  10.430   0.400   6.256 -0.1481 -0.0303  1.3919
  401MOL0     C52811  10.326   0.289   6.234  0.3261  1.1019  0.0994
  401MOL0     C52812  10.185   0.350   6.221  0.5937  0.0362  0.0251
  401MOL0     C52813  10.066   0.240   6.237 -0.1396  0.3857 -0.1760
  401MOL0     C52814  10.040   0.204   6.391  0.2922  0.3669  0.9596
  401MOL0     C52815   9.948   0.089   6.416 -0.6150  0.8118  0.2734
  401MOL0     C52816   9.822   0.108   6.339 -0.1362 -0.3319 -0.1551
  401MOL0     N52817   9.720   0.015   6.377 -0.4602  0.8968 -0.2253
  401MOL0     C52818   9.727  -0.128   6.373  0.0698  0.2876  0.5345
  401MOL0     C52819   9.604  -0.166   6.411 -0.8304  0.1871  0.5097
  401MOL0     C52820   9.544  -0.311   6.410 -0.5676  0.5170  0.1803
  401MOL0     C52821   9.615  -0.401   6.307 -0.2741 -0.1567 -0.0144
  401MOL0     C52822   9.563  -0.371   6.166 -0.2643  0.1403  0.4783
  401MOL0     C52823   9.667  -0.301   6.075 -0.7234  0.3373 -0.0731
  401MOL0     O52824   9.805  -0.340   6.114 -0.5345  0.0885  0.4971
  401MOL0     C52825   9.906  -0.253   6.079 -0.2101  0.7007  0.5878
  401MOL0     C52826  10.034  -0.304   6.080 -0.2904 -0.4035 -0.6423
  401MOL0     C52827  10.152  -0.229   6.041  1.5204  1.2403 -0.1073
  401MOL0     C52828  10.137  -0.099   5.993  0.1949  0.3933 -0.0456
  401MOL0     C52829  10.257  -0.015   5.958  0.5049 -1.0581  0.3402
  401MOL0     O52830  10.371  -0.048   6.020 -0.3000 -0.4014 -0.4140
  401MOL0     C52831  10.490   0.005   5.970 -0.1820  0.1899  0.6957
  401MOL0     C52832  10.581   0.065   6.053 -0.1211  1.1788  0.4529
  401MOL0     C52833  10.695   0.110   5.997  0.5298  0.1916 -0.0952
  401MOL0     C52834  10.722   0.100   5.863  0.0816  0.3582  0.8354
  401MOL0     O52835  10.838   0.134   5.801 -0.0967  0.5569  0.3306
  401MOL0     C52836  10.945   0.177   5.884 -0.8825 -0.0671  1.0298
  401MOL0     C52837  11.067   0.205   5.791 -0.1508  0.0243  0.9955
  401MOL0     C52838  11.124   0.083   5.721  0.6211 -0.3342  0.2111
  401MOL0     C52839  11.242   0.133   5.641  0.1171  0.2027  0.0619
  401MOL0     C52840  11.334   0.034   5.569 -0.1423 -0.2009  0.0888
  401MOL0     C52841  11.406  -0.069   5.668  0.6976 -0.1190  0.3064
  401MOL0     C52842  11.511  -0.148   5.591  0.6225  0.3593  0.9313
  401MOL0     C52843  11.598  -0.225   5.690  0.4119 -0.4908  0.2332
  401MOL0    Cl52844  11.741  -0.286   5.593 -0.2419  0.3202  0.0985
  401MOL0     C52845  10.635   0.025   5.781 -0.7428  0.9982 -0.1737
  401MOL0     C52846  10.513  -0.026   5.834 -0.0296 -0.5544 -0.2939
  401MOL0     O52847  10.238   0.086   5.885 -0.1754 -0.5851 -1.4133
  401MOL0     C52848  10.009  -0.053   5.975  0.9126  0.7758  0.4687
  401MOL0     C52849   9.900  -0.130   6.016  0.0133 -0.5945  0.1997
  401MOL0     N52850   9.526  -0.051   6.440  0.3998 -0.8156 -0.6182
  401MOL0     N52851   9.598   0.051   6.416 -0.6909  0.4912 -0.1812
  401MOL0     C52852  10.878   0.536   6.233  0.3276  0.8227  0.0974
  401MOL0     C52853  11.013   0.520   6.205  0.7806  0.8086 -0.1602
  401MOL0     C52854  11.445   0.330   6.145  0.1117 -0.9830 -0.1129
  401MOL0     C52855  11.573   0.325   6.215  1.1180  0.9841  0.6738
  401MOL0     C52856  11.691   0.310   6.143 -0.8049 -0.6190  0.4174
  401MOL0     C52857  11.684   0.332   5.996  0.7064 -0.3808 -0.3051
  401MOL0     O52858  11.802   0.324   5.925 -0.4776 -0.0317 -0.5813
  401MOL0     C52859  11.849   0.191   5.916 -0.1253 -0.4412 -0.7316
  401MOL0     C52860  11.960   0.193   5.808 -0.4789  1.1085 -0.0541
  401MOL0     C52861  12.097   0.245   5.860  0.1676  0.5586 -0.4236
  401MOL0     C52862  12.214   0.221   5.755  1.0479  0.6491 -0.0621
  401MOL0     C52863  12.258   0.079   5.757  0.2258  0.1112 -0.2551
  401MOL0     C52864  12.303  -0.026   5.765 -0.5943  0.3538  1.0831
  401MOL0     C52865  11.563   0.337   5.933 -0.7384  0.1507  0.1681
  401MOL0     C52866  11.445   0.340   6.006  1.4844 -0.3232 -0.8246
  401MOL0     H52867  11.057   0.193   6.262  3.8695  2.1543  0.1366
  401MOL0     H52868  10.801   0.228   6.322 -0.2989  1.0048 -0.6664
  401MOL0     H52869  10.606   0.248   6.281 -0.1808 -0.4710  0.9716
  401MOL0     H52870  10.618   0.337   6.128 -0.0473 -0.0296  0.1971
  401MOL0     H52871  10.414   0.481   6.184  2.2089  0.6736  1.5836
  401MOL0     H52872  10.415   0.440   6.356 -1.5761  1.8171  0.4980
  401MOL0     H52873  10.328   0.232   6.327  0.9633  1.3697  0.2522
  401MOL0     H52874  10.353   0.242   6.139  0.4015  2.8320 -0.7779
  401MOL0     H52875  10.170   0.431   6.292  0.2561  0.3313 -0.3790
  401MOL0     H52876  10.177   0.405   6.127 -2.9561 -0.8530 -0.3097
  401MOL0     H52877  10.097   0.161   6.168  0.7055  0.9710 -0.4950
  401MOL0     H52878   9.977   0.291   6.199 -0.8288  1.4126  2.6266
  401MOL0     H52879  10.013   0.293   6.448  0.0049  1.4515 -0.8000
  401MOL0     H52880  10.136   0.179   6.437  0.2289  3.0466  2.7570
  401MOL0     H52881  10.007   0.004   6.379  0.0729  1.7967 -0.9807
  401MOL0     H52882   9.915   0.072   6.519 -2.8674 -5.2065 -1.0007
  401MOL0     H52883   9.850   0.084   6.236  1.2931  0.3991  0.0352
  401MOL0     H52884   9.791   0.212   6.356 -2.0522 -1.2071  2.2740
  401MOL0     H52885   9.808  -0.185   6.329 -0.3654 -1.1401  1.5291
  401MOL0     H52886   9.438  -0.298   6.388  0.0052  0.9483 -2.7094
  401MOL0     H52887   9.559  -0.353   6.510  2.8690  1.0690  0.0239
  401MOL0     H52888   9.596  -0.507   6.327 -3.7369  0.0621 -1.5029
  401MOL0     H52889   9.724  -0.396   6.319 -0.0419 -2.3361 -0.7975
  401MOL0     H52890   9.540  -0.471   6.128 -0.1278 -0.5237  2.0648
  401MOL0     H52891   9.467  -0.320   6.157 -0.2640 -0.1837 -2.0640
  401MOL0     H52892   9.639  -0.195   6.083  0.9366  0.9383 -1.5835
  401MOL0     H52893   9.650  -0.333   5.972 -4.4569 -0.4660  0.6330
  401MOL0     H52894  10.045  -0.403   6.124  1.4009 -0.0138 -0.1398
  401MOL0     H52895  10.247  -0.280   6.044  1.4598  1.1575  0.5921
  401MOL0     H52896  10.564   0.085   6.158 -0.0468  0.4771  0.6070
  401MOL0     H52897  10.763   0.159   6.066 -0.8334 -1.6308  2.7075
  401MOL0     H52898  10.983   0.102   5.955  0.5691 -1.4795 -1.1205
  401MOL0     H52899  10.914   0.263   5.944  1.1231  1.9750 -0.6817
  401MOL0     H52900  11.142   0.265   5.844 -0.4361 -0.1782  1.6444
  401MOL0     H52901  11.041   0.279   5.715  0.2839 -2.0389 -1.2629
  401MOL0     H52902  11.044   0.040   5.662  0.0710 -3.3958  2.8698
  401MOL0     H52903  11.157   0.002   5.787  2.3858  0.9691  1.0290
  401MOL0     H52904  11.206   0.208   5.569  1.1441  2.4620  1.7988
  401MOL0     H52905  11.307   0.183   5.713 -1.1929 -0.1751  1.5579
  401MOL0     H52906  11.414   0.097   5.530 -0.0921 -0.9652 -1.0888
  401MOL0     H52907  11.286  -0.021   5.487  0.5169 -1.3159  0.4304
  401MOL0     H52908  11.336  -0.143   5.706  0.0515  0.9312  1.2373
  401MOL0     H52909  11.431  -0.003   5.751  1.0378  2.0805 -1.4303
  401MOL0     H52910  11.461  -0.217   5.522  0.4568 -0.8258  2.1907
  401MOL0     H52911  11.588  -0.086   5.544  2.3937 -2.1549  0.2686
  401MOL0     H52912  11.554  -0.316   5.732  3.5211 -1.0754  2.5549
  401MOL0     H52913  11.623  -0.157   5.772 -2.4846 -0.0027  0.8253
  401MOL0     H52914  10.660  -0.000   5.678 -2.0634 -2.1728  0.1511
  401MOL0     H52915  10.445  -0.078   5.769 -0.7547  1.0874 -0.9087
  401MOL0     H52916   9.992   0.042   5.926  1.1685 -0.4122 -2.1069
  401MOL0     H52917   9.802  -0.086   6.000 -0.3464 -0.5253  2.3438
  401MOL0     H52918  10.828   0.631   6.220 -5.2586 -1.0016  4.1026
  401MOL0     H52919  11.078   0.593   6.158 -3.4949  3.0882 -3.1595
  401MOL0     H52920  11.580   0.311   6.322 -0.4826 -0.6662  0.5977
  401MOL0     H52921  11.785   0.304   6.196 -1.8132  2.9176  2.9512
  401MOL0     H52922  11.770   0.126   5.876 -2.2028  2.3637 -1.5271
  401MOL0     H52923  11.886   0.142   6.007  1.6422 -2.5660 -2.5044
  401MOL0     H52924  11.978   0.089   5.779  1.5932  1.2911  0.3771
  401MOL0     H52925  11.933   0.245   5.715 -0.1083 -2.5822 -2.4201
  401MOL0     H52926  12.134   0.191   5.948  0.0495  3.3204  1.4734
  401MOL0     H52927  12.072   0.349   5.882 -1.1677  0.0008  0.9092
  401MOL0     H52928  12.171   0.247   5.658  0.8504  2.0645  0.3880
  401MOL0     H52929  12.300   0.285   5.774  0.1634  1.5949  0.8902
  401MOL0     H52930  12.347  -0.123   5.753 -1.1218  0.4222 -2.3697
  401MOL0     H52931  11.554   0.340   5.825 -0.4245 -1.0722  0.1032
  401MOL0     H52932  11.350   0.343   5.954  0.6229 -2.2039  0.4844
  402MOL0     O52933   1.397   9.922   2.722 -1.0548 -0.4376  0.0840
  402MOL0     C52934   1.385  10.028   2.786 -0.5592 -0.1641  0.1434
  402MOL0     O52935   1.479  10.133   2.802 -0.0351 -0.1592 -0.8032
  402MOL0     C52936   1.610  10.123   2.766 -0.0546  0.0136 -0.0996
  402MOL0     C52937   1.652  10.098   2.638  0.2197 -0.0897 -0.8742
  402MOL0     C52938   1.785  10.068   2.608  0.8008  1.7857 -0.0242
  402MOL0     C52939   1.879  10.079   2.713  0.0940 -0.0003 -0.4597
  402MOL0     O52940   2.006  10.037   2.698  0.4033  0.4107  0.0057
  402MOL0     C52941   2.022   9.919   2.622 -0.6602  0.0596  0.2155
  402MOL0     C52942   2.163   9.859   2.616 -0.1884  0.9481  0.5373
  402MOL0     C52943   2.149   9.733   2.511  0.2225  0.3725 -0.4948
  402MOL0     C52944   2.143   9.784   2.366 -0.4875 -0.3123  0.4655
  402MOL0     C52945   2.206   9.689   2.261  0.2398 -0.7234 -0.5077
  402MOL0     C52946   2.257   9.744   2.130 -0.4058 -0.1489  1.0845
  402MOL0     C52947   2.288   9.643   2.019  0.7368  0.3353  0.1358
  402MOL0     C52948   2.356   9.700   1.896  0.5733  0.7046  0.7916
  402MOL0     N52949   2.384   9.595   1.805 -0.2533  0.4075  0.7017
  402MOL0     C52950   2.451   9.475   1.835 -0.0453 -0.4799  0.4450
  402MOL0     C52951   2.436   9.407   1.719 -0.2842  0.2963 -0.0309
  402MOL0     C52952   2.492   9.268   1.692 -0.3673  0.4359  0.2577
  402MOL0     C52953   2.390   9.164   1.752  0.5007 -0.2865  0.2828
  402MOL0     C52954   2.280   9.137   1.649 -0.7634 -0.2664  0.2701
  402MOL0     C52955   2.165   9.050   1.711  0.5466 -0.5996 -0.6087
  402MOL0     O52956   2.099   9.123   1.827 -0.5035 -0.4392  0.3861
  402MOL0     C52957   2.007   9.049   1.895  0.1333 -0.3634 -0.5591
  402MOL0     C52958   1.952   8.926   1.854 -0.3594  1.0418  0.8691
  402MOL0     C52959   1.838   8.876   1.912  0.5964  0.2087  0.1358
  402MOL0     C52960   1.787   8.920   2.030 -0.5280 -0.7407 -0.3087
  402MOL0     C52961   1.668   8.867   2.093 -0.5264  0.0309 -0.0200
  402MOL0     O52962   1.616   8.749   2.043 -0.2817 -1.0516 -0.1958
  402MOL0     C52963   1.490   8.724   2.087  0.3819 -0.2078  0.3233
  402MOL0     C52964   1.379   8.774   2.026 -0.5560  0.4299 -0.2281
  402MOL0     C52965   1.250   8.743   2.080 -0.0674  0.0453 -0.3592
  402MOL0     C52966   1.235   8.661   2.192  0.0417 -0.6879  0.5785
  402MOL0     O52967   1.108   8.633   2.237 -0.0264 -0.2450  0.7281
  402MOL0     C52968   0.995   8.715   2.198  0.0152 -0.3294 -0.3654
  402MOL0     C52969   0.883   8.709   2.297 -0.6428 -0.0967  0.3006
  402MOL0     C52970   0.804   8.576   2.325 -0.6678  0.4068 -0.1676
  402MOL0     C52971   0.672   8.594   2.381  0.8005 -0.7736  0.0487
  402MOL0     C52972   0.613   8.466   2.419  0.7325  0.4608  0.3403
  402MOL0     C52973   0.486   8.484   2.492  0.4480 -0.1885 -1.3288
  402MOL0     C52974   0.422   8.353   2.533  0.0697  0.5641 -0.1488
  402MOL0     C52975   0.276   8.378   2.584  0.2219  0.4965 -0.4600
  402MOL0    Cl52976   0.214   8.221   2.628 -0.3258  0.4203 -0.5717
  402MOL0     C52977   1.350   8.608   2.251 -0.2611 -1.1749  0.0525
  402MOL0     C52978   1.480   8.638   2.200 -0.0124 -0.6205  0.2947
  402MOL0     O52979   1.609   8.944   2.172 -0.1934 -0.6797  0.0106
  402MOL0     C52980   1.849   9.035   2.086  0.2451  0.1433  0.5315
  402MOL0     C52981   1.964   9.101   2.020  0.8747 -0.4945  0.5710
  402MOL0     N52982   2.371   9.487   1.623 -0.1532 -0.4097 -0.1149
  402MOL0     N52983   2.330   9.595   1.679 -0.2412  0.2633 -0.2073
  402MOL0     C52984   1.847  10.138   2.831  0.2647  0.2630 -0.2718
  402MOL0     C52985   1.711  10.154   2.862 -0.3755 -0.6590  0.1335
  402MOL0     C52986   1.250  10.053   2.831 -0.2046  0.3349 -0.1668
  402MOL0     C52987   1.209  10.177   2.889  0.6195 -0.7464  0.4677
  402MOL0     C52988   1.083  10.186   2.949 -0.5517  0.3317 -0.2543
  402MOL0     C52989   0.994  10.069   2.961  0.6237  0.6776  0.4454
  402MOL0     O52990   0.877  10.071   3.027 -0.5830 -0.3208  0.1382
  402MOL0     C52991   0.773  10.133   2.955 -0.0401 -0.1609  0.4095
  402MOL0     C52992   0.641  10.122   3.046  0.2296 -0.5896 -0.0951
  402MOL0     C52993   0.579   9.984   3.077  0.3642 -0.1504 -0.9200
  402MOL0     C52994   0.499   9.923   2.953 -0.0320 -0.0772 -0.4307
  402MOL0     C52995   0.588   9.883   2.849 -0.7181 -0.4317  0.1422
  402MOL0     C52996   0.658   9.855   2.755 -0.3862  1.0535  0.6022
  402MOL0     C52997   1.032   9.952   2.893  0.6313 -0.5863 -0.8483
  402MOL0     C52998   1.158   9.945   2.826 -0.6332 -0.3901 -0.8643
  402MOL0     H52999   1.575  10.093   2.562 -2.0046 -2.9517  1.3284
  402MOL0     H53000   1.796  10.030   2.507 -1.1844 -0.0701  0.3917
  402MOL0     H53001   1.985   9.935   2.521 -0.5638  1.5880  0.4031
  402MOL0     H53002   1.958   9.835   2.650 -2.5502  0.4778 -2.5051
  402MOL0     H53003   2.198   9.827   2.715  0.3710 -2.1291 -0.5512
  402MOL0     H53004   2.231   9.940   2.588  1.8705 -0.4096  1.3949
  402MOL0     H53005   2.058   9.676   2.529  0.3581  0.0881 -0.7127
  402MOL0     H53006   2.228   9.660   2.527 -1.4457 -0.8952  2.7339
  402MOL0     H53007   2.038   9.795   2.336  0.4797 -1.6775 -4.1661
  402MOL0     H53008   2.193   9.880   2.355 -0.0587 -0.6355 -0.5951
  402MOL0     H53009   2.131   9.613   2.238 -2.3537  1.7261 -0.5764
  402MOL0     H53010   2.291   9.635   2.303  1.2329  0.4920 -0.8917
  402MOL0     H53011   2.344   9.810   2.139  0.4380 -1.0513 -0.2386
  402MOL0     H53012   2.180   9.812   2.092  0.8286 -0.1384 -1.6507
  402MOL0     H53013   2.346   9.566   2.071 -0.4940 -1.5528 -1.1493
  402MOL0     H53014   2.193   9.593   1.994  0.9419 -0.4944  0.9638
  402MOL0     H53015   2.449   9.748   1.931  0.9424  0.4217  0.2094
  402MOL0     H53016   2.283   9.767   1.852 -1.5931 -1.7367  0.4275
  402MOL0     H53017   2.509   9.441   1.920 -0.6570  0.7116  1.3652
  402MOL0     H53018   2.593   9.245   1.726 -0.1827 -0.2491 -0.7049
  402MOL0     H53019   2.509   9.257   1.584  1.3989  0.4886  0.4957
  402MOL0     H53020   2.337   9.194   1.844  0.8786  0.5037  0.2547
  402MOL0     H53021   2.450   9.075   1.774  1.3510  0.5112  1.3207
  402MOL0     H53022   2.235   9.229   1.610 -1.8894 -1.1904 -0.7083
  402MOL0     H53023   2.324   9.084   1.564 -2.1962 -0.6302 -0.2854
  402MOL0     H53024   2.215   8.960   1.748 -0.3013 -1.1997 -0.8814
  402MOL0     H53025   2.092   9.010   1.640 -2.8413  0.2555  2.1431
  402MOL0     H53026   1.985   8.874   1.766 -3.4629  1.9786 -1.0270
  402MOL0     H53027   1.806   8.784   1.864  2.6065  0.7408 -2.4288
  402MOL0     H53028   1.392   8.831   1.934  0.9384  2.2773  1.0479
  402MOL0     H53029   1.165   8.774   2.020 -0.4868  2.4866  1.3634
  402MOL0     H53030   0.953   8.689   2.101 -0.4877  0.5546 -0.4012
  402MOL0     H53031   1.021   8.820   2.178 -1.8419  0.4149  0.8134
  402MOL0     H53032   0.805   8.780   2.270 -0.2890 -0.0094 -0.5260
  402MOL0     H53033   0.921   8.742   2.395 -1.2860 -1.0079  0.8730
  402MOL0     H53034   0.866   8.525   2.400 -0.5086 -0.9813 -1.2053
  402MOL0     H53035   0.792   8.514   2.236 -0.6159 -1.1566  0.8632
  402MOL0     H53036   0.684   8.660   2.468 -0.9553 -1.3583  0.7840
  402MOL0     H53037   0.615   8.652   2.308  0.0736  1.6025  2.3359
  402MOL0     H53038   0.671   8.402   2.487 -1.7820 -0.4556  1.7707
  402MOL0     H53039   0.589   8.412   2.327  0.1305  0.9806  0.1933
  402MOL0     H53040   0.421   8.543   2.426 -0.3617 -0.3743 -0.7182
  402MOL0     H53041   0.492   8.538   2.587 -2.3157 -0.5837 -0.8452
  402MOL0     H53042   0.427   8.295   2.441 -2.0636  0.4152 -0.2055
  402MOL0     H53043   0.471   8.310   2.622 -0.6440  0.0356 -0.0090
  402MOL0     H53044   0.210   8.417   2.505 -0.6540  1.0524  0.5233
  402MOL0     H53045   0.278   8.434   2.678  0.4838 -2.4455  1.3841
  402MOL0     H53046   1.343   8.524   2.319  0.3211 -2.0451 -0.9404
  402MOL0     H53047   1.565   8.586   2.243 -0.1368 -0.3672  0.8535
  402MOL0     H53048   1.795   9.083   2.167 -0.4076 -2.9108  2.0784
  402MOL0     H53049   1.998   9.195   2.063  1.0025  0.0594 -0.6726
  402MOL0     H53050   1.923  10.144   2.909  0.7206 -1.6248 -0.5242
  402MOL0     H53051   1.677  10.171   2.964 -3.4737 -0.1873 -0.8749
  402MOL0     H53052   1.289  10.250   2.882  3.2803 -3.3907  1.1819
  402MOL0     H53053   1.058  10.282   2.993 -0.5288 -0.4978  1.6800
  402MOL0     H53054   0.760  10.077   2.862  3.5068  0.7369 -0.7913
  402MOL0     H53055   0.800  10.239   2.951  0.0234 -0.0847  2.0876
  402MOL0     H53056   0.659  10.178   3.139  0.7334  0.4528 -0.8003
  402MOL0     H53057   0.563  10.176   2.994 -1.8703 -2.5367  0.8663
  402MOL0     H53058   0.510   9.999   3.161 -1.3158 -0.0347 -2.2908
  402MOL0     H53059   0.658   9.911   3.102 -2.3004 -2.7492  0.6473
  402MOL0     H53060   0.437   9.838   2.985  1.5302 -0.0572  3.0770
  402MOL0     H53061   0.436  10.001   2.910  0.5691 -1.2795 -3.7413
  402MOL0     H53062   0.692   9.831   2.656 -3.3563  2.1228 -0.7733
  402MOL0     H53063   0.951   9.879   2.891 -1.4269  1.5175  0.7723
  402MOL0     H53064   1.191   9.858   2.769  1.9891 -0.6633  0.8941
  403MOL0     O53065   0.488   0.275  11.146 -0.5046  0.6754  0.2519
  403MOL0     C53066   0.483   0.368  11.068  0.0129  0.1208  0.0396
  403MOL0     O53067   0.584   0.448  11.020 -0.1113 -0.7554 -0.4794
  403MOL0     C53068   0.704   0.478  11.082 -0.1804  1.2940 -0.4225
  403MOL0     C53069   0.791   0.550  11.009  0.5004  0.6491 -0.4316
  403MOL0     C53070   0.921   0.582  11.063  0.8037  0.2105 -0.2287
  403MOL0     C53071   0.949   0.537  11.196 -1.2963 -0.5129  0.9284
  403MOL0     O53072   1.078   0.556  11.239 -0.3749  0.2755 -0.5551
  403MOL0     C53073   1.083   0.657  11.340 -0.0001 -0.0425 -0.2643
  403MOL0     C53074   1.237   0.688  11.373 -0.0961  1.1112 -0.7755
  403MOL0     C53075   1.316   0.718  11.248 -0.0144 -0.0695  0.2118
  403MOL0     C53076   1.450   0.776  11.280 -0.4097 -0.0170 -0.5477
  403MOL0     C53077   1.538   0.797  11.152 -0.0992 -0.3168 -0.1389
  403MOL0     C53078   1.500   0.919  11.063  0.1601 -0.9788 -0.0173
  403MOL0     C53079   1.505   1.054  11.133  0.0160 -0.0241 -0.8032
  403MOL0     C53080   1.539   1.171  11.045  0.8618 -0.4168  0.2732
  403MOL0     N53081   1.535   1.280  11.147 -0.2277  0.9162  0.3108
  403MOL0     C53082   1.427   1.354  11.160  0.3902  0.0041 -0.3473
  403MOL0     C53083   1.449   1.440  11.255 -0.1504  0.9605 -0.1723
  403MOL0     C53084   1.365   1.550  11.324  0.7852  0.7140 -0.5241
  403MOL0     C53085   1.269   1.513  11.438  0.5914  0.4229 -0.0376
  403MOL0     C53086   1.341   1.495  11.572  0.0256 -0.8202  0.0954
  403MOL0     C53087   1.263   1.406  11.672 -0.9753 -0.6284  0.2237
  403MOL0     O53088   1.149   1.482  11.705  0.7983  0.6848  0.3479
  403MOL0     C53089   1.057   1.437  11.798  0.3846 -0.3895  1.4020
  403MOL0     C53090   0.970   1.541  11.852  0.3865  0.7743 -0.4119
  403MOL0     C53091   0.882   1.502  11.958 -0.2601 -0.2389  0.1466
  403MOL0     C53092   0.855   1.366  11.980  0.7010  0.6847 -0.6655
  403MOL0     C53093   0.739   1.322  12.063  0.0581  0.1662 -0.0255
  403MOL0     O53094   0.718   1.189  12.093 -0.6475  0.3362 -0.1779
  403MOL0     C53095   0.620   1.158  12.188 -0.0508  0.0213  0.6810
  403MOL0     C53096   0.514   1.081  12.138 -0.6618  0.2717  0.4614
  403MOL0     C53097   0.411   1.048  12.225  0.3591  0.4165 -0.2149
  403MOL0     C53098   0.429   1.060  12.362 -0.5769  0.0742 -0.2354
  403MOL0     O53099   0.331   1.017  12.449 -0.0209 -0.6263  0.7300
  403MOL0     C53100   0.363   1.032  12.593  0.4511  0.3945  0.1947
  403MOL0     C53101   0.258   0.944  12.674 -0.2459  0.3993 -0.3813
  403MOL0     C53102   0.300   0.790  12.666  0.8507 -0.4317 -0.0440
  403MOL0     C53103   0.195   0.692  12.733 -0.0420 -0.6319  0.7741
  403MOL0     C53104   0.104   0.625  12.632  0.0898  1.0875 -0.6549
  403MOL0     C53105   0.054   0.487  12.676 -0.4651 -0.1274  0.9791
  403MOL0     C53106  -0.026   0.508  12.799  0.0884  1.0207  0.6325
  403MOL0     C53107  -0.126   0.389  12.802 -0.4261  0.3837 -0.0891
  403MOL0    Cl53108  -0.206   0.405  12.955  0.2726 -0.3241  0.3490
  403MOL0     C53109   0.558   1.126  12.404  0.4539  0.2667  0.3180
  403MOL0     C53110   0.645   1.182  12.320 -0.3033  1.5676 -0.4646
  403MOL0     O53111   0.672   1.415  12.112  0.4198  0.1692  0.4869
  403MOL0     C53112   0.928   1.261  11.909 -0.5936 -0.2480 -0.4537
  403MOL0     C53113   1.027   1.301  11.811  0.1128 -0.9693 -0.0516
  403MOL0     N53114   1.579   1.414  11.300 -0.4545  0.0463 -1.1047
  403MOL0     N53115   1.627   1.320  11.229  0.4398 -0.1610  0.1613
  403MOL0     C53116   0.857   0.466  11.273 -0.0116 -0.4644 -0.3150
  403MOL0     C53117   0.737   0.430  11.214 -0.2823 -1.1044  0.6453
  403MOL0     C53118   0.359   0.404  10.988 -0.0511  0.0228 -1.3969
  403MOL0     C53119   0.343   0.536  10.937  0.3022  0.6452 -0.2029
  403MOL0     C53120   0.226   0.572  10.864  0.2948  0.3392  0.6202
  403MOL0     C53121   0.121   0.480  10.850  0.6664 -0.3348  0.5678
  403MOL0     O53122   0.002   0.512  10.782 -0.0955  0.2741  0.4261
  403MOL0     C53123  -0.119   0.454  10.833  0.0156 -0.4781  0.2803
  403MOL0     C53124  -0.235   0.444  10.726 -1.4322  0.1057 -0.3028
  403MOL0     C53125  -0.370   0.388  10.789 -0.4194 -0.0402 -0.5772
  403MOL0     C53126  -0.494   0.437  10.704 -0.6884 -1.1270 -0.6341
  403MOL0     C53127  -0.620   0.370  10.756  0.2554 -1.1853  0.7002
  403MOL0     C53128  -0.731   0.317  10.763  0.7677  0.4896 -0.2302
  403MOL0     C53129   0.147   0.348  10.893 -0.7432 -0.1973  0.0042
  403MOL0     C53130   0.266   0.306  10.951 -0.4349  0.5563 -0.3824
  403MOL0     H53131   0.764   0.571  10.906 -0.5838  1.8984  0.0798
  403MOL0     H53132   0.992   0.636  11.001  0.4918  2.1014  0.9655
  403MOL0     H53133   1.028   0.612  11.424 -2.6004  2.0112 -0.7449
  403MOL0     H53134   1.037   0.750  11.308  0.5011  0.2803 -0.0567
  403MOL0     H53135   1.280   0.605  11.431 -1.0248  0.5954 -0.8124
  403MOL0     H53136   1.247   0.771  11.443  0.5807 -0.8961  1.6585
  403MOL0     H53137   1.261   0.788  11.184 -4.9309 -3.7190 -0.1782
  403MOL0     H53138   1.316   0.627  11.188  2.9346  1.0315 -1.6588
  403MOL0     H53139   1.437   0.868  11.337  1.4129  0.2778 -0.5653
  403MOL0     H53140   1.502   0.707  11.347 -3.6201 -1.3311  0.8167
  403MOL0     H53141   1.535   0.714  11.081 -1.9518 -2.2656  2.0668
  403MOL0     H53142   1.638   0.815  11.194 -0.5268  2.0929  0.0030
  403MOL0     H53143   1.406   0.900  11.011  0.5394 -1.8993 -0.3708
  403MOL0     H53144   1.575   0.916  10.984 -0.7824 -5.4263 -1.0217
  403MOL0     H53145   1.415   1.073  11.192  1.9689  5.6253  0.9867
  403MOL0     H53146   1.577   1.047  11.216 -1.7470  1.3442  0.9219
  403MOL0     H53147   1.458   1.178  10.972 -0.0386 -0.0441  1.2844
  403MOL0     H53148   1.636   1.139  11.006  0.3765 -1.0342 -0.4562
  403MOL0     H53149   1.329   1.340  11.114 -1.2513  0.3450  2.7583
  403MOL0     H53150   1.299   1.592  11.249 -1.3681  1.3567  1.6022
  403MOL0     H53151   1.427   1.629  11.368  0.6715  1.5054 -1.7602
  403MOL0     H53152   1.224   1.416  11.419  1.6929  0.1331 -1.3204
  403MOL0     H53153   1.181   1.577  11.448 -1.7218 -2.1843 -2.1735
  403MOL0     H53154   1.438   1.448  11.557 -1.3389 -3.9817  0.3543
  403MOL0     H53155   1.349   1.598  11.608  1.7092 -0.9659  0.2126
  403MOL0     H53156   1.326   1.389  11.761  2.1149  0.4024 -1.6007
  403MOL0     H53157   1.236   1.315  11.619 -0.8703 -0.3474 -0.3184
  403MOL0     H53158   0.969   1.649  11.838 -0.8490  1.2317  2.5468
  403MOL0     H53159   0.818   1.566  12.017  0.1839 -2.2124  2.9591
  403MOL0     H53160   0.526   1.064  12.032  0.0735 -0.6231  0.6766
  403MOL0     H53161   0.316   1.009  12.190 -1.2393  1.7326  2.3440
  403MOL0     H53162   0.364   1.136  12.628  0.3061  0.8695 -1.1710
  403MOL0     H53163   0.464   0.996  12.612  0.3270 -0.4299 -0.6773
  403MOL0     H53164   0.155   0.969  12.647 -0.9612 -0.8739  1.0435
  403MOL0     H53165   0.271   0.983  12.776 -1.0560  1.5500 -0.6913
  403MOL0     H53166   0.403   0.772  12.698  0.5603  0.5663  1.5863
  403MOL0     H53167   0.293   0.772  12.558  1.2233 -3.9109  0.3844
  403MOL0     H53168   0.257   0.616  12.781 -0.1252  0.1075  2.1054
  403MOL0     H53169   0.128   0.742  12.803 -1.5641  1.6097 -2.0250
  403MOL0     H53170   0.155   0.616  12.535  2.6067  0.3541  0.6516
  403MOL0     H53171   0.019   0.691  12.611 -1.8243  0.0983  3.0810
  403MOL0     H53172   0.131   0.409  12.669  0.6216  0.9354  0.7422
  403MOL0     H53173  -0.020   0.472  12.596 -1.0911 -0.5360  1.6211
  403MOL0     H53174   0.043   0.508  12.884  2.6187  1.5319 -1.3062
  403MOL0     H53175  -0.079   0.604  12.794 -1.8964 -0.0950 -1.5470
  403MOL0     H53176  -0.073   0.295  12.788 -1.4889 -0.0394 -1.5480
  403MOL0     H53177  -0.195   0.385  12.717 -3.1271 -0.9027  1.9811
  403MOL0     H53178   0.572   1.146  12.510 -0.3456 -0.2751  0.5404
  403MOL0     H53179   0.721   1.257  12.337 -0.1799  1.2590  0.3945
  403MOL0     H53180   0.921   1.156  11.934  1.7843 -0.4249 -0.2804
  403MOL0     H53181   1.066   1.221  11.749  0.1939 -1.9201  1.1829
  403MOL0     H53182   0.879   0.429  11.372 -0.5944 -1.1975 -0.4498
  403MOL0     H53183   0.660   0.392  11.280 -0.5467 -1.3880  0.1846
  403MOL0     H53184   0.418   0.614  10.952 -0.4709  1.6366 -1.2882
  403MOL0     H53185   0.209   0.666  10.813  0.1225  0.8573  1.6075
  403MOL0     H53186  -0.152   0.504  10.924 -3.4605 -2.1990  0.1585
  403MOL0     H53187  -0.101   0.351  10.864  0.4963  0.3333  2.9006
  403MOL0     H53188  -0.266   0.543  10.694 -2.1381  0.2200  0.6988
  403MOL0     H53189  -0.200   0.386  10.640  0.2057  1.1736 -0.4052
  403MOL0     H53190  -0.378   0.410  10.896  1.6257  0.9616 -0.5786
  403MOL0     H53191  -0.369   0.279  10.789 -4.1119 -0.2062 -0.7425
  403MOL0     H53192  -0.498   0.544  10.724  0.8180 -1.3610  1.1724
  403MOL0     H53193  -0.481   0.424  10.596  3.7257 -0.5814 -0.3445
  403MOL0     H53194  -0.825   0.267  10.752 -0.2365  2.2086  0.1882
  403MOL0     H53195   0.076   0.266  10.891 -0.9545 -0.0573  1.1252
  403MOL0     H53196   0.278   0.203  10.983  0.2597  0.6149 -0.4512
  404MOL0     O53197  11.252   9.377   4.053  0.1281 -0.4968 -0.2395
  404MOL0     C53198  11.276   9.354   4.172 -0.6284  0.0212 -0.0124
  404MOL0     O53199  11.193   9.367   4.281  0.0730  0.0673 -0.3953
  404MOL0     C53200  11.066   9.406   4.250 -0.4479 -0.6879 -0.0459
  404MOL0     C53201  10.953   9.337   4.291 -0.3094  0.3718  0.3794
  404MOL0     C53202  10.829   9.395   4.289 -0.7482  0.6774 -0.1623
  404MOL0     C53203  10.802   9.527   4.248 -0.2277 -0.0045 -1.2116
  404MOL0     O53204  10.681   9.589   4.251 -0.3800  0.2349  0.4709
  404MOL0     C53205  10.603   9.566   4.369  0.1246 -0.3397  0.5116
  404MOL0     C53206  10.542   9.707   4.409 -0.8747 -0.4570  0.0332
  404MOL0     C53207  10.403   9.734   4.342 -0.5299 -0.2964 -0.1817
  404MOL0     C53208  10.313   9.806   4.436 -0.4951  0.3670  0.3738
  404MOL0     C53209  10.186   9.856   4.359  0.3977  0.7143 -0.4139
  404MOL0     C53210  10.066   9.897   4.457 -0.2434  0.1685 -0.2777
  404MOL0     C53211   9.943   9.976   4.377 -0.6598  0.1923 -0.8797
  404MOL0     C53212   9.952  10.126   4.402 -0.3310 -0.2830  1.2698
  404MOL0     N53213   9.832  10.200   4.355  0.3039  0.0026 -0.9878
  404MOL0     C53214   9.735  10.257   4.432  1.1426  0.3487 -0.7104
  404MOL0     C53215   9.656  10.332   4.349 -0.1611  0.5071 -1.4607
  404MOL0     C53216   9.530  10.406   4.396  0.9146 -0.6304  0.7018
  404MOL0     C53217   9.393  10.327   4.368 -0.2392 -0.3748  0.1663
  404MOL0     C53218   9.289  10.438   4.414 -0.0786 -0.0020  0.2606
  404MOL0     C53219   9.148  10.407   4.406 -0.6142 -0.7960  0.4344
  404MOL0     O53220   9.073  10.529   4.418 -0.3791 -0.3203  0.6339
  404MOL0     C53221   8.948  10.542   4.358 -0.3235  0.0947  0.1421
  404MOL0     C53222   8.912  10.672   4.329  0.0575 -0.0963 -0.2127
  404MOL0     C53223   8.791  10.701   4.261 -0.1409  0.1552  0.2386
  404MOL0     C53224   8.706  10.597   4.216  0.9650 -0.6330  0.6950
  404MOL0     C53225   8.572  10.624   4.143 -0.8005 -0.2002 -0.3235
  404MOL0     O53226   8.483  10.521   4.129 -0.2812  0.2426 -1.1305
  404MOL0     C53227   8.371  10.539   4.063  0.8150  0.3777 -0.0276
  404MOL0     C53228   8.255  10.487   4.114  0.2532 -0.4348 -0.6334
  404MOL0     C53229   8.128  10.528   4.064  0.2946  0.2559  0.2494
  404MOL0     C53230   8.128  10.591   3.930  0.1360  0.7092  0.8755
  404MOL0     O53231   7.998  10.622   3.884 -0.5059  0.0238 -0.2997
  404MOL0     C53232   7.988  10.655   3.738  0.3858  1.3211 -0.1105
  404MOL0     C53233   7.856  10.708   3.713  0.8219 -0.3308 -1.1398
  404MOL0     C53234   7.828  10.738   3.571 -0.1630  0.0036  0.2345
  404MOL0     C53235   7.695  10.811   3.570 -1.4015  0.1458  0.3266
  404MOL0     C53236   7.565  10.735   3.563 -1.2365  0.4242 -0.3849
  404MOL0     C53237   7.454  10.830   3.529  0.0765  0.4951  0.7774
  404MOL0     C53238   7.314  10.767   3.524 -0.4145  0.0495 -0.3660
  404MOL0     C53239   7.206  10.867   3.492  0.0532 -0.5734  0.3353
  404MOL0    Cl53240   7.046  10.820   3.563 -0.2090  0.2115 -0.2753
  404MOL0     C53241   8.251  10.633   3.868  0.6174  0.1223 -0.5329
  404MOL0     C53242   8.365  10.606   3.941 -0.0504  0.7523 -0.5363
  404MOL0     O53243   8.545  10.737   4.112  0.1445  0.5655 -0.1625
  404MOL0     C53244   8.741  10.463   4.257  0.7990 -0.5094 -0.0516
  404MOL0     C53245   8.866  10.439   4.321 -0.0152 -0.1973  0.0229
  404MOL0     N53246   9.712  10.311   4.218  0.1060 -0.5613  0.0792
  404MOL0     N53247   9.816  10.245   4.233  0.2702  0.1177  0.4514
  404MOL0     C53248  10.913   9.592   4.184  0.0940  0.0948 -0.2650
  404MOL0     C53249  11.047   9.533   4.193 -0.8059 -0.4871 -0.4304
  404MOL0     C53250  11.410   9.309   4.190  0.4374  0.0421  0.9044
  404MOL0     C53251  11.473   9.244   4.081 -0.3271  0.0796  0.3571
  404MOL0     C53252  11.599   9.186   4.095  0.6323  0.0113 -0.4673
  404MOL0     C53253  11.668   9.201   4.213 -0.3964  0.4609  0.1311
  404MOL0     O53254  11.786   9.143   4.240 -0.3200 -0.2471 -0.0562
  404MOL0     C53255  11.893   9.235   4.268 -0.2611  0.7054 -0.2749
  404MOL0     C53256  12.014   9.215   4.173  0.2616  0.1256  0.8237
  404MOL0     C53257  12.111   9.105   4.209 -0.6603  0.4216  0.1330
  404MOL0     C53258  12.040   8.965   4.205 -0.2637  0.6180  0.2923
  404MOL0     C53259  12.135   8.852   4.237  0.3014  0.4866  0.4886
  404MOL0     C53260  12.201   8.766   4.286 -0.3213  0.4919  0.0398
  404MOL0     C53261  11.608   9.285   4.308  0.0395  0.2148 -0.6728
  404MOL0     C53262  11.480   9.328   4.309  0.5290  0.1310 -0.2814
  404MOL0     H53263  10.959   9.238   4.337 -0.1578 -0.2942 -1.0356
  404MOL0     H53264  10.756   9.325   4.327 -1.9864  2.3409  0.6453
  404MOL0     H53265  10.658   9.535   4.458 -0.3930 -1.6746  0.3977
  404MOL0     H53266  10.525   9.490   4.362 -0.0914 -0.3877  2.7789
  404MOL0     H53267  10.612   9.791   4.399 -0.3656 -0.9404 -0.6485
  404MOL0     H53268  10.527   9.707   4.517 -0.9890 -2.5823  0.0502
  404MOL0     H53269  10.359   9.636   4.321  1.2584 -1.4568  1.1884
  404MOL0     H53270  10.406   9.802   4.257  3.2498  3.5550  2.6231
  404MOL0     H53271  10.275   9.726   4.501 -0.1915  0.5614  0.7956
  404MOL0     H53272  10.368   9.887   4.485 -1.0321  1.1432 -0.2917
  404MOL0     H53273  10.144   9.773   4.300 -4.2068  0.0226  3.2218
  404MOL0     H53274  10.218   9.941   4.298 -0.2956  2.6453  1.7786
  404MOL0     H53275  10.112   9.950   4.541  0.8315  0.4747 -1.0372
  404MOL0     H53276  10.026   9.801   4.491 -1.4919 -0.2763 -2.7525
  404MOL0     H53277   9.952   9.965   4.269 -2.1376 -1.9566 -0.8417
  404MOL0     H53278   9.845   9.942   4.411  0.8175 -0.5294  3.2742
  404MOL0     H53279  10.042  10.164   4.353 -1.3103  1.8423  0.9984
  404MOL0     H53280   9.957  10.136   4.511  0.7508 -2.8653  1.5405
  404MOL0     H53281   9.726  10.234   4.538 -1.0863 -0.7896 -1.0753
  404MOL0     H53282   9.524  10.502   4.342  1.6411 -1.9820 -1.9791
  404MOL0     H53283   9.535  10.443   4.498  0.0356  2.4762 -0.2607
  404MOL0     H53284   9.394  10.237   4.431  0.0071 -1.3741 -1.2019
  404MOL0     H53285   9.391  10.305   4.260 -0.6116  0.1281  0.0671
  404MOL0     H53286   9.304  10.470   4.517 -2.5489  0.3857  0.5579
  404MOL0     H53287   9.304  10.522   4.346  2.0688 -1.6361 -1.4322
  404MOL0     H53288   9.129  10.346   4.495  2.5849 -0.4859  1.4452
  404MOL0     H53289   9.103  10.356   4.320 -0.4766 -0.5257  0.2044
  404MOL0     H53290   8.990  10.746   4.347  0.7620  0.1014 -3.3800
  404MOL0     H53291   8.756  10.801   4.238 -2.2271 -0.5199  0.3221
  404MOL0     H53292   8.264  10.429   4.205  2.9574  0.0218 -0.5446
  404MOL0     H53293   8.032  10.510   4.112 -1.5571  0.6529 -2.9464
  404MOL0     H53294   7.994  10.563   3.678  0.1722  2.1857 -1.5015
  404MOL0     H53295   8.049  10.741   3.710  0.1265  1.4376 -0.3262
  404MOL0     H53296   7.854  10.793   3.782 -0.5817 -1.1289 -0.1542
  404MOL0     H53297   7.781  10.638   3.749 -0.3554  1.4073 -0.0746
  404MOL0     H53298   7.815  10.649   3.509 -0.7112 -1.4820  2.4154
  404MOL0     H53299   7.914  10.801   3.543 -1.1499  0.7088 -1.3620
  404MOL0     H53300   7.703  10.888   3.646 -2.1303  1.3784 -0.8054
  404MOL0     H53301   7.707  10.880   3.487  1.1926  0.3452  0.7744
  404MOL0     H53302   7.546  10.702   3.665 -1.6525 -1.5974 -1.0769
  404MOL0     H53303   7.575  10.644   3.503 -0.9951 -0.0796  0.4160
  404MOL0     H53304   7.470  10.873   3.430 -0.1718 -0.9322  0.0985
  404MOL0     H53305   7.458  10.912   3.603  0.3626  2.3989 -1.2465
  404MOL0     H53306   7.307  10.688   3.448 -1.0383 -0.6319  0.3892
  404MOL0     H53307   7.300  10.735   3.627  0.4439 -1.3995 -0.6733
  404MOL0     H53308   7.205  10.877   3.383 -1.2859  0.5897  0.4301
  404MOL0     H53309   7.240  10.958   3.542  0.5394 -1.5644  1.9077
  404MOL0     H53310   8.245  10.686   3.774  2.6130 -1.5626 -1.7163
  404MOL0     H53311   8.461  10.648   3.912  0.6729  0.9359  1.8946
  404MOL0     H53312   8.682  10.375   4.233 -1.1941  0.5421  0.7702
  404MOL0     H53313   8.883  10.335   4.349 -2.5212 -0.5772  0.3780
  404MOL0     H53314  10.892   9.687   4.135  0.7423  0.3895  0.0223
  404MOL0     H53315  11.124   9.575   4.130 -0.5398 -2.5941 -1.6092
  404MOL0     H53316  11.420   9.205   3.995 -1.1561 -0.5573  1.1384
  404MOL0     H53317  11.635   9.118   4.019  3.0192  2.2069 -1.4462
  404MOL0     H53318  11.927   9.204   4.367 -0.2140 -0.5541 -0.6602
  404MOL0     H53319  11.868   9.341   4.267  2.0234  1.2853 -0.1925
  404MOL0     H53320  11.973   9.207   4.072 -1.1571  1.7994  1.2142
  404MOL0     H53321  12.076   9.304   4.178 -0.4841  0.6536  0.8299
  404MOL0     H53322  12.152   9.123   4.308  1.4982  1.1725 -0.8293
  404MOL0     H53323  12.194   9.108   4.137 -1.1244  0.6915 -0.4040
  404MOL0     H53324  11.961   8.957   4.280  0.1778  1.6106  0.8747
  404MOL0     H53325  11.999   8.950   4.105  2.7415  0.6543 -1.0540
  404MOL0     H53326  12.264   8.685   4.317 -2.0180 -0.6922  0.5666
  404MOL0     H53327  11.669   9.307   4.395  0.3457  2.2024 -1.3354
  404MOL0     H53328  11.430   9.381   4.389 -0.5115  2.1106 -2.1388
  405MOL0     O53329  10.251   0.862   9.201 -1.1872  0.0917 -0.4071
  405MOL0     C53330  10.236   0.843   9.078 -0.1763  0.0547  0.8764
  405MOL0     O53331  10.126   0.842   9.011  0.3711  0.6784 -0.2271
  405MOL0     C53332  10.011   0.868   9.076  1.2282  1.1922  0.6597
  405MOL0     C53333   9.964   0.994   9.104 -0.0052  0.5975 -0.6127
  405MOL0     C53334   9.845   1.011   9.186 -0.6761 -0.0560 -0.2687
  405MOL0     C53335   9.760   0.907   9.212  0.4658 -0.0802 -0.0752
  405MOL0     O53336   9.660   0.932   9.312  0.2555  0.1841 -0.1582
  405MOL0     C53337   9.557   0.843   9.292  0.3514  0.6877  0.0880
  405MOL0     C53338   9.424   0.908   9.340 -0.7123  0.4538  0.3715
  405MOL0     C53339   9.423   0.917   9.492 -0.6118  0.2545  0.7710
  405MOL0     C53340   9.295   0.975   9.559  0.3581  0.0204  0.7254
  405MOL0     C53341   9.199   0.854   9.561 -0.2098 -0.7707  0.1354
  405MOL0     C53342   9.096   0.868   9.672  0.1876  0.4345 -0.1836
  405MOL0     C53343   8.983   0.767   9.668 -1.3945  0.7139  0.3514
  405MOL0     C53344   8.882   0.813   9.772  1.2028  0.6482  0.5175
  405MOL0     N53345   8.755   0.722   9.753 -0.4202 -0.0779 -0.2433
  405MOL0     C53346   8.624   0.746   9.721  0.5123 -0.1227  0.1221
  405MOL0     C53347   8.552   0.636   9.747 -0.4833 -0.1922  0.3263
  405MOL0     C53348   8.406   0.612   9.735 -0.3364 -0.3076  0.2642
  405MOL0     C53349   8.325   0.687   9.837 -0.1048 -0.8082 -0.2472
  405MOL0     C53350   8.242   0.799   9.771  0.1893 -0.2970 -0.2557
  405MOL0     C53351   8.181   0.887   9.883  0.0641 -0.1546 -0.5330
  405MOL0     O53352   8.120   0.992   9.814 -0.3048  1.2338 -0.1869
  405MOL0     C53353   7.985   0.992   9.795  0.3756 -0.2240 -0.1338
  405MOL0     C53354   7.893   0.895   9.849 -1.1080 -0.4329  0.1468
  405MOL0     C53355   7.756   0.939   9.855 -0.4121  0.2888 -0.6020
  405MOL0     C53356   7.706   1.051   9.797  0.0298 -0.1827  0.2836
  405MOL0     C53357   7.560   1.068   9.785  0.3194 -0.6398  0.4467
  405MOL0     O53358   7.485   0.976   9.845 -0.2335  0.5516  0.8402
  405MOL0     C53359   7.354   0.985   9.841 -0.6080 -0.5871 -0.0997
  405MOL0     C53360   7.292   0.891   9.764  0.1789  0.5903 -0.8323
  405MOL0     C53361   7.155   0.894   9.738  0.1670 -0.4089  0.0734
  405MOL0     C53362   7.073   0.997   9.779  0.3887 -0.0589  1.0621
  405MOL0     O53363   6.933   0.998   9.750 -0.2342  0.4623  0.3405
  405MOL0     C53364   6.844   1.082   9.819 -0.4908  0.9318  0.0725
  405MOL0     C53365   6.830   1.228   9.762 -0.0205  0.0140  0.4590
  405MOL0     C53366   6.746   1.321   9.854  0.8035  0.1673  0.2903
  405MOL0     C53367   6.807   1.322   9.993 -0.3497 -0.4238  0.0204
  405MOL0     C53368   6.752   1.443  10.073 -0.3984 -0.4451  0.5750
  405MOL0     C53369   6.617   1.406  10.129  0.2856  0.3770 -0.3699
  405MOL0     C53370   6.552   1.514  10.220  0.2842  0.7162  0.1804
  405MOL0     C53371   6.412   1.486  10.273  0.0765 -0.0637  0.2180
  405MOL0    Cl53372   6.349   1.636  10.350  0.2777 -0.1531 -0.2730
  405MOL0     C53373   7.132   1.097   9.860 -0.1958  0.6609 -0.2175
  405MOL0     C53374   7.274   1.092   9.891 -0.3323  0.3333  0.1288
  405MOL0     O53375   7.514   1.159   9.727  0.6576 -0.1323  0.2972
  405MOL0     C53376   7.798   1.130   9.732 -0.7520  0.1770 -0.5123
  405MOL0     C53377   7.939   1.103   9.736  0.6888  0.1142  0.0980
  405MOL0     N53378   8.646   0.546   9.783 -0.7912  0.8608 -0.2883
  405MOL0     N53379   8.764   0.590   9.792 -0.0255  0.2876  0.4265
  405MOL0     C53380   9.799   0.787   9.155  0.3390 -0.0536  0.1381
  405MOL0     C53381   9.923   0.759   9.091 -0.8517 -0.2051 -0.7925
  405MOL0     C53382  10.347   0.813   8.986  0.4126  0.1484  0.1918
  405MOL0     C53383  10.317   0.827   8.849 -0.2811 -0.5994 -0.6557
  405MOL0     C53384  10.422   0.812   8.754  0.3630  0.1245  0.5328
  405MOL0     C53385  10.548   0.793   8.792 -0.0753 -0.5309 -0.1964
  405MOL0     O53386  10.648   0.810   8.705  0.8849 -0.0176  0.7295
  405MOL0     C53387  10.783   0.786   8.743  0.3808  0.3608 -0.7052
  405MOL0     C53388  10.836   0.919   8.761 -0.2942  0.8542  0.2577
  405MOL0     C53389  10.981   0.941   8.794  0.2787  0.5771  0.5705
  405MOL0     C53390  11.039   1.063   8.730 -0.5480 -0.9250 -0.1408
  405MOL0     C53391  11.182   1.067   8.761  0.0812  0.6305  0.1386
  405MOL0     C53392  11.290   1.077   8.805 -0.8475 -0.2478 -0.3913
  405MOL0     C53393  10.564   0.756   8.925  0.6260 -0.3752 -0.3183
  405MOL0     C53394  10.466   0.765   9.029 -0.0843  0.2904  0.4660
  405MOL0     H53395  10.033   1.077   9.093  0.0101  0.5776 -0.6700
  405MOL0     H53396   9.820   1.112   9.218 -0.9707 -1.4936  4.9114
  405MOL0     H53397   9.572   0.750   9.347  2.1153  0.5854 -0.5116
  405MOL0     H53398   9.544   0.816   9.187  2.2319  0.5189 -0.1296
  405MOL0     H53399   9.332   0.853   9.319 -1.0657  2.0811 -2.8321
  405MOL0     H53400   9.424   1.010   9.302  2.4737 -0.1111 -1.5273
  405MOL0     H53401   9.501   0.988   9.518 -1.8564  0.8790  3.1284
  405MOL0     H53402   9.439   0.826   9.551 -0.2884  1.1307  2.0836
  405MOL0     H53403   9.302   1.023   9.657  1.4219  0.5461  0.3976
  405MOL0     H53404   9.253   1.058   9.501  1.4807 -1.0524 -1.7231
  405MOL0     H53405   9.261   0.767   9.584 -3.3725 -2.9815  1.1175
  405MOL0     H53406   9.147   0.827   9.468 -0.1939 -0.6653  0.0956
  405MOL0     H53407   9.064   0.972   9.675 -0.0017  0.3684  0.1661
  405MOL0     H53408   9.144   0.859   9.770  0.2299 -0.1689 -0.2543
  405MOL0     H53409   8.946   0.749   9.567  0.7305  3.5413 -1.0666
  405MOL0     H53410   9.024   0.671   9.700 -2.9989  0.1996  0.9815
  405MOL0     H53411   8.854   0.914   9.740  0.5122 -0.0050 -0.9940
  405MOL0     H53412   8.920   0.804   9.874 -1.3990  0.4678  1.5350
  405MOL0     H53413   8.586   0.842   9.688 -0.2758 -1.1598 -2.1907
  405MOL0     H53414   8.384   0.506   9.746  3.7928 -1.3318  0.2236
  405MOL0     H53415   8.379   0.634   9.632  0.8377 -2.3032 -0.5210
  405MOL0     H53416   8.382   0.735   9.917 -2.0086  2.8695 -0.8676
  405MOL0     H53417   8.250   0.628   9.890 -0.3301  2.9735  4.3175
  405MOL0     H53418   8.301   0.865   9.706 -1.1318  0.2288 -0.9703
  405MOL0     H53419   8.161   0.759   9.710 -3.3542  4.8129  0.4011
  405MOL0     H53420   8.259   0.932   9.945  1.5352 -1.0732 -1.6482
  405MOL0     H53421   8.112   0.840   9.953 -1.5004  1.4459 -0.9320
  405MOL0     H53422   7.914   0.800   9.896 -2.3058  0.0702  1.8265
  405MOL0     H53423   7.698   0.869   9.915 -0.3784  1.8876  1.3966
  405MOL0     H53424   7.343   0.803   9.729 -2.2050 -1.0615 -0.3787
  405MOL0     H53425   7.131   0.804   9.682  2.9808 -2.0545  1.3134
  405MOL0     H53426   6.871   1.081   9.924 -1.4112  1.1662  0.3196
  405MOL0     H53427   6.750   1.028   9.808  0.7863 -2.4990  3.8293
  405MOL0     H53428   6.777   1.233   9.666 -1.2900 -0.3655  1.1186
  405MOL0     H53429   6.925   1.279   9.743  0.1477 -0.8862 -1.4052
  405MOL0     H53430   6.643   1.289   9.873  0.6100  1.2451  1.2121
  405MOL0     H53431   6.742   1.419   9.806  2.3559 -0.5982 -1.5167
  405MOL0     H53432   6.763   1.236  10.043 -0.9930  0.9919  1.9981
  405MOL0     H53433   6.917   1.323   9.994 -0.3290  0.9600 -0.2373
  405MOL0     H53434   6.736   1.531  10.010  0.2829 -0.9123 -0.2814
  405MOL0     H53435   6.831   1.458  10.147  1.0956  1.2025 -1.2238
  405MOL0     H53436   6.626   1.323  10.199 -0.2467 -0.3159 -1.1085
  405MOL0     H53437   6.560   1.392  10.037  3.5054  1.0733 -2.6675
  405MOL0     H53438   6.624   1.519  10.302 -1.9633  0.5991  2.2928
  405MOL0     H53439   6.546   1.608  10.163  0.5709 -0.7196 -2.3705
  405MOL0     H53440   6.415   1.407  10.349 -1.6406 -1.2939 -0.8890
  405MOL0     H53441   6.358   1.449  10.185 -0.9408  2.8571 -0.4942
  405MOL0     H53442   7.073   1.185   9.881 -0.9888  0.7132 -2.3713
  405MOL0     H53443   7.307   1.185   9.937 -2.8067  1.6369 -0.5674
  405MOL0     H53444   7.764   1.219   9.680  4.1033  1.7279 -1.5593
  405MOL0     H53445   7.994   1.180   9.683  0.6075 -0.4845 -0.8852
  405MOL0     H53446   9.741   0.699   9.180 -1.2342 -0.4086 -3.9986
  405MOL0     H53447   9.954   0.660   9.059 -0.2661  0.4205 -2.2643
  405MOL0     H53448  10.221   0.849   8.803 -0.3422 -0.0455 -0.2738
  405MOL0     H53449  10.405   0.819   8.647 -0.3843  0.8705  0.6920
  405MOL0     H53450  10.842   0.729   8.670 -1.1624  0.1256 -1.8173
  405MOL0     H53451  10.804   0.740   8.840  0.3316  0.7634 -0.5016
  405MOL0     H53452  10.821   0.964   8.662 -0.3550 -1.6918 -0.9783
  405MOL0     H53453  10.783   0.972   8.840  0.5249  1.9796  0.0845
  405MOL0     H53454  11.043   0.858   8.757  0.6600  0.8542  0.5840
  405MOL0     H53455  10.979   0.926   8.902 -0.3907  0.4662  0.5518
  405MOL0     H53456  11.023   1.058   8.622 -0.7762 -3.3412 -0.0511
  405MOL0     H53457  10.994   1.156   8.768  0.2192 -0.3536 -0.6088
  405MOL0     H53458  11.387   1.076   8.852 -1.8425 -2.1439  1.8364
  405MOL0     H53459  10.665   0.737   8.961  1.1280  3.6707  1.0277
  405MOL0     H53460  10.478   0.733   9.132 -1.7153 -0.4316  0.4626
  406MOL0     O53461   6.827   9.718   6.318  1.1727  0.6115  0.1632
  406MOL0     C53462   6.923   9.653   6.274 -0.3331  1.2636  0.5221
  406MOL0     O53463   6.914   9.525   6.219 -0.1036  0.3760 -0.7294
  406MOL0     C53464   6.789   9.471   6.199  0.9830  0.0764  0.8372
  406MOL0     C53465   6.747   9.366   6.272  0.2520  0.1746 -0.2314
  406MOL0     C53466   6.623   9.321   6.256 -0.5885  0.4818 -0.3034
  406MOL0     C53467   6.540   9.351   6.148 -0.0524  0.7065  0.8027
  406MOL0     O53468   6.411   9.298   6.127 -0.5142 -0.1425 -0.0999
  406MOL0     C53469   6.331   9.282   6.246 -0.9269 -0.2049  0.4414
  406MOL0     C53470   6.188   9.302   6.204 -0.0238  0.3807 -0.2958
  406MOL0     C53471   6.129   9.197   6.106 -0.4829 -0.1723  0.1529
  406MOL0     C53472   6.106   9.061   6.187 -0.1683 -0.0196  0.3141
  406MOL0     C53473   5.996   8.986   6.134  0.3185 -1.2327 -0.3640
  406MOL0     C53474   5.852   9.043   6.138 -0.0659  0.4583 -1.5690
  406MOL0     C53475   5.776   8.978   6.024 -0.0976  0.0659 -0.2244
  406MOL0     C53476   5.632   9.001   6.051 -0.3521 -0.4631  0.5484
  406MOL0     N53477   5.542   8.992   5.936 -0.5400 -0.0449  0.7437
  406MOL0     C53478   5.515   8.879   5.862  0.1500  0.2076 -0.7194
  406MOL0     C53479   5.443   8.924   5.753  0.7112  0.1266  0.0715
  406MOL0     C53480   5.418   8.841   5.630 -0.2614  0.3864 -0.3349
  406MOL0     C53481   5.536   8.855   5.540  0.4055 -0.6497 -0.2685
  406MOL0     C53482   5.665   8.803   5.600 -1.1909 -0.5926 -0.2748
  406MOL0     C53483   5.767   8.801   5.492  0.1207  0.5955 -0.0026
  406MOL0     O53484   5.756   8.682   5.403  0.7544  0.0926 -0.0473
  406MOL0     C53485   5.861   8.671   5.310  0.0448 -0.5586  0.2964
  406MOL0     C53486   5.893   8.538   5.267 -0.4536 -0.2960 -0.5790
  406MOL0     C53487   5.992   8.514   5.171 -0.6306  0.9819 -0.6195
  406MOL0     C53488   6.065   8.623   5.127 -0.4584 -0.0289  0.1320
  406MOL0     C53489   6.196   8.593   5.060  0.0451  0.3495 -0.3200
  406MOL0     O53490   6.245   8.686   4.969 -0.1530  0.0837  0.1423
  406MOL0     C53491   6.376   8.650   4.929 -0.3543 -0.5279  1.0599
  406MOL0     C53492   6.406   8.576   4.809 -0.5883 -0.5601 -0.4394
  406MOL0     C53493   6.536   8.561   4.760 -0.5889 -0.2513  0.3003
  406MOL0     C53494   6.642   8.642   4.818  1.4561 -0.4244  0.0784
  406MOL0     O53495   6.778   8.632   4.778 -0.3770  0.2020 -0.1679
  406MOL0     C53496   6.808   8.594   4.641 -0.6742 -1.7769  0.1237
  406MOL0     C53497   6.937   8.664   4.610 -0.3121  0.0426  0.5795
  406MOL0     C53498   6.981   8.626   4.467  0.9555  0.1544  0.1032
  406MOL0     C53499   7.122   8.678   4.438 -1.4211 -0.1331  0.0633
  406MOL0     C53500   7.131   8.707   4.283 -0.1815 -0.5614 -0.2758
  406MOL0     C53501   7.264   8.775   4.265  0.1173  0.1322 -0.1262
  406MOL0     C53502   7.295   8.827   4.119 -0.9450  0.2154  0.3251
  406MOL0     C53503   7.178   8.898   4.055 -0.3591  0.0919  0.1736
  406MOL0    Cl53504   7.104   8.795   3.920  0.0878  0.5151 -0.1060
  406MOL0     C53505   6.605   8.725   4.926  0.1158  1.2880  0.3036
  406MOL0     C53506   6.478   8.725   4.984  0.1147 -0.3350 -0.3750
  406MOL0     O53507   6.249   8.483   5.092  0.7867 -0.3687 -0.0309
  406MOL0     C53508   6.030   8.761   5.160  0.2510  0.0003 -0.0585
  406MOL0     C53509   5.924   8.778   5.246 -0.6033 -0.0823  0.4252
  406MOL0     N53510   5.420   9.061   5.772 -0.0316 -0.1165 -0.0409
  406MOL0     N53511   5.489   9.101   5.872 -0.2548 -0.0956  0.0680
  406MOL0     C53512   6.587   9.439   6.056 -0.5107 -0.1046 -0.7729
  406MOL0     C53513   6.704   9.517   6.089 -0.9091  0.2511  0.9501
  406MOL0     C53514   7.059   9.713   6.272  0.1645 -0.5715 -0.2390
  406MOL0     C53515   7.079   9.845   6.332 -0.6924  0.3610  0.0161
  406MOL0     C53516   7.210   9.897   6.341 -0.4008  0.1008 -0.0114
  406MOL0     C53517   7.325   9.829   6.297  0.7058 -0.5346 -0.0705
  406MOL0     O53518   7.441   9.906   6.304  0.0438  0.7195 -0.3117
  406MOL0     C53519   7.558   9.822   6.272  0.4148 -0.3933 -0.4818
  406MOL0     C53520   7.677   9.918   6.273  0.3051  0.3145 -0.2639
  406MOL0     C53521   7.725   9.979   6.403 -0.2704 -0.4951  0.0923
  406MOL0     C53522   7.632  10.080   6.461  0.6865 -0.3387  0.9917
  406MOL0     C53523   7.698  10.134   6.579 -0.4520  0.7611 -0.3179
  406MOL0     C53524   7.746  10.192   6.673  0.3482 -0.4739 -0.5051
  406MOL0     C53525   7.301   9.695   6.258  0.2903 -0.6648  0.8551
  406MOL0     C53526   7.173   9.637   6.238  0.7140 -0.3011  0.3219
  406MOL0     H53527   6.813   9.341   6.354  1.0784  0.2552 -0.8587
  406MOL0     H53528   6.585   9.261   6.339 -0.8148  0.0354 -0.7244
  406MOL0     H53529   6.351   9.361   6.319  0.7497  1.3960 -1.6322
  406MOL0     H53530   6.339   9.186   6.299 -0.0552 -0.1140  0.4866
  406MOL0     H53531   6.182   9.394   6.144 -0.7270  0.3116 -0.3335
  406MOL0     H53532   6.129   9.299   6.296 -1.0014 -0.7203 -0.9255
  406MOL0     H53533   6.184   9.193   6.011 -3.3553 -2.0760 -1.6058
  406MOL0     H53534   6.034   9.240   6.073  0.1466  0.1504 -1.3136
  406MOL0     H53535   6.191   8.993   6.185 -0.4747 -1.0828  6.1694
  406MOL0     H53536   6.085   9.081   6.292  3.6787 -2.1924  1.6695
  406MOL0     H53537   5.990   8.885   6.176 -1.1892 -0.2717  1.9328
  406MOL0     H53538   6.023   8.964   6.030  0.1605  0.3518 -0.7673
  406MOL0     H53539   5.844   9.152   6.128 -0.0479  0.7784  1.2831
  406MOL0     H53540   5.811   9.024   6.237 -1.6656 -1.1378 -2.4799
  406MOL0     H53541   5.813   9.013   5.928 -0.3172 -2.3230 -1.2405
  406MOL0     H53542   5.785   8.870   6.017 -1.9607 -0.3532  2.2281
  406MOL0     H53543   5.620   9.096   6.104 -1.5247  0.7851 -1.8326
  406MOL0     H53544   5.593   8.937   6.132  0.3081  0.4672  1.6285
  406MOL0     H53545   5.571   8.786   5.865  4.4926  2.5703 -0.7569
  406MOL0     H53546   5.337   8.884   5.571 -1.0854 -0.3551  0.2352
  406MOL0     H53547   5.404   8.740   5.669  3.1514 -1.0603 -2.4512
  406MOL0     H53548   5.536   8.961   5.510  2.3442 -1.4770 -3.8130
  406MOL0     H53549   5.529   8.800   5.446  1.8848 -0.3425 -0.5793
  406MOL0     H53550   5.714   8.856   5.681  0.7201 -1.6583 -0.6751
  406MOL0     H53551   5.649   8.699   5.631 -1.3163 -0.8833 -1.2632
  406MOL0     H53552   5.867   8.789   5.535 -1.4686 -0.6496  3.8601
  406MOL0     H53553   5.756   8.890   5.430 -1.5711  2.4405  2.7139
  406MOL0     H53554   5.839   8.452   5.305 -0.8477 -0.5104 -1.5836
  406MOL0     H53555   6.013   8.417   5.127 -4.1813  0.2737 -1.0536
  406MOL0     H53556   6.328   8.525   4.754 -0.8292 -2.8212  1.7862
  406MOL0     H53557   6.558   8.497   4.674  2.1351 -1.5411  1.8074
  406MOL0     H53558   6.730   8.620   4.569  1.6385 -1.2303 -2.3347
  406MOL0     H53559   6.829   8.487   4.639  1.8402 -1.3648 -2.3876
  406MOL0     H53560   7.012   8.632   4.682  2.2989  1.0739 -1.5243
  406MOL0     H53561   6.923   8.772   4.616 -0.0221  0.0387  1.5221
  406MOL0     H53562   6.914   8.688   4.407  2.5674  0.9937 -0.8976
  406MOL0     H53563   6.972   8.520   4.440 -0.5219  0.0512  0.8883
  406MOL0     H53564   7.143   8.765   4.501  2.0365  1.1329 -2.5143
  406MOL0     H53565   7.192   8.597   4.461  0.3226  1.4417  0.5319
  406MOL0     H53566   7.048   8.776   4.262  1.6729  3.3073  3.5185
  406MOL0     H53567   7.134   8.612   4.229 -0.6373 -2.2778  2.5111
  406MOL0     H53568   7.342   8.711   4.307 -0.8051  0.8661  2.9343
  406MOL0     H53569   7.267   8.863   4.330 -0.5411  0.1801 -0.1535
  406MOL0     H53570   7.372   8.902   4.139 -0.6855 -0.0603  0.3816
  406MOL0     H53571   7.335   8.755   4.046  2.0036  0.6394  1.3715
  406MOL0     H53572   7.209   8.993   4.012 -0.7022  0.8190  1.4850
  406MOL0     H53573   7.105   8.923   4.133 -0.8261 -3.2231  0.9769
  406MOL0     H53574   6.676   8.794   4.970  1.3918 -0.4583  1.1250
  406MOL0     H53575   6.457   8.772   5.079 -1.7210 -0.0095 -0.9178
  406MOL0     H53576   6.084   8.845   5.118 -0.1309  0.0326 -0.4975
  406MOL0     H53577   5.902   8.880   5.276  0.4108 -0.2451  1.8590
  406MOL0     H53578   6.529   9.457   5.966 -1.0819 -2.6453 -0.9980
  406MOL0     H53579   6.735   9.593   6.018  0.2088  0.9618  2.1626
  406MOL0     H53580   6.989   9.898   6.360 -0.8235  0.3841 -0.4418
  406MOL0     H53581   7.225  10.001   6.370 -2.9144  0.3226  0.6810
  406MOL0     H53582   7.545   9.783   6.171 -0.2481 -0.3490 -0.4179
  406MOL0     H53583   7.575   9.743   6.346 -0.8544  1.0509  1.4550
  406MOL0     H53584   7.759   9.860   6.229 -1.4190 -4.3859  1.9757
  406MOL0     H53585   7.647  10.004   6.213  1.3205  0.1386 -1.0397
  406MOL0     H53586   7.817  10.037   6.389 -2.6531  3.9899  1.1704
  406MOL0     H53587   7.743   9.894   6.469  0.5276  0.7077  1.4935
  406MOL0     H53588   7.619  10.160   6.387  1.2693 -0.8546  0.3198
  406MOL0     H53589   7.534  10.038   6.488 -0.0802 -0.1093 -1.2024
  406MOL0     H53590   7.783  10.249   6.756  0.5703  0.1826 -1.0504
  406MOL0     H53591   7.385   9.628   6.240 -0.7532 -1.4828 -1.4206
  406MOL0     H53592   7.151   9.546   6.184 -4.0334 -1.1606  3.0923
  407MOL0     O53593   2.110   7.327   4.500  0.5966 -0.5367  0.0685
  407MOL0     C53594   2.193   7.262   4.560  0.3653 -0.9898 -2.1621
  407MOL0     O53595   2.168   7.135   4.613 -0.1783 -0.9314  0.1163
  407MOL0     C53596   2.049   7.076   4.592 -0.7724  0.9154  0.6855
  407MOL0     C53597   1.919   7.132   4.610 -0.8775 -0.0917 -0.4632
  407MOL0     C53598   1.812   7.054   4.574  0.8644 -0.5844  0.6805
  407MOL0     C53599   1.825   6.917   4.541 -0.6028 -0.9311  0.0358
  407MOL0     O53600   1.713   6.847   4.523 -0.6944  0.3075 -0.4551
  407MOL0     C53601   1.614   6.902   4.436 -0.7890  0.4597  0.3009
  407MOL0     C53602   1.507   6.810   4.390 -0.7296 -0.4021 -0.6946
  407MOL0     C53603   1.397   6.878   4.309  0.0683  0.4209 -0.0426
  407MOL0     C53604   1.304   6.773   4.251 -0.1709  0.1411 -0.7044
  407MOL0     C53605   1.180   6.831   4.184 -0.3122  0.6988 -0.0123
  407MOL0     C53606   1.081   6.890   4.281  0.2014 -0.8959  0.5245
  407MOL0     C53607   0.947   6.923   4.226  0.3640 -0.2612 -0.5081
  407MOL0     C53608   0.855   6.969   4.338  0.7319  0.2879 -0.7140
  407MOL0     N53609   0.725   7.010   4.293 -0.0018 -0.2630  0.8510
  407MOL0     C53610   0.639   6.935   4.212  0.3144 -1.1384  0.2344
  407MOL0     C53611   0.530   7.012   4.205  1.0952 -1.0742 -0.2749
  407MOL0     C53612   0.398   6.975   4.132 -1.1674 -1.1318 -0.6032
  407MOL0     C53613   0.359   7.100   4.049 -0.1012  0.1826 -0.4234
  407MOL0     C53614   0.249   7.066   3.953  0.2154  0.2442 -0.0012
  407MOL0     C53615   0.228   7.163   3.829 -0.2668 -0.6277 -0.5775
  407MOL0     O53616   0.101   7.131   3.786  0.1633  0.5009 -0.5056
  407MOL0     C53617   0.031   7.234   3.718 -0.3136  0.1641  0.1936
  407MOL0     C53618  -0.021   7.204   3.592  1.0717  0.2444 -0.2552
  407MOL0     C53619  -0.086   7.307   3.528  0.9806  0.4821  0.3643
  407MOL0     C53620  -0.120   7.429   3.585  0.7204  0.3751  0.2455
  407MOL0     C53621  -0.216   7.522   3.518  0.0534 -0.6884  0.4585
  407MOL0     O53622  -0.315   7.461   3.442 -0.0746 -0.2047  0.2751
  407MOL0     C53623  -0.363   7.527   3.336 -0.4674  0.0862  1.0574
  407MOL0     C53624  -0.481   7.472   3.284 -0.0219 -0.8643  0.7058
  407MOL0     C53625  -0.528   7.524   3.156  0.8492  0.1804  0.8850
  407MOL0     C53626  -0.463   7.631   3.093  0.0879 -0.0514 -0.1943
  407MOL0     O53627  -0.527   7.692   2.984 -0.1534  0.3187 -0.4755
  407MOL0     C53628  -0.462   7.793   2.902 -0.0932  0.5222  0.0292
  407MOL0     C53629  -0.555   7.820   2.780 -0.6434  0.1319 -0.8076
  407MOL0     C53630  -0.689   7.870   2.815 -0.1234 -0.4729  0.0144
  407MOL0     C53631  -0.778   7.886   2.694  1.6099 -0.3036  0.9280
  407MOL0     C53632  -0.926   7.901   2.741  0.4291 -0.8226 -0.0675
  407MOL0     C53633  -0.967   8.049   2.758  0.4842 -0.1207 -0.3846
  407MOL0     C53634  -0.996   8.122   2.616 -0.3027  0.4216 -0.3607
  407MOL0     C53635  -0.888   8.227   2.591 -0.3725  0.1569  0.0116
  407MOL0    Cl53636  -0.889   8.332   2.727 -0.3086 -0.1386  0.1901
  407MOL0     C53637  -0.352   7.684   3.157 -0.1282 -0.4922 -0.3175
  407MOL0     C53638  -0.296   7.625   3.265 -0.7428  0.7148 -1.1215
  407MOL0     O53639  -0.173   7.643   3.518 -0.6162  1.1249 -0.3485
  407MOL0     C53640  -0.074   7.449   3.711  0.5304  0.5846 -0.9338
  407MOL0     C53641   0.002   7.352   3.779 -0.1473  0.0951 -1.1320
  407MOL0     N53642   0.543   7.130   4.279  0.2154  0.3129 -1.3147
  407MOL0     N53643   0.660   7.121   4.333  0.0594 -0.0887 -0.3385
  407MOL0     C53644   1.951   6.864   4.534  0.3046  0.9493 -0.8361
  407MOL0     C53645   2.061   6.939   4.545 -0.2702  0.4935  0.5852
  407MOL0     C53646   2.331   7.317   4.578  0.3874  0.8428 -0.1326
  407MOL0     C53647   2.355   7.447   4.540  1.4928  0.4458  0.4253
  407MOL0     C53648   2.489   7.495   4.547  0.0776 -0.3629 -0.1268
  407MOL0     C53649   2.589   7.414   4.610  0.5224  0.1384 -0.3681
  407MOL0     O53650   2.718   7.452   4.640  0.3292 -0.4202 -0.3538
  407MOL0     C53651   2.748   7.585   4.654 -0.1603  0.2558 -0.1251
  407MOL0     C53652   2.822   7.650   4.535 -0.3420 -0.0879 -0.9425
  407MOL0     C53653   2.952   7.578   4.497  0.2254  0.1059 -0.1803
  407MOL0     C53654   3.009   7.626   4.372 -0.1997  0.0509  0.3073
  407MOL0     C53655   3.024   7.771   4.367 -0.2343  0.1210 -0.8854
  407MOL0     C53656   3.052   7.887   4.344 -0.2480  0.7474  0.3226
  407MOL0     C53657   2.566   7.282   4.645  0.5975  0.2626  0.0317
  407MOL0     C53658   2.434   7.238   4.633  0.6629  0.2373 -0.9298
  407MOL0     H53659   1.918   7.231   4.655  1.0303  0.6409 -1.8697
  407MOL0     H53660   1.712   7.092   4.587  0.2787 -1.7338 -0.2819
  407MOL0     H53661   1.674   6.942   4.353  1.1758 -0.5981  1.1473
  407MOL0     H53662   1.565   6.990   4.478 -1.6131 -0.0409  0.4072
  407MOL0     H53663   1.448   6.772   4.474 -2.3732 -1.2497 -2.1612
  407MOL0     H53664   1.550   6.723   4.339 -1.5861 -0.5670 -1.1449
  407MOL0     H53665   1.425   6.939   4.222  0.6755 -2.7888 -2.2939
  407MOL0     H53666   1.348   6.935   4.388 -0.0114 -1.5614  1.3962
  407MOL0     H53667   1.365   6.725   4.174  2.6115  3.0966 -0.5156
  407MOL0     H53668   1.284   6.701   4.331  2.5644 -0.0344 -0.0841
  407MOL0     H53669   1.136   6.745   4.133  2.3872 -1.1128  0.4762
  407MOL0     H53670   1.222   6.903   4.113  3.2198 -0.7575  0.3503
  407MOL0     H53671   1.133   6.978   4.319  2.7418 -2.4220  0.8880
  407MOL0     H53672   1.077   6.829   4.372  0.3812  1.4892  2.2088
  407MOL0     H53673   0.958   7.002   4.151  0.1989  1.3813  1.1127
  407MOL0     H53674   0.896   6.837   4.182  0.9664 -0.3632 -1.0259
  407MOL0     H53675   0.909   7.047   4.393  3.2949 -1.8520  0.0303
  407MOL0     H53676   0.829   6.893   4.412 -1.2445  0.6604 -0.9816
  407MOL0     H53677   0.654   6.833   4.177 -0.5411 -2.1255  2.5765
  407MOL0     H53678   0.323   6.951   4.208  1.4953 -0.2278  2.5606
  407MOL0     H53679   0.423   6.883   4.078 -2.0617 -1.6956 -0.0775
  407MOL0     H53680   0.447   7.115   3.985 -0.8060 -1.1997 -1.7804
  407MOL0     H53681   0.342   7.193   4.103 -0.1141  1.0564 -1.8647
  407MOL0     H53682   0.262   6.966   3.911  2.9500  1.0708 -1.3288
  407MOL0     H53683   0.160   7.085   4.015 -1.4407 -0.5435 -2.0147
  407MOL0     H53684   0.307   7.140   3.757 -1.0903 -4.9852 -0.3867
  407MOL0     H53685   0.235   7.264   3.869  0.5984 -0.0033 -2.2146
  407MOL0     H53686  -0.006   7.111   3.537  0.6091 -1.7234  2.7166
  407MOL0     H53687  -0.117   7.286   3.426 -4.8165 -1.4898  2.1157
  407MOL0     H53688  -0.534   7.387   3.327  0.5620 -2.0474 -0.8058
  407MOL0     H53689  -0.619   7.481   3.117  0.3992 -0.6518  2.7231
  407MOL0     H53690  -0.368   7.746   2.873 -1.6226 -4.5379  2.0270
  407MOL0     H53691  -0.459   7.885   2.960 -2.1866  0.6521 -0.0033
  407MOL0     H53692  -0.572   7.727   2.724 -2.4229 -0.1491  0.1327
  407MOL0     H53693  -0.508   7.891   2.712 -1.0089  2.3705  1.1527
  407MOL0     H53694  -0.692   7.957   2.881  0.1863  0.1292 -0.7522
  407MOL0     H53695  -0.741   7.796   2.877 -0.1065 -1.6281 -1.2986
  407MOL0     H53696  -0.757   7.976   2.635 -4.1256 -0.0447 -1.4006
  407MOL0     H53697  -0.780   7.798   2.630  1.8010  1.2444 -1.3234
  407MOL0     H53698  -0.943   7.850   2.836 -2.1618 -2.0301 -1.0873
  407MOL0     H53699  -0.987   7.850   2.666  1.8175 -0.5077 -1.4889
  407MOL0     H53700  -0.888   8.092   2.820  0.8369  1.6393 -1.9850
  407MOL0     H53701  -1.062   8.048   2.814 -0.3088 -1.7289 -1.6808
  407MOL0     H53702  -0.995   8.048   2.535  0.9021  1.2072 -1.0811
  407MOL0     H53703  -1.093   8.171   2.630  0.1759  1.5320 -0.8195
  407MOL0     H53704  -0.926   8.283   2.505 -2.8708 -0.7306  0.4497
  407MOL0     H53705  -0.787   8.190   2.568 -0.9964 -0.0528 -2.7026
  407MOL0     H53706  -0.294   7.761   3.108  4.2692 -2.4656  1.3379
  407MOL0     H53707  -0.202   7.674   3.286  0.4317 -1.3364 -1.2768
  407MOL0     H53708  -0.099   7.541   3.763  0.3327  1.2909 -2.2270
  407MOL0     H53709   0.038   7.376   3.879  1.0713  0.9238 -1.7599
  407MOL0     H53710   1.971   6.761   4.505  2.9775  0.0989  3.1921
  407MOL0     H53711   2.155   6.889   4.526  1.3833  3.8675 -0.7994
  407MOL0     H53712   2.269   7.509   4.516 -1.9628 -3.0701  2.5547
  407MOL0     H53713   2.500   7.602   4.531 -3.3124  0.2400  0.7345
  407MOL0     H53714   2.823   7.585   4.734 -0.5932 -3.4587  0.4574
  407MOL0     H53715   2.668   7.656   4.674 -1.1857  0.6795 -4.6259
  407MOL0     H53716   2.757   7.674   4.451 -3.1033 -0.6600  0.8970
  407MOL0     H53717   2.855   7.744   4.581  0.5932 -0.7632 -0.1958
  407MOL0     H53718   2.922   7.473   4.489 -0.5607  0.1170  1.9333
  407MOL0     H53719   3.023   7.581   4.580 -1.8538  0.7745  1.6701
  407MOL0     H53720   3.108   7.585   4.351 -0.4439 -0.3464 -0.0644
  407MOL0     H53721   2.931   7.591   4.305 -0.1586 -1.7070  1.1173
  407MOL0     H53722   3.079   7.989   4.323 -1.9728  0.8399 -1.7332
  407MOL0     H53723   2.638   7.215   4.691  1.0881  1.1528  0.5751
  407MOL0     H53724   2.410   7.136   4.663 -1.7131  1.4960  2.0359
  408MOL0     O53725   2.760   0.132   6.584  0.0081 -0.1067 -0.1442
  408MOL0     C53726   2.721   0.051   6.510  0.1197 -0.2868  0.5364
  408MOL0     O53727   2.591   0.010   6.501 -0.1921 -0.2897  0.0535
  408MOL0     C53728   2.510   0.034   6.607 -0.5930  0.4701  0.2806
  408MOL0     C53729   2.377   0.052   6.577 -0.0300 -0.0816  0.3022
  408MOL0     C53730   2.275   0.057   6.676 -0.5902  0.2480  0.1935
  408MOL0     C53731   2.311   0.034   6.808  0.7906 -1.5526 -0.3786
  408MOL0     O53732   2.208   0.040   6.896  0.1663 -0.3311  0.0789
  408MOL0     C53733   2.235   0.033   7.042 -0.9002  0.4044 -0.1332
  408MOL0     C53734   2.115   0.046   7.133 -0.1321  0.8503  0.1923
  408MOL0     C53735   2.044   0.179   7.121  0.6036 -0.3173 -0.5231
  408MOL0     C53736   1.977   0.209   6.991  0.2730  0.7829 -0.4253
  408MOL0     C53737   1.846   0.281   7.017  0.3609  0.2229 -0.1295
  408MOL0     C53738   1.728   0.188   7.059  0.3995  0.0354 -0.9255
  408MOL0     C53739   1.599   0.275   7.050  0.6178 -0.4265 -0.4399
  408MOL0     C53740   1.464   0.223   7.109  0.0456  0.2436 -0.0603
  408MOL0     N53741   1.347   0.301   7.081  0.4334 -0.5841  0.1300
  408MOL0     C53742   1.228   0.285   7.154  0.8013 -0.0129 -0.0870
  408MOL0     C53743   1.147   0.384   7.097 -0.0873  0.0593 -0.7033
  408MOL0     C53744   1.000   0.420   7.129  0.0108  0.3268 -0.3346
  408MOL0     C53745   0.901   0.303   7.127  0.3447 -0.5208 -0.5671
  408MOL0     C53746   0.760   0.358   7.163  0.3852 -0.1249 -0.0931
  408MOL0     C53747   0.657   0.257   7.134 -0.9065  0.6463 -0.0621
  408MOL0     O53748   0.527   0.288   7.185  0.7782  0.1977 -0.1402
  408MOL0     C53749   0.431   0.182   7.200  0.0117  0.9641  0.7618
  408MOL0     C53750   0.444   0.045   7.162 -0.5129 -0.7016  0.4665
  408MOL0     C53751   0.345  -0.050   7.180  0.5576 -0.3718  0.3764
  408MOL0     C53752   0.219  -0.007   7.220 -0.4909  1.1319 -0.6512
  408MOL0     C53753   0.110  -0.110   7.238 -1.2269  0.4986 -0.2936
  408MOL0     O53754  -0.015  -0.058   7.245  0.1984 -0.1712  0.3472
  408MOL0     C53755  -0.127  -0.125   7.297  0.2522 -0.3435  0.3656
  408MOL0     C53756  -0.143  -0.255   7.337 -0.3467  0.6136 -0.5943
  408MOL0     C53757  -0.260  -0.305   7.400  0.4679  0.3036 -0.0456
  408MOL0     C53758  -0.376  -0.233   7.390  0.7965 -0.0195  0.3131
  408MOL0     O53759  -0.489  -0.289   7.434  0.3166 -0.3361  0.0511
  408MOL0     C53760  -0.572  -0.214   7.527  0.4278  0.0370  0.0646
  408MOL0     C53761  -0.539  -0.284   7.660 -0.4467 -0.1160 -0.2543
  408MOL0     C53762  -0.626  -0.254   7.777 -0.3011  0.4914 -0.1214
  408MOL0     C53763  -0.774  -0.277   7.747 -1.2426 -0.4087  0.3544
  408MOL0     C53764  -0.852  -0.269   7.876  0.0837 -0.2815  0.1680
  408MOL0     C53765  -1.008  -0.261   7.848 -1.0219  0.6924  0.3693
  408MOL0     C53766  -1.067  -0.230   7.983 -0.2174  0.3426 -0.1656
  408MOL0     C53767  -1.201  -0.299   8.014 -0.2704  0.1218 -1.1201
  408MOL0    Cl53768  -1.325  -0.243   7.913  0.3487 -0.2178 -0.2719
  408MOL0     C53769  -0.373  -0.098   7.337 -0.3298  0.2352  0.3826
  408MOL0     C53770  -0.243  -0.045   7.309  0.6606 -0.0813  0.4580
  408MOL0     O53771   0.135  -0.227   7.243 -0.3388  0.4673 -0.6909
  408MOL0     C53772   0.192   0.131   7.246 -0.2572  0.3248  0.5123
  408MOL0     C53773   0.299   0.215   7.239  0.5365 -0.4113  0.1769
  408MOL0     N53774   1.224   0.449   6.996 -0.9804  0.0704 -0.8167
  408MOL0     N53775   1.334   0.386   6.980 -0.4478  0.0883  0.5256
  408MOL0     C53776   2.443   0.013   6.842  0.3775  0.5522 -0.3995
  408MOL0     C53777   2.539   0.022   6.745  0.0080  0.1604  0.4166
  408MOL0     C53778   2.809   0.000   6.411  0.5974 -0.6821 -0.3265
  408MOL0     C53779   2.769  -0.096   6.321  0.7265 -0.3076  0.1192
  408MOL0     C53780   2.847  -0.161   6.228  0.1403 -0.2995 -0.1298
  408MOL0     C53781   2.982  -0.122   6.210 -0.2971 -0.2369  0.0567
  408MOL0     O53782   3.068  -0.178   6.113  0.0236  0.6519 -0.3707
  408MOL0     C53783   3.054  -0.316   6.077 -0.1856 -0.2028  0.7329
  408MOL0     C53784   2.996  -0.320   5.937  0.7245 -0.5878 -0.2229
  408MOL0     C53785   2.963  -0.460   5.903 -0.0784 -0.4406  0.5236
  408MOL0     C53786   3.083  -0.540   5.869  0.3353  1.2823  1.2758
  408MOL0     C53787   3.038  -0.659   5.795 -0.0392 -0.1188  0.8320
  408MOL0     C53788   3.002  -0.751   5.728 -0.4699  1.1301 -0.7555
  408MOL0     C53789   3.025  -0.017   6.290 -0.5394  0.3034 -0.4853
  408MOL0     C53790   2.944   0.049   6.386  0.2928 -0.0968 -1.1685
  408MOL0     H53791   2.351   0.056   6.472  0.8479 -1.5601 -0.0051
  408MOL0     H53792   2.177   0.084   6.638 -1.4606 -1.1869  1.3399
  408MOL0     H53793   2.311   0.107   7.066  0.3101 -0.9191  0.2470
  408MOL0     H53794   2.273  -0.068   7.061 -2.5225 -0.2529 -0.1990
  408MOL0     H53795   2.144   0.022   7.235  0.8325 -2.0221 -0.6690
  408MOL0     H53796   2.045  -0.029   7.096 -0.3298  0.8556  0.5546
  408MOL0     H53797   2.114   0.257   7.152 -1.6442  0.4964  3.0203
  408MOL0     H53798   1.976   0.171   7.206  0.7052 -0.3331 -0.4430
  408MOL0     H53799   2.052   0.259   6.929  1.3933 -2.3966 -1.8213
  408MOL0     H53800   1.935   0.121   6.942  0.0225 -0.0219  1.1412
  408MOL0     H53801   1.823   0.338   6.927  3.2219  2.2820  0.3166
  408MOL0     H53802   1.860   0.355   7.096  1.4267  1.6633 -1.5989
  408MOL0     H53803   1.750   0.156   7.161  0.5695  2.2568 -0.2201
  408MOL0     H53804   1.716   0.098   6.998 -1.2124  0.5221 -1.3854
  408MOL0     H53805   1.623   0.362   7.111  0.5042 -0.9322  0.3488
  408MOL0     H53806   1.583   0.310   6.948 -0.5728 -0.0609 -0.1327
  408MOL0     H53807   1.466   0.198   7.215 -0.9789 -1.1412 -0.3411
  408MOL0     H53808   1.444   0.129   7.057 -3.2504  0.2144  1.0598
  408MOL0     H53809   1.208   0.217   7.235  2.1943 -1.0181 -0.5441
  408MOL0     H53810   0.968   0.489   7.050 -0.7770 -0.9559 -1.1635
  408MOL0     H53811   0.999   0.472   7.226 -1.8933 -4.0037  2.2353
  408MOL0     H53812   0.924   0.216   7.189 -0.2087 -0.4984 -0.3298
  408MOL0     H53813   0.906   0.257   7.028 -0.4296 -0.0418 -0.8356
  408MOL0     H53814   0.756   0.390   7.268 -1.0126 -0.3474 -0.0715
  408MOL0     H53815   0.727   0.442   7.101  0.9227 -0.3109 -0.6425
  408MOL0     H53816   0.704   0.176   7.192  0.6982  3.2330  2.5386
  408MOL0     H53817   0.659   0.240   7.026  0.5739 -1.0147  0.1700
  408MOL0     H53818   0.540   0.021   7.118 -1.5294 -0.2561 -2.1732
  408MOL0     H53819   0.357  -0.154   7.152  0.6357 -0.2181 -0.1794
  408MOL0     H53820  -0.057  -0.319   7.350 -1.7109 -0.9611  1.3147
  408MOL0     H53821  -0.273  -0.408   7.431  2.7760 -0.8093 -2.3652
  408MOL0     H53822  -0.676  -0.245   7.513  0.6685 -0.7850  0.0236
  408MOL0     H53823  -0.546  -0.108   7.521 -0.1003  0.1951  0.5635
  408MOL0     H53824  -0.437  -0.254   7.686 -1.1775  2.3649  0.0616
  408MOL0     H53825  -0.533  -0.393   7.653  0.0888 -0.1127  0.1035
  408MOL0     H53826  -0.612  -0.149   7.803  3.4887 -0.2326  1.3301
  408MOL0     H53827  -0.580  -0.319   7.852  1.7753  1.8227 -0.1594
  408MOL0     H53828  -0.810  -0.203   7.675  0.0328  0.6545  0.7667
  408MOL0     H53829  -0.792  -0.378   7.709 -2.5222 -0.3165  0.6589
  408MOL0     H53830  -0.822  -0.176   7.924 -4.5571  1.6241 -0.0638
  408MOL0     H53831  -0.823  -0.351   7.942  0.1612 -0.7741 -0.4614
  408MOL0     H53832  -1.047  -0.354   7.807 -0.1456 -1.0013  3.0746
  408MOL0     H53833  -1.020  -0.182   7.774  1.0098 -0.7054 -1.5694
  408MOL0     H53834  -0.995  -0.269   8.055 -0.8902 -1.2656 -0.3135
  408MOL0     H53835  -1.063  -0.122   7.996  0.5290  0.2832  0.1420
  408MOL0     H53836  -1.230  -0.274   8.117 -1.9029  1.4068 -1.8572
  408MOL0     H53837  -1.190  -0.408   8.009 -0.5010  0.1535 -2.7419
  408MOL0     H53838  -0.471  -0.053   7.333 -0.5831 -0.3452  0.0002
  408MOL0     H53839  -0.226   0.056   7.276 -1.7468 -0.0114 -0.7758
  408MOL0     H53840   0.096   0.180   7.257 -0.2977 -0.1911  2.8750
  408MOL0     H53841   0.282   0.319   7.263  1.0903 -0.8976  3.0833
  408MOL0     H53842   2.482  -0.015   6.940  0.7042  0.6549 -0.5009
  408MOL0     H53843   2.641   0.009   6.779 -1.1914 -1.3981  3.9164
  408MOL0     H53844   2.663  -0.117   6.328  0.5420  0.8312  1.0757
  408MOL0     H53845   2.801  -0.241   6.170  0.1350 -0.4543  0.0868
  408MOL0     H53846   2.986  -0.363   6.150  0.5513  2.3296  3.2367
  408MOL0     H53847   3.153  -0.362   6.087  0.2390  0.5786  0.2073
  408MOL0     H53848   2.914  -0.247   5.939  1.7209  0.6161  3.2624
  408MOL0     H53849   3.056  -0.277   5.856 -1.1783 -0.0568 -1.4294
  408MOL0     H53850   2.898  -0.457   5.815  0.8799 -0.9454 -0.2092
  408MOL0     H53851   2.907  -0.516   5.979 -1.9164  0.6658  0.0442
  408MOL0     H53852   3.156  -0.476   5.817  2.3315 -1.2673  0.6903
  408MOL0     H53853   3.127  -0.571   5.964 -1.0488 -0.2941  1.4452
  408MOL0     H53854   2.980  -0.845   5.681 -0.2223  2.1109 -2.9797
  408MOL0     H53855   3.124   0.018   6.263 -0.2480 -1.6031 -2.0641
  408MOL0     H53856   2.973   0.135   6.446  0.8539 -3.2271  3.6293
  409MOL0     O53857   1.568   8.330   0.492 -1.0678 -0.0979  0.0489
  409MOL0     C53858   1.589   8.447   0.523  0.8804 -0.5439 -0.1630
  409MOL0     O53859   1.504   8.513   0.604 -0.3482 -0.0542  0.6220
  409MOL0     C53860   1.372   8.480   0.634 -0.4314  0.4502  0.1601
  409MOL0     C53861   1.297   8.411   0.535 -0.1870 -0.5897  0.9369
  409MOL0     C53862   1.160   8.372   0.568 -0.3675 -0.4571  0.6851
  409MOL0     C53863   1.108   8.403   0.694  0.0324 -0.0383 -0.0675
  409MOL0     O53864   0.969   8.391   0.732 -0.2391 -0.6080 -0.8083
  409MOL0     C53865   0.873   8.346   0.642 -0.0024 -0.0169 -0.8401
  409MOL0     C53866   0.730   8.376   0.699 -0.6829  0.8125  0.4051
  409MOL0     C53867   0.684   8.282   0.815 -1.3552 -0.7407  0.1564
  409MOL0     C53868   0.527   8.287   0.837 -0.1672  0.1828  0.3552
  409MOL0     C53869   0.475   8.422   0.879  0.4465 -0.2187 -0.4712
  409MOL0     C53870   0.314   8.423   0.909 -0.0098  1.0440  0.4778
  409MOL0     C53871   0.229   8.394   0.784 -0.3258 -0.1124 -1.1211
  409MOL0     C53872   0.091   8.381   0.836 -0.6269  0.1492 -0.5000
  409MOL0     N53873   0.001   8.353   0.721  0.3422  0.0469 -0.0663
  409MOL0     C53874  -0.004   8.432   0.603  0.1354 -0.5339 -0.3988
  409MOL0     C53875  -0.111   8.376   0.538 -0.4690 -0.6336  0.7496
  409MOL0     C53876  -0.152   8.431   0.399  0.3949 -0.1489 -0.5283
  409MOL0     C53877  -0.043   8.410   0.302 -0.0224 -0.0957 -0.2357
  409MOL0     C53878  -0.092   8.394   0.154  0.3484 -0.4619  0.0263
  409MOL0     C53879   0.009   8.330   0.061 -0.5760  0.2839 -0.3412
  409MOL0     O53880   0.133   8.406   0.070  0.2679  0.4233  0.5325
  409MOL0     C53881   0.239   8.380  -0.022  0.3624  1.2637 -0.6700
  409MOL0     C53882   0.226   8.382  -0.166 -0.5545  0.0916  0.1636
  409MOL0     C53883   0.338   8.378  -0.245 -1.1860 -0.5262  1.0229
  409MOL0     C53884   0.471   8.391  -0.192  1.2083  1.0494  0.2711
  409MOL0     C53885   0.595   8.375  -0.261  0.2111 -0.0631 -0.0168
  409MOL0     O53886   0.708   8.362  -0.179  0.1995 -0.2866  0.0379
  409MOL0     C53887   0.829   8.330  -0.224 -0.0206 -0.6572  0.5846
  409MOL0     C53888   0.938   8.412  -0.203 -0.2756  0.0406 -0.8279
  409MOL0     C53889   1.076   8.380  -0.232 -0.0571 -0.2549 -0.3571
  409MOL0     C53890   1.087   8.257  -0.298  0.0563  0.6200 -0.7008
  409MOL0     O53891   1.213   8.214  -0.347 -0.6225  0.6075  0.1576
  409MOL0     C53892   1.334   8.245  -0.277 -0.3065  0.6553 -0.2390
  409MOL0     C53893   1.397   8.376  -0.322  0.0624 -0.7548  0.4867
  409MOL0     C53894   1.487   8.358  -0.449  0.6496  0.2237  0.2433
  409MOL0     C53895   1.524   8.489  -0.507 -0.0619 -0.0752 -0.1295
  409MOL0     C53896   1.622   8.465  -0.633  0.5094 -0.8483  0.6540
  409MOL0     C53897   1.655   8.613  -0.669 -0.2003 -0.0938  0.0364
  409MOL0     C53898   1.804   8.639  -0.665  0.3375 -0.3728  0.5536
  409MOL0     C53899   1.842   8.652  -0.514 -0.3985 -0.7275 -0.8091
  409MOL0    Cl53900   1.987   8.757  -0.513 -0.0543 -0.2240  0.0645
  409MOL0     C53901   0.978   8.163  -0.310 -0.3219 -0.8728 -0.3290
  409MOL0     C53902   0.850   8.206  -0.283  0.1743  1.0137 -0.0928
  409MOL0     O53903   0.592   8.372  -0.382 -0.3249  0.3182 -0.0558
  409MOL0     C53904   0.480   8.402  -0.056 -0.5825  0.2511  0.7863
  409MOL0     C53905   0.366   8.409   0.030  0.1174 -0.0313 -0.2290
  409MOL0     N53906  -0.161   8.274   0.604 -0.2890  1.2142 -0.2858
  409MOL0     N53907  -0.091   8.259   0.715  0.6741  0.4855 -0.2603
  409MOL0     C53908   1.189   8.481   0.781 -0.8618  0.3293 -0.3893
  409MOL0     C53909   1.323   8.516   0.756 -0.5254  0.7565 -0.2018
  409MOL0     C53910   1.704   8.519   0.468 -0.2748 -0.1429  0.2625
  409MOL0     C53911   1.786   8.461   0.369  0.5587 -0.4850  0.5359
  409MOL0     C53912   1.889   8.536   0.315  0.6861  0.3893 -0.4106
  409MOL0     C53913   1.917   8.663   0.344 -0.7065  1.0207 -0.0334
  409MOL0     O53914   2.026   8.723   0.281 -1.0290  0.1273 -0.5571
  409MOL0     C53915   2.073   8.867   0.305  0.7212 -0.1441 -0.5066
  409MOL0     C53916   2.149   8.892   0.171 -0.0960 -0.5791 -0.2687
  409MOL0     C53917   2.256   8.775   0.147 -0.6602  0.0083  0.5417
  409MOL0     C53918   2.328   8.807   0.012 -0.4061 -0.3464  0.1492
  409MOL0     C53919   2.245   8.811  -0.104  0.5584  0.1094  0.7383
  409MOL0     C53920   2.174   8.826  -0.202  0.1092  0.0938  0.2329
  409MOL0     C53921   1.829   8.719   0.435  0.4552  0.2236 -0.5380
  409MOL0     C53922   1.725   8.653   0.499  0.8639  0.5692 -0.1463
  409MOL0     H53923   1.333   8.400   0.433 -2.4692 -3.5878  0.3097
  409MOL0     H53924   1.100   8.325   0.491 -1.2648  2.3951 -0.5200
  409MOL0     H53925   0.880   8.237   0.628 -3.9335 -0.6275  0.7513
  409MOL0     H53926   0.886   8.393   0.544  0.4179 -0.4233 -0.9850
  409MOL0     H53927   0.655   8.367   0.619  0.8799  0.2540 -1.0522
  409MOL0     H53928   0.733   8.485   0.713  0.0218  1.1489 -1.9527
  409MOL0     H53929   0.721   8.330   0.906  0.4562 -0.0401 -0.8926
  409MOL0     H53930   0.734   8.186   0.803  0.9064  0.6152 -2.1730
  409MOL0     H53931   0.486   8.244   0.745  2.0806  1.0269 -1.1330
  409MOL0     H53932   0.495   8.208   0.906  0.1554 -1.9732 -1.8260
  409MOL0     H53933   0.508   8.499   0.809 -1.6502 -0.1079 -1.4041
  409MOL0     H53934   0.542   8.443   0.964  0.0471  0.2176 -0.2587
  409MOL0     H53935   0.282   8.511   0.965  1.2929  1.0178  1.2969
  409MOL0     H53936   0.299   8.338   0.976  0.6376  0.9443  0.4982
  409MOL0     H53937   0.247   8.485   0.727  1.5129 -0.9779 -2.0100
  409MOL0     H53938   0.263   8.302   0.735 -0.6001 -0.4955 -0.5960
  409MOL0     H53939   0.070   8.459   0.910  3.8755 -1.0655  2.5126
  409MOL0     H53940   0.088   8.298   0.907  1.1007 -0.3093 -0.9107
  409MOL0     H53941   0.055   8.518   0.571  0.2739 -0.7904 -0.8386
  409MOL0     H53942  -0.166   8.540   0.392 -0.4619 -0.1694  0.5912
  409MOL0     H53943  -0.245   8.386   0.362  1.4822 -1.3566 -1.8822
  409MOL0     H53944   0.029   8.330   0.321 -0.3875 -0.3619  0.0241
  409MOL0     H53945   0.003   8.509   0.295  0.2676 -0.2633 -0.8656
  409MOL0     H53946  -0.177   8.325   0.160  0.7903 -0.9840  5.8510
  409MOL0     H53947  -0.129   8.489   0.112 -0.2118  0.9073  3.3147
  409MOL0     H53948  -0.033   8.294  -0.034 -0.8402  1.3077 -0.6278
  409MOL0     H53949   0.036   8.236   0.111  3.7784  1.3289 -0.2729
  409MOL0     H53950   0.133   8.404  -0.219 -0.7276  0.6876  0.6946
  409MOL0     H53951   0.326   8.383  -0.353  2.9479  1.5150  0.4647
  409MOL0     H53952   0.907   8.500  -0.147  1.1717  0.4649 -0.6433
  409MOL0     H53953   1.155   8.453  -0.222 -0.7737  0.5560 -0.5607
  409MOL0     H53954   1.399   8.158  -0.290 -2.0390 -0.9250  1.1536
  409MOL0     H53955   1.307   8.240  -0.171  1.6076  1.8968  0.3606
  409MOL0     H53956   1.454   8.414  -0.236  1.3784 -0.7569 -0.3585
  409MOL0     H53957   1.329   8.460  -0.340 -1.1265 -1.1246  2.7521
  409MOL0     H53958   1.422   8.310  -0.523  0.6925  0.2807  0.1693
  409MOL0     H53959   1.576   8.298  -0.428  2.7931  2.9640 -0.4134
  409MOL0     H53960   1.436   8.535  -0.553 -0.2240  0.3688  0.6108
  409MOL0     H53961   1.559   8.556  -0.427 -0.8776  1.1204 -0.7490
  409MOL0     H53962   1.572   8.412  -0.715  0.2068 -0.2740  0.4615
  409MOL0     H53963   1.716   8.413  -0.614  3.2312  2.0791 -3.1803
  409MOL0     H53964   1.598   8.681  -0.605 -0.6534  0.2549 -0.7171
  409MOL0     H53965   1.619   8.631  -0.771 -2.1319 -2.2587  0.2710
  409MOL0     H53966   1.862   8.569  -0.725  1.5788  0.0489  1.2230
  409MOL0     H53967   1.816   8.736  -0.714 -0.4750 -0.6123 -0.1352
  409MOL0     H53968   1.853   8.553  -0.468  1.5202  1.5206  4.3033
  409MOL0     H53969   1.760   8.707  -0.467  0.0752 -0.0809 -0.7291
  409MOL0     H53970   0.996   8.060  -0.341  2.3410 -1.2875  2.1917
  409MOL0     H53971   0.773   8.130  -0.287  0.6633  0.2790  2.6381
  409MOL0     H53972   0.567   8.432   0.000  0.4162 -1.0684 -0.0055
  409MOL0     H53973   0.380   8.430   0.135 -1.8137  2.0307 -0.3229
  409MOL0     H53974   1.142   8.505   0.876 -2.6759 -0.7669 -0.9642
  409MOL0     H53975   1.374   8.577   0.830 -3.0508  2.7990 -0.0000
  409MOL0     H53976   1.769   8.366   0.320  0.2653  1.1859 -2.9387
  409MOL0     H53977   1.945   8.489   0.234  0.7268 -2.0386  0.9241
  409MOL0     H53978   2.130   8.873   0.398  1.4625 -1.1065 -0.8826
  409MOL0     H53979   1.983   8.927   0.322  0.7228 -0.2925  0.0310
  409MOL0     H53980   2.075   8.907   0.092  0.4497 -0.1527 -0.7012
  409MOL0     H53981   2.203   8.985   0.192  1.0188 -1.6584  1.9875
  409MOL0     H53982   2.209   8.676   0.139 -0.1729 -0.3308  1.6327
  409MOL0     H53983   2.320   8.764   0.235  1.7225  0.2549 -1.0664
  409MOL0     H53984   2.377   8.904   0.020  1.6943 -1.1837 -1.4492
  409MOL0     H53985   2.418   8.750  -0.010 -0.0627  0.7925 -1.5775
  409MOL0     H53986   2.103   8.835  -0.282 -0.8370 -0.1159  1.0361
  409MOL0     H53987   1.831   8.826   0.457  0.2744  0.3208 -0.9794
  409MOL0     H53988   1.654   8.706   0.561  0.9804  0.2207  0.2914
  410MOL0     O53989   7.531   6.096   7.443  0.9635  0.3705 -0.2151
  410MOL0     C53990   7.581   6.076   7.328 -1.0039 -0.1163 -0.0609
  410MOL0     O53991   7.522   6.116   7.205 -0.4397  0.5163  0.5051
  410MOL0     C53992   7.403   6.169   7.196  0.7613  0.2955  0.3112
  410MOL0     C53993   7.287   6.098   7.244 -0.4874 -0.3583 -0.5730
  410MOL0     C53994   7.157   6.151   7.239 -0.5941  0.6152  0.4363
  410MOL0     C53995   7.142   6.268   7.166 -0.5778  0.2298 -0.2872
  410MOL0     O53996   7.011   6.304   7.143  0.2330 -0.2251  0.1381
  410MOL0     C53997   6.984   6.408   7.043 -0.0766 -0.0612 -0.5085
  410MOL0     C53998   6.836   6.390   7.005 -0.0157  0.0629 -0.4827
  410MOL0     C53999   6.798   6.482   6.886 -0.3851 -0.3312 -0.4321
  410MOL0     C54000   6.652   6.456   6.839 -0.3908  0.7538 -0.7499
  410MOL0     C54001   6.616   6.558   6.733  0.2637  0.5639 -0.3555
  410MOL0     C54002   6.462   6.570   6.714  0.3055  0.5671  0.0183
  410MOL0     C54003   6.385   6.622   6.831  0.1949  0.1902  0.0199
  410MOL0     C54004   6.232   6.584   6.816 -0.3589 -0.1428  0.1199
  410MOL0     N54005   6.175   6.657   6.701 -0.2340 -0.1034  0.2434
  410MOL0     C54006   6.119   6.784   6.711  0.7582  0.1361 -0.7718
  410MOL0     C54007   6.074   6.814   6.586  0.6597  0.3928 -0.1534
  410MOL0     C54008   5.996   6.930   6.538  0.0479  0.9561  0.0760
  410MOL0     C54009   5.877   6.949   6.625 -0.8531 -0.5442 -0.9093
  410MOL0     C54010   5.770   6.849   6.612  0.2736 -0.1200 -0.8125
  410MOL0     C54011   5.709   6.831   6.476 -0.5213  0.3179 -0.0821
  410MOL0     O54012   5.604   6.731   6.483  0.2009 -0.5783 -0.2033
  410MOL0     C54013   5.472   6.775   6.516 -0.5215  0.1671 -0.1496
  410MOL0     C54014   5.446   6.906   6.561 -0.1916 -0.5536 -0.3070
  410MOL0     C54015   5.315   6.946   6.563 -0.9410  0.4048  0.1344
  410MOL0     C54016   5.204   6.866   6.529 -0.3123 -0.1969 -0.3454
  410MOL0     C54017   5.065   6.918   6.541  0.4626 -0.8486 -1.2984
  410MOL0     O54018   4.966   6.818   6.554 -0.7873  0.1584  0.2738
  410MOL0     C54019   4.833   6.858   6.556  0.5508  0.4759 -0.6393
  410MOL0     C54020   4.751   6.769   6.490 -0.1564 -0.0344 -0.0016
  410MOL0     C54021   4.611   6.790   6.488 -0.0271  0.2982  0.2422
  410MOL0     C54022   4.553   6.901   6.552  0.4197  0.3640  0.4314
  410MOL0     O54023   4.419   6.925   6.558 -0.8291 -0.3789  0.6473
  410MOL0     C54024   4.336   6.885   6.455 -0.2025  0.8790 -0.2916
  410MOL0     C54025   4.200   6.951   6.439  0.1481  0.3527 -1.0043
  410MOL0     C54026   4.116   6.956   6.562  0.1514 -0.0488 -0.9689
  410MOL0     C54027   3.972   7.014   6.540 -0.4112  1.3448  0.2091
  410MOL0     C54028   3.902   7.034   6.670 -0.1927  0.3370 -0.6893
  410MOL0     C54029   3.759   7.085   6.652  0.3235  0.6353  0.2599
  410MOL0     C54030   3.678   7.081   6.780  0.4513 -0.0640 -0.1752
  410MOL0     C54031   3.534   7.105   6.739 -0.4373 -0.0569  0.2001
  410MOL0    Cl54032   3.414   7.101   6.874 -0.1552 -0.2901  0.3890
  410MOL0     C54033   4.635   6.989   6.633  0.2732  0.1406 -0.1529
  410MOL0     C54034   4.773   6.970   6.622 -0.3547 -0.3808  0.6810
  410MOL0     O54035   5.042   7.040   6.540  0.4433  0.0086 -0.2942
  410MOL0     C54036   5.241   6.732   6.502  0.3763  0.2018 -0.2352
  410MOL0     C54037   5.371   6.682   6.506 -0.1429  1.1419  0.1069
  410MOL0     N54038   6.104   6.709   6.500  0.0592  0.7861  0.7109
  410MOL0     N54039   6.172   6.619   6.566  0.4120 -0.3051  0.3245
  410MOL0     C54040   7.245   6.337   7.119  0.0009  0.3973  1.0230
  410MOL0     C54041   7.379   6.291   7.137  0.7631 -0.3471  0.2474
  410MOL0     C54042   7.721   6.016   7.321  1.0053 -0.9055 -0.5089
  410MOL0     C54043   7.773   5.965   7.204  0.2886  0.4900  0.2869
  410MOL0     C54044   7.894   5.895   7.205  0.0128 -0.8928  0.6402
  410MOL0     C54045   7.968   5.877   7.321  0.3454 -0.1721  1.1046
  410MOL0     O54046   8.085   5.812   7.316 -0.6865  0.5058  0.2559
  410MOL0     C54047   8.170   5.823   7.429  0.4344 -0.1516 -0.5124
  410MOL0     C54048   8.298   5.741   7.404  0.8094 -0.1540 -1.1576
  410MOL0     C54049   8.377   5.791   7.286 -0.4264 -0.4587  0.2340
  410MOL0     C54050   8.507   5.710   7.258 -0.6525 -0.6899 -0.1005
  410MOL0     C54051   8.479   5.570   7.226 -0.6198 -0.2490  0.3864
  410MOL0     C54052   8.480   5.457   7.175  0.0028 -0.8389  0.5343
  410MOL0     C54053   7.920   5.945   7.433  0.1999  0.3062  0.6989
  410MOL0     C54054   7.796   6.010   7.438 -0.1469  0.3546 -0.4080
  410MOL0     H54055   7.304   6.005   7.298  3.2118  1.3430  1.5983
  410MOL0     H54056   7.070   6.094   7.271  0.2063 -0.4199  0.8382
  410MOL0     H54057   7.037   6.385   6.950  0.0277 -0.8313 -0.2606
  410MOL0     H54058   7.013   6.508   7.077  1.8730 -0.6498 -0.2860
  410MOL0     H54059   6.773   6.430   7.086  0.5847  1.3145 -0.6088
  410MOL0     H54060   6.806   6.287   6.986 -1.8971  0.9367 -2.9331
  410MOL0     H54061   6.863   6.460   6.801  0.4456 -0.4861  0.2350
  410MOL0     H54062   6.819   6.589   6.900 -0.4352 -0.3207 -0.4354
  410MOL0     H54063   6.639   6.350   6.812 -2.2101  0.7414  0.0331
  410MOL0     H54064   6.607   6.471   6.937  2.8284  0.2182  0.9739
  410MOL0     H54065   6.655   6.539   6.632 -1.2440  0.7517 -0.9940
  410MOL0     H54066   6.644   6.658   6.767  0.4252  0.5481 -0.4422
  410MOL0     H54067   6.411   6.477   6.688 -2.2200  1.2745  2.0408
  410MOL0     H54068   6.452   6.648   6.637 -0.1368  0.5623  0.0689
  410MOL0     H54069   6.413   6.575   6.926  1.1749  2.2341  0.7857
  410MOL0     H54070   6.396   6.730   6.842  1.7195  0.3191 -2.1108
  410MOL0     H54071   6.163   6.609   6.897 -2.7691  0.6149 -1.9928
  410MOL0     H54072   6.222   6.477   6.793 -0.4445 -0.0480 -0.3001
  410MOL0     H54073   6.100   6.837   6.803 -1.5014 -2.1935  0.2420
  410MOL0     H54074   5.975   6.915   6.432 -2.4156  0.6799  0.5556
  410MOL0     H54075   6.050   7.025   6.542  0.7585  0.6011 -0.7725
  410MOL0     H54076   5.818   7.040   6.608 -2.2739 -1.4292 -0.7984
  410MOL0     H54077   5.910   6.942   6.729  0.4757  0.5259 -1.2248
  410MOL0     H54078   5.807   6.754   6.652  0.8683  0.0421 -0.9694
  410MOL0     H54079   5.695   6.870   6.689  1.0044 -1.3998  0.2884
  410MOL0     H54080   5.792   6.790   6.419  1.5101  1.3425  2.0023
  410MOL0     H54081   5.676   6.923   6.428 -0.4274  1.6561  2.2555
  410MOL0     H54082   5.519   6.983   6.583 -1.6365  0.6790  0.3612
  410MOL0     H54083   5.298   7.048   6.596  1.9164  0.2479  2.4241
  410MOL0     H54084   4.792   6.686   6.434 -0.8137  0.0849 -0.6680
  410MOL0     H54085   4.552   6.725   6.424  1.0880 -2.3600  1.7139
  410MOL0     H54086   4.323   6.777   6.463  0.5598  0.7837 -0.2958
  410MOL0     H54087   4.396   6.884   6.364 -2.7973 -1.3373 -2.1407
  410MOL0     H54088   4.149   6.900   6.357 -0.4820 -0.4947 -0.1065
  410MOL0     H54089   4.212   7.057   6.414  0.1488 -0.0007 -2.6746
  410MOL0     H54090   4.161   7.008   6.648 -2.7234 -0.0364  0.6390
  410MOL0     H54091   4.113   6.853   6.599 -0.0647 -0.4992 -2.2167
  410MOL0     H54092   3.969   7.109   6.485 -0.5574  0.5049 -1.2884
  410MOL0     H54093   3.916   6.939   6.483 -1.2119  0.3924  2.1595
  410MOL0     H54094   3.960   7.108   6.726  0.7332 -0.9643  0.1026
  410MOL0     H54095   3.913   6.941   6.726  0.8987  0.5515 -0.5169
  410MOL0     H54096   3.716   7.020   6.575  0.2988  0.3875  0.4831
  410MOL0     H54097   3.762   7.190   6.621  2.1102  0.0046 -1.9832
  410MOL0     H54098   3.695   6.980   6.820  0.4244  0.9001  2.4196
  410MOL0     H54099   3.713   7.156   6.851  0.9686  1.4434 -1.9431
  410MOL0     H54100   3.500   7.040   6.658  1.3317 -0.5664 -0.1580
  410MOL0     H54101   3.537   7.205   6.693 -2.3832  0.3529  0.8299
  410MOL0     H54102   4.578   7.064   6.686 -0.8421 -0.9553  0.2478
  410MOL0     H54103   4.852   7.025   6.672  1.1671 -1.3137 -0.6080
  410MOL0     H54104   5.154   6.673   6.472 -1.4005  0.5962  3.5825
  410MOL0     H54105   5.384   6.577   6.481 -2.0992  0.9245 -0.2139
  410MOL0     H54106   7.238   6.429   7.062 -1.5880  0.5312  1.4019
  410MOL0     H54107   7.458   6.348   7.089  2.1951 -2.3071  0.1479
  410MOL0     H54108   7.727   5.963   7.105  2.0412  0.0389 -0.5487
  410MOL0     H54109   7.926   5.840   7.117 -0.4641 -3.3738  1.9193
  410MOL0     H54110   8.118   5.785   7.517 -0.0213  2.4644  0.4486
  410MOL0     H54111   8.196   5.927   7.449  2.0047 -0.7853  1.0962
  410MOL0     H54112   8.349   5.740   7.501  0.3432  1.1481 -0.8798
  410MOL0     H54113   8.269   5.636   7.397  0.2137 -0.0039 -0.9819
  410MOL0     H54114   8.406   5.896   7.298  0.1378 -0.2236 -2.4958
  410MOL0     H54115   8.308   5.786   7.201 -1.4006  1.7056  0.8099
  410MOL0     H54116   8.555   5.757   7.171 -3.2381  1.1512 -0.6574
  410MOL0     H54117   8.574   5.724   7.344 -0.0001 -0.3271 -0.6580
  410MOL0     H54118   8.488   5.376   7.105  2.5684  0.7519 -1.2122
  410MOL0     H54119   7.977   5.941   7.525  1.7422 -0.6051 -0.2641
  410MOL0     H54120   7.753   6.044   7.532  1.7398  0.1528  0.5771
  411MOL0     O54121   4.143   3.290   6.826 -0.2340  0.0966 -0.4227
  411MOL0     C54122   4.043   3.219   6.840 -0.7453 -0.4651  0.0548
  411MOL0     O54123   4.021   3.097   6.772 -0.1920  0.3790 -0.3700
  411MOL0     C54124   4.112   3.033   6.695 -0.0410  0.1693  0.2570
  411MOL0     C54125   4.090   3.012   6.559  0.6056  0.6931 -0.3899
  411MOL0     C54126   4.172   2.927   6.476  0.5850 -0.1583  0.3066
  411MOL0     C54127   4.277   2.863   6.541  0.1536  1.5693 -0.1793
  411MOL0     O54128   4.375   2.776   6.494  0.4458  0.3727  0.3703
  411MOL0     C54129   4.411   2.791   6.359  0.0732 -0.2704 -0.1583
  411MOL0     C54130   4.518   2.689   6.335  0.1958 -0.0078  0.0701
  411MOL0     C54131   4.646   2.700   6.426 -0.8778 -0.3150  0.7171
  411MOL0     C54132   4.746   2.602   6.357 -0.6559  0.3116 -0.1651
  411MOL0     C54133   4.877   2.610   6.449 -0.2761  0.4367  0.2603
  411MOL0     C54134   4.948   2.474   6.473 -0.5277  0.4886  0.1840
  411MOL0     C54135   5.091   2.489   6.524 -1.0230  0.7735  0.3628
  411MOL0     C54136   5.152   2.345   6.553  0.3813  0.3367 -0.5507
  411MOL0     N54137   5.122   2.292   6.683  1.6386  0.5719  0.3804
  411MOL0     C54138   5.045   2.334   6.782 -0.0780 -0.6441 -0.6191
  411MOL0     C54139   5.063   2.241   6.881 -0.1373 -0.0926 -0.0075
  411MOL0     C54140   4.988   2.247   7.013 -0.2539 -0.5607 -0.3097
  411MOL0     C54141   4.879   2.143   7.020 -0.3837 -0.3821  0.6511
  411MOL0     C54142   4.817   2.126   7.163 -0.3973 -0.9215  0.3523
  411MOL0     C54143   4.705   2.219   7.186 -0.5583 -0.0291 -0.0442
  411MOL0     O54144   4.598   2.142   7.247 -0.8965 -1.1169 -0.2496
  411MOL0     C54145   4.475   2.200   7.258  0.4875 -0.3226  0.7140
  411MOL0     C54146   4.448   2.330   7.284 -0.7674 -0.6205  0.1941
  411MOL0     C54147   4.325   2.391   7.292 -0.1256  0.1675 -0.0540
  411MOL0     C54148   4.210   2.312   7.264 -0.5661  0.4641  0.5631
  411MOL0     C54149   4.077   2.369   7.259  0.2506 -0.0582  0.0460
  411MOL0     O54150   3.975   2.282   7.226 -0.7471 -0.7465 -0.3067
  411MOL0     C54151   3.847   2.324   7.220 -0.7197 -0.3414 -0.5410
  411MOL0     C54152   3.800   2.410   7.114  0.2145  0.3686  0.6101
  411MOL0     C54153   3.657   2.433   7.106 -1.0211 -0.1098 -0.0023
  411MOL0     C54154   3.570   2.380   7.203  0.2256  0.0614  0.2528
  411MOL0     O54155   3.434   2.402   7.193 -0.3078 -0.1918 -0.5231
  411MOL0     C54156   3.386   2.506   7.106  0.2655  0.2183  0.3429
  411MOL0     C54157   3.230   2.500   7.101 -0.3747 -0.7954 -0.2751
  411MOL0     C54158   3.162   2.559   7.230  0.4221  0.8148 -0.1180
  411MOL0     C54159   3.007   2.571   7.211  0.4434  1.3456 -0.3479
  411MOL0     C54160   2.940   2.642   7.327  0.6559  0.2084 -1.1535
  411MOL0     C54161   2.787   2.661   7.315 -0.1733  0.0295 -0.9643
  411MOL0     C54162   2.719   2.525   7.324  0.3730  0.6174 -0.1318
  411MOL0     C54163   2.567   2.522   7.354 -0.8010 -0.0452  0.0205
  411MOL0    Cl54164   2.477   2.616   7.234  0.1012  0.4104  0.1306
  411MOL0     C54165   3.622   2.304   7.310  0.0756 -0.3556 -0.0802
  411MOL0     C54166   3.760   2.274   7.317 -0.8216 -0.9236 -0.0790
  411MOL0     O54167   4.067   2.487   7.271  0.1131 -0.2930  0.1472
  411MOL0     C54168   4.229   2.172   7.232 -0.1693  0.8257 -0.2771
  411MOL0     C54169   4.361   2.128   7.232  0.5672  0.9243  0.3647
  411MOL0     N54170   5.134   2.128   6.840  0.8771 -0.0320 -0.2884
  411MOL0     N54171   5.174   2.165   6.712 -0.8659 -0.2965  0.7663
  411MOL0     C54172   4.308   2.894   6.672  0.2803  0.4156 -0.0887
  411MOL0     C54173   4.222   2.975   6.753 -1.0245  0.0854  0.5997
  411MOL0     C54174   3.938   3.276   6.919 -1.0321 -0.8823  0.2528
  411MOL0     C54175   3.922   3.413   6.969 -0.2812  1.0370  0.6024
  411MOL0     C54176   3.823   3.440   7.065  0.1855 -0.0733  0.7873
  411MOL0     C54177   3.736   3.348   7.112  0.3418 -0.3983  0.1121
  411MOL0     O54178   3.636   3.388   7.209 -0.8415 -0.3788  0.6061
  411MOL0     C54179   3.625   3.520   7.251  0.3819  0.9561 -0.1131
  411MOL0     C54180   3.504   3.542   7.336 -0.7929 -0.3667 -0.1998
  411MOL0     C54181   3.378   3.511   7.258  0.7816  0.2420 -0.3063
  411MOL0     C54182   3.252   3.503   7.343 -0.3774  0.1832 -0.3919
  411MOL0     C54183   3.141   3.472   7.262 -0.8334  0.5698  0.9412
  411MOL0     C54184   3.058   3.433   7.186  0.4339  1.2434 -0.3292
  411MOL0     C54185   3.739   3.216   7.051 -0.1886 -0.7993 -0.4676
  411MOL0     C54186   3.834   3.187   6.958 -0.1045  0.2746 -0.2674
  411MOL0     H54187   4.007   3.065   6.514  0.1795 -1.0326 -1.7305
  411MOL0     H54188   4.150   2.922   6.369  1.7300  3.8154 -0.2677
  411MOL0     H54189   4.445   2.894   6.339 -2.4113  1.0551  1.8447
  411MOL0     H54190   4.327   2.763   6.295 -1.2775 -0.2040  1.5065
  411MOL0     H54191   4.554   2.703   6.233  2.6851 -0.3174  0.8439
  411MOL0     H54192   4.474   2.590   6.348  2.4471 -1.0036  0.5703
  411MOL0     H54193   4.632   2.663   6.528  2.1491 -1.4110  0.8388
  411MOL0     H54194   4.693   2.799   6.434  1.2554 -1.0770 -1.3032
  411MOL0     H54195   4.702   2.502   6.360 -1.2013  0.4823 -1.7230
  411MOL0     H54196   4.761   2.632   6.253  1.2179  0.0916 -0.0045
  411MOL0     H54197   4.865   2.654   6.548  1.7717  0.1245  0.6940
  411MOL0     H54198   4.955   2.671   6.402  4.0229 -2.5728  2.8366
  411MOL0     H54199   4.949   2.424   6.375  1.6654  2.9556 -1.2035
  411MOL0     H54200   4.889   2.419   6.547  1.6361  1.6827  2.9771
  411MOL0     H54201   5.160   2.536   6.453 -0.1634  0.0843  0.7163
  411MOL0     H54202   5.086   2.561   6.607  0.1658  4.3130 -2.4049
  411MOL0     H54203   5.260   2.360   6.546  0.4522 -0.0235 -0.2497
  411MOL0     H54204   5.130   2.274   6.472 -0.8284 -0.4956  0.4816
  411MOL0     H54205   4.990   2.426   6.801  1.3153 -0.1646  1.3708
  411MOL0     H54206   4.946   2.344   7.042 -0.0212 -0.7809  0.8168
  411MOL0     H54207   5.067   2.233   7.087 -0.5203  3.1733  0.8857
  411MOL0     H54208   4.924   2.052   6.980 -0.6740 -0.2048 -0.0952
  411MOL0     H54209   4.797   2.172   6.954 -1.5632 -1.0312  1.7837
  411MOL0     H54210   4.778   2.024   7.163 -0.1800 -1.0083  1.2151
  411MOL0     H54211   4.896   2.142   7.236 -1.8787  0.2343  1.7639
  411MOL0     H54212   4.670   2.264   7.092  0.4670 -0.2622 -0.5564
  411MOL0     H54213   4.732   2.308   7.243 -1.8269 -0.9029  2.0064
  411MOL0     H54214   4.530   2.401   7.293  1.4673 -3.2797  3.0667
  411MOL0     H54215   4.317   2.494   7.324 -0.5966  0.0182  0.3184
  411MOL0     H54216   3.862   2.452   7.035  1.1249 -3.1635 -0.7371
  411MOL0     H54217   3.615   2.494   7.027 -1.7056  0.5585  0.8545
  411MOL0     H54218   3.430   2.500   7.005  1.7424  0.9263  0.9021
  411MOL0     H54219   3.421   2.599   7.152  4.3039 -0.8063 -0.2367
  411MOL0     H54220   3.193   2.397   7.096  0.7189 -1.1616 -1.4728
  411MOL0     H54221   3.192   2.554   7.014  0.7418 -0.7058 -0.7213
  411MOL0     H54222   3.196   2.663   7.241  1.7852  0.2993  0.9658
  411MOL0     H54223   3.202   2.500   7.314  1.1662  0.4098 -0.7380
  411MOL0     H54224   2.985   2.621   7.116 -4.5888 -1.4626 -1.0775
  411MOL0     H54225   2.966   2.469   7.202 -0.8729  1.7917  0.3294
  411MOL0     H54226   2.987   2.741   7.337 -0.3846  0.5796  0.4761
  411MOL0     H54227   2.968   2.581   7.413 -1.0214 -3.3752 -2.9257
  411MOL0     H54228   2.770   2.693   7.212  0.4023 -4.5517 -2.6934
  411MOL0     H54229   2.745   2.735   7.384  1.9322  0.7402 -0.3685
  411MOL0     H54230   2.731   2.476   7.227 -3.4813  0.1919 -0.5609
  411MOL0     H54231   2.771   2.464   7.398  3.3871  2.9242 -0.1616
  411MOL0     H54232   2.545   2.555   7.456 -0.5371 -3.6500  1.3913
  411MOL0     H54233   2.529   2.420   7.340  1.1776 -0.6742 -1.0646
  411MOL0     H54234   3.562   2.245   7.379  0.4866 -0.0178  0.5840
  411MOL0     H54235   3.811   2.217   7.394  1.8392  2.0759  0.5927
  411MOL0     H54236   4.144   2.105   7.219  1.8558 -2.0419  0.2690
  411MOL0     H54237   4.379   2.025   7.202 -2.0698  0.4587  0.1023
  411MOL0     H54238   4.392   2.846   6.722  1.8132  1.3706 -1.6754
  411MOL0     H54239   4.239   2.994   6.858  0.8743 -0.4116  0.4163
  411MOL0     H54240   3.994   3.492   6.951  0.1359  0.3086 -1.2184
  411MOL0     H54241   3.827   3.539   7.107  0.4650  0.6490 -0.8513
  411MOL0     H54242   3.618   3.573   7.156  2.0271 -2.2746 -2.2109
  411MOL0     H54243   3.711   3.551   7.311 -0.1743 -0.5996  1.5747
  411MOL0     H54244   3.505   3.471   7.419 -0.9996  0.8778  0.8980
  411MOL0     H54245   3.509   3.648   7.362 -1.7600 -0.9994  2.9942
  411MOL0     H54246   3.396   3.420   7.200  1.0104  0.2233 -0.2059
  411MOL0     H54247   3.363   3.587   7.181  1.2903  0.4163 -0.2363
  411MOL0     H54248   3.260   3.439   7.431  0.7716 -0.4153 -0.9138
  411MOL0     H54249   3.233   3.596   7.396 -2.6089 -0.2682 -0.3138
  411MOL0     H54250   2.998   3.400   7.104  1.4120  1.1289 -1.0185
  411MOL0     H54251   3.669   3.139   7.082 -0.1146 -0.9255 -0.6097
  411MOL0     H54252   3.820   3.091   6.910  1.3649  1.5783 -3.5458
  412MOL0     O54253   3.181   0.308   6.000  1.4708  0.1246  0.1410
  412MOL0     C54254   3.219   0.282   6.109  0.0768 -0.1103  0.3559
  412MOL0     O54255   3.322   0.212   6.137  0.4030 -0.2433  0.7450
  412MOL0     C54256   3.379   0.141   6.034 -0.0244 -1.0597 -0.6792
  412MOL0     C54257   3.465   0.188   5.938  0.0423 -0.0745  0.6111
  412MOL0     C54258   3.518   0.106   5.832  0.6946 -0.0905 -0.1014
  412MOL0     C54259   3.483  -0.026   5.825  1.1116  0.5926  0.4673
  412MOL0     O54260   3.520  -0.087   5.707 -0.1106 -1.1075  0.1721
  412MOL0     C54261   3.467  -0.224   5.679  0.0100 -0.4780 -0.6683
  412MOL0     C54262   3.542  -0.273   5.562 -0.9579  0.5561 -0.4519
  412MOL0     C54263   3.512  -0.208   5.436  0.1702 -1.2837  0.0901
  412MOL0     C54264   3.614  -0.265   5.330 -0.0180 -0.9980 -1.0153
  412MOL0     C54265   3.607  -0.203   5.188  0.7085  0.0895  0.0947
  412MOL0     C54266   3.486  -0.265   5.107 -0.4916  0.8273 -0.4911
  412MOL0     C54267   3.486  -0.172   4.975  0.4710  0.2229 -0.4772
  412MOL0     C54268   3.349  -0.200   4.905  0.5228 -0.3528 -0.8892
  412MOL0     N54269   3.345  -0.104   4.790  0.9123  0.3948  0.3599
  412MOL0     C54270   3.379   0.033   4.793 -0.2048  0.2615 -0.5130
  412MOL0     C54271   3.375   0.076   4.660  0.5398 -0.0966  0.0026
  412MOL0     C54272   3.392   0.217   4.602 -1.3900 -0.0399 -0.1082
  412MOL0     C54273   3.518   0.238   4.509 -0.0489  0.6788  0.5202
  412MOL0     C54274   3.654   0.173   4.547  0.3035  0.0887 -0.3204
  412MOL0     C54275   3.672   0.018   4.544  0.3820 -0.8765 -0.2909
  412MOL0     O54276   3.801  -0.003   4.582  0.1132  0.8612  0.2145
  412MOL0     C54277   3.847  -0.007   4.716  0.7752  0.1449  0.0163
  412MOL0     C54278   3.983  -0.039   4.740  0.4114 -0.7199 -0.0070
  412MOL0     C54279   4.026  -0.045   4.874  0.9466  1.3181 -0.1507
  412MOL0     C54280   3.936  -0.031   4.980  0.3581 -0.9058  0.8940
  412MOL0     C54281   3.990  -0.042   5.112  0.5627 -0.5128  0.5099
  412MOL0     O54282   4.122  -0.019   5.127  0.1223 -0.2707 -0.0371
  412MOL0     C54283   4.171  -0.037   5.253 -0.0571 -0.4137 -0.3352
  412MOL0     C54284   4.238   0.072   5.318  2.0910 -0.3359  0.8677
  412MOL0     C54285   4.308   0.053   5.438 -0.3379 -0.5133  0.1369
  412MOL0     C54286   4.298  -0.073   5.500  0.2423 -1.6540  0.6407
  412MOL0     O54287   4.343  -0.086   5.625  0.8855 -0.3259 -1.0867
  412MOL0     C54288   4.480  -0.117   5.642  0.7028  0.4962  0.2238
  412MOL0     C54289   4.520  -0.085   5.786 -0.5809 -0.5443  0.2016
  412MOL0     C54290   4.523   0.071   5.814 -0.3116  0.4141  0.2871
  412MOL0     C54291   4.624   0.117   5.920 -0.3134  0.5604 -0.3798
  412MOL0     C54292   4.553   0.144   6.064  0.7580  0.6134 -0.1722
  412MOL0     C54293   4.516   0.011   6.127  0.4702  0.1304  0.0079
  412MOL0     C54294   4.467   0.023   6.272  0.8017  0.0352  0.5252
  412MOL0     C54295   4.315   0.031   6.277 -0.5917  0.4125 -0.6445
  412MOL0    Cl54296   4.252   0.099   6.443  0.0038  0.0406  0.0681
  412MOL0     C54297   4.242  -0.180   5.437  0.2734 -0.1265 -0.9198
  412MOL0     C54298   4.178  -0.160   5.315  0.0809  0.1257  0.2959
  412MOL0     O54299   3.908  -0.048   5.204 -0.5873  0.1960  0.0570
  412MOL0     C54300   3.803   0.001   4.956  0.2050 -0.3727  0.1798
  412MOL0     C54301   3.760   0.018   4.823  0.1666 -0.1121 -0.6123
  412MOL0     N54302   3.344  -0.042   4.582  0.1628 -0.0679  1.1437
  412MOL0     N54303   3.330  -0.147   4.660  0.1266  0.5110 -0.2898
  412MOL0     C54304   3.387  -0.075   5.911 -0.5533 -0.4492 -0.1789
  412MOL0     C54305   3.341   0.004   6.022 -0.4621  1.1599  0.3218
  412MOL0     C54306   3.137   0.338   6.224  0.0650 -0.2042  0.3726
  412MOL0     C54307   3.007   0.396   6.205 -1.0541 -0.0002  0.2826
  412MOL0     C54308   2.938   0.433   6.323  0.8781 -0.6467 -0.1278
  412MOL0     C54309   2.989   0.418   6.451  0.6820 -0.2217 -0.7775
  412MOL0     O54310   2.919   0.475   6.553  0.0980  0.0723  0.2406
  412MOL0     C54311   2.956   0.617   6.575  0.5110 -0.2316  0.8209
  412MOL0     C54312   3.074   0.645   6.662  0.6408 -0.6111 -0.5060
  412MOL0     C54313   3.092   0.787   6.699 -0.6415 -1.1667 -0.1216
  412MOL0     C54314   3.119   0.884   6.584  1.4067 -0.4423  0.6150
  412MOL0     C54315   2.994   0.957   6.548  0.1324 -0.0777 -0.0048
  412MOL0     C54316   2.886   1.014   6.510 -1.1822 -0.4542 -0.5613
  412MOL0     C54317   3.117   0.378   6.465 -0.5436  0.8744  0.2285
  412MOL0     C54318   3.185   0.335   6.350 -0.2481 -0.7253 -0.2853
  412MOL0     H54319   3.472   0.297   5.935 -1.6670  0.0420 -0.8548
  412MOL0     H54320   3.585   0.156   5.764 -1.3589  2.5553 -0.3320
  412MOL0     H54321   3.363  -0.217   5.646  0.3806 -0.6302 -1.9148
  412MOL0     H54322   3.492  -0.279   5.770 -0.2311  2.0304  1.0022
  412MOL0     H54323   3.532  -0.382   5.553 -1.7429  0.5765  0.0379
  412MOL0     H54324   3.649  -0.260   5.582 -1.2150  0.0784  1.4946
  412MOL0     H54325   3.512  -0.099   5.437 -0.7919 -1.1957 -2.2777
  412MOL0     H54326   3.409  -0.239   5.414 -0.6411  2.5838 -2.7110
  412MOL0     H54327   3.713  -0.234   5.364  0.6140 -1.4912 -2.3234
  412MOL0     H54328   3.600  -0.371   5.309  3.6377 -2.2230  1.6554
  412MOL0     H54329   3.698  -0.225   5.133  0.9351  1.6113 -0.1851
  412MOL0     H54330   3.589  -0.096   5.198 -1.1337  0.0784 -2.1823
  412MOL0     H54331   3.398  -0.253   5.169  1.3643 -1.2398  2.8467
  412MOL0     H54332   3.513  -0.371   5.096  4.0716  1.9929 -3.6389
  412MOL0     H54333   3.491  -0.070   5.012  2.5283  0.4742 -1.3282
  412MOL0     H54334   3.571  -0.195   4.911  0.5971 -0.7899  0.0320
  412MOL0     H54335   3.271  -0.175   4.977 -0.3671  0.5889 -2.1342
  412MOL0     H54336   3.352  -0.304   4.870 -1.2212 -0.3791 -1.0273
  412MOL0     H54337   3.407   0.093   4.879 -0.1148  0.1995 -0.4989
  412MOL0     H54338   3.404   0.286   4.686  4.1551  0.8376 -1.2481
  412MOL0     H54339   3.299   0.249   4.554 -1.2926 -0.1857 -0.3911
  412MOL0     H54340   3.528   0.345   4.489 -0.9353  0.9871  1.6671
  412MOL0     H54341   3.484   0.188   4.418  0.0154  0.3885  0.6545
  412MOL0     H54342   3.735   0.212   4.484  0.3293 -0.5231 -0.6766
  412MOL0     H54343   3.664   0.203   4.652 -0.7327  0.4700 -0.3248
  412MOL0     H54344   3.650  -0.014   4.442 -3.3569 -0.2952  0.1874
  412MOL0     H54345   3.600  -0.034   4.608  1.9250 -0.4438  1.9133
  412MOL0     H54346   4.050  -0.059   4.657  0.5076 -3.6383  0.6405
  412MOL0     H54347   4.127  -0.082   4.892 -0.5330 -2.6612  1.2935
  412MOL0     H54348   4.238   0.168   5.266 -0.6870 -0.5793  0.2628
  412MOL0     H54349   4.368   0.139   5.466  0.3311 -1.5596  2.0810
  412MOL0     H54350   4.542  -0.065   5.568  2.0877 -1.3853 -0.0116
  412MOL0     H54351   4.499  -0.223   5.626 -2.7814 -0.1207 -0.5888
  412MOL0     H54352   4.618  -0.132   5.799 -1.3392 -2.8840 -1.8508
  412MOL0     H54353   4.454  -0.129   5.861  0.7059  1.7749  2.9125
  412MOL0     H54354   4.422   0.110   5.831  0.3551  2.5170 -0.2646
  412MOL0     H54355   4.565   0.119   5.725  0.0320 -2.1425 -1.0467
  412MOL0     H54356   4.699   0.038   5.918 -1.8627 -0.9639  0.1930
  412MOL0     H54357   4.674   0.210   5.889  0.3811  0.5613  0.6842
  412MOL0     H54358   4.459   0.198   6.049 -0.2564 -1.1191 -0.3604
  412MOL0     H54359   4.621   0.200   6.128 -0.1092 -1.7365  3.0748
  412MOL0     H54360   4.605  -0.053   6.123 -0.5518 -1.5954  2.5454
  412MOL0     H54361   4.438  -0.041   6.072 -1.3688  3.0707 -0.4004
  412MOL0     H54362   4.506  -0.064   6.326  1.1800 -0.0983  0.0435
  412MOL0     H54363   4.501   0.112   6.326 -0.8403  0.6011  0.6573
  412MOL0     H54364   4.261  -0.062   6.259 -1.0312  1.0360 -2.9090
  412MOL0     H54365   4.294   0.102   6.196 -3.3196  0.7186  0.2473
  412MOL0     H54366   4.250  -0.277   5.484  2.2563  0.2772 -0.3509
  412MOL0     H54367   4.134  -0.251   5.276 -2.4680  0.5529  1.9528
  412MOL0     H54368   3.736   0.021   5.039  1.1711  0.9208  0.6888
  412MOL0     H54369   3.654   0.041   4.816  0.5133  1.7791 -0.0626
  412MOL0     H54370   3.354  -0.178   5.907  0.8710 -1.0774  2.1336
  412MOL0     H54371   3.272  -0.037   6.096  0.9112 -1.8113  0.0906
  412MOL0     H54372   2.968   0.389   6.104 -1.4041 -0.5072  0.4494
  412MOL0     H54373   2.836   0.467   6.313  1.1868 -0.3287 -2.7568
  412MOL0     H54374   2.872   0.666   6.625  1.1463  1.8418 -0.0371
  412MOL0     H54375   2.977   0.662   6.477 -0.7755 -1.3326  0.0067
  412MOL0     H54376   3.063   0.588   6.754 -2.0360  0.0031 -0.3724
  412MOL0     H54377   3.163   0.615   6.606  0.9497 -1.0478  0.2084
  412MOL0     H54378   3.166   0.789   6.781 -0.5487 -3.4471 -0.0897
  412MOL0     H54379   3.000   0.810   6.753 -1.3097  1.1035 -2.0886
  412MOL0     H54380   3.182   0.964   6.623 -1.3400  1.9527  0.5113
  412MOL0     H54381   3.172   0.828   6.506  1.3505 -1.2903  1.1710
  412MOL0     H54382   2.790   1.056   6.488 -0.2455  2.1925  0.0469
  412MOL0     H54383   3.164   0.381   6.563 -1.4203  1.2227  0.6426
  412MOL0     H54384   3.279   0.289   6.379 -0.5479  0.6451  3.4683
  413MOL0     O54385   9.777   0.665   2.470  0.0750 -0.1421 -0.6397
  413MOL0     C54386   9.736   0.552   2.433 -0.0755 -0.4709  0.6696
  413MOL0     O54387   9.818   0.442   2.411 -0.4599 -0.2922  0.8806
  413MOL0     C54388   9.960   0.455   2.421  1.1652 -0.2042  0.7065
  413MOL0     C54389  10.032   0.533   2.519  0.9507  0.1919  0.8199
  413MOL0     C54390  10.165   0.545   2.533  0.8271 -0.5369 -0.4123
  413MOL0     C54391  10.249   0.468   2.450 -0.2228 -0.8731 -0.1333
  413MOL0     O54392  10.383   0.447   2.468  0.0272 -0.6004  0.4429
  413MOL0     C54393  10.434   0.508   2.589  0.0979  0.2336  0.0485
  413MOL0     C54394  10.589   0.488   2.600 -1.0044  1.0530  0.0269
  413MOL0     C54395  10.620   0.336   2.601  0.2901 -0.0132  0.5429
  413MOL0     C54396  10.759   0.319   2.543 -0.0197  0.3251 -0.3975
  413MOL0     C54397  10.858   0.232   2.625 -0.0721  0.4230 -0.4853
  413MOL0     C54398  10.988   0.214   2.544  0.3203  0.9622  0.5176
  413MOL0     C54399  11.068   0.095   2.604 -0.2101  0.1340 -0.1260
  413MOL0     C54400  11.198   0.057   2.531  0.8739 -0.0100  0.1494
  413MOL0     N54401  11.290   0.168   2.548  0.2949 -0.5075 -0.3017
  413MOL0     C54402  11.336   0.265   2.448 -0.1802 -0.5630 -0.2582
  413MOL0     C54403  11.443   0.333   2.507 -0.6149 -0.1883  0.4142
  413MOL0     C54404  11.489   0.470   2.467  0.3239 -0.1678  0.0917
  413MOL0     C54405  11.373   0.563   2.428  0.4924 -0.1017 -0.3160
  413MOL0     C54406  11.272   0.572   2.541  0.6553 -0.2919 -0.8876
  413MOL0     C54407  11.173   0.681   2.518 -0.0604  0.8308  0.3867
  413MOL0     O54408  11.069   0.665   2.614  0.0676 -0.4202 -0.2996
  413MOL0     C54409  10.955   0.744   2.603  0.0124 -0.4469  0.1543
  413MOL0     C54410  10.926   0.832   2.500  0.0812  0.0483  0.1621
  413MOL0     C54411  10.805   0.901   2.494 -0.6398 -0.3507  0.2905
  413MOL0     C54412  10.707   0.882   2.590  0.1444 -0.5530 -0.1901
  413MOL0     C54413  10.580   0.958   2.574  0.2117  0.5131  1.0504
  413MOL0     O54414  10.470   0.928   2.659  0.2634  0.5831 -0.2483
  413MOL0     C54415  10.338   0.960   2.623  0.3030 -0.8974  0.0189
  413MOL0     C54416  10.300   1.068   2.537  0.3181  0.1357  0.0919
  413MOL0     C54417  10.159   1.087   2.518 -0.5418  1.1216  0.8251
  413MOL0     C54418  10.062   1.021   2.595  0.3160  0.2341  0.3361
  413MOL0     O54419   9.931   1.026   2.551 -0.0752  0.5666  0.2718
  413MOL0     C54420   9.828   0.962   2.626 -0.1910  0.9679 -0.4193
  413MOL0     C54421   9.696   1.013   2.582  0.9173 -0.1211  0.2160
  413MOL0     C54422   9.575   0.973   2.662 -0.2587 -0.2183  0.4178
  413MOL0     C54423   9.555   1.066   2.794  0.3107  0.5776  0.3534
  413MOL0     C54424   9.409   1.063   2.843  1.1960  0.9019 -0.2422
  413MOL0     C54425   9.371   1.198   2.910  0.3883 -0.0216 -0.9883
  413MOL0     C54426   9.463   1.241   3.022  0.6301  0.3626 -0.2304
  413MOL0     C54427   9.421   1.377   3.092 -0.9051 -0.8264 -0.4967
  413MOL0    Cl54428   9.541   1.393   3.233  0.3720  0.3190 -0.2366
  413MOL0     C54429  10.107   0.925   2.689  0.3452 -0.5509  0.0343
  413MOL0     C54430  10.249   0.897   2.696  0.8782 -0.0159  0.2606
  413MOL0     O54431  10.571   1.040   2.485  0.6794  0.3694  0.6808
  413MOL0     C54432  10.730   0.803   2.699 -0.6426  0.4864 -0.2860
  413MOL0     C54433  10.853   0.740   2.705 -0.9464 -0.0647  0.2535
  413MOL0     N54434  11.465   0.274   2.636 -0.8990  0.1079  0.2706
  413MOL0     N54435  11.375   0.188   2.657  0.3517  0.6039  0.0467
  413MOL0     C54436  10.184   0.399   2.351 -0.5723  0.2156 -0.1849
  413MOL0     C54437  10.044   0.386   2.334  0.8812  0.2148  0.1696
  413MOL0     C54438   9.593   0.531   2.423  0.0384  0.4610 -0.1740
  413MOL0     C54439   9.546   0.407   2.390 -0.2819  1.0245 -0.3327
  413MOL0     C54440   9.410   0.383   2.375  0.5464  0.2878 -0.5500
  413MOL0     C54441   9.312   0.481   2.429 -0.1648 -0.5627  0.3804
  413MOL0     O54442   9.179   0.448   2.459  0.2290 -0.5762 -0.3285
  413MOL0     C54443   9.115   0.356   2.371 -0.4649 -0.0971 -0.3012
  413MOL0     C54444   8.995   0.292   2.445 -1.4644 -0.1417 -0.1978
  413MOL0     C54445   8.909   0.214   2.348 -0.2099 -0.1850 -0.4809
  413MOL0     C54446   8.794   0.139   2.403 -0.3014 -0.0979 -0.3988
  413MOL0     C54447   8.684   0.213   2.456 -0.3913  0.4997 -0.3293
  413MOL0     C54448   8.596   0.275   2.504  1.3195 -1.0878 -0.1865
  413MOL0     C54449   9.360   0.606   2.464  0.3949  0.5888 -0.8091
  413MOL0     C54450   9.499   0.630   2.454 -0.0141 -0.3955  0.1295
  413MOL0     H54451   9.977   0.589   2.595 -1.6220  0.1829 -0.9336
  413MOL0     H54452  10.197   0.615   2.609 -0.9830  0.9865 -0.9886
  413MOL0     H54453  10.383   0.460   2.672 -0.8325  0.3294 -0.4556
  413MOL0     H54454  10.418   0.616   2.589  1.6683  0.4984  0.9700
  413MOL0     H54455  10.629   0.533   2.691  1.0121  2.7322 -1.5757
  413MOL0     H54456  10.642   0.545   2.523 -0.2533 -0.3952 -0.5752
  413MOL0     H54457  10.538   0.288   2.545 -1.1402  1.5467  1.2190
  413MOL0     H54458  10.604   0.300   2.703 -0.1689 -1.1564  0.0852
  413MOL0     H54459  10.746   0.259   2.451 -0.1606  1.2624 -1.0003
  413MOL0     H54460  10.802   0.408   2.497 -0.1295  0.5533 -0.0551
  413MOL0     H54461  10.811   0.135   2.646  3.0336 -1.2083 -0.4687
  413MOL0     H54462  10.880   0.289   2.715  0.3920 -1.5929  0.7344
  413MOL0     H54463  11.051   0.303   2.531  1.8091  0.1313  1.6583
  413MOL0     H54464  10.966   0.190   2.439 -0.5775 -1.0436  1.1189
  413MOL0     H54465  11.083   0.104   2.712  0.6716 -0.0038 -0.2280
  413MOL0     H54466  11.007   0.004   2.598 -1.0696  0.5221  1.8831
  413MOL0     H54467  11.173   0.035   2.427  1.1901 -0.2030  0.1111
  413MOL0     H54468  11.236  -0.039   2.568 -0.2291 -0.2700  0.6229
  413MOL0     H54469  11.294   0.287   2.350 -0.5693  1.5420  0.3268
  413MOL0     H54470  11.555   0.466   2.380  2.3579  2.6671  1.3260
  413MOL0     H54471  11.540   0.514   2.554 -3.0980  1.3184  1.5215
  413MOL0     H54472  11.336   0.517   2.336 -0.8029 -2.3747  1.2625
  413MOL0     H54473  11.413   0.665   2.418  0.8826  0.7283  5.8686
  413MOL0     H54474  11.220   0.476   2.547  2.8961 -1.5956 -1.1345
  413MOL0     H54475  11.321   0.588   2.638  1.2776  0.3865 -1.3041
  413MOL0     H54476  11.132   0.679   2.416  1.8116 -3.6168 -0.4792
  413MOL0     H54477  11.216   0.779   2.543 -1.1575  1.7497 -1.1610
  413MOL0     H54478  10.997   0.841   2.418  0.6517  0.5139  0.6905
  413MOL0     H54479  10.808   0.980   2.421  3.3325  0.4769  1.0989
  413MOL0     H54480  10.365   1.132   2.479  1.5003 -1.1138 -0.0340
  413MOL0     H54481  10.127   1.152   2.437  0.1215  0.5889  0.1207
  413MOL0     H54482   9.843   0.985   2.732  0.8380 -0.8186 -0.1334
  413MOL0     H54483   9.829   0.854   2.611 -1.6295  0.9916 -0.8029
  413MOL0     H54484   9.677   0.972   2.483 -2.8685  3.6022 -0.8481
  413MOL0     H54485   9.706   1.121   2.573 -0.4189 -0.1087 -1.4798
  413MOL0     H54486   9.568   0.866   2.684 -2.3323 -0.3854 -0.8448
  413MOL0     H54487   9.491   0.994   2.595 -0.1689 -2.2074 -0.3850
  413MOL0     H54488   9.624   1.034   2.872  0.5972 -1.3618 -0.6339
  413MOL0     H54489   9.569   1.174   2.782  2.0093  0.6597  2.5396
  413MOL0     H54490   9.391   0.978   2.909 -0.6693  0.8238 -0.7621
  413MOL0     H54491   9.341   1.049   2.758 -0.5942  4.6874  0.3507
  413MOL0     H54492   9.266   1.198   2.941  1.1911  2.5594  2.3202
  413MOL0     H54493   9.361   1.280   2.838 -2.8584  0.1990 -0.4647
  413MOL0     H54494   9.461   1.169   3.105  0.2476 -1.4774 -1.7614
  413MOL0     H54495   9.565   1.252   2.986  0.0942  1.8176 -1.4016
  413MOL0     H54496   9.319   1.366   3.130 -1.3177  0.3058 -1.2437
  413MOL0     H54497   9.420   1.470   3.034  0.8799  1.1790  2.4157
  413MOL0     H54498  10.035   0.865   2.743  0.2453 -0.2604  0.2246
  413MOL0     H54499  10.277   0.805   2.747 -4.1662 -2.6376 -1.0026
  413MOL0     H54500  10.659   0.778   2.777 -2.1219  0.8653 -1.4583
  413MOL0     H54501  10.865   0.679   2.794 -4.5071 -1.6556 -0.1799
  413MOL0     H54502  10.242   0.347   2.276 -0.1515 -0.6888  0.7506
  413MOL0     H54503  10.005   0.323   2.254  0.6538  1.6566 -0.9010
  413MOL0     H54504   9.618   0.326   2.382  0.0836  1.4058 -0.9904
  413MOL0     H54505   9.384   0.279   2.356  0.5889 -1.1461  5.4636
  413MOL0     H54506   9.174   0.268   2.346  0.3922  0.1508  0.7891
  413MOL0     H54507   9.103   0.416   2.281  0.7485 -0.9053 -1.0244
  413MOL0     H54508   9.037   0.229   2.524 -0.8051  0.6541  0.0952
  413MOL0     H54509   8.929   0.374   2.473 -1.9609  0.3475 -2.5472
  413MOL0     H54510   8.977   0.142   2.301  0.0529 -2.5638  3.1346
  413MOL0     H54511   8.858   0.285   2.282 -1.5758  1.6628  2.3505
  413MOL0     H54512   8.754   0.082   2.318  1.2474 -3.1617  0.7901
  413MOL0     H54513   8.821   0.068   2.482  0.3643  1.0489  0.4254
  413MOL0     H54514   8.513   0.309   2.562  2.0616 -1.2029  0.9615
  413MOL0     H54515   9.295   0.685   2.500 -3.4711 -2.4199 -0.5310
  413MOL0     H54516   9.531   0.732   2.471 -3.1812  0.5161  1.4834
  414MOL0     O54517   9.353   8.361   3.052 -0.3039  0.0260 -0.6695
  414MOL0     C54518   9.345   8.250   3.107 -0.3213 -0.3099 -0.8262
  414MOL0     O54519   9.392   8.128   3.052  0.2690 -0.0281  0.6112
  414MOL0     C54520   9.447   8.148   2.933 -0.1445  0.0534 -0.8430
  414MOL0     C54521   9.369   8.184   2.823  0.6184  0.3173  0.0152
  414MOL0     C54522   9.421   8.180   2.697 -0.8442 -0.4510 -0.7676
  414MOL0     C54523   9.556   8.160   2.671  0.1825 -0.1547 -0.5154
  414MOL0     O54524   9.597   8.169   2.546 -0.2036  0.0594 -0.4529
  414MOL0     C54525   9.723   8.108   2.501 -0.7002  0.3241 -1.2187
  414MOL0     C54526   9.718   8.102   2.353  0.5184 -0.9979  1.0566
  414MOL0     C54527   9.581   8.051   2.291  0.4675  0.1051  0.0783
  414MOL0     C54528   9.529   7.919   2.350 -0.2514  1.2404 -0.4664
  414MOL0     C54529   9.418   7.863   2.259  0.4323 -0.9288 -0.2096
  414MOL0     C54530   9.300   7.963   2.253 -0.2185  0.1333  0.6525
  414MOL0     C54531   9.190   7.882   2.188  0.4696 -0.6799  0.4553
  414MOL0     C54532   9.083   7.983   2.131 -0.4323 -0.2781 -0.2201
  414MOL0     N54533   8.959   7.981   2.214 -1.2508  0.0475  0.1287
  414MOL0     C54534   8.879   7.874   2.245  1.0085  0.8480 -0.5381
  414MOL0     C54535   8.775   7.931   2.314 -0.4096  0.1257 -0.2453
  414MOL0     C54536   8.649   7.851   2.359 -1.2471 -0.8738 -0.5143
  414MOL0     C54537   8.526   7.915   2.292 -0.5151 -0.7412  0.3177
  414MOL0     C54538   8.507   7.879   2.149  0.0468  1.4860  0.6147
  414MOL0     C54539   8.418   7.973   2.069 -0.1483  1.0830  0.4701
  414MOL0     O54540   8.286   7.953   2.120  0.2711 -0.2134  0.3573
  414MOL0     C54541   8.187   7.986   2.040 -0.1616 -1.3292 -0.2030
  414MOL0     C54542   8.068   7.921   2.056  0.4468  1.1032  0.8815
  414MOL0     C54543   7.948   7.959   1.997  0.5563 -0.8118 -0.5638
  414MOL0     C54544   7.937   8.080   1.925 -0.5377 -0.6756 -0.4206
  414MOL0     C54545   7.805   8.124   1.872 -0.4155  0.2481 -0.7552
  414MOL0     O54546   7.810   8.236   1.793  0.0912  0.5990  0.0807
  414MOL0     C54547   7.697   8.283   1.728  0.5319  0.3556 -1.0649
  414MOL0     C54548   7.681   8.420   1.696 -0.4488 -0.3299  0.3060
  414MOL0     C54549   7.559   8.471   1.644 -0.2398  0.6105  0.0577
  414MOL0     C54550   7.463   8.381   1.607  0.7701 -0.2560  0.8156
  414MOL0     O54551   7.353   8.427   1.533 -1.2040 -0.2043 -0.4636
  414MOL0     C54552   7.307   8.562   1.559 -1.3468 -0.4250  0.2934
  414MOL0     C54553   7.177   8.578   1.492 -0.9910 -0.2896  0.3991
  414MOL0     C54554   7.064   8.479   1.521  0.3468 -0.5596 -0.5161
  414MOL0     C54555   6.937   8.520   1.442  0.2763 -0.2635  0.7085
  414MOL0     C54556   6.849   8.384   1.447 -0.0139  0.2484 -0.4455
  414MOL0     C54557   6.698   8.411   1.438 -0.0192  0.2566  0.2194
  414MOL0     C54558   6.660   8.466   1.302 -0.9021  0.0609  0.2932
  414MOL0     C54559   6.661   8.363   1.192  0.3671 -0.2641 -0.3340
  414MOL0    Cl54560   6.585   8.210   1.231  0.4863 -0.1531  0.0663
  414MOL0     C54561   7.477   8.243   1.636 -0.4852 -0.3277 -0.2537
  414MOL0     C54562   7.591   8.190   1.694  0.2999 -0.4866  0.0533
  414MOL0     O54563   7.703   8.080   1.921  0.3937  0.4379 -0.0989
  414MOL0     C54564   8.056   8.153   1.923 -0.0814  0.1404 -0.2329
  414MOL0     C54565   8.181   8.104   1.969 -0.3367  0.5592 -0.2594
  414MOL0     N54566   8.788   8.069   2.311 -0.3860 -0.1029  0.0241
  414MOL0     N54567   8.897   8.090   2.251 -0.5553 -0.3031  0.1495
  414MOL0     C54568   9.647   8.139   2.780  0.2289  0.1601  0.5706
  414MOL0     C54569   9.586   8.145   2.909 -0.8794 -0.6873  0.5062
  414MOL0     C54570   9.275   8.241   3.236 -0.1537 -0.5199  0.0293
  414MOL0     C54571   9.256   8.117   3.299  0.0145 -0.5017  0.4158
  414MOL0     C54572   9.181   8.105   3.419 -0.4715 -0.8491  0.0601
  414MOL0     C54573   9.115   8.217   3.471  0.5586  0.5505  0.2245
  414MOL0     O54574   9.044   8.194   3.586  0.4197 -0.3925  0.1587
  414MOL0     C54575   9.022   8.311   3.668  0.5105  0.6113 -0.1299
  414MOL0     C54576   8.951   8.256   3.784  0.1541  0.1031  0.7928
  414MOL0     C54577   8.949   8.367   3.891 -0.1346 -0.2198  0.3321
  414MOL0     C54578   8.896   8.306   4.020 -0.1343 -0.4411 -0.2991
  414MOL0     C54579   8.763   8.236   4.006  0.6809 -0.7771  0.6667
  414MOL0     C54580   8.666   8.169   3.997 -0.2181  0.2876  0.0921
  414MOL0     C54581   9.123   8.338   3.400  0.2747  0.0723 -1.0049
  414MOL0     C54582   9.203   8.353   3.289 -0.9297  1.1497 -0.2636
  414MOL0     H54583   9.265   8.207   2.844  0.6152  0.8279 -0.5576
  414MOL0     H54584   9.366   8.185   2.604 -1.4390 -3.5238 -0.6977
  414MOL0     H54585   9.735   8.006   2.539 -0.3454  0.3072 -1.3612
  414MOL0     H54586   9.809   8.165   2.539  1.0816 -1.9670 -1.5862
  414MOL0     H54587   9.803   8.043   2.319 -0.9779 -1.5166 -2.2532
  414MOL0     H54588   9.724   8.204   2.314 -4.1061 -1.4141 -1.5364
  414MOL0     H54589   9.594   8.056   2.183  0.4603  2.4583  0.1302
  414MOL0     H54590   9.504   8.126   2.313  2.2202  1.8799  0.3444
  414MOL0     H54591   9.614   7.850   2.349  0.1319  1.7125 -0.9810
  414MOL0     H54592   9.495   7.934   2.453  1.2016  2.3295 -0.1084
  414MOL0     H54593   9.379   7.768   2.297 -0.5799 -1.9300 -3.4563
  414MOL0     H54594   9.458   7.840   2.160  3.7528 -1.1055  1.0219
  414MOL0     H54595   9.322   8.056   2.200  1.4229 -0.4246  0.3072
  414MOL0     H54596   9.263   7.998   2.350  0.8199  1.8228  0.4864
  414MOL0     H54597   9.222   7.824   2.101 -1.3047  2.9733 -3.0125
  414MOL0     H54598   9.157   7.814   2.267  1.8212 -0.8371  0.8916
  414MOL0     H54599   9.051   7.956   2.030 -1.6920 -2.2985  0.6684
  414MOL0     H54600   9.139   8.077   2.132  0.3245 -0.5212  4.6822
  414MOL0     H54601   8.895   7.768   2.225 -0.4932  0.5893 -0.4680
  414MOL0     H54602   8.639   7.872   2.465 -1.2956 -0.9274 -0.5078
  414MOL0     H54603   8.652   7.743   2.338  1.2038 -0.6988 -1.4277
  414MOL0     H54604   8.529   8.024   2.301 -3.0617 -0.2897 -2.6308
  414MOL0     H54605   8.431   7.890   2.340 -0.7486 -1.2723 -0.4088
  414MOL0     H54606   8.603   7.885   2.097  0.0679  1.4331  0.6487
  414MOL0     H54607   8.471   7.776   2.141  4.2297 -0.1718  0.8880
  414MOL0     H54608   8.421   7.943   1.964 -0.2822  2.8593 -0.0839
  414MOL0     H54609   8.459   8.074   2.078  4.1261 -0.5496  1.3699
  414MOL0     H54610   8.053   7.836   2.121 -1.3491 -0.1007 -1.0197
  414MOL0     H54611   7.860   7.903   2.026  1.3849 -1.4413  0.8167
  414MOL0     H54612   7.771   8.475   1.721  0.5568 -2.3984  1.4863
  414MOL0     H54613   7.554   8.579   1.635  2.9613  0.8021 -0.5263
  414MOL0     H54614   7.379   8.635   1.522 -0.4431 -1.1349  0.6162
  414MOL0     H54615   7.292   8.583   1.666 -1.3852  0.5731  0.0989
  414MOL0     H54616   7.193   8.580   1.384 -4.7866  1.2181 -0.3039
  414MOL0     H54617   7.144   8.678   1.520 -0.8557 -0.0313 -0.3463
  414MOL0     H54618   7.044   8.469   1.628  1.0609  0.1419 -0.3044
  414MOL0     H54619   7.098   8.382   1.483  1.0227 -1.3546  1.9276
  414MOL0     H54620   6.898   8.603   1.502 -0.0551 -2.0549  3.0959
  414MOL0     H54621   6.958   8.566   1.345  0.3296  2.7004  2.0301
  414MOL0     H54622   6.869   8.337   1.544  1.2253  2.9723  0.7278
  414MOL0     H54623   6.895   8.328   1.365 -1.1319  0.3900 -1.1889
  414MOL0     H54624   6.668   8.488   1.510  4.0821  3.5644 -1.2166
  414MOL0     H54625   6.656   8.312   1.460 -0.7684  0.6174  0.4499
  414MOL0     H54626   6.560   8.509   1.317 -1.3279 -0.5184 -0.7869
  414MOL0     H54627   6.724   8.548   1.268  0.8159 -1.6633 -0.8295
  414MOL0     H54628   6.765   8.348   1.161  0.4895  1.4577 -0.8581
  414MOL0     H54629   6.604   8.401   1.107 -0.4094 -0.7110 -0.0186
  414MOL0     H54630   7.399   8.173   1.608 -1.1325  0.6766 -1.0084
  414MOL0     H54631   7.601   8.084   1.713  0.5042 -0.5593 -0.4348
  414MOL0     H54632   8.062   8.248   1.872  1.8232 -0.5511 -1.4028
  414MOL0     H54633   8.264   8.171   1.953 -1.1859  1.5608 -0.6241
  414MOL0     H54634   9.754   8.122   2.768  0.2995  0.2330  1.0556
  414MOL0     H54635   9.648   8.129   2.997  1.5459 -0.0407 -0.9913
  414MOL0     H54636   9.312   8.041   3.247 -0.2977  0.6744 -1.7428
  414MOL0     H54637   9.185   8.006   3.464  0.1006 -0.1673  1.5932
  414MOL0     H54638   8.952   8.385   3.630 -1.4263 -1.1619 -0.2263
  414MOL0     H54639   9.110   8.367   3.702  1.8473 -0.7219 -1.2240
  414MOL0     H54640   8.845   8.235   3.764  0.4371 -1.3017  0.6853
  414MOL0     H54641   9.003   8.168   3.824  1.1615  0.8142  1.0902
  414MOL0     H54642   8.881   8.451   3.876 -0.6048 -0.1428  2.5749
  414MOL0     H54643   9.049   8.410   3.903 -0.2760  0.6078 -1.1844
  414MOL0     H54644   8.974   8.248   4.069 -0.1674 -0.2957 -0.0770
  414MOL0     H54645   8.881   8.392   4.086 -1.5122 -0.8216 -0.0712
  414MOL0     H54646   8.575   8.113   3.993  0.8265 -1.5165  0.1682
  414MOL0     H54647   9.079   8.432   3.430 -2.1009 -0.6549 -1.9461
  414MOL0     H54648   9.226   8.453   3.256 -2.8426  1.7323  0.0766
  415MOL0     O54649  11.151   5.240   0.943 -0.3428 -0.4901 -0.0352
  415MOL0     C54650  11.223   5.176   0.867 -0.1945  0.5142 -0.3207
  415MOL0     O54651  11.172   5.084   0.769  0.4647  0.1186 -0.2151
  415MOL0     C54652  11.045   5.040   0.762  0.2895 -0.5794  0.1785
  415MOL0     C54653  10.945   5.034   0.863 -0.8406  0.4160 -0.6442
  415MOL0     C54654  10.817   4.979   0.826 -0.5265 -0.6460  0.2935
  415MOL0     C54655  10.785   4.949   0.693  0.0772  0.0567 -0.1568
  415MOL0     O54656  10.654   4.919   0.662 -0.7613  0.4994 -0.2761
  415MOL0     C54657  10.603   4.955   0.534  0.8077 -1.0610 -0.4729
  415MOL0     C54658  10.556   5.096   0.495 -0.0024  0.7160  0.5102
  415MOL0     C54659  10.469   5.101   0.365 -0.0200  0.2670  0.3633
  415MOL0     C54660  10.350   5.004   0.352  0.0297 -0.7254  0.6574
  415MOL0     C54661  10.289   5.013   0.208 -1.0000 -1.0401 -0.6491
  415MOL0     C54662  10.211   4.891   0.168 -0.2460 -0.7801  0.6416
  415MOL0     C54663  10.112   4.857   0.274  0.9128  0.1140 -0.3859
  415MOL0     C54664  10.025   4.732   0.243 -0.0611  0.1195  0.1525
  415MOL0     N54665   9.893   4.768   0.182 -0.8691  0.2522 -0.1361
  415MOL0     C54666   9.791   4.835   0.244  0.3771 -0.0041 -0.0070
  415MOL0     C54667   9.678   4.822   0.159  0.0074 -1.7195  0.2451
  415MOL0     C54668   9.538   4.869   0.192  0.3766  0.1339 -0.2380
  415MOL0     C54669   9.464   4.909   0.060  0.4318 -0.3935 -0.3910
  415MOL0     C54670   9.318   4.956   0.079 -0.4387 -0.4294 -0.9067
  415MOL0     C54671   9.246   5.000  -0.046 -0.1971  0.1882  0.4943
  415MOL0     O54672   9.117   5.056  -0.000  0.3784  0.7741 -0.1899
  415MOL0     C54673   9.026   5.115  -0.089  0.5018 -0.3042 -0.7366
  415MOL0     C54674   9.013   5.100  -0.231 -0.0805  0.4679 -1.3020
  415MOL0     C54675   8.898   5.148  -0.302  1.4258  0.5033 -0.3082
  415MOL0     C54676   8.788   5.192  -0.238 -1.1216 -0.2922  0.5132
  415MOL0     C54677   8.661   5.208  -0.306  1.1453 -0.0242  0.9236
  415MOL0     O54678   8.550   5.256  -0.241  0.1663  0.2288  0.4055
  415MOL0     C54679   8.428   5.233  -0.297 -0.9855 -0.2054 -0.6286
  415MOL0     C54680   8.387   5.118  -0.362  0.0646 -0.0439  0.0607
  415MOL0     C54681   8.252   5.091  -0.396  0.3302  0.3931 -1.0689
  415MOL0     C54682   8.152   5.180  -0.342  0.0503  0.0832 -0.5990
  415MOL0     O54683   8.019   5.159  -0.364  0.3745 -0.4171  0.0734
  415MOL0     C54684   7.984   5.069  -0.465  0.1636  0.5071 -0.4081
  415MOL0     C54685   7.835   5.083  -0.483 -0.1859 -1.0503 -1.2923
  415MOL0     C54686   7.785   4.992  -0.591  0.1548  0.0882  0.3095
  415MOL0     C54687   7.630   5.006  -0.598 -0.0798 -0.6131 -0.0453
  415MOL0     C54688   7.572   4.918  -0.708  0.9194  0.3159 -0.5681
  415MOL0     C54689   7.422   4.947  -0.729  0.3194 -0.4338  0.5175
  415MOL0     C54690   7.374   4.854  -0.850  0.6335  0.1424 -0.7778
  415MOL0     C54691   7.307   4.727  -0.794  0.1354  0.0687 -0.0653
  415MOL0    Cl54692   7.174   4.761  -0.678  0.4290 -0.0626 -0.6217
  415MOL0     C54693   8.190   5.287  -0.261  0.0565 -0.0079  0.7152
  415MOL0     C54694   8.329   5.320  -0.246 -0.1493  0.0312  0.6805
  415MOL0     O54695   8.666   5.188  -0.429  0.2615 -0.2159  0.1529
  415MOL0     C54696   8.799   5.211  -0.099 -0.1815 -0.0761  0.9973
  415MOL0     C54697   8.909   5.165  -0.022  1.2224 -0.3114 -0.7864
  415MOL0     N54698   9.724   4.754   0.054  0.0271  0.1911  0.1586
  415MOL0     N54699   9.850   4.734   0.065  0.4854  0.1589  0.4895
  415MOL0     C54700  10.879   4.961   0.592  0.4801  0.0652  0.3272
  415MOL0     C54701  11.007   5.007   0.628 -0.5316  0.1873 -0.1399
  415MOL0     C54702  11.366   5.168   0.886 -0.6019  0.0452 -1.2869
  415MOL0     C54703  11.436   5.247   0.976  0.2406  0.0309  0.6798
  415MOL0     C54704  11.577   5.236   1.010 -0.1661 -0.0947  0.3341
  415MOL0     C54705  11.654   5.139   0.945  1.0346 -0.9556  0.2427
  415MOL0     O54706  11.787   5.121   0.968 -0.5083 -0.5077 -0.3305
  415MOL0     C54707  11.849   5.194   1.078 -0.5867 -0.3779  0.0976
  415MOL0     C54708  12.001   5.151   1.072 -0.8948 -0.6911  0.4784
  415MOL0     C54709  12.078   5.183   0.942 -0.5891 -0.2846 -0.0029
  415MOL0     C54710  12.229   5.140   0.950  0.0722 -0.4062 -0.1318
  415MOL0     C54711  12.293   5.202   1.069  0.1740  0.9235  0.4143
  415MOL0     C54712  12.351   5.277   1.149  1.3845  0.3804  1.3605
  415MOL0     C54713  11.589   5.054   0.857  0.1303 -0.6472  0.3091
  415MOL0     C54714  11.449   5.070   0.830  1.4649  0.2321  0.6393
  415MOL0     H54715  10.974   5.059   0.965  0.4880 -0.7510 -0.6962
  415MOL0     H54716  10.734   4.972   0.895 -0.8209  0.5951  0.0972
  415MOL0     H54717  10.511   4.896   0.542 -0.0775  0.3084 -0.1187
  415MOL0     H54718  10.666   4.930   0.449 -0.4527 -0.2900 -1.6904
  415MOL0     H54719  10.647   5.155   0.481  0.0308  0.5206 -0.1293
  415MOL0     H54720  10.487   5.141   0.566 -0.1183  1.5202 -0.0954
  415MOL0     H54721  10.539   5.087   0.282  0.6618  1.7253  0.6631
  415MOL0     H54722  10.435   5.205   0.352 -0.1929  0.0453 -1.2483
  415MOL0     H54723  10.382   4.902   0.375  2.2065 -0.4615 -0.8213
  415MOL0     H54724  10.272   5.043   0.418  1.5669  2.9000  0.6139
  415MOL0     H54725  10.374   5.016   0.139 -0.3955 -0.1322  0.1003
  415MOL0     H54726  10.225   5.102   0.201  2.0346  1.2101 -2.5252
  415MOL0     H54727  10.287   4.812   0.163  0.1193 -0.4796  1.3920
  415MOL0     H54728  10.159   4.906   0.072  0.0653 -1.3869  0.3731
  415MOL0     H54729  10.162   4.836   0.369  1.2204  3.3015  0.2651
  415MOL0     H54730  10.040   4.937   0.294 -0.6760 -1.7326  1.9082
  415MOL0     H54731  10.002   4.670   0.330 -0.5586 -1.1211 -0.8328
  415MOL0     H54732  10.079   4.660   0.181 -1.8290 -0.3942 -0.8709
  415MOL0     H54733   9.791   4.877   0.344 -2.3539 -1.3556  0.6520
  415MOL0     H54734   9.551   4.971   0.229 -0.3634  0.5006 -0.9696
  415MOL0     H54735   9.475   4.808   0.257 -1.3582  0.0898 -1.8829
  415MOL0     H54736   9.471   4.835  -0.021 -0.4650 -0.3213 -0.5421
  415MOL0     H54737   9.503   5.004   0.023 -1.2306  1.2312  1.8262
  415MOL0     H54738   9.278   4.862   0.119  1.9584 -0.8565  0.6713
  415MOL0     H54739   9.315   5.038   0.151 -1.0628 -2.7711  1.9074
  415MOL0     H54740   9.222   4.920  -0.117 -4.4562  2.1049 -0.5366
  415MOL0     H54741   9.303   5.083  -0.088  0.6031  0.7486  2.5495
  415MOL0     H54742   9.077   5.042  -0.297 -1.5136 -3.3353  0.3964
  415MOL0     H54743   8.894   5.135  -0.409 -3.3143 -1.2198 -0.1436
  415MOL0     H54744   8.464   5.045  -0.385 -0.1809 -0.2064 -0.2335
  415MOL0     H54745   8.237   5.000  -0.452 -1.4834  0.1940 -0.3518
  415MOL0     H54746   8.004   4.964  -0.439 -3.9592 -0.1696  0.7715
  415MOL0     H54747   8.032   5.096  -0.560  0.3977  0.0502 -0.4263
  415MOL0     H54748   7.802   5.187  -0.493 -0.1473 -1.0495 -1.4195
  415MOL0     H54749   7.797   5.056  -0.385 -1.5354 -1.0429 -1.7895
  415MOL0     H54750   7.824   4.891  -0.578  1.4257  0.5298  0.0516
  415MOL0     H54751   7.824   5.030  -0.686 -1.3342  1.9950  0.3879
  415MOL0     H54752   7.588   4.983  -0.499  2.2214  0.7784  1.3410
  415MOL0     H54753   7.615   5.114  -0.605 -0.9730  0.0107  5.8683
  415MOL0     H54754   7.591   4.818  -0.669  1.9123  1.3159  1.7456
  415MOL0     H54755   7.632   4.935  -0.798  0.2858  0.3317 -0.9933
  415MOL0     H54756   7.408   5.054  -0.748  0.0453 -0.4707  0.5033
  415MOL0     H54757   7.362   4.927  -0.639  1.7476 -0.6802  1.4491
  415MOL0     H54758   7.303   4.905  -0.916 -0.0147 -0.4317 -0.5273
  415MOL0     H54759   7.464   4.827  -0.907  0.6301  0.3491 -0.8828
  415MOL0     H54760   7.389   4.660  -0.766  0.6334  0.8455  0.3772
  415MOL0     H54761   7.254   4.671  -0.872  0.7304  1.8746 -1.8735
  415MOL0     H54762   8.108   5.344  -0.218  0.0075 -1.4314  2.6752
  415MOL0     H54763   8.359   5.411  -0.196 -1.3427  1.0372 -0.3581
  415MOL0     H54764   8.715   5.252  -0.045 -1.5466 -0.3566 -0.7972
  415MOL0     H54765   8.902   5.166   0.086 -1.3441 -2.6300 -0.7854
  415MOL0     H54766  10.885   4.937   0.487  1.4563 -1.5952  0.7302
  415MOL0     H54767  11.086   5.009   0.554  2.0314 -1.3300  2.3361
  415MOL0     H54768  11.373   5.325   1.018  2.4899  1.8936  0.8018
  415MOL0     H54769  11.622   5.304   1.082 -0.8769 -0.8746  1.5385
  415MOL0     H54770  11.812   5.173   1.179  0.7539 -3.7146  0.0126
  415MOL0     H54771  11.845   5.301   1.058  1.0655  0.1211  2.0932
  415MOL0     H54772  12.045   5.201   1.159  0.7382 -0.8310 -0.2337
  415MOL0     H54773  12.026   5.047   1.095  1.4844 -0.2689  0.0509
  415MOL0     H54774  12.077   5.290   0.919  1.3387 -0.1152  0.5120
  415MOL0     H54775  12.029   5.140   0.855 -0.4783  0.5115 -0.4758
  415MOL0     H54776  12.248   5.033   0.964 -0.6794 -0.7030 -1.2582
  415MOL0     H54777  12.289   5.170   0.863  0.4773  1.5924  0.7755
  415MOL0     H54778  12.399   5.345   1.216  0.7691  0.3426  1.8590
  415MOL0     H54779  11.640   4.971   0.810  3.6124  0.8095  1.2558
  415MOL0     H54780  11.403   4.993   0.771  2.4172 -0.2752  0.5327
  416MOL0     O54781   9.075   9.544   0.779 -0.5457 -0.7362 -0.3860
  416MOL0     C54782   9.155   9.603   0.707 -0.6969  0.7882  0.7200
  416MOL0     O54783   9.129   9.660   0.590  0.5912 -0.6462  0.7395
  416MOL0     C54784   9.007   9.636   0.529 -0.7204 -0.5376  1.1182
  416MOL0     C54785   9.009   9.552   0.411  0.2881  0.4375 -0.4332
  416MOL0     C54786   8.902   9.546   0.323  1.2647 -0.3430  0.0382
  416MOL0     C54787   8.774   9.600   0.363 -0.3529 -0.3026 -0.3582
  416MOL0     O54788   8.657   9.599   0.296  0.3316  0.6324  0.3373
  416MOL0     C54789   8.651   9.513   0.182 -0.7066  0.0171 -0.1250
  416MOL0     C54790   8.515   9.490   0.121 -0.1838 -0.1762 -0.4449
  416MOL0     C54791   8.527   9.468  -0.026 -1.1453  1.1841  0.0363
  416MOL0     C54792   8.392   9.436  -0.092 -0.6564  0.0504  0.0050
  416MOL0     C54793   8.435   9.400  -0.241 -1.0395  0.4137  0.2440
  416MOL0     C54794   8.315   9.380  -0.341  0.2300 -0.7515 -0.0667
  416MOL0     C54795   8.359   9.339  -0.480 -0.4474 -0.3148 -0.3516
  416MOL0     C54796   8.234   9.313  -0.574 -0.5151 -0.3289 -0.0435
  416MOL0     N54797   8.242   9.360  -0.715  0.3242 -0.4777 -0.5472
  416MOL0     C54798   8.200   9.295  -0.833 -0.0345  0.3349 -0.5077
  416MOL0     C54799   8.210   9.383  -0.939  0.1237  0.5576 -1.0302
  416MOL0     C54800   8.183   9.343  -1.084  1.0783  0.8907 -0.8034
  416MOL0     C54801   8.110   9.455  -1.157 -0.9262 -0.0438 -0.2404
  416MOL0     C54802   8.030   9.395  -1.277 -0.4049 -1.1938  0.7447
  416MOL0     C54803   7.930   9.489  -1.338  0.6453 -0.1886  0.3704
  416MOL0     O54804   7.851   9.428  -1.445 -0.3666 -0.3926  0.0753
  416MOL0     C54805   7.717   9.461  -1.444  0.4477  0.5564 -0.1928
  416MOL0     C54806   7.648   9.509  -1.556  0.5915 -0.3792 -0.7477
  416MOL0     C54807   7.507   9.542  -1.551  0.5027  0.9650 -0.3825
  416MOL0     C54808   7.427   9.525  -1.436 -0.2071 -0.8933  0.1976
  416MOL0     C54809   7.284   9.545  -1.421  0.5283 -0.3346 -0.2154
  416MOL0     O54810   7.213   9.481  -1.321  0.1927 -0.5701 -0.6622
  416MOL0     C54811   7.079   9.498  -1.298 -0.0792  0.1203 -0.0722
  416MOL0     C54812   6.993   9.602  -1.346  0.3955  0.8723  1.0167
  416MOL0     C54813   6.853   9.604  -1.316 -0.7635 -1.1611  0.4444
  416MOL0     C54814   6.798   9.511  -1.224  0.4047  0.0915  0.7785
  416MOL0     O54815   6.663   9.521  -1.205  1.5220  0.4025  0.5943
  416MOL0     C54816   6.610   9.475  -1.083 -0.3394  0.6254  0.2193
  416MOL0     C54817   6.468   9.543  -1.062  1.1222  0.6146  0.4623
  416MOL0     C54818   6.359   9.458  -1.126  0.4129 -0.2834  0.1222
  416MOL0     C54819   6.227   9.531  -1.123  0.3644 -0.1539 -0.4172
  416MOL0     C54820   6.108   9.443  -1.174  0.1702  0.0689  0.2183
  416MOL0     C54821   5.976   9.502  -1.236 -0.2731  0.5691 -0.1234
  416MOL0     C54822   5.982   9.608  -1.355 -0.1806  0.1907 -0.0921
  416MOL0     C54823   5.843   9.643  -1.413 -0.1019 -0.4622 -0.5084
  416MOL0    Cl54824   5.733   9.704  -1.286 -0.3099  0.4594  0.4154
  416MOL0     C54825   6.887   9.410  -1.173  0.5463  0.1568  0.4948
  416MOL0     C54826   7.027   9.407  -1.200  0.1880  0.3094  0.3165
  416MOL0     O54827   7.236   9.620  -1.506 -0.4192 -0.6322 -0.2516
  416MOL0     C54828   7.497   9.475  -1.329 -0.3028 -0.3850 -0.8167
  416MOL0     C54829   7.629   9.436  -1.331  0.0019 -0.5379 -0.0135
  416MOL0     N54830   8.249   9.500  -0.877  0.2643  0.5603  0.4398
  416MOL0     N54831   8.261   9.492  -0.751  0.8766 -0.1264  0.2423
  416MOL0     C54832   8.769   9.667   0.485  0.9935 -0.8269 -0.0053
  416MOL0     C54833   8.886   9.704   0.553 -0.6472  0.9324  0.2348
  416MOL0     C54834   9.296   9.606   0.754 -0.1497  0.1715  0.5129
  416MOL0     C54835   9.392   9.655   0.663 -0.3702  0.2505  0.3143
  416MOL0     C54836   9.531   9.661   0.697 -0.0689  0.0027 -0.4604
  416MOL0     C54837   9.572   9.618   0.821 -0.5847  0.4980  0.2954
  416MOL0     O54838   9.710   9.617   0.830 -0.5226  0.4028  0.3672
  416MOL0     C54839   9.759   9.575   0.957 -0.5855 -0.6609 -0.1837
  416MOL0     C54840   9.913   9.547   0.975  0.7042  1.2916  0.4330
  416MOL0     C54841   9.957   9.461   0.864  0.3024  0.4185 -0.6412
  416MOL0     C54842  10.104   9.422   0.861 -1.1093  1.5975 -0.0777
  416MOL0     C54843  10.180   9.535   0.811  0.1452  0.1236 -0.4564
  416MOL0     C54844  10.227   9.637   0.778 -0.4664 -0.3245 -0.2356
  416MOL0     C54845   9.476   9.565   0.913  0.4016 -0.1004 -0.1716
  416MOL0     C54846   9.340   9.571   0.885  0.0585 -0.5966 -0.6670
  416MOL0     H54847   9.091   9.485   0.389 -0.5128 -0.5367 -0.5074
  416MOL0     H54848   8.904   9.481   0.236 -2.8518 -1.6121  0.6941
  416MOL0     H54849   8.696   9.414   0.191 -2.1838 -0.9041 -2.0683
  416MOL0     H54850   8.708   9.557   0.100 -0.0553 -2.8140 -1.3155
  416MOL0     H54851   8.450   9.574   0.148 -0.7822 -1.1510  1.3191
  416MOL0     H54852   8.452   9.409   0.161 -0.8225  0.5188 -0.0199
  416MOL0     H54853   8.593   9.382  -0.040 -2.8192 -0.0705 -0.4597
  416MOL0     H54854   8.569   9.551  -0.083 -2.5324 -0.1148 -3.1033
  416MOL0     H54855   8.367   9.343  -0.040  0.1890  0.2745  0.8469
  416MOL0     H54856   8.325   9.523  -0.089 -0.4082  0.2847 -1.0571
  416MOL0     H54857   8.495   9.311  -0.222 -0.4042  0.6693 -0.5323
  416MOL0     H54858   8.502   9.473  -0.286 -0.5144  0.4594  1.0820
  416MOL0     H54859   8.271   9.477  -0.364 -1.0688 -1.2111  0.3694
  416MOL0     H54860   8.233   9.318  -0.304 -2.3091  0.1106 -3.7337
  416MOL0     H54861   8.421   9.416  -0.527  0.7941 -1.4013 -0.5592
  416MOL0     H54862   8.415   9.246  -0.467 -0.9087 -0.6596 -0.7967
  416MOL0     H54863   8.153   9.370  -0.528 -0.8626 -2.5986  2.3910
  416MOL0     H54864   8.214   9.206  -0.568  0.0739 -0.4557 -0.2374
  416MOL0     H54865   8.159   9.195  -0.832  0.6356  0.0480 -0.7058
  416MOL0     H54866   8.140   9.244  -1.098  1.8114  0.9215 -4.2973
  416MOL0     H54867   8.283   9.322  -1.124  0.8588  2.4010 -2.2499
  416MOL0     H54868   8.181   9.531  -1.192 -3.1745  2.0238 -0.6282
  416MOL0     H54869   8.029   9.491  -1.092 -3.2338 -3.0089 -1.2705
  416MOL0     H54870   8.087   9.355  -1.362 -3.8348 -1.6777 -1.5280
  416MOL0     H54871   7.967   9.315  -1.236 -2.4630 -1.2083 -2.1382
  416MOL0     H54872   7.990   9.572  -1.377  3.4762 -0.4966  3.6106
  416MOL0     H54873   7.869   9.527  -1.255  1.5930  0.7410  0.6537
  416MOL0     H54874   7.705   9.524  -1.647  0.8442 -2.6101 -1.0128
  416MOL0     H54875   7.454   9.569  -1.641 -1.9429 -0.5532  0.5062
  416MOL0     H54876   7.037   9.671  -1.417  1.6722 -0.3938  0.5247
  416MOL0     H54877   6.789   9.670  -1.373 -1.2700  1.8958  4.1423
  416MOL0     H54878   6.684   9.502  -1.007 -0.5664  4.6517 -0.7721
  416MOL0     H54879   6.599   9.367  -1.085  1.3305  0.2115  3.9633
  416MOL0     H54880   6.470   9.642  -1.108  3.6843  0.9793  1.1747
  416MOL0     H54881   6.454   9.557  -0.955  1.0653  1.5675  0.3361
  416MOL0     H54882   6.344   9.368  -1.066  3.4814 -0.7524  0.3066
  416MOL0     H54883   6.388   9.411  -1.220 -1.2957 -1.0942 -0.0396
  416MOL0     H54884   6.205   9.576  -1.026 -0.2656  1.9628 -1.4680
  416MOL0     H54885   6.235   9.615  -1.192  3.0287  0.5142  0.6232
  416MOL0     H54886   6.083   9.374  -1.093  1.4613  0.6081  1.1064
  416MOL0     H54887   6.149   9.387  -1.259  1.8465  2.2606 -0.5254
  416MOL0     H54888   5.911   9.538  -1.155  0.2200 -0.9633  1.0060
  416MOL0     H54889   5.928   9.414  -1.281  0.4735  0.0650  0.0603
  416MOL0     H54890   6.020   9.706  -1.325 -0.1989 -0.2688  1.4887
  416MOL0     H54891   6.036   9.564  -1.439  1.3737  1.9959 -0.0971
  416MOL0     H54892   5.811   9.552  -1.465  0.6175 -1.4404  0.7103
  416MOL0     H54893   5.854   9.720  -1.490  2.3843  1.1057  1.2872
  416MOL0     H54894   6.846   9.338  -1.103 -4.0058  0.9282 -1.0741
  416MOL0     H54895   7.087   9.324  -1.164  2.7696  1.4488 -1.1199
  416MOL0     H54896   7.447   9.440  -1.239  0.4300 -2.3107 -1.1000
  416MOL0     H54897   7.664   9.382  -1.243 -2.2516 -2.5892 -0.2548
  416MOL0     H54898   8.670   9.709   0.503  0.1683 -0.1800 -4.8880
  416MOL0     H54899   8.877   9.768   0.640 -0.1080 -0.4602  1.3607
  416MOL0     H54900   9.366   9.679   0.561  0.0994  1.5953  0.4830
  416MOL0     H54901   9.606   9.701   0.629  0.8339  2.4465  1.7993
  416MOL0     H54902   9.704   9.484   0.984 -0.8734 -0.4213  0.0483
  416MOL0     H54903   9.740   9.661   1.022  2.3703 -0.0251 -0.0292
  416MOL0     H54904   9.979   9.634   0.983 -0.6766  2.6429 -1.9292
  416MOL0     H54905   9.924   9.490   1.068  0.3498 -0.1019 -0.3432
  416MOL0     H54906   9.927   9.497   0.765  0.1096 -0.3212 -0.8632
  416MOL0     H54907   9.898   9.373   0.892  1.4637  1.0037  4.5920
  416MOL0     H54908  10.124   9.405   0.967  0.0091 -0.7327 -0.5913
  416MOL0     H54909  10.125   9.330   0.805 -4.1858  0.1788  0.8717
  416MOL0     H54910  10.259   9.734   0.744  0.4657 -2.1010 -5.2960
  416MOL0     H54911   9.505   9.538   1.014 -2.2452 -0.9522  0.4325
  416MOL0     H54912   9.276   9.558   0.972 -1.6997  0.4124 -1.7471
  417MOL0     O54913   8.567   1.398   2.832 -0.6180  0.3692  0.2276
  417MOL0     C54914   8.572   1.496   2.905 -0.3521  0.1271 -0.4501
  417MOL0     O54915   8.473   1.579   2.952  0.2453  0.5037  0.0582
  417MOL0     C54916   8.349   1.555   2.900 -0.0039  0.6679  1.1551
  417MOL0     C54917   8.298   1.428   2.908  0.4403 -0.3202  0.4769
  417MOL0     C54918   8.169   1.402   2.854 -0.7929 -0.0297 -0.1173
  417MOL0     C54919   8.082   1.509   2.814 -0.1820 -0.6196  0.1850
  417MOL0     O54920   7.954   1.485   2.776  0.7324  0.7706  0.1263
  417MOL0     C54921   7.885   1.360   2.802 -0.2522 -0.5507 -0.5181
  417MOL0     C54922   7.741   1.364   2.740  0.1426 -0.3966  0.1614
  417MOL0     C54923   7.636   1.440   2.821  0.6031 -0.8119 -0.7742
  417MOL0     C54924   7.492   1.391   2.797 -0.1549  0.3812  0.4886
  417MOL0     C54925   7.388   1.489   2.853  0.2000  0.1700 -0.5814
  417MOL0     C54926   7.245   1.447   2.811  0.3147  0.0185  0.8198
  417MOL0     C54927   7.137   1.508   2.900 -0.6220  0.3138  0.1074
  417MOL0     C54928   7.140   1.657   2.934 -1.1337 -0.2720  0.5649
  417MOL0     N54929   7.035   1.692   3.036 -0.1021 -0.2451  0.1623
  417MOL0     C54930   6.905   1.716   3.006  0.6916  0.4234 -0.1513
  417MOL0     C54931   6.839   1.757   3.119  0.1505  0.2744  0.8599
  417MOL0     C54932   6.696   1.784   3.147 -0.2781  1.0283 -1.2292
  417MOL0     C54933   6.651   1.901   3.066  0.5837 -0.6463 -0.5276
  417MOL0     C54934   6.650   2.032   3.151 -0.3345  0.0349 -1.2110
  417MOL0     C54935   6.616   2.152   3.071  0.0397  0.0790 -0.1990
  417MOL0     O54936   6.507   2.133   2.970 -0.2025 -0.6397 -0.5995
  417MOL0     C54937   6.381   2.141   3.017  0.3181 -0.4801 -0.7059
  417MOL0     C54938   6.293   2.096   2.920 -0.7609  1.0656 -0.0091
  417MOL0     C54939   6.157   2.099   2.937  0.4160 -0.2482 -0.6075
  417MOL0     C54940   6.106   2.125   3.063  0.5358 -0.6616  0.4596
  417MOL0     C54941   5.962   2.112   3.077 -0.0102 -0.4833 -0.3769
  417MOL0     O54942   5.884   2.072   2.968 -0.1240  0.2428 -0.4225
  417MOL0     C54943   5.747   2.057   2.980  0.6644 -0.5108 -1.1561
  417MOL0     C54944   5.655   2.096   2.870 -0.6814  0.1609  0.5291
  417MOL0     C54945   5.524   2.073   2.882  0.0694 -0.4425 -0.0159
  417MOL0     C54946   5.457   2.022   2.996 -0.8932 -0.0446 -0.0313
  417MOL0     O54947   5.325   1.994   3.011 -0.4396 -0.4519 -0.0836
  417MOL0     C54948   5.237   2.012   2.902 -0.0513  0.3458 -0.3278
  417MOL0     C54949   5.092   1.981   2.959 -0.2680  0.5459 -0.2796
  417MOL0     C54950   4.991   1.965   2.853 -0.5141  0.1080  0.3662
  417MOL0     C54951   4.852   1.922   2.912  0.0358  0.3197 -0.6333
  417MOL0     C54952   4.735   1.869   2.825  1.5506  0.3924 -0.0982
  417MOL0     C54953   4.616   1.834   2.912 -0.6857 -0.3067 -1.0274
  417MOL0     C54954   4.498   1.796   2.816  0.0379  0.9633 -0.3055
  417MOL0     C54955   4.365   1.794   2.888 -0.2555 -0.6692  0.0428
  417MOL0    Cl54956   4.334   1.955   2.977  0.2435 -0.0645  0.4787
  417MOL0     C54957   5.551   1.989   3.098 -0.0021  0.4054  0.7991
  417MOL0     C54958   5.687   1.991   3.091  0.0428  0.6040  0.0232
  417MOL0     O54959   5.920   2.130   3.191 -0.8971 -0.1337 -0.3241
  417MOL0     C54960   6.190   2.173   3.159 -0.2247  0.3032  0.1768
  417MOL0     C54961   6.332   2.192   3.142 -0.1123  1.1638 -0.2535
  417MOL0     N54962   6.936   1.777   3.216 -0.3299  0.7557  0.1675
  417MOL0     N54963   7.050   1.741   3.165  0.7006  0.1275  0.1144
  417MOL0     C54964   8.132   1.640   2.815 -0.3226  0.4553 -0.0279
  417MOL0     C54965   8.266   1.664   2.855 -0.2679  0.9485  0.5561
  417MOL0     C54966   8.709   1.508   2.960 -0.1332 -0.3198  0.4092
  417MOL0     C54967   8.819   1.425   2.934 -0.4989 -0.1155  0.2767
  417MOL0     C54968   8.947   1.443   2.979 -0.0332  0.4753  0.2046
  417MOL0     C54969   8.978   1.560   3.057 -0.0454  0.2218 -0.8018
  417MOL0     O54970   9.111   1.570   3.083 -0.1553  0.6692 -0.1602
  417MOL0     C54971   9.150   1.686   3.157 -0.2738 -0.5789  0.1024
  417MOL0     C54972   9.299   1.678   3.175 -0.2865  0.0527  0.3417
  417MOL0     C54973   9.377   1.769   3.260 -0.0649 -0.4789 -0.3829
  417MOL0     C54974   9.521   1.731   3.257  0.7351 -0.6818  0.3146
  417MOL0     C54975   9.585   1.734   3.125  0.8058  0.6419 -0.0634
  417MOL0     C54976   9.640   1.721   3.014  0.3901  0.3022  0.4567
  417MOL0     C54977   8.870   1.644   3.093  0.0858 -0.0475 -0.4685
  417MOL0     C54978   8.740   1.618   3.044  0.9092  0.3250 -0.3100
  417MOL0     H54979   8.356   1.345   2.948  4.5668  2.6498  1.3312
  417MOL0     H54980   8.128   1.303   2.869 -0.8154 -0.1477 -0.9113
  417MOL0     H54981   7.877   1.344   2.910 -1.5057 -3.5359 -0.9624
  417MOL0     H54982   7.939   1.275   2.760  0.4123 -0.5704  0.3429
  417MOL0     H54983   7.701   1.262   2.743 -0.6915 -0.1225 -0.8785
  417MOL0     H54984   7.751   1.397   2.636 -0.3401  0.2912  0.3221
  417MOL0     H54985   7.636   1.548   2.808 -1.5272 -0.3626  1.8950
  417MOL0     H54986   7.656   1.428   2.928  1.2278 -1.9271 -0.9973
  417MOL0     H54987   7.482   1.376   2.689  1.4768  2.1986  0.0394
  417MOL0     H54988   7.478   1.292   2.842  2.2943 -0.7326 -1.0161
  417MOL0     H54989   7.419   1.590   2.825 -0.2096  0.3061 -0.5538
  417MOL0     H54990   7.400   1.476   2.961 -1.9078  1.8062 -0.0787
  417MOL0     H54991   7.244   1.339   2.828  2.0514  0.0186  1.1137
  417MOL0     H54992   7.222   1.475   2.708  0.1217  1.2121  1.1629
  417MOL0     H54993   7.038   1.484   2.858 -1.3763  0.6115  1.6432
  417MOL0     H54994   7.139   1.449   2.992  3.9963 -0.7095 -0.4051
  417MOL0     H54995   7.124   1.723   2.849  1.4238 -0.1823  0.0627
  417MOL0     H54996   7.241   1.686   2.965 -0.3409  1.1340 -2.9048
  417MOL0     H54997   6.849   1.701   2.914  0.2705  3.0782 -0.4167
  417MOL0     H54998   6.677   1.797   3.254  0.3032 -4.4062 -0.2084
  417MOL0     H54999   6.632   1.705   3.108 -2.0666  2.8670 -2.2341
  417MOL0     H55000   6.546   1.893   3.034 -0.6251  1.4899  2.4201
  417MOL0     H55001   6.712   1.924   2.979 -0.0971  0.6864 -0.6806
  417MOL0     H55002   6.580   2.034   3.235  1.2117 -0.3266  0.1307
  417MOL0     H55003   6.753   2.032   3.187 -0.7789 -0.0739  0.1086
  417MOL0     H55004   6.709   2.170   3.017  0.7046 -2.1086  0.1505
  417MOL0     H55005   6.592   2.235   3.138 -1.0255  1.4508 -2.1840
  417MOL0     H55006   6.339   2.055   2.831 -1.5899 -0.2827  0.1562
  417MOL0     H55007   6.105   2.068   2.847 -0.0408  0.4658 -0.5987
  417MOL0     H55008   5.711   2.142   2.790  0.3669  1.3643  1.9033
  417MOL0     H55009   5.477   2.115   2.794  3.2476 -1.0510 -2.1949
  417MOL0     H55010   5.263   1.948   2.818 -1.5123 -0.6937 -0.0356
  417MOL0     H55011   5.240   2.114   2.863 -0.4178  0.0170 -1.2382
  417MOL0     H55012   5.053   2.055   3.030 -0.3507 -0.5811  0.9001
  417MOL0     H55013   5.116   1.882   3.000  1.6858 -0.6115 -3.8185
  417MOL0     H55014   5.020   1.887   2.782  0.6108  3.1094 -2.8073
  417MOL0     H55015   4.985   2.051   2.785  0.8567  1.1926  1.5427
  417MOL0     H55016   4.870   1.846   2.988  0.9131  0.0995 -1.0575
  417MOL0     H55017   4.819   2.007   2.973 -0.4573 -1.5836  1.8797
  417MOL0     H55018   4.760   1.780   2.767 -3.9245 -0.4366 -1.8424
  417MOL0     H55019   4.721   1.951   2.753  2.0330 -1.2014 -2.0961
  417MOL0     H55020   4.593   1.923   2.972 -0.8109  0.2505 -1.8750
  417MOL0     H55021   4.651   1.758   2.982  0.7819  0.4080 -0.9468
  417MOL0     H55022   4.471   1.877   2.748 -3.8374  1.2700  1.3471
  417MOL0     H55023   4.515   1.698   2.769 -0.2332 -0.7525  2.9136
  417MOL0     H55024   4.374   1.720   2.968  2.5675 -0.6855 -0.2092
  417MOL0     H55025   4.281   1.768   2.823 -2.2998  2.6407  1.1020
  417MOL0     H55026   5.505   1.935   3.179 -1.6034  0.7214  0.1435
  417MOL0     H55027   5.746   1.947   3.171  0.1915  0.0674 -0.3746
  417MOL0     H55028   6.164   2.194   3.262 -2.2367  0.9047 -0.3985
  417MOL0     H55029   6.380   2.220   3.235  0.3245  2.5041 -0.8621
  417MOL0     H55030   8.062   1.720   2.792 -0.8257 -0.8877 -3.7684
  417MOL0     H55031   8.303   1.765   2.855  1.4966  0.4396 -2.4656
  417MOL0     H55032   8.798   1.336   2.874 -1.2894  0.9143 -1.0405
  417MOL0     H55033   9.022   1.369   2.953 -1.3848 -0.6132 -0.7309
  417MOL0     H55034   9.101   1.708   3.253  1.1792  1.9664  0.3194
  417MOL0     H55035   9.138   1.769   3.087  2.4941 -0.2099 -0.0421
  417MOL0     H55036   9.324   1.580   3.217 -1.6679  0.2042  1.5898
  417MOL0     H55037   9.337   1.687   3.073  0.7285 -0.1172  0.6923
  417MOL0     H55038   9.338   1.769   3.363  0.3082  1.9427 -0.1947
  417MOL0     H55039   9.360   1.873   3.231  4.1574  0.4870 -0.0286
  417MOL0     H55040   9.577   1.810   3.308  3.0103 -2.8971  1.5214
  417MOL0     H55041   9.542   1.636   3.309 -1.2006 -1.2012  0.2106
  417MOL0     H55042   9.679   1.714   2.915 -1.5355 -2.2574 -0.2381
  417MOL0     H55043   8.890   1.735   3.150  2.2149 -1.6564  1.5054
  417MOL0     H55044   8.667   1.691   3.078  2.4166  0.8582  2.0146
  418MOL0     O55045   0.558   3.077   2.272  0.1415  0.2338 -0.7617
  418MOL0     C55046   0.522   3.193   2.277  0.1291 -0.5389 -0.1811
  418MOL0     O55047   0.583   3.293   2.348 -0.7350 -0.5185  0.0685
  418MOL0     C55048   0.668   3.274   2.458  1.0679  0.3310  0.5785
  418MOL0     C55049   0.743   3.167   2.495  1.1846 -0.3301  0.1173
  418MOL0     C55050   0.820   3.162   2.618 -0.0439  0.3113 -0.7346
  418MOL0     C55051   0.818   3.267   2.709 -0.3790 -0.5409  0.3139
  418MOL0     O55052   0.902   3.270   2.819 -0.3117  0.8567  0.0308
  418MOL0     C55053   0.944   3.147   2.883  0.1669 -0.6613  0.4100
  418MOL0     C55054   1.002   3.172   3.023  1.1776  1.0388  0.3972
  418MOL0     C55055   1.150   3.218   3.032  0.6736  0.4736  0.9364
  418MOL0     C55056   1.220   3.195   3.166 -0.3741 -0.2839 -0.0478
  418MOL0     C55057   1.209   3.315   3.258 -0.4250 -0.8956 -0.5124
  418MOL0     C55058   1.273   3.296   3.395  0.4527 -0.0123  0.8401
  418MOL0     C55059   1.281   3.422   3.467 -0.2321 -0.2266 -0.1822
  418MOL0     C55060   1.149   3.492   3.492 -0.2390  0.6987 -0.1159
  418MOL0     N55061   1.163   3.592   3.601 -0.5748  0.4422 -0.3193
  418MOL0     C55062   1.256   3.692   3.618 -0.7196 -0.1276 -0.1979
  418MOL0     C55063   1.218   3.758   3.732 -0.9380 -0.2349 -0.4132
  418MOL0     C55064   1.282   3.876   3.804 -0.1106  0.0090  0.4912
  418MOL0     C55065   1.433   3.859   3.837 -0.3251 -0.8113  0.2924
  418MOL0     C55066   1.526   3.960   3.757  0.4852 -0.2112  0.1271
  418MOL0     C55067   1.674   3.941   3.794 -0.1256 -0.2046  0.4284
  418MOL0     O55068   1.757   4.033   3.723 -0.2033 -0.1954 -0.4310
  418MOL0     C55069   1.886   4.050   3.770  0.3468 -0.2245  0.0717
  418MOL0     C55070   1.942   3.992   3.891  0.3545 -0.2312  1.1137
  418MOL0     C55071   2.078   4.021   3.926 -0.8087  0.0943 -0.0482
  418MOL0     C55072   2.162   4.100   3.849  0.0709  0.5497 -0.7970
  418MOL0     C55073   2.308   4.117   3.879  0.3648  0.3741  0.1502
  418MOL0     O55074   2.374   4.221   3.817 -0.6073 -0.8994  0.8713
  418MOL0     C55075   2.512   4.242   3.845  1.3861 -0.0759  0.0478
  418MOL0     C55076   2.583   4.187   3.950 -0.6113 -0.1376 -0.2816
  418MOL0     C55077   2.721   4.226   3.963  0.7772  0.4205 -0.5746
  418MOL0     C55078   2.785   4.308   3.870 -0.6183 -0.4591  0.5042
  418MOL0     O55079   2.916   4.331   3.865 -0.7430  0.2854 -0.3733
  418MOL0     C55080   3.011   4.234   3.914 -0.3203 -1.3087 -0.9367
  418MOL0     C55081   3.146   4.244   3.837  0.0429 -0.0815 -0.0211
  418MOL0     C55082   3.231   4.126   3.895  0.1610  0.0304  0.2617
  418MOL0     C55083   3.360   4.089   3.813  0.6464  0.6842 -0.4891
  418MOL0     C55084   3.441   4.000   3.916  0.0172 -0.3972  0.5456
  418MOL0     C55085   3.366   3.878   3.962 -0.0665 -0.3655 -0.2573
  418MOL0     C55086   3.330   3.787   3.843 -0.0327 -0.1462 -0.1949
  418MOL0     C55087   3.271   3.656   3.897 -0.3145 -0.1796 -0.2840
  418MOL0    Cl55088   3.088   3.645   3.885 -0.2022  0.3502 -0.4523
  418MOL0     C55089   2.713   4.361   3.763 -0.5105  0.0820 -0.7437
  418MOL0     C55090   2.577   4.326   3.753  0.0570  0.5488 -0.9176
  418MOL0     O55091   2.354   4.027   3.941  0.0902  0.0730 -0.3762
  418MOL0     C55092   2.107   4.153   3.735  0.7090  0.5989  0.1049
  418MOL0     C55093   1.969   4.138   3.711 -0.2819  0.0880  0.3561
  418MOL0     N55094   1.110   3.696   3.784 -0.1078  0.5406 -1.4346
  418MOL0     N55095   1.096   3.581   3.722  0.2569 -0.4089 -0.1433
  418MOL0     C55096   0.742   3.380   2.668  0.0153  0.3261 -0.1520
  418MOL0     C55097   0.676   3.381   2.542  1.1600  0.0011 -0.4317
  418MOL0     C55098   0.393   3.234   2.202 -0.6314  1.7156  0.7097
  418MOL0     C55099   0.370   3.366   2.167  0.6527 -0.3391 -1.3018
  418MOL0     C55100   0.260   3.393   2.094  0.1717  0.3430 -0.2234
  418MOL0     C55101   0.171   3.297   2.045 -0.1599  0.7532  0.4124
  418MOL0     O55102   0.072   3.320   1.948  0.4635  0.1356  0.6780
  418MOL0     C55103   0.093   3.431   1.848 -0.2756  0.3006  0.1259
  418MOL0     C55104   0.020   3.561   1.884 -0.0201  0.0389  0.2589
  418MOL0     C55105  -0.137   3.552   1.885  0.2116 -0.1354 -0.4631
  418MOL0     C55106  -0.200   3.693   1.900 -0.5023  0.3136 -0.7782
  418MOL0     C55107  -0.163   3.784   1.791  0.5618 -0.2328 -0.4393
  418MOL0     C55108  -0.132   3.864   1.708 -0.4295  0.3848 -0.0317
  418MOL0     C55109   0.191   3.160   2.082 -0.1090 -0.5249 -0.1900
  418MOL0     C55110   0.302   3.128   2.147 -0.6457  0.2407 -0.0241
  418MOL0     H55111   0.741   3.086   2.422 -2.0305 -0.0524 -0.2435
  418MOL0     H55112   0.880   3.073   2.634 -0.4106 -0.1481 -1.8036
  418MOL0     H55113   1.018   3.095   2.821 -1.5177 -4.5755  1.3371
  418MOL0     H55114   0.858   3.081   2.898 -1.0901  0.6173 -0.8284
  418MOL0     H55115   0.991   3.076   3.074 -2.7190  2.3579  2.4717
  418MOL0     H55116   0.937   3.249   3.065  2.6693  2.0699  0.8981
  418MOL0     H55117   1.168   3.321   3.000  3.9857 -0.3564 -0.4079
  418MOL0     H55118   1.207   3.157   2.960 -1.0081 -0.6075  0.4795
  418MOL0     H55119   1.190   3.098   3.207  1.8364  0.3267  3.3974
  418MOL0     H55120   1.325   3.196   3.136 -0.9399 -0.2403 -2.2221
  418MOL0     H55121   1.108   3.354   3.271 -0.2871 -0.8064  0.3328
  418MOL0     H55122   1.255   3.396   3.201 -0.4017 -0.4620  0.1140
  418MOL0     H55123   1.375   3.256   3.388  0.0889 -1.2283  1.9597
  418MOL0     H55124   1.208   3.224   3.446 -0.3019 -1.6112 -2.1734
  418MOL0     H55125   1.337   3.411   3.560  1.6907  0.7576 -1.1692
  418MOL0     H55126   1.352   3.493   3.423  0.2834 -1.4059 -1.3165
  418MOL0     H55127   1.077   3.418   3.528  2.1006 -1.7568 -0.1149
  418MOL0     H55128   1.100   3.539   3.406  0.6078  2.5357  0.3517
  418MOL0     H55129   1.324   3.731   3.543 -0.9102 -0.4055 -0.5150
  418MOL0     H55130   1.235   3.896   3.900  0.2673  1.4957  0.3918
  418MOL0     H55131   1.268   3.971   3.751  2.1335  0.9806  1.5231
  418MOL0     H55132   1.457   3.754   3.820  1.6611 -0.4622  0.6978
  418MOL0     H55133   1.445   3.880   3.944  0.5417  2.6147 -0.3408
  418MOL0     H55134   1.516   3.947   3.648  1.4035  0.9880 -0.1247
  418MOL0     H55135   1.496   4.061   3.784  0.9934 -0.2791  0.9592
  418MOL0     H55136   1.705   3.838   3.773 -4.7397 -2.1445  1.8318
  418MOL0     H55137   1.683   3.953   3.903  1.9685 -0.6223  0.3383
  418MOL0     H55138   1.878   3.925   3.948 -2.2599 -0.1289 -1.4427
  418MOL0     H55139   2.116   3.985   4.020  1.0816  0.9614 -0.4490
  418MOL0     H55140   2.550   4.110   4.019  3.4249  0.0662  2.2239
  418MOL0     H55141   2.768   4.206   4.059 -1.2082  1.7733  0.7613
  418MOL0     H55142   2.975   4.131   3.910  0.1412 -1.4994 -0.2057
  418MOL0     H55143   3.025   4.264   4.018 -2.4459 -2.6130 -0.2156
  418MOL0     H55144   3.192   4.342   3.854 -2.9928  1.2102  1.3509
  418MOL0     H55145   3.140   4.238   3.728 -1.4589 -2.4748  0.1053
  418MOL0     H55146   3.159   4.043   3.887 -0.5052  0.6355 -0.1886
  418MOL0     H55147   3.246   4.145   4.001  2.7653 -2.8966  0.5694
  418MOL0     H55148   3.320   4.043   3.722 -0.9496  1.2345 -0.0944
  418MOL0     H55149   3.426   4.174   3.791  3.5520 -1.0370  0.8762
  418MOL0     H55150   3.474   4.058   4.003  1.4770  0.4249 -0.5039
  418MOL0     H55151   3.532   3.961   3.869 -0.2508 -0.3761  0.0024
  418MOL0     H55152   3.279   3.898   4.026 -0.8291 -2.6229 -0.4848
  418MOL0     H55153   3.433   3.819   4.025  0.0567 -1.0684 -1.0303
  418MOL0     H55154   3.260   3.835   3.774 -0.5707  1.2526  1.2600
  418MOL0     H55155   3.416   3.757   3.783 -1.3397  1.1444 -2.9200
  418MOL0     H55156   3.306   3.631   3.998 -2.4182  0.9599  0.8014
  418MOL0     H55157   3.304   3.568   3.842 -1.3960 -0.1054 -1.0865
  418MOL0     H55158   2.764   4.434   3.701  1.2870  0.4001  1.0005
  418MOL0     H55159   2.520   4.363   3.669  2.3855  1.6434 -2.1182
  418MOL0     H55160   2.167   4.222   3.676  1.6532  0.2572  0.6470
  418MOL0     H55161   1.923   4.184   3.624 -3.6116 -2.6242  0.4956
  418MOL0     H55162   0.722   3.470   2.726 -1.2613  1.2413 -1.8924
  418MOL0     H55163   0.606   3.458   2.512  0.4511  0.0991  1.3515
  418MOL0     H55164   0.442   3.443   2.192 -0.7753  0.2711  1.3937
  418MOL0     H55165   0.249   3.484   2.036  1.4887  1.2170  0.8220
  418MOL0     H55166   0.039   3.414   1.754  0.3724  1.5474 -0.4937
  418MOL0     H55167   0.202   3.444   1.842 -0.0901  1.0430  3.3752
  418MOL0     H55168   0.060   3.597   1.979  0.7068 -0.7557  0.2715
  418MOL0     H55169   0.052   3.630   1.805  0.9451 -1.8791 -1.1154
  418MOL0     H55170  -0.163   3.504   1.980  2.2953  0.1331  0.2900
  418MOL0     H55171  -0.177   3.499   1.799 -1.2499  1.3209 -0.7258
  418MOL0     H55172  -0.309   3.684   1.902 -0.3602 -2.0089 -0.6057
  418MOL0     H55173  -0.159   3.746   1.986 -1.7244  1.7849 -1.0705
  418MOL0     H55174  -0.099   3.944   1.645  3.0114 -0.9295 -0.1201
  418MOL0     H55175   0.113   3.090   2.054 -1.6467  1.1866 -0.4111
  418MOL0     H55176   0.325   3.026   2.175 -0.6733  0.1162 -0.4532
  419MOL0     O55177   6.003   5.840   5.214  0.6703  0.7487 -0.4358
  419MOL0     C55178   5.992   5.760   5.121 -0.6968 -0.4022  0.7543
  419MOL0     O55179   6.098   5.688   5.062 -0.5341 -0.2054  0.0134
  419MOL0     C55180   6.227   5.722   5.098 -0.2122  1.1621  0.4359
  419MOL0     C55181   6.295   5.845   5.052  0.0717 -0.8544 -0.8650
  419MOL0     C55182   6.428   5.870   5.089  0.0917 -0.2652 -0.0476
  419MOL0     C55183   6.491   5.773   5.172  0.8017 -0.4287  0.3198
  419MOL0     O55184   6.621   5.782   5.205 -0.6857  0.1784 -0.1480
  419MOL0     C55185   6.698   5.892   5.154 -1.2350  0.0956 -0.0604
  419MOL0     C55186   6.830   5.895   5.238  0.7541  0.8638  0.3183
  419MOL0     C55187   6.908   6.018   5.188  0.2155 -0.4692  0.5912
  419MOL0     C55188   7.021   6.062   5.277 -0.4014 -0.3167  0.3394
  419MOL0     C55189   7.130   6.129   5.201 -1.2152 -0.8533  0.3608
  419MOL0     C55190   7.262   6.123   5.272 -0.4557  0.2573  0.2597
  419MOL0     C55191   7.373   6.192   5.184  0.3921 -0.0899 -0.0313
  419MOL0     C55192   7.511   6.182   5.262  0.4463 -0.1814  0.7200
  419MOL0     N55193   7.620   6.214   5.171 -0.4914  0.5064  1.4348
  419MOL0     C55194   7.693   6.134   5.081  0.4570  0.3673  0.7691
  419MOL0     C55195   7.772   6.212   4.998 -0.9400 -0.7643 -0.5698
  419MOL0     C55196   7.873   6.174   4.897  0.6952  0.4452 -0.2891
  419MOL0     C55197   7.923   6.027   4.918 -0.8074  0.0367  0.1268
  419MOL0     C55198   7.835   5.928   4.837  0.3284 -1.0060 -0.9693
  419MOL0     C55199   7.882   5.782   4.837 -0.2702  0.2324  0.1636
  419MOL0     O55200   7.938   5.750   4.964 -0.0490 -0.1526 -0.3517
  419MOL0     C55201   8.044   5.664   4.979  0.8511 -0.4326 -0.0300
  419MOL0     C55202   8.121   5.616   4.875  0.1035 -1.1740  1.4815
  419MOL0     C55203   8.238   5.545   4.886  0.3438 -0.6485  0.1285
  419MOL0     C55204   8.287   5.517   5.016 -0.3206  0.3928  0.1869
  419MOL0     C55205   8.420   5.460   5.039  0.3312  0.4142  0.3572
  419MOL0     O55206   8.485   5.437   4.927  0.1504  0.5394 -0.2376
  419MOL0     C55207   8.612   5.386   4.936  0.7284 -0.2363  0.6364
  419MOL0     C55208   8.711   5.453   4.870  0.0449 -0.0421  0.0249
  419MOL0     C55209   8.840   5.403   4.848 -0.7723 -0.9501 -0.3156
  419MOL0     C55210   8.884   5.290   4.927 -0.1886  0.3252 -0.0392
  419MOL0     O55211   9.017   5.258   4.906 -0.1225  0.1889 -0.7096
  419MOL0     C55212   9.086   5.148   4.976 -0.5143  0.8055  0.8632
  419MOL0     C55213   9.120   5.045   4.856 -0.9009 -0.2516 -0.7312
  419MOL0     C55214   9.246   4.978   4.888 -1.0599  0.4875  0.3876
  419MOL0     C55215   9.294   4.891   4.769 -0.2477  0.2361  0.3640
  419MOL0     C55216   9.439   4.840   4.796  0.2971  0.5988  0.9829
  419MOL0     C55217   9.529   4.943   4.740 -0.3555 -0.0774 -0.2768
  419MOL0     C55218   9.674   4.921   4.787 -0.2918  0.2250 -0.2756
  419MOL0     C55219   9.741   4.793   4.735 -0.5667  0.4989 -0.3121
  419MOL0    Cl55220   9.903   4.792   4.777 -0.6031 -0.4637  0.2294
  419MOL0     C55221   8.787   5.230   5.017 -0.1413  0.5004  0.7056
  419MOL0     C55222   8.655   5.280   5.017  0.3521  1.1800  0.4462
  419MOL0     O55223   8.463   5.430   5.151  0.6304 -0.0818 -0.1118
  419MOL0     C55224   8.213   5.556   5.128  0.5785 -0.3721  0.5499
  419MOL0     C55225   8.097   5.630   5.107 -0.2825 -0.4941 -0.4806
  419MOL0     N55226   7.737   6.340   5.036  0.5102 -0.3026 -0.1210
  419MOL0     N55227   7.656   6.341   5.138  0.1878 -0.3267 -0.2854
  419MOL0     C55228   6.428   5.655   5.210  0.2270 -0.2289  0.2056
  419MOL0     C55229   6.297   5.625   5.175  0.0421 -0.2832  0.0187
  419MOL0     C55230   5.863   5.748   5.052  0.7429  0.6931  0.9617
  419MOL0     C55231   5.857   5.666   4.935 -0.1068 -0.0804 -0.2025
  419MOL0     C55232   5.739   5.655   4.858 -0.7430 -0.3615 -0.7442
  419MOL0     C55233   5.619   5.708   4.916 -0.0058 -0.4064  0.5095
  419MOL0     O55234   5.495   5.685   4.859 -0.3004 -0.7775 -0.2612
  419MOL0     C55235   5.507   5.686   4.711  0.1212  0.0176  0.7006
  419MOL0     C55236   5.376   5.734   4.642  0.5776  0.8573  0.2722
  419MOL0     C55237   5.269   5.632   4.630 -0.5622  0.9635  1.0076
  419MOL0     C55238   5.295   5.530   4.529 -0.0952  0.2604  0.4241
  419MOL0     C55239   5.212   5.414   4.534  0.2307  0.2063  0.0291
  419MOL0     C55240   5.136   5.325   4.522  0.5499 -0.7968  0.2627
  419MOL0     C55241   5.617   5.781   5.038  0.2899 -0.0529  0.2353
  419MOL0     C55242   5.740   5.800   5.104  0.0507  0.3483 -0.0030
  419MOL0     H55243   6.234   5.907   4.988 -1.9509 -1.7013  0.1348
  419MOL0     H55244   6.471   5.964   5.056 -0.8116  0.3438  0.4402
  419MOL0     H55245   6.645   5.986   5.172 -0.7749  0.2343  0.6147
  419MOL0     H55246   6.728   5.871   5.050  2.5763  0.2120  0.8462
  419MOL0     H55247   6.894   5.808   5.221 -3.3590 -2.4513  0.2231
  419MOL0     H55248   6.819   5.905   5.346  0.5817 -0.6993  0.4718
  419MOL0     H55249   6.842   6.105   5.178  2.9380  1.6337 -0.3046
  419MOL0     H55250   6.950   5.992   5.090 -0.9634  1.9962 -0.6772
  419MOL0     H55251   6.981   6.127   5.356 -0.9400 -0.3933  0.1346
  419MOL0     H55252   7.063   5.979   5.334  1.8164  1.8277  2.0633
  419MOL0     H55253   7.108   6.236   5.189 -0.3766 -0.5120  1.6355
  419MOL0     H55254   7.138   6.089   5.100  0.2760  0.0406  0.0900
  419MOL0     H55255   7.288   6.018   5.290 -1.3925  0.0876  0.6470
  419MOL0     H55256   7.276   6.177   5.366  5.3753 -0.0921 -0.0048
  419MOL0     H55257   7.381   6.142   5.087 -1.1426 -1.0591  0.3123
  419MOL0     H55258   7.346   6.298   5.171  0.9674  0.0117 -0.4633
  419MOL0     H55259   7.507   6.087   5.315 -4.3950  1.5555  4.2121
  419MOL0     H55260   7.517   6.247   5.350  5.4726 -1.7030  1.8409
  419MOL0     H55261   7.693   6.026   5.078  0.3586  0.3061 -3.5012
  419MOL0     H55262   7.950   6.242   4.934 -1.5398  1.3135  3.2393
  419MOL0     H55263   7.849   6.187   4.791  0.9914 -2.1204 -0.7383
  419MOL0     H55264   7.934   6.006   5.025  0.4241 -2.3658 -0.4007
  419MOL0     H55265   8.018   6.032   4.863 -2.2983 -0.5384 -2.6710
  419MOL0     H55266   7.738   5.930   4.888 -0.2331 -2.0056 -1.9350
  419MOL0     H55267   7.803   5.960   4.738 -3.2990 -0.7058  0.1639
  419MOL0     H55268   7.951   5.773   4.753 -1.3867 -1.2597 -0.6300
  419MOL0     H55269   7.793   5.723   4.813 -0.9361  1.5574 -0.8135
  419MOL0     H55270   8.096   5.631   4.770  1.2720  1.1216  1.4714
  419MOL0     H55271   8.291   5.533   4.792 -1.0245  1.6085 -1.0262
  419MOL0     H55272   8.686   5.545   4.817  2.3166  0.6612  0.0800
  419MOL0     H55273   8.906   5.465   4.789 -0.9700  0.1001  0.5391
  419MOL0     H55274   9.034   5.095   5.055  1.1213 -0.4564  1.1533
  419MOL0     H55275   9.180   5.191   5.013 -0.6280  3.2987 -1.4185
  419MOL0     H55276   9.131   5.117   4.774 -1.6830  3.5032  2.1778
  419MOL0     H55277   9.044   4.970   4.832 -1.3484 -0.2568  0.6265
  419MOL0     H55278   9.240   4.902   4.967  0.0132  0.4207  0.4226
  419MOL0     H55279   9.318   5.053   4.922 -2.0238  2.5419 -1.8187
  419MOL0     H55280   9.233   4.802   4.754  0.9586 -0.8674  1.7727
  419MOL0     H55281   9.284   4.954   4.680 -2.8243  1.2008  1.2664
  419MOL0     H55282   9.450   4.749   4.737  1.8852  1.8271 -0.7360
  419MOL0     H55283   9.457   4.814   4.901 -1.4196 -0.3343  1.0849
  419MOL0     H55284   9.492   5.038   4.780  0.7912 -0.6408  2.2973
  419MOL0     H55285   9.521   4.935   4.631 -3.0023 -0.7970 -0.0885
  419MOL0     H55286   9.737   5.005   4.754  0.7133  0.4944  2.0946
  419MOL0     H55287   9.689   4.909   4.895  1.9367  0.6515 -0.4751
  419MOL0     H55288   9.742   4.770   4.627  4.0204  0.6292 -0.4724
  419MOL0     H55289   9.701   4.707   4.790 -0.6906  0.6409 -0.1821
  419MOL0     H55290   8.808   5.144   5.080  2.9662  1.6508  1.4598
  419MOL0     H55291   8.573   5.230   5.069  1.2205  0.7777  1.4558
  419MOL0     H55292   8.232   5.533   5.232 -3.3571 -1.4522  1.2012
  419MOL0     H55293   8.039   5.668   5.191 -0.8040 -1.3395 -0.4382
  419MOL0     H55294   6.488   5.592   5.276  0.4098 -1.2118 -0.8735
  419MOL0     H55295   6.243   5.533   5.194 -1.6947  0.2564 -1.8736
  419MOL0     H55296   5.949   5.617   4.902 -1.9225 -2.4409 -2.1786
  419MOL0     H55297   5.728   5.585   4.775 -1.3038 -0.9803 -0.1685
  419MOL0     H55298   5.539   5.593   4.662 -0.9913  0.4838 -0.9851
  419MOL0     H55299   5.590   5.747   4.674 -0.1568 -0.6617 -1.2098
  419MOL0     H55300   5.329   5.808   4.707  1.1314 -0.2784  2.0601
  419MOL0     H55301   5.401   5.780   4.546 -0.1183 -3.1672 -2.0547
  419MOL0     H55302   5.169   5.678   4.629 -2.4262 -2.6967  0.9276
  419MOL0     H55303   5.262   5.566   4.717  0.4510 -0.1779  0.2564
  419MOL0     H55304   5.289   5.570   4.428 -0.4322 -2.1704 -0.5737
  419MOL0     H55305   5.398   5.496   4.539  0.9202  3.1746  1.0940
  419MOL0     H55306   5.069   5.244   4.503  0.0788 -0.2527 -0.4829
  419MOL0     H55307   5.520   5.820   5.069 -0.1473 -1.0908  0.2289
  419MOL0     H55308   5.739   5.867   5.189  0.9159  0.4955 -0.1021
  420MOL0     O55309   8.812   4.266   8.720 -0.3429  0.3546  0.2739
  420MOL0     C55310   8.728   4.230   8.797  1.1127  0.4481  0.5086
  420MOL0     O55311   8.720   4.258   8.939 -1.0321 -0.2425  0.0569
  420MOL0     C55312   8.807   4.341   9.007 -0.8196 -0.4419 -1.4043
  420MOL0     C55313   8.871   4.445   8.942 -0.2833 -0.0445 -0.2260
  420MOL0     C55314   8.953   4.539   9.011 -0.9488  0.2406  0.5359
  420MOL0     C55315   8.972   4.528   9.148 -0.9582  0.4318  0.2803
  420MOL0     O55316   9.056   4.621   9.205  0.5637  0.3189  0.0633
  420MOL0     C55317   9.156   4.590   9.294 -0.1736 -0.1499  0.2269
  420MOL0     C55318   9.283   4.543   9.229 -0.7645  0.1445 -0.9640
  420MOL0     C55319   9.289   4.403   9.167 -0.3980 -0.1141 -1.5043
  420MOL0     C55320   9.434   4.355   9.152  0.7047  0.8521 -0.5869
  420MOL0     C55321   9.419   4.236   9.051 -0.4285  0.1222  0.7542
  420MOL0     C55322   9.561   4.178   9.014  0.6173 -0.2409 -0.9015
  420MOL0     C55323   9.664   4.150   9.121 -0.7693  0.6769  0.0903
  420MOL0     C55324   9.782   4.071   9.070  0.2694  0.3687  0.5090
  420MOL0     N55325   9.746   3.930   9.048 -0.2979  1.2821  0.8798
  420MOL0     C55326   9.691   3.869   8.942  0.1467 -0.1434  0.0798
  420MOL0     C55327   9.653   3.746   8.982  0.0256 -0.4927 -0.5246
  420MOL0     C55328   9.595   3.633   8.905  0.4792 -0.3194 -0.6545
  420MOL0     C55329   9.564   3.666   8.752  0.3823  0.5991  0.5749
  420MOL0     C55330   9.538   3.533   8.671  0.2454 -0.3089  0.8886
  420MOL0     C55331   9.515   3.553   8.521  0.2411 -0.5693  0.1540
  420MOL0     O55332   9.393   3.623   8.494  0.0285 -0.5747 -0.1599
  420MOL0     C55333   9.277   3.541   8.463 -0.2445 -0.4110 -0.8651
  420MOL0     C55334   9.253   3.412   8.514  1.1189 -0.6983 -0.5711
  420MOL0     C55335   9.151   3.328   8.482 -0.3665  0.3143  0.4069
  420MOL0     C55336   9.046   3.379   8.402 -0.3610  0.1895  0.9524
  420MOL0     C55337   8.944   3.292   8.349 -0.6516  0.2494 -0.0344
  420MOL0     O55338   8.962   3.155   8.366 -0.2791  0.1041 -0.5407
  420MOL0     C55339   8.866   3.077   8.319  0.2377  1.1078 -0.6079
  420MOL0     C55340   8.882   2.994   8.208 -0.3512 -0.0307  0.4039
  420MOL0     C55341   8.776   2.919   8.155  0.6551  0.1352  0.0674
  420MOL0     C55342   8.654   2.909   8.224  0.0366 -0.9245  0.6510
  420MOL0     O55343   8.542   2.848   8.169  0.3825 -0.6208 -0.1973
  420MOL0     C55344   8.418   2.923   8.186 -1.1546  0.1034  0.1248
  420MOL0     C55345   8.304   2.856   8.101 -0.8356  0.3176 -0.2860
  420MOL0     C55346   8.259   2.718   8.158  0.0548  0.4119 -0.2617
  420MOL0     C55347   8.137   2.657   8.083 -0.0444  0.6903  0.0863
  420MOL0     C55348   8.119   2.506   8.137 -0.4603  0.7617  0.3433
  420MOL0     C55349   8.038   2.431   8.034  0.0862  0.6397  0.1707
  420MOL0     C55350   8.052   2.278   8.039  0.0834  0.4647  0.1181
  420MOL0     C55351   7.990   2.206   7.917 -0.4898  0.1995 -0.8752
  420MOL0    Cl55352   7.826   2.269   7.903  0.5200  0.3304 -0.4551
  420MOL0     C55353   8.642   2.980   8.346  0.0931 -0.6315  0.7459
  420MOL0     C55354   8.749   3.062   8.389 -0.2053 -0.2140  0.2638
  420MOL0     O55355   8.850   3.351   8.284  0.2136  0.4828  1.0084
  420MOL0     C55356   9.059   3.514   8.354  0.1192  0.2525  0.4833
  420MOL0     C55357   9.171   3.596   8.398  0.9811 -0.5943 -0.0930
  420MOL0     N55358   9.688   3.724   9.116 -0.1695  0.6760 -1.0437
  420MOL0     N55359   9.741   3.841   9.151 -0.2856  0.1998  0.8931
  420MOL0     C55360   8.917   4.416   9.212 -0.0678  0.7943  0.5427
  420MOL0     C55361   8.828   4.325   9.146  0.7486 -0.3536  0.5129
  420MOL0     C55362   8.617   4.145   8.750  0.0172  0.8405 -0.3835
  420MOL0     C55363   8.519   4.089   8.831 -0.0078  0.0711 -0.4060
  420MOL0     C55364   8.415   4.025   8.768 -0.3971 -0.1957 -0.0512
  420MOL0     C55365   8.410   4.001   8.631  0.3458  0.0677  0.4477
  420MOL0     O55366   8.294   3.947   8.585 -0.0277  0.6001  0.3154
  420MOL0     C55367   8.275   3.809   8.600  1.2818  0.7147 -0.2635
  420MOL0     C55368   8.132   3.771   8.544  0.2276  0.4465  0.2603
  420MOL0     C55369   8.113   3.621   8.572  0.2997  0.0991  0.6286
  420MOL0     C55370   7.976   3.558   8.521 -0.5673  0.3270  0.7568
  420MOL0     C55371   7.855   3.602   8.583  0.3408 -0.9654  0.0546
  420MOL0     C55372   7.753   3.662   8.623  1.3984  0.1394  0.3634
  420MOL0     C55373   8.517   4.040   8.554 -0.0994  0.8605 -0.4149
  420MOL0     C55374   8.619   4.113   8.612 -0.5321  0.1474 -0.2404
  420MOL0     H55375   8.864   4.445   8.833 -4.0285 -2.8224 -0.1889
  420MOL0     H55376   9.007   4.603   8.941  0.5947 -0.5942  0.9241
  420MOL0     H55377   9.113   4.513   9.358 -1.8769 -1.0956 -1.9228
  420MOL0     H55378   9.194   4.679   9.346 -1.4595  0.8161 -0.4378
  420MOL0     H55379   9.348   4.550   9.317 -0.2814 -0.3797 -1.2657
  420MOL0     H55380   9.329   4.605   9.151 -0.3613 -2.3594 -2.8646
  420MOL0     H55381   9.242   4.415   9.069 -3.6025  2.7422  0.1554
  420MOL0     H55382   9.234   4.322   9.217  1.5156 -1.0848 -0.8612
  420MOL0     H55383   9.487   4.437   9.102 -2.6083  3.2126 -0.5803
  420MOL0     H55384   9.482   4.326   9.246  2.1262 -0.1804 -1.5730
  420MOL0     H55385   9.363   4.264   8.961  0.3027  3.3986  1.2001
  420MOL0     H55386   9.378   4.154   9.110  2.5721 -2.4137 -0.3725
  420MOL0     H55387   9.607   4.255   8.952  0.5632  0.3282 -0.2343
  420MOL0     H55388   9.552   4.082   8.961  0.7359 -0.6351 -0.2150
  420MOL0     H55389   9.695   4.247   9.161 -1.2311  0.1959  1.7045
  420MOL0     H55390   9.617   4.093   9.202 -0.5300  0.6047  0.1788
  420MOL0     H55391   9.863   4.080   9.143 -0.2488 -2.9234  1.6911
  420MOL0     H55392   9.830   4.111   8.980  1.0990  1.8180  1.5652
  420MOL0     H55393   9.676   3.905   8.840  0.6176  1.0870  0.4264
  420MOL0     H55394   9.507   3.588   8.951  2.1858 -3.0935  0.1472
  420MOL0     H55395   9.667   3.552   8.917  1.6944  0.8938  0.6572
  420MOL0     H55396   9.651   3.703   8.697  0.0796 -1.7494 -1.7016
  420MOL0     H55397   9.477   3.732   8.749 -1.5627 -1.7566  1.8434
  420MOL0     H55398   9.637   3.486   8.666  0.3699  0.0668 -0.6217
  420MOL0     H55399   9.458   3.471   8.713  0.3583 -0.8855  0.2655
  420MOL0     H55400   9.525   3.453   8.478  0.8048 -1.0611  1.3669
  420MOL0     H55401   9.596   3.603   8.467 -0.1771 -0.9532 -0.8596
  420MOL0     H55402   9.327   3.369   8.580  3.0716  1.8858 -0.9220
  420MOL0     H55403   9.149   3.221   8.500  1.0004 -0.4868 -3.2018
  420MOL0     H55404   8.979   2.984   8.160 -1.6480  0.3858 -2.5303
  420MOL0     H55405   8.784   2.867   8.060 -0.0458  1.3599 -0.6894
  420MOL0     H55406   8.435   3.026   8.155  0.1730  0.2352  1.1829
  420MOL0     H55407   8.391   2.923   8.292 -2.8674  0.1187 -0.2776
  420MOL0     H55408   8.355   2.846   8.005 -1.4142  0.3577 -0.5969
  420MOL0     H55409   8.216   2.921   8.099 -1.3317 -0.1785  2.2256
  420MOL0     H55410   8.221   2.734   8.259 -1.0599 -1.9743 -0.2289
  420MOL0     H55411   8.347   2.652   8.160 -0.3992 -0.1912 -0.0077
  420MOL0     H55412   8.045   2.712   8.104 -0.8480 -0.1631 -1.0464
  420MOL0     H55413   8.159   2.654   7.975 -0.2640 -3.1470  0.0080
  420MOL0     H55414   8.075   2.507   8.238 -2.8071 -1.1151 -0.5562
  420MOL0     H55415   8.214   2.452   8.148 -2.4577 -3.0736  0.2857
  420MOL0     H55416   8.071   2.466   7.936 -2.8017  0.6625 -0.8861
  420MOL0     H55417   7.936   2.468   8.044 -0.1522  0.2082 -0.5515
  420MOL0     H55418   8.156   2.244   8.051  0.3265  0.4065 -1.7497
  420MOL0     H55419   7.995   2.236   8.122  0.1673  1.6509  0.8044
  420MOL0     H55420   7.977   2.102   7.948  0.5114  0.6526  1.2551
  420MOL0     H55421   8.052   2.235   7.832  1.5953  0.9152  0.7977
  420MOL0     H55422   8.551   2.971   8.404 -1.6093 -1.6116 -1.9049
  420MOL0     H55423   8.752   3.102   8.490 -2.3947 -1.3796  0.8542
  420MOL0     H55424   8.976   3.560   8.303 -1.5665 -1.3061  1.7010
  420MOL0     H55425   9.178   3.698   8.360 -0.0154 -0.2197  0.6956
  420MOL0     H55426   8.940   4.405   9.317  2.8760 -2.2678 -0.2683
  420MOL0     H55427   8.778   4.242   9.195  1.2417 -0.6902  0.4601
  420MOL0     H55428   8.527   4.098   8.939  1.1988  0.4453 -0.5110
  420MOL0     H55429   8.329   3.999   8.830 -0.6512  0.0851 -0.2886
  420MOL0     H55430   8.285   3.797   8.708  2.0179 -0.9554 -0.4789
  420MOL0     H55431   8.353   3.752   8.548  0.2534 -1.2380  0.2380
  420MOL0     H55432   8.058   3.842   8.582  0.0406  0.5117 -0.2108
  420MOL0     H55433   8.132   3.782   8.435 -6.0416 -1.5286 -0.2955
  420MOL0     H55434   8.134   3.600   8.677  2.9047  0.3062  0.2210
  420MOL0     H55435   8.199   3.580   8.519  1.4139  0.4507  2.1012
  420MOL0     H55436   7.971   3.576   8.413  0.0890  0.4784  0.7466
  420MOL0     H55437   7.982   3.449   8.522 -0.0620  0.3454  2.4042
  420MOL0     H55438   7.663   3.705   8.662  0.3290 -2.4761  1.0094
  420MOL0     H55439   8.498   4.037   8.447 -6.6849  1.5640  0.3052
  420MOL0     H55440   8.693   4.160   8.548 -0.2262  0.9707  0.6787
  421MOL0     O55441   5.970   8.924   7.875 -0.5595 -0.5500 -0.5974
  421MOL0     C55442   6.058   8.883   7.949  0.1190  1.2115 -0.5445
  421MOL0     O55443   6.092   8.933   8.075  0.8900 -0.0862 -0.1628
  421MOL0     C55444   6.012   9.023   8.144  0.0157 -0.0928  0.5187
  421MOL0     C55445   5.881   8.984   8.172 -0.4391 -0.2676 -0.7047
  421MOL0     C55446   5.808   9.072   8.245  0.4745  0.6393 -0.9186
  421MOL0     C55447   5.858   9.190   8.301 -0.2165 -0.2332 -0.5776
  421MOL0     O55448   5.774   9.257   8.388 -0.0028 -0.7989  0.2249
  421MOL0     C55449   5.809   9.392   8.421 -0.5022  0.8327  0.5531
  421MOL0     C55450   5.717   9.463   8.515  0.8884  0.3035  0.0404
  421MOL0     C55451   5.680   9.601   8.456  0.2761  0.3099 -0.1091
  421MOL0     C55452   5.575   9.671   8.544 -0.5767 -0.1490 -0.3856
  421MOL0     C55453   5.546   9.816   8.481  0.3375 -0.2492  0.5105
  421MOL0     C55454   5.427   9.883   8.555  0.0462  0.8108  0.1774
  421MOL0     C55455   5.420  10.031   8.511  1.1663  0.0090 -0.1630
  421MOL0     C55456   5.320  10.111   8.595  0.6777 -0.7001  0.5857
  421MOL0     N55457   5.342  10.260   8.602 -0.0967 -0.0619  0.0413
  421MOL0     C55458   5.461  10.329   8.578 -1.2761  0.3462  0.2639
  421MOL0     C55459   5.412  10.457   8.574 -1.1472  0.0882 -1.1488
  421MOL0     C55460   5.504  10.579   8.553  1.1256 -0.1586 -0.7666
  421MOL0     C55461   5.575  10.565   8.419 -0.0481 -0.2036 -0.3590
  421MOL0     C55462   5.725  10.614   8.414  1.1140  0.1171  0.0456
  421MOL0     C55463   5.786  10.600   8.277 -0.3203 -0.8634 -0.5885
  421MOL0     O55464   5.926  10.648   8.282 -0.0883  0.6401 -0.1897
  421MOL0     C55465   6.017  10.562   8.214  0.4895  0.6326  0.1799
  421MOL0     C55466   6.011  10.532   8.074 -0.7664  0.6039 -0.4071
  421MOL0     C55467   6.104  10.455   8.019  0.1190 -0.0105  0.0113
  421MOL0     C55468   6.228  10.418   8.085 -0.4356 -0.2151  0.0344
  421MOL0     C55469   6.343  10.347   8.017 -0.0172 -0.1591 -0.4542
  421MOL0     O55470   6.331  10.306   7.894 -0.2358  1.0358  1.1899
  421MOL0     C55471   6.429  10.294   7.801  0.1584  0.3212  0.2157
  421MOL0     C55472   6.429  10.182   7.716 -0.2241  0.1953  0.2635
  421MOL0     C55473   6.528  10.157   7.621 -0.1040  0.9788  0.1918
  421MOL0     C55474   6.623  10.251   7.601  0.4992 -0.4863 -0.8607
  421MOL0     O55475   6.720  10.240   7.510 -0.1965 -0.1931 -0.9957
  421MOL0     C55476   6.705  10.150   7.400  0.8068  0.2694 -0.6402
  421MOL0     C55477   6.576  10.160   7.311  0.3731  0.5048  0.0713
  421MOL0     C55478   6.587  10.064   7.199 -0.2485  0.1127  0.6094
  421MOL0     C55479   6.479  10.064   7.089 -0.2332 -0.5223 -0.1241
  421MOL0     C55480   6.494   9.969   6.971 -0.2297 -0.5244 -0.2847
  421MOL0     C55481   6.381   9.971   6.860  0.4500  0.4073  0.1948
  421MOL0     C55482   6.350  10.106   6.790  0.1450 -0.3265 -0.4709
  421MOL0     C55483   6.241  10.104   6.688 -0.6629  0.1551 -0.4318
  421MOL0    Cl55484   6.078  10.117   6.767 -0.0972  0.0983 -0.1952
  421MOL0     C55485   6.632  10.364   7.682 -1.0331  0.8104 -0.6365
  421MOL0     C55486   6.534  10.390   7.780  0.1135  0.3953 -0.2107
  421MOL0     O55487   6.452  10.354   8.072  0.1616  0.3717  0.0840
  421MOL0     C55488   6.230  10.444   8.224  0.3838  0.3951  0.3375
  421MOL0     C55489   6.127  10.522   8.287  0.0928 -0.8839 -0.0512
  421MOL0     N55490   5.277  10.462   8.583  0.1513  0.7213 -0.0684
  421MOL0     N55491   5.234  10.342   8.605  0.3476  0.5003  0.9228
  421MOL0     C55492   5.989   9.222   8.266 -0.0484 -0.8923 -0.4035
  421MOL0     C55493   6.068   9.139   8.182 -0.7800  0.0442 -0.4618
  421MOL0     C55494   6.127   8.758   7.907  0.2323 -0.1768  0.7371
  421MOL0     C55495   6.241   8.717   7.979  0.6633  0.0811 -0.2308
  421MOL0     C55496   6.306   8.603   7.936  0.7196 -0.2624  0.5674
  421MOL0     C55497   6.260   8.523   7.827  0.2774  0.7272  0.5268
  421MOL0     O55498   6.328   8.400   7.799  0.7821 -0.7921 -0.3408
  421MOL0     C55499   6.414   8.403   7.678 -0.0351 -0.8722 -0.1856
  421MOL0     C55500   6.539   8.501   7.680  0.0606  0.0756 -1.4332
  421MOL0     C55501   6.636   8.460   7.798  1.0391 -0.0530  0.5549
  421MOL0     C55502   6.716   8.584   7.855 -1.0184 -0.1241  0.8682
  421MOL0     C55503   6.645   8.709   7.894 -0.4792  0.2861 -0.4854
  421MOL0     C55504   6.575   8.806   7.925 -0.1841  0.7058 -0.0780
  421MOL0     C55505   6.148   8.568   7.760 -0.2128 -0.0823  1.5863
  421MOL0     C55506   6.074   8.681   7.800  1.1377  0.1377  0.3064
  421MOL0     H55507   5.837   8.889   8.142 -2.4753  0.2692  0.3949
  421MOL0     H55508   5.708   9.055   8.284  1.4596 -2.7849  0.4606
  421MOL0     H55509   5.807   9.461   8.336 -1.1625 -2.4998 -2.3416
  421MOL0     H55510   5.911   9.398   8.462  0.3045 -1.0044 -1.0435
  421MOL0     H55511   5.778   9.475   8.605  0.1435 -2.7338  1.0740
  421MOL0     H55512   5.630   9.410   8.555  0.3594  1.2474  0.1758
  421MOL0     H55513   5.635   9.591   8.357 -0.1595 -3.0119  0.3144
  421MOL0     H55514   5.768   9.665   8.448  0.1884  0.1912 -3.2673
  421MOL0     H55515   5.478   9.620   8.545 -1.3612  1.2784  1.1041
  421MOL0     H55516   5.619   9.697   8.640  1.9629  1.7613 -1.9326
  421MOL0     H55517   5.519   9.799   8.376  1.5564 -1.8196  0.4069
  421MOL0     H55518   5.629   9.888   8.476  1.8215 -1.9630 -2.3282
  421MOL0     H55519   5.464   9.885   8.658  1.4157 -3.3997 -0.0728
  421MOL0     H55520   5.329   9.835   8.545  1.0360 -1.6229  1.3555
  421MOL0     H55521   5.516  10.080   8.530  0.6710  0.6451  0.8127
  421MOL0     H55522   5.397  10.028   8.404 -1.8069  2.1601  0.2559
  421MOL0     H55523   5.317  10.072   8.698  0.2605 -1.5732  0.2511
  421MOL0     H55524   5.217  10.097   8.561  0.5481  0.0129  0.6675
  421MOL0     H55525   5.566  10.304   8.566 -0.4515  2.8445  1.6191
  421MOL0     H55526   5.571  10.587   8.639 -0.7393 -1.2831  0.8807
  421MOL0     H55527   5.442  10.669   8.549  2.2481  0.5996 -1.9462
  421MOL0     H55528   5.513  10.614   8.343 -2.3693  1.5147  2.4625
  421MOL0     H55529   5.586  10.458   8.397  0.1132 -0.6099  1.5683
  421MOL0     H55530   5.736  10.721   8.434  1.3311  0.1023  0.0171
  421MOL0     H55531   5.772  10.551   8.490  0.3011 -2.1793 -1.2302
  421MOL0     H55532   5.731  10.663   8.206  2.6309  2.0204 -0.5999
  421MOL0     H55533   5.787  10.495   8.248 -0.6444 -0.8718 -0.5732
  421MOL0     H55534   5.942  10.571   8.000  1.8974  2.5978 -2.0174
  421MOL0     H55535   6.102  10.431   7.913  2.4404 -2.3558  0.4062
  421MOL0     H55536   6.344  10.115   7.724 -0.0834  0.0703  0.7563
  421MOL0     H55537   6.540  10.067   7.562 -2.4341  0.7293 -0.0098
  421MOL0     H55538   6.731  10.052   7.439  1.2484  1.3526  2.0751
  421MOL0     H55539   6.791  10.181   7.340  1.1089  2.6827  0.9038
  421MOL0     H55540   6.578  10.263   7.273  2.7007  0.7380  0.6546
  421MOL0     H55541   6.477  10.147   7.355  0.6340  0.9598  0.8019
  421MOL0     H55542   6.589   9.963   7.240  0.6401  1.1964  3.5423
  421MOL0     H55543   6.683  10.082   7.149  0.7398 -1.5674  1.8009
  421MOL0     H55544   6.385  10.024   7.130  0.7217 -2.6986  0.0312
  421MOL0     H55545   6.461  10.169   7.062  1.5678 -0.0537  0.3728
  421MOL0     H55546   6.511   9.864   7.000 -0.1555 -0.3462  0.3230
  421MOL0     H55547   6.580  10.005   6.913 -0.7692  0.8192 -0.2773
  421MOL0     H55548   6.294   9.937   6.917 -0.5051  1.1064 -0.7960
  421MOL0     H55549   6.389   9.890   6.788  0.6096  0.5156  0.0896
  421MOL0     H55550   6.333  10.188   6.861 -1.1747 -0.8460 -0.1600
  421MOL0     H55551   6.448  10.117   6.742  0.6664  1.5603  0.8619
  421MOL0     H55552   6.245  10.008   6.635 -3.6384 -1.2485  1.6023
  421MOL0     H55553   6.261  10.193   6.627  0.2718  1.5190  1.7474
  421MOL0     H55554   6.719  10.428   7.670  0.3864 -0.7823  0.5901
  421MOL0     H55555   6.532  10.479   7.843 -3.5322  0.8370 -0.6866
  421MOL0     H55556   6.314  10.400   8.277 -0.4942  0.1249  1.5576
  421MOL0     H55557   6.139  10.537   8.394  0.9036 -1.2333 -0.0910
  421MOL0     H55558   6.039   9.315   8.289  1.2774 -2.4300  3.8833
  421MOL0     H55559   6.171   9.168   8.166 -0.4981  1.3329  2.8468
  421MOL0     H55560   6.282   8.780   8.057 -0.5063  0.8811 -0.2262
  421MOL0     H55561   6.390   8.568   7.994  0.9311 -0.3675  0.2019
  421MOL0     H55562   6.361   8.408   7.583  1.5061 -2.1979 -1.1630
  421MOL0     H55563   6.452   8.301   7.671 -1.9847 -1.5583 -1.3412
  421MOL0     H55564   6.604   8.476   7.596 -1.4475 -4.1445 -1.6354
  421MOL0     H55565   6.503   8.603   7.691  0.0060  0.0823 -1.6595
  421MOL0     H55566   6.713   8.385   7.773  1.0269 -0.5080  1.8215
  421MOL0     H55567   6.566   8.431   7.876 -2.5214  2.2973 -1.5097
  421MOL0     H55568   6.781   8.555   7.938 -0.5175 -0.4060  0.3853
  421MOL0     H55569   6.793   8.615   7.784  0.4006  1.2298  2.8900
  421MOL0     H55570   6.519   8.891   7.958 -0.3359  1.3890 -1.9742
  421MOL0     H55571   6.109   8.497   7.687  1.6207 -0.8023  1.2439
  421MOL0     H55572   5.988   8.723   7.749 -0.0729 -2.0218  0.4854
  422MOL0     O55573  10.390   0.393   7.272  0.5178 -0.2979  0.4344
  422MOL0     C55574  10.393   0.510   7.239  0.1054 -0.0339 -0.5468
  422MOL0     O55575  10.302   0.608   7.261 -0.3112 -0.2198  0.2690
  422MOL0     C55576  10.184   0.569   7.316  0.3846 -0.8593 -0.1535
  422MOL0     C55577  10.091   0.479   7.265 -0.2031  0.0579 -0.1534
  422MOL0     C55578   9.983   0.449   7.345  0.4582  0.1948 -0.6948
  422MOL0     C55579   9.955   0.493   7.477  0.0933 -0.3691  0.0373
  422MOL0     O55580   9.843   0.460   7.554 -0.2921  0.5880 -0.2515
  422MOL0     C55581   9.763   0.347   7.509 -0.4864  0.1940 -0.1461
  422MOL0     C55582   9.673   0.291   7.620 -0.2344  0.1485 -0.1954
  422MOL0     C55583   9.602   0.165   7.563 -0.2339  0.9082 -0.0475
  422MOL0     C55584   9.477   0.131   7.651 -0.3982 -0.3087  0.9775
  422MOL0     C55585   9.430  -0.005   7.616  0.4679  0.7049 -0.1923
  422MOL0     C55586   9.275  -0.012   7.640 -0.0709  0.0616  0.9452
  422MOL0     C55587   9.235  -0.159   7.647  0.1988 -0.3477  0.7392
  422MOL0     C55588   9.088  -0.170   7.617  0.2316 -0.5628 -0.6171
  422MOL0     N55589   8.993  -0.160   7.730  0.3697  0.3983 -0.2164
  422MOL0     C55590   8.983  -0.052   7.816  0.3589  0.0245  0.3780
  422MOL0     C55591   8.884  -0.088   7.901 -0.5539 -1.2258 -0.2474
  422MOL0     C55592   8.825  -0.006   8.017  0.0886  0.0773  0.3091
  422MOL0     C55593   8.842  -0.070   8.154 -0.7767  0.2929 -0.0709
  422MOL0     C55594   8.746  -0.018   8.264  0.0562  0.7223  0.0319
  422MOL0     C55595   8.746   0.126   8.289  0.3027  0.4336  0.0204
  422MOL0     O55596   8.644   0.156   8.383  0.2789  0.5186  0.4351
  422MOL0     C55597   8.656   0.126   8.520 -0.0613  0.3208  0.8598
  422MOL0     C55598   8.537   0.145   8.592  0.6701  0.2389  0.4948
  422MOL0     C55599   8.536   0.111   8.728  0.5736  0.5500 -0.3673
  422MOL0     C55600   8.646   0.045   8.791  0.1951 -0.2802  0.2405
  422MOL0     C55601   8.637  -0.015   8.921 -0.8128  1.1192 -0.4307
  422MOL0     O55602   8.519  -0.015   8.985 -0.0136 -0.0509 -0.1270
  422MOL0     C55603   8.504  -0.090   9.095 -0.1570  0.1651  0.6633
  422MOL0     C55604   8.514  -0.230   9.098 -0.1022 -1.2472  0.7282
  422MOL0     C55605   8.479  -0.297   9.218  0.6187  0.7244 -0.4267
  422MOL0     C55606   8.433  -0.230   9.332  0.1370 -0.3093  0.1074
  422MOL0     O55607   8.395  -0.302   9.447 -0.0000  0.2547  0.2558
  422MOL0     C55608   8.261  -0.279   9.486  0.1772 -0.3356  0.5640
  422MOL0     C55609   8.216  -0.362   9.597 -0.1471 -0.9323  0.1950
  422MOL0     C55610   8.072  -0.331   9.633  0.5865 -0.1488 -1.1439
  422MOL0     C55611   8.011  -0.432   9.739 -0.8937  0.7252  0.2570
  422MOL0     C55612   7.921  -0.371   9.844 -0.1190 -0.5563  0.0890
  422MOL0     C55613   7.777  -0.357   9.786 -0.3818 -0.0193  0.2049
  422MOL0     C55614   7.673  -0.320   9.901 -0.6861 -0.4875  0.4781
  422MOL0     C55615   7.523  -0.344   9.852 -0.6997 -0.6843  0.4267
  422MOL0    Cl55616   7.407  -0.295   9.988  0.1114  0.4434 -0.0114
  422MOL0     C55617   8.434  -0.091   9.334  0.3083  0.4800 -0.3189
  422MOL0     C55618   8.462  -0.024   9.216  0.1762 -0.3604 -0.1087
  422MOL0     O55619   8.732  -0.080   8.962 -0.1064  0.0785  0.5357
  422MOL0     C55620   8.771   0.039   8.729  1.2567 -0.3585  0.0007
  422MOL0     C55621   8.774   0.070   8.588  0.8091 -0.2193 -1.2027
  422MOL0     N55622   8.840  -0.205   7.862  0.3002  0.1473  0.4420
  422MOL0     N55623   8.901  -0.251   7.750  0.5730 -0.3942 -1.1663
  422MOL0     C55624  10.050   0.588   7.519  1.6466  0.5215  0.6503
  422MOL0     C55625  10.165   0.612   7.447  0.6372  0.8702  0.8824
  422MOL0     C55626  10.504   0.553   7.172 -0.8007  0.3734  0.1759
  422MOL0     C55627  10.532   0.690   7.153 -0.4559 -0.1605  0.8512
  422MOL0     C55628  10.648   0.733   7.081  0.6978  0.0291  0.4329
  422MOL0     C55629  10.741   0.641   7.047  0.0792 -0.1037 -0.8656
  422MOL0     O55630  10.856   0.708   7.000 -0.4101 -0.3411 -0.4188
  422MOL0     C55631  10.965   0.616   6.960  1.6373 -0.5784  0.9140
  422MOL0     C55632  11.096   0.678   6.898 -0.1183 -0.3100  0.3231
  422MOL0     C55633  11.068   0.763   6.768  0.6818  0.4898  0.0996
  422MOL0     C55634  11.028   0.671   6.656  0.1249 -0.2616  0.7752
  422MOL0     C55635  11.115   0.560   6.625  1.1428  0.8106 -0.0645
  422MOL0     C55636  11.154   0.449   6.603  1.1074 -0.2440 -0.0477
  422MOL0     C55637  10.715   0.506   7.070  0.3099  0.4722 -0.5210
  422MOL0     C55638  10.602   0.461   7.136  0.5767  0.0209  0.4432
  422MOL0     H55639  10.112   0.446   7.164  1.9020  2.2077 -0.5145
  422MOL0     H55640   9.899   0.390   7.307  0.3713  0.7383 -1.3663
  422MOL0     H55641   9.822   0.265   7.465  0.4571  0.8353 -0.1122
  422MOL0     H55642   9.690   0.386   7.439 -2.8085  1.7594  2.9338
  422MOL0     H55643   9.606   0.374   7.643  1.9648  1.7222  1.0141
  422MOL0     H55644   9.732   0.254   7.704 -0.9224 -4.5554 -1.5095
  422MOL0     H55645   9.670   0.080   7.560 -1.7896 -0.7297  4.1717
  422MOL0     H55646   9.572   0.184   7.459 -2.9738  1.4175  0.7592
  422MOL0     H55647   9.507   0.133   7.756  3.6437 -0.2054 -0.0327
  422MOL0     H55648   9.409   0.215   7.630  0.1918 -0.0709 -0.0645
  422MOL0     H55649   9.467  -0.089   7.674 -3.1040 -2.0458 -1.4828
  422MOL0     H55650   9.434  -0.028   7.509 -2.4299 -0.9143 -0.0579
  422MOL0     H55651   9.222   0.047   7.565 -1.9385  0.0993  2.2145
  422MOL0     H55652   9.243   0.039   7.731 -1.1659 -0.2931  0.7755
  422MOL0     H55653   9.281  -0.206   7.560 -2.3935 -2.1237  0.1936
  422MOL0     H55654   9.263  -0.203   7.742  1.4518  0.3349  0.7007
  422MOL0     H55655   9.074  -0.269   7.572  3.2046 -0.5405 -1.8183
  422MOL0     H55656   9.049  -0.096   7.546 -2.9367 -1.8416 -0.3937
  422MOL0     H55657   9.044   0.038   7.817  0.6174 -0.1075 -0.9103
  422MOL0     H55658   8.716  -0.005   8.001 -0.3291 -3.5059  1.9679
  422MOL0     H55659   8.862   0.097   8.008 -1.6606  0.7131 -0.1454
  422MOL0     H55660   8.942  -0.054   8.196 -0.0980 -3.2707 -0.0239
  422MOL0     H55661   8.838  -0.179   8.164  3.4006  0.1558  3.2586
  422MOL0     H55662   8.646  -0.055   8.239  0.4349 -1.8123  1.7861
  422MOL0     H55663   8.781  -0.074   8.352 -0.7070 -0.9422 -0.6881
  422MOL0     H55664   8.722   0.185   8.200 -1.0962  0.5281  0.4426
  422MOL0     H55665   8.836   0.159   8.343 -0.8002  1.4516  1.3052
  422MOL0     H55666   8.447   0.195   8.559 -1.7033 -3.2155  1.3241
  422MOL0     H55667   8.438   0.124   8.773 -2.7921 -0.7423 -6.2928
  422MOL0     H55668   8.544  -0.288   9.012 -0.3278 -0.0313 -0.1892
  422MOL0     H55669   8.484  -0.405   9.219  2.9398  0.7234  2.2118
  422MOL0     H55670   8.199  -0.295   9.397  0.2794 -0.9208  0.5923
  422MOL0     H55671   8.254  -0.176   9.522  1.6950 -0.2344  0.6277
  422MOL0     H55672   8.282  -0.348   9.683  1.7771  0.1761 -1.3788
  422MOL0     H55673   8.212  -0.469   9.573  0.6537 -1.2206  1.2768
  422MOL0     H55674   8.007  -0.333   9.545 -4.7872  3.0959  2.1524
  422MOL0     H55675   8.080  -0.226   9.664 -0.5438 -0.1019 -0.9711
  422MOL0     H55676   7.963  -0.507   9.675  2.6838  0.1007 -1.9776
  422MOL0     H55677   8.096  -0.479   9.789 -0.7791 -1.2457 -1.6314
  422MOL0     H55678   7.969  -0.282   9.885  2.5179 -0.7831 -2.1416
  422MOL0     H55679   7.914  -0.447   9.922  1.0774  0.1108  0.8674
  422MOL0     H55680   7.745  -0.445   9.729 -1.3393  0.2237  0.3406
  422MOL0     H55681   7.771  -0.277   9.711  0.5373  0.5911  0.7670
  422MOL0     H55682   7.686  -0.373   9.996 -3.3403  3.6194  3.5195
  422MOL0     H55683   7.683  -0.212   9.915  1.6584 -0.1876 -2.5549
  422MOL0     H55684   7.522  -0.450   9.825  1.9907 -0.2065 -2.1047
  422MOL0     H55685   7.504  -0.289   9.759  1.1126 -1.7580 -0.6325
  422MOL0     H55686   8.393  -0.043   9.422  1.7425  1.3932 -0.1157
  422MOL0     H55687   8.456   0.083   9.205 -2.0843 -0.4029  0.3075
  422MOL0     H55688   8.857  -0.001   8.783  2.5147  1.7199 -0.3745
  422MOL0     H55689   8.861   0.061   8.524  0.3168  2.9824 -2.5159
  422MOL0     H55690  10.019   0.641   7.608 -0.0347  2.0882 -0.7773
  422MOL0     H55691  10.222   0.696   7.485  0.3641  1.7340 -0.5261
  422MOL0     H55692  10.462   0.763   7.193  0.4595  0.5729  1.1447
  422MOL0     H55693  10.665   0.839   7.061  1.3699 -0.1242  0.1567
  422MOL0     H55694  10.916   0.541   6.898  2.0446 -0.0234 -0.0944
  422MOL0     H55695  10.991   0.560   7.050  0.1794 -0.6137  1.3484
  422MOL0     H55696  11.145   0.726   6.983 -1.1438 -0.4609  1.0117
  422MOL0     H55697  11.174   0.605   6.878  0.9321  0.2923  2.0351
  422MOL0     H55698  11.159   0.813   6.732  1.5535  0.3605  2.0321
  422MOL0     H55699  10.985   0.833   6.784  1.0258  0.6660  1.1748
  422MOL0     H55700  10.925   0.643   6.682  0.2635 -1.7332 -0.1303
  422MOL0     H55701  11.032   0.727   6.562 -0.9105 -1.6259 -0.1311
  422MOL0     H55702  11.184   0.347   6.591 -0.5743 -0.7181 -0.4741
  422MOL0     H55703  10.790   0.434   7.040  0.9670  0.4900  1.0346
  422MOL0     H55704  10.593   0.353   7.147  3.4102 -0.2195  1.1659
  423MOL0     O55705   8.262  10.398   8.304 -0.5810  0.6642  0.0737
  423MOL0     C55706   8.356  10.392   8.388 -0.6321  0.5273 -1.1195
  423MOL0     O55707   8.406  10.507   8.446  0.9255  0.0254 -0.3649
  423MOL0     C55708   8.320  10.611   8.442 -1.3294  0.6654 -0.0258
  423MOL0     C55709   8.228  10.632   8.556  0.0915  0.1473  0.4697
  423MOL0     C55710   8.136  10.734   8.559 -0.0702  0.0267  0.0302
  423MOL0     C55711   8.119  10.802   8.435  1.6506 -0.5874 -0.0907
  423MOL0     O55712   8.006  10.889   8.419 -0.4309  0.5770  0.2986
  423MOL0     C55713   7.934  10.943   8.533 -0.2466  1.0080 -0.2091
  423MOL0     C55714   7.863  11.074   8.496 -0.6588 -0.6603 -0.0020
  423MOL0     C55715   7.745  11.092   8.584 -0.2388  0.0929 -0.6570
  423MOL0     C55716   7.765  11.109   8.737 -0.7525 -1.1216  0.0340
  423MOL0     C55717   7.636  11.144   8.791  0.5914 -0.0218 -0.0032
  423MOL0     C55718   7.631  11.139   8.947 -0.5912  0.0875  0.9409
  423MOL0     C55719   7.535  11.243   9.019 -0.5071  0.0945  0.2002
  423MOL0     C55720   7.393  11.223   8.960  0.4026  0.1086 -0.5872
  423MOL0     N55721   7.298  11.293   9.061 -0.2586  0.2753 -0.0692
  423MOL0     C55722   7.274  11.418   9.096 -0.0186  0.0810 -0.2236
  423MOL0     C55723   7.188  11.416   9.201 -0.2417  0.0811 -0.4501
  423MOL0     C55724   7.130  11.535   9.257  0.6638 -0.0090 -0.2184
  423MOL0     C55725   6.984  11.563   9.252  0.1754 -0.1559 -0.2407
  423MOL0     C55726   6.952  11.623   9.109  0.0097 -0.1303 -0.3169
  423MOL0     C55727   6.804  11.663   9.125  0.3074 -0.6861  0.3582
  423MOL0     O55728   6.810  11.803   9.156  0.2546  0.2389 -0.1922
  423MOL0     C55729   6.685  11.865   9.181 -0.6478  0.0397 -0.0811
  423MOL0     C55730   6.573  11.790   9.228  0.5188 -0.3310 -0.0348
  423MOL0     C55731   6.446  11.845   9.259 -1.2710  0.2696 -0.2127
  423MOL0     C55732   6.432  11.991   9.239 -0.3655  0.8569  0.2443
  423MOL0     C55733   6.312  12.061   9.290  0.5673  0.5793  0.7492
  423MOL0     O55734   6.324  12.193   9.307 -0.0506  0.2043 -0.2818
  423MOL0     C55735   6.213  12.254   9.356 -0.4606 -0.1138  0.2519
  423MOL0     C55736   6.106  12.297   9.286  0.6641  0.0728  0.8923
  423MOL0     C55737   5.999  12.352   9.363  0.4905  0.1641  0.8121
  423MOL0     C55738   5.998  12.360   9.501  0.5008  0.4550  0.4809
  423MOL0     O55739   5.899  12.440   9.546 -0.1388 -0.3374 -0.6322
  423MOL0     C55740   5.941  12.579   9.565 -0.9849  0.2376 -0.5094
  423MOL0     C55741   5.812  12.645   9.605  0.9061 -0.5090 -0.3001
  423MOL0     C55742   5.837  12.795   9.635 -0.0014 -0.3871  0.5635
  423MOL0     C55743   5.823  12.873   9.505  0.1663 -0.9202  0.9189
  423MOL0     C55744   5.877  13.020   9.525  0.3791  0.3423 -0.2361
  423MOL0     C55745   5.854  13.102   9.399 -0.0865 -1.3137  0.2278
  423MOL0     C55746   5.960  13.214   9.384  0.3671  0.2862 -0.0919
  423MOL0     C55747   5.960  13.330   9.483 -0.0293  0.2667  0.4770
  423MOL0    Cl55748   5.802  13.393   9.522 -0.2381 -0.3410 -0.2490
  423MOL0     C55749   6.115  12.321   9.569 -0.3604  0.1556 -0.1440
  423MOL0     C55750   6.217  12.274   9.495  0.1624 -0.4759 -0.5989
  423MOL0     O55751   6.203  11.995   9.301 -1.0343  0.2707  0.4641
  423MOL0     C55752   6.541  12.064   9.188  0.8252 -0.7582  0.4838
  423MOL0     C55753   6.669  12.007   9.164  0.4006  1.1469  0.2004
  423MOL0     N55754   7.166  11.278   9.237  0.1875  0.2230  0.2395
  423MOL0     N55755   7.235  11.211   9.150 -0.4562 -0.0670 -0.0728
  423MOL0     C55756   8.211  10.787   8.322  0.0014  0.2712 -0.3311
  423MOL0     C55757   8.317  10.696   8.337  1.3379 -0.9937 -0.5830
  423MOL0     C55758   8.422  10.261   8.416  0.1663 -0.9118  0.6024
  423MOL0     C55759   8.531  10.259   8.507 -0.0950 -1.0512  0.4224
  423MOL0     C55760   8.600  10.139   8.533  0.6996  0.2145 -1.1734
  423MOL0     C55761   8.558  10.021   8.470  0.4308  0.5276 -0.0706
  423MOL0     O55762   8.630   9.905   8.484 -0.6889  0.7071  0.3379
  423MOL0     C55763   8.573   9.771   8.496 -0.4291 -0.6844  0.0228
  423MOL0     C55764   8.654   9.688   8.593 -0.4815 -0.5595 -0.6749
  423MOL0     C55765   8.790   9.651   8.547 -0.7960  0.0080 -0.4982
  423MOL0     C55766   8.881   9.597   8.652 -0.7824 -0.1817 -0.7798
  423MOL0     C55767   8.932   9.694   8.754 -0.2732  0.3932 -0.4438
  423MOL0     C55768   8.966   9.769   8.846  0.3324 -0.2745 -1.0435
  423MOL0     C55769   8.446  10.025   8.383 -0.2047  0.3089  0.1469
  423MOL0     C55770   8.373  10.143   8.363  0.3517 -0.7390  0.0130
  423MOL0     H55771   8.239  10.558   8.635 -1.9363  0.3730  1.0211
  423MOL0     H55772   8.064  10.741   8.639 -1.1762  1.4012 -1.0279
  423MOL0     H55773   7.988  10.959   8.626 -0.8650  1.4650  0.0792
  423MOL0     H55774   7.859  10.868   8.559  1.6324 -0.5656  0.9768
  423MOL0     H55775   7.834  11.090   8.392 -0.1044 -4.9161 -1.0160
  423MOL0     H55776   7.939  11.146   8.526 -1.4858 -0.3145  1.3449
  423MOL0     H55777   7.673  11.013   8.561 -1.7701  1.3079 -0.2548
  423MOL0     H55778   7.691  11.178   8.542 -3.8539 -1.8821 -0.5068
  423MOL0     H55779   7.800  11.015   8.780 -3.3406 -2.2356 -0.1375
  423MOL0     H55780   7.825  11.199   8.755  0.3341 -1.6060 -1.1101
  423MOL0     H55781   7.562  11.078   8.746  0.2576  1.6893 -2.1406
  423MOL0     H55782   7.591  11.238   8.758 -1.5999 -1.4674 -1.4217
  423MOL0     H55783   7.731  11.151   8.989 -0.5931 -1.3040  1.3786
  423MOL0     H55784   7.613  11.035   8.975 -0.0823 -0.5279 -0.8659
  423MOL0     H55785   7.539  11.235   9.128  1.9223  2.1423  0.3623
  423MOL0     H55786   7.567  11.346   9.000 -1.2026  0.9624  3.1708
  423MOL0     H55787   7.369  11.117   8.950 -0.1196  0.2455 -0.8545
  423MOL0     H55788   7.385  11.265   8.859  1.5057 -4.0083 -2.6032
  423MOL0     H55789   7.309  11.500   9.034  0.6544 -1.4609 -1.9695
  423MOL0     H55790   7.188  11.622   9.224  0.1691  0.0304 -1.0086
  423MOL0     H55791   7.153  11.527   9.363  1.3417 -3.0558 -0.5213
  423MOL0     H55792   6.962  11.630   9.336 -1.3221 -0.5798 -0.2682
  423MOL0     H55793   6.924  11.474   9.275 -0.0746 -0.2739 -1.2978
  423MOL0     H55794   7.013  11.709   9.082 -1.6095  1.9464  2.1958
  423MOL0     H55795   6.962  11.544   9.034  2.4378 -0.1318 -0.0655
  423MOL0     H55796   6.761  11.592   9.196 -1.5255 -2.3774 -2.2440
  423MOL0     H55797   6.749  11.644   9.032 -1.0550 -1.7217  1.3177
  423MOL0     H55798   6.568  11.683   9.243 -0.8846 -0.0415  2.0028
  423MOL0     H55799   6.355  11.794   9.289 -1.4255 -1.1737 -2.8451
  423MOL0     H55800   6.089  12.274   9.181  1.9216 -0.0490  0.6914
  423MOL0     H55801   5.915  12.388   9.304  0.4741 -1.8101 -0.4569
  423MOL0     H55802   5.984  12.625   9.475  2.3925  0.4731  1.0553
  423MOL0     H55803   6.007  12.600   9.650  1.2994 -1.3738 -1.7743
  423MOL0     H55804   5.774  12.599   9.697 -1.3294  2.0501  0.1852
  423MOL0     H55805   5.730  12.628   9.534  1.2560 -1.9169 -0.4016
  423MOL0     H55806   5.935  12.821   9.677  0.9970 -3.3641  0.2767
  423MOL0     H55807   5.757  12.834   9.699  1.7524 -0.4435  2.9462
  423MOL0     H55808   5.875  12.823   9.423 -3.6185 -2.1886 -0.9285
  423MOL0     H55809   5.716  12.861   9.484  0.5255 -1.3316 -0.8421
  423MOL0     H55810   5.981  13.016   9.558  0.1688  0.8473  0.5072
  423MOL0     H55811   5.810  13.066   9.598 -1.3198 -2.5336  0.1823
  423MOL0     H55812   5.753  13.142   9.387  0.9795  1.8705  0.7567
  423MOL0     H55813   5.876  13.032   9.317  4.1384 -4.2540  3.4415
  423MOL0     H55814   6.058  13.168   9.378  0.2040 -0.4212  2.0363
  423MOL0     H55815   5.936  13.260   9.287 -1.0291  1.5176  0.7744
  423MOL0     H55816   6.036  13.408   9.472 -0.8965  1.1460  0.5878
  423MOL0     H55817   5.973  13.282   9.581 -2.5494  2.2962  1.9479
  423MOL0     H55818   6.114  12.345   9.675 -2.0863  0.3948 -0.1862
  423MOL0     H55819   6.294  12.233   9.559 -2.1911 -1.8560  1.5391
  423MOL0     H55820   6.526  12.168   9.162  0.8038 -0.1207  2.8583
  423MOL0     H55821   6.750  12.068   9.124  2.4694 -0.4428  1.7425
  423MOL0     H55822   8.211  10.859   8.241  1.1378 -1.7770 -2.2410
  423MOL0     H55823   8.373  10.696   8.244 -0.0919 -0.6624 -1.4787
  423MOL0     H55824   8.561  10.352   8.554  1.2389  1.0913 -4.1232
  423MOL0     H55825   8.688  10.136   8.596  0.8700 -1.4806 -1.4337
  423MOL0     H55826   8.579   9.726   8.397  0.3032  1.4515 -0.9681
  423MOL0     H55827   8.469   9.782   8.529 -0.0069 -1.1775  1.5676
  423MOL0     H55828   8.673   9.739   8.688  0.1028 -2.1161  0.0893
  423MOL0     H55829   8.599   9.598   8.622 -1.4403 -0.0141 -0.7712
  423MOL0     H55830   8.833   9.740   8.499 -1.1764  0.6462  0.3341
  423MOL0     H55831   8.779   9.575   8.469 -1.2438  1.3326 -1.7609
  423MOL0     H55832   8.831   9.528   8.720  1.5566 -0.7885  0.4370
  423MOL0     H55833   8.963   9.550   8.597  0.3877  2.1301 -1.1319
  423MOL0     H55834   9.001   9.829   8.928  2.1264  1.8010 -3.1910
  423MOL0     H55835   8.415   9.933   8.333  1.1190  0.6042 -1.2573
  423MOL0     H55836   8.282  10.151   8.304  0.0099  1.9029  0.7409
  424MOL0     O55837  11.313   6.906   0.110  0.2851  0.1765  0.1997
  424MOL0     C55838  11.328   7.022   0.139 -0.1064 -0.2846 -0.7427
  424MOL0     O55839  11.415   7.111   0.084  0.1683  0.0846 -0.1086
  424MOL0     C55840  11.491   7.065  -0.021 -0.6198  0.0128 -0.9646
  424MOL0     C55841  11.461   7.102  -0.157  0.1460 -0.5727  0.1567
  424MOL0     C55842  11.545   7.067  -0.261 -0.8959  0.5708  0.6334
  424MOL0     C55843  11.657   6.986  -0.239 -0.0854 -0.1747  0.6136
  424MOL0     O55844  11.717   6.930  -0.345  0.1667  0.2538 -0.2626
  424MOL0     C55845  11.857   6.958  -0.339  0.0119 -0.0792 -0.4595
  424MOL0     C55846  11.948   6.846  -0.380 -0.1307  0.3693  0.1446
  424MOL0     C55847  12.095   6.838  -0.342  0.1126  1.0331 -0.1111
  424MOL0     C55848  12.144   6.690  -0.351 -1.1044  0.0657 -0.2381
  424MOL0     C55849  12.294   6.673  -0.308  0.1997  1.3107  1.1504
  424MOL0     C55850  12.347   6.528  -0.307  0.5548  0.3724  0.3713
  424MOL0     C55851  12.358   6.477  -0.454  0.1723 -0.4961  0.4179
  424MOL0     C55852  12.451   6.354  -0.456  0.9404 -0.5022 -0.0680
  424MOL0     N55853  12.578   6.359  -0.397  0.4914 -0.7494 -0.1223
  424MOL0     C55854  12.702   6.386  -0.455  0.4450 -0.2181  1.1911
  424MOL0     C55855  12.795   6.336  -0.365  0.5331  0.4130  0.1452
  424MOL0     C55856  12.939   6.339  -0.370 -0.2272  0.5552 -0.4253
  424MOL0     C55857  13.007   6.236  -0.287 -0.4389  0.0865 -0.1546
  424MOL0     C55858  13.146   6.196  -0.336 -0.7717  0.6414 -0.1675
  424MOL0     C55859  13.218   6.092  -0.248 -0.2510  0.0084  0.1216
  424MOL0     O55860  13.358   6.118  -0.251  0.3784 -0.3591 -0.2299
  424MOL0     C55861  13.438   6.070  -0.347  0.0419  0.0578  0.4191
  424MOL0     C55862  13.577   6.068  -0.306 -0.8203  0.4106  1.1008
  424MOL0     C55863  13.672   6.003  -0.395  0.3145 -0.7330  0.5838
  424MOL0     C55864  13.626   5.938  -0.519  0.6894 -0.0891 -0.2838
  424MOL0     C55865  13.729   5.876  -0.611  0.2946 -0.2459 -0.2729
  424MOL0     O55866  13.692   5.813  -0.723  1.1626 -0.0719 -0.0290
  424MOL0     C55867  13.766   5.732  -0.803 -0.7520 -0.2401  0.4997
  424MOL0     C55868  13.895   5.761  -0.847 -0.6291 -0.0815 -0.2752
  424MOL0     C55869  13.980   5.670  -0.915  0.0420  0.0112  0.3200
  424MOL0     C55870  13.927   5.544  -0.957  0.5260  0.6683  0.6162
  424MOL0     O55871  14.003   5.457  -1.035 -0.0441 -0.0568 -0.3520
  424MOL0     C55872  14.150   5.480  -1.011  0.7665  0.0797 -0.0859
  424MOL0     C55873  14.230   5.384  -1.095 -0.3479 -0.2331  0.7679
  424MOL0     C55874  14.377   5.434  -1.102  0.7044 -0.0041 -0.8690
  424MOL0     C55875  14.467   5.342  -1.180 -0.2643 -0.1523 -0.4443
  424MOL0     C55876  14.589   5.415  -1.227  0.0575  0.0418  0.1504
  424MOL0     C55877  14.698   5.324  -1.285 -0.1503  0.3511  0.3159
  424MOL0     C55878  14.809   5.421  -1.311 -0.7220 -0.5761 -0.1310
  424MOL0     C55879  14.894   5.386  -1.433  0.7758 -0.6390  1.5271
  424MOL0    Cl55880  15.009   5.241  -1.416 -0.4894  0.2287 -0.0745
  424MOL0     C55881  13.800   5.516  -0.920 -0.3511  0.3257  0.4808
  424MOL0     C55882  13.723   5.601  -0.837  0.1237 -1.3444 -0.2103
  424MOL0     O55883  13.840   5.870  -0.568  0.6204 -0.5051 -0.2182
  424MOL0     C55884  13.488   5.947  -0.550 -0.2330  0.3923  0.4136
  424MOL0     C55885  13.394   6.012  -0.472 -0.6123 -0.4496 -0.4806
  424MOL0     N55886  12.725   6.272  -0.261 -0.3424 -0.3611  0.2377
  424MOL0     N55887  12.598   6.310  -0.279 -0.3322  0.5931 -0.5246
  424MOL0     C55888  11.691   6.958  -0.101  0.7284 -0.6819  0.7851
  424MOL0     C55889  11.610   6.988   0.004  0.1742 -0.2360 -0.3819
  424MOL0     C55890  11.262   7.057   0.270 -0.7763 -1.1460 -0.5487
  424MOL0     C55891  11.330   7.151   0.349 -0.4935  0.1043  0.0345
  424MOL0     C55892  11.274   7.193   0.467  1.0055  1.1912 -0.9064
  424MOL0     C55893  11.151   7.140   0.511  0.3254  0.0921  0.3495
  424MOL0     O55894  11.103   7.170   0.636 -0.4292  0.0243  0.3595
  424MOL0     C55895  10.965   7.223   0.653  0.2138 -0.1887 -0.8316
  424MOL0     C55896  10.953   7.376   0.652  0.3091  1.0111  0.2211
  424MOL0     C55897  10.824   7.421   0.720  0.1146 -0.1154 -0.5907
  424MOL0     C55898  10.817   7.578   0.699 -0.4611  0.2700  0.0117
  424MOL0     C55899  10.692   7.632   0.750  0.7704 -0.7542 -0.6358
  424MOL0     C55900  10.591   7.676   0.799  0.0219  0.2187 -1.4103
  424MOL0     C55901  11.089   7.047   0.443 -0.4290  0.0097  0.6832
  424MOL0     C55902  11.142   7.002   0.321 -0.4283 -0.0337  0.5578
  424MOL0     H55903  11.372   7.164  -0.169 -0.9400 -2.3606 -1.6162
  424MOL0     H55904  11.529   7.089  -0.367  2.9682  0.1293 -0.1854
  424MOL0     H55905  11.888   6.995  -0.240 -3.6719  2.7793 -0.1647
  424MOL0     H55906  11.866   7.038  -0.413  0.5387 -1.8254 -2.3688
  424MOL0     H55907  11.952   6.840  -0.489  0.8859  1.5405  0.1024
  424MOL0     H55908  11.891   6.757  -0.350 -1.0465 -0.0109 -2.4370
  424MOL0     H55909  12.113   6.866  -0.238 -2.1210 -0.0828  0.6387
  424MOL0     H55910  12.156   6.894  -0.414 -1.6401  1.7966 -1.0747
  424MOL0     H55911  12.093   6.632  -0.275 -0.9361 -0.8370 -0.7953
  424MOL0     H55912  12.126   6.651  -0.452 -1.6644  3.8044 -1.7596
  424MOL0     H55913  12.320   6.716  -0.211  1.9489 -0.9027  1.7695
  424MOL0     H55914  12.358   6.722  -0.382  1.1280 -1.8871 -0.3592
  424MOL0     H55915  12.270   6.473  -0.251 -0.6045 -1.5333 -2.8277
  424MOL0     H55916  12.443   6.525  -0.255  1.8763 -0.1257 -1.9692
  424MOL0     H55917  12.260   6.464  -0.501 -0.0416  1.8842  0.0791
  424MOL0     H55918  12.404   6.552  -0.519 -0.2120 -0.9277 -0.3617
  424MOL0     H55919  12.456   6.323  -0.561  3.7037 -1.5612  0.2899
  424MOL0     H55920  12.391   6.277  -0.408  1.4482 -0.4890  0.5950
  424MOL0     H55921  12.704   6.436  -0.551 -0.3518  0.6013  1.5728
  424MOL0     H55922  12.969   6.441  -0.346  2.6147 -0.5592  1.2038
  424MOL0     H55923  12.967   6.330  -0.475  1.2917  1.0646 -0.0833
  424MOL0     H55924  12.946   6.146  -0.280 -0.0516 -0.2749 -1.1956
  424MOL0     H55925  13.019   6.273  -0.184 -2.6437 -1.2912  0.6566
  424MOL0     H55926  13.134   6.133  -0.425 -2.5116 -2.9766  2.4069
  424MOL0     H55927  13.212   6.282  -0.352  1.2488 -0.4908  1.6522
  424MOL0     H55928  13.197   5.992  -0.287 -0.2103  1.1602 -3.1444
  424MOL0     H55929  13.188   6.098  -0.143  4.1125  0.0237  1.6024
  424MOL0     H55930  13.610   6.100  -0.208 -1.2117  2.5626  0.5699
  424MOL0     H55931  13.778   6.012  -0.372  0.2386  1.8979  0.1930
  424MOL0     H55932  13.944   5.852  -0.814  0.2665 -0.1907 -1.2150
  424MOL0     H55933  14.080   5.702  -0.941 -0.4506  0.9692 -0.4976
  424MOL0     H55934  14.168   5.462  -0.904  0.1199 -2.6850 -0.3549
  424MOL0     H55935  14.179   5.578  -1.048  2.5551  0.6736  2.5786
  424MOL0     H55936  14.181   5.361  -1.190  0.2905  1.7637 -0.0918
  424MOL0     H55937  14.233   5.294  -1.033  2.4850  0.5627  1.9049
  424MOL0     H55938  14.411   5.447  -0.999 -3.6096 -2.3247  1.1021
  424MOL0     H55939  14.399   5.533  -1.144  5.6267  0.0537  1.1866
  424MOL0     H55940  14.487   5.254  -1.118  0.4718  0.6502  0.4741
  424MOL0     H55941  14.425   5.305  -1.275  0.3647 -0.8730 -0.4619
  424MOL0     H55942  14.613   5.489  -1.150 -1.2598  2.5838 -1.7294
  424MOL0     H55943  14.555   5.483  -1.306 -1.8629 -0.6227  0.3382
  424MOL0     H55944  14.647   5.286  -1.374  0.1026 -1.5619  0.9291
  424MOL0     H55945  14.733   5.246  -1.215  0.3252 -1.9013 -2.2621
  424MOL0     H55946  14.774   5.522  -1.335  3.3499  0.7737 -1.1434
  424MOL0     H55947  14.872   5.427  -1.221 -0.0856  0.0109 -0.6009
  424MOL0     H55948  14.958   5.474  -1.449 -2.0447  0.7845 -4.1684
  424MOL0     H55949  14.824   5.363  -1.513  0.2224 -1.5986  2.2632
  424MOL0     H55950  13.762   5.416  -0.941 -1.8829  1.4434 -2.8400
  424MOL0     H55951  13.626   5.572  -0.797 -0.6257 -1.6223 -2.1117
  424MOL0     H55952  13.449   5.905  -0.641 -1.4067 -1.8429  1.8632
  424MOL0     H55953  13.288   6.014  -0.494 -0.8793 -2.1430  0.4820
  424MOL0     H55954  11.778   6.897  -0.081  1.2055 -0.3734 -0.2488
  424MOL0     H55955  11.622   6.949   0.105  0.6599 -0.7409 -0.6316
  424MOL0     H55956  11.429   7.192   0.336 -1.1908  1.7218 -0.4779
  424MOL0     H55957  11.325   7.262   0.534  1.2533  1.8772 -1.7888
  424MOL0     H55958  10.931   7.189   0.751  2.2639 -1.3968 -0.4702
  424MOL0     H55959  10.901   7.183   0.575  0.0308  0.0994 -0.8314
  424MOL0     H55960  11.037   7.421   0.706  0.4525 -0.0450  0.9126
  424MOL0     H55961  10.944   7.403   0.547 -0.7012  1.0852  0.3168
  424MOL0     H55962  10.826   7.388   0.825 -0.9889  0.7155 -0.2899
  424MOL0     H55963  10.735   7.368   0.686  0.6851 -1.4446 -0.1117
  424MOL0     H55964  10.904   7.630   0.740  2.1581 -1.9353 -2.3319
  424MOL0     H55965  10.821   7.598   0.592 -0.6357  3.4125  0.4904
  424MOL0     H55966  10.506   7.717   0.849  1.1875  0.0407  0.8990
  424MOL0     H55967  10.996   6.998   0.471 -0.5678 -0.1114  0.0320
  424MOL0     H55968  11.095   6.923   0.264  0.0791 -1.0638  1.5199
  425MOL0     O55969   5.360   1.078   7.755  0.0141 -0.5076 -0.0208
  425MOL0     C55970   5.454   1.080   7.830 -0.7670 -0.0467 -1.6267
  425MOL0     O55971   5.587   1.062   7.799  0.4576  0.2124 -0.3772
  425MOL0     C55972   5.623   1.035   7.674 -0.3613 -0.8207  0.9857
  425MOL0     C55973   5.579   0.924   7.595  0.2078 -0.0728 -1.4641
  425MOL0     C55974   5.650   0.877   7.491 -0.0282  0.6188  0.4012
  425MOL0     C55975   5.762   0.945   7.449  0.2478 -0.4421 -0.4150
  425MOL0     O55976   5.827   0.879   7.348  0.6154  0.0847 -0.6919
  425MOL0     C55977   5.939   0.952   7.295  0.2764 -0.6868 -0.3716
  425MOL0     C55978   5.974   0.867   7.175  0.4477  0.8117  0.3893
  425MOL0     C55979   6.083   0.766   7.208 -0.5653  0.1839 -0.1757
  425MOL0     C55980   6.125   0.693   7.077  0.1980 -1.2419  0.1511
  425MOL0     C55981   6.240   0.595   7.095  0.3546 -0.3876  0.1985
  425MOL0     C55982   6.297   0.561   6.956 -0.4202  0.0588 -0.4369
  425MOL0     C55983   6.401   0.443   6.949 -0.9952  0.2698  0.2029
  425MOL0     C55984   6.554   0.472   6.967 -1.3823 -0.6847  0.3648
  425MOL0     N55985   6.581   0.590   7.054  0.0184 -0.5838  0.3608
  425MOL0     C55986   6.571   0.604   7.192  0.4970  0.3250  0.0884
  425MOL0     C55987   6.604   0.725   7.237 -0.1453  0.3951 -0.1111
  425MOL0     C55988   6.571   0.783   7.371  0.1802  0.6422  0.4918
  425MOL0     C55989   6.421   0.818   7.394 -0.7638  0.0664  0.4953
  425MOL0     C55990   6.405   0.897   7.528  0.6548  1.1147 -0.8079
  425MOL0     C55991   6.263   0.954   7.533 -0.2796 -0.1523 -0.3697
  425MOL0     O55992   6.241   1.064   7.444 -0.2106 -0.1476 -0.4687
  425MOL0     C55993   6.277   1.193   7.485  0.3914 -0.4329 -0.0952
  425MOL0     C55994   6.217   1.301   7.425  0.3212  0.1265  0.2705
  425MOL0     C55995   6.253   1.430   7.461  0.4669 -0.2393  0.1510
  425MOL0     C55996   6.347   1.459   7.558  0.2622 -0.6524  0.3920
  425MOL0     C55997   6.374   1.603   7.589  0.1740  0.2528 -0.4563
  425MOL0     O55998   6.444   1.621   7.710 -0.0823  0.1642 -0.0947
  425MOL0     C55999   6.468   1.744   7.773  0.1211 -0.8949  0.5184
  425MOL0     C56000   6.582   1.758   7.866  0.7119 -0.7509  0.9051
  425MOL0     C56001   6.590   1.867   7.944  1.0564 -0.6610 -0.3628
  425MOL0     C56002   6.493   1.966   7.956 -0.3057  1.2177 -0.4219
  425MOL0     O56003   6.499   2.061   8.045 -0.2075 -0.1312 -0.3900
  425MOL0     C56004   6.596   2.165   8.023  0.4429  0.7108  0.5980
  425MOL0     C56005   6.528   2.283   7.947  0.4909 -0.0264  0.7680
  425MOL0     C56006   6.402   2.342   8.015  0.4606 -0.7914 -0.6322
  425MOL0     C56007   6.367   2.487   7.984  0.2769  0.6445  0.1703
  425MOL0     C56008   6.224   2.508   8.033  0.1086 -0.2417  0.8512
  425MOL0     C56009   6.187   2.660   8.006 -0.4574 -0.0531  1.1029
  425MOL0     C56010   6.185   2.737   7.867 -0.2173 -0.2989 -0.6588
  425MOL0     C56011   6.114   2.666   7.758  0.0634  0.0047 -0.4086
  425MOL0    Cl56012   6.088   2.762   7.620 -0.3178 -0.4915 -0.0036
  425MOL0     C56013   6.373   1.948   7.875 -0.4713  1.2307  0.6022
  425MOL0     C56014   6.367   1.850   7.779  1.4412  0.2245  0.8907
  425MOL0     O56015   6.332   1.693   7.516  0.4145 -0.4310 -0.2698
  425MOL0     C56016   6.406   1.351   7.625  0.4129  0.3395 -0.0705
  425MOL0     C56017   6.360   1.221   7.592  0.3207 -0.6082 -0.9424
  425MOL0     N56018   6.645   0.795   7.120 -0.1566  1.1674 -0.1249
  425MOL0     N56019   6.627   0.711   7.015  0.4123 -0.3075 -0.3089
  425MOL0     C56020   5.799   1.065   7.513 -0.5078 -0.6999  0.3034
  425MOL0     C56021   5.734   1.108   7.629  0.0320  0.2448  0.9140
  425MOL0     C56022   5.430   1.115   7.970  0.5749 -0.7019  0.9752
  425MOL0     C56023   5.531   1.145   8.053  0.0286  0.1742 -0.0248
  425MOL0     C56024   5.511   1.179   8.186 -0.0490  0.0711  1.0269
  425MOL0     C56025   5.389   1.182   8.245 -0.1987 -0.0387 -0.5963
  425MOL0     O56026   5.388   1.205   8.379 -0.0638 -0.8263  0.3334
  425MOL0     C56027   5.267   1.261   8.420  0.6132 -1.2346  0.7921
  425MOL0     C56028   5.282   1.307   8.561 -1.5790  0.2800 -0.1044
  425MOL0     C56029   5.284   1.200   8.666 -0.0535 -0.3747  0.1858
  425MOL0     C56030   5.331   1.248   8.814  0.0662  0.0500  0.3711
  425MOL0     C56031   5.260   1.360   8.869 -0.4093 -0.5707  0.3822
  425MOL0     C56032   5.182   1.437   8.926 -0.1719 -0.2747 -0.1834
  425MOL0     C56033   5.278   1.149   8.161 -0.8367  0.3083  0.2618
  425MOL0     C56034   5.302   1.110   8.031  0.6948  0.2342  0.0761
  425MOL0     H56035   5.494   0.870   7.636  0.1332  1.5451  0.7057
  425MOL0     H56036   5.610   0.786   7.449 -1.6429  1.2001  0.6006
  425MOL0     H56037   6.021   0.950   7.367  0.7640  0.4722 -0.8678
  425MOL0     H56038   5.905   1.048   7.255  4.1415  1.7630  1.6184
  425MOL0     H56039   6.008   0.926   7.089  0.7246  1.3203  0.8403
  425MOL0     H56040   5.896   0.799   7.140 -0.0047  1.3233  0.3908
  425MOL0     H56041   6.050   0.696   7.285  0.1161  0.0490 -0.0006
  425MOL0     H56042   6.173   0.812   7.249 -1.3238  1.0315  0.5708
  425MOL0     H56043   6.040   0.645   7.026 -1.0349  1.2771 -0.3352
  425MOL0     H56044   6.159   0.765   7.002  0.0615 -2.2147 -0.8787
  425MOL0     H56045   6.210   0.510   7.157 -0.4872  0.8370  1.5483
  425MOL0     H56046   6.312   0.645   7.160 -0.6939  2.9380 -1.0084
  425MOL0     H56047   6.327   0.651   6.903 -0.5660  0.8318  0.7734
  425MOL0     H56048   6.211   0.529   6.895 -0.4967 -0.0652 -0.2641
  425MOL0     H56049   6.372   0.369   7.024 -2.7253  1.0330  0.3356
  425MOL0     H56050   6.396   0.391   6.853  1.3705  0.9945 -0.3628
  425MOL0     H56051   6.590   0.499   6.867 -0.9038  1.3681  1.0464
  425MOL0     H56052   6.614   0.392   7.011  0.6703  0.4019 -0.3441
  425MOL0     H56053   6.534   0.525   7.256 -0.2941  1.9377  1.7422
  425MOL0     H56054   6.614   0.883   7.380  1.6789  0.1139 -0.4481
  425MOL0     H56055   6.608   0.712   7.446 -1.2243 -0.9061 -0.2167
  425MOL0     H56056   6.362   0.726   7.389 -1.7359  0.6857  0.2519
  425MOL0     H56057   6.401   0.883   7.308 -1.4720 -0.6047  0.1338
  425MOL0     H56058   6.421   0.826   7.610 -2.8198  0.7894 -0.2284
  425MOL0     H56059   6.481   0.974   7.541  0.6031  0.8255  1.6956
  425MOL0     H56060   6.235   0.985   7.634  4.1022  1.5602  0.5611
  425MOL0     H56061   6.193   0.885   7.487 -0.7776  1.3213 -1.9057
  425MOL0     H56062   6.142   1.289   7.347 -1.4062 -0.4458  1.9169
  425MOL0     H56063   6.204   1.515   7.415  1.2067  1.4571  2.2838
  425MOL0     H56064   6.654   1.678   7.873  1.0444 -0.4662  0.7705
  425MOL0     H56065   6.674   1.881   8.010  1.8780  1.7609 -1.7866
  425MOL0     H56066   6.681   2.118   7.972  0.3813  1.2128  0.0279
  425MOL0     H56067   6.637   2.196   8.120 -0.3525  1.6228  0.6527
  425MOL0     H56068   6.503   2.265   7.842 -0.7092  1.1716  0.8171
  425MOL0     H56069   6.594   2.369   7.929 -1.4625  1.2460 -0.7970
  425MOL0     H56070   6.426   2.332   8.121  2.4733 -1.1802 -1.0675
  425MOL0     H56071   6.317   2.279   7.986 -0.8241  1.1994 -1.3523
  425MOL0     H56072   6.443   2.554   8.025  2.1411  0.0243 -2.0397
  425MOL0     H56073   6.365   2.499   7.875 -1.7937 -2.3757 -0.2605
  425MOL0     H56074   6.200   2.498   8.139 -5.2985  2.4985  0.2320
  425MOL0     H56075   6.155   2.439   7.984  1.7197 -0.8649 -0.6574
  425MOL0     H56076   6.244   2.722   8.075 -2.7663 -0.9284  3.9787
  425MOL0     H56077   6.085   2.667   8.046 -0.7575 -1.2690  0.5825
  425MOL0     H56078   6.153   2.840   7.883  1.5166 -0.1304  2.6103
  425MOL0     H56079   6.286   2.732   7.825 -1.4985 -1.6867 -3.9281
  425MOL0     H56080   6.015   2.643   7.799  1.0991 -0.4307  2.0214
  425MOL0     H56081   6.165   2.570   7.741  1.8270  0.4998  1.6536
  425MOL0     H56082   6.300   2.029   7.876  0.3811  2.0191  2.2085
  425MOL0     H56083   6.279   1.849   7.715  0.9739 -1.2166  1.5121
  425MOL0     H56084   6.488   1.361   7.695  2.4807  2.8097 -2.5796
  425MOL0     H56085   6.408   1.139   7.645  1.6566 -0.1885 -1.4547
  425MOL0     H56086   5.886   1.116   7.473  0.0181 -0.9256  1.1351
  425MOL0     H56087   5.759   1.197   7.686  1.1944  0.7416 -0.3321
  425MOL0     H56088   5.636   1.150   8.026 -0.6346 -2.0847 -3.7889
  425MOL0     H56089   5.606   1.206   8.231  0.5094  2.0927 -1.1326
  425MOL0     H56090   5.188   1.186   8.412  0.7541 -1.1798 -2.1546
  425MOL0     H56091   5.244   1.348   8.358 -0.8454 -2.2656 -0.1736
  425MOL0     H56092   5.374   1.365   8.574 -0.5045 -1.3501 -0.2467
  425MOL0     H56093   5.193   1.369   8.578 -0.7646  1.8474 -1.2512
  425MOL0     H56094   5.354   1.128   8.626 -0.0243 -0.1253 -0.2164
  425MOL0     H56095   5.183   1.157   8.670 -0.9390  1.2078 -2.5657
  425MOL0     H56096   5.312   1.160   8.875 -2.7062 -0.2453 -0.7879
  425MOL0     H56097   5.438   1.265   8.793 -0.4446 -0.8646 -3.9035
  425MOL0     H56098   5.123   1.510   8.978  0.1082 -1.7216  2.3542
  425MOL0     H56099   5.176   1.156   8.195 -0.4950 -0.9471  1.6542
  425MOL0     H56100   5.214   1.094   7.970  1.4326  1.1036 -1.2504
  426MOL0     O56101   4.656   4.162   6.764 -0.2399 -0.4836  0.1760
  426MOL0     C56102   4.638   4.041   6.789  0.0349  0.3987  0.1239
  426MOL0     O56103   4.527   3.980   6.829  0.6907  0.4749  1.2444
  426MOL0     C56104   4.415   4.047   6.860  0.2905  0.9399 -0.6117
  426MOL0     C56105   4.292   4.007   6.814  0.4742  0.8459  0.2095
  426MOL0     C56106   4.179   4.084   6.840  0.4191 -0.2460 -0.5131
  426MOL0     C56107   4.180   4.205   6.907  0.4949  0.2234 -0.2154
  426MOL0     O56108   4.075   4.291   6.910 -0.1267 -0.5891 -0.5116
  426MOL0     C56109   4.059   4.388   7.015 -0.8337  0.1481  0.4615
  426MOL0     C56110   3.912   4.418   7.038  0.3003  1.0343 -1.5707
  426MOL0     C56111   3.849   4.499   6.931  0.6360  0.5660  0.2753
  426MOL0     C56112   3.703   4.523   6.967  0.6904  0.0183 -0.3076
  426MOL0     C56113   3.628   4.597   6.865  0.1783 -0.0203 -0.1524
  426MOL0     C56114   3.484   4.617   6.918  0.4067  0.6964  0.7692
  426MOL0     C56115   3.394   4.695   6.819 -0.0123  0.8493 -0.2007
  426MOL0     C56116   3.247   4.702   6.877 -0.4408  0.0479  0.5878
  426MOL0     N56117   3.177   4.803   6.804 -0.3884  0.0893  0.5961
  426MOL0     C56118   3.100   4.772   6.689 -0.1798  0.0793  0.3958
  426MOL0     C56119   3.075   4.892   6.632  0.2518  0.1004  0.5167
  426MOL0     C56120   3.003   4.912   6.507  0.2540  0.1873 -0.1624
  426MOL0     C56121   2.862   4.969   6.524  0.0049  0.6188  0.0532
  426MOL0     C56122   2.847   5.125   6.519  0.7603  0.7010 -0.3770
  426MOL0     C56123   2.705   5.180   6.530 -0.4822 -0.2573 -0.2479
  426MOL0     O56124   2.628   5.158   6.417 -0.1170  0.1936 -0.4755
  426MOL0     C56125   2.493   5.181   6.420  0.0159  0.4946  0.7313
  426MOL0     C56126   2.408   5.212   6.531 -0.7405 -0.7616 -0.5586
  426MOL0     C56127   2.275   5.239   6.521 -0.5274 -0.3823 -0.1694
  426MOL0     C56128   2.209   5.231   6.397  0.4130  0.1231 -0.2750
  426MOL0     C56129   2.065   5.248   6.381  0.1258  0.1588 -0.5373
  426MOL0     O56130   2.000   5.182   6.280 -1.2157  0.1321 -0.3011
  426MOL0     C56131   1.884   5.232   6.234 -0.3858  0.5538  0.4813
  426MOL0     C56132   1.762   5.217   6.312 -0.9640  0.5353  1.8877
  426MOL0     C56133   1.638   5.253   6.264  0.1255 -0.1343  0.5205
  426MOL0     C56134   1.636   5.342   6.156 -0.5980  1.5463 -0.4746
  426MOL0     O56135   1.510   5.392   6.125 -0.6357  1.0435  0.3617
  426MOL0     C56136   1.493   5.516   6.054 -0.3294 -0.5982  0.5544
  426MOL0     C56137   1.359   5.510   5.991 -0.5279  0.1685  0.1414
  426MOL0     C56138   1.369   5.417   5.878  0.0686  0.7769 -0.1430
  426MOL0     C56139   1.234   5.343   5.852 -0.1391  0.5265 -1.0796
  426MOL0     C56140   1.129   5.441   5.810 -0.4678  0.7701  0.3487
  426MOL0     C56141   1.007   5.369   5.759 -0.1658 -0.5015  0.7572
  426MOL0     C56142   0.878   5.446   5.800 -0.1964  0.1991  0.6324
  426MOL0     C56143   0.751   5.355   5.798 -0.6282 -0.1346 -0.3692
  426MOL0    Cl56144   0.755   5.201   5.887  0.0975  0.3417 -0.2041
  426MOL0     C56145   1.756   5.380   6.092 -0.6429  1.2242  0.5582
  426MOL0     C56146   1.882   5.314   6.118 -0.0055 -0.1773 -0.2571
  426MOL0     O56147   2.014   5.330   6.453  0.2658 -0.0458 -0.4176
  426MOL0     C56148   2.282   5.200   6.287 -0.0866 -0.8946  0.3342
  426MOL0     C56149   2.423   5.165   6.302  0.2231 -0.9486  0.3628
  426MOL0     N56150   3.138   4.985   6.701 -0.1512 -0.0020  0.3949
  426MOL0     N56151   3.202   4.939   6.797  0.2562  0.7053 -0.1274
  426MOL0     C56152   4.299   4.237   6.966  0.4199  0.1784  0.4367
  426MOL0     C56153   4.419   4.153   6.946 -0.0021 -0.0908  1.1076
  426MOL0     C56154   4.755   3.950   6.759  0.0697 -0.3753  0.2790
  426MOL0     C56155   4.806   3.865   6.857 -0.5963 -0.4558  0.3548
  426MOL0     C56156   4.915   3.785   6.827 -0.6958 -0.9898 -1.1181
  426MOL0     C56157   4.983   3.793   6.706 -0.5320 -0.3783 -0.4308
  426MOL0     O56158   5.099   3.725   6.679  0.2678  0.2813  0.0885
  426MOL0     C56159   5.184   3.648   6.775  0.7835 -0.1075 -0.2382
  426MOL0     C56160   5.302   3.583   6.707 -0.6287  0.6512 -0.4455
  426MOL0     C56161   5.413   3.545   6.817  0.1462  0.1046  0.8035
  426MOL0     C56162   5.518   3.472   6.740 -1.2852 -0.5846 -0.0287
  426MOL0     C56163   5.647   3.471   6.818 -0.2333  0.0701 -0.0566
  426MOL0     C56164   5.744   3.470   6.890  0.3559 -0.9117  1.1244
  426MOL0     C56165   4.935   3.878   6.611  0.5823  1.0111  0.3472
  426MOL0     C56166   4.823   3.964   6.634  0.4625  0.3542  0.1437
  426MOL0     H56167   4.280   3.924   6.745  0.3118  1.9144 -1.0978
  426MOL0     H56168   4.077   4.054   6.816 -1.6507  2.9681  3.0694
  426MOL0     H56169   4.102   4.486   6.993 -0.0041 -0.5174 -0.9937
  426MOL0     H56170   4.103   4.345   7.106  1.9765  3.7256  1.0554
  426MOL0     H56171   3.902   4.463   7.137  1.8378  2.0503 -1.8413
  426MOL0     H56172   3.852   4.327   7.047  1.9061 -0.1132 -1.8909
  426MOL0     H56173   3.848   4.441   6.838 -0.6077  0.0672  0.5850
  426MOL0     H56174   3.901   4.595   6.924  0.8799  0.5745  1.9800
  426MOL0     H56175   3.656   4.428   6.996  0.6045  0.4211  0.9536
  426MOL0     H56176   3.709   4.594   7.050 -0.5740  1.8981 -1.7419
  426MOL0     H56177   3.628   4.540   6.772 -3.1030  1.1371 -1.0033
  426MOL0     H56178   3.676   4.695   6.853  0.2429  0.4738  3.1718
  426MOL0     H56179   3.489   4.677   7.009  0.9570  4.3037 -1.4068
  426MOL0     H56180   3.429   4.529   6.951 -0.6475  1.4917  1.2142
  426MOL0     H56181   3.435   4.796   6.808  0.3394  0.8982  1.3749
  426MOL0     H56182   3.391   4.664   6.714 -3.5267  2.0168 -0.5666
  426MOL0     H56183   3.245   4.717   6.985  3.4281 -4.2199  1.5951
  426MOL0     H56184   3.194   4.608   6.858  2.0864 -0.8396 -3.1096
  426MOL0     H56185   3.084   4.673   6.646 -1.6189  0.3811  0.2103
  426MOL0     H56186   2.994   4.814   6.459  1.2456 -0.3604  0.7295
  426MOL0     H56187   3.057   4.981   6.440  0.3823 -2.7671 -3.4350
  426MOL0     H56188   2.826   4.946   6.625 -0.4519  3.9041  0.7375
  426MOL0     H56189   2.793   4.918   6.456 -0.2717 -0.3834  1.0633
  426MOL0     H56190   2.904   5.180   6.594 -0.2263  0.6195  0.4695
  426MOL0     H56191   2.876   5.161   6.420  1.0901 -2.4885 -1.5689
  426MOL0     H56192   2.708   5.287   6.553 -6.5308  1.2132 -4.0114
  426MOL0     H56193   2.662   5.130   6.618 -1.2923 -2.1060 -1.6359
  426MOL0     H56194   2.443   5.206   6.634 -2.1647 -0.4418 -0.0259
  426MOL0     H56195   2.220   5.249   6.614  0.4857 -0.2779  0.4282
  426MOL0     H56196   1.774   5.157   6.402 -1.1950 -1.9142  0.4000
  426MOL0     H56197   1.552   5.230   6.327 -1.3228 -1.3078 -1.7601
  426MOL0     H56198   1.576   5.536   5.985 -0.1175 -2.1919  0.3077
  426MOL0     H56199   1.489   5.598   6.126 -1.8562 -0.2434  0.0939
  426MOL0     H56200   1.318   5.609   5.969 -0.9653 -0.0579 -0.0670
  426MOL0     H56201   1.293   5.470   6.068  1.4387 -0.9285  1.3382
  426MOL0     H56202   1.441   5.335   5.887  0.3486  0.9531 -0.7299
  426MOL0     H56203   1.392   5.477   5.789  1.0580 -1.0679 -1.1998
  426MOL0     H56204   1.249   5.266   5.775 -0.0535  0.3927 -0.9296
  426MOL0     H56205   1.204   5.296   5.946  2.1304  0.9011 -0.1004
  426MOL0     H56206   1.177   5.502   5.732  4.7999 -2.5850  0.5260
  426MOL0     H56207   1.099   5.502   5.896  2.0657 -0.9878  2.6390
  426MOL0     H56208   1.010   5.270   5.805 -1.0273 -1.4569 -1.1347
  426MOL0     H56209   1.021   5.358   5.651  0.3937  1.0534  0.6373
  426MOL0     H56210   0.884   5.492   5.899  0.4694  0.4434  0.4901
  426MOL0     H56211   0.867   5.532   5.733  1.3431  0.8579  1.1598
  426MOL0     H56212   0.727   5.333   5.694 -0.0656 -0.4975 -0.4262
  426MOL0     H56213   0.674   5.414   5.849 -1.4517  1.0930 -2.9138
  426MOL0     H56214   1.759   5.430   5.996  0.4059 -1.5903 -0.9875
  426MOL0     H56215   1.963   5.335   6.048  1.0365  0.7753  1.1793
  426MOL0     H56216   2.243   5.182   6.188  1.2313  1.0878 -0.6034
  426MOL0     H56217   2.479   5.129   6.216  0.7131  2.3331 -0.8376
  426MOL0     H56218   4.310   4.335   7.012  0.9596  0.3536 -0.0485
  426MOL0     H56219   4.513   4.173   6.996  1.2842  1.1090 -1.5516
  426MOL0     H56220   4.751   3.861   6.951 -2.2996 -0.0607 -0.5867
  426MOL0     H56221   4.947   3.716   6.904  0.6532  1.2231  0.4281
  426MOL0     H56222   5.128   3.570   6.827  0.0361  3.1218  4.4218
  426MOL0     H56223   5.210   3.723   6.850  0.5498  3.3694 -3.3457
  426MOL0     H56224   5.280   3.483   6.669  3.2457 -0.8070  0.6571
  426MOL0     H56225   5.355   3.648   6.636  0.0314  0.5736 -0.0328
  426MOL0     H56226   5.360   3.490   6.896  1.1971  1.7706  2.7604
  426MOL0     H56227   5.456   3.633   6.865 -1.7711  1.1331  0.7309
  426MOL0     H56228   5.474   3.380   6.702  0.9860 -0.9305 -2.0391
  426MOL0     H56229   5.552   3.531   6.654  0.0644  2.3412  2.3272
  426MOL0     H56230   5.827   3.477   6.956  0.1295 -3.7469  1.8409
  426MOL0     H56231   4.989   3.894   6.517 -0.0422  0.1155 -0.1801
  426MOL0     H56232   4.798   4.038   6.560  0.9139  0.3932  0.0305
  427MOL0     O56233   9.942   7.039   4.593 -0.0124 -0.2676 -0.1782
  427MOL0     C56234   9.862   7.110   4.661  0.9500  0.2999 -0.1839
  427MOL0     O56235   9.722   7.116   4.646 -0.7526 -1.2015  1.0080
  427MOL0     C56236   9.665   7.037   4.559  1.2781  0.1279 -0.2617
  427MOL0     C56237   9.714   6.983   4.444  0.7285 -0.5846  0.3616
  427MOL0     C56238   9.634   6.887   4.372 -0.1556  0.2222  0.3874
  427MOL0     C56239   9.509   6.856   4.409 -0.2242 -0.4396  1.2100
  427MOL0     O56240   9.434   6.764   4.331 -0.2468  1.0546  0.0429
  427MOL0     C56241   9.349   6.667   4.404 -0.7231  0.1557  0.1154
  427MOL0     C56242   9.229   6.622   4.303  0.1248 -0.0755 -0.0633
  427MOL0     C56243   9.103   6.598   4.374 -1.0845 -0.3810  0.8558
  427MOL0     C56244   9.019   6.513   4.283  0.4163  0.7179  0.6600
  427MOL0     C56245   8.870   6.489   4.326 -0.1896  0.6903 -0.9964
  427MOL0     C56246   8.868   6.422   4.464 -0.4871 -0.3345 -0.6760
  427MOL0     C56247   8.723   6.408   4.508  0.4225 -0.1764  0.9136
  427MOL0     C56248   8.717   6.308   4.613  0.2434  1.5265 -0.4671
  427MOL0     N56249   8.577   6.273   4.654  0.5407  0.0379  0.0004
  427MOL0     C56250   8.490   6.178   4.587 -0.1458  0.4371 -0.3079
  427MOL0     C56251   8.367   6.187   4.650 -0.0460 -0.2300  0.4380
  427MOL0     C56252   8.248   6.108   4.614  0.9915 -0.0777  0.3752
  427MOL0     C56253   8.156   6.180   4.511  0.4379 -0.4576 -0.2648
  427MOL0     C56254   8.030   6.098   4.502  0.1662  0.6069  0.2844
  427MOL0     C56255   7.922   6.126   4.400 -0.2608 -1.0266 -0.3438
  427MOL0     O56256   7.820   6.032   4.429  0.3058  0.2024  0.4445
  427MOL0     C56257   7.707   6.041   4.352 -0.7314 -0.0473  0.5483
  427MOL0     C56258   7.605   5.944   4.376  0.4575  0.6956 -0.3027
  427MOL0     C56259   7.488   5.961   4.302 -0.1343 -0.1717 -0.0914
  427MOL0     C56260   7.473   6.061   4.199 -1.0326  0.5792  0.1522
  427MOL0     C56261   7.348   6.072   4.120  0.7450 -0.3572  0.0699
  427MOL0     O56262   7.359   6.111   3.984  0.0918  0.1315 -0.2142
  427MOL0     C56263   7.238   6.140   3.926 -0.1689  0.4401  0.0400
  427MOL0     C56264   7.186   6.039   3.841 -0.0957 -0.0377 -0.9002
  427MOL0     C56265   7.067   6.064   3.786  0.1757 -0.6927  1.3687
  427MOL0     C56266   6.994   6.184   3.811 -0.0741  0.5588  0.4930
  427MOL0     O56267   6.875   6.215   3.753  0.4373 -0.5722 -0.0486
  427MOL0     C56268   6.892   6.298   3.628  0.3377 -0.7775 -0.3388
  427MOL0     C56269   6.788   6.406   3.624 -0.2015  0.1663 -0.9660
  427MOL0     C56270   6.764   6.487   3.754 -1.1999  0.5267  0.1877
  427MOL0     C56271   6.695   6.623   3.743  0.1701 -0.1522  0.2338
  427MOL0     C56272   6.793   6.727   3.700  0.2411  0.3428 -0.5457
  427MOL0     C56273   6.711   6.857   3.652 -0.2062 -0.5123 -0.7858
  427MOL0     C56274   6.824   6.947   3.592 -0.2641  0.1621 -0.2173
  427MOL0     C56275   6.761   7.080   3.551 -0.8084 -0.1100 -0.2267
  427MOL0    Cl56276   6.864   7.189   3.435  0.0138  0.0492  0.0881
  427MOL0     C56277   7.052   6.286   3.892  1.0795  0.0349  0.3176
  427MOL0     C56278   7.175   6.257   3.955  0.1094 -0.8811  0.4837
  427MOL0     O56279   7.241   6.049   4.174 -0.1135 -0.1603  0.2819
  427MOL0     C56280   7.582   6.145   4.168 -0.0614 -0.3613  0.7399
  427MOL0     C56281   7.697   6.125   4.237 -0.1988  0.6316  0.0191
  427MOL0     N56282   8.380   6.294   4.743 -0.5775 -0.0146 -0.5284
  427MOL0     N56283   8.498   6.346   4.734  0.1886 -0.1437 -0.0345
  427MOL0     C56284   9.464   6.909   4.528 -0.9076  0.2016 -0.2322
  427MOL0     C56285   9.543   6.994   4.600 -0.2261 -0.8792 -0.5040
  427MOL0     C56286   9.915   7.203   4.767  0.6976 -0.8920 -0.0043
  427MOL0     C56287   9.831   7.295   4.823  1.0900 -0.7584  0.5160
  427MOL0     C56288   9.874   7.375   4.927  0.5405  0.8621 -0.0334
  427MOL0     C56289  10.003   7.354   4.979 -0.0418  0.1230  0.0336
  427MOL0     O56290  10.056   7.432   5.077  0.0556  0.4746 -0.2621
  427MOL0     C56291   9.999   7.559   5.112 -0.2774  0.0520 -0.1558
  427MOL0     C56292   9.967   7.573   5.263  0.4579 -0.5533  0.2212
  427MOL0     C56293   9.821   7.612   5.281  0.3670  1.1929  0.1969
  427MOL0     C56294   9.805   7.762   5.267 -0.7403 -0.0763 -0.5256
  427MOL0     C56295   9.801   7.834   5.392 -0.6274  0.5766  1.0423
  427MOL0     C56296   9.802   7.894   5.497 -0.1066  0.5065 -0.5048
  427MOL0     C56297  10.078   7.248   4.935 -0.3352  0.4050  0.4170
  427MOL0     C56298  10.042   7.174   4.822  1.1925  1.0313  0.7287
  427MOL0     H56299   9.811   7.011   4.405  1.4911  1.1427  3.2689
  427MOL0     H56300   9.683   6.848   4.283  2.4624  1.6492  1.0929
  427MOL0     H56301   9.297   6.718   4.486  0.3516 -0.6757  1.3447
  427MOL0     H56302   9.388   6.570   4.435 -1.4008 -1.0523 -2.5534
  427MOL0     H56303   9.270   6.529   4.264  0.4933  0.8901 -2.0802
  427MOL0     H56304   9.210   6.689   4.219  2.0726  2.1280  1.1286
  427MOL0     H56305   9.055   6.693   4.401  0.4988  0.7665 -0.1506
  427MOL0     H56306   9.121   6.551   4.471  1.5251 -1.1370  0.0996
  427MOL0     H56307   9.005   6.559   4.185  3.0881  1.1124  0.3712
  427MOL0     H56308   9.069   6.416   4.275 -0.1834  0.5248 -1.1009
  427MOL0     H56309   8.825   6.415   4.259  1.4093 -2.0699  0.7400
  427MOL0     H56310   8.821   6.586   4.337  1.0850  1.1942  0.6494
  427MOL0     H56311   8.924   6.471   4.544  0.7498  1.6069 -2.6412
  427MOL0     H56312   8.905   6.321   4.445 -0.2373 -1.4129  4.2245
  427MOL0     H56313   8.675   6.506   4.516  1.4670  0.8342 -2.9723
  427MOL0     H56314   8.672   6.364   4.422  0.3196  1.9333 -0.1771
  427MOL0     H56315   8.778   6.348   4.694 -0.7964  2.5493 -0.1557
  427MOL0     H56316   8.752   6.215   4.568 -1.0905  1.3311 -1.1536
  427MOL0     H56317   8.501   6.112   4.501  0.2813  0.2967 -0.1481
  427MOL0     H56318   8.184   6.090   4.701 -1.6445 -2.5004 -1.8542
  427MOL0     H56319   8.287   6.010   4.585  3.0100  1.1048 -1.1036
  427MOL0     H56320   8.221   6.193   4.424  1.5357 -1.4704  0.3744
  427MOL0     H56321   8.120   6.280   4.536 -1.0295 -1.0099 -0.0526
  427MOL0     H56322   8.063   5.995   4.488  0.7447  0.7506  0.5442
  427MOL0     H56323   7.973   6.109   4.594 -1.0174 -1.8043 -0.0794
  427MOL0     H56324   7.961   6.124   4.298  1.4477  0.6702  0.2151
  427MOL0     H56325   7.884   6.226   4.422  1.9887  0.0090 -0.8107
  427MOL0     H56326   7.602   5.866   4.451 -0.1459  2.1197  1.2041
  427MOL0     H56327   7.395   5.913   4.332  1.1928 -1.8773  1.5013
  427MOL0     H56328   7.244   5.950   3.818  1.6894  0.5715  0.9127
  427MOL0     H56329   7.019   5.986   3.727  1.0844 -0.9186  0.9080
  427MOL0     H56330   6.891   6.253   3.529 -0.9776 -2.3170  0.3430
  427MOL0     H56331   6.982   6.361   3.622 -2.0406  2.8796 -1.1832
  427MOL0     H56332   6.693   6.361   3.591 -0.2548  0.5132 -1.2968
  427MOL0     H56333   6.804   6.473   3.539  0.7231 -0.2933 -1.1730
  427MOL0     H56334   6.868   6.502   3.784 -0.1444  1.8907 -3.6571
  427MOL0     H56335   6.713   6.416   3.821 -1.4618 -0.9476 -1.5105
  427MOL0     H56336   6.606   6.608   3.681 -1.7882 -0.9522  3.0478
  427MOL0     H56337   6.656   6.652   3.841 -1.6913  0.1176 -0.5565
  427MOL0     H56338   6.850   6.688   3.616 -1.3862 -0.2623 -1.4048
  427MOL0     H56339   6.843   6.748   3.795 -1.3944 -1.5133  0.8150
  427MOL0     H56340   6.683   6.908   3.744  1.1253 -1.2500  0.0613
  427MOL0     H56341   6.631   6.846   3.579  2.0093  0.2627 -3.5317
  427MOL0     H56342   6.904   6.954   3.666 -0.0646 -2.9780 -0.0018
  427MOL0     H56343   6.871   6.901   3.504 -2.0819  0.3774 -1.3440
  427MOL0     H56344   6.754   7.130   3.648 -0.2690 -0.5324  0.0353
  427MOL0     H56345   6.666   7.060   3.499 -2.7844  2.1895  2.2380
  427MOL0     H56346   6.992   6.371   3.924  0.1548 -0.6284  0.3978
  427MOL0     H56347   7.212   6.331   4.025  0.3860  1.3559 -1.8862
  427MOL0     H56348   7.562   6.229   4.102 -2.2331 -1.0323  0.4559
  427MOL0     H56349   7.770   6.201   4.211  0.7731 -0.5510 -0.8317
  427MOL0     H56350   9.369   6.882   4.573  0.9991  0.8426  4.7769
  427MOL0     H56351   9.514   7.019   4.702  1.6747  0.3069 -0.2004
  427MOL0     H56352   9.734   7.328   4.789  2.1316  1.4493 -0.5141
  427MOL0     H56353   9.801   7.445   4.968 -1.4992 -0.8839 -0.5220
  427MOL0     H56354   9.916   7.590   5.048 -0.3607  0.1172 -0.0162
  427MOL0     H56355  10.070   7.637   5.083 -0.9508 -0.3089 -3.0219
  427MOL0     H56356   9.992   7.482   5.318 -0.2082 -0.6791  0.3296
  427MOL0     H56357  10.031   7.653   5.301 -3.2059  2.1682  1.2740
  427MOL0     H56358   9.784   7.574   5.377  2.6672 -0.9798  0.3266
  427MOL0     H56359   9.764   7.557   5.206  0.4825  1.8557 -0.3954
  427MOL0     H56360   9.884   7.802   5.202 -1.2244 -3.0659 -3.2261
  427MOL0     H56361   9.710   7.780   5.215 -1.8638  3.6068  2.3363
  427MOL0     H56362   9.776   7.937   5.592 -2.1786 -1.8739  0.1354
  427MOL0     H56363  10.183   7.240   4.962  0.7049 -0.7328 -3.3397
  427MOL0     H56364  10.110   7.108   4.768  0.7285  0.9595  0.2243
  428MOL0     O56365   7.720   8.750   0.781 -0.8050 -0.3810  0.4842
  428MOL0     C56366   7.778   8.741   0.671 -0.3179  0.5447  0.2532
  428MOL0     O56367   7.726   8.714   0.550 -0.4185 -0.8670  0.2962
  428MOL0     C56368   7.593   8.680   0.550 -0.0312 -0.5574 -0.1697
  428MOL0     C56369   7.498   8.781   0.498 -0.0846  0.5057 -0.5684
  428MOL0     C56370   7.363   8.745   0.476  0.4915  0.2960  0.4956
  428MOL0     C56371   7.324   8.613   0.502  0.7853  0.3351  0.2476
  428MOL0     O56372   7.187   8.588   0.481  0.1737 -0.3738 -0.5274
  428MOL0     C56373   7.161   8.449   0.442 -0.6061  0.0147  0.2186
  428MOL0     C56374   7.011   8.423   0.399  0.4429 -0.4930  0.3861
  428MOL0     C56375   6.932   8.534   0.317 -0.1629 -0.8065  0.4078
  428MOL0     C56376   6.775   8.515   0.316 -0.5407 -0.1878 -0.0626
  428MOL0     C56377   6.723   8.655   0.255  0.4593  0.3626  1.5503
  428MOL0     C56378   6.569   8.620   0.209  0.2722  0.2789  0.7134
  428MOL0     C56379   6.501   8.737   0.141  0.3307  0.1897 -0.3266
  428MOL0     C56380   6.423   8.840   0.231  0.3027 -0.4044 -0.0045
  428MOL0     N56381   6.393   8.962   0.157 -0.6795 -0.4943  0.1954
  428MOL0     C56382   6.322   9.069   0.200  0.2954  0.3208  0.2998
  428MOL0     C56383   6.249   9.112   0.098 -0.9272 -1.2935 -0.9153
  428MOL0     C56384   6.151   9.224   0.108  0.0174  0.0506 -0.1315
  428MOL0     C56385   6.113   9.291  -0.023 -0.3451 -1.1393 -1.1970
  428MOL0     C56386   6.002   9.390  -0.002  0.1248 -0.0991  0.4722
  428MOL0     C56387   6.015   9.507   0.103 -0.7143 -0.0477  0.1791
  428MOL0     O56388   5.882   9.552   0.102  0.8243  0.6121 -0.2848
  428MOL0     C56389   5.827   9.594   0.219  0.2001  0.3029  0.4821
  428MOL0     C56390   5.905   9.653   0.316  0.6762 -1.0740 -1.0714
  428MOL0     C56391   5.852   9.697   0.435 -0.0950  0.0341  0.1387
  428MOL0     C56392   5.713   9.694   0.456  0.0017  0.5142 -0.0408
  428MOL0     C56393   5.656   9.749   0.581  0.0836 -0.3194  0.5682
  428MOL0     O56394   5.730   9.834   0.660 -0.0204  0.1628  0.3568
  428MOL0     C56395   5.690   9.858   0.783 -0.1449  0.8963  0.0050
  428MOL0     C56396   5.774   9.826   0.889  0.1006  0.5286 -1.2381
  428MOL0     C56397   5.752   9.882   1.017  0.0380  0.2053 -0.2271
  428MOL0     C56398   5.630   9.947   1.040 -0.3215 -0.2984 -0.6478
  428MOL0     O56399   5.617   9.991   1.167  0.8351 -0.1370 -0.0108
  428MOL0     C56400   5.561  10.118   1.185  0.0910 -0.1710  0.2553
  428MOL0     C56401   5.601  10.145   1.329  1.1696 -0.2429 -0.8969
  428MOL0     C56402   5.753  10.179   1.335  0.4895  0.4745 -0.1233
  428MOL0     C56403   5.809  10.170   1.487  0.0646  0.0135 -0.2444
  428MOL0     C56404   5.961  10.204   1.495 -0.0576 -0.5959 -0.2544
  428MOL0     C56405   5.998  10.163   1.632 -0.4343 -0.2045 -0.1006
  428MOL0     C56406   6.141  10.212   1.670  0.2123  0.7029  0.1426
  428MOL0     C56407   6.193  10.150   1.809 -0.0429 -0.4585  0.8455
  428MOL0    Cl56408   6.070  10.188   1.933 -0.3490  0.1528 -0.2210
  428MOL0     C56409   5.539   9.965   0.940  0.7532 -0.2783 -0.1955
  428MOL0     C56410   5.569   9.925   0.813  0.8507 -0.6861 -0.3789
  428MOL0     O56411   5.541   9.705   0.608 -0.5110  0.3549 -0.3375
  428MOL0     C56412   5.628   9.642   0.351  0.2927  0.6708 -0.4550
  428MOL0     C56413   5.685   9.584   0.231 -0.6323  0.1128 -0.4594
  428MOL0     N56414   6.281   9.044  -0.017 -0.3869  0.1245  0.1449
  428MOL0     N56415   6.359   8.949   0.023  0.8211 -0.6710  0.4027
  428MOL0     C56416   7.414   8.519   0.556 -0.5069  0.7067  0.7684
  428MOL0     C56417   7.551   8.547   0.570 -0.2044  0.5084  0.4578
  428MOL0     C56418   7.926   8.761   0.670 -0.5894 -0.3577  0.1854
  428MOL0     C56419   7.999   8.807   0.779  0.1728 -0.2047  1.0320
  428MOL0     C56420   8.135   8.821   0.770  0.7487 -0.4509 -0.1725
  428MOL0     C56421   8.210   8.807   0.656  0.6405  0.2794 -0.0923
  428MOL0     O56422   8.337   8.840   0.668 -0.0546  0.1973  0.3196
  428MOL0     C56423   8.431   8.743   0.635 -1.0442 -0.4070  0.4483
  428MOL0     C56424   8.575   8.798   0.640 -0.0985 -0.5444 -0.6337
  428MOL0     C56425   8.607   8.874   0.773  0.4462 -0.6301  0.2812
  428MOL0     C56426   8.756   8.898   0.809 -0.1050  0.2914  0.0398
  428MOL0     C56427   8.752   8.995   0.919 -0.3212  1.2509 -0.5479
  428MOL0     C56428   8.768   9.078   1.006 -0.0835  0.0743  0.3625
  428MOL0     C56429   8.141   8.758   0.546 -0.5318  0.1654  0.5901
  428MOL0     C56430   8.006   8.731   0.552 -0.8037 -0.1279 -0.0712
  428MOL0     H56431   7.538   8.879   0.476  2.7794 -0.6027 -0.6593
  428MOL0     H56432   7.283   8.813   0.450 -4.5911 -4.6325  1.2091
  428MOL0     H56433   7.183   8.389   0.531  1.5063  1.2448  0.6063
  428MOL0     H56434   7.231   8.412   0.367 -1.1338 -3.9643  1.4711
  428MOL0     H56435   6.953   8.416   0.491 -0.5941  1.5072 -0.0704
  428MOL0     H56436   7.000   8.324   0.353 -1.6115  0.4442 -1.3065
  428MOL0     H56437   6.961   8.520   0.212 -0.7510 -1.0229  0.2692
  428MOL0     H56438   6.958   8.637   0.342  0.6706 -1.1937  1.1821
  428MOL0     H56439   6.742   8.429   0.257 -0.9027 -0.5629  0.6832
  428MOL0     H56440   6.748   8.491   0.419  2.2680 -0.8902  0.6017
  428MOL0     H56441   6.780   8.692   0.169  0.6598  0.3673  1.6871
  428MOL0     H56442   6.722   8.731   0.333 -1.0656  1.9760  0.0506
  428MOL0     H56443   6.516   8.582   0.297  1.5047 -0.6846  1.0628
  428MOL0     H56444   6.572   8.542   0.132 -2.3468  3.2813 -2.8134
  428MOL0     H56445   6.578   8.787   0.081  1.2751  0.6370  1.2194
  428MOL0     H56446   6.424   8.708   0.069 -1.6322  0.2164  1.6511
  428MOL0     H56447   6.486   8.866   0.316 -1.6531 -0.3218  1.4895
  428MOL0     H56448   6.324   8.801   0.257 -0.4225  0.8471 -0.7897
  428MOL0     H56449   6.312   9.101   0.303  0.9995 -0.7773  0.7407
  428MOL0     H56450   6.188   9.302   0.176 -1.5269  0.6404  0.0909
  428MOL0     H56451   6.069   9.175   0.160  2.6042 -1.9558  2.3066
  428MOL0     H56452   6.096   9.214  -0.098  2.6128 -2.2125 -0.9167
  428MOL0     H56453   6.199   9.351  -0.054  2.1432 -1.8066  3.4429
  428MOL0     H56454   5.990   9.438  -0.100  1.8243  1.7125  1.0919
  428MOL0     H56455   5.913   9.340   0.038 -0.4602  1.3395  1.0332
  428MOL0     H56456   6.083   9.586   0.069  1.2072 -1.8772 -0.4482
  428MOL0     H56457   6.056   9.476   0.200 -0.4856  2.0812  0.8071
  428MOL0     H56458   6.012   9.650   0.298  0.5602  0.7109 -2.2807
  428MOL0     H56459   5.913   9.738   0.515 -0.7004  2.3901 -0.5448
  428MOL0     H56460   5.867   9.774   0.870 -1.1014 -1.3029 -2.3519
  428MOL0     H56461   5.812   9.852   1.103  2.4488  2.5461 -0.9467
  428MOL0     H56462   5.452  10.110   1.189  0.0444  0.6014  0.7722
  428MOL0     H56463   5.581  10.197   1.113 -3.3914 -0.3289 -1.0449
  428MOL0     H56464   5.582  10.057   1.391  1.4278 -1.4228 -2.4027
  428MOL0     H56465   5.556  10.234   1.373 -2.8749 -0.1752 -4.4680
  428MOL0     H56466   5.768  10.280   1.295  2.0542 -1.1424 -4.2249
  428MOL0     H56467   5.802  10.107   1.268 -0.1135 -1.2321  1.2113
  428MOL0     H56468   5.752  10.237   1.551 -3.2633 -1.6442 -1.2158
  428MOL0     H56469   5.797  10.068   1.523  0.2802  0.6199  1.6457
  428MOL0     H56470   5.982  10.310   1.478 -0.1576 -0.6973 -1.0904
  428MOL0     H56471   6.018  10.142   1.425 -1.1964 -0.3280 -1.4675
  428MOL0     H56472   5.996  10.054   1.637 -0.0849 -0.2303 -0.4930
  428MOL0     H56473   5.925  10.181   1.712  0.6173 -0.5054  0.9502
  428MOL0     H56474   6.208  10.177   1.591 -1.3583 -3.0393  0.2435
  428MOL0     H56475   6.139  10.321   1.668 -3.4707  0.8114  1.7608
  428MOL0     H56476   6.284  10.204   1.839 -0.0051  1.4473 -2.2677
  428MOL0     H56477   6.219  10.044   1.798  2.7131  0.0662  1.4937
  428MOL0     H56478   5.444  10.011   0.967  2.6052  3.0483  1.1553
  428MOL0     H56479   5.491   9.944   0.740  0.3054  0.2460  0.4210
  428MOL0     H56480   5.521   9.633   0.366  0.5416 -0.9710  0.5778
  428MOL0     H56481   5.632   9.549   0.143 -1.3013  0.3172 -0.1476
  428MOL0     H56482   7.385   8.415   0.566 -0.6422  0.6348 -0.2370
  428MOL0     H56483   7.617   8.469   0.606 -0.2903 -2.0312 -4.0430
  428MOL0     H56484   7.948   8.817   0.875  1.0145  2.4365  1.2933
  428MOL0     H56485   8.189   8.859   0.857 -1.6186  2.3696  0.2258
  428MOL0     H56486   8.430   8.688   0.541  1.4622 -1.0419  0.7195
  428MOL0     H56487   8.426   8.672   0.717  1.2476 -0.9139  0.2075
  428MOL0     H56488   8.645   8.714   0.633 -1.2944 -2.1109  3.3825
  428MOL0     H56489   8.594   8.868   0.558 -1.5548  1.1559  0.3905
  428MOL0     H56490   8.562   8.808   0.848 -0.5199 -1.5200 -1.0375
  428MOL0     H56491   8.552   8.968   0.771  3.2357  1.1012 -0.4729
  428MOL0     H56492   8.794   8.800   0.841  0.9561  0.6907  0.0400
  428MOL0     H56493   8.819   8.930   0.725  1.0812 -2.0426 -0.0469
  428MOL0     H56494   8.782   9.156   1.077  1.5207  2.2780 -2.1593
  428MOL0     H56495   8.183   8.743   0.447 -2.8115 -3.7349 -0.0221
  428MOL0     H56496   7.949   8.703   0.464  0.7900 -1.1832 -0.7964
  429MOL0     O56497   2.305   2.424   6.272 -0.8064  0.3280 -0.0293
  429MOL0     C56498   2.343   2.359   6.368  0.2156 -0.3274  0.2026
  429MOL0     O56499   2.261   2.328   6.473 -0.1123 -0.1490  0.3634
  429MOL0     C56500   2.131   2.364   6.467 -1.0491 -0.5283  0.5513
  429MOL0     C56501   2.040   2.267   6.446 -1.1825 -0.5437  0.1025
  429MOL0     C56502   1.907   2.301   6.443  0.3968 -0.0617 -0.1423
  429MOL0     C56503   1.865   2.437   6.467  0.0600 -0.2375 -0.8049
  429MOL0     O56504   1.732   2.444   6.484 -0.8068  0.2035 -0.0671
  429MOL0     C56505   1.699   2.560   6.558  0.0096  0.2045 -0.0283
  429MOL0     C56506   1.552   2.579   6.574 -0.0207 -0.1704  0.2265
  429MOL0     C56507   1.482   2.464   6.649 -0.7614  0.5971  0.1458
  429MOL0     C56508   1.359   2.503   6.729 -0.3270 -0.0524 -0.1754
  429MOL0     C56509   1.254   2.580   6.640  0.2392  0.0080 -0.4496
  429MOL0     C56510   1.144   2.632   6.730 -0.5017 -0.2336 -0.0823
  429MOL0     C56511   1.066   2.750   6.659  0.0785 -0.5881  1.0539
  429MOL0     C56512   0.982   2.829   6.747 -0.3297  0.6753 -0.8291
  429MOL0     N56513   0.845   2.781   6.769 -0.1125  0.1672  0.2427
  429MOL0     C56514   0.730   2.856   6.736  0.5068 -1.0301 -0.4375
  429MOL0     C56515   0.643   2.844   6.839 -0.7748 -1.2720 -0.5478
  429MOL0     C56516   0.512   2.916   6.859  0.2459 -0.3787  0.7367
  429MOL0     C56517   0.421   2.855   6.972 -0.8948 -0.3061 -0.0206
  429MOL0     C56518   0.365   2.976   7.054  0.6146 -0.5109 -0.5246
  429MOL0     C56519   0.277   2.916   7.172  0.4568  0.1252 -0.8640
  429MOL0     O56520   0.235   3.025   7.258  0.1297 -0.2179  0.2923
  429MOL0     C56521   0.141   3.105   7.204 -0.4861 -0.4604 -0.4699
  429MOL0     C56522   0.010   3.062   7.162 -1.2359 -0.8347  0.3520
  429MOL0     C56523  -0.075   3.167   7.120  0.1004 -0.5462 -0.3086
  429MOL0     C56524  -0.033   3.306   7.107  0.2658  0.9198  0.2097
  429MOL0     C56525  -0.126   3.408   7.048 -0.1621  0.2422  0.1746
  429MOL0     O56526  -0.255   3.381   6.991  0.4217 -0.0154 -0.0964
  429MOL0     C56527  -0.345   3.479   6.933 -0.0932  0.7190 -0.3262
  429MOL0     C56528  -0.473   3.421   6.885  0.2835  0.8101 -0.1982
  429MOL0     C56529  -0.566   3.505   6.832  0.6343  0.1473  0.9806
  429MOL0     C56530  -0.538   3.638   6.808 -0.0309  0.7090 -1.3125
  429MOL0     O56531  -0.635   3.706   6.731  1.1472 -0.0451 -0.6136
  429MOL0     C56532  -0.601   3.844   6.709 -0.4701  0.7040 -0.4543
  429MOL0     C56533  -0.713   3.945   6.684 -0.2169 -0.1589 -0.2564
  429MOL0     C56534  -0.812   3.941   6.799  0.4571 -0.5791 -0.4738
  429MOL0     C56535  -0.941   4.029   6.770 -0.6010  0.0538 -0.4006
  429MOL0     C56536  -1.048   4.019   6.878  0.0810  0.0798 -0.0199
  429MOL0     C56537  -1.180   4.079   6.836 -0.6278  0.6019 -0.1041
  429MOL0     C56538  -1.251   3.995   6.722  0.5300 -0.4176 -0.4273
  429MOL0     C56539  -1.393   4.054   6.703 -0.0661  0.2807  0.0179
  429MOL0    Cl56540  -1.372   4.195   6.597  0.1245  0.0218 -0.0073
  429MOL0     C56541  -0.417   3.694   6.855  0.5305 -0.9805 -0.7300
  429MOL0     C56542  -0.325   3.614   6.918 -0.2815 -0.2144  1.0248
  429MOL0     O56543  -0.078   3.522   7.057  0.0637 -0.1280  0.4614
  429MOL0     C56544   0.097   3.339   7.156  0.8493 -0.2431 -1.2265
  429MOL0     C56545   0.179   3.241   7.209  0.1809  0.3299 -0.0098
  429MOL0     N56546   0.705   2.762   6.925 -0.6085  0.0450 -0.3007
  429MOL0     N56547   0.819   2.725   6.890 -1.0015 -0.0484 -0.8957
  429MOL0     C56548   1.964   2.535   6.483 -0.0969  0.3913  1.2877
  429MOL0     C56549   2.101   2.500   6.492 -0.0286  0.8513 -0.1486
  429MOL0     C56550   2.486   2.316   6.373 -0.1838 -0.1073 -0.4940
  429MOL0     C56551   2.508   2.215   6.467 -0.7447  0.2288  0.5114
  429MOL0     C56552   2.635   2.155   6.472  1.1411 -0.4454  0.6130
  429MOL0     C56553   2.735   2.204   6.389  0.6767  0.9218 -0.0478
  429MOL0     O56554   2.858   2.145   6.408 -0.1885 -0.1666 -0.2390
  429MOL0     C56555   2.971   2.171   6.313 -0.2224 -0.3800 -0.6986
  429MOL0     C56556   3.075   2.071   6.361 -0.7913 -0.0430 -0.1553
  429MOL0     C56557   3.187   2.094   6.267 -0.1732  0.4282  0.4162
  429MOL0     C56558   3.310   2.008   6.295  1.3149 -0.1708  0.2326
  429MOL0     C56559   3.397   1.991   6.173  0.5868  0.7944  0.7844
  429MOL0     C56560   3.457   1.976   6.072 -0.3434 -0.0008 -0.0865
  429MOL0     C56561   2.708   2.295   6.292 -0.7415 -0.1544 -1.0578
  429MOL0     C56562   2.583   2.352   6.287  0.9185 -0.8778 -0.4610
  429MOL0     H56563   2.064   2.163   6.425 -2.1028 -0.4963 -1.2937
  429MOL0     H56564   1.820   2.236   6.436  0.8852 -0.7033 -0.3050
  429MOL0     H56565   1.746   2.649   6.516  0.3930 -0.3538 -0.8057
  429MOL0     H56566   1.733   2.546   6.661 -1.4028  1.0367  0.5651
  429MOL0     H56567   1.504   2.600   6.478 -0.2556 -1.5680  0.0200
  429MOL0     H56568   1.542   2.669   6.636 -0.0512  0.5527 -0.7962
  429MOL0     H56569   1.556   2.419   6.715  0.5677 -0.7923 -2.1579
  429MOL0     H56570   1.457   2.390   6.573  3.7256 -1.0329 -0.0403
  429MOL0     H56571   1.304   2.414   6.760 -1.3752 -0.1364 -2.1445
  429MOL0     H56572   1.390   2.557   6.819 -3.2601  0.8855  0.3697
  429MOL0     H56573   1.226   2.514   6.557 -2.9980  1.6558 -0.8273
  429MOL0     H56574   1.305   2.667   6.598  1.4592 -0.0321  0.8615
  429MOL0     H56575   1.188   2.671   6.823 -0.4633 -1.9493  0.6668
  429MOL0     H56576   1.069   2.553   6.737 -2.2822  1.1700 -2.1489
  429MOL0     H56577   1.139   2.823   6.623 -0.3817 -0.7202 -0.1978
  429MOL0     H56578   1.020   2.706   6.570  2.3543  1.9881 -1.6433
  429MOL0     H56579   0.982   2.937   6.728  3.4724  1.3872  1.9487
  429MOL0     H56580   1.019   2.835   6.850  1.5022  2.5168 -1.5134
  429MOL0     H56581   0.731   2.928   6.655  0.5014  0.1546  0.5753
  429MOL0     H56582   0.450   2.904   6.770  1.3076 -2.2598  0.1915
  429MOL0     H56583   0.535   3.021   6.880 -1.5892  0.5888 -1.6017
  429MOL0     H56584   0.486   2.792   7.033 -2.1301  1.4315  3.3440
  429MOL0     H56585   0.332   2.801   6.939 -0.7412 -2.1825  2.3612
  429MOL0     H56586   0.439   3.029   7.116  1.3858 -1.3596 -0.6938
  429MOL0     H56587   0.317   3.056   6.997  3.2031  0.0982 -2.0038
  429MOL0     H56588   0.334   2.841   7.227  2.6734 -1.0897 -4.4470
  429MOL0     H56589   0.190   2.869   7.124 -0.2888  0.3141  0.2734
  429MOL0     H56590  -0.013   2.959   7.188 -1.3878 -0.5818  1.2307
  429MOL0     H56591  -0.180   3.152   7.097 -0.3280  3.0352 -1.1936
  429MOL0     H56592  -0.496   3.317   6.906  4.0285  0.4141  3.1352
  429MOL0     H56593  -0.655   3.459   6.790  1.8804 -1.6644  0.1535
  429MOL0     H56594  -0.513   3.854   6.645  0.4163 -0.3678  0.5676
  429MOL0     H56595  -0.561   3.878   6.805 -0.4781  0.9037 -0.5212
  429MOL0     H56596  -0.757   3.924   6.586 -0.0481  2.2283 -0.9195
  429MOL0     H56597  -0.678   4.049   6.675  0.4534 -0.2016  1.5342
  429MOL0     H56598  -0.753   3.969   6.887 -1.8980  2.2229  0.3528
  429MOL0     H56599  -0.856   3.841   6.807 -2.7567  0.7578  0.1024
  429MOL0     H56600  -0.916   4.136   6.780 -3.4134  1.0546 -2.8336
  429MOL0     H56601  -0.973   4.024   6.666  1.0691  0.6941 -0.9729
  429MOL0     H56602  -1.011   4.042   6.979 -0.1047  0.2810  0.0040
  429MOL0     H56603  -1.058   3.911   6.891 -0.2754 -0.0551 -1.3343
  429MOL0     H56604  -1.164   4.180   6.800  0.0808  0.2804 -0.7005
  429MOL0     H56605  -1.244   4.080   6.925 -2.5942 -1.1718 -1.3680
  429MOL0     H56606  -1.200   3.993   6.626 -2.9984 -1.5184 -2.4266
  429MOL0     H56607  -1.262   3.891   6.753  3.8941 -0.3354  1.5334
  429MOL0     H56608  -1.430   4.095   6.797  2.1305 -1.1886  1.6004
  429MOL0     H56609  -1.460   3.978   6.664 -0.6978  0.2213  1.1796
  429MOL0     H56610  -0.385   3.797   6.860 -0.0827 -0.8278  0.7571
  429MOL0     H56611  -0.238   3.671   6.947  0.3529  0.8217 -2.4163
  429MOL0     H56612   0.121   3.444   7.167 -1.4012  0.3107 -1.2260
  429MOL0     H56613   0.276   3.272   7.248 -0.0967  0.6617  0.4264
  429MOL0     H56614   1.945   2.641   6.496  2.4683  0.7650  2.7560
  429MOL0     H56615   2.184   2.563   6.520 -0.3203  0.8418  0.7605
  429MOL0     H56616   2.420   2.189   6.524 -1.8658  0.6378 -0.9877
  429MOL0     H56617   2.649   2.078   6.548  2.0073 -1.9831 -1.0391
  429MOL0     H56618   3.009   2.270   6.341  0.9105 -1.6022  2.6560
  429MOL0     H56619   2.933   2.164   6.211 -2.2175 -1.2342  0.0711
  429MOL0     H56620   3.106   2.072   6.466  0.6054  0.9667 -0.5473
  429MOL0     H56621   3.041   1.968   6.347  0.2623 -0.2508 -1.3532
  429MOL0     H56622   3.219   2.199   6.270  1.0260  0.0637  1.0892
  429MOL0     H56623   3.142   2.066   6.171 -0.6340 -1.6068  1.1798
  429MOL0     H56624   3.364   2.049   6.381  0.9191 -2.3143  1.5811
  429MOL0     H56625   3.277   1.906   6.317 -0.0275 -0.3071 -2.1018
  429MOL0     H56626   3.512   1.951   5.983 -0.1952 -0.0734  0.0248
  429MOL0     H56627   2.786   2.335   6.228  0.5898 -1.4494 -0.3150
  429MOL0     H56628   2.559   2.435   6.222  2.2858 -1.3069 -1.5542
  430MOL0     O56629   2.334   0.835   7.466  0.7442 -0.0712  0.6192
  430MOL0     C56630   2.271   0.739   7.413  0.7867 -1.0301  0.3800
  430MOL0     O56631   2.140   0.742   7.393 -0.4427  0.5582  0.2247
  430MOL0     C56632   2.064   0.854   7.424 -1.4185  0.0693 -0.0825
  430MOL0     C56633   2.006   0.866   7.551  0.5458  1.0464  0.3006
  430MOL0     C56634   1.937   0.977   7.594  0.2243 -0.1044  0.0539
  430MOL0     C56635   1.932   1.086   7.507 -0.5214  0.0516 -0.2505
  430MOL0     O56636   1.873   1.211   7.531  0.9257 -0.2222  0.1210
  430MOL0     C56637   1.732   1.213   7.557 -0.7781  0.3872 -0.0375
  430MOL0     C56638   1.685   1.358   7.542  0.1769  1.1799 -0.0214
  430MOL0     C56639   1.638   1.402   7.401 -0.4831 -1.2730  0.0515
  430MOL0     C56640   1.512   1.339   7.353  0.6196  0.8950 -0.7849
  430MOL0     C56641   1.380   1.359   7.434 -0.4229 -0.0732  0.3507
  430MOL0     C56642   1.273   1.283   7.361 -0.5751  0.3556  1.0999
  430MOL0     C56643   1.136   1.279   7.443 -0.9890  0.2218 -0.0729
  430MOL0     C56644   1.034   1.194   7.377  0.7788 -0.2317 -1.0631
  430MOL0     N56645   0.914   1.190   7.458  0.4031 -0.3522 -0.4692
  430MOL0     C56646   0.815   1.094   7.431  0.1492  1.1423  0.6567
  430MOL0     C56647   0.735   1.097   7.541  0.2008 -0.3529  0.3689
  430MOL0     C56648   0.613   1.002   7.575 -0.3927 -0.3733  0.0210
  430MOL0     C56649   0.606   0.972   7.728 -0.1022 -0.3473  0.5130
  430MOL0     C56650   0.508   1.066   7.797 -0.3106  0.0867 -0.3656
  430MOL0     C56651   0.366   1.012   7.787 -1.3185  0.0399  0.9635
  430MOL0     O56652   0.341   0.905   7.877  0.3850 -0.3616  0.0137
  430MOL0     C56653   0.215   0.904   7.943  0.6106  0.7893 -0.2218
  430MOL0     C56654   0.100   0.953   7.886 -0.2146  0.2810 -0.7134
  430MOL0     C56655  -0.025   0.929   7.937  0.1302 -1.1077 -0.5248
  430MOL0     C56656  -0.040   0.846   8.051  0.2693  1.1471 -0.1936
  430MOL0     C56657  -0.184   0.793   8.073  0.1570 -0.2542  0.1262
  430MOL0     O56658  -0.281   0.820   7.976  0.2351  0.5912 -0.0926
  430MOL0     C56659  -0.410   0.762   7.985  0.6644 -0.4933  0.0867
  430MOL0     C56660  -0.510   0.860   7.948  0.0535  0.7827 -0.7620
  430MOL0     C56661  -0.646   0.823   7.975 -0.3221 -0.6935  0.9880
  430MOL0     C56662  -0.678   0.702   8.047  1.1940 -0.4173  0.6725
  430MOL0     O56663  -0.807   0.689   8.083 -0.5568 -0.0684  1.5876
  430MOL0     C56664  -0.834   0.595   8.183 -0.4700 -0.1766 -0.0126
  430MOL0     C56665  -0.974   0.603   8.220  0.8656  0.0082 -0.9940
  430MOL0     C56666  -1.005   0.736   8.290  0.0055  0.6768 -0.1858
  430MOL0     C56667  -1.146   0.736   8.347 -1.0615 -0.7432  0.4580
  430MOL0     C56668  -1.163   0.667   8.476  0.1251 -1.1282 -0.4159
  430MOL0     C56669  -1.307   0.643   8.500  0.6181 -0.0023 -0.7092
  430MOL0     C56670  -1.368   0.781   8.546  0.0186  1.0101  0.6000
  430MOL0     C56671  -1.514   0.781   8.561 -0.8427 -0.1554  0.1572
  430MOL0    Cl56672  -1.561   0.678   8.691 -0.2568  0.1518 -0.4124
  430MOL0     C56673  -0.584   0.610   8.065 -0.2041 -0.7535  0.3468
  430MOL0     C56674  -0.451   0.649   8.049  0.1805  0.8634  0.4671
  430MOL0     O56675  -0.192   0.728   8.175  0.2436 -0.4537 -0.4856
  430MOL0     C56676   0.073   0.795   8.114 -0.4142  0.6802 -0.7427
  430MOL0     C56677   0.206   0.834   8.066  1.5200 -0.5477 -0.8820
  430MOL0     N56678   0.783   1.192   7.632 -0.5174  0.7241 -0.4135
  430MOL0     N56679   0.898   1.238   7.584  0.1519  0.5926 -0.0014
  430MOL0     C56680   1.994   1.081   7.388  0.1618 -0.4353  0.4919
  430MOL0     C56681   2.055   0.966   7.341 -0.2239  0.2336  0.8927
  430MOL0     C56682   2.357   0.634   7.353 -0.8612 -1.1154 -0.6884
  430MOL0     C56683   2.488   0.661   7.318 -0.6392  0.5052  0.3783
  430MOL0     C56684   2.574   0.553   7.272 -0.2536  0.4987 -0.7207
  430MOL0     C56685   2.519   0.428   7.250  0.3055  0.3691 -0.0023
  430MOL0     O56686   2.600   0.333   7.199 -0.3946  0.0952 -0.6943
  430MOL0     C56687   2.718   0.312   7.281  0.4552 -0.6196  0.1315
  430MOL0     C56688   2.786   0.180   7.262 -0.0433 -0.5749 -1.1229
  430MOL0     C56689   2.911   0.182   7.346  0.3052  0.0678  0.5024
  430MOL0     C56690   2.983   0.051   7.336 -0.0088 -0.0579  0.7733
  430MOL0     C56691   3.103   0.078   7.411 -0.8828  0.1025  0.3038
  430MOL0     C56692   3.207   0.123   7.464  0.3688 -0.1115 -0.6650
  430MOL0     C56693   2.391   0.403   7.285  0.6084  0.6371 -0.4340
  430MOL0     C56694   2.300   0.510   7.330  0.4376  0.5418 -0.6034
  430MOL0     H56695   2.036   0.779   7.610  2.8943  1.9278  0.5018
  430MOL0     H56696   1.924   1.004   7.698  4.1355  1.0009  0.4072
  430MOL0     H56697   1.719   1.179   7.661  3.5974  1.6672  1.1438
  430MOL0     H56698   1.686   1.143   7.486  3.5817 -2.1548 -0.7178
  430MOL0     H56699   1.768   1.426   7.565  1.2701 -0.0201 -0.3181
  430MOL0     H56700   1.601   1.375   7.610 -1.0403  2.2473 -1.6968
  430MOL0     H56701   1.720   1.374   7.333 -1.2617  0.5421 -1.7701
  430MOL0     H56702   1.626   1.509   7.421  1.1935 -1.1552  0.5511
  430MOL0     H56703   1.499   1.381   7.253  2.4413  2.2320 -0.5032
  430MOL0     H56704   1.527   1.230   7.349 -0.2715  0.5833  1.9171
  430MOL0     H56705   1.358   1.466   7.441  1.2635  0.7017 -3.5455
  430MOL0     H56706   1.392   1.316   7.535  3.6891 -0.1602 -0.0083
  430MOL0     H56707   1.314   1.187   7.330  1.2396  1.4470 -0.0732
  430MOL0     H56708   1.254   1.327   7.262 -0.5509 -0.5038  0.7049
  430MOL0     H56709   1.153   1.245   7.545 -0.7337 -0.4048 -0.3204
  430MOL0     H56710   1.108   1.385   7.453  0.8135  0.5288  2.8711
  430MOL0     H56711   1.069   1.091   7.365  0.4057 -0.5183  0.1222
  430MOL0     H56712   1.020   1.224   7.273  0.5391  3.0419 -0.1907
  430MOL0     H56713   0.804   1.024   7.349 -4.0325  1.5169  0.6936
  430MOL0     H56714   0.630   0.915   7.511  1.8923  1.0806 -1.5184
  430MOL0     H56715   0.515   1.044   7.550 -0.1189  1.0231  1.0978
  430MOL0     H56716   0.702   0.983   7.780 -1.2758 -1.2669  3.0370
  430MOL0     H56717   0.567   0.871   7.745 -4.3126  0.6287 -1.7570
  430MOL0     H56718   0.536   1.063   7.903  0.8454 -4.8878 -0.5646
  430MOL0     H56719   0.513   1.169   7.760 -0.2568 -1.0356 -3.8919
  430MOL0     H56720   0.346   0.982   7.683  1.0500 -1.2779  0.8148
  430MOL0     H56721   0.304   1.096   7.820 -1.2613 -0.4926  2.4846
  430MOL0     H56722   0.122   1.004   7.793  0.3542  0.2030 -0.6226
  430MOL0     H56723  -0.115   0.969   7.894 -0.8919 -1.5077  1.1515
  430MOL0     H56724  -0.479   0.960   7.918 -1.3530  1.1825 -0.9452
  430MOL0     H56725  -0.727   0.893   7.957 -2.6865 -3.3040  0.7244
  430MOL0     H56726  -0.770   0.608   8.271  1.1050 -2.8710 -0.6241
  430MOL0     H56727  -0.809   0.491   8.160 -7.0426 -2.0791 -0.3989
  430MOL0     H56728  -0.998   0.519   8.285 -0.3894 -1.2563 -2.9819
  430MOL0     H56729  -1.035   0.597   8.129  2.1373 -2.6493 -1.7562
  430MOL0     H56730  -1.002   0.816   8.215  1.5362  0.7717 -0.0615
  430MOL0     H56731  -0.940   0.762   8.375  1.7671  0.9719 -1.5508
  430MOL0     H56732  -1.163   0.843   8.368  1.6316  0.1582 -1.4769
  430MOL0     H56733  -1.221   0.705   8.274 -1.7802  1.1340  0.3236
  430MOL0     H56734  -1.124   0.715   8.566  1.6538 -3.0805  0.0366
  430MOL0     H56735  -1.111   0.571   8.464  2.9211  0.1518  0.4979
  430MOL0     H56736  -1.317   0.566   8.577 -1.4783  0.1135 -0.7907
  430MOL0     H56737  -1.349   0.609   8.405  1.4982  4.0027 -2.7671
  430MOL0     H56738  -1.318   0.807   8.640  0.2781  0.8325  0.5093
  430MOL0     H56739  -1.358   0.849   8.462  3.0937  0.3187  0.2911
  430MOL0     H56740  -1.567   0.749   8.471 -1.0261  0.8221 -0.0948
  430MOL0     H56741  -1.542   0.885   8.582 -0.6009 -0.0517 -0.0262
  430MOL0     H56742  -0.592   0.517   8.120  0.7907  0.5454  2.8910
  430MOL0     H56743  -0.374   0.588   8.095 -0.6952 -0.2556  0.4853
  430MOL0     H56744   0.056   0.724   8.194  0.1779 -0.4795 -1.6097
  430MOL0     H56745   0.301   0.804   8.109 -0.0243 -0.1992  3.3017
  430MOL0     H56746   2.003   1.169   7.325  0.9701  0.1490  1.3807
  430MOL0     H56747   2.117   0.955   7.252 -1.8037 -0.9368 -0.1083
  430MOL0     H56748   2.530   0.761   7.324  1.9673 -0.5244  0.5105
  430MOL0     H56749   2.676   0.579   7.246  0.5312 -1.5151  0.1277
  430MOL0     H56750   2.697   0.318   7.389 -2.7706 -2.7987 -0.2364
  430MOL0     H56751   2.792   0.390   7.260  0.5934 -0.4002  1.3622
  430MOL0     H56752   2.709   0.107   7.290  0.1800 -0.7279 -0.8997
  430MOL0     H56753   2.810   0.163   7.157 -0.4246 -1.8134 -1.0268
  430MOL0     H56754   2.891   0.196   7.453  1.0147  0.4990  0.5856
  430MOL0     H56755   2.968   0.262   7.298 -1.1153 -0.9094 -3.1294
  430MOL0     H56756   2.926  -0.034   7.375  0.2433  0.2223  1.7709
  430MOL0     H56757   3.010   0.034   7.231 -0.5796 -0.3663  0.6741
  430MOL0     H56758   3.283   0.156   7.532 -0.8739  0.1158  0.6582
  430MOL0     H56759   2.346   0.310   7.251  2.7445 -0.0388 -1.5803
  430MOL0     H56760   2.202   0.488   7.370  1.1943 -3.0727 -0.3549
  431MOL0     O56761   2.661   5.417   6.759 -0.1847 -0.0844 -0.0235
  431MOL0     C56762   2.655   5.533   6.734 -0.5653 -0.4129  0.8267
  431MOL0     O56763   2.544   5.605   6.719 -0.2806  0.0638  0.0112
  431MOL0     C56764   2.425   5.560   6.763  0.0421 -0.8559  0.3432
  431MOL0     C56765   2.317   5.557   6.672  0.5051  0.0494  0.7099
  431MOL0     C56766   2.185   5.520   6.712  0.0760  1.0004  1.1078
  431MOL0     C56767   2.157   5.487   6.850 -0.7527 -1.0451 -1.0910
  431MOL0     O56768   2.031   5.471   6.904 -0.1169 -0.1105 -0.5496
  431MOL0     C56769   1.934   5.431   6.802  0.2666  0.4881 -1.0067
  431MOL0     C56770   1.801   5.402   6.873 -0.2485  0.1527 -0.0143
  431MOL0     C56771   1.691   5.356   6.777 -0.1941 -0.8805  0.2890
  431MOL0     C56772   1.679   5.459   6.653 -0.4498 -0.4527  0.7330
  431MOL0     C56773   1.547   5.443   6.580 -1.0472  0.4134 -0.5987
  431MOL0     C56774   1.426   5.492   6.665 -0.6281  0.3643  0.0196
  431MOL0     C56775   1.298   5.512   6.585 -0.0011  0.1259  0.0315
  431MOL0     C56776   1.184   5.566   6.664 -0.1532 -0.7065 -0.1020
  431MOL0     N56777   1.063   5.611   6.587 -0.1902  0.0698 -0.6915
  431MOL0     C56778   1.007   5.743   6.565 -0.2433 -0.0032 -0.3136
  431MOL0     C56779   0.897   5.708   6.493 -0.3321 -0.2906 -1.3095
  431MOL0     C56780   0.799   5.817   6.455 -0.2978  0.1822  0.1860
  431MOL0     C56781   0.681   5.766   6.364 -0.0909  0.7529  0.3300
  431MOL0     C56782   0.620   5.886   6.298  0.4157 -0.4309  0.2268
  431MOL0     C56783   0.532   5.972   6.400 -1.1178  1.0879 -0.1210
  431MOL0     O56784   0.398   5.934   6.366 -0.2254  0.3486 -0.2227
  431MOL0     C56785   0.297   6.023   6.378 -0.4238 -0.4046 -0.5895
  431MOL0     C56786   0.309   6.138   6.460  1.2103  0.1119 -0.1108
  431MOL0     C56787   0.191   6.217   6.496  0.3453 -0.1279  1.6408
  431MOL0     C56788   0.074   6.199   6.417 -0.1593  0.0642 -0.5435
  431MOL0     C56789  -0.049   6.283   6.436 -0.1603 -1.2151  0.8125
  431MOL0     O56790  -0.047   6.379   6.534 -0.5101 -0.1150  0.0058
  431MOL0     C56791  -0.161   6.455   6.569 -0.7561  0.5228 -0.5533
  431MOL0     C56792  -0.252   6.507   6.477 -0.0285 -0.1873 -1.1600
  431MOL0     C56793  -0.366   6.579   6.516  0.2753 -0.6629 -0.7186
  431MOL0     C56794  -0.370   6.619   6.653  0.2898 -0.5615 -0.2145
  431MOL0     O56795  -0.471   6.699   6.704  0.0153 -0.0758 -0.4383
  431MOL0     C56796  -0.607   6.701   6.656 -0.3324 -0.7350  0.5911
  431MOL0     C56797  -0.660   6.840   6.685  0.1078  0.3688  0.2609
  431MOL0     C56798  -0.780   6.880   6.603  0.7837 -1.3994 -0.0303
  431MOL0     C56799  -0.829   7.018   6.661 -0.4160  0.0204  0.1252
  431MOL0     C56800  -0.971   7.060   6.637 -0.7398 -0.1263  0.3251
  431MOL0     C56801  -0.985   7.137   6.508  0.5043 -0.6987  0.8603
  431MOL0     C56802  -1.132   7.160   6.479  0.3211  0.0468 -0.3699
  431MOL0     C56803  -1.207   7.235   6.594 -0.5330  0.1989 -0.0467
  431MOL0    Cl56804  -1.272   7.130   6.724  0.0360 -0.1351 -0.0803
  431MOL0     C56805  -0.278   6.579   6.741 -0.3048  0.0705 -0.2673
  431MOL0     C56806  -0.170   6.496   6.698  0.3095  0.6967  0.5366
  431MOL0     O56807  -0.146   6.257   6.363 -0.3797 -0.9271 -0.0745
  431MOL0     C56808   0.079   6.084   6.336  0.6605  0.3236 -0.1589
  431MOL0     C56809   0.177   5.994   6.316  0.8196 -0.0333 -0.5034
  431MOL0     N56810   0.880   5.576   6.468  0.2059 -0.1861  0.5502
  431MOL0     N56811   0.975   5.517   6.531  0.2964  0.4001  0.3399
  431MOL0     C56812   2.260   5.506   6.944 -0.0405  0.1224  0.8228
  431MOL0     C56813   2.392   5.538   6.898 -0.0892 -0.9951 -0.3354
  431MOL0     C56814   2.775   5.610   6.704 -0.9028  0.5097  0.7714
  431MOL0     C56815   2.907   5.554   6.727 -0.1071  1.1092 -0.1753
  431MOL0     C56816   3.021   5.620   6.686  0.4198 -0.4786  0.3347
  431MOL0     C56817   3.007   5.743   6.627  0.0016  0.1314  0.3148
  431MOL0     O56818   3.128   5.801   6.582 -0.3734  0.4483  0.2904
  431MOL0     C56819   3.135   5.942   6.547 -0.4398 -0.6553 -0.4290
  431MOL0     C56820   3.113   5.952   6.394  0.3645 -0.9665 -0.2842
  431MOL0     C56821   3.213   5.863   6.316 -0.2723  0.5270  0.0214
  431MOL0     C56822   3.224   5.918   6.176  0.0976 -0.2664 -0.0995
  431MOL0     C56823   3.321   5.846   6.095 -1.2993  0.8257  0.5309
  431MOL0     C56824   3.386   5.771   6.026 -0.8927  0.0047  0.9386
  431MOL0     C56825   2.884   5.799   6.592  0.4026  0.5395 -0.0756
  431MOL0     C56826   2.767   5.737   6.641 -0.4398  0.3748  0.1345
  431MOL0     H56827   2.351   5.573   6.570  6.4312  0.6820  2.4150
  431MOL0     H56828   2.113   5.531   6.631  1.8878 -0.1248 -0.7665
  431MOL0     H56829   1.966   5.340   6.750 -1.1921 -0.2270 -0.7089
  431MOL0     H56830   1.911   5.505   6.725 -0.5040 -1.7071 -3.0240
  431MOL0     H56831   1.765   5.495   6.917  0.0474  0.7251 -0.9443
  431MOL0     H56832   1.817   5.330   6.953 -0.1586  0.5554  0.3326
  431MOL0     H56833   1.598   5.352   6.836  0.9063  0.8364  2.2715
  431MOL0     H56834   1.703   5.262   6.722 -1.9250  0.1247 -1.9963
  431MOL0     H56835   1.685   5.563   6.687  0.1654 -0.5112  0.8037
  431MOL0     H56836   1.758   5.439   6.581 -0.3784 -1.6121  1.1110
  431MOL0     H56837   1.534   5.339   6.549  1.9871 -0.8897  1.8872
  431MOL0     H56838   1.560   5.494   6.484  0.2928  0.6142 -0.3306
  431MOL0     H56839   1.451   5.585   6.717  0.9065 -1.0894  2.0814
  431MOL0     H56840   1.409   5.413   6.738 -0.3147 -0.4316 -0.7506
  431MOL0     H56841   1.313   5.568   6.493  0.6454 -0.8494 -0.4707
  431MOL0     H56842   1.280   5.415   6.538  0.1085  1.0571 -2.0518
  431MOL0     H56843   1.221   5.646   6.728 -1.4255  1.3798 -1.8489
  431MOL0     H56844   1.157   5.484   6.731 -0.8549  1.0329  1.8530
  431MOL0     H56845   1.039   5.840   6.602  1.0705 -1.0093  1.3545
  431MOL0     H56846   0.858   5.890   6.398 -0.7984  1.5803  1.4073
  431MOL0     H56847   0.758   5.866   6.544 -2.5612  0.8722 -1.1566
  431MOL0     H56848   0.609   5.708   6.423  0.3473 -1.7289 -1.4123
  431MOL0     H56849   0.726   5.694   6.295  0.9328  1.2833  0.4247
  431MOL0     H56850   0.700   5.948   6.257 -2.9104  1.8203 -3.4748
  431MOL0     H56851   0.559   5.874   6.209 -1.5649  0.6199  1.3699
  431MOL0     H56852   0.554   6.078   6.385  2.0962  0.6270  0.5477
  431MOL0     H56853   0.557   5.948   6.503  2.5648  2.2863 -0.5918
  431MOL0     H56854   0.399   6.154   6.518  1.7315 -2.6631 -0.0463
  431MOL0     H56855   0.187   6.289   6.578 -1.2892  1.7440  0.0199
  431MOL0     H56856  -0.226   6.475   6.376 -1.3290 -0.8475 -1.3038
  431MOL0     H56857  -0.447   6.611   6.451  0.0568  0.5571  0.1311
  431MOL0     H56858  -0.672   6.628   6.704 -1.0007  1.2564  2.8797
  431MOL0     H56859  -0.605   6.690   6.547  0.7896  1.1420  0.3856
  431MOL0     H56860  -0.588   6.920   6.670 -1.9057  2.6108  1.8017
  431MOL0     H56861  -0.692   6.827   6.789  0.4727 -2.6230  0.0862
  431MOL0     H56862  -0.858   6.803   6.598 -1.4082  0.7556 -1.6993
  431MOL0     H56863  -0.755   6.896   6.498 -0.9386  1.8577 -0.0542
  431MOL0     H56864  -0.816   7.013   6.769  0.1493  2.9833  0.2752
  431MOL0     H56865  -0.763   7.098   6.628 -0.4083 -0.2845 -0.6153
  431MOL0     H56866  -1.004   7.125   6.719  2.8669  1.6460  0.5293
  431MOL0     H56867  -1.027   6.967   6.620  2.3827 -2.3707  1.4718
  431MOL0     H56868  -0.940   7.089   6.420  1.7081  0.1750  0.9609
  431MOL0     H56869  -0.929   7.231   6.518  2.1493 -1.3228 -1.6221
  431MOL0     H56870  -1.132   7.202   6.378 -2.3685 -1.0890 -0.9207
  431MOL0     H56871  -1.188   7.068   6.462  1.2109 -0.8440  1.2024
  431MOL0     H56872  -1.292   7.288   6.549 -0.5205 -1.0897 -1.6841
  431MOL0     H56873  -1.136   7.302   6.642  1.5719 -1.5931 -0.5177
  431MOL0     H56874  -0.291   6.614   6.843 -0.8574 -1.4974  0.2289
  431MOL0     H56875  -0.097   6.465   6.773 -0.1686 -0.7619  0.4356
  431MOL0     H56876  -0.009   6.073   6.274  0.1481  2.1463  0.2008
  431MOL0     H56877   0.171   5.900   6.263  3.4894  0.4873 -1.9128
  431MOL0     H56878   2.239   5.491   7.049 -0.8784  0.8392  0.7747
  431MOL0     H56879   2.483   5.544   6.956  1.6950 -3.0326 -2.7240
  431MOL0     H56880   2.920   5.455   6.771  1.9978  1.4118  0.0149
  431MOL0     H56881   3.119   5.580   6.713  0.2230  1.7732  5.4777
  431MOL0     H56882   3.229   5.989   6.574 -2.1731  1.3337  2.7139
  431MOL0     H56883   3.070   5.999   6.613  2.3021  1.9125  0.2301
  431MOL0     H56884   3.011   5.923   6.367  0.5351 -0.5399 -1.4454
  431MOL0     H56885   3.127   6.054   6.358  0.1426 -0.9380 -0.2905
  431MOL0     H56886   3.159   5.769   6.301 -2.7648  1.9688 -0.6873
  431MOL0     H56887   3.313   5.853   6.358 -0.3282  1.4206  0.3841
  431MOL0     H56888   3.129   5.913   6.122  0.4955  2.4030 -1.2257
  431MOL0     H56889   3.249   6.024   6.183  0.5784 -0.4118  0.4050
  431MOL0     H56890   3.445   5.696   5.977  1.1269  1.8942  0.2886
  431MOL0     H56891   2.864   5.883   6.527 -0.0294 -1.4427 -2.6517
  431MOL0     H56892   2.672   5.791   6.640 -2.8465 -3.4235  1.6585
  432MOL0     O56893   1.994  10.392  11.260 -0.7793 -0.4116  0.6809
  432MOL0     C56894   2.061  10.297  11.219  0.8943 -0.3021 -0.0947
  432MOL0     O56895   2.016  10.187  11.158 -1.0707 -0.2498 -0.3842
  432MOL0     C56896   1.881  10.153  11.151 -0.1268 -0.2154  1.0059
  432MOL0     C56897   1.861  10.030  11.096 -0.0507  0.1902  0.1996
  432MOL0     C56898   1.731   9.967  11.110 -0.3964  0.4665  0.4935
  432MOL0     C56899   1.621  10.039  11.152 -0.6698  0.4525  0.7707
  432MOL0     O56900   1.499   9.989  11.127  1.0092  0.2302 -0.6508
  432MOL0     C56901   1.459   9.993  10.993 -0.4831 -0.1112  0.1691
  432MOL0     C56902   1.313   9.979  10.982  0.5094 -0.6356  0.3673
  432MOL0     C56903   1.258   9.860  11.049 -0.2638 -0.1384  0.0312
  432MOL0     C56904   1.118   9.832  10.996  0.3094  1.5469 -0.0232
  432MOL0     C56905   1.088   9.686  11.033 -0.5795  0.8308  0.0788
  432MOL0     C56906   0.963   9.632  10.958  0.3680 -0.5096 -0.3429
  432MOL0     C56907   0.837   9.724  10.975 -0.3896 -1.0215  0.0723
  432MOL0     C56908   0.724   9.678  10.874  0.1943 -0.1910 -0.0500
  432MOL0     N56909   0.600   9.748  10.905 -0.3000  0.8753 -0.1063
  432MOL0     C56910   0.525   9.741  11.021  0.0662 -0.0335 -0.3739
  432MOL0     C56911   0.433   9.839  11.008 -0.1561 -0.2985 -0.9237
  432MOL0     C56912   0.314   9.861  11.101 -0.2788 -0.0901  0.3217
  432MOL0     C56913   0.188   9.896  11.028  0.7324 -0.1973  0.3184
  432MOL0     C56914   0.152   9.798  10.918  0.0785  0.1164 -0.3886
  432MOL0     C56915   0.049   9.871  10.832  0.2693 -0.7733 -0.0280
  432MOL0     O56916  -0.062   9.914  10.919 -0.6314  0.3208  0.1067
  432MOL0     C56917  -0.160   9.818  10.931 -0.4298  0.2468 -0.2745
  432MOL0     C56918  -0.265   9.837  10.855  0.2017  0.3910 -0.6122
  432MOL0     C56919  -0.373   9.751  10.864  0.2976 -0.4232  0.9033
  432MOL0     C56920  -0.378   9.664  10.967  0.8799  1.0128  0.3359
  432MOL0     C56921  -0.506   9.583  10.985  0.1358 -0.5913  0.8856
  432MOL0     O56922  -0.594   9.578  10.875  0.4898 -0.3438  0.0969
  432MOL0     C56923  -0.706   9.491  10.887 -0.2024 -1.2646 -0.2640
  432MOL0     C56924  -0.692   9.357  10.899  0.6802 -1.0357  0.3968
  432MOL0     C56925  -0.799   9.273  10.903  0.4715  0.2776  0.4486
  432MOL0     C56926  -0.929   9.321  10.886 -1.2948 -0.5515 -0.7661
  432MOL0     O56927  -1.028   9.238  10.877  0.2543 -0.0691 -0.5836
  432MOL0     C56928  -1.166   9.282  10.898  0.8485  0.1274  0.2177
  432MOL0     C56929  -1.250   9.168  10.958 -0.7228  0.0665 -0.1596
  432MOL0     C56930  -1.268   9.056  10.848  0.5240  0.3289 -0.1968
  432MOL0     C56931  -1.271   8.910  10.906 -0.4007  0.3819  1.0504
  432MOL0     C56932  -1.402   8.864  10.973 -0.0744 -0.2496  0.2319
  432MOL0     C56933  -1.520   8.901  10.883  0.7367 -0.3665  0.1817
  432MOL0     C56934  -1.642   8.850  10.961 -0.3541 -0.2678  0.2796
  432MOL0     C56935  -1.764   8.849  10.875  0.0733 -0.6702 -0.4811
  432MOL0    Cl56936  -1.895   8.729  10.943 -0.5215  0.5219 -0.1849
  432MOL0     C56937  -0.946   9.461  10.861 -0.2060 -1.4286 -0.2285
  432MOL0     C56938  -0.834   9.544  10.858 -0.0555  0.0027 -0.3452
  432MOL0     O56939  -0.519   9.532  11.091 -0.0416  0.5584 -0.0736
  432MOL0     C56940  -0.268   9.636  11.050  0.3982  0.1404  0.3776
  432MOL0     C56941  -0.155   9.719  11.033 -0.2398  0.0626 -0.5590
  432MOL0     N56942   0.452   9.914  10.891 -1.0494  0.2981  0.4280
  432MOL0     N56943   0.548   9.855  10.832  0.3206 -0.4626 -0.0617
  432MOL0     C56944   1.637  10.168  11.206  1.2196  0.3097 -0.3628
  432MOL0     C56945   1.767  10.227  11.206  0.1044 -0.1853 -0.3513
  432MOL0     C56946   2.208  10.299  11.230 -0.0881 -0.5163 -0.0376
  432MOL0     C56947   2.284  10.212  11.159  0.6088 -0.1001  0.7185
  432MOL0     C56948   2.430  10.229  11.166  0.6545 -0.0493  0.2757
  432MOL0     C56949   2.491  10.331  11.241  0.7533 -0.1267 -0.6863
  432MOL0     O56950   2.629  10.331  11.255 -0.3093  0.5212  0.5045
  432MOL0     C56951   2.698  10.441  11.326 -1.0817 -0.5148  0.1027
  432MOL0     C56952   2.733  10.551  11.231  0.1766  0.6912  0.2698
  432MOL0     C56953   2.855  10.517  11.146 -0.1897 -0.6712 -0.3546
  432MOL0     C56954   2.856  10.632  11.047 -0.1964  0.0716 -0.3831
  432MOL0     C56955   2.889  10.764  11.100 -0.4020 -0.8839  1.1128
  432MOL0     C56956   2.904  10.877  11.142 -0.3934 -0.7909 -0.1421
  432MOL0     C56957   2.410  10.407  11.318 -0.5895 -0.0535  0.1427
  432MOL0     C56958   2.274  10.401  11.310 -0.3561  1.2813  0.3069
  432MOL0     H56959   1.935   9.968  11.047  0.2197  0.9288 -0.3342
  432MOL0     H56960   1.718   9.868  11.069  0.7172 -0.6565  2.6757
  432MOL0     H56961   1.510   9.915  10.935  1.7382  1.2698  0.1303
  432MOL0     H56962   1.496  10.084  10.944  2.9356 -2.1858 -1.5216
  432MOL0     H56963   1.300   9.959  10.875  0.0991 -1.8630  0.6269
  432MOL0     H56964   1.273  10.079  11.002 -0.9146 -0.0092 -4.3193
  432MOL0     H56965   1.265   9.884  11.156 -1.2748 -0.4888  0.1841
  432MOL0     H56966   1.322   9.778  11.015  0.4218  0.0363  0.8477
  432MOL0     H56967   1.054   9.895  11.058  0.6507  1.0031  0.9002
  432MOL0     H56968   1.110   9.837  10.887 -2.4317  1.8364  0.1316
  432MOL0     H56969   1.080   9.684  11.142  1.7921 -1.4713  0.3248
  432MOL0     H56970   1.169   9.617  11.009 -1.8076 -0.0527 -1.7184
  432MOL0     H56971   0.951   9.528  10.989  2.3002 -0.4920  0.6119
  432MOL0     H56972   1.001   9.641  10.856  2.3195 -2.0672  0.1743
  432MOL0     H56973   0.799   9.716  11.078  3.5140 -1.2399  1.6934
  432MOL0     H56974   0.872   9.826  10.955  0.0496 -1.3239 -0.7525
  432MOL0     H56975   0.711   9.570  10.879 -1.8679 -0.1628 -2.7378
  432MOL0     H56976   0.767   9.698  10.775 -1.3462  0.0022 -0.7051
  432MOL0     H56977   0.522   9.672  11.105  2.9078  1.3950  1.0335
  432MOL0     H56978   0.342   9.934  11.177  1.5630  0.8060 -1.1278
  432MOL0     H56979   0.285   9.768  11.150 -0.7287  0.5615  1.3367
  432MOL0     H56980   0.201   9.984  10.965  2.3371 -0.9656 -0.4797
  432MOL0     H56981   0.108   9.921  11.099  0.4767 -0.0436 -0.0212
  432MOL0     H56982   0.241   9.787  10.856  0.1992  3.3889 -0.9214
  432MOL0     H56983   0.120   9.702  10.962  0.7141  0.5507  1.1067
  432MOL0     H56984   0.021   9.819  10.741  0.5683 -1.4620  0.2702
  432MOL0     H56985   0.091   9.964  10.790 -1.1185 -1.1619 -2.4430
  432MOL0     H56986  -0.258   9.921  10.787  1.1573  1.7437  1.0645
  432MOL0     H56987  -0.462   9.769  10.806  0.4387  3.0874  1.5570
  432MOL0     H56988  -0.591   9.320  10.904  1.3303  0.5089 -0.5340
  432MOL0     H56989  -0.779   9.167  10.909 -0.9455  0.0972  4.4008
  432MOL0     H56990  -1.214   9.317  10.806  1.1343 -1.4501 -0.5663
  432MOL0     H56991  -1.164   9.361  10.975  1.6477 -1.3210  1.7505
  432MOL0     H56992  -1.353   9.197  10.977 -1.6525 -0.4796 -3.6690
  432MOL0     H56993  -1.202   9.126  11.047 -3.1850  0.1446  1.2787
  432MOL0     H56994  -1.181   9.052  10.781 -0.0926 -0.8666 -0.9654
  432MOL0     H56995  -1.353   9.080  10.783 -0.8072 -1.6665  0.7294
  432MOL0     H56996  -1.258   8.839  10.824  0.7324  3.8868 -2.0781
  432MOL0     H56997  -1.191   8.905  10.980  1.7325  0.0950 -1.1561
  432MOL0     H56998  -1.409   8.905  11.074  0.8573  0.2546  0.1109
  432MOL0     H56999  -1.393   8.756  10.982  4.4805 -0.0047  1.4341
  432MOL0     H57000  -1.514   8.855  10.783  1.3348 -0.6015  0.3279
  432MOL0     H57001  -1.529   9.008  10.866 -0.7067  0.0307  2.8768
  432MOL0     H57002  -1.623   8.749  10.999 -1.5076 -0.8158 -0.5420
  432MOL0     H57003  -1.656   8.913  11.049  2.3182 -2.2150  2.2438
  432MOL0     H57004  -1.753   8.810  10.774 -0.0563  3.4827 -2.3103
  432MOL0     H57005  -1.819   8.944  10.879 -3.0622 -2.3547 -0.1314
  432MOL0     H57006  -1.036   9.521  10.847  0.4164  0.7489  3.6462
  432MOL0     H57007  -0.840   9.652  10.843 -3.3170  0.0533  0.3906
  432MOL0     H57008  -0.272   9.553  11.119  1.2221 -0.8076 -0.6843
  432MOL0     H57009  -0.063   9.722  11.091  0.2833  2.2915 -1.4225
  432MOL0     H57010   1.550  10.222  11.245 -0.5937 -1.8134 -1.2386
  432MOL0     H57011   1.762  10.330  11.242 -1.1618 -0.3657  0.0440
  432MOL0     H57012   2.236  10.171  11.071 -0.8962  1.5019  0.7401
  432MOL0     H57013   2.482  10.176  11.087 -1.0721  1.3712 -1.9549
  432MOL0     H57014   2.789  10.392  11.360 -3.3784 -4.8754  0.7840
  432MOL0     H57015   2.643  10.482  11.411 -0.1533 -1.7077  1.3241
  432MOL0     H57016   2.645  10.576  11.171 -0.6800 -1.4694  0.5536
  432MOL0     H57017   2.748  10.640  11.293  0.7242 -0.2417  1.5029
  432MOL0     H57018   2.840  10.427  11.086 -0.2964 -1.0868  0.2917
  432MOL0     H57019   2.951  10.515  11.199 -0.3037  0.5626 -0.0769
  432MOL0     H57020   2.939  10.610  10.979  1.0190 -0.5281  1.2170
  432MOL0     H57021   2.766  10.641  10.986 -0.4583  2.1192  0.2273
  432MOL0     H57022   2.901  10.976  11.182 -1.8411 -1.0596  0.4745
  432MOL0     H57023   2.440  10.465  11.405  0.3108  0.2542 -0.3626
  432MOL0     H57024   2.228  10.479  11.369 -2.7949  1.8268 -2.1259
  433MOL0     O57025   4.152   5.403   6.711 -0.3631  0.2519 -0.0165
  433MOL0     C57026   4.215   5.438   6.809 -0.4525  0.1072  0.3173
  433MOL0     O57027   4.207   5.555   6.872  0.2060  1.1193  0.4316
  433MOL0     C57028   4.138   5.650   6.808  0.0298  0.2152 -0.2368
  433MOL0     C57029   4.007   5.677   6.846 -0.2087  1.5534  0.0058
  433MOL0     C57030   3.939   5.784   6.793  0.3641 -0.3310  0.1551
  433MOL0     C57031   3.993   5.877   6.705 -0.3541  0.3686  0.1467
  433MOL0     O57032   3.914   5.976   6.662 -0.2241  0.1972 -0.2819
  433MOL0     C57033   3.942   6.025   6.532 -1.0111 -0.4384  0.6312
  433MOL0     C57034   4.033   6.149   6.543 -0.6714 -0.2532 -0.0258
  433MOL0     C57035   3.959   6.278   6.577  0.0490 -0.1800  0.2940
  433MOL0     C57036   3.868   6.316   6.462  0.8126  0.0937 -0.3566
  433MOL0     C57037   3.813   6.458   6.502  0.8398 -0.1384 -0.1996
  433MOL0     C57038   3.722   6.511   6.388 -0.4298  0.5626 -0.6877
  433MOL0     C57039   3.586   6.456   6.385  0.3613  0.7914  0.7610
  433MOL0     C57040   3.508   6.524   6.261 -0.5746  0.0259  0.4453
  433MOL0     N57041   3.365   6.486   6.241 -0.2326 -0.0395 -0.3427
  433MOL0     C57042   3.301   6.390   6.319 -0.1845 -0.1549  1.1707
  433MOL0     C57043   3.175   6.409   6.291  0.6008 -0.2002  1.1240
  433MOL0     C57044   3.063   6.332   6.352  0.6363  0.0729  0.1536
  433MOL0     C57045   2.971   6.411   6.450 -0.4862  0.4995 -0.3311
  433MOL0     C57046   2.892   6.319   6.543 -0.0035  0.2380 -0.5104
  433MOL0     C57047   2.801   6.218   6.472  0.2450 -0.3605 -0.3067
  433MOL0     O57048   2.742   6.282   6.359 -0.3355 -0.0556 -0.5271
  433MOL0     C57049   2.671   6.218   6.269 -0.7220  0.4878 -0.7012
  433MOL0     C57050   2.559   6.282   6.219 -0.1561  0.3853  0.6191
  433MOL0     C57051   2.484   6.229   6.114  1.2128  0.2110 -0.5375
  433MOL0     C57052   2.524   6.104   6.055 -0.4047  0.1784 -0.2387
  433MOL0     C57053   2.468   6.056   5.930  0.1497  0.1328 -0.5365
  433MOL0     O57054   2.486   5.927   5.896 -0.4149 -0.1651 -0.0599
  433MOL0     C57055   2.443   5.883   5.770  0.4033  0.3605  0.4631
  433MOL0     C57056   2.532   5.835   5.672 -0.2682 -0.8770  0.3882
  433MOL0     C57057   2.498   5.782   5.546  0.3393 -0.9275 -0.0950
  433MOL0     C57058   2.359   5.777   5.525 -0.0268 -0.6588 -0.1179
  433MOL0     O57059   2.329   5.734   5.399 -0.0949  0.0554 -0.4700
  433MOL0     C57060   2.229   5.787   5.311 -0.2866  0.1485  0.5683
  433MOL0     C57061   2.156   5.672   5.248  0.6080  0.0710  0.4930
  433MOL0     C57062   2.015   5.701   5.200  0.7567 -0.8193  0.5253
  433MOL0     C57063   2.012   5.780   5.064  0.3946 -0.8178 -0.4819
  433MOL0     C57064   1.875   5.820   5.013 -0.7167  0.8670  0.6866
  433MOL0     C57065   1.867   5.822   4.858 -0.3830 -0.6360  0.1191
  433MOL0     C57066   1.903   5.676   4.808 -0.1326  0.5654  0.4417
  433MOL0     C57067   1.806   5.623   4.709  0.3678 -0.3189 -0.8436
  433MOL0    Cl57068   1.858   5.660   4.542  0.5431 -0.0641 -0.4360
  433MOL0     C57069   2.264   5.795   5.625 -0.6085  0.3198 -1.2068
  433MOL0     C57070   2.309   5.846   5.750 -0.3418 -0.6875 -0.5690
  433MOL0     O57071   2.404   6.137   5.856  0.3934  0.1517 -0.3780
  433MOL0     C57072   2.628   6.035   6.116 -0.1420  0.4138 -0.9728
  433MOL0     C57073   2.702   6.089   6.228  0.6199 -0.3516 -0.1654
  433MOL0     N57074   3.163   6.507   6.192  0.1010 -0.5353  0.0733
  433MOL0     N57075   3.279   6.563   6.182 -0.2850  0.4595 -0.3516
  433MOL0     C57076   4.132   5.858   6.668 -0.1214 -0.0438 -0.9349
  433MOL0     C57077   4.200   5.745   6.724 -0.7168  0.1167 -0.0985
  433MOL0     C57078   4.304   5.340   6.857  0.4112  0.6671 -0.0479
  433MOL0     C57079   4.271   5.207   6.855  0.1096 -0.1429 -0.1917
  433MOL0     C57080   4.368   5.115   6.907  0.6401  0.8399 -0.8545
  433MOL0     C57081   4.483   5.154   6.957  0.3953  0.3245 -0.2732
  433MOL0     O57082   4.568   5.054   6.983  0.2947 -0.2906  0.3655
  433MOL0     C57083   4.686   5.085   7.062 -0.1665  0.7128  0.1608
  433MOL0     C57084   4.777   4.958   7.082 -0.5296 -0.1028  0.2938
  433MOL0     C57085   4.889   4.993   7.194  1.0693 -0.1903  0.4028
  433MOL0     C57086   5.005   4.890   7.205  0.7416  0.3668 -0.0723
  433MOL0     C57087   5.110   4.939   7.110 -0.6349  0.0444 -0.0413
  433MOL0     C57088   5.191   4.982   7.030  0.0596 -0.2653 -0.0375
  433MOL0     C57089   4.509   5.293   6.968 -0.2110  0.3860 -1.1585
  433MOL0     C57090   4.417   5.386   6.917 -0.0378  1.2769 -0.3457
  433MOL0     H57091   3.961   5.608   6.917 -0.9915  5.0897  3.3069
  433MOL0     H57092   3.832   5.775   6.811  0.1985 -1.8109 -1.3683
  433MOL0     H57093   3.843   6.055   6.496 -2.1139 -3.0523  1.2291
  433MOL0     H57094   3.982   5.960   6.453 -0.7478  0.2562  0.1801
  433MOL0     H57095   4.094   6.166   6.454 -0.9360 -2.8591 -0.7972
  433MOL0     H57096   4.108   6.125   6.619  0.3563 -2.3434 -1.5914
  433MOL0     H57097   4.033   6.352   6.606 -0.0286 -0.4716  1.2701
  433MOL0     H57098   3.896   6.274   6.666 -1.3956  0.8138 -0.6231
  433MOL0     H57099   3.915   6.321   6.364  1.8384  1.3109  0.1599
  433MOL0     H57100   3.793   6.237   6.457  1.7411 -0.9897  1.6722
  433MOL0     H57101   3.891   6.530   6.529  0.9392  0.0435 -0.9643
  433MOL0     H57102   3.760   6.440   6.596 -0.6034 -4.4333 -1.6029
  433MOL0     H57103   3.786   6.501   6.300  2.6036 -1.5129  1.5184
  433MOL0     H57104   3.717   6.618   6.409 -0.2726  0.7416 -1.5405
  433MOL0     H57105   3.590   6.348   6.369  1.0204  0.9435 -0.1262
  433MOL0     H57106   3.535   6.460   6.482 -1.2498  3.6884 -0.0967
  433MOL0     H57107   3.557   6.504   6.165 -1.0907 -2.2491  0.6099
  433MOL0     H57108   3.518   6.632   6.275  2.4166  0.1276 -1.4264
  433MOL0     H57109   3.350   6.325   6.391  0.0498 -1.2525  0.0471
  433MOL0     H57110   3.102   6.243   6.401 -0.1426 -0.0092  0.6284
  433MOL0     H57111   3.001   6.303   6.267  2.2667  0.9440 -1.4063
  433MOL0     H57112   2.904   6.466   6.383  0.2010  0.7866 -0.7996
  433MOL0     H57113   3.035   6.476   6.509 -1.5101  0.3512  0.9927
  433MOL0     H57114   2.964   6.265   6.606 -1.2584 -1.8051 -0.7371
  433MOL0     H57115   2.831   6.377   6.613 -3.5233 -1.1194 -2.2423
  433MOL0     H57116   2.722   6.181   6.538  0.3176  0.3141  0.1737
  433MOL0     H57117   2.865   6.134   6.444 -0.0621 -0.2315 -1.4706
  433MOL0     H57118   2.544   6.384   6.250  2.4493  0.9328  0.2703
  433MOL0     H57119   2.392   6.280   6.085  0.9618 -0.6791 -1.3363
  433MOL0     H57120   2.638   5.857   5.674  0.0418 -1.9781 -1.6825
  433MOL0     H57121   2.573   5.751   5.475 -1.6602 -1.9945 -1.8353
  433MOL0     H57122   2.275   5.865   5.250  1.4424 -2.3257 -1.5211
  433MOL0     H57123   2.154   5.844   5.367 -0.7347 -0.1943  0.3251
  433MOL0     H57124   2.140   5.586   5.313  1.7241  0.6703  1.6065
  433MOL0     H57125   2.212   5.644   5.158 -1.5416 -0.1257 -0.8520
  433MOL0     H57126   1.970   5.767   5.275 -0.7150 -0.3796 -0.7151
  433MOL0     H57127   1.961   5.607   5.189  0.3712 -0.4999 -0.3102
  433MOL0     H57128   2.068   5.874   5.058 -1.5248  0.3611 -0.6678
  433MOL0     H57129   2.062   5.710   4.996  0.5948 -2.9406  1.7122
  433MOL0     H57130   1.858   5.922   5.051 -0.2576  0.2389  2.7189
  433MOL0     H57131   1.804   5.746   5.051  0.1319  0.2754  1.1403
  433MOL0     H57132   1.929   5.900   4.813 -0.0731  1.8003  4.3292
  433MOL0     H57133   1.769   5.846   4.817  0.2589 -1.6972 -2.2200
  433MOL0     H57134   2.003   5.690   4.765 -0.8405 -3.1095 -2.9562
  433MOL0     H57135   1.908   5.598   4.884 -0.7112  0.5077  0.4214
  433MOL0     H57136   1.704   5.657   4.731 -0.2885 -3.6415  2.0138
  433MOL0     H57137   1.805   5.515   4.726 -1.1794 -0.0453  1.1438
  433MOL0     H57138   2.169   5.746   5.612  0.4642 -2.3078  0.1454
  433MOL0     H57139   2.247   5.849   5.840  0.2355 -0.5629 -0.1682
  433MOL0     H57140   2.654   5.936   6.080  1.3436  0.0500  0.9266
  433MOL0     H57141   2.789   6.031   6.256  0.5434 -0.5331 -0.3057
  433MOL0     H57142   4.186   5.923   6.600 -1.3099  1.2363 -0.7056
  433MOL0     H57143   4.306   5.725   6.731 -0.9145 -0.4303  2.6780
  433MOL0     H57144   4.184   5.167   6.804 -0.2989 -1.0132  1.1236
  433MOL0     H57145   4.351   5.010   6.886 -3.3027  1.1530 -0.1503
  433MOL0     H57146   4.660   5.140   7.152 -0.1806  0.3648  0.3698
  433MOL0     H57147   4.749   5.153   7.004  0.9518  1.4481  2.1780
  433MOL0     H57148   4.715   4.872   7.111 -0.4941 -1.8132 -3.9150
  433MOL0     H57149   4.818   4.925   6.986  0.3454 -1.4697  1.0897
  433MOL0     H57150   4.839   4.995   7.292  1.8914  0.0567  0.8223
  433MOL0     H57151   4.921   5.098   7.189  0.9991 -0.2132 -0.7747
  433MOL0     H57152   5.036   4.893   7.310 -2.2637 -2.2367  1.0278
  433MOL0     H57153   4.967   4.788   7.193 -2.7577  1.3788  1.0219
  433MOL0     H57154   5.261   5.022   6.959  1.0770  0.5385  1.3758
  433MOL0     H57155   4.608   5.317   7.004 -0.3919 -0.6237  0.0574
  433MOL0     H57156   4.449   5.489   6.923  0.2088  1.1639  0.3970
  434MOL0     O57157   7.677   7.928   4.301  0.2805 -0.3466 -0.4001
  434MOL0     C57158   7.650   7.985   4.193 -1.6903 -1.6186  0.1350
  434MOL0     O57159   7.732   8.068   4.131 -0.0970 -0.0305 -0.5768
  434MOL0     C57160   7.862   8.085   4.184  0.7347 -0.8961  0.5971
  434MOL0     C57161   7.891   8.141   4.311  0.4266  0.2403 -0.5082
  434MOL0     C57162   8.021   8.161   4.339  0.2554 -0.4700  0.8284
  434MOL0     C57163   8.127   8.144   4.238  0.2300 -0.7180 -0.9445
  434MOL0     O57164   8.252   8.180   4.286  0.4989  0.5977 -0.0402
  434MOL0     C57165   8.303   8.116   4.410  0.3231  0.2930 -0.2154
  434MOL0     C57166   8.452   8.109   4.404 -0.9684  0.3113 -0.1927
  434MOL0     C57167   8.516   8.245   4.386  0.0668  0.0859 -0.7542
  434MOL0     C57168   8.663   8.240   4.418 -0.4233 -0.1979 -0.8802
  434MOL0     C57169   8.743   8.368   4.399 -0.1189 -0.3181 -0.8134
  434MOL0     C57170   8.890   8.340   4.438  0.4151  0.1782 -0.5230
  434MOL0     C57171   8.999   8.444   4.397  0.6236  0.0521  0.6087
  434MOL0     C57172   9.143   8.380   4.391 -0.4288 -0.0394  0.8775
  434MOL0     N57173   9.240   8.464   4.312 -0.9086  0.6820  0.8887
  434MOL0     C57174   9.364   8.509   4.367  0.2271  0.5197  0.6820
  434MOL0     C57175   9.424   8.560   4.259  0.5314 -0.8031 -0.4319
  434MOL0     C57176   9.554   8.632   4.261  0.4373  0.3777  0.0170
  434MOL0     C57177   9.678   8.543   4.280 -0.1962  0.4275 -0.0746
  434MOL0     C57178   9.684   8.420   4.185  0.4972 -0.2102 -0.2024
  434MOL0     C57179   9.808   8.334   4.207 -0.2844  0.1339 -0.2327
  434MOL0     O57180   9.827   8.309   4.343 -0.3760  0.7419  0.6056
  434MOL0     C57181   9.941   8.252   4.398  0.2564 -0.7516  0.5451
  434MOL0     C57182  10.058   8.218   4.321  0.3548 -0.5524 -0.1496
  434MOL0     C57183  10.172   8.178   4.394  0.8263 -0.1078 -0.1275
  434MOL0     C57184  10.181   8.176   4.529  0.1769 -0.3175 -0.3164
  434MOL0     C57185  10.310   8.161   4.593  0.1181 -0.4501 -0.1270
  434MOL0     O57186  10.420   8.171   4.504  0.2253  0.0132 -0.5404
  434MOL0     C57187  10.542   8.141   4.563  0.3573  0.6988 -0.4686
  434MOL0     C57188  10.564   8.027   4.644  0.1961 -0.1603  0.3195
  434MOL0     C57189  10.684   8.022   4.717 -0.3378  0.6115 -0.7302
  434MOL0     C57190  10.794   8.103   4.683 -0.8324  0.3028  0.2207
  434MOL0     O57191  10.919   8.064   4.728  0.1511 -0.4413 -0.1424
  434MOL0     C57192  10.994   8.172   4.790 -0.5402 -0.4417  0.6343
  434MOL0     C57193  11.146   8.151   4.780 -0.0881  0.4369 -0.1929
  434MOL0     C57194  11.189   8.033   4.875 -0.0496  0.2039  0.0227
  434MOL0     C57195  11.328   8.059   4.935 -0.2114  0.4987  0.2971
  434MOL0     C57196  11.370   7.944   5.036 -0.7788 -0.2539  0.2789
  434MOL0     C57197  11.460   7.827   4.972 -0.0214  0.5142  0.2554
  434MOL0     C57198  11.609   7.853   4.961 -0.6837  0.5008  0.1643
  434MOL0     C57199  11.695   7.719   4.973 -0.2645 -0.4022  0.1065
  434MOL0    Cl57200  11.863   7.769   4.931 -0.5785 -0.3834 -0.4639
  434MOL0     C57201  10.778   8.204   4.589 -0.5303  1.0651 -0.3011
  434MOL0     C57202  10.650   8.218   4.534  0.5877 -0.8908  1.0355
  434MOL0     O57203  10.315   8.161   4.720  0.1511  0.2433  1.2104
  434MOL0     C57204  10.065   8.202   4.604  0.6355  0.3847  0.8262
  434MOL0     C57205   9.951   8.240   4.538 -0.1777  0.9306 -0.4107
  434MOL0     N57206   9.335   8.552   4.144 -0.7799 -0.2375 -0.1964
  434MOL0     N57207   9.228   8.501   4.180 -0.8567  0.7059 -0.4772
  434MOL0     C57208   8.097   8.087   4.118 -0.1496  0.6257  0.3690
  434MOL0     C57209   7.960   8.058   4.092 -0.5176  0.1164  0.9516
  434MOL0     C57210   7.525   7.972   4.128  0.1366 -0.6955  1.0483
  434MOL0     C57211   7.398   8.014   4.196 -0.1246  0.5750 -0.2451
  434MOL0     C57212   7.276   7.985   4.133  0.7968 -0.6155  0.0401
  434MOL0     C57213   7.267   7.910   4.011 -1.0591  0.3323 -0.3382
  434MOL0     O57214   7.145   7.876   3.955 -0.5077 -0.3137  0.6687
  434MOL0     C57215   7.026   7.932   4.008  0.3391 -0.5370  0.1764
  434MOL0     C57216   6.914   7.903   3.904  0.2971 -1.2244  0.1068
  434MOL0     C57217   6.927   7.973   3.769  0.7391 -0.2982 -0.3973
  434MOL0     C57218   7.026   7.916   3.663 -0.0118 -0.7587  0.5629
  434MOL0     C57219   6.988   7.971   3.532  0.3768  0.5921 -0.0803
  434MOL0     C57220   6.948   8.001   3.422  0.1281  1.0027  0.8068
  434MOL0     C57221   7.390   7.881   3.948  0.0361  0.3143 -0.1049
  434MOL0     C57222   7.514   7.917   3.997 -0.5276 -1.0008  0.2481
  434MOL0     H57223   7.815   8.150   4.388 -0.0014 -3.3701 -0.3295
  434MOL0     H57224   8.057   8.180   4.440  4.5659 -2.8399  0.0019
  434MOL0     H57225   8.255   8.018   4.399 -1.0741  1.0192 -0.8142
  434MOL0     H57226   8.257   8.153   4.503 -1.5198 -1.4379 -0.3789
  434MOL0     H57227   8.485   8.040   4.326 -1.0883  1.4056 -1.2368
  434MOL0     H57228   8.468   8.065   4.504 -0.6380 -2.7544 -1.4655
  434MOL0     H57229   8.462   8.318   4.446  2.1986  1.1509 -0.0121
  434MOL0     H57230   8.501   8.282   4.284 -2.8881 -1.5280 -1.0227
  434MOL0     H57231   8.671   8.214   4.524  0.5136 -3.4993 -1.6436
  434MOL0     H57232   8.718   8.156   4.375 -0.7631 -2.3981  2.5247
  434MOL0     H57233   8.701   8.443   4.466  2.4759  0.7678 -0.2844
  434MOL0     H57234   8.730   8.411   4.299  2.5428  2.2024 -0.1950
  434MOL0     H57235   8.916   8.249   4.385  0.7379  0.3939 -0.7380
  434MOL0     H57236   8.901   8.312   4.543  0.5834 -2.9837 -1.3051
  434MOL0     H57237   8.975   8.475   4.295  1.0145 -2.2078 -0.2183
  434MOL0     H57238   8.995   8.535   4.457  1.0480 -0.8002  1.9681
  434MOL0     H57239   9.135   8.280   4.349 -3.0378  0.6003 -0.3405
  434MOL0     H57240   9.196   8.363   4.486 -0.7724 -0.9818  0.9090
  434MOL0     H57241   9.412   8.496   4.464 -0.3643 -1.7312  0.7305
  434MOL0     H57242   9.528   8.704   4.339 -0.3171 -0.3477  0.4655
  434MOL0     H57243   9.556   8.691   4.169  0.1729 -1.2976 -1.1049
  434MOL0     H57244   9.674   8.508   4.384 -0.9978 -0.2451 -0.3178
  434MOL0     H57245   9.770   8.601   4.270  0.1617  0.3406  2.1679
  434MOL0     H57246   9.603   8.351   4.212 -0.4876  0.7505 -0.6283
  434MOL0     H57247   9.681   8.455   4.081  2.7457 -0.7851 -0.5052
  434MOL0     H57248   9.895   8.384   4.163  0.6691 -1.9216 -0.8011
  434MOL0     H57249   9.803   8.237   4.157  1.6247  0.3074 -0.8506
  434MOL0     H57250  10.063   8.208   4.213  1.9462 -0.2400 -0.1297
  434MOL0     H57251  10.258   8.159   4.330 -1.6493 -2.8431 -3.0124
  434MOL0     H57252  10.486   7.954   4.662 -1.0085  0.8776 -0.5689
  434MOL0     H57253  10.688   7.943   4.791  1.0343  1.3916  0.0882
  434MOL0     H57254  10.964   8.177   4.895 -1.9337 -0.6045  0.2546
  434MOL0     H57255  10.969   8.264   4.738 -0.9459  1.2405  3.5567
  434MOL0     H57256  11.188   8.239   4.830  4.0529 -1.9623  0.9599
  434MOL0     H57257  11.178   8.149   4.675 -1.6263  3.5584 -0.8524
  434MOL0     H57258  11.184   7.947   4.807  0.8903 -0.7031  1.0787
  434MOL0     H57259  11.111   8.017   4.950 -0.6370 -0.4264 -0.6952
  434MOL0     H57260  11.401   8.082   4.857  0.2964 -3.2173 -0.5094
  434MOL0     H57261  11.328   8.146   5.001 -3.3284  0.5228  0.4444
  434MOL0     H57262  11.277   7.897   5.072 -1.7238  2.0129  0.9301
  434MOL0     H57263  11.435   7.986   5.113  1.8948 -4.5769  0.7339
  434MOL0     H57264  11.423   7.801   4.872 -2.5848 -1.0814  1.5188
  434MOL0     H57265  11.445   7.738   5.033  4.9206 -0.5045  0.4261
  434MOL0     H57266  11.631   7.902   4.865  0.6991  0.2424  0.3255
  434MOL0     H57267  11.650   7.922   5.035  1.4511 -0.8438  0.3123
  434MOL0     H57268  11.673   7.630   4.912  1.9233  0.5916 -2.3245
  434MOL0     H57269  11.688   7.689   5.078  0.4958  3.5026  1.4272
  434MOL0     H57270  10.866   8.261   4.560  1.5638  0.2033  3.6575
  434MOL0     H57271  10.646   8.288   4.452  1.5914  0.9130  2.4528
  434MOL0     H57272  10.061   8.224   4.710  0.9334  1.8861  0.5570
  434MOL0     H57273   9.857   8.249   4.591 -0.3828 -1.3277 -0.2954
  434MOL0     H57274   8.174   8.065   4.045  0.1148 -1.1174  1.1162
  434MOL0     H57275   7.927   8.012   3.999  0.3342  1.1162  0.1368
  434MOL0     H57276   7.413   8.071   4.287  4.6245  1.4198 -1.3099
  434MOL0     H57277   7.189   8.019   4.188  1.9702  0.3241  1.3804
  434MOL0     H57278   7.038   8.040   4.021  0.0723 -0.4887  0.0283
  434MOL0     H57279   7.011   7.885   4.106  2.8568 -2.3842 -0.2384
  434MOL0     H57280   6.897   7.796   3.897 -0.2203 -1.0735 -1.3246
  434MOL0     H57281   6.825   7.945   3.953  2.2200  1.6844  1.4288
  434MOL0     H57282   6.950   8.077   3.794  0.3631 -0.3165  0.0263
  434MOL0     H57283   6.826   7.981   3.728 -0.1281 -1.5569  1.3906
  434MOL0     H57284   7.130   7.938   3.687  0.1910 -0.9002 -0.1575
  434MOL0     H57285   7.016   7.807   3.658 -3.0213 -0.5450 -0.6319
  434MOL0     H57286   6.917   8.025   3.322 -0.7416 -2.1592  0.2062
  434MOL0     H57287   7.402   7.827   3.854 -1.4055 -0.4850  0.1432
  434MOL0     H57288   7.609   7.900   3.948  0.6574  0.3457  1.9295
  435MOL0     O57289   8.794   8.640  11.208  0.8371  0.0285 -0.2446
  435MOL0     C57290   8.791   8.585  11.098  0.3342  0.4635  0.6933
  435MOL0     O57291   8.723   8.477  11.063  0.6353 -0.2718 -0.3957
  435MOL0     C57292   8.651   8.413  11.160  0.6981 -0.4810  0.2854
  435MOL0     C57293   8.714   8.351  11.264 -0.9382 -0.3343 -0.3063
  435MOL0     C57294   8.654   8.261  11.352  0.1479 -0.6408 -0.5585
  435MOL0     C57295   8.517   8.240  11.350 -0.4400 -0.0779  0.7326
  435MOL0     O57296   8.441   8.159  11.433  0.1107 -0.2313  0.3154
  435MOL0     C57297   8.516   8.051  11.492 -0.1869  0.0283 -0.9380
  435MOL0     C57298   8.422   7.943  11.535  0.2624 -0.0747  0.3220
  435MOL0     C57299   8.308   7.991  11.626  0.4402  1.1512 -0.4557
  435MOL0     C57300   8.239   7.866  11.690  0.2241 -1.0119  0.3460
  435MOL0     C57301   8.139   7.916  11.792 -0.4096 -0.2589 -0.4660
  435MOL0     C57302   8.062   7.797  11.857 -0.1205 -0.8607 -0.0022
  435MOL0     C57303   7.964   7.846  11.956  0.0671  0.2357  0.3174
  435MOL0     C57304   7.898   7.732  12.017 -0.9878 -0.3648 -0.0461
  435MOL0     N57305   7.804   7.669  11.930 -0.6493  0.6926 -0.6680
  435MOL0     C57306   7.674   7.688  11.934  0.4397 -0.1965 -0.4403
  435MOL0     C57307   7.627   7.595  11.848 -0.6080  0.8228  0.0219
  435MOL0     C57308   7.480   7.558  11.814  0.9068 -0.3012 -0.1090
  435MOL0     C57309   7.409   7.469  11.922  0.9891 -0.1839  0.3179
  435MOL0     C57310   7.452   7.317  11.902 -1.0646  0.4726  0.9697
  435MOL0     C57311   7.367   7.217  11.982  1.8504  0.3211  0.6065
  435MOL0     O57312   7.223   7.246  11.962  0.3414 -0.1090  0.3728
  435MOL0     C57313   7.135   7.199  12.056 -0.5741  0.7871  0.4212
  435MOL0     C57314   7.123   7.275  12.174  0.2236 -0.5973  0.1061
  435MOL0     C57315   7.023   7.252  12.271 -0.2130  0.0888  0.2965
  435MOL0     C57316   6.941   7.135  12.259 -0.0545 -0.2567 -0.7776
  435MOL0     C57317   6.838   7.104  12.364  0.0521  0.9823 -0.8165
  435MOL0     O57318   6.757   6.994  12.331  0.2874  0.2652 -0.0295
  435MOL0     C57319   6.650   6.963  12.403 -0.5762  0.5191 -0.9799
  435MOL0     C57320   6.520   6.981  12.360 -0.0797  0.6506  0.9627
  435MOL0     C57321   6.412   6.954  12.439  0.0056 -0.3715 -0.2230
  435MOL0     C57322   6.437   6.917  12.574  0.1851  0.7709 -0.1077
  435MOL0     O57323   6.329   6.900  12.659 -0.0135  0.0156  0.1840
  435MOL0     C57324   6.342   6.798  12.761  0.3548  0.0890 -0.4439
  435MOL0     C57325   6.193   6.766  12.814 -0.0279  0.3262  0.9515
  435MOL0     C57326   6.200   6.625  12.869 -0.5911  0.3128  0.3730
  435MOL0     C57327   6.272   6.620  13.010  0.1055 -0.6181  0.1629
  435MOL0     C57328   6.260   6.484  13.081  0.3436 -0.7190 -0.1893
  435MOL0     C57329   6.278   6.503  13.228  0.3538 -0.3447  0.2023
  435MOL0     C57330   6.408   6.581  13.267 -0.5018 -0.6028  0.6280
  435MOL0     C57331   6.452   6.555  13.403 -0.3013 -0.3270 -0.5802
  435MOL0    Cl57332   6.319   6.612  13.501 -0.3547 -0.1222 -0.2371
  435MOL0     C57333   6.571   6.916  12.626 -0.2333  0.7798 -0.3586
  435MOL0     C57334   6.680   6.927  12.539  0.2195 -0.1691  0.0902
  435MOL0     O57335   6.813   7.174  12.457  0.1493 -0.5426 -0.0891
  435MOL0     C57336   6.963   7.049  12.144 -0.2037 -0.3049 -0.6114
  435MOL0     C57337   7.055   7.081  12.051  0.8654 -0.5121 -0.3588
  435MOL0     N57338   7.733   7.522  11.801  0.3373 -0.1338  0.5147
  435MOL0     N57339   7.842   7.579  11.841  0.4737  0.0673  0.3580
  435MOL0     C57340   8.443   8.312  11.248 -0.6451 -0.3983  0.6956
  435MOL0     C57341   8.514   8.398  11.159  0.2906 -0.7117 -0.5163
  435MOL0     C57342   8.886   8.642  11.005  0.6817  0.6550  0.4647
  435MOL0     C57343   9.005   8.701  11.049  0.2239 -1.5627  0.2164
  435MOL0     C57344   9.097   8.755  10.956 -0.0511 -0.5197  0.0929
  435MOL0     C57345   9.090   8.733  10.820  0.6160  0.3870 -1.0264
  435MOL0     O57346   9.190   8.778  10.743  0.4531  0.1898  0.0968
  435MOL0     C57347   9.209   8.685  10.627  0.5410  0.8143 -0.5660
  435MOL0     C57348   9.348   8.699  10.558 -0.2010  0.3183  0.4974
  435MOL0     C57349   9.381   8.836  10.509  0.0374 -0.6427 -0.7396
  435MOL0     C57350   9.528   8.836  10.458 -0.0121 -1.0171 -1.3310
  435MOL0     C57351   9.584   8.970  10.425  0.1928 -0.5355 -0.4259
  435MOL0     C57352   9.636   9.078  10.399  0.5475  0.3343 -0.5370
  435MOL0     C57353   8.974   8.674  10.769  0.5281 -0.0583 -0.9625
  435MOL0     C57354   8.877   8.624  10.859  0.3800 -0.0962 -0.1366
  435MOL0     H57355   8.821   8.357  11.277 -0.9231 -1.7446  0.4252
  435MOL0     H57356   8.723   8.213  11.420 -0.1163 -0.1154  0.0969
  435MOL0     H57357   8.572   8.078  11.582  2.6944  0.2214 -2.6657
  435MOL0     H57358   8.585   8.010  11.418  0.0697 -1.2499 -0.0137
  435MOL0     H57359   8.491   7.877  11.588 -1.2750 -3.1802 -1.2356
  435MOL0     H57360   8.380   7.881  11.455 -0.1253 -0.0096  0.4685
  435MOL0     H57361   8.240   8.044  11.560 -0.1686  2.8244  1.4427
  435MOL0     H57362   8.349   8.056  11.704 -0.2484 -1.2957  2.1415
  435MOL0     H57363   8.195   7.815  11.605 -0.0278  2.1078 -1.5638
  435MOL0     H57364   8.310   7.803  11.744 -1.7305 -0.7040  3.5347
  435MOL0     H57365   8.070   7.986  11.743  0.3178  0.1887 -0.8658
  435MOL0     H57366   8.191   7.970  11.871 -1.9630 -1.0521  1.1629
  435MOL0     H57367   8.138   7.729  11.897 -1.1633 -2.8222 -1.2124
  435MOL0     H57368   8.016   7.746  11.773  0.1256 -0.4870 -0.3653
  435MOL0     H57369   7.995   7.916  12.034  1.0259  3.0034 -2.3134
  435MOL0     H57370   7.894   7.910  11.901 -0.7788 -0.3497  0.7000
  435MOL0     H57371   7.860   7.761  12.115  2.5121  1.6635  0.8692
  435MOL0     H57372   7.991   7.678  12.035  2.1666  4.6432  0.4321
  435MOL0     H57373   7.619   7.746  12.007  1.0406 -0.0803 -0.0686
  435MOL0     H57374   7.478   7.505  11.718  1.5120 -1.2527  0.3885
  435MOL0     H57375   7.423   7.650  11.804 -1.6515 -1.6804  0.8865
  435MOL0     H57376   7.300   7.466  11.924  0.9569 -3.7560  0.2953
  435MOL0     H57377   7.446   7.496  12.022  0.0232  1.2184  0.3261
  435MOL0     H57378   7.447   7.289  11.796  0.3977 -1.9100  1.4787
  435MOL0     H57379   7.552   7.302  11.943  0.9909  0.4829 -3.4772
  435MOL0     H57380   7.390   7.236  12.087  3.2278 -0.3026  0.4474
  435MOL0     H57381   7.389   7.115  11.950 -0.2944 -0.0200  0.0494
  435MOL0     H57382   7.173   7.372  12.178  0.5502 -0.7618  0.0322
  435MOL0     H57383   7.007   7.336  12.338  0.6969 -0.5597  1.3629
  435MOL0     H57384   6.505   7.014  12.258 -0.0765  0.4134  0.8863
  435MOL0     H57385   6.310   6.961  12.404  0.4619 -4.6982 -3.2036
  435MOL0     H57386   6.385   6.848  12.848 -0.7746 -1.9061  1.3629
  435MOL0     H57387   6.403   6.717  12.720 -1.5894 -0.5293 -2.3079
  435MOL0     H57388   6.120   6.757  12.733 -1.8934 -0.7430  2.6622
  435MOL0     H57389   6.158   6.844  12.883  3.9279  1.7543  1.6380
  435MOL0     H57390   6.250   6.552  12.804 -3.8924 -1.7331 -0.1073
  435MOL0     H57391   6.096   6.593  12.873 -0.8737  1.1189 -0.1219
  435MOL0     H57392   6.377   6.649  13.004 -0.2345  0.9392  1.1954
  435MOL0     H57393   6.217   6.683  13.081 -1.6720 -1.2085 -0.6420
  435MOL0     H57394   6.334   6.418  13.033 -0.3780 -1.2856 -0.5400
  435MOL0     H57395   6.160   6.447  13.059 -0.4912  1.4219 -0.1866
  435MOL0     H57396   6.257   6.407  13.277 -0.5710 -0.7845 -1.0105
  435MOL0     H57397   6.201   6.560  13.280  2.0070  1.2508  1.0120
  435MOL0     H57398   6.486   6.555  13.195  0.6209 -2.3661  2.3753
  435MOL0     H57399   6.401   6.688  13.250  3.4813 -0.1286  1.0886
  435MOL0     H57400   6.544   6.612  13.416 -1.2721  2.1352 -3.5552
  435MOL0     H57401   6.482   6.450  13.417 -0.0770 -0.5328 -2.3669
  435MOL0     H57402   6.591   6.897  12.731  0.0963  1.5150 -0.2752
  435MOL0     H57403   6.777   6.898  12.577 -0.9403  0.1024  3.6619
  435MOL0     H57404   6.895   6.965  12.128 -1.6308  0.7128 -0.1542
  435MOL0     H57405   7.066   7.012  11.968  1.7438 -0.0262 -0.6562
  435MOL0     H57406   8.336   8.292  11.246 -0.5427 -0.9340 -0.2464
  435MOL0     H57407   8.457   8.448  11.081 -2.1652 -1.1618  0.8885
  435MOL0     H57408   9.013   8.726  11.154 -0.3165 -1.6394  0.2771
  435MOL0     H57409   9.181   8.816  10.990 -0.3928  0.0818 -0.1183
  435MOL0     H57410   9.134   8.696  10.548 -1.7859 -3.2904  0.7850
  435MOL0     H57411   9.210   8.585  10.671 -0.2515  1.3252  0.6519
  435MOL0     H57412   9.420   8.685  10.639 -0.7248  1.3127  1.1567
  435MOL0     H57413   9.363   8.632  10.473 -0.0725  1.2791 -0.2500
  435MOL0     H57414   9.370   8.899  10.598  2.2644 -1.5193  0.2083
  435MOL0     H57415   9.309   8.869  10.433 -1.6833 -0.6373  0.8121
  435MOL0     H57416   9.595   8.800  10.537 -2.4932 -2.4320  0.2388
  435MOL0     H57417   9.542   8.769  10.373  2.2631 -1.9121 -0.3426
  435MOL0     H57418   9.673   9.176  10.376  3.0822 -1.0961 -3.2202
  435MOL0     H57419   8.953   8.662  10.663 -3.3792  4.1091 -0.9835
  435MOL0     H57420   8.786   8.575  10.826 -0.1698  0.4519  0.5252
  436MOL0     O57421   1.644   1.597   9.968  0.2148 -0.4120 -0.1540
  436MOL0     C57422   1.717   1.693   9.997  0.5390 -0.2134  0.9180
  436MOL0     O57423   1.691   1.794  10.081 -0.5673  0.2314 -0.7785
  436MOL0     C57424   1.582   1.793  10.170  0.5071  0.3220  0.4416
  436MOL0     C57425   1.457   1.754  10.119  0.8852  0.6881  0.3351
  436MOL0     C57426   1.344   1.770  10.192 -0.3617  0.6338  0.6544
  436MOL0     C57427   1.355   1.814  10.319 -0.1758 -0.8647  0.0725
  436MOL0     O57428   1.226   1.837  10.361 -0.0807  0.0541  0.3314
  436MOL0     C57429   1.217   1.931  10.464 -1.2378  0.0522 -0.5561
  436MOL0     C57430   1.080   1.988  10.497 -0.5165  0.4793  0.0803
  436MOL0     C57431   1.039   2.109  10.397  0.3011 -0.0072  0.0138
  436MOL0     C57432   0.995   2.062  10.263 -0.3040  0.6088  0.5768
  436MOL0     C57433   0.937   2.169  10.163  0.0252 -0.5701  0.2235
  436MOL0     C57434   0.936   2.114  10.024  0.7250  0.3967  1.6208
  436MOL0     C57435   0.945   2.225   9.921  0.9039  0.5607  0.7106
  436MOL0     C57436   0.888   2.178   9.782 -0.0182 -0.3962  0.0360
  436MOL0     N57437   0.946   2.252   9.675 -0.5329 -0.4192  0.4047
  436MOL0     C57438   0.919   2.383   9.662  0.0280  0.4157 -0.2498
  436MOL0     C57439   0.904   2.411   9.536 -0.3864 -0.1961 -0.2122
  436MOL0     C57440   0.879   2.553   9.487  0.2682  0.8511  0.2672
  436MOL0     C57441   1.000   2.597   9.409 -0.0204  0.2477 -0.1178
  436MOL0     C57442   0.969   2.724   9.340 -0.1944  0.2002  0.6457
  436MOL0     C57443   1.045   2.731   9.210 -0.6264  0.3407 -0.7565
  436MOL0     O57444   1.174   2.785   9.250  0.2674  0.2242  1.0287
  436MOL0     C57445   1.266   2.798   9.140  1.0358  0.1148  0.7687
  436MOL0     C57446   1.243   2.786   9.004 -1.3251 -0.1867  0.2518
  436MOL0     C57447   1.353   2.808   8.917  0.2207  0.0154 -0.0136
  436MOL0     C57448   1.482   2.853   8.958 -0.7928  0.5810  0.5940
  436MOL0     C57449   1.590   2.873   8.865 -0.8532  0.0363  0.4200
  436MOL0     O57450   1.696   2.949   8.912  0.1867 -0.7577 -0.7703
  436MOL0     C57451   1.783   2.998   8.820  0.5837 -0.4593  0.0831
  436MOL0     C57452   1.846   3.127   8.849 -1.1408  0.6868 -0.5249
  436MOL0     C57453   1.930   3.183   8.750  0.3102  0.2806  0.4447
  436MOL0     C57454   1.969   3.118   8.629 -0.5914  0.1412  0.0773
  436MOL0     O57455   2.038   3.199   8.537  0.6187 -0.2111 -0.7130
  436MOL0     C57456   2.075   3.134   8.424 -1.5844 -0.0807 -0.1227
  436MOL0     C57457   2.141   3.245   8.341 -0.4671 -0.5978  0.4725
  436MOL0     C57458   2.222   3.199   8.214  0.6989  0.2275  0.4407
  436MOL0     C57459   2.341   3.111   8.244  0.2442  0.2252  0.2543
  436MOL0     C57460   2.434   3.091   8.127 -0.9641 -0.0605  0.1411
  436MOL0     C57461   2.512   3.221   8.088  0.2245 -0.2915  0.1970
  436MOL0     C57462   2.615   3.190   7.970  0.0815  0.7187  0.0584
  436MOL0     C57463   2.692   3.314   7.934 -1.6009 -1.0622  0.0249
  436MOL0    Cl57464   2.607   3.441   7.822 -0.4875 -0.2369 -0.2255
  436MOL0     C57465   1.917   2.992   8.610 -1.0382  0.2078 -0.4536
  436MOL0     C57466   1.833   2.926   8.706  0.2364 -0.9612  0.7546
  436MOL0     O57467   1.571   2.849   8.750  0.3198  0.1605 -0.2152
  436MOL0     C57468   1.495   2.880   9.091  0.1526 -0.4605 -0.5606
  436MOL0     C57469   1.398   2.837   9.185  0.5427  0.0495 -0.9532
  436MOL0     N57470   0.917   2.296   9.463  0.7702 -0.6545 -0.6011
  436MOL0     N57471   0.928   2.202   9.548 -0.5208  0.3103 -0.1746
  436MOL0     C57472   1.479   1.844  10.381 -0.3325 -0.0197 -0.6638
  436MOL0     C57473   1.592   1.837  10.302  0.4366  0.3586  0.3812
  436MOL0     C57474   1.846   1.690   9.923  0.2267 -1.0151  0.8944
  436MOL0     C57475   1.931   1.798   9.949 -0.9351  0.3637  0.0779
  436MOL0     C57476   2.055   1.786   9.898 -0.7879 -0.4845  0.3470
  436MOL0     C57477   2.101   1.683   9.821 -1.5364 -0.2819 -0.8120
  436MOL0     O57478   2.233   1.674   9.784  0.4833  0.9785 -0.9916
  436MOL0     C57479   2.340   1.759   9.812 -0.2398 -0.6500 -0.9325
  436MOL0     C57480   2.462   1.694   9.742  0.2072  0.2577 -0.5875
  436MOL0     C57481   2.580   1.784   9.718 -0.2644  0.0322 -0.3955
  436MOL0     C57482   2.621   1.860   9.844  0.0857 -0.2140 -0.1846
  436MOL0     C57483   2.659   1.789   9.959 -0.4190  0.2881 -0.2230
  436MOL0     C57484   2.695   1.722  10.051 -0.2255 -0.9152 -1.1743
  436MOL0     C57485   2.021   1.587   9.791  0.5186  0.8067 -0.1072
  436MOL0     C57486   1.893   1.585   9.844  0.5611 -0.5614  0.1260
  436MOL0     H57487   1.435   1.716  10.020 -3.0379  0.0780  1.2569
  436MOL0     H57488   1.250   1.743  10.145  0.2895 -3.3792  1.2717
  436MOL0     H57489   1.279   2.017  10.437 -1.0367 -0.1796 -0.8322
  436MOL0     H57490   1.273   1.880  10.543  4.9662 -0.2430 -4.4867
  436MOL0     H57491   1.075   2.019  10.602 -2.4530 -1.2254  0.5742
  436MOL0     H57492   1.007   1.906  10.487  0.3535 -0.6840  2.5126
  436MOL0     H57493   1.132   2.166  10.383 -0.9712  2.6915  1.5559
  436MOL0     H57494   0.958   2.176  10.429 -1.6196 -1.3017 -1.8538
  436MOL0     H57495   1.088   2.030  10.216 -0.3651 -0.4283  1.1457
  436MOL0     H57496   0.925   1.979  10.275  1.4447 -1.0899 -0.5775
  436MOL0     H57497   1.013   2.248  10.167 -0.3674 -0.1045 -1.0117
  436MOL0     H57498   0.844   2.218  10.191  1.3022  0.9190  2.1565
  436MOL0     H57499   0.852   2.051   9.994 -0.1396  1.1609  2.3862
  436MOL0     H57500   1.024   2.050  10.012 -0.6448 -1.2609 -0.3521
  436MOL0     H57501   0.882   2.309   9.952 -1.6998 -1.1346  0.3828
  436MOL0     H57502   1.046   2.262   9.904  0.4236  1.5412 -0.1042
  436MOL0     H57503   0.780   2.196   9.781 -0.3975 -2.4301  0.1029
  436MOL0     H57504   0.890   2.070   9.765  2.5963 -0.6049  1.2135
  436MOL0     H57505   0.908   2.455   9.743 -2.6362  0.0067 -0.1684
  436MOL0     H57506   0.869   2.624   9.569  0.7291 -0.0480  1.1277
  436MOL0     H57507   0.789   2.552   9.424 -0.7735  1.3668  1.6994
  436MOL0     H57508   1.037   2.521   9.340  0.2059  1.3018 -1.2022
  436MOL0     H57509   1.083   2.620   9.476 -0.2954  4.3940 -0.9271
  436MOL0     H57510   0.865   2.726   9.307 -0.6802 -1.9711  1.8217
  436MOL0     H57511   0.984   2.812   9.403 -0.4292  1.1623 -0.6236
  436MOL0     H57512   0.989   2.805   9.150 -0.5026  2.0773  1.1551
  436MOL0     H57513   1.046   2.637   9.155  2.1643  1.5100 -2.9446
  436MOL0     H57514   1.144   2.782   8.962 -1.5038  4.6961 -0.3293
  436MOL0     H57515   1.332   2.798   8.811  0.3492 -0.2942 -0.0115
  436MOL0     H57516   1.820   3.173   8.944 -0.0596 -1.7513  1.0372
  436MOL0     H57517   1.974   3.280   8.770  1.6648  0.0215 -1.0487
  436MOL0     H57518   1.994   3.089   8.366 -2.1133 -1.0232  1.2980
  436MOL0     H57519   2.146   3.053   8.444 -1.0776  0.6625  1.2536
  436MOL0     H57520   2.205   3.311   8.400 -1.6426 -0.5052  1.6901
  436MOL0     H57521   2.060   3.308   8.303  1.6537  0.6301 -2.2783
  436MOL0     H57522   2.261   3.292   8.171  1.4549 -0.1679  0.2500
  436MOL0     H57523   2.161   3.146   8.141 -0.9618 -0.6590  2.3649
  436MOL0     H57524   2.390   3.153   8.332 -4.7788  0.4297  3.3136
  436MOL0     H57525   2.316   3.008   8.271  0.1325  0.3086  0.4645
  436MOL0     H57526   2.387   3.065   8.032  1.9545  2.0071 -2.0686
  436MOL0     H57527   2.505   3.015   8.162 -0.8612 -1.7926 -3.3779
  436MOL0     H57528   2.567   3.272   8.167 -1.3283  1.7613  0.0713
  436MOL0     H57529   2.444   3.295   8.044  0.6962 -1.4979 -2.7662
  436MOL0     H57530   2.691   3.125   8.016 -0.5944  0.3609  0.6840
  436MOL0     H57531   2.565   3.145   7.883  1.2889 -0.0956 -0.2525
  436MOL0     H57532   2.783   3.283   7.881  0.8277  2.2339  1.8326
  436MOL0     H57533   2.734   3.362   8.023  0.6906 -2.6230 -0.1164
  436MOL0     H57534   1.943   2.934   8.522  1.5502 -0.0521  0.3795
  436MOL0     H57535   1.797   2.833   8.664  0.0909  0.5269 -2.7464
  436MOL0     H57536   1.583   2.928   9.132 -1.4632  0.3635  2.2460
  436MOL0     H57537   1.418   2.849   9.291 -1.8573 -1.9383 -0.1629
  436MOL0     H57538   1.464   1.881  10.482 -5.8955  2.5756 -2.0629
  436MOL0     H57539   1.692   1.871  10.328  1.1733  0.1613 -1.9951
  436MOL0     H57540   1.903   1.882  10.012 -0.6460  0.9232 -0.5295
  436MOL0     H57541   2.135   1.858   9.914  0.7656 -1.5062 -2.0697
  436MOL0     H57542   2.354   1.781   9.918 -0.5384 -1.1745 -0.7812
  436MOL0     H57543   2.323   1.857   9.766  1.4600  0.4198  0.5606
  436MOL0     H57544   2.498   1.604   9.793 -1.6042 -0.7701 -1.0570
  436MOL0     H57545   2.428   1.667   9.641  1.6975 -3.1385 -0.3240
  436MOL0     H57546   2.564   1.848   9.632  0.7930 -1.3099 -1.6442
  436MOL0     H57547   2.668   1.725   9.688 -0.0922  0.0054  0.1377
  436MOL0     H57548   2.716   1.907   9.816  0.2273 -0.9476 -0.9691
  436MOL0     H57549   2.549   1.941   9.861  1.2963  0.8869 -0.1036
  436MOL0     H57550   2.745   1.659  10.122 -0.2039 -1.5786 -1.7603
  436MOL0     H57551   2.075   1.507   9.740 -2.0565 -2.8152  2.3504
  436MOL0     H57552   1.825   1.502   9.826  0.3823 -0.4110  0.1083
  437MOL0     O57553  10.929   0.757   9.186 -0.8929 -0.1218  0.6063
  437MOL0     C57554  10.999   0.704   9.275 -0.1900 -0.5493 -0.4902
  437MOL0     O57555  10.952   0.621   9.374 -0.6741 -0.5919 -0.0059
  437MOL0     C57556  10.820   0.604   9.378 -0.0384  0.0308  0.4994
  437MOL0     C57557  10.748   0.654   9.490 -0.2982 -0.1159  0.4083
  437MOL0     C57558  10.612   0.628   9.495  0.2915 -0.2039 -0.0304
  437MOL0     C57559  10.536   0.577   9.387 -0.4482  0.1649  0.6293
  437MOL0     O57560  10.401   0.569   9.380  1.0666  0.0845  0.3153
  437MOL0     C57561  10.306   0.648   9.452  0.2002 -0.0139 -0.6455
  437MOL0     C57562  10.167   0.609   9.410  0.5346 -0.1198  0.8366
  437MOL0     C57563  10.064   0.721   9.460  0.2822 -0.4636 -0.0865
  437MOL0     C57564   9.915   0.664   9.464 -0.7208 -0.0414 -0.3814
  437MOL0     C57565   9.897   0.531   9.538  0.2066 -0.0148 -0.1543
  437MOL0     C57566   9.770   0.533   9.630 -0.5709 -0.2909 -0.4015
  437MOL0     C57567   9.738   0.404   9.708  0.2566 -0.8574  0.0532
  437MOL0     C57568   9.648   0.430   9.830 -0.1097  0.0141  0.6599
  437MOL0     N57569   9.502   0.439   9.793 -0.7882 -0.2472  0.0504
  437MOL0     C57570   9.439   0.399   9.670  0.0582  0.2578 -0.4003
  437MOL0     C57571   9.310   0.429   9.685 -0.3302 -0.3380 -0.5952
  437MOL0     C57572   9.189   0.415   9.594  0.3986 -0.0042  0.3391
  437MOL0     C57573   9.086   0.325   9.641  0.5751  0.7942  0.4492
  437MOL0     C57574   9.122   0.182   9.643  0.2092  0.5489  1.1117
  437MOL0     C57575   9.001   0.088   9.675  0.1765  0.4569 -0.1813
  437MOL0     O57576   9.001   0.080   9.822 -0.4419 -0.0865  0.4608
  437MOL0     C57577   8.893   0.030   9.885  0.2496  0.3066 -0.3210
  437MOL0     C57578   8.912  -0.007  10.021 -0.1349 -0.9139 -0.1653
  437MOL0     C57579   8.818  -0.069  10.098  0.4377 -0.4962 -1.2729
  437MOL0     C57580   8.696  -0.097  10.040 -0.3622  0.1461  0.1951
  437MOL0     C57581   8.585  -0.166  10.117 -0.6150 -0.1301  0.0293
  437MOL0     O57582   8.493  -0.229  10.045  0.7274  0.6733 -0.1108
  437MOL0     C57583   8.392  -0.298  10.115  0.2776  0.0508  0.2043
  437MOL0     C57584   8.410  -0.402  10.205 -0.1345  0.0925  0.6399
  437MOL0     C57585   8.303  -0.465  10.262 -0.0850  0.1712  0.2185
  437MOL0     C57586   8.169  -0.433  10.233 -0.6449 -0.6919 -0.4248
  437MOL0     O57587   8.077  -0.502  10.306  0.3285  0.1530 -0.6245
  437MOL0     C57588   7.965  -0.428  10.355  0.5338  0.0245 -0.7184
  437MOL0     C57589   7.900  -0.475  10.484  0.3114 -0.5114  0.7352
  437MOL0     C57590   7.799  -0.380  10.539  0.9538  0.3594 -0.6614
  437MOL0     C57591   7.727  -0.420  10.670 -0.0478 -0.5647  0.6420
  437MOL0     C57592   7.675  -0.301  10.741  0.8422 -0.3060  0.2766
  437MOL0     C57593   7.596  -0.337  10.862 -0.0807  0.2697 -0.7227
  437MOL0     C57594   7.541  -0.212  10.936 -0.1304 -0.1858 -0.3033
  437MOL0     C57595   7.434  -0.237  11.049 -0.0955  0.9444  0.9277
  437MOL0    Cl57596   7.505  -0.336  11.175  0.3169 -0.1126 -0.1350
  437MOL0     C57597   8.142  -0.334  10.133  0.3298  0.5445 -0.6926
  437MOL0     C57598   8.258  -0.279  10.066 -0.1726  0.0758 -1.2087
  437MOL0     O57599   8.595  -0.170  10.235  0.6544  0.7542  0.5511
  437MOL0     C57600   8.683  -0.081   9.898  0.1151 -0.3510 -0.1883
  437MOL0     C57601   8.774  -0.005   9.830  0.5837  0.3071  0.1039
  437MOL0     N57602   9.296   0.479   9.816  0.0006  0.1078  0.4644
  437MOL0     N57603   9.408   0.473   9.881 -0.6562  0.0048 -0.3372
  437MOL0     C57604  10.612   0.525   9.274  0.4730 -0.5844 -0.0583
  437MOL0     C57605  10.751   0.545   9.274 -0.5068  0.1470  0.0101
  437MOL0     C57606  11.145   0.718   9.274  0.2780  0.6805  0.3629
  437MOL0     C57607  11.202   0.789   9.172  0.4787 -0.8748 -0.0298
  437MOL0     C57608  11.342   0.809   9.171 -0.0610  0.8800 -0.2241
  437MOL0     C57609  11.420   0.744   9.275  0.0944 -0.0156  0.4636
  437MOL0     O57610  11.558   0.760   9.283  0.0707  0.5155 -0.1096
  437MOL0     C57611  11.639   0.834   9.186  0.3367  0.2989 -0.0198
  437MOL0     C57612  11.664   0.772   9.042  0.2262  1.1318  1.0349
  437MOL0     C57613  11.677   0.873   8.931 -0.0012  0.7947  0.5359
  437MOL0     C57614  11.680   0.813   8.792 -0.3582  0.3145 -0.5826
  437MOL0     C57615  11.803   0.746   8.770 -0.0280 -0.2591  0.7372
  437MOL0     C57616  11.910   0.697   8.730  1.9220  0.7738  0.8711
  437MOL0     C57617  11.360   0.677   9.374 -0.6770  0.2626  1.0694
  437MOL0     C57618  11.222   0.663   9.373 -0.0244 -0.2835 -0.5366
  437MOL0     H57619  10.791   0.711   9.572 -1.1303  2.3745 -0.7924
  437MOL0     H57620  10.556   0.662   9.582  0.8221 -0.4198  0.4068
  437MOL0     H57621  10.337   0.753   9.444  1.3597 -0.0694  1.8928
  437MOL0     H57622  10.317   0.634   9.560 -0.7616 -0.4198 -0.5874
  437MOL0     H57623  10.136   0.510   9.443 -2.2269 -0.1511 -1.4485
  437MOL0     H57624  10.154   0.591   9.303 -0.5958 -1.1148  1.1246
  437MOL0     H57625  10.066   0.816   9.406 -0.1520 -0.6529 -0.4413
  437MOL0     H57626  10.101   0.747   9.560  1.0195  0.5713 -0.6057
  437MOL0     H57627   9.842   0.734   9.505 -0.7319  0.4585 -1.2467
  437MOL0     H57628   9.895   0.642   9.359  0.1725  0.0078 -0.5699
  437MOL0     H57629   9.977   0.521   9.612 -0.6060 -0.2414  0.7003
  437MOL0     H57630   9.906   0.444   9.473  0.8455 -0.3899  0.4239
  437MOL0     H57631   9.686   0.559   9.565 -0.1341  3.1483  0.2113
  437MOL0     H57632   9.770   0.616   9.701 -0.9780  1.5546 -2.4440
  437MOL0     H57633   9.702   0.324   9.642  0.5308 -1.1286  0.2305
  437MOL0     H57634   9.835   0.371   9.748  0.2428 -1.6667 -0.5448
  437MOL0     H57635   9.669   0.533   9.857  0.7054  0.8878 -2.7952
  437MOL0     H57636   9.665   0.342   9.894  1.5092 -1.1969 -1.2920
  437MOL0     H57637   9.494   0.349   9.591 -0.3310  0.2255 -0.6552
  437MOL0     H57638   9.221   0.401   9.491 -0.9600  0.5454 -0.1799
  437MOL0     H57639   9.154   0.518   9.585 -1.6559 -0.5561  1.3945
  437MOL0     H57640   8.994   0.328   9.582 -0.2806 -2.8974  1.3621
  437MOL0     H57641   9.053   0.345   9.743 -0.3367 -0.0070  0.3249
  437MOL0     H57642   9.158   0.160   9.543  0.8705  3.0926  0.7286
  437MOL0     H57643   9.210   0.164   9.706  0.8616  0.4896  0.1890
  437MOL0     H57644   9.010  -0.014   9.637  0.4472  0.9210 -1.4127
  437MOL0     H57645   8.910   0.134   9.636  0.8960  0.7182 -1.6222
  437MOL0     H57646   9.011   0.020  10.058  0.3758 -3.6502  0.6895
  437MOL0     H57647   8.833  -0.098  10.202  2.5031 -2.4516 -2.0314
  437MOL0     H57648   8.514  -0.431  10.220  0.4861  0.2597 -2.5798
  437MOL0     H57649   8.316  -0.552  10.325 -0.7741 -1.4317 -1.7541
  437MOL0     H57650   7.895  -0.434  10.271  0.6529 -0.6567 -0.7717
  437MOL0     H57651   7.987  -0.321  10.366  1.2080  0.3277 -3.9255
  437MOL0     H57652   7.976  -0.502  10.558 -0.0772  2.0131  2.1749
  437MOL0     H57653   7.848  -0.566  10.454  2.2498 -1.7778  1.0189
  437MOL0     H57654   7.719  -0.368  10.466  3.0415 -1.3195 -3.4122
  437MOL0     H57655   7.856  -0.288  10.556 -2.8064  2.6267  1.0525
  437MOL0     H57656   7.649  -0.494  10.651 -2.4278  1.9136  0.1858
  437MOL0     H57657   7.803  -0.472  10.729  0.0679 -0.9122  0.1961
  437MOL0     H57658   7.614  -0.245  10.670 -0.4105 -1.2228  0.6031
  437MOL0     H57659   7.753  -0.234  10.778 -0.4694  0.1855  2.3241
  437MOL0     H57660   7.669  -0.393  10.921  0.9490  3.1122  0.9021
  437MOL0     H57661   7.512  -0.403  10.838 -0.3648 -0.2386  1.4462
  437MOL0     H57662   7.629  -0.155  10.967 -0.4043 -0.3953  0.8929
  437MOL0     H57663   7.493  -0.148  10.861  2.8134  2.2103 -0.3029
  437MOL0     H57664   7.345  -0.291  11.016 -0.2611  1.2131  0.9328
  437MOL0     H57665   7.405  -0.142  11.095  0.7126  1.2811  0.7646
  437MOL0     H57666   8.040  -0.311  10.104 -0.0787 -0.9252 -0.5018
  437MOL0     H57667   8.233  -0.215   9.982 -4.7265 -2.4845 -2.1361
  437MOL0     H57668   8.595  -0.116   9.846 -0.2826 -0.4060  0.5048
  437MOL0     H57669   8.762   0.006   9.723 -1.8547 -2.3342 -0.0211
  437MOL0     H57670  10.570   0.483   9.184  2.6905 -0.3203 -1.2890
  437MOL0     H57671  10.794   0.513   9.179 -4.5380 -1.3119 -1.5246
  437MOL0     H57672  11.141   0.836   9.095 -0.2316  1.9928  2.0963
  437MOL0     H57673  11.389   0.868   9.093  2.0113  1.5974  1.4439
  437MOL0     H57674  11.735   0.865   9.227  0.2076 -1.5597  1.8430
  437MOL0     H57675  11.586   0.930   9.180 -2.1362 -0.7478  2.6455
  437MOL0     H57676  11.756   0.713   9.050 -1.6755 -1.9463  2.0296
  437MOL0     H57677  11.586   0.697   9.025  2.1244 -0.0982 -3.7920
  437MOL0     H57678  11.748   0.951   8.959  2.7072 -1.9552  2.0120
  437MOL0     H57679  11.579   0.921   8.931 -1.1664 -1.3931 -0.8529
  437MOL0     H57680  11.601   0.739   8.783 -0.3862  0.3991 -1.0617
  437MOL0     H57681  11.659   0.899   8.727 -3.0102  1.8547  2.0454
  437MOL0     H57682  12.002   0.658   8.690 -0.1927 -1.4199 -2.3355
  437MOL0     H57683  11.424   0.625   9.444 -1.7267 -1.6853  0.6330
  437MOL0     H57684  11.177   0.602   9.451  1.3846 -1.3876 -0.5542
  438MOL0     O57685  10.835   0.178   0.677  0.2117 -0.7590 -0.4626
  438MOL0     C57686  10.910   0.104   0.609 -0.0344  0.4147 -0.3056
  438MOL0     O57687  10.863   0.008   0.516 -0.1790  0.7085 -0.3059
  438MOL0     C57688  10.729  -0.023   0.511 -0.0765 -0.9809 -0.6358
  438MOL0     C57689  10.658  -0.008   0.392  0.1630  0.5119 -1.0515
  438MOL0     C57690  10.519  -0.021   0.382 -0.8657  0.5062 -0.4326
  438MOL0     C57691  10.444  -0.052   0.501  0.7840 -0.0280 -0.2282
  438MOL0     O57692  10.306  -0.074   0.482 -0.7976 -0.1708  0.1882
  438MOL0     C57693  10.227  -0.138   0.584 -0.2631 -1.1716 -0.2797
  438MOL0     C57694  10.083  -0.085   0.576 -0.8927  0.2903 -0.2990
  438MOL0     C57695  10.003  -0.128   0.450  0.1424  0.0092 -0.5475
  438MOL0     C57696   9.857  -0.080   0.457 -0.5393  0.8484 -0.2719
  438MOL0     C57697   9.775  -0.096   0.326  0.2600  0.5469  0.2334
  438MOL0     C57698   9.618  -0.052   0.341 -0.5613 -0.1786 -0.5035
  438MOL0     C57699   9.616   0.093   0.388  0.5619  0.2122  0.3020
  438MOL0     C57700   9.472   0.135   0.385  0.1314  0.1914 -0.2826
  438MOL0     N57701   9.424   0.198   0.259  0.0739 -0.3860 -0.2512
  438MOL0     C57702   9.435   0.332   0.228  0.3362  0.4192  0.0143
  438MOL0     C57703   9.400   0.343   0.096  0.9662  0.5256  0.2433
  438MOL0     C57704   9.414   0.454   0.005 -0.4561  0.5525  0.6994
  438MOL0     C57705   9.351   0.420  -0.131 -0.0968  0.4744  0.3501
  438MOL0     C57706   9.360   0.547  -0.229 -0.0024 -0.4528  0.4605
  438MOL0     C57707   9.313   0.496  -0.366  0.0728 -0.0459  0.1455
  438MOL0     O57708   9.408   0.409  -0.418 -0.6008 -0.3543  0.8271
  438MOL0     C57709   9.372   0.300  -0.502 -0.7766 -0.1512  0.0152
  438MOL0     C57710   9.242   0.252  -0.521 -0.1181 -0.8666 -0.3662
  438MOL0     C57711   9.194   0.164  -0.622 -0.4961  0.3768  0.1270
  438MOL0     C57712   9.294   0.105  -0.698  0.2917  0.4195 -0.4173
  438MOL0     C57713   9.270   0.011  -0.801 -0.4071  0.3343 -0.1268
  438MOL0     O57714   9.149  -0.062  -0.791 -0.7648 -0.0706 -0.3838
  438MOL0     C57715   9.134  -0.174  -0.869  0.5234  0.1442  1.6585
  438MOL0     C57716   9.102  -0.160  -1.006 -1.4741  0.0141 -0.4427
  438MOL0     C57717   9.094  -0.268  -1.101 -1.0115  0.1723 -0.1512
  438MOL0     C57718   9.130  -0.402  -1.056 -0.0110 -0.0117 -0.5398
  438MOL0     O57719   9.109  -0.500  -1.148  0.1620  0.3211  0.3499
  438MOL0     C57720   9.043  -0.624  -1.096 -0.1585  0.2447 -0.1845
  438MOL0     C57721   9.031  -0.727  -1.200 -1.2412 -0.7107 -0.7638
  438MOL0     C57722   8.995  -0.870  -1.152 -0.1949 -0.5544 -0.0621
  438MOL0     C57723   8.967  -0.975  -1.256 -1.0553  0.6698  0.0547
  438MOL0     C57724   8.869  -0.938  -1.368  0.5584 -0.0311 -0.2371
  438MOL0     C57725   8.793  -1.067  -1.422  0.1074 -0.4848  0.5371
  438MOL0     C57726   8.724  -1.061  -1.564  0.3878 -0.6962 -0.2963
  438MOL0     C57727   8.571  -1.049  -1.549  0.2687 -0.1232  0.5955
  438MOL0    Cl57728   8.496  -1.084  -1.714 -0.0974  0.1699 -0.3965
  438MOL0     C57729   9.158  -0.418  -0.914 -0.4858 -0.0676 -0.1368
  438MOL0     C57730   9.151  -0.305  -0.819 -0.0462  0.2804  0.2689
  438MOL0     O57731   9.343   0.005  -0.897 -0.2566  0.2617  0.0656
  438MOL0     C57732   9.427   0.140  -0.674 -0.4887 -0.2171 -1.2361
  438MOL0     C57733   9.464   0.233  -0.582 -0.1534  0.3592 -0.0888
  438MOL0     N57734   9.358   0.209   0.051 -0.7694 -0.0949 -0.2865
  438MOL0     N57735   9.366   0.130   0.153 -0.4064 -0.3909 -0.1461
  438MOL0     C57736  10.514  -0.064   0.627  0.6806 -0.6241  0.5021
  438MOL0     C57737  10.654  -0.056   0.621 -0.0237 -0.2644  0.0845
  438MOL0     C57738  11.054   0.139   0.621 -0.7758 -0.1825 -0.0455
  438MOL0     C57739  11.095   0.264   0.671  0.0764  0.6031  0.7055
  438MOL0     C57740  11.237   0.285   0.676 -0.1662 -0.0811  0.0202
  438MOL0     C57741  11.334   0.179   0.656  0.3109  0.0614 -0.1505
  438MOL0     O57742  11.468   0.214   0.688 -0.2235 -0.3577 -0.3633
  438MOL0     C57743  11.580   0.120   0.655 -0.0793  0.0534  0.0458
  438MOL0     C57744  11.625   0.125   0.502 -0.3595  0.1715 -0.5667
  438MOL0     C57745  11.773   0.078   0.489  0.2597  0.2189 -0.2425
  438MOL0     C57746  11.784  -0.011   0.366  0.5495  0.9484 -0.0067
  438MOL0     C57747  11.925   0.006   0.320 -0.3638 -0.4072  0.1678
  438MOL0     C57748  12.037  -0.007   0.287 -0.0036 -0.1580  0.3115
  438MOL0     C57749  11.283   0.055   0.610 -0.0992  0.4035  0.6539
  438MOL0     C57750  11.149   0.033   0.585 -0.4167 -0.2806 -0.2796
  438MOL0     H57751  10.710   0.007   0.298 -0.2777 -2.1502 -1.7950
  438MOL0     H57752  10.462  -0.009   0.290 -2.2867  1.0376  0.4887
  438MOL0     H57753  10.265  -0.101   0.680  1.9271 -1.5974 -0.9182
  438MOL0     H57754  10.240  -0.245   0.564  0.0337 -1.1559 -0.1774
  438MOL0     H57755  10.095   0.023   0.586  0.7039  0.1801 -0.7683
  438MOL0     H57756  10.049  -0.131   0.669  1.9390  0.0527  0.7137
  438MOL0     H57757  10.006  -0.236   0.434  2.6910  0.2164 -2.1200
  438MOL0     H57758  10.051  -0.071   0.370  0.4405  3.3248  1.7630
  438MOL0     H57759   9.808  -0.139   0.535 -2.4783  1.6063 -0.8632
  438MOL0     H57760   9.859   0.025   0.488  1.8383  0.9363 -0.5075
  438MOL0     H57761   9.770  -0.194   0.277 -0.0769  0.7866 -0.2267
  438MOL0     H57762   9.820  -0.040   0.243  3.3503 -2.9085 -0.6531
  438MOL0     H57763   9.576  -0.115   0.419  1.7438 -1.2716 -0.0486
  438MOL0     H57764   9.568  -0.071   0.246  1.2343  0.3430 -1.6227
  438MOL0     H57765   9.652   0.097   0.491  2.6696 -0.6084 -0.3438
  438MOL0     H57766   9.674   0.168   0.334  1.4633  1.3320  2.6739
  438MOL0     H57767   9.453   0.205   0.467 -1.4105 -1.1281  0.5580
  438MOL0     H57768   9.416   0.048   0.420  1.2724  0.3459  2.1144
  438MOL0     H57769   9.472   0.401   0.302 -2.2568  0.1145  1.7350
  438MOL0     H57770   9.517   0.489  -0.008 -0.6319  1.1374  0.8365
  438MOL0     H57771   9.362   0.539   0.049  0.6817  0.9045  1.4025
  438MOL0     H57772   9.246   0.390  -0.120 -1.2115  3.8249  0.0625
  438MOL0     H57773   9.414   0.339  -0.170 -2.5114 -0.4936 -1.8527
  438MOL0     H57774   9.282   0.617  -0.195 -0.8898 -0.3876 -1.5879
  438MOL0     H57775   9.458   0.595  -0.223 -0.6572  0.9818  0.1126
  438MOL0     H57776   9.297   0.583  -0.431  3.5137  1.3615  0.9741
  438MOL0     H57777   9.223   0.435  -0.355  0.1973 -1.0604 -3.1635
  438MOL0     H57778   9.170   0.298  -0.454  3.0125  0.4508  2.3614
  438MOL0     H57779   9.093   0.124  -0.621 -0.1926 -0.4170 -0.0214
  438MOL0     H57780   9.092  -0.060  -1.049 -2.8281 -0.2383 -0.7494
  438MOL0     H57781   9.061  -0.245  -1.202 -3.1842 -2.4406 -0.1417
  438MOL0     H57782   8.944  -0.604  -1.054 -0.1342  0.4361 -0.2200
  438MOL0     H57783   9.107  -0.672  -1.022 -1.0801 -1.6781 -0.5598
  438MOL0     H57784   9.125  -0.724  -1.257  0.8360 -0.1800  2.4124
  438MOL0     H57785   8.950  -0.694  -1.265 -1.6437 -1.4714 -0.6639
  438MOL0     H57786   8.903  -0.868  -1.093  0.5137 -2.1804  1.1912
  438MOL0     H57787   9.075  -0.913  -1.092 -0.4486 -2.9932 -1.3490
  438MOL0     H57788   9.064  -1.000  -1.299  0.0585  0.2840  2.5846
  438MOL0     H57789   8.935  -1.068  -1.207  3.1127 -0.2882  1.2982
  438MOL0     H57790   8.918  -0.883  -1.450 -3.1661  0.6038 -2.2343
  438MOL0     H57791   8.792  -0.876  -1.322 -1.1737 -1.3333 -1.2604
  438MOL0     H57792   8.711  -1.093  -1.354 -1.7322 -1.5809 -1.9874
  438MOL0     H57793   8.863  -1.151  -1.428  0.2512 -0.4350  1.3899
  438MOL0     H57794   8.752  -0.967  -1.613  0.5094 -0.4154  0.2960
  438MOL0     H57795   8.750  -1.150  -1.621 -0.1522 -1.2206  0.2616
  438MOL0     H57796   8.527  -0.959  -1.506  0.9197  1.1145 -1.2345
  438MOL0     H57797   8.538  -1.129  -1.481 -0.5012 -0.5969 -0.3211
  438MOL0     H57798   9.185  -0.519  -0.886  0.6302 -0.0531 -1.0915
  438MOL0     H57799   9.165  -0.330  -0.715  0.1997 -2.4853 -0.3502
  438MOL0     H57800   9.506   0.098  -0.735  2.3267  1.8250  0.7780
  438MOL0     H57801   9.569   0.260  -0.570  0.6732 -2.1696 -1.0196
  438MOL0     H57802  10.461  -0.089   0.719 -1.6218  0.3470 -0.4923
  438MOL0     H57803  10.710  -0.064   0.714  1.6515 -2.0856 -1.0214
  438MOL0     H57804  11.025   0.340   0.703  0.0398  0.3336  1.2913
  438MOL0     H57805  11.282   0.378   0.710  0.5605 -0.2748 -0.4004
  438MOL0     H57806  11.557   0.018   0.687  0.9081 -0.8834 -2.0673
  438MOL0     H57807  11.663   0.159   0.715  1.6683 -2.1187 -0.8119
  438MOL0     H57808  11.558   0.077   0.430  0.2431 -2.2997  0.4057
  438MOL0     H57809  11.625   0.231   0.475 -0.6531  0.5060  0.6721
  438MOL0     H57810  11.802   0.028   0.581 -2.8484  0.7207  1.1397
  438MOL0     H57811  11.836   0.166   0.474  2.3648 -1.3357 -1.1124
  438MOL0     H57812  11.762  -0.116   0.390 -0.8745  1.2902  0.2243
  438MOL0     H57813  11.729   0.003   0.273  1.9996  0.2042 -1.0137
  438MOL0     H57814  12.137  -0.020   0.252 -1.1235  3.1482 -5.4453
  438MOL0     H57815  11.355  -0.017   0.572  0.6852  2.1527 -1.3711
  438MOL0     H57816  11.109  -0.065   0.560  1.6632 -1.8427  2.0538
  439MOL0     O57817   0.908   8.243   4.727  0.5082  0.5996 -0.4152
  439MOL0     C57818   0.856   8.135   4.705 -0.5207 -0.3000  0.1353
  439MOL0     O57819   0.740   8.109   4.631 -0.6751 -0.0563 -0.6283
  439MOL0     C57820   0.666   8.213   4.576 -0.6614  0.3811  0.6920
  439MOL0     C57821   0.532   8.212   4.591 -0.8813 -0.2663 -0.0272
  439MOL0     C57822   0.453   8.301   4.525 -0.0013 -0.4175  0.2940
  439MOL0     C57823   0.500   8.412   4.463  0.2418  0.4339  0.3751
  439MOL0     O57824   0.416   8.496   4.398  0.0528  0.2442 -0.0172
  439MOL0     C57825   0.323   8.575   4.469  1.0446 -0.5805  0.1994
  439MOL0     C57826   0.306   8.706   4.388  0.5702  0.8797 -0.0287
  439MOL0     C57827   0.192   8.790   4.447  0.4061 -0.2314 -0.6073
  439MOL0     C57828   0.138   8.910   4.373 -0.2841 -0.2364 -0.6798
  439MOL0     C57829  -0.008   8.954   4.424  0.1707 -0.5376  0.5633
  439MOL0     C57830  -0.106   8.878   4.334  0.6785  0.5401  0.9372
  439MOL0     C57831  -0.253   8.929   4.361 -0.2800  1.1490  0.2464
  439MOL0     C57832  -0.354   8.866   4.268 -1.1693  0.2509  0.7659
  439MOL0     N57833  -0.469   8.964   4.275 -0.2833  0.8436  0.1279
  439MOL0     C57834  -0.562   8.970   4.176  0.0588  0.6217  0.0128
  439MOL0     C57835  -0.667   9.036   4.235  0.3823  0.4495 -1.0981
  439MOL0     C57836  -0.803   9.071   4.182  0.2213  0.6486 -0.0203
  439MOL0     C57837  -0.898   8.952   4.167 -0.2745 -0.9745 -0.1690
  439MOL0     C57838  -1.027   8.992   4.091 -0.3891 -0.0460  0.3297
  439MOL0     C57839  -1.130   9.041   4.200  0.0825 -0.0518 -0.8298
  439MOL0     O57840  -1.242   9.087   4.128  0.8928 -0.1256 -0.4675
  439MOL0     C57841  -1.361   9.077   4.196  0.2088 -0.3322 -0.3527
  439MOL0     C57842  -1.410   8.950   4.233  0.3310  0.6154  0.4941
  439MOL0     C57843  -1.538   8.951   4.297 -0.1200  0.1556 -0.0091
  439MOL0     C57844  -1.613   9.069   4.315  0.7983  0.1354 -0.4580
  439MOL0     C57845  -1.756   9.071   4.363 -0.0697 -0.5519 -0.3033
  439MOL0     O57846  -1.827   8.970   4.298  0.7440  0.0128  0.6928
  439MOL0     C57847  -1.959   8.953   4.334  0.7958  0.1024 -0.2922
  439MOL0     C57848  -2.040   8.892   4.237  0.1152  0.0988 -0.4445
  439MOL0     C57849  -2.178   8.883   4.250 -0.2182  0.4487 -0.8894
  439MOL0     C57850  -2.245   8.941   4.364  0.0127 -0.2113 -0.6367
  439MOL0     O57851  -2.382   8.949   4.380  0.2654 -0.5793  0.0561
  439MOL0     C57852  -2.474   8.843   4.362 -0.2259 -0.5223  0.0270
  439MOL0     C57853  -2.548   8.868   4.228  1.0098  0.6291  0.1550
  439MOL0     C57854  -2.625   8.744   4.183  0.1745  0.6286 -0.1398
  439MOL0     C57855  -2.728   8.685   4.296  0.3629  0.1439  0.4256
  439MOL0     C57856  -2.846   8.776   4.316  1.3107  0.0761 -0.1380
  439MOL0     C57857  -2.926   8.729   4.446 -0.3930 -0.0634  0.5614
  439MOL0     C57858  -3.029   8.841   4.474 -0.1283 -0.0641 -0.4754
  439MOL0     C57859  -3.104   8.815   4.603 -0.4518 -0.1894 -0.3221
  439MOL0    Cl57860  -3.261   8.913   4.634  0.1416  0.0627  0.2438
  439MOL0     C57861  -2.172   8.997   4.470 -0.4273  0.0426 -0.1374
  439MOL0     C57862  -2.030   9.001   4.456  0.0004 -0.3462  0.6353
  439MOL0     O57863  -1.802   9.161   4.435 -0.5379 -1.0875 -0.3638
  439MOL0     C57864  -1.555   9.193   4.287  0.4993 -0.4909 -0.1764
  439MOL0     C57865  -1.433   9.194   4.220  0.0269  0.5118  0.0641
  439MOL0     N57866  -0.634   9.062   4.362  0.3687  0.2286 -0.8724
  439MOL0     N57867  -0.520   9.013   4.393 -0.1427  0.2966 -0.0064
  439MOL0     C57868   0.639   8.428   4.461 -0.2081  0.4384  0.2079
  439MOL0     C57869   0.729   8.328   4.519  0.1678  0.3622  0.4064
  439MOL0     C57870   0.911   8.022   4.781  0.5542  0.2259  0.1340
  439MOL0     C57871   0.830   7.912   4.802  0.2335  0.1738 -0.2036
  439MOL0     C57872   0.873   7.817   4.893 -0.5530 -0.4736  0.3954
  439MOL0     C57873   0.997   7.821   4.955  0.0219  1.0747  0.4201
  439MOL0     O57874   1.055   7.727   5.043 -1.0290  0.2737 -0.3671
  439MOL0     C57875   0.977   7.614   5.076 -1.0479  1.0665  0.3589
  439MOL0     C57876   1.057   7.527   5.177  0.4893 -0.3641  0.8663
  439MOL0     C57877   1.190   7.472   5.109 -0.3970 -0.7983  0.4069
  439MOL0     C57878   1.288   7.411   5.222 -0.2979  0.6075  0.7235
  439MOL0     C57879   1.413   7.375   5.167  0.5099 -0.6344 -0.0398
  439MOL0     C57880   1.519   7.352   5.117 -0.1790  0.0184  0.0325
  439MOL0     C57881   1.078   7.927   4.914 -0.4026 -0.4845  0.3278
  439MOL0     C57882   1.040   8.028   4.830 -0.4783  0.3405  0.5057
  439MOL0     H57883   0.482   8.135   4.648 -0.4933 -0.3262  0.2383
  439MOL0     H57884   0.349   8.274   4.541  0.1717 -0.2028  1.9507
  439MOL0     H57885   0.363   8.588   4.571  2.6711  1.7702 -0.6529
  439MOL0     H57886   0.227   8.524   4.466  0.6229  0.1975  0.1042
  439MOL0     H57887   0.275   8.684   4.285 -0.5605  2.4158 -0.0551
  439MOL0     H57888   0.401   8.759   4.383 -0.8662  3.5451 -1.1214
  439MOL0     H57889   0.224   8.827   4.544  0.1662 -2.2594  0.2837
  439MOL0     H57890   0.104   8.726   4.458 -1.0583  1.7978  0.1368
  439MOL0     H57891   0.207   8.995   4.375 -1.1658  0.7153 -3.8000
  439MOL0     H57892   0.128   8.881   4.268 -0.8166  1.1898 -1.0551
  439MOL0     H57893  -0.014   9.061   4.401  4.8420 -0.4046 -0.9944
  439MOL0     H57894  -0.007   8.935   4.531  0.4316  0.2302  0.7063
  439MOL0     H57895  -0.112   8.772   4.361 -0.1210  0.9056  2.3120
  439MOL0     H57896  -0.082   8.898   4.229 -1.7214 -2.3842 -0.2964
  439MOL0     H57897  -0.288   8.903   4.461 -0.5983 -0.9243 -0.3500
  439MOL0     H57898  -0.250   9.037   4.349  0.6014  1.5780  3.4441
  439MOL0     H57899  -0.373   8.767   4.311 -0.3065  0.1864  1.0190
  439MOL0     H57900  -0.314   8.854   4.167 -0.9437 -0.3919  0.9287
  439MOL0     H57901  -0.554   8.932   4.075 -1.2858  0.2804  0.0142
  439MOL0     H57902  -0.793   9.125   4.087  0.5686 -1.7619 -1.4452
  439MOL0     H57903  -0.850   9.139   4.253  0.7873  0.7139  0.2967
  439MOL0     H57904  -0.928   8.891   4.253  1.5830 -1.2597  0.3278
  439MOL0     H57905  -0.841   8.883   4.104 -0.8699  0.2823 -2.1526
  439MOL0     H57906  -0.993   9.067   4.018  2.4907 -1.7374 -0.2216
  439MOL0     H57907  -1.064   8.909   4.031 -0.6290 -2.5495  3.6696
  439MOL0     H57908  -1.086   9.120   4.261  2.3375 -1.8567  0.0535
  439MOL0     H57909  -1.153   8.960   4.269 -0.0791  1.2748  0.7144
  439MOL0     H57910  -1.353   8.858   4.231  0.8382  0.8617  2.0181
  439MOL0     H57911  -1.587   8.865   4.340 -2.1952  1.5133  0.5291
  439MOL0     H57912  -1.993   8.870   4.142  1.9188 -2.7442  0.9821
  439MOL0     H57913  -2.225   8.827   4.169  0.7313 -2.4695  0.4269
  439MOL0     H57914  -2.553   8.843   4.438  0.6739 -1.7915  1.0052
  439MOL0     H57915  -2.421   8.747   4.360  1.2277  0.2318  0.8925
  439MOL0     H57916  -2.475   8.891   4.150 -0.6174  0.3121 -1.5241
  439MOL0     H57917  -2.608   8.958   4.241 -0.8779 -0.2485 -1.8461
  439MOL0     H57918  -2.546   8.671   4.160 -0.6779  0.2507 -2.0411
  439MOL0     H57919  -2.670   8.767   4.086  0.1446 -1.0972 -0.5708
  439MOL0     H57920  -2.761   8.587   4.261  1.9952 -1.1093  2.1738
  439MOL0     H57921  -2.670   8.667   4.387  0.7597  1.2241  0.4016
  439MOL0     H57922  -2.897   8.777   4.220  3.0803 -0.0482 -1.1213
  439MOL0     H57923  -2.804   8.876   4.328  0.9290  0.2068  0.1483
  439MOL0     H57924  -2.854   8.734   4.528  1.2721  1.1095 -0.8923
  439MOL0     H57925  -2.981   8.635   4.439 -2.6687  0.9106  3.1740
  439MOL0     H57926  -2.985   8.941   4.484  2.2362 -1.1561  0.6856
  439MOL0     H57927  -3.093   8.842   4.385  0.2553 -0.2178 -0.7531
  439MOL0     H57928  -3.038   8.833   4.688  0.6029  0.7324 -1.3023
  439MOL0     H57929  -3.120   8.707   4.616  0.3895 -0.7451 -3.1663
  439MOL0     H57930  -2.218   9.032   4.562  3.2075  1.6820  1.2981
  439MOL0     H57931  -1.982   9.038   4.546  0.9653  1.8007 -0.6881
  439MOL0     H57932  -1.617   9.282   4.288  1.8448  0.6923 -3.8064
  439MOL0     H57933  -1.388   9.286   4.184 -2.3942  0.9386 -2.1851
  439MOL0     H57934   0.679   8.523   4.427 -0.5422  1.1842  1.8317
  439MOL0     H57935   0.837   8.328   4.521  0.3193  2.1220 -2.5360
  439MOL0     H57936   0.724   7.911   4.778 -0.0987  0.9706  1.1516
  439MOL0     H57937   0.804   7.737   4.915 -0.1723 -1.4552 -1.7392
  439MOL0     H57938   0.959   7.542   4.995  2.9148  1.0965 -0.7643
  439MOL0     H57939   0.883   7.636   5.126 -1.2332  2.0502 -0.3947
  439MOL0     H57940   1.083   7.596   5.257 -1.6884  1.7013 -0.0529
  439MOL0     H57941   0.993   7.446   5.213  1.2126 -0.6076  1.6216
  439MOL0     H57942   1.248   7.556   5.070  0.4905 -1.4338  0.3143
  439MOL0     H57943   1.159   7.399   5.034 -0.3132 -1.9833  1.4857
  439MOL0     H57944   1.290   7.484   5.304 -0.9683  1.5477 -0.0770
  439MOL0     H57945   1.237   7.323   5.261  1.1953 -0.2554  0.8240
  439MOL0     H57946   1.617   7.332   5.079 -0.5567 -1.4695 -0.2539
  439MOL0     H57947   1.177   7.929   4.958 -0.0440  1.2630 -0.4587
  439MOL0     H57948   1.111   8.107   4.808 -2.3618  0.9480 -4.7770
  440MOL0     O57949   5.983   8.446   3.617  0.0882 -0.4232 -0.6293
  440MOL0     C57950   5.983   8.558   3.677 -0.5353  0.8388 -0.0761
  440MOL0     O57951   5.898   8.603   3.762 -0.3193 -0.6141  0.1224
  440MOL0     C57952   5.779   8.534   3.772 -0.1886  0.3513 -0.4679
  440MOL0     C57953   5.694   8.497   3.665  0.3462  0.7918  0.4320
  440MOL0     C57954   5.576   8.438   3.690  0.9809  0.1556  0.3313
  440MOL0     C57955   5.543   8.384   3.812  0.9413 -0.3594 -0.5743
  440MOL0     O57956   5.442   8.289   3.820 -0.4969  0.0549 -0.0762
  440MOL0     C57957   5.362   8.278   3.940 -0.1236  0.4464 -0.2518
  440MOL0     C57958   5.277   8.158   3.900  0.2364  0.0048  0.7132
  440MOL0     C57959   5.320   8.016   3.934  0.3053  0.6167 -0.4742
  440MOL0     C57960   5.221   7.909   3.885 -0.2734 -0.0589  0.5035
  440MOL0     C57961   5.150   7.912   3.751 -1.0936 -0.5260  0.8244
  440MOL0     C57962   5.245   7.896   3.630  0.3186  0.6555 -0.4916
  440MOL0     C57963   5.178   7.930   3.499  0.0443  0.4474 -0.2773
  440MOL0     C57964   5.276   7.912   3.385  0.2866 -0.6941  0.2214
  440MOL0     N57965   5.385   7.997   3.395 -0.0205 -1.0160 -0.1012
  440MOL0     C57966   5.515   7.967   3.418  0.4897  0.9381  0.5018
  440MOL0     C57967   5.589   8.083   3.408  0.1824  0.3647 -0.0410
  440MOL0     C57968   5.733   8.105   3.436  0.6118 -0.1544 -0.5236
  440MOL0     C57969   5.774   8.087   3.584 -0.5100 -0.7900 -0.9158
  440MOL0     C57970   5.927   8.108   3.597 -0.6700 -0.0185  0.6194
  440MOL0     C57971   5.971   8.136   3.740  0.5509  0.4725  1.0729
  440MOL0     O57972   5.956   8.019   3.818  0.2483  0.1320  0.5601
  440MOL0     C57973   5.851   8.006   3.917 -0.4449  0.2381  0.5298
  440MOL0     C57974   5.856   7.882   3.990  0.4762 -1.2660 -0.0201
  440MOL0     C57975   5.767   7.852   4.087 -0.2980 -0.4168 -0.0816
  440MOL0     C57976   5.665   7.943   4.119  1.1572  0.2619  0.7320
  440MOL0     C57977   5.571   7.910   4.238 -0.2560  0.0816  0.6236
  440MOL0     O57978   5.468   8.000   4.247 -0.1674 -0.1212 -0.1562
  440MOL0     C57979   5.374   7.987   4.345  0.1222  0.1618 -1.1402
  440MOL0     C57980   5.362   8.088   4.440 -0.2839 -0.0360 -0.4772
  440MOL0     C57981   5.256   8.094   4.531 -0.1164  0.6091 -0.2173
  440MOL0     C57982   5.147   8.004   4.518 -0.0109  0.4144 -0.5143
  440MOL0     O57983   5.034   8.020   4.595  0.3800 -0.4738  0.2927
  440MOL0     C57984   4.941   7.910   4.609  0.2858 -0.2917  0.6496
  440MOL0     C57985   4.834   7.934   4.717 -0.0722  0.2672 -0.5868
  440MOL0     C57986   4.721   8.030   4.673  0.6344  0.0118  0.2668
  440MOL0     C57987   4.600   8.033   4.748 -0.5101  0.6445 -0.3838
  440MOL0     C57988   4.491   8.109   4.666 -0.5352 -0.1254  0.4343
  440MOL0     C57989   4.514   8.261   4.667 -0.2892  0.0111 -0.0023
  440MOL0     C57990   4.384   8.330   4.618  0.6767 -0.3764  0.0538
  440MOL0     C57991   4.431   8.463   4.555  0.5853  0.6407  0.2408
  440MOL0    Cl57992   4.322   8.606   4.560 -0.0141 -0.0598 -0.3897
  440MOL0     C57993   5.174   7.888   4.433  0.8781 -0.2871  0.4244
  440MOL0     C57994   5.282   7.882   4.347 -0.0197  0.0912 -0.3948
  440MOL0     O57995   5.596   7.820   4.314  0.1770  0.4945  0.5318
  440MOL0     C57996   5.654   8.065   4.045 -0.6057  1.1234  0.0378
  440MOL0     C57997   5.728   8.086   3.930 -0.9504  0.0415  0.2603
  440MOL0     N57998   5.499   8.187   3.376  0.8093  0.1684  0.6055
  440MOL0     N57999   5.383   8.133   3.372 -0.5250 -0.5124  0.3161
  440MOL0     C58000   5.626   8.426   3.923  0.1468  0.8860  0.4498
  440MOL0     C58001   5.732   8.516   3.902  1.0584  0.5120 -0.3405
  440MOL0     C58002   6.116   8.618   3.680 -0.4525 -0.5567 -0.7956
  440MOL0     C58003   6.219   8.576   3.599  0.1093  0.3841 -0.0888
  440MOL0     C58004   6.344   8.623   3.607  0.5907 -0.2602 -0.2732
  440MOL0     C58005   6.374   8.727   3.695 -0.4450 -0.6921  0.8974
  440MOL0     O58006   6.491   8.789   3.691 -0.0169 -0.6737 -0.6870
  440MOL0     C58007   6.605   8.742   3.610  0.8723  1.1937  0.0386
  440MOL0     C58008   6.723   8.831   3.610 -1.2766  0.4521  0.0358
  440MOL0     C58009   6.759   8.870   3.755  0.2457 -0.2087 -0.3300
  440MOL0     C58010   6.861   8.983   3.769  0.1967 -0.1397  0.0941
  440MOL0     C58011   6.820   9.115   3.720  0.1519 -0.2941 -0.7435
  440MOL0     C58012   6.797   9.228   3.686 -0.4094  0.1077 -0.7534
  440MOL0     C58013   6.273   8.772   3.782  1.5295 -0.1357 -0.3049
  440MOL0     C58014   6.146   8.708   3.789  0.6078 -0.1811  0.4671
  440MOL0     H58015   5.717   8.515   3.561  0.1021 -3.6940 -0.5852
  440MOL0     H58016   5.527   8.398   3.602 -0.7541 -1.5434  1.9901
  440MOL0     H58017   5.297   8.363   3.961 -1.7585 -1.1511  1.7020
  440MOL0     H58018   5.419   8.250   4.029  0.9953 -0.5288 -1.2416
  440MOL0     H58019   5.251   8.166   3.794 -0.1885  1.2708  0.9040
  440MOL0     H58020   5.185   8.168   3.958  0.0709  2.7912  0.0940
  440MOL0     H58021   5.323   7.998   4.041  1.1856 -2.9281 -0.9745
  440MOL0     H58022   5.422   7.990   3.904  1.7505 -0.0853  4.2695
  440MOL0     H58023   5.271   7.811   3.888 -2.4236 -1.2593  4.1820
  440MOL0     H58024   5.136   7.902   3.953  0.3227 -3.8595  1.1337
  440MOL0     H58025   5.101   8.009   3.751  0.7905  0.4879 -0.4118
  440MOL0     H58026   5.074   7.833   3.753 -0.9883 -0.8475  5.8575
  440MOL0     H58027   5.287   7.795   3.631 -3.0109 -0.9169  2.2427
  440MOL0     H58028   5.320   7.973   3.649 -1.8604  2.7597 -0.0350
  440MOL0     H58029   5.087   7.868   3.501 -0.2975  0.9143  1.8103
  440MOL0     H58030   5.159   8.036   3.522  1.7348  0.3239  2.0280
  440MOL0     H58031   5.231   7.914   3.285 -2.0336  0.2190  1.2212
  440MOL0     H58032   5.334   7.820   3.398  1.9524  0.4926  1.7044
  440MOL0     H58033   5.547   7.863   3.427 -3.3553 -0.8518 -3.2188
  440MOL0     H58034   5.763   8.206   3.407 -1.0202  1.7424  3.5431
  440MOL0     H58035   5.789   8.036   3.372  0.2913  0.1460 -1.1284
  440MOL0     H58036   5.749   7.988   3.624  3.6990 -1.1460  1.4888
  440MOL0     H58037   5.715   8.165   3.633  1.3768  0.9619 -1.2521
  440MOL0     H58038   5.986   8.036   3.538  1.4150  1.5781  0.6286
  440MOL0     H58039   5.945   8.192   3.528  1.4195 -0.7992  0.1208
  440MOL0     H58040   5.895   8.202   3.783 -1.4526  0.0403 -1.5431
  440MOL0     H58041   6.071   8.179   3.750  2.8926 -4.2024  0.5802
  440MOL0     H58042   5.936   7.814   3.963  1.1380 -0.7926  0.6927
  440MOL0     H58043   5.776   7.760   4.144 -0.2953 -1.1612 -1.2488
  440MOL0     H58044   5.433   8.170   4.442 -2.1617  1.6612  1.3126
  440MOL0     H58045   5.229   8.172   4.601  0.4638 -0.8517  1.7054
  440MOL0     H58046   4.992   7.818   4.639 -2.3316 -1.2296  2.5882
  440MOL0     H58047   4.900   7.884   4.512 -0.5205 -0.2386  0.9704
  440MOL0     H58048   4.884   7.966   4.809  0.4191  2.2790 -1.5089
  440MOL0     H58049   4.783   7.838   4.726  2.9129 -1.2356  2.6923
  440MOL0     H58050   4.691   8.009   4.569  0.5665  0.7741  0.1210
  440MOL0     H58051   4.766   8.127   4.695  2.5746 -1.1661  1.7032
  440MOL0     H58052   4.559   7.933   4.763 -0.6697  0.6764 -0.6080
  440MOL0     H58053   4.617   8.071   4.849  0.0074 -1.2969  0.3005
  440MOL0     H58054   4.395   8.089   4.714 -0.1572  0.6955  1.5907
  440MOL0     H58055   4.486   8.086   4.559 -0.3001  3.7783 -0.5755
  440MOL0     H58056   4.601   8.290   4.606 -1.7040 -1.1607 -2.7749
  440MOL0     H58057   4.526   8.287   4.772  2.6447 -1.3019  0.0947
  440MOL0     H58058   4.325   8.279   4.541 -1.5328  1.9258  0.0783
  440MOL0     H58059   4.309   8.364   4.690  0.2422 -1.5038  0.1508
  440MOL0     H58060   4.469   8.442   4.455 -0.6334  0.7132 -0.2541
  440MOL0     H58061   4.512   8.495   4.621 -1.6451 -1.3298  4.3605
  440MOL0     H58062   5.093   7.815   4.432  1.0747 -0.5046  0.4468
  440MOL0     H58063   5.292   7.798   4.280 -3.7700 -1.9287  1.2263
  440MOL0     H58064   5.586   8.146   4.070  1.3089  2.6974  0.4011
  440MOL0     H58065   5.708   8.175   3.870  1.8016 -0.4069 -1.5322
  440MOL0     H58066   5.614   8.389   4.024  0.3856  2.6715  1.1552
  440MOL0     H58067   5.773   8.564   3.991 -2.4694  1.0583  1.1445
  440MOL0     H58068   6.195   8.505   3.520 -1.9556 -1.3460  1.9435
  440MOL0     H58069   6.416   8.591   3.531 -0.1089  1.5135 -1.7658
  440MOL0     H58070   6.575   8.734   3.505  0.7038 -3.1398  0.2323
  440MOL0     H58071   6.642   8.643   3.641 -3.1144  0.6429  4.0589
  440MOL0     H58072   6.801   8.771   3.563 -4.1273 -2.3152 -1.5514
  440MOL0     H58073   6.700   8.913   3.541 -1.8367 -0.8526 -1.3984
  440MOL0     H58074   6.815   8.788   3.801 -1.4635  0.3048  2.9577
  440MOL0     H58075   6.677   8.910   3.815  0.2691  0.7471 -0.9072
  440MOL0     H58076   6.896   8.993   3.872 -0.3175  2.9950  0.0426
  440MOL0     H58077   6.949   8.951   3.711 -1.3188 -3.3987 -0.6434
  440MOL0     H58078   6.772   9.329   3.659  0.9680  0.5971 -0.3233
  440MOL0     H58079   6.296   8.853   3.850 -3.0307  1.0809  0.1155
  440MOL0     H58080   6.071   8.731   3.863  2.8501  0.7493  2.5608
  441MOL0     O58081   7.302   4.050   3.123  0.1627  0.0349  0.0237
  441MOL0     C58082   7.384   4.045   3.214  0.5864  0.2747 -0.3052
  441MOL0     O58083   7.470   3.948   3.235  0.2086 -0.5490 -0.4717
  441MOL0     C58084   7.464   3.838   3.157  0.0062  0.5728 -1.0054
  441MOL0     C58085   7.363   3.743   3.171  0.2308  0.0609 -0.4973
  441MOL0     C58086   7.370   3.621   3.098 -1.5201 -0.3406  0.2694
  441MOL0     C58087   7.472   3.603   3.009 -0.2095 -0.1087  0.5800
  441MOL0     O58088   7.472   3.498   2.926 -0.0270 -0.5294  0.0678
  441MOL0     C58089   7.575   3.399   2.935 -0.9686 -0.2736  0.1639
  441MOL0     C58090   7.520   3.271   2.878 -0.3000 -0.1254  0.0473
  441MOL0     C58091   7.384   3.223   2.927 -1.3008 -0.0852  0.7180
  441MOL0     C58092   7.343   3.084   2.887  0.6320 -0.3859 -0.3294
  441MOL0     C58093   7.193   3.058   2.925 -0.9097  0.1630 -0.5031
  441MOL0     C58094   7.138   2.940   2.858  1.0502 -0.2853  0.2331
  441MOL0     C58095   7.010   2.966   2.774  0.4002 -0.0361  0.1308
  441MOL0     C58096   6.883   2.996   2.853 -0.7742  0.4865  0.1462
  441MOL0     N58097   6.772   2.989   2.755  1.1863  0.4345  0.6927
  441MOL0     C58098   6.678   2.886   2.735  0.0920  0.3061 -0.3914
  441MOL0     C58099   6.603   2.925   2.631  0.1596 -0.9922  0.2607
  441MOL0     C58100   6.476   2.858   2.593 -0.0404 -0.0940  0.5102
  441MOL0     C58101   6.366   2.875   2.701  0.0922 -0.0971 -0.3402
  441MOL0     C58102   6.229   2.816   2.658 -0.2315  0.5071 -1.0907
  441MOL0     C58103   6.122   2.852   2.761 -0.5633 -0.5259 -0.4260
  441MOL0     O58104   5.996   2.782   2.722 -0.7374  1.0824 -0.0143
  441MOL0     C58105   5.891   2.817   2.797 -0.5135  0.0737 -0.1841
  441MOL0     C58106   5.871   2.939   2.852 -0.0476  0.9449  0.4198
  441MOL0     C58107   5.750   2.964   2.924 -0.2950  0.1502 -0.3409
  441MOL0     C58108   5.650   2.863   2.925 -0.1185 -0.5610 -0.4667
  441MOL0     C58109   5.527   2.882   3.006 -0.6654 -0.1269 -0.4524
  441MOL0     O58110   5.420   2.830   2.948 -0.3329  0.0724 -0.1659
  441MOL0     C58111   5.295   2.848   3.002  0.3304 -0.7500 -0.9286
  441MOL0     C58112   5.210   2.744   3.002  0.1632  0.0575 -0.5041
  441MOL0     C58113   5.074   2.766   3.057  0.6555  0.3411  0.1827
  441MOL0     C58114   5.026   2.888   3.098 -0.5941  0.3228  0.0974
  441MOL0     O58115   4.902   2.899   3.157  0.0218  0.3944  0.0802
  441MOL0     C58116   4.839   3.025   3.135 -0.2175  0.3462  0.6056
  441MOL0     C58117   4.698   3.022   3.172 -0.3237  0.3322  0.1494
  441MOL0     C58118   4.613   2.916   3.090  0.2058  0.2572  0.0234
  441MOL0     C58119   4.473   2.919   3.135  0.6662  0.2080 -0.0174
  441MOL0     C58120   4.457   2.871   3.278 -0.4093  0.2628 -0.1929
  441MOL0     C58121   4.304   2.856   3.307  0.1748 -0.4864  1.5353
  441MOL0     C58122   4.269   2.818   3.453 -0.5486  0.5310 -0.3752
  441MOL0     C58123   4.287   2.670   3.486 -0.2621 -0.4783 -0.1213
  441MOL0    Cl58124   4.157   2.589   3.408  0.4155  0.0582 -0.0293
  441MOL0     C58125   5.116   3.004   3.077  0.1980 -0.9796  0.5950
  441MOL0     C58126   5.245   2.979   3.029 -0.3440  0.2134  0.4361
  441MOL0     O58127   5.523   2.939   3.112  0.3066  0.4381  0.5613
  441MOL0     C58128   5.676   2.743   2.864  0.4043  0.8367 -0.1575
  441MOL0     C58129   5.791   2.726   2.798 -0.1064 -0.0178 -0.2835
  441MOL0     N58130   6.645   3.049   2.585 -0.1486 -0.4707  0.0741
  441MOL0     N58131   6.744   3.089   2.664 -0.4409  0.2375  1.0197
  441MOL0     C58132   7.576   3.700   2.993  0.3640  0.0999 -0.0347
  441MOL0     C58133   7.562   3.819   3.067  0.3312 -1.2481  0.6921
  441MOL0     C58134   7.364   4.160   3.311 -0.0910 -0.2500 -0.1171
  441MOL0     C58135   7.272   4.259   3.287 -0.0040 -0.6517  1.5185
  441MOL0     C58136   7.252   4.358   3.385 -0.1988  0.3823  0.2648
  441MOL0     C58137   7.322   4.357   3.508 -0.3025  0.1171  0.4228
  441MOL0     O58138   7.314   4.453   3.601  0.5368 -0.0373  0.0015
  441MOL0     C58139   7.197   4.544   3.607  0.5504  0.1995 -0.7944
  441MOL0     C58140   7.084   4.469   3.684  0.1853  0.3655  1.1416
  441MOL0     C58141   6.945   4.525   3.670 -0.2612 -0.1626  0.0239
  441MOL0     C58142   6.838   4.435   3.723 -0.6907  0.9572  0.0320
  441MOL0     C58143   6.860   4.416   3.873  0.3141 -0.3953  0.0783
  441MOL0     C58144   6.873   4.408   3.993  0.4876  0.1923  0.0391
  441MOL0     C58145   7.412   4.248   3.526 -0.3141  0.0888 -0.8240
  441MOL0     C58146   7.437   4.154   3.428  0.8015 -0.1327 -0.6314
  441MOL0     H58147   7.275   3.748   3.235  0.2191 -3.2468 -0.0559
  441MOL0     H58148   7.288   3.550   3.105 -1.2420 -0.5443  1.9858
  441MOL0     H58149   7.612   3.374   3.035  5.3279  0.9598 -1.4264
  441MOL0     H58150   7.665   3.428   2.880 -0.1739 -1.1078  1.0031
  441MOL0     H58151   7.584   3.185   2.898  2.1021  1.8785  1.5998
  441MOL0     H58152   7.517   3.290   2.770  2.7875 -2.5396 -0.6007
  441MOL0     H58153   7.305   3.293   2.901  2.0925  3.6129 -0.7936
  441MOL0     H58154   7.394   3.238   3.035  2.8736 -2.8130  0.9426
  441MOL0     H58155   7.335   3.074   2.778 -1.2315  1.5430 -0.4346
  441MOL0     H58156   7.413   3.005   2.919  0.5189  0.5865  2.5951
  441MOL0     H58157   7.128   3.143   2.900 -2.3421 -0.6783  0.2435
  441MOL0     H58158   7.193   3.053   3.034 -0.9769  2.6173 -0.3236
  441MOL0     H58159   7.114   2.860   2.929 -0.4420  0.0765  0.1754
  441MOL0     H58160   7.212   2.906   2.785 -1.3775  3.1300 -4.3735
  441MOL0     H58161   7.022   3.046   2.701 -0.1020 -1.0387 -1.0997
  441MOL0     H58162   6.994   2.866   2.731  0.0554 -0.0605  0.3100
  441MOL0     H58163   6.876   3.094   2.901  0.7724  1.2919 -1.1699
  441MOL0     H58164   6.877   2.913   2.925 -1.0199  1.0116  0.7417
  441MOL0     H58165   6.672   2.799   2.800 -0.9812  0.2148 -0.5923
  441MOL0     H58166   6.499   2.754   2.569  2.6098  0.8012 -1.3504
  441MOL0     H58167   6.447   2.898   2.495 -1.1063 -0.2235  0.7609
  441MOL0     H58168   6.353   2.982   2.723 -2.4844 -0.3912 -0.0878
  441MOL0     H58169   6.412   2.833   2.790 -0.5422  1.5488  0.8193
  441MOL0     H58170   6.200   2.864   2.564 -2.1254  1.0716 -0.2637
  441MOL0     H58171   6.224   2.706   2.658 -1.9675  0.5191 -3.2140
  441MOL0     H58172   6.113   2.960   2.753 -1.8471 -0.6204 -0.3570
  441MOL0     H58173   6.158   2.819   2.859 -2.0086  1.0069  0.6804
  441MOL0     H58174   5.944   3.019   2.862  1.1090 -0.2396  2.2578
  441MOL0     H58175   5.730   3.062   2.966 -1.3280 -0.3859  0.4685
  441MOL0     H58176   5.247   2.648   2.967  1.6432 -0.2795  1.8148
  441MOL0     H58177   5.020   2.673   3.071  0.7679  0.1410 -0.6733
  441MOL0     H58178   4.842   3.066   3.033  3.1535 -0.9290  0.0401
  441MOL0     H58179   4.891   3.098   3.198  1.7062  0.3812 -0.9176
  441MOL0     H58180   4.661   3.125   3.163 -0.0100  0.4015 -0.3788
  441MOL0     H58181   4.678   2.988   3.274 -0.6053  0.4164  0.1244
  441MOL0     H58182   4.657   2.820   3.114 -0.3474  0.3432  1.4590
  441MOL0     H58183   4.623   2.937   2.983 -1.9599 -0.5568 -0.3998
  441MOL0     H58184   4.420   3.015   3.125 -1.5550 -0.9266  0.1763
  441MOL0     H58185   4.425   2.849   3.066 -0.1417  0.7325 -0.0106
  441MOL0     H58186   4.494   2.945   3.350  2.3525 -1.1617 -0.0044
  441MOL0     H58187   4.516   2.780   3.290 -0.3705  0.5520  2.4717
  441MOL0     H58188   4.260   2.773   3.250  0.4431  0.4127 -0.0318
  441MOL0     H58189   4.266   2.957   3.289 -0.1330 -0.8440  0.1186
  441MOL0     H58190   4.328   2.888   3.512 -0.8507  1.2595 -0.9218
  441MOL0     H58191   4.168   2.842   3.488 -0.8040 -1.0928  0.0945
  441MOL0     H58192   4.273   2.651   3.593 -0.3613 -2.6094 -0.4766
  441MOL0     H58193   4.381   2.624   3.456  1.0288  1.8606  0.0994
  441MOL0     H58194   5.082   3.101   3.111 -2.8846 -2.0910  1.0335
  441MOL0     H58195   5.307   3.067   3.018  3.0441 -2.1160 -0.9323
  441MOL0     H58196   5.611   2.657   2.875  0.2241  0.7509 -1.6563
  441MOL0     H58197   5.793   2.628   2.750 -2.0290 -0.0006 -0.4920
  441MOL0     H58198   7.652   3.674   2.920 -0.1262  0.2103 -0.5919
  441MOL0     H58199   7.628   3.902   3.045 -1.4488 -0.0366 -0.3753
  441MOL0     H58200   7.226   4.260   3.189 -0.1223  0.2096  1.5805
  441MOL0     H58201   7.173   4.430   3.366 -0.4869 -0.0721 -0.2714
  441MOL0     H58202   7.158   4.575   3.509 -1.6140 -1.3039 -0.4830
  441MOL0     H58203   7.223   4.641   3.648  0.4673 -0.6143  1.2956
  441MOL0     H58204   7.080   4.365   3.649  0.6514  0.3164  1.2188
  441MOL0     H58205   7.112   4.484   3.789 -0.2930  0.4228  1.2605
  441MOL0     H58206   6.923   4.561   3.569  1.8298  1.5129  0.0974
  441MOL0     H58207   6.949   4.616   3.729 -0.1406  0.7258 -1.3008
  441MOL0     H58208   6.742   4.486   3.706 -0.7357  1.3881  1.4817
  441MOL0     H58209   6.839   4.343   3.665 -1.8489  0.3186  0.9743
  441MOL0     H58210   6.879   4.406   4.100  0.9091  1.3806  0.0481
  441MOL0     H58211   7.466   4.232   3.618 -2.7123  0.0482  0.6600
  441MOL0     H58212   7.504   4.068   3.429 -0.3048 -1.0577  1.8294
  442MOL0     O58213   2.730   1.588   6.543  0.1120 -0.0095  0.4157
  442MOL0     C58214   2.797   1.488   6.556 -0.5005  1.3266  0.4438
  442MOL0     O58215   2.760   1.377   6.643  0.0526  0.0909 -0.0384
  442MOL0     C58216   2.656   1.383   6.730  0.3286  0.3220  0.0056
  442MOL0     C58217   2.550   1.474   6.736  0.2197  0.1362 -0.1230
  442MOL0     C58218   2.452   1.471   6.836  0.4448 -0.4004  0.0244
  442MOL0     C58219   2.451   1.369   6.934  1.1659 -0.2591  0.5890
  442MOL0     O58220   2.346   1.361   7.022 -0.5239 -0.5344  0.6511
  442MOL0     C58221   2.310   1.245   7.102 -0.6327  0.1035 -0.1957
  442MOL0     C58222   2.248   1.133   7.025  0.0104 -0.0551  0.6558
  442MOL0     C58223   2.117   1.175   6.944  0.4826 -0.3367 -0.7737
  442MOL0     C58224   1.991   1.183   7.026  0.5190 -0.6601 -0.6293
  442MOL0     C58225   1.870   1.186   6.937  0.0485 -0.1059  0.0622
  442MOL0     C58226   1.743   1.175   7.021  0.1112 -0.3166  0.4286
  442MOL0     C58227   1.619   1.181   6.930  0.3921  0.1468  0.3439
  442MOL0     C58228   1.595   1.328   6.898 -0.7313  0.4779  0.0020
  442MOL0     N58229   1.452   1.354   6.920  0.2723 -0.9925 -0.1943
  442MOL0     C58230   1.349   1.310   6.841  1.0748  0.0385  0.6467
  442MOL0     C58231   1.240   1.359   6.894  0.1651  0.2160 -0.3221
  442MOL0     C58232   1.105   1.347   6.842 -0.5983  0.3565  0.1304
  442MOL0     C58233   1.085   1.249   6.732 -0.1509  0.3784 -0.4104
  442MOL0     C58234   0.933   1.236   6.703 -0.3844 -0.5953 -0.4595
  442MOL0     C58235   0.913   1.121   6.608 -0.0524  1.0492 -0.3284
  442MOL0     O58236   0.784   1.098   6.556  0.2136 -0.1243 -0.3146
  442MOL0     C58237   0.670   1.111   6.640  0.7612 -0.7706 -0.6474
  442MOL0     C58238   0.672   1.048   6.759  0.4181  0.3461  0.2374
  442MOL0     C58239   0.570   1.049   6.859 -0.8503  0.1986 -0.3265
  442MOL0     C58240   0.451   1.122   6.820 -0.4841  0.2836 -0.1677
  442MOL0     C58241   0.332   1.135   6.902  0.3010 -0.9447 -0.5594
  442MOL0     O58242   0.207   1.149   6.844  0.6433  0.6293  0.1168
  442MOL0     C58243   0.094   1.170   6.923  0.3631  0.0383  0.0469
  442MOL0     C58244   0.026   1.049   6.959  0.3212  1.2530  0.5432
  442MOL0     C58245  -0.073   1.057   7.062 -0.1924 -0.6718 -0.1680
  442MOL0     C58246  -0.122   1.173   7.113 -0.6656 -0.7320 -0.0959
  442MOL0     O58247  -0.240   1.188   7.180  0.4363 -0.3355 -0.8683
  442MOL0     C58248  -0.330   1.081   7.195  0.4768  0.1553 -0.4025
  442MOL0     C58249  -0.404   1.057   7.066 -0.8825  0.6893  1.1064
  442MOL0     C58250  -0.499   1.166   7.033 -0.9978 -0.1976  0.4229
  442MOL0     C58251  -0.622   1.189   7.117  0.1503 -0.4143  0.3289
  442MOL0     C58252  -0.701   1.328   7.088  0.1833 -0.2425 -1.0775
  442MOL0     C58253  -0.630   1.443   7.156  0.1880  0.5575 -0.6491
  442MOL0     C58254  -0.698   1.576   7.112 -0.2355 -0.1714 -0.7817
  442MOL0     C58255  -0.621   1.705   7.155  0.0935  0.1838 -0.2160
  442MOL0    Cl58256  -0.612   1.716   7.338  0.1791 -0.2172 -0.2537
  442MOL0     C58257  -0.060   1.288   7.058 -0.0951  0.1867  0.2551
  442MOL0     C58258   0.051   1.293   6.978  0.3373  0.0395  0.7893
  442MOL0     O58259   0.349   1.123   7.026  0.1891 -0.5452 -0.4521
  442MOL0     C58260   0.450   1.190   6.697  0.1377 -0.0386 -1.5093
  442MOL0     C58261   0.561   1.193   6.610 -0.5028  0.0034  0.0611
  442MOL0     N58262   1.272   1.431   7.012  0.5889 -0.8095 -0.4475
  442MOL0     N58263   1.401   1.427   7.020 -0.4051 -0.0644 -1.3670
  442MOL0     C58264   2.552   1.273   6.926  0.6731  0.3954  0.4517
  442MOL0     C58265   2.655   1.287   6.830 -1.0372  0.4525 -0.0210
  442MOL0     C58266   2.922   1.481   6.483  0.1974 -0.9574 -0.2353
  442MOL0     C58267   2.949   1.580   6.389 -0.4931 -0.3395  0.5649
  442MOL0     C58268   3.061   1.565   6.309  0.1172 -0.2037 -0.1165
  442MOL0     C58269   3.146   1.454   6.316 -0.7626  0.1586  0.0421
  442MOL0     O58270   3.246   1.462   6.221 -0.0794 -0.0700 -0.2595
  442MOL0     C58271   3.357   1.378   6.239  0.0327  0.3847  0.5727
  442MOL0     C58272   3.457   1.429   6.148 -0.0236 -0.5561  0.3617
  442MOL0     C58273   3.495   1.581   6.149 -1.2155  0.2768  0.3608
  442MOL0     C58274   3.617   1.619   6.065  0.1237 -1.0430 -0.2994
  442MOL0     C58275   3.730   1.532   6.079  0.8001  1.5098 -0.4301
  442MOL0     C58276   3.825   1.456   6.102 -0.3599 -0.4583  0.3452
  442MOL0     C58277   3.126   1.352   6.412 -0.5983 -0.3413  0.2948
  442MOL0     C58278   3.004   1.365   6.493  0.3132  0.1227  0.5938
  442MOL0     H58279   2.526   1.549   6.662 -1.9065 -0.1386  0.2280
  442MOL0     H58280   2.363   1.533   6.832  1.6993  1.4394 -0.5562
  442MOL0     H58281   2.232   1.277   7.172 -0.2596 -1.1521  0.8218
  442MOL0     H58282   2.388   1.207   7.168  0.6909  3.0496  0.0801
  442MOL0     H58283   2.219   1.061   7.103 -1.8019  0.4309  0.4681
  442MOL0     H58284   2.323   1.092   6.957 -1.3030 -1.1263 -0.2041
  442MOL0     H58285   2.092   1.108   6.862 -3.0202  1.3187 -1.2365
  442MOL0     H58286   2.129   1.270   6.891 -1.0208 -1.1845 -2.7429
  442MOL0     H58287   1.979   1.103   7.100  0.3383  0.6012  0.7646
  442MOL0     H58288   1.996   1.274   7.086  2.0112 -2.3032  1.9367
  442MOL0     H58289   1.878   1.097   6.873 -0.5582 -0.6399  0.6988
  442MOL0     H58290   1.868   1.276   6.876 -0.2989  0.7635  1.3204
  442MOL0     H58291   1.736   1.252   7.098 -1.8623  2.1378 -1.9930
  442MOL0     H58292   1.737   1.081   7.077 -1.1970 -2.0108 -2.3114
  442MOL0     H58293   1.639   1.129   6.835  2.6711  0.3017  0.6752
  442MOL0     H58294   1.534   1.132   6.977  0.7033 -1.1581 -0.4007
  442MOL0     H58295   1.631   1.346   6.796  2.3001  2.7886  1.2988
  442MOL0     H58296   1.644   1.401   6.963 -3.5694  1.0880  1.6343
  442MOL0     H58297   1.346   1.247   6.753  1.9795  2.6431 -1.4175
  442MOL0     H58298   1.048   1.437   6.814 -0.4174 -0.1527 -2.0322
  442MOL0     H58299   1.042   1.309   6.923 -1.7450 -0.1666 -0.9617
  442MOL0     H58300   1.117   1.151   6.769 -1.0600 -0.1167 -0.9083
  442MOL0     H58301   1.128   1.263   6.633  2.4985 -0.5831  0.5101
  442MOL0     H58302   0.870   1.223   6.791 -0.3754  2.2951  0.0588
  442MOL0     H58303   0.899   1.329   6.658 -2.1000 -1.6387 -1.4073
  442MOL0     H58304   0.960   1.030   6.644 -0.8061  0.7826 -0.0023
  442MOL0     H58305   0.965   1.138   6.513  0.7711 -0.6536 -0.2069
  442MOL0     H58306   0.763   0.993   6.782  1.4263  2.0592  0.5858
  442MOL0     H58307   0.596   0.987   6.944 -1.1391 -0.1918 -0.5220
  442MOL0     H58308   0.059   0.950   6.928  1.8749  2.0434 -0.4228
  442MOL0     H58309  -0.098   0.960   7.105  1.8925  0.1823  3.3920
  442MOL0     H58310  -0.398   1.115   7.273  0.9167 -2.7728  1.4147
  442MOL0     H58311  -0.280   0.986   7.217 -1.1152 -1.2476 -2.3590
  442MOL0     H58312  -0.468   0.968   7.062  0.3687 -0.1933 -0.7909
  442MOL0     H58313  -0.330   1.039   6.987 -3.4944 -0.2273 -1.2704
  442MOL0     H58314  -0.535   1.168   6.929  2.3224  1.4740 -0.8482
  442MOL0     H58315  -0.437   1.256   7.040  0.4987 -1.1068 -0.4306
  442MOL0     H58316  -0.697   1.110   7.103  1.3774 -1.5123 -0.1812
  442MOL0     H58317  -0.606   1.172   7.224  1.9757 -4.1971 -0.4023
  442MOL0     H58318  -0.806   1.326   7.120  0.0929  3.4234 -0.6611
  442MOL0     H58319  -0.718   1.344   6.982 -2.4870  1.8033 -0.4529
  442MOL0     H58320  -0.529   1.440   7.113  0.4135  0.3238 -0.1126
  442MOL0     H58321  -0.623   1.433   7.265 -0.5284 -0.7704 -0.7052
  442MOL0     H58322  -0.719   1.587   7.005  0.4332 -1.0104 -1.0096
  442MOL0     H58323  -0.789   1.568   7.171  1.5915 -2.9613  1.9846
  442MOL0     H58324  -0.663   1.800   7.120  2.7124  1.2725 -0.6353
  442MOL0     H58325  -0.521   1.708   7.110 -0.5306 -0.3028 -1.6757
  442MOL0     H58326  -0.086   1.383   7.104  0.1419  0.8316 -0.9188
  442MOL0     H58327   0.089   1.390   6.947 -1.7617  1.8708  3.4859
  442MOL0     H58328   0.364   1.250   6.667  0.9930  1.5087 -0.9900
  442MOL0     H58329   0.567   1.256   6.522  0.3230  2.5057  1.7898
  442MOL0     H58330   2.553   1.183   6.987  0.2491  1.2340  1.7383
  442MOL0     H58331   2.734   1.214   6.825  0.0423  1.5372  0.7907
  442MOL0     H58332   2.888   1.667   6.366  0.5088  0.1517 -0.2967
  442MOL0     H58333   3.087   1.649   6.245  0.8103  2.5182  3.4240
  442MOL0     H58334   3.318   1.280   6.211 -1.4644  1.2923 -0.6424
  442MOL0     H58335   3.397   1.376   6.341 -0.7835 -2.2365  0.9168
  442MOL0     H58336   3.549   1.373   6.165  0.9412  0.5482 -1.0000
  442MOL0     H58337   3.429   1.418   6.043  2.6860  6.6642 -1.6837
  442MOL0     H58338   3.519   1.607   6.252 -2.0895  0.6864  0.4681
  442MOL0     H58339   3.410   1.642   6.118 -1.5496  0.2390  1.1797
  442MOL0     H58340   3.582   1.617   5.961  2.5621 -1.0239 -1.1797
  442MOL0     H58341   3.649   1.723   6.082 -2.5499  0.2683 -2.3926
  442MOL0     H58342   3.918   1.402   6.105 -1.4298 -2.4812 -0.9228
  442MOL0     H58343   3.188   1.263   6.420  2.6990  1.8270  0.7410
  442MOL0     H58344   2.979   1.289   6.567  2.3635  1.1265  2.4436
  443MOL0     O58345   9.340   6.707   6.138 -0.4767 -0.2834 -0.1344
  443MOL0     C58346   9.368   6.695   6.017 -1.4389  0.9647  0.7014
  443MOL0     O58347   9.300   6.733   5.913 -0.2483  0.2099  0.1594
  443MOL0     C58348   9.176   6.790   5.931  0.8201  0.1431 -0.0105
  443MOL0     C58349   9.089   6.790   5.817 -0.8978 -0.6480  0.1354
  443MOL0     C58350   8.956   6.825   5.820  0.1578 -0.3353  0.3724
  443MOL0     C58351   8.901   6.887   5.936  0.1408  0.0273 -0.2661
  443MOL0     O58352   8.767   6.922   5.944 -0.3453  0.9205 -0.2964
  443MOL0     C58353   8.704   6.919   6.079 -0.1532  0.1786  0.0917
  443MOL0     C58354   8.557   6.969   6.071 -0.4552 -0.0823  0.2258
  443MOL0     C58355   8.542   7.099   6.002 -0.2514 -1.0333  0.7191
  443MOL0     C58356   8.397   7.149   6.009  0.5979  0.2409 -0.3195
  443MOL0     C58357   8.365   7.263   5.907 -0.3043 -0.2086 -0.0242
  443MOL0     C58358   8.215   7.287   5.882  0.2567 -0.2934 -0.6363
  443MOL0     C58359   8.201   7.403   5.790  0.3717 -0.0164  0.5396
  443MOL0     C58360   8.205   7.530   5.876 -0.8751 -0.2538  0.2724
  443MOL0     N58361   8.101   7.551   5.984  0.3481 -0.2418  1.1254
  443MOL0     C58362   7.962   7.533   5.969 -0.2348  0.0017  0.3669
  443MOL0     C58363   7.909   7.564   6.085 -0.4552 -0.8393  0.8068
  443MOL0     C58364   7.760   7.553   6.133 -0.9887 -0.0401  0.4722
  443MOL0     C58365   7.650   7.659   6.086 -0.3538 -0.8827 -0.0779
  443MOL0     C58366   7.679   7.810   6.120 -0.1513  0.3748 -0.5872
  443MOL0     C58367   7.546   7.877   6.134 -1.4636 -0.1613 -0.1340
  443MOL0     O58368   7.495   7.844   6.261  0.1567 -0.1855 -0.9665
  443MOL0     C58369   7.362   7.868   6.286 -0.7767 -0.1710  0.1431
  443MOL0     C58370   7.280   7.945   6.208  0.3126  0.2196  0.0196
  443MOL0     C58371   7.144   7.947   6.231  0.0229 -1.1543 -0.0852
  443MOL0     C58372   7.081   7.888   6.338 -0.7523 -0.5283 -0.2076
  443MOL0     C58373   6.946   7.926   6.363  0.1092  0.2325 -0.1306
  443MOL0     O58374   6.887   8.007   6.276 -1.1222 -0.5562  0.2437
  443MOL0     C58375   6.761   8.053   6.288 -0.2179 -0.0353  0.5653
  443MOL0     C58376   6.682   8.050   6.170  0.7684 -0.7648  0.2564
  443MOL0     C58377   6.546   8.095   6.174  0.6784  0.9927 -0.7880
  443MOL0     C58378   6.500   8.147   6.302 -0.5545  0.8275  0.2381
  443MOL0     O58379   6.377   8.190   6.320  0.4328 -0.4202  0.0926
  443MOL0     C58380   6.287   8.215   6.214 -0.8650  0.2719  0.5956
  443MOL0     C58381   6.167   8.301   6.268 -0.0017 -1.0113  0.2190
  443MOL0     C58382   6.098   8.214   6.374  0.6051 -0.5887  0.0836
  443MOL0     C58383   5.960   8.285   6.425 -1.3562 -0.1306  0.1259
  443MOL0     C58384   5.859   8.322   6.320  0.2391  0.0887 -0.6587
  443MOL0     C58385   5.827   8.203   6.231 -0.1653  0.3646  0.1811
  443MOL0     C58386   5.699   8.218   6.143  0.2140 -0.7432 -0.1697
  443MOL0     C58387   5.601   8.105   6.160 -0.6061 -0.6648 -0.1124
  443MOL0    Cl58388   5.516   8.137   6.313  0.3706 -0.2569 -0.0200
  443MOL0     C58389   6.577   8.151   6.411 -1.5266  0.0929 -0.0648
  443MOL0     C58390   6.712   8.111   6.405  0.4778  0.2329 -0.8694
  443MOL0     O58391   6.893   7.882   6.464 -0.2722 -0.0082  0.2373
  443MOL0     C58392   7.164   7.813   6.423 -0.1227 -0.1351  0.1664
  443MOL0     C58393   7.307   7.801   6.395  1.0968  0.5535 -1.0684
  443MOL0     N58394   8.013   7.591   6.173  0.8277 -0.4312  0.2999
  443MOL0     N58395   8.125   7.596   6.110 -0.1758  0.0857 -0.5637
  443MOL0     C58396   8.987   6.909   6.048  0.2818  0.6518  0.7190
  443MOL0     C58397   9.114   6.856   6.046 -0.0591  0.3825  1.2285
  443MOL0     C58398   9.499   6.620   5.997  0.9350  0.2703  0.4611
  443MOL0     C58399   9.525   6.553   5.878  0.6682  0.4952  1.0219
  443MOL0     C58400   9.652   6.499   5.857  0.1588 -0.4240  0.4668
  443MOL0     C58401   9.759   6.525   5.935  0.1475 -0.0517  0.9595
  443MOL0     O58402   9.879   6.474   5.889 -0.2959  0.5681  0.2849
  443MOL0     C58403   9.967   6.400   5.977  0.7383 -0.4915  0.3153
  443MOL0     C58404  10.083   6.485   6.026 -0.1290 -0.5232 -0.3251
  443MOL0     C58405  10.173   6.417   6.129  0.4553  0.4780 -0.0334
  443MOL0     C58406  10.266   6.302   6.078  0.1345 -0.2773  0.6119
  443MOL0     C58407  10.394   6.351   6.056  0.5062 -0.5274 -0.3346
  443MOL0     C58408  10.508   6.393   6.052  0.4227 -0.4150  0.8213
  443MOL0     C58409   9.740   6.595   6.058  0.2356  0.7176  0.8010
  443MOL0     C58410   9.605   6.637   6.088  0.4930  0.1352 -0.5360
  443MOL0     H58411   9.121   6.764   5.717  1.1213 -1.9108  1.0451
  443MOL0     H58412   8.889   6.812   5.736 -1.5841 -3.6757  2.0675
  443MOL0     H58413   8.757   6.991   6.143 -1.7659  2.0332 -0.5400
  443MOL0     H58414   8.712   6.823   6.131  2.1715 -0.2706 -0.9657
  443MOL0     H58415   8.521   6.984   6.173  0.8161  2.1133  0.4228
  443MOL0     H58416   8.489   6.890   6.037 -2.2631  1.2002  0.6813
  443MOL0     H58417   8.566   7.084   5.896 -2.9060  2.4764 -0.5730
  443MOL0     H58418   8.613   7.177   6.029 -0.1397 -0.5757 -0.8055
  443MOL0     H58419   8.338   7.058   5.993 -0.0498  0.3151  1.4193
  443MOL0     H58420   8.365   7.185   6.107 -1.4689 -0.4665 -0.7015
  443MOL0     H58421   8.413   7.251   5.810  0.4945  2.6449 -0.0891
  443MOL0     H58422   8.417   7.355   5.936 -0.3994 -0.1517 -0.0315
  443MOL0     H58423   8.166   7.312   5.977  0.8342 -0.2107 -0.3569
  443MOL0     H58424   8.167   7.199   5.838 -0.2877 -0.6798  0.7002
  443MOL0     H58425   8.267   7.399   5.703  1.1800 -0.4342  1.1636
  443MOL0     H58426   8.096   7.403   5.759  0.6382 -0.6224 -0.4311
  443MOL0     H58427   8.193   7.607   5.800 -3.0088 -1.0947 -0.3178
  443MOL0     H58428   8.307   7.543   5.912 -0.5708 -0.1904 -0.5843
  443MOL0     H58429   7.909   7.511   5.877 -1.3383 -1.0308  1.2297
  443MOL0     H58430   7.772   7.548   6.242  1.2508  1.5891  0.3735
  443MOL0     H58431   7.707   7.459   6.118 -1.4171  0.2151  0.3598
  443MOL0     H58432   7.553   7.641   6.134  0.1253 -2.1569  0.4387
  443MOL0     H58433   7.624   7.658   5.980 -4.2238  2.4836  0.5550
  443MOL0     H58434   7.732   7.822   6.214  2.1913  3.4190 -2.0991
  443MOL0     H58435   7.736   7.873   6.051 -1.0087  1.3624 -0.4227
  443MOL0     H58436   7.488   7.856   6.044 -1.5000  1.9983 -0.6697
  443MOL0     H58437   7.566   7.984   6.129  0.7735 -0.6156 -2.5593
  443MOL0     H58438   7.315   7.994   6.118 -0.7680 -2.2572 -1.8750
  443MOL0     H58439   7.092   8.009   6.158  0.6895  0.4437  0.7628
  443MOL0     H58440   6.712   7.992   6.084 -0.9494 -0.4137 -0.6204
  443MOL0     H58441   6.475   8.087   6.092  1.1086  0.7743 -1.1434
  443MOL0     H58442   6.252   8.126   6.161  1.7876  0.3777 -1.6035
  443MOL0     H58443   6.324   8.286   6.139  0.7162  1.4380  2.4069
  443MOL0     H58444   6.109   8.332   6.181  1.3188  0.6326 -0.1231
  443MOL0     H58445   6.186   8.394   6.323 -1.0981 -0.9476  0.5100
  443MOL0     H58446   6.162   8.190   6.460  0.7022  0.8201  0.4315
  443MOL0     H58447   6.074   8.126   6.314 -1.1025 -1.3792  1.8001
  443MOL0     H58448   5.912   8.221   6.500 -0.1276 -1.3796 -0.0905
  443MOL0     H58449   5.980   8.373   6.486 -2.1846 -0.5625  1.0623
  443MOL0     H58450   5.900   8.401   6.256 -0.7219  0.6131 -0.6466
  443MOL0     H58451   5.786   8.376   6.380 -0.0291 -1.8451  0.8656
  443MOL0     H58452   5.815   8.111   6.290 -0.1899  0.8590  0.9573
  443MOL0     H58453   5.912   8.178   6.166 -0.0824  0.2030  0.3478
  443MOL0     H58454   5.654   8.314   6.171  0.3973 -0.3356 -1.2403
  443MOL0     H58455   5.733   8.213   6.039 -1.2995 -1.3763 -0.6517
  443MOL0     H58456   5.651   8.008   6.154  1.6025  0.4720 -1.4988
  443MOL0     H58457   5.526   8.111   6.080 -0.6641 -3.4278 -0.3470
  443MOL0     H58458   6.542   8.187   6.508 -3.8613 -0.5836 -0.5931
  443MOL0     H58459   6.767   8.114   6.498 -2.6918  0.5283  1.1355
  443MOL0     H58460   7.110   7.760   6.501 -2.6449  2.4389  0.3607
  443MOL0     H58461   7.378   7.740   6.450 -0.0823  0.9593  1.0077
  443MOL0     H58462   8.958   6.967   6.135 -0.6252  0.3279  0.6371
  443MOL0     H58463   9.182   6.887   6.125  1.0174  2.6788 -0.4543
  443MOL0     H58464   9.462   6.543   5.790  1.4640  0.0529  0.4933
  443MOL0     H58465   9.666   6.440   5.767  0.9767  1.2548 -0.5723
  443MOL0     H58466  10.007   6.324   5.910 -0.2128  1.5193 -2.7964
  443MOL0     H58467   9.910   6.371   6.066  1.5050  0.1277  1.0327
  443MOL0     H58468  10.135   6.525   5.938  0.4346  0.0327  0.2496
  443MOL0     H58469  10.040   6.568   6.082 -0.4572 -2.6128  2.7610
  443MOL0     H58470  10.113   6.375   6.211 -0.0753  3.2430  1.1096
  443MOL0     H58471  10.239   6.495   6.168  0.6390  0.8113 -0.9808
  443MOL0     H58472  10.265   6.218   6.148 -3.9878 -0.9525  0.0154
  443MOL0     H58473  10.239   6.274   5.976  3.4093 -3.0158  0.3015
  443MOL0     H58474  10.611   6.425   6.055  0.2901  0.1463 -0.1838
  443MOL0     H58475   9.817   6.620   6.129  1.8023  0.1239 -0.6290
  443MOL0     H58476   9.581   6.692   6.178  2.1695 -1.7885  1.2163
  444MOL0     O58477   2.957  10.545   1.276  0.5248  0.3976  0.4411
  444MOL0     C58478   3.056  10.470   1.287 -0.2526 -0.6958  0.2168
  444MOL0     O58479   3.053  10.331   1.269 -0.5103  1.0109 -0.2501
  444MOL0     C58480   2.939  10.275   1.232  0.1518  0.5043  0.6151
  444MOL0     C58481   2.908  10.256   1.100  0.2245  0.7886 -0.2414
  444MOL0     C58482   2.792  10.190   1.062 -0.4059  1.2068 -0.0325
  444MOL0     C58483   2.699  10.145   1.155  0.4852 -0.4847  0.3162
  444MOL0     O58484   2.584  10.082   1.116  0.2571  0.2473 -0.1773
  444MOL0     C58485   2.494  10.021   1.214  0.4956 -1.5123 -0.5013
  444MOL0     C58486   2.387   9.941   1.145  1.8016 -0.1796  1.3752
  444MOL0     C58487   2.289   9.875   1.234 -0.2424  0.3608  0.1169
  444MOL0     C58488   2.217   9.766   1.159  0.3619 -0.3280  0.0073
  444MOL0     C58489   2.128   9.688   1.272 -0.2418 -0.4150  0.0872
  444MOL0     C58490   2.089   9.558   1.211 -0.1700  0.1424 -0.1776
  444MOL0     C58491   2.037   9.464   1.320  1.3119 -1.2055 -0.1895
  444MOL0     C58492   1.962   9.334   1.262  1.0015 -0.5796 -0.5028
  444MOL0     N58493   1.896   9.257   1.370 -0.1948  0.0731  0.6515
  444MOL0     C58494   1.813   9.310   1.466  0.1275  0.0515 -0.4447
  444MOL0     C58495   1.786   9.213   1.549 -0.2415 -0.0160 -0.4836
  444MOL0     C58496   1.710   9.238   1.679 -0.3153 -0.9951 -0.3380
  444MOL0     C58497   1.562   9.271   1.649 -0.0917 -0.1345  0.3090
  444MOL0     C58498   1.484   9.159   1.580 -0.0366 -0.2556 -0.2936
  444MOL0     C58499   1.491   9.028   1.657  0.6582 -0.1234  0.4291
  444MOL0     O58500   1.394   8.923   1.624  0.2701 -0.2406  0.0223
  444MOL0     C58501   1.259   8.929   1.646 -0.0149  0.5247 -0.0298
  444MOL0     C58502   1.171   8.836   1.586 -0.0923  0.2107 -0.3340
  444MOL0     C58503   1.038   8.819   1.626 -0.1273 -1.0096  0.3322
  444MOL0     C58504   0.984   8.910   1.716 -0.5010  0.3083 -0.2113
  444MOL0     C58505   0.839   8.912   1.772  1.1682 -0.6246  0.3649
  444MOL0     O58506   0.790   9.013   1.850 -0.0323  0.1511 -0.7575
  444MOL0     C58507   0.672   8.986   1.911  0.2202 -1.2524 -0.2017
  444MOL0     C58508   0.543   9.038   1.868 -0.4595  0.3629  0.9319
  444MOL0     C58509   0.427   9.003   1.934  0.5655 -0.1601 -1.1837
  444MOL0     C58510   0.421   8.909   2.040  0.0918 -0.0182  0.1023
  444MOL0     O58511   0.299   8.859   2.079 -0.8351  0.2795  0.7256
  444MOL0     C58512   0.295   8.716   2.065  0.3652  0.4295  0.4251
  444MOL0     C58513   0.148   8.668   2.047 -0.0921 -0.1769  0.2807
  444MOL0     C58514   0.066   8.690   2.173 -0.1338  0.9945 -0.6436
  444MOL0     C58515  -0.081   8.637   2.170 -0.0024 -0.4321  0.4698
  444MOL0     C58516  -0.126   8.605   2.319 -0.0978  0.5752  0.3122
  444MOL0     C58517  -0.261   8.549   2.341  0.0193 -0.9678  0.3608
  444MOL0     C58518  -0.376   8.654   2.372  0.4094  0.9108 -0.5945
  444MOL0     C58519  -0.502   8.576   2.400 -0.8357 -0.2189 -1.1859
  444MOL0    Cl58520  -0.489   8.529   2.566 -0.0477  0.2751 -0.4614
  444MOL0     C58521   0.544   8.850   2.074 -0.2497 -0.0037  0.1470
  444MOL0     C58522   0.664   8.886   2.021  0.1295  0.2806  0.0701
  444MOL0     O58523   0.776   8.810   1.733  0.0626  0.2526 -0.3647
  444MOL0     C58524   1.070   9.009   1.772  0.0871 -0.6070 -0.6404
  444MOL0     C58525   1.209   9.014   1.741 -0.9655 -0.3090  0.0084
  444MOL0     N58526   1.843   9.092   1.503 -0.0910  0.1233  0.5977
  444MOL0     N58527   1.913   9.128   1.399 -0.2702  0.7482 -0.2695
  444MOL0     C58528   2.730  10.153   1.294 -0.2135 -0.5258  0.5226
  444MOL0     C58529   2.854  10.220   1.332 -0.2574  0.0340  0.7057
  444MOL0     C58530   3.188  10.540   1.325 -0.5247  0.1529 -0.5587
  444MOL0     C58531   3.178  10.656   1.409 -0.2890 -0.0439 -0.9047
  444MOL0     C58532   3.294  10.738   1.440  0.9194  0.6748  0.4921
  444MOL0     C58533   3.419  10.692   1.407 -0.3530 -0.8279  0.2889
  444MOL0     O58534   3.534  10.759   1.442  0.3851  0.4137  0.3090
  444MOL0     C58535   3.532  10.869   1.533  0.4681 -0.8608  1.0845
  444MOL0     C58536   3.673  10.922   1.547 -0.1306  0.3775  0.0684
  444MOL0     C58537   3.767  10.822   1.615  0.0360  0.7638 -0.1517
  444MOL0     C58538   3.896  10.886   1.640 -0.3897 -0.1106  0.5377
  444MOL0     C58539   3.984  10.777   1.677 -0.3092 -0.0972 -0.7600
  444MOL0     C58540   4.063  10.680   1.703  0.8849  0.0555 -0.2576
  444MOL0     C58541   3.429  10.565   1.330 -0.9815 -0.4473 -0.2544
  444MOL0     C58542   3.317  10.492   1.289 -0.3157  0.1595  0.3177
  444MOL0     H58543   2.986  10.271   1.026  2.3107 -0.4826  1.5247
  444MOL0     H58544   2.772  10.182   0.956  0.4578  1.0964 -0.2015
  444MOL0     H58545   2.458  10.103   1.278 -3.2396  0.0452 -4.1324
  444MOL0     H58546   2.541   9.952   1.285  2.7336  2.7036  2.5677
  444MOL0     H58547   2.431   9.869   1.076  0.2201 -1.7267  1.8942
  444MOL0     H58548   2.324  10.007   1.083  1.2227 -1.3330  0.6913
  444MOL0     H58549   2.228   9.955   1.277 -0.4843 -1.0092  2.4951
  444MOL0     H58550   2.334   9.830   1.323  0.4075  2.1738  0.7505
  444MOL0     H58551   2.154   9.803   1.077 -0.9609 -2.8447 -0.2038
  444MOL0     H58552   2.290   9.709   1.102 -0.5045 -0.2957 -1.1850
  444MOL0     H58553   2.034   9.738   1.299 -1.5577 -1.6883 -1.8535
  444MOL0     H58554   2.185   9.670   1.364 -1.5511  0.3464  1.0963
  444MOL0     H58555   2.172   9.505   1.163 -1.2959 -1.9811  0.0869
  444MOL0     H58556   2.018   9.581   1.131  1.4042 -2.6573 -2.6120
  444MOL0     H58557   2.124   9.441   1.383  2.1552  3.3228  0.6002
  444MOL0     H58558   1.972   9.526   1.382  2.7370  0.5157 -0.3181
  444MOL0     H58559   2.038   9.265   1.224  2.2013 -0.2074  1.1374
  444MOL0     H58560   1.878   9.362   1.197 -0.6777 -2.2217  0.8231
  444MOL0     H58561   1.788   9.415   1.475  0.3077  0.1895 -1.4727
  444MOL0     H58562   1.758   9.318   1.736  2.2013 -0.7713 -2.5447
  444MOL0     H58563   1.720   9.153   1.747 -1.3999 -2.9895 -2.5266
  444MOL0     H58564   1.561   9.365   1.593  2.4366  0.4404  1.1029
  444MOL0     H58565   1.511   9.295   1.743  2.7875  1.1404  1.7007
  444MOL0     H58566   1.386   9.208   1.579  1.5503  3.2164  0.6928
  444MOL0     H58567   1.503   9.129   1.477  0.8795 -0.8441  0.0327
  444MOL0     H58568   1.498   9.056   1.762 -2.0276  4.2185 -0.3316
  444MOL0     H58569   1.586   8.977   1.635 -1.1804 -3.0256 -1.4884
  444MOL0     H58570   1.199   8.771   1.504 -0.5438 -5.1734  3.2329
  444MOL0     H58571   0.978   8.736   1.590 -1.8123 -0.8841  2.5719
  444MOL0     H58572   0.542   9.103   1.781  0.9200 -0.4928  0.2431
  444MOL0     H58573   0.325   9.033   1.913  0.4189 -1.1154 -1.8724
  444MOL0     H58574   0.345   8.666   2.148  0.9493 -1.0650 -0.7864
  444MOL0     H58575   0.341   8.679   1.973  1.4475 -0.8542  1.4395
  444MOL0     H58576   0.144   8.561   2.027  0.4957 -0.3255  0.9217
  444MOL0     H58577   0.101   8.708   1.956  1.6185 -3.3671 -2.2068
  444MOL0     H58578   0.050   8.796   2.195 -0.9679  1.0738 -1.6023
  444MOL0     H58579   0.124   8.650   2.258  1.9892  1.4844 -1.7875
  444MOL0     H58580  -0.153   8.707   2.126 -1.2020 -0.7180  1.8942
  444MOL0     H58581  -0.091   8.545   2.111 -2.0009  0.3498 -0.5250
  444MOL0     H58582  -0.099   8.696   2.373  3.7241  1.8416 -3.2402
  444MOL0     H58583  -0.056   8.530   2.355 -0.0403  1.8675  3.1853
  444MOL0     H58584  -0.255   8.483   2.428  1.1543 -0.6811  0.5176
  444MOL0     H58585  -0.281   8.495   2.248  0.1924 -1.1661  0.4378
  444MOL0     H58586  -0.348   8.718   2.456  1.3591 -0.1459 -0.0821
  444MOL0     H58587  -0.401   8.713   2.283 -3.0639  0.6383  0.0531
  444MOL0     H58588  -0.529   8.488   2.340 -2.6576  0.1963 -1.0345
  444MOL0     H58589  -0.588   8.640   2.379 -0.0448  1.4142  0.3745
  444MOL0     H58590   0.552   8.781   2.158  0.2080  1.7052  1.5602
  444MOL0     H58591   0.761   8.847   2.050  1.1693  2.6298  0.0260
  444MOL0     H58592   1.024   9.076   1.843  0.9734 -1.4712  0.8191
  444MOL0     H58593   1.280   9.078   1.791  3.0885 -1.8379 -3.1655
  444MOL0     H58594   2.666  10.114   1.372 -1.8977 -0.6284 -0.8574
  444MOL0     H58595   2.880  10.240   1.436  3.0385 -0.0576  0.0132
  444MOL0     H58596   3.084  10.701   1.440  0.8097  0.8156  1.3804
  444MOL0     H58597   3.272  10.832   1.489  0.7066  0.0740  1.6054
  444MOL0     H58598   3.499  10.830   1.630  0.3521 -3.0331  0.2227
  444MOL0     H58599   3.465  10.945   1.493  0.8722 -1.2500 -0.4049
  444MOL0     H58600   3.723  10.945   1.453  1.9035 -1.1269  0.7199
  444MOL0     H58601   3.670  11.014   1.606 -1.1667  0.4683 -0.1110
  444MOL0     H58602   3.779  10.744   1.540 -0.9103  0.5114 -0.0537
  444MOL0     H58603   3.737  10.775   1.709 -0.6538  0.9964 -0.2549
  444MOL0     H58604   3.936  10.933   1.549 -2.6782 -0.5750 -0.7908
  444MOL0     H58605   3.890  10.960   1.721  1.1503  0.5527  0.0747
  444MOL0     H58606   4.139  10.605   1.707  0.0393 -0.7911  0.5988
  444MOL0     H58607   3.529  10.523   1.323 -0.1378  1.2767  0.8224
  444MOL0     H58608   3.336  10.402   1.231  0.2749 -0.2012  1.0610
  445MOL0     O58609   1.920  10.702   8.645 -0.3011  0.0998  0.2405
  445MOL0     C58610   1.837  10.773   8.592 -0.9903  0.6081  0.5856
  445MOL0     O58611   1.861  10.899   8.524 -0.1607 -0.0535 -0.8468
  445MOL0     C58612   1.991  10.949   8.535  0.4375  0.1884 -0.6705
  445MOL0     C58613   2.039  10.997   8.413 -1.1045 -0.3818 -0.7605
  445MOL0     C58614   2.164  11.066   8.414  1.1271 -0.2057  0.1395
  445MOL0     C58615   2.241  11.068   8.521  0.0571  0.1331  1.0331
  445MOL0     O58616   2.358  11.141   8.517  0.0303 -0.1996 -0.1110
  445MOL0     C58617   2.473  11.075   8.470  0.3086  0.8528 -0.1377
  445MOL0     C58618   2.594  11.157   8.503  0.1137 -0.1854  0.7153
  445MOL0     C58619   2.692  11.067   8.568 -0.3713 -0.0109  0.3198
  445MOL0     C58620   2.842  11.129   8.570 -0.4688 -0.1286  0.2177
  445MOL0     C58621   2.921  11.053   8.677  0.4079  0.0327 -0.4715
  445MOL0     C58622   3.057  11.129   8.693 -0.6551  0.3128 -0.3744
  445MOL0     C58623   3.165  11.052   8.778  1.1467  0.0649 -0.4511
  445MOL0     C58624   3.291  11.134   8.826  0.4068  0.6248  0.4739
  445MOL0     N58625   3.264  11.219   8.935  0.6756  0.2217  0.4654
  445MOL0     C58626   3.213  11.352   8.927 -0.1318 -0.3433 -0.5383
  445MOL0     C58627   3.208  11.372   9.060 -0.5941 -0.0403  0.2727
  445MOL0     C58628   3.148  11.497   9.113  0.2571  0.1128  0.0274
  445MOL0     C58629   3.004  11.501   9.078 -0.1466 -0.6130 -0.4862
  445MOL0     C58630   2.953  11.639   9.116 -0.3667  0.0478  0.2334
  445MOL0     C58631   2.821  11.672   9.049  0.0080 -0.1440 -0.9149
  445MOL0     O58632   2.817  11.661   8.906 -0.2234  0.7920  0.2944
  445MOL0     C58633   2.708  11.628   8.842 -0.4027  0.2935 -0.3730
  445MOL0     C58634   2.732  11.598   8.707  0.3495 -0.2200  0.5779
  445MOL0     C58635   2.630  11.553   8.614  1.1796 -0.0691 -0.7446
  445MOL0     C58636   2.493  11.536   8.667  0.4347 -0.8625 -0.1553
  445MOL0     C58637   2.382  11.507   8.574  0.1265  0.1939 -0.4149
  445MOL0     O58638   2.254  11.544   8.613  0.3267  0.8796 -0.0698
  445MOL0     C58639   2.166  11.537   8.508  0.0788  0.2063  0.1671
  445MOL0     C58640   2.106  11.658   8.457  0.1428  0.2319  0.2285
  445MOL0     C58641   2.021  11.646   8.346  0.1628 -0.2222 -1.0885
  445MOL0     C58642   1.987  11.523   8.286 -0.5615 -0.1793 -0.1856
  445MOL0     O58643   1.894  11.505   8.184  0.3986 -0.8063 -0.0193
  445MOL0     C58644   1.837  11.627   8.125 -0.1635  1.5366  0.1383
  445MOL0     C58645   1.699  11.628   8.188 -0.0789  0.1486  0.1201
  445MOL0     C58646   1.628  11.763   8.144  0.2760  0.0358 -1.1989
  445MOL0     C58647   1.561  11.740   8.009 -0.0160  0.9104 -0.6069
  445MOL0     C58648   1.489  11.853   7.956  0.0478 -0.3145 -0.0656
  445MOL0     C58649   1.568  11.979   7.927 -0.2514  0.0157 -0.6119
  445MOL0     C58650   1.481  12.069   7.846 -0.2758 -0.3187  0.4606
  445MOL0     C58651   1.539  12.209   7.820  0.1428 -0.6121  0.2087
  445MOL0    Cl58652   1.640  12.278   7.946  0.1370  0.0752 -0.1902
  445MOL0     C58653   2.038  11.404   8.353  0.5377  0.9655  0.0309
  445MOL0     C58654   2.128  11.416   8.465 -0.0350  0.2520 -0.3395
  445MOL0     O58655   2.423  11.457   8.465 -0.0871  0.0048  0.1306
  445MOL0     C58656   2.469  11.573   8.800 -0.0477  0.4815 -0.2817
  445MOL0     C58657   2.574  11.626   8.883  0.4259 -0.4247  0.7433
  445MOL0     N58658   3.236  11.262   9.136 -0.4054  0.2021 -0.1954
  445MOL0     N58659   3.269  11.169   9.061  0.0811 -0.5468  0.1059
  445MOL0     C58660   2.203  11.015   8.647 -0.4005  0.4431 -0.1965
  445MOL0     C58661   2.077  10.951   8.645  0.6077  0.2358 -0.0322
  445MOL0     C58662   1.694  10.725   8.582  1.1238  0.6904  0.0066
  445MOL0     C58663   1.612  10.775   8.482  0.2288 -0.2210  0.0772
  445MOL0     C58664   1.481  10.730   8.470 -0.3929 -0.2299  0.4495
  445MOL0     C58665   1.442  10.623   8.553  0.7763  0.2186  0.1225
  445MOL0     O58666   1.316  10.566   8.537  0.8632  0.5198 -0.2429
  445MOL0     C58667   1.226  10.588   8.432 -0.9467 -0.2748 -0.9692
  445MOL0     C58668   1.092  10.525   8.454  0.1373  0.1129 -0.2031
  445MOL0     C58669   1.002  10.591   8.560  0.6562 -0.2398  1.0290
  445MOL0     C58670   0.859  10.524   8.563 -0.0788  0.6011 -0.4308
  445MOL0     C58671   0.768  10.603   8.643 -0.4527  0.1664  0.0688
  445MOL0     C58672   0.627  10.702   8.730  0.5088  0.2417 -0.3909
  445MOL0     C58673   1.518  10.568   8.662  0.2070  0.0490  0.7838
  445MOL0     C58674   1.648  10.617   8.671  0.3193 -0.2332  1.0250
  445MOL0     H58675   1.964  11.011   8.336  0.1331 -0.7293 -2.0627
  445MOL0     H58676   2.200  11.115   8.325 -1.6454  0.3622 -0.7589
  445MOL0     H58677   2.466  11.049   8.364  0.4324 -1.6952  0.4003
  445MOL0     H58678   2.474  10.983   8.530  0.4945 -1.6052 -3.6417
  445MOL0     H58679   2.561  11.237   8.571 -1.1792 -1.8093  2.0900
  445MOL0     H58680   2.631  11.198   8.409 -0.0880 -1.4320  0.0750
  445MOL0     H58681   2.704  10.974   8.511  2.0867  1.0740 -1.1261
  445MOL0     H58682   2.658  11.038   8.668 -0.7478 -3.7740 -0.7402
  445MOL0     H58683   2.901  11.127   8.478  0.5995  2.9180  0.7266
  445MOL0     H58684   2.823  11.233   8.598  3.2746  1.6225 -2.8299
  445MOL0     H58685   2.949  10.950   8.651  2.9969  0.9730 -1.7438
  445MOL0     H58686   2.862  11.054   8.769 -3.3650 -0.9243 -2.6410
  445MOL0     H58687   3.049  11.222   8.750 -1.7446  0.0769 -0.1345
  445MOL0     H58688   3.094  11.159   8.594 -1.1316 -0.4668 -0.8012
  445MOL0     H58689   3.109  11.004   8.858  1.9735  1.8415  1.2919
  445MOL0     H58690   3.198  10.974   8.709  0.6033  1.0677 -1.8940
  445MOL0     H58691   3.341  11.184   8.743 -0.2433  0.0018 -0.3141
  445MOL0     H58692   3.376  11.073   8.859  0.0725 -1.3261 -2.0287
  445MOL0     H58693   3.187  11.415   8.843 -0.4871  0.9106  0.4878
  445MOL0     H58694   3.202  11.583   9.071 -0.0461  1.9629  3.1350
  445MOL0     H58695   3.168  11.507   9.220 -0.8329 -0.9533  0.3580
  445MOL0     H58696   2.946  11.422   9.127  1.2926 -0.9426  0.7726
  445MOL0     H58697   2.994  11.488   8.970  1.1172 -1.4922 -0.5158
  445MOL0     H58698   2.933  11.640   9.224 -0.8159  2.4029  0.1830
  445MOL0     H58699   3.030  11.712   9.089  0.5977 -0.8893  0.3748
  445MOL0     H58700   2.787  11.775   9.062  1.1518  0.5400 -2.9229
  445MOL0     H58701   2.752  11.591   9.074  1.3185 -0.6680  1.1838
  445MOL0     H58702   2.828  11.615   8.660  0.6609  1.8947  1.8491
  445MOL0     H58703   2.671  11.538   8.514  1.8936 -1.6977 -0.2436
  445MOL0     H58704   2.129  11.750   8.510  2.1463  0.7482 -1.4180
  445MOL0     H58705   1.970  11.738   8.319  1.4868  0.6866 -0.6134
  445MOL0     H58706   1.832  11.617   8.016  1.2837  0.0530  0.1578
  445MOL0     H58707   1.895  11.717   8.147 -0.3032  0.9265  3.4229
  445MOL0     H58708   1.708  11.616   8.296  3.7739 -2.0062 -0.2659
  445MOL0     H58709   1.655  11.535   8.153  3.0189 -2.0163  1.4981
  445MOL0     H58710   1.699  11.847   8.143 -0.3252  0.6156  0.5880
  445MOL0     H58711   1.561  11.790   8.226  3.4987  0.8639  1.4034
  445MOL0     H58712   1.634  11.711   7.933 -1.3172 -0.2547 -1.4679
  445MOL0     H58713   1.489  11.657   8.008  1.8736 -0.8185 -1.0310
  445MOL0     H58714   1.408  11.878   8.025 -0.3867 -0.1195 -0.6285
  445MOL0     H58715   1.442  11.814   7.865  1.6770 -1.1725 -0.5792
  445MOL0     H58716   1.658  11.950   7.873 -0.1695 -1.4114  0.2492
  445MOL0     H58717   1.591  12.029   8.022 -0.2652  1.4704 -1.3348
  445MOL0     H58718   1.454  12.018   7.753  1.1573  0.5509 -0.4706
  445MOL0     H58719   1.385  12.087   7.896 -0.8404 -0.7990 -0.4285
  445MOL0     H58720   1.460  12.282   7.801  1.9982  1.2587 -0.7154
  445MOL0     H58721   1.611  12.203   7.738  0.5885 -2.3347  0.6898
  445MOL0     H58722   2.010  11.305   8.319  2.2503  0.8504 -1.1546
  445MOL0     H58723   2.197  11.336   8.491  1.9569  1.7784 -0.6678
  445MOL0     H58724   2.372  11.574   8.849  0.1301  3.3594  0.1881
  445MOL0     H58725   2.528  11.660   8.975 -0.9576  3.1497 -1.0655
  445MOL0     H58726   2.275  11.000   8.726 -1.5477  1.3284  1.0622
  445MOL0     H58727   2.038  10.915   8.739 -1.0142 -0.1297 -0.8059
  445MOL0     H58728   1.649  10.850   8.412 -1.0304  0.4498  0.1022
  445MOL0     H58729   1.414  10.755   8.389 -1.5993  1.6291  1.9394
  445MOL0     H58730   1.273  10.543   8.345  1.2449  2.0667 -1.1269
  445MOL0     H58731   1.215  10.694   8.405 -1.7821 -0.2642 -0.6203
  445MOL0     H58732   1.039  10.533   8.359 -1.0583 -2.5058  0.1531
  445MOL0     H58733   1.111  10.421   8.482  2.1882  1.0170  2.2840
  445MOL0     H58734   0.990  10.696   8.532 -0.5759 -0.4756  0.6145
  445MOL0     H58735   1.047  10.590   8.660 -2.0271  2.3355  2.4261
  445MOL0     H58736   0.831  10.499   8.460  0.4482  2.5304 -1.0877
  445MOL0     H58737   0.870  10.423   8.602  0.1021  0.7523 -0.0924
  445MOL0     H58738   0.556  10.775   8.763  0.4479 -0.2055  0.5018
  445MOL0     H58739   1.491  10.493   8.736  0.5672 -0.5481  0.3159
  445MOL0     H58740   1.711  10.580   8.751  2.9862 -0.4738 -1.0417
  446MOL0     O58741   4.073  10.626   2.718 -0.8639  0.6408 -0.2184
  446MOL0     C58742   3.979  10.701   2.723  0.0090  0.0607  0.9737
  446MOL0     O58743   3.982  10.823   2.784  0.1677 -0.1951 -0.9009
  446MOL0     C58744   4.101  10.852   2.846  0.4867  2.2207  0.7705
  446MOL0     C58745   4.164  10.960   2.795  1.0491 -0.2335 -0.2447
  446MOL0     C58746   4.279  11.015   2.853  0.0986  0.0616  0.3893
  446MOL0     C58747   4.338  10.957   2.960 -0.7066  0.3920  0.2460
  446MOL0     O58748   4.433  11.035   3.017  0.1624 -0.4136  0.1627
  446MOL0     C58749   4.511  10.968   3.119 -0.1628  0.1093  0.0962
  446MOL0     C58750   4.636  11.039   3.144 -0.2522 -0.8782  0.4634
  446MOL0     C58751   4.739  11.030   3.021 -0.3869  0.6845  0.3261
  446MOL0     C58752   4.806  10.892   2.999  0.7272  0.1924  0.5926
  446MOL0     C58753   4.882  10.887   2.870 -1.2114 -0.4009 -0.3858
  446MOL0     C58754   4.929  10.747   2.849 -1.0783  0.0118  0.3615
  446MOL0     C58755   4.995  10.731   2.709  0.1251 -0.7074 -0.7273
  446MOL0     C58756   4.899  10.715   2.587  0.0522 -0.1794 -0.4238
  446MOL0     N58757   4.815  10.592   2.572 -0.4644 -0.1794 -0.1427
  446MOL0     C58758   4.829  10.472   2.637 -0.9288  0.1481 -1.5009
  446MOL0     C58759   4.733  10.392   2.580 -1.0005  0.2958  0.6048
  446MOL0     C58760   4.689  10.252   2.609 -0.2775 -0.0425 -0.4723
  446MOL0     C58761   4.538  10.237   2.611  0.1238  0.2340  0.7090
  446MOL0     C58762   4.484  10.108   2.533  0.4230 -0.8035 -0.5233
  446MOL0     C58763   4.357  10.050   2.604  0.0657 -0.3683 -0.0109
  446MOL0     O58764   4.298   9.958   2.514 -0.6951 -0.6312 -0.2647
  446MOL0     C58765   4.173   9.911   2.552  0.0801  0.2637 -0.6372
  446MOL0     C58766   4.094   9.867   2.452 -0.0440 -0.2846  0.1331
  446MOL0     C58767   3.969   9.808   2.470  1.1102  0.1487 -0.2225
  446MOL0     C58768   3.919   9.781   2.600  0.0654  0.9033 -1.0667
  446MOL0     C58769   3.797   9.720   2.627 -0.5186  0.9833 -0.6223
  446MOL0     O58770   3.744   9.724   2.757  0.6476 -0.1190  0.0813
  446MOL0     C58771   3.635   9.643   2.780  0.7411  0.2578 -0.3321
  446MOL0     C58772   3.504   9.678   2.741 -0.6298 -0.5379  0.0363
  446MOL0     C58773   3.400   9.588   2.753  0.8061  0.0624 -0.0562
  446MOL0     C58774   3.415   9.467   2.826 -0.0793  0.1159 -0.0379
  446MOL0     O58775   3.299   9.390   2.839 -0.7700 -0.0653 -0.3233
  446MOL0     C58776   3.310   9.278   2.923  0.1464  1.0881  0.0160
  446MOL0     C58777   3.167   9.216   2.923 -0.4318 -0.8799  0.1127
  446MOL0     C58778   3.131   9.159   2.792  0.1481  0.6500 -0.1592
  446MOL0     C58779   3.003   9.073   2.821 -0.0682 -0.1994 -0.2136
  446MOL0     C58780   2.938   9.037   2.688  0.2436 -0.0736  0.6872
  446MOL0     C58781   2.815   8.951   2.707 -0.9550 -0.7896 -0.0477
  446MOL0     C58782   2.718   8.964   2.584 -0.3566  0.5893 -0.1482
  446MOL0     C58783   2.604   8.870   2.596  0.4378 -0.1490  0.7352
  446MOL0    Cl58784   2.482   8.961   2.518  0.4931  0.1711 -0.1507
  446MOL0     C58785   3.545   9.436   2.876  0.0108 -0.2833  0.2396
  446MOL0     C58786   3.653   9.525   2.855  1.3606  0.1948 -0.4185
  446MOL0     O58787   3.771   9.638   2.539  0.2600  0.5654 -0.0838
  446MOL0     C58788   4.001   9.818   2.709 -0.3891  0.5167 -0.0026
  446MOL0     C58789   4.124   9.894   2.683 -0.5226  0.2316  0.2326
  446MOL0     N58790   4.691  10.457   2.472  0.7513  0.0317  0.9219
  446MOL0     N58791   4.726  10.581   2.471 -0.0864 -0.2190  0.1292
  446MOL0     C58792   4.279  10.855   3.021  0.5333  0.3261  0.8953
  446MOL0     C58793   4.160  10.803   2.969 -0.6537 -0.2509 -0.0333
  446MOL0     C58794   3.851  10.655   2.667  0.3893  0.5551  0.0087
  446MOL0     C58795   3.809  10.519   2.648  0.0341  0.1258 -0.1255
  446MOL0     C58796   3.683  10.477   2.597 -0.4513 -0.0614 -0.6001
  446MOL0     C58797   3.598  10.576   2.554 -0.8102  0.1948  0.4163
  446MOL0     O58798   3.477  10.534   2.488 -0.3252 -0.2039  0.1663
  446MOL0     C58799   3.430  10.610   2.375  0.2225  0.7460 -0.1709
  446MOL0     C58800   3.453  10.539   2.240 -0.1680 -0.4036  0.0458
  446MOL0     C58801   3.593  10.559   2.188 -0.8218 -0.2406 -0.4104
  446MOL0     C58802   3.608  10.540   2.037 -0.1939  0.1004  0.6763
  446MOL0     C58803   3.746  10.563   1.993 -0.7683 -0.3816  0.2607
  446MOL0     C58804   3.867  10.594   1.976  0.2977 -0.3930 -0.0781
  446MOL0     C58805   3.627  10.713   2.586  0.5365  0.2584 -0.8934
  446MOL0     C58806   3.745  10.744   2.649 -0.2678 -0.1112 -0.7842
  446MOL0     H58807   4.119  11.000   2.705  3.7437 -2.2787 -2.6669
  446MOL0     H58808   4.318  11.097   2.793 -3.0536  1.4172 -0.0204
  446MOL0     H58809   4.538  10.870   3.080  3.0047  1.9215 -2.8167
  446MOL0     H58810   4.453  10.954   3.210  1.8802  1.2800  1.6440
  446MOL0     H58811   4.675  11.007   3.241  0.1434  0.6020  0.8112
  446MOL0     H58812   4.622  11.145   3.166  2.5740 -0.2430 -0.4353
  446MOL0     H58813   4.823  11.094   3.052  0.6568  0.1149 -1.2015
  446MOL0     H58814   4.701  11.068   2.926  2.0915 -2.0181 -1.9551
  446MOL0     H58815   4.873  10.875   3.084  0.2419  0.5089  1.0424
  446MOL0     H58816   4.723  10.821   3.001 -0.1934  1.2540  0.8790
  446MOL0     H58817   4.968  10.955   2.876 -3.3396  2.9867 -3.8461
  446MOL0     H58818   4.825  10.935   2.790  0.9921 -1.5236 -2.7522
  446MOL0     H58819   4.849  10.673   2.866  1.2439 -2.3142  2.0374
  446MOL0     H58820   5.008  10.725   2.922  1.6620 -1.3566 -2.7614
  446MOL0     H58821   5.057  10.815   2.676  0.1885 -1.3119 -2.2613
  446MOL0     H58822   5.057  10.640   2.706  2.0643  0.5411 -0.2123
  446MOL0     H58823   4.953  10.727   2.493  0.3752  1.8570 -0.0356
  446MOL0     H58824   4.831  10.800   2.584  1.6727  1.1556 -2.2088
  446MOL0     H58825   4.892  10.459   2.724  1.4928 -1.6086 -3.3630
  446MOL0     H58826   4.737  10.209   2.698 -1.7951 -0.1325  0.3341
  446MOL0     H58827   4.725  10.196   2.523  1.8058  0.9064 -0.2736
  446MOL0     H58828   4.492  10.327   2.569  2.4006  1.1133 -0.0880
  446MOL0     H58829   4.508  10.227   2.716 -1.1450  0.7069  0.4093
  446MOL0     H58830   4.468  10.127   2.426  2.3880  1.4575 -0.5020
  446MOL0     H58831   4.557  10.028   2.541  0.8338 -0.2434  3.6973
  446MOL0     H58832   4.280  10.126   2.618  1.5086  1.1735 -0.1310
  446MOL0     H58833   4.391   9.995   2.692 -0.2911 -1.9149 -0.8020
  446MOL0     H58834   4.125   9.885   2.349 -3.0191  2.0397 -0.4933
  446MOL0     H58835   3.893   9.792   2.394  1.2386 -2.9312  0.1549
  446MOL0     H58836   3.495   9.776   2.696 -1.7847 -0.3423  0.6486
  446MOL0     H58837   3.309   9.608   2.697  0.8477  0.8356  0.1471
  446MOL0     H58838   3.341   9.291   3.027  0.3103 -2.1365  0.4634
  446MOL0     H58839   3.379   9.205   2.880 -2.6755 -1.2401 -0.8285
  446MOL0     H58840   3.088   9.282   2.959 -1.2294 -2.4630  1.3624
  446MOL0     H58841   3.166   9.132   2.993  2.1684 -1.7733 -0.7765
  446MOL0     H58842   3.216   9.100   2.756  0.3824 -0.6093  2.2632
  446MOL0     H58843   3.110   9.242   2.724 -1.2291  1.5009  1.2470
  446MOL0     H58844   3.046   8.988   2.875 -0.9762 -0.9345 -0.6208
  446MOL0     H58845   2.927   9.124   2.881 -0.8926 -0.4579 -1.0163
  446MOL0     H58846   3.019   8.987   2.634  0.9663  1.1720  0.5951
  446MOL0     H58847   2.918   9.125   2.627 -1.8926  0.2826  1.7944
  446MOL0     H58848   2.763   8.990   2.796 -2.8695 -0.5506 -1.2087
  446MOL0     H58849   2.837   8.847   2.732 -0.3509 -0.0432  2.9467
  446MOL0     H58850   2.673   9.064   2.584 -2.0808 -0.1375 -1.3588
  446MOL0     H58851   2.770   8.947   2.489  1.1327 -2.8172  1.1331
  446MOL0     H58852   2.579   8.829   2.694 -0.0207 -1.3350  0.1437
  446MOL0     H58853   2.627   8.787   2.528 -1.0252 -0.3393  0.4425
  446MOL0     H58854   3.553   9.339   2.923  0.5293 -0.3578  0.0117
  446MOL0     H58855   3.753   9.494   2.881  0.9505 -1.7149 -0.8994
  446MOL0     H58856   3.973   9.805   2.813  2.4293 -1.2087  0.6727
  446MOL0     H58857   4.177   9.940   2.766  1.4504  1.2717 -1.5023
  446MOL0     H58858   4.310  10.815   3.117  1.4277 -0.0712  0.4548
  446MOL0     H58859   4.095  10.745   3.034 -1.1916 -0.1803 -0.5131
  446MOL0     H58860   3.879  10.442   2.679 -1.1573 -0.7778  0.3986
  446MOL0     H58861   3.650  10.374   2.586 -0.9588  0.0100  0.1527
  446MOL0     H58862   3.474  10.710   2.383  0.5941  0.5231  0.6493
  446MOL0     H58863   3.323  10.624   2.393  0.0243 -1.1815  0.3463
  446MOL0     H58864   3.428  10.433   2.240 -3.2193  0.1898 -2.1689
  446MOL0     H58865   3.395  10.582   2.158  0.6372 -3.5161 -2.3323
  446MOL0     H58866   3.652  10.493   2.252 -0.6722  1.7636  1.6686
  446MOL0     H58867   3.620  10.662   2.213 -2.1547  0.1011 -0.2918
  446MOL0     H58868   3.588  10.435   2.017 -2.3456  0.7831 -1.1954
  446MOL0     H58869   3.532  10.598   1.984 -0.6796 -3.2246 -2.6661
  446MOL0     H58870   3.971  10.617   1.963  0.0976 -0.0772 -1.3159
  446MOL0     H58871   3.551  10.790   2.584 -0.7452 -0.8889  0.8375
  446MOL0     H58872   3.764  10.848   2.675  0.9667 -0.1173 -1.5937
  447MOL0     O58873   4.388  10.362   5.138 -0.0119 -0.4818  0.8681
  447MOL0     C58874   4.425  10.380   5.025 -0.0700 -0.2377 -0.1975
  447MOL0     O58875   4.407  10.293   4.929 -0.4735 -0.7761 -0.4912
  447MOL0     C58876   4.329  10.187   4.942 -0.1896  0.3562  0.5192
  447MOL0     C58877   4.364  10.088   5.031 -0.0959  0.7212  0.1144
  447MOL0     C58878   4.276   9.980   5.047  0.9026  0.4714  0.0664
  447MOL0     C58879   4.154   9.976   4.984  0.3901 -0.7687  0.3141
  447MOL0     O58880   4.088   9.861   5.004 -0.0745 -0.3054  0.0292
  447MOL0     C58881   3.942   9.878   5.017  0.2464  0.5407 -0.1043
  447MOL0     C58882   3.899   9.789   5.137  0.3773  1.2555  0.2336
  447MOL0     C58883   3.745   9.748   5.133  0.8892 -0.7865 -0.1274
  447MOL0     C58884   3.717   9.653   5.252 -0.8723  0.4639 -0.5991
  447MOL0     C58885   3.567   9.672   5.284  0.8301 -0.4878 -0.1157
  447MOL0     C58886   3.505   9.581   5.382 -0.4975  0.8399 -0.0336
  447MOL0     C58887   3.373   9.518   5.337  0.0408  1.1080 -0.4819
  447MOL0     C58888   3.260   9.587   5.407  0.1638  0.9621 -0.7267
  447MOL0     N58889   3.121   9.536   5.364 -0.9984  0.2219  0.3045
  447MOL0     C58890   3.053   9.598   5.258 -0.3579  0.2713  0.3861
  447MOL0     C58891   2.948   9.522   5.247 -0.2569 -0.6301  0.8661
  447MOL0     C58892   2.850   9.558   5.140  0.3497  0.7452 -0.8984
  447MOL0     C58893   2.704   9.549   5.198 -0.1894  0.6982 -0.1959
  447MOL0     C58894   2.657   9.404   5.209 -0.2024  0.5025 -0.3068
  447MOL0     C58895   2.509   9.383   5.235 -0.0770  0.4446 -0.2669
  447MOL0     O58896   2.484   9.240   5.230  0.0700 -0.4178  0.6521
  447MOL0     C58897   2.351   9.201   5.253  0.1701 -0.6104  0.8440
  447MOL0     C58898   2.328   9.116   5.354 -0.4086  0.5135 -1.0565
  447MOL0     C58899   2.206   9.064   5.380  0.4837 -0.7665 -0.0548
  447MOL0     C58900   2.094   9.103   5.303  0.2818  0.6671  0.4067
  447MOL0     C58901   1.966   9.042   5.330 -0.3568 -0.1997 -0.1012
  447MOL0     O58902   1.875   9.039   5.230 -0.3496 -0.0532  0.1924
  447MOL0     C58903   1.743   9.018   5.268 -0.4246 -0.1703 -1.0485
  447MOL0     C58904   1.690   8.927   5.362 -1.5859  0.0434  1.1657
  447MOL0     C58905   1.552   8.912   5.368 -0.4452  1.0023 -0.4802
  447MOL0     C58906   1.465   8.987   5.292 -0.8977  0.5740  0.1519
  447MOL0     O58907   1.330   8.957   5.302  0.9063 -0.3740 -0.0637
  447MOL0     C58908   1.238   9.049   5.238 -0.7658  0.1933 -0.5070
  447MOL0     C58909   1.095   9.004   5.248  0.0909 -1.8256 -0.2275
  447MOL0     C58910   1.010   9.106   5.170  1.3378  0.0892 -0.4544
  447MOL0     C58911   0.852   9.071   5.177 -1.2845 -0.3971  0.3886
  447MOL0     C58912   0.788   9.178   5.092 -0.1345  0.0555  0.5933
  447MOL0     C58913   0.643   9.137   5.071 -0.6958 -0.2959  0.2281
  447MOL0     C58914   0.576   9.242   4.988  0.3652 -0.2877 -0.0159
  447MOL0     C58915   0.609   9.229   4.843  1.2684 -0.1909  0.4802
  447MOL0    Cl58916   0.575   9.066   4.787  0.1651 -0.0882  0.1262
  447MOL0     C58917   1.518   9.081   5.209 -0.3874 -0.0833  0.1894
  447MOL0     C58918   1.655   9.099   5.195 -0.3701  0.3752  0.2090
  447MOL0     O58919   1.944   9.025   5.450 -0.5632 -0.2818  0.1183
  447MOL0     C58920   2.124   9.180   5.190 -0.0284 -0.0881 -0.2759
  447MOL0     C58921   2.250   9.236   5.167 -0.1122 -0.0400  1.2285
  447MOL0     N58922   2.943   9.419   5.338 -0.9381 -0.2463  0.6247
  447MOL0     N58923   3.057   9.419   5.403 -0.4758  0.8200  0.9282
  447MOL0     C58924   4.123  10.075   4.886 -0.2338  0.4891 -0.4466
  447MOL0     C58925   4.216  10.186   4.873  0.2397  0.6662  0.2735
  447MOL0     C58926   4.482  10.510   4.978 -0.6840 -0.1130 -0.0742
  447MOL0     C58927   4.478  10.624   5.063 -0.8473  0.2355  0.1967
  447MOL0     C58928   4.530  10.742   5.017 -0.0874 -0.0788  0.8441
  447MOL0     C58929   4.584  10.760   4.889  1.2408 -0.3563  0.3036
  447MOL0     O58930   4.618  10.889   4.848 -0.1631  0.2489 -0.0861
  447MOL0     C58931   4.626  11.002   4.938  0.3980  0.1805  0.1517
  447MOL0     C58932   4.732  10.984   5.053 -0.6489  0.3476 -0.4415
  447MOL0     C58933   4.740  11.110   5.133 -0.6619 -0.0852 -0.6272
  447MOL0     C58934   4.618  11.149   5.206 -0.5754  0.2441 -0.5724
  447MOL0     C58935   4.581  11.055   5.307  0.8176 -0.9377  0.3831
  447MOL0     C58936   4.524  10.965   5.372  0.1981 -0.0398  0.5379
  447MOL0     C58937   4.590  10.645   4.806  0.8010  0.6939  0.3033
  447MOL0     C58938   4.539  10.523   4.847  0.2499  0.0777  0.1290
  447MOL0     H58939   4.452  10.093   5.093  1.2716 -2.6887 -1.2876
  447MOL0     H58940   4.299   9.905   5.121 -2.3353 -0.8378 -0.0808
  447MOL0     H58941   3.900   9.842   4.923  2.5137 -1.9342 -0.3246
  447MOL0     H58942   3.911   9.983   5.021  1.6772  0.9790  0.0474
  447MOL0     H58943   3.918   9.842   5.230 -0.4469  2.6098 -0.3377
  447MOL0     H58944   3.962   9.700   5.132 -1.5116 -0.0704 -1.7663
  447MOL0     H58945   3.701   9.699   5.046  1.8934 -0.4479 -0.8525
  447MOL0     H58946   3.681   9.836   5.138 -3.1903 -3.5052  0.5166
  447MOL0     H58947   3.736   9.553   5.213 -0.0004 -0.4623  2.0147
  447MOL0     H58948   3.789   9.667   5.332 -1.2179 -0.3131 -0.1425
  447MOL0     H58949   3.512   9.677   5.189 -0.3222 -1.4112  0.4727
  447MOL0     H58950   3.551   9.772   5.325  0.7989 -0.6970  0.3837
  447MOL0     H58951   3.493   9.645   5.470  2.2562  0.4082  0.7733
  447MOL0     H58952   3.585   9.512   5.414  0.8863  2.8724  1.1200
  447MOL0     H58953   3.362   9.504   5.229 -0.7700 -1.3263 -0.1423
  447MOL0     H58954   3.378   9.421   5.387 -0.4017  1.3397  0.0199
  447MOL0     H58955   3.255   9.696   5.395  4.2379  1.0589 -3.4736
  447MOL0     H58956   3.265   9.557   5.512 -0.7803  0.9431 -0.6753
  447MOL0     H58957   3.069   9.686   5.197  0.9703 -0.5421 -0.4956
  447MOL0     H58958   2.855   9.487   5.058 -1.5733 -0.1363 -0.3019
  447MOL0     H58959   2.863   9.663   5.112 -0.9147  0.5311 -2.3906
  447MOL0     H58960   2.646   9.623   5.143  0.0766  0.1583 -1.2384
  447MOL0     H58961   2.707   9.594   5.298 -0.0836 -0.2139  0.2293
  447MOL0     H58962   2.673   9.359   5.110 -0.1815  0.9738 -0.5217
  447MOL0     H58963   2.722   9.348   5.276  1.6316 -0.4976 -2.7503
  447MOL0     H58964   2.438   9.421   5.161 -5.6108 -4.6578  1.6670
  447MOL0     H58965   2.492   9.427   5.334  1.0474 -4.4145  2.4236
  447MOL0     H58966   2.408   9.101   5.425 -2.1698  1.8840  1.3497
  447MOL0     H58967   2.211   9.007   5.473 -2.3578  1.5325  1.6763
  447MOL0     H58968   1.750   8.853   5.413 -1.4744 -0.5421  0.2122
  447MOL0     H58969   1.492   8.834   5.413  0.3467  0.3602 -0.5187
  447MOL0     H58970   1.277   9.062   5.137 -0.2182 -1.1398 -0.4849
  447MOL0     H58971   1.249   9.149   5.281 -1.7359  0.2102 -0.2699
  447MOL0     H58972   1.061   8.999   5.352 -0.6128 -1.9762 -0.4588
  447MOL0     H58973   1.071   8.904   5.210  0.6109 -4.1770  4.7425
  447MOL0     H58974   1.034   9.098   5.063 -0.5537  2.3596 -1.1377
  447MOL0     H58975   1.025   9.209   5.204 -0.7412  1.4121 -3.1134
  447MOL0     H58976   0.826   8.974   5.133 -1.5613 -0.7688  1.3592
  447MOL0     H58977   0.809   9.068   5.277  1.4248  2.7036  1.8295
  447MOL0     H58978   0.833   9.164   4.993 -0.0527 -3.4203  0.9753
  447MOL0     H58979   0.813   9.282   5.111 -0.1893  0.7747 -2.7550
  447MOL0     H58980   0.593   9.107   5.164 -1.4747 -2.9898 -0.9737
  447MOL0     H58981   0.635   9.039   5.023 -0.1297 -0.4995  0.5380
  447MOL0     H58982   0.468   9.231   5.005  0.1920  0.2442 -0.7221
  447MOL0     H58983   0.591   9.344   5.025 -0.5559 -0.7460  1.7287
  447MOL0     H58984   0.712   9.264   4.838  1.1702 -0.0741 -1.6082
  447MOL0     H58985   0.555   9.300   4.780  3.3297  1.4278  0.4567
  447MOL0     H58986   1.447   9.149   5.163 -0.8988 -1.3394 -0.9502
  447MOL0     H58987   1.688   9.183   5.136 -2.0723 -0.5608 -2.2595
  447MOL0     H58988   2.039   9.197   5.124  0.9301 -3.3047 -2.5980
  447MOL0     H58989   2.263   9.316   5.094 -2.1142  0.6490  1.5607
  447MOL0     H58990   4.027  10.081   4.835 -2.6144  0.3713  3.6259
  447MOL0     H58991   4.184  10.264   4.804 -2.3626 -1.5778 -1.2762
  447MOL0     H58992   4.435  10.622   5.162  1.5930  1.6482  1.3902
  447MOL0     H58993   4.517  10.830   5.079  1.8538  1.4387 -0.7815
  447MOL0     H58994   4.529  11.040   4.971 -0.0765  1.2055 -2.2561
  447MOL0     H58995   4.666  11.082   4.875  1.7702 -0.7685 -0.2263
  447MOL0     H58996   4.707  10.905   5.124  0.2859  1.0546  0.7077
  447MOL0     H58997   4.823  10.954   4.999 -1.9547 -0.6355 -2.2140
  447MOL0     H58998   4.751  11.193   5.063 -4.1338  2.1712  1.2025
  447MOL0     H58999   4.828  11.106   5.197  0.5051 -2.4563 -2.2034
  447MOL0     H59000   4.637  11.246   5.253 -1.5438 -0.5124  1.4679
  447MOL0     H59001   4.540  11.165   5.131  0.7306  2.0394 -1.6390
  447MOL0     H59002   4.476  10.896   5.438 -0.5502  0.0135  0.0537
  447MOL0     H59003   4.644  10.643   4.712  0.4212  2.7534 -0.0147
  447MOL0     H59004   4.541  10.435   4.783  1.5851  0.0286  0.2195
  448MOL0     O59005   3.457   9.906   8.967  0.0536  1.1014 -0.3710
  448MOL0     C59006   3.490   9.881   8.850  1.0327 -0.4647 -0.4918
  448MOL0     O59007   3.414   9.810   8.763  0.0867 -0.0913  0.2623
  448MOL0     C59008   3.289   9.774   8.790 -0.3002 -0.2276 -0.0863
  448MOL0     C59009   3.241   9.653   8.751 -0.4366 -0.2059  0.1013
  448MOL0     C59010   3.104   9.619   8.771 -0.5083  0.5910 -0.8478
  448MOL0     C59011   3.013   9.710   8.826 -0.5489  0.5837 -0.6116
  448MOL0     O59012   2.885   9.679   8.854 -0.5158  0.6811 -0.5313
  448MOL0     C59013   2.799   9.630   8.744 -0.4552  0.1141 -0.6919
  448MOL0     C59014   2.714   9.745   8.690  0.0647 -0.2620  0.0002
  448MOL0     C59015   2.628   9.810   8.802  0.2372 -0.1571 -0.1618
  448MOL0     C59016   2.583   9.953   8.765 -0.2079  0.2491 -0.0096
  448MOL0     C59017   2.449   9.990   8.831  0.3280  0.2444  0.0603
  448MOL0     C59018   2.320   9.947   8.761 -0.6298  0.0446  0.4773
  448MOL0     C59019   2.205   9.952   8.856 -0.7327  0.2248  0.0051
  448MOL0     C59020   2.205   9.851   8.965  0.0329  0.4685 -0.5957
  448MOL0     N59021   2.076   9.850   9.030 -0.0348 -0.8668  0.9767
  448MOL0     C59022   1.983   9.753   8.994  0.3458 -0.4459 -0.2729
  448MOL0     C59023   1.877   9.790   9.068 -0.3211  1.0276 -0.1852
  448MOL0     C59024   1.746   9.711   9.061 -1.4602  0.2383  0.3142
  448MOL0     C59025   1.749   9.597   9.173  0.5142  0.0904  1.0366
  448MOL0     C59026   1.685   9.652   9.301 -0.5667  0.4809 -0.2658
  448MOL0     C59027   1.690   9.535   9.412  0.8390 -0.3230  0.1840
  448MOL0     O59028   1.585   9.563   9.508 -0.1506  0.4205  0.3319
  448MOL0     C59029   1.616   9.635   9.621  0.0407  1.0403 -0.8857
  448MOL0     C59030   1.538   9.621   9.736  1.3821  0.4880  0.2052
  448MOL0     C59031   1.569   9.678   9.858  0.7809 -0.0744 -0.3922
  448MOL0     C59032   1.688   9.755   9.873  0.4126  0.7980  0.4105
  448MOL0     C59033   1.715   9.829  10.003 -0.2272  0.4397 -0.3703
  448MOL0     O59034   1.655   9.789  10.108  0.2829  0.2988  0.8030
  448MOL0     C59035   1.648   9.856  10.233 -0.5756  1.2640 -0.7438
  448MOL0     C59036   1.659   9.994  10.255  0.5594  0.4147 -0.5962
  448MOL0     C59037   1.647  10.059  10.380 -0.1915  0.6158 -0.3346
  448MOL0     C59038   1.637   9.978  10.497  0.2563 -0.4066 -0.3669
  448MOL0     O59039   1.635  10.032  10.622  0.0245 -0.5259  0.2573
  448MOL0     C59040   1.727  10.134  10.649  0.3602  0.1323  0.7761
  448MOL0     C59041   1.764  10.128  10.794  1.0927 -0.6072  0.5273
  448MOL0     C59042   1.898  10.204  10.797 -0.3850 -0.6291  0.7026
  448MOL0     C59043   1.888  10.354  10.760  0.4116 -0.3665 -0.4359
  448MOL0     C59044   2.017  10.441  10.774  0.9188 -0.1431  0.3319
  448MOL0     C59045   2.088  10.409  10.904 -0.6566  0.9245  0.1063
  448MOL0     C59046   2.225  10.473  10.924  0.3197 -0.5817  0.8038
  448MOL0     C59047   2.351  10.399  10.870  0.1731 -0.1574  0.1807
  448MOL0    Cl59048   2.492  10.498  10.910  0.0622 -0.6555 -0.2339
  448MOL0     C59049   1.625   9.836  10.485 -0.4158  0.3855  0.3259
  448MOL0     C59050   1.639   9.778  10.357  0.7045  0.1731  0.7019
  448MOL0     O59051   1.798   9.919  10.002  0.3056 -0.0669 -0.3162
  448MOL0     C59052   1.759   9.775   9.756  0.2240  0.6203  0.5164
  448MOL0     C59053   1.727   9.711   9.636  0.8808  0.2340  0.5317
  448MOL0     N59054   1.892   9.913   9.123 -0.0319  0.8220 -0.1303
  448MOL0     N59055   2.015   9.941   9.112  0.5965 -0.3132  0.1815
  448MOL0     C59056   3.058   9.827   8.867  0.4234  0.1560  0.4966
  448MOL0     C59057   3.189   9.866   8.842 -0.9951  0.1969  0.9443
  448MOL0     C59058   3.619   9.943   8.812 -0.1069  0.4830  0.0432
  448MOL0     C59059   3.698  10.040   8.888  0.2480  0.0752 -0.5167
  448MOL0     C59060   3.814  10.100   8.842  0.9373 -0.2545  0.0029
  448MOL0     C59061   3.843  10.089   8.704  0.3702  0.4819 -0.6750
  448MOL0     O59062   3.936  10.161   8.632 -0.3009  0.4365 -0.1313
  448MOL0     C59063   4.011  10.280   8.678 -0.2902  1.0006  0.3217
  448MOL0     C59064   3.931  10.399   8.699 -0.0157  0.7268  0.2633
  448MOL0     C59065   3.863  10.437   8.563 -0.1503  0.2136 -0.2338
  448MOL0     C59066   3.787  10.567   8.550 -0.2033 -0.6162 -0.2090
  448MOL0     C59067   3.674  10.574   8.455  0.1321  0.5523  0.3145
  448MOL0     C59068   3.580  10.599   8.387  0.2705  0.3149  0.0595
  448MOL0     C59069   3.770   9.988   8.630 -0.1307 -0.0582 -0.2790
  448MOL0     C59070   3.671   9.910   8.686 -1.1087 -0.0769  1.1389
  448MOL0     H59071   3.311   9.586   8.703  0.6390  0.8187  0.2053
  448MOL0     H59072   3.070   9.524   8.730 -2.2481  1.0116 -0.4576
  448MOL0     H59073   2.731   9.555   8.785 -3.1597  2.2442 -1.0250
  448MOL0     H59074   2.864   9.581   8.671  0.9295  1.8383 -0.6922
  448MOL0     H59075   2.660   9.718   8.598  0.5153  1.2836 -0.7445
  448MOL0     H59076   2.796   9.809   8.657 -0.2432 -1.3238 -3.2684
  448MOL0     H59077   2.686   9.814   8.894  0.6243  1.6149 -0.4577
  448MOL0     H59078   2.547   9.738   8.820  0.9173 -1.0328 -0.5179
  448MOL0     H59079   2.664  10.019   8.797  0.2282  2.3463 -4.6230
  448MOL0     H59080   2.561   9.956   8.658  0.2772  0.9951 -0.0961
  448MOL0     H59081   2.441  10.099   8.834 -0.4804  0.2211 -0.7332
  448MOL0     H59082   2.452   9.956   8.935 -0.9932 -0.3522 -0.0808
  448MOL0     H59083   2.341   9.848   8.720  3.0861 -0.1428  2.3201
  448MOL0     H59084   2.307  10.017   8.678  2.6446  0.0168 -0.1942
  448MOL0     H59085   2.203  10.055   8.894  2.6450  1.7980 -3.3209
  448MOL0     H59086   2.122   9.934   8.788 -1.2105 -0.7086  0.8207
  448MOL0     H59087   2.267   9.874   9.053 -1.1099  0.1310  0.3258
  448MOL0     H59088   2.238   9.758   8.919 -1.0304  0.2607 -0.9587
  448MOL0     H59089   1.995   9.667   8.930 -0.2722 -1.4452  0.9005
  448MOL0     H59090   1.729   9.669   8.962 -0.0184  1.3093 -0.4319
  448MOL0     H59091   1.666   9.783   9.081  0.6551  3.0388 -0.4554
  448MOL0     H59092   1.847   9.554   9.195 -1.5634 -4.0902  3.1940
  448MOL0     H59093   1.680   9.520   9.138  1.9921  0.1428 -2.3505
  448MOL0     H59094   1.749   9.734   9.335 -0.5826  0.4203 -0.0908
  448MOL0     H59095   1.583   9.690   9.290 -0.0674  1.4323 -1.8933
  448MOL0     H59096   1.791   9.537   9.454 -0.4347 -0.5609  3.5615
  448MOL0     H59097   1.677   9.438   9.362 -2.7141 -0.4820  1.1269
  448MOL0     H59098   1.448   9.561   9.731  3.1017 -2.1850 -0.5663
  448MOL0     H59099   1.511   9.645   9.944 -0.2228 -1.9551 -1.7204
  448MOL0     H59100   1.674  10.051  10.163  1.4416  0.1767 -0.6012
  448MOL0     H59101   1.656  10.167  10.387  1.0074  0.4353  2.2504
  448MOL0     H59102   1.689  10.233  10.625  1.6784  1.2848  3.0752
  448MOL0     H59103   1.816  10.114  10.589  0.8191  2.5133  0.5969
  448MOL0     H59104   1.786  10.026  10.825  0.3087 -0.8514  0.2986
  448MOL0     H59105   1.695  10.185  10.857 -1.3825  0.0205 -2.5000
  448MOL0     H59106   1.973  10.162  10.729  0.3250  0.1613  0.9730
  448MOL0     H59107   1.931  10.194  10.902  0.6179  1.6591  0.6598
  448MOL0     H59108   1.857  10.368  10.656  3.3153 -0.1548 -1.3589
  448MOL0     H59109   1.815  10.397  10.830  0.1276  0.2743 -1.1074
  448MOL0     H59110   2.004  10.547  10.750  1.2304 -0.1058  0.3258
  448MOL0     H59111   2.075  10.408  10.688 -0.4710  0.7486 -1.0060
  448MOL0     H59112   2.117  10.303  10.909  1.9998  1.5870  0.1827
  448MOL0     H59113   2.026  10.436  10.990  0.9878  0.3970  1.5337
  448MOL0     H59114   2.215  10.574  10.884 -1.0293 -0.7624  0.6661
  448MOL0     H59115   2.256  10.488  11.028  1.8901  0.4994  0.2299
  448MOL0     H59116   2.334  10.389  10.762 -1.8327 -0.4466  0.4784
  448MOL0     H59117   2.358  10.297  10.909 -1.3324  0.5403  2.4958
  448MOL0     H59118   1.622   9.771  10.572 -0.7458  1.4127  1.0996
  448MOL0     H59119   1.648   9.670  10.360 -1.4000 -0.0308  2.1385
  448MOL0     H59120   1.853   9.825   9.772 -0.9845  3.1255  0.2877
  448MOL0     H59121   1.794   9.714   9.551  0.2501 -0.6044 -0.0179
  448MOL0     H59122   2.976   9.889   8.903 -0.7281 -1.5760  1.0160
  448MOL0     H59123   3.222   9.967   8.864 -1.5312  0.3440  1.0992
  448MOL0     H59124   3.661  10.082   8.981  0.8846  1.9232 -1.0512
  448MOL0     H59125   3.867  10.168   8.908  1.6856  0.3057 -1.1444
  448MOL0     H59126   4.089  10.296   8.604 -1.1152  0.2108 -0.7473
  448MOL0     H59127   4.058  10.259   8.775 -2.4507 -1.5242  0.9309
  448MOL0     H59128   3.855  10.378   8.775 -0.6958 -2.0078 -1.0644
  448MOL0     H59129   3.990  10.483   8.737 -1.1814  0.6105  2.4862
  448MOL0     H59130   3.787  10.359   8.551  1.1333 -1.6707  2.7974
  448MOL0     H59131   3.922  10.421   8.473 -0.9185  0.0155 -0.7143
  448MOL0     H59132   3.763  10.604   8.651  2.0568  0.4220  0.0011
  448MOL0     H59133   3.860  10.642   8.519 -1.6655  0.2367 -1.7934
  448MOL0     H59134   3.495  10.621   8.327  0.9356 -3.0150 -2.3541
  448MOL0     H59135   3.798   9.975   8.526 -1.4502  1.8342 -0.9267
  448MOL0     H59136   3.607   9.845   8.628 -1.1691  0.3483  0.7229
  449MOL0     O59137   4.346  10.283   6.287  0.5352 -0.1303  0.0907
  449MOL0     C59138   4.399  10.395   6.276 -0.3564 -0.0976  0.6576
  449MOL0     O59139   4.335  10.505   6.252 -0.5459 -0.5293 -0.3723
  449MOL0     C59140   4.199  10.519   6.224  0.2896  0.2786  0.0842
  449MOL0     C59141   4.142  10.611   6.138 -1.1326 -0.4843  0.7552
  449MOL0     C59142   4.009  10.629   6.114 -0.1878  0.2915  1.0993
  449MOL0     C59143   3.920  10.546   6.173 -0.4267 -0.2472 -0.2772
  449MOL0     O59144   3.787  10.554   6.144  0.6262  0.4783  0.0649
  449MOL0     C59145   3.725  10.678   6.180 -0.2588 -0.1269 -0.1780
  449MOL0     C59146   3.604  10.689   6.094  0.4246 -0.8782  1.0593
  449MOL0     C59147   3.629  10.674   5.939  0.1967  0.1704  0.5161
  449MOL0     C59148   3.677  10.798   5.874 -0.6245 -0.3452 -0.2279
  449MOL0     C59149   3.679  10.794   5.724  0.4116 -0.4422  0.2929
  449MOL0     C59150   3.725  10.667   5.642  0.2804  0.6060 -0.3420
  449MOL0     C59151   3.719  10.697   5.495 -0.4153 -0.1489 -0.2872
  449MOL0     C59152   3.712  10.566   5.415  0.2805  0.6527  0.5255
  449MOL0     N59153   3.721  10.580   5.270  0.3162  0.2127 -0.1113
  449MOL0     C59154   3.746  10.487   5.178 -0.8894  0.0386 -0.1984
  449MOL0     C59155   3.751  10.537   5.056  0.3189  0.1965 -0.2847
  449MOL0     C59156   3.771  10.481   4.917  1.1293 -0.2838  0.6810
  449MOL0     C59157   3.781  10.324   4.924  0.3826 -0.6813 -0.0145
  449MOL0     C59158   3.645  10.253   4.949 -0.3419  0.1260 -1.0545
  449MOL0     C59159   3.648  10.106   4.977 -0.1137  0.2270 -1.1635
  449MOL0     O59160   3.516  10.052   5.000 -0.1992 -0.8557 -1.1383
  449MOL0     C59161   3.465  10.027   5.136 -0.2326 -0.5861  0.4775
  449MOL0     C59162   3.537  10.065   5.247  0.0878 -1.3074  0.2159
  449MOL0     C59163   3.480  10.042   5.372  0.3078 -0.8193 -0.4086
  449MOL0     C59164   3.363   9.975   5.394 -1.0115  0.0374 -0.5268
  449MOL0     C59165   3.306   9.926   5.521  0.0842 -0.0302  0.6532
  449MOL0     O59166   3.175   9.894   5.520  0.0910  1.2463 -0.4293
  449MOL0     C59167   3.109   9.859   5.634  0.1241  0.4950 -1.0537
  449MOL0     C59168   3.109   9.919   5.758 -0.1539  0.1088  0.9385
  449MOL0     C59169   3.014   9.882   5.857 -0.2912 -0.1987  0.7986
  449MOL0     C59170   2.911   9.784   5.839 -0.2810 -0.1917  0.1311
  449MOL0     O59171   2.835   9.756   5.945  0.9087 -0.1506 -0.1966
  449MOL0     C59172   2.764   9.631   5.955 -0.1097  0.2238  0.5640
  449MOL0     C59173   2.723   9.615   6.101  0.1612 -0.0531  0.8413
  449MOL0     C59174   2.608   9.512   6.099  0.1364 -0.3319 -0.5743
  449MOL0     C59175   2.573   9.466   6.239  0.0920  0.6653 -0.3796
  449MOL0     C59176   2.427   9.423   6.256  0.7838 -0.4175 -0.0391
  449MOL0     C59177   2.405   9.417   6.403  0.5730 -0.1094 -0.7626
  449MOL0     C59178   2.261   9.390   6.429  0.5167  0.1036  0.3843
  449MOL0     C59179   2.168   9.512   6.409 -0.1238 -0.5111  0.1649
  449MOL0    Cl59180   2.005   9.496   6.475  0.0996 -0.4776  0.2544
  449MOL0     C59181   2.920   9.720   5.713 -0.0947 -0.2718  0.3563
  449MOL0     C59182   3.017   9.758   5.614 -0.0795  1.1852 -0.4450
  449MOL0     O59183   3.383   9.939   5.617 -0.0163 -0.7457 -0.1250
  449MOL0     C59184   3.291   9.943   5.278  0.0513 -0.1344  0.0181
  449MOL0     C59185   3.342   9.974   5.150 -0.3743  0.0841  0.0621
  449MOL0     N59186   3.730  10.666   5.081 -0.8102 -0.4862  0.2581
  449MOL0     N59187   3.727  10.697   5.200 -0.4757 -0.1392 -0.2609
  449MOL0     C59188   3.968  10.460   6.271  0.2915  0.3196 -0.1042
  449MOL0     C59189   4.104  10.447   6.293 -0.0544 -0.2355  0.3394
  449MOL0     C59190   4.543  10.400   6.290  0.5763 -0.1463  0.3774
  449MOL0     C59191   4.615  10.281   6.291  0.2547 -0.4516  0.8007
  449MOL0     C59192   4.751  10.285   6.317  0.6728 -0.1789  0.4996
  449MOL0     C59193   4.812  10.403   6.341 -0.5935  0.3272 -0.6570
  449MOL0     O59194   4.945  10.396   6.375 -0.2402 -0.1644 -0.0838
  449MOL0     C59195   5.019  10.518   6.381 -0.1059 -0.8039  0.8839
  449MOL0     C59196   5.168  10.480   6.387 -0.0058 -0.1294 -0.1931
  449MOL0     C59197   5.258  10.588   6.323  0.7229 -0.1916 -0.0040
  449MOL0     C59198   5.411  10.568   6.335 -1.0415 -1.1927 -0.7929
  449MOL0     C59199   5.453  10.559   6.477  0.5349 -0.7149  0.7094
  449MOL0     C59200   5.503  10.554   6.588 -0.3520  0.8694  0.6420
  449MOL0     C59201   4.739  10.518   6.338  0.6305  0.1191  0.2844
  449MOL0     C59202   4.603  10.522   6.321 -0.3555 -0.6380  0.0348
  449MOL0     H59203   4.212  10.669   6.079 -0.4405  1.0830  2.9757
  449MOL0     H59204   3.962  10.697   6.044 -1.9851 -1.2332  0.7447
  449MOL0     H59205   3.794  10.763   6.173 -0.7441  0.3552  0.7639
  449MOL0     H59206   3.703  10.681   6.287  1.6495 -2.8235  0.3922
  449MOL0     H59207   3.540  10.776   6.107 -1.6976 -1.3341 -4.0515
  449MOL0     H59208   3.544  10.606   6.132 -0.4925 -2.3894 -3.1769
  449MOL0     H59209   3.528  10.660   5.899  1.4330 -1.7549 -2.1583
  449MOL0     H59210   3.687  10.588   5.908 -0.7045  0.3244 -1.7746
  449MOL0     H59211   3.607  10.878   5.897  0.9690  1.3078 -0.8465
  449MOL0     H59212   3.773  10.830   5.916 -1.4523  0.2212  1.2760
  449MOL0     H59213   3.731  10.885   5.695  0.5775 -0.4208  0.6512
  449MOL0     H59214   3.574  10.804   5.693  1.5450  0.9821 -3.6825
  449MOL0     H59215   3.658  10.583   5.662 -0.2217  0.7381 -1.4302
  449MOL0     H59216   3.827  10.640   5.673  0.4133  1.8441  0.3393
  449MOL0     H59217   3.627  10.755   5.483 -1.3245 -0.1491  4.7345
  449MOL0     H59218   3.806  10.760   5.472 -1.2967  1.4639  0.5616
  449MOL0     H59219   3.614  10.518   5.427  1.0244 -0.5347  2.2196
  449MOL0     H59220   3.795  10.501   5.442 -2.5374 -1.9202  4.1312
  449MOL0     H59221   3.771  10.386   5.210 -3.2240 -0.9722 -1.3092
  449MOL0     H59222   3.863  10.533   4.891 -0.7054  3.2020  0.6429
  449MOL0     H59223   3.700  10.523   4.846  0.5356  0.2168  1.5505
  449MOL0     H59224   3.850  10.300   5.006 -1.3055 -0.3494  1.5714
  449MOL0     H59225   3.832  10.292   4.832 -0.0060  2.9817 -1.6540
  449MOL0     H59226   3.614  10.302   5.042  0.3159 -0.0363 -0.7423
  449MOL0     H59227   3.572  10.270   4.869  0.2600  0.4323 -1.5436
  449MOL0     H59228   3.728  10.100   5.051 -1.4336  1.3835  0.4469
  449MOL0     H59229   3.681  10.062   4.882 -1.3673  0.2127 -1.6100
  449MOL0     H59230   3.621  10.133   5.234 -0.0310 -1.4549 -1.5219
  449MOL0     H59231   3.531  10.063   5.465 -1.2174  2.8069 -0.2584
  449MOL0     H59232   3.186   9.993   5.777 -0.4981  0.0520  2.6920
  449MOL0     H59233   3.006   9.930   5.954 -2.3267 -0.0125  0.5806
  449MOL0     H59234   2.816   9.544   5.916 -0.1954  0.1080  0.7070
  449MOL0     H59235   2.677   9.657   5.894 -0.4389 -0.4437  0.7392
  449MOL0     H59236   2.675   9.708   6.132  0.2000 -0.0257  0.8168
  449MOL0     H59237   2.800   9.586   6.174  1.8246  1.2846 -0.3238
  449MOL0     H59238   2.628   9.419   6.046 -2.0552 -1.2769  0.1439
  449MOL0     H59239   2.522   9.561   6.052 -1.5391 -1.5480  1.0547
  449MOL0     H59240   2.637   9.382   6.267  2.3569  1.7762 -1.9167
  449MOL0     H59241   2.597   9.545   6.311  0.9203 -0.7413  0.9659
  449MOL0     H59242   2.414   9.322   6.215 -0.2433  0.4578 -2.0397
  449MOL0     H59243   2.357   9.490   6.207 -0.0799 -0.0107  1.6952
  449MOL0     H59244   2.429   9.514   6.448 -0.5488  0.2286 -0.8662
  449MOL0     H59245   2.471   9.350   6.459  1.1003 -0.3085 -1.6101
  449MOL0     H59246   2.237   9.305   6.365  2.1261  2.1872 -3.3206
  449MOL0     H59247   2.254   9.368   6.536  0.1715  1.1829  0.6033
  449MOL0     H59248   2.165   9.546   6.305 -0.4780 -1.1171 -0.0293
  449MOL0     H59249   2.207   9.596   6.467 -1.4017  0.3643 -0.2148
  449MOL0     H59250   2.843   9.647   5.691 -2.1662  1.4539  1.5588
  449MOL0     H59251   3.008   9.706   5.519 -3.3793 -1.2870  0.9843
  449MOL0     H59252   3.205   9.877   5.277  0.4838 -0.7084 -0.0167
  449MOL0     H59253   3.292   9.950   5.057 -0.4137 -0.1256  0.1364
  449MOL0     H59254   3.885  10.415   6.324  2.3778 -0.6557  2.5958
  449MOL0     H59255   4.141  10.381   6.371 -0.1222 -0.7024 -0.0184
  449MOL0     H59256   4.563  10.187   6.275 -0.8755  0.3568 -0.4095
  449MOL0     H59257   4.808  10.195   6.334 -0.6037 -1.0133  0.5164
  449MOL0     H59258   4.990  10.574   6.471 -1.9372 -2.0103  1.1007
  449MOL0     H59259   5.004  10.581   6.293  0.0601 -0.4609  1.0987
  449MOL0     H59260   5.204  10.464   6.488  2.2561  0.8645 -0.7770
  449MOL0     H59261   5.186  10.384   6.337 -0.6162 -1.8635  2.6952
  449MOL0     H59262   5.247  10.678   6.385 -0.3438 -0.1230 -0.2768
  449MOL0     H59263   5.231  10.604   6.219  0.7247 -2.2179 -0.3592
  449MOL0     H59264   5.438  10.475   6.285  2.1228  0.6798 -2.9479
  449MOL0     H59265   5.472  10.639   6.278  0.3900 -1.1601  0.6684
  449MOL0     H59266   5.551  10.534   6.682 -1.5759  3.2663  1.8753
  449MOL0     H59267   4.787  10.611   6.364  1.7061 -0.5425  0.7381
  449MOL0     H59268   4.549  10.616   6.328  1.3608  0.4192 -0.3007
  450MOL0     O59269   7.547  10.805   8.906 -0.0986  0.9481 -0.2144
  450MOL0     C59270   7.613  10.722   8.970 -0.4284  0.5840 -0.0583
  450MOL0     O59271   7.635  10.724   9.107 -0.3796  0.0893  0.1333
  450MOL0     C59272   7.560  10.798   9.197  0.1346 -0.3124  0.1682
  450MOL0     C59273   7.433  10.856   9.179  0.8229  0.1392  0.3774
  450MOL0     C59274   7.366  10.922   9.284 -0.5023  0.5616 -0.3497
  450MOL0     C59275   7.423  10.938   9.414 -0.1571 -0.7787  0.1170
  450MOL0     O59276   7.367  11.005   9.516 -0.7691 -0.1289  0.1576
  450MOL0     C59277   7.241  11.074   9.486  1.0303  0.3870  0.3515
  450MOL0     C59278   7.203  11.157   9.601  0.5395  0.2736 -0.4478
  450MOL0     C59279   7.075  11.244   9.570  0.8779  0.6530 -0.0051
  450MOL0     C59280   7.012  11.290   9.704 -0.5085  0.8653  0.1647
  450MOL0     C59281   6.916  11.413   9.678  0.9998  0.2630  0.3264
  450MOL0     C59282   6.816  11.426   9.790  0.4055 -0.1812 -0.3804
  450MOL0     C59283   6.719  11.548   9.782  0.1965 -0.1550 -0.2362
  450MOL0     C59284   6.601  11.517   9.695 -0.5893  0.3371 -0.8519
  450MOL0     N59285   6.508  11.635   9.674 -0.4484  0.2061 -0.0968
  450MOL0     C59286   6.547  11.760   9.621 -0.1467  0.5331  0.1468
  450MOL0     C59287   6.443  11.840   9.655  0.0760 -0.6200 -0.3398
  450MOL0     C59288   6.432  11.987   9.643 -0.6092 -0.3626  0.6561
  450MOL0     C59289   6.455  12.038   9.788  0.0227 -0.3414 -0.4243
  450MOL0     C59290   6.474  12.184   9.790 -0.6708  0.0915  0.4679
  450MOL0     C59291   6.499  12.231   9.936  0.2616 -0.6333 -0.3271
  450MOL0     O59292   6.459  12.377   9.951  0.7551 -0.4251  0.1800
  450MOL0     C59293   6.326  12.411   9.972  0.8572  0.4562 -0.2483
  450MOL0     C59294   6.219  12.329   9.930 -0.3448 -0.7996 -0.5653
  450MOL0     C59295   6.084  12.377   9.952 -0.2854  0.3155 -0.2900
  450MOL0     C59296   6.058  12.505  10.009 -0.0088  0.4947  0.3045
  450MOL0     C59297   5.920  12.544  10.030  0.2286 -0.2898  0.3205
  450MOL0     O59298   5.902  12.675  10.061 -0.0687 -0.8068  0.2857
  450MOL0     C59299   5.771  12.717  10.082  0.7014 -0.1828 -0.0428
  450MOL0     C59300   5.673  12.705   9.980  0.6492  0.6553 -0.1904
  450MOL0     C59301   5.534  12.734  10.002 -0.9390  0.3167  0.1949
  450MOL0     C59302   5.491  12.773  10.132 -0.8552 -0.1236  0.8637
  450MOL0     O59303   5.359  12.765  10.161  0.1047 -0.8863 -0.5193
  450MOL0     C59304   5.256  12.711  10.075 -0.6385  0.2964  0.0701
  450MOL0     C59305   5.110  12.741  10.115  0.4169 -0.0810  0.7389
  450MOL0     C59306   5.001  12.686  10.019 -0.1012 -0.6056  0.3322
  450MOL0     C59307   4.878  12.721  10.103  0.0220 -0.7499  0.0970
  450MOL0     C59308   4.755  12.731  10.016 -0.7463 -0.4246 -0.2515
  450MOL0     C59309   4.732  12.617   9.917  0.3432 -0.2408  0.0901
  450MOL0     C59310   4.684  12.486   9.989 -0.3115  0.1232  0.3080
  450MOL0     C59311   4.661  12.373   9.893  0.2263 -0.4830 -0.3611
  450MOL0    Cl59312   4.814  12.306   9.811 -0.1828 -0.0138  0.0070
  450MOL0     C59313   5.596  12.785  10.239  1.2629 -0.8834  0.8099
  450MOL0     C59314   5.731  12.766  10.208 -1.1703  0.3367 -0.4976
  450MOL0     O59315   5.832  12.462  10.028  0.3441  0.5564 -0.0536
  450MOL0     C59316   6.166  12.583  10.052  0.3117  0.5921  0.1517
  450MOL0     C59317   6.296  12.539  10.021 -0.3159 -0.2941 -1.1868
  450MOL0     N59318   6.337  11.767   9.719 -0.7147 -0.4668 -0.6854
  450MOL0     N59319   6.380  11.639   9.721  0.0774  0.2932 -0.6231
  450MOL0     C59320   7.545  10.885   9.431 -0.9061 -0.1937 -0.5074
  450MOL0     C59321   7.612  10.821   9.328 -0.0273  0.4350  0.9719
  450MOL0     C59322   7.694  10.630   8.891  0.5277 -0.0973 -0.8928
  450MOL0     C59323   7.820  10.586   8.946  0.3379 -0.2326 -0.6759
  450MOL0     C59324   7.910  10.519   8.860  0.0239 -0.3301  0.6503
  450MOL0     C59325   7.880  10.500   8.719  0.2306 -0.0124 -0.0780
  450MOL0     O59326   7.969  10.433   8.636 -0.2751  0.1571  0.5323
  450MOL0     C59327   7.946  10.402   8.496 -0.2967  0.3072  0.1811
  450MOL0     C59328   7.850  10.282   8.483  0.0690 -0.4543  0.2891
  450MOL0     C59329   7.889  10.159   8.555 -0.0528  0.3641  0.1699
  450MOL0     C59330   7.828  10.156   8.690 -0.2404 -0.1011  0.4188
  450MOL0     C59331   7.676  10.153   8.706 -1.6075 -0.2220 -0.3453
  450MOL0     C59332   7.556  10.147   8.708  0.2873 -0.6197 -0.4892
  450MOL0     C59333   7.751  10.543   8.679  0.2649  0.2141  0.6712
  450MOL0     C59334   7.658  10.598   8.766  0.0802  0.3801 -0.4883
  450MOL0     H59335   7.383  10.866   9.083 -1.6728  1.3746  1.7041
  450MOL0     H59336   7.269  10.959   9.253 -0.7935 -0.7395 -1.0492
  450MOL0     H59337   7.158  11.022   9.436 -0.1397  2.4537  0.0326
  450MOL0     H59338   7.278  11.150   9.417  2.8963  0.1855  1.0688
  450MOL0     H59339   7.282  11.223   9.637  0.5511 -0.1644  0.3597
  450MOL0     H59340   7.177  11.086   9.680 -0.5506 -0.4082 -1.3843
  450MOL0     H59341   7.005  11.191   9.505  2.2131 -0.9538 -0.2259
  450MOL0     H59342   7.103  11.333   9.514 -1.3867  0.7789 -1.0557
  450MOL0     H59343   6.964  11.201   9.745  1.6434 -1.0130 -1.1374
  450MOL0     H59344   7.088  11.319   9.776 -1.0153 -4.0558  3.1814
  450MOL0     H59345   6.869  11.405   9.580  1.7657 -0.8463  0.0256
  450MOL0     H59346   6.980  11.501   9.671  0.3188  0.7323 -0.1010
  450MOL0     H59347   6.866  11.415   9.887  0.9359 -4.6358 -0.9500
  450MOL0     H59348   6.757  11.335   9.777  0.9575 -0.7828  1.0717
  450MOL0     H59349   6.682  11.576   9.881  0.4826  1.6764 -0.6275
  450MOL0     H59350   6.774  11.636   9.750  2.0324 -1.0117  0.4366
  450MOL0     H59351   6.537  11.434   9.727  3.6005 -2.3119  1.7043
  450MOL0     H59352   6.641  11.492   9.597 -0.3447 -1.9905 -0.2400
  450MOL0     H59353   6.636  11.786   9.565  1.7003  0.6295  2.9073
  450MOL0     H59354   6.340  12.025   9.597  0.1556  0.9886  0.1909
  450MOL0     H59355   6.514  12.014   9.576 -1.3861  0.4540  0.0185
  450MOL0     H59356   6.545  11.996   9.834 -0.8966 -0.4345  1.3676
  450MOL0     H59357   6.365  12.004   9.841  1.4648  0.0396  2.4488
  450MOL0     H59358   6.556  12.213   9.724  0.6260  1.8907  2.7231
  450MOL0     H59359   6.380  12.230   9.756  0.4995  3.6771  1.6621
  450MOL0     H59360   6.606  12.221   9.953  0.5879 -1.4111 -2.5558
  450MOL0     H59361   6.445  12.171  10.011 -0.0233 -0.4222 -0.3603
  450MOL0     H59362   6.228  12.226   9.897 -4.8913 -0.6447 -3.1939
  450MOL0     H59363   5.999  12.321   9.913  1.1424 -0.7509 -2.0293
  450MOL0     H59364   5.691  12.682   9.876  0.8607 -0.6011  0.1084
  450MOL0     H59365   5.475  12.730   9.911 -0.8823 -1.9860  0.2040
  450MOL0     H59366   5.262  12.602  10.066  1.3335  0.3402  0.3410
  450MOL0     H59367   5.274  12.757   9.977  1.9331  0.9399  0.7808
  450MOL0     H59368   5.106  12.850  10.127 -0.1187  0.0178 -0.2463
  450MOL0     H59369   5.101  12.697  10.214  2.4131  2.5389  2.2289
  450MOL0     H59370   5.003  12.578  10.003 -2.9301 -0.4944 -1.3480
  450MOL0     H59371   5.005  12.740   9.924 -0.9434 -0.8015  0.1836
  450MOL0     H59372   4.861  12.645  10.179  1.4665 -0.9704  0.2195
  450MOL0     H59373   4.901  12.808  10.164  1.5019 -0.6305 -0.5881
  450MOL0     H59374   4.762  12.829   9.967  1.9978  0.6448  1.9431
  450MOL0     H59375   4.666  12.742  10.078 -1.1076  2.4811 -1.1412
  450MOL0     H59376   4.812  12.602   9.845 -2.0579 -1.1182 -2.5918
  450MOL0     H59377   4.650  12.662   9.860  0.4168  0.1371  0.2797
  450MOL0     H59378   4.754  12.439  10.059  0.1761 -0.2953 -0.4500
  450MOL0     H59379   4.591  12.517  10.039  1.2691  0.7505  3.0712
  450MOL0     H59380   4.585  12.391   9.817 -1.1360  2.5799  1.5366
  450MOL0     H59381   4.624  12.285   9.948  0.9985  0.0523  1.0626
  450MOL0     H59382   5.559  12.817  10.336  1.4478 -0.0196  0.6099
  450MOL0     H59383   5.810  12.779  10.281 -0.0786  0.4416 -1.6480
  450MOL0     H59384   6.161  12.678  10.105  2.2328  0.2169  1.0989
  450MOL0     H59385   6.380  12.605  10.043 -1.9869  1.0342  1.7452
  450MOL0     H59386   7.588  10.899   9.530  0.7035 -2.8677 -0.7291
  450MOL0     H59387   7.711  10.787   9.356  0.2679 -0.1119 -0.6343
  450MOL0     H59388   7.837  10.589   9.053 -4.8855 -0.5010  0.4380
  450MOL0     H59389   8.001  10.476   8.902 -1.8506 -4.4097  1.0197
  450MOL0     H59390   8.044  10.379   8.452  0.9196  1.5820  2.0749
  450MOL0     H59391   7.912  10.489   8.440  1.4803  0.0355 -1.4085
  450MOL0     H59392   7.752  10.313   8.518 -0.7123 -0.8569 -1.4302
  450MOL0     H59393   7.844  10.251   8.378  0.5892  1.8464 -0.5010
  450MOL0     H59394   7.997  10.154   8.570  0.3441 -2.8025 -2.6682
  450MOL0     H59395   7.854  10.070   8.502 -0.8308 -1.1624  2.9809
  450MOL0     H59396   7.878  10.069   8.734  1.1291 -0.7149 -2.1530
  450MOL0     H59397   7.864  10.246   8.740 -1.5937  1.1618 -0.7802
  450MOL0     H59398   7.451  10.168   8.715 -0.3324 -3.2157 -1.0731
  450MOL0     H59399   7.725  10.535   8.574  1.3956  0.8475  0.3257
  450MOL0     H59400   7.562  10.632   8.728 -0.9709  0.3497  1.9826
  451MOL0     O59401   2.636   9.850   3.654 -0.4127  0.1264 -0.3318
  451MOL0     C59402   2.568   9.927   3.585  0.2850  0.1521 -0.5940
  451MOL0     O59403   2.618  10.027   3.505 -0.5862 -0.2330 -0.3648
  451MOL0     C59404   2.747  10.071   3.517  0.4068  0.5460  0.3663
  451MOL0     C59405   2.840  10.055   3.414  0.6902  0.0020  0.2419
  451MOL0     C59406   2.971  10.106   3.418  0.3237  0.2615  0.0293
  451MOL0     C59407   3.014  10.183   3.528 -0.5012  0.2407  0.6157
  451MOL0     O59408   3.135  10.248   3.542 -0.3365 -0.2382  0.0441
  451MOL0     C59409   3.211  10.275   3.428 -0.5895 -0.9893 -0.5729
  451MOL0     C59410   3.338  10.357   3.457  0.4328 -0.1964 -0.2131
  451MOL0     C59411   3.311  10.483   3.533 -0.3684  0.6180  0.3847
  451MOL0     C59412   3.434  10.553   3.602  0.4235  1.3512  0.5530
  451MOL0     C59413   3.403  10.657   3.714 -0.1376  0.2930  0.0259
  451MOL0     C59414   3.323  10.778   3.660  0.2579  0.1383  0.4712
  451MOL0     C59415   3.399  10.863   3.562 -0.8259 -0.0106  0.6516
  451MOL0     C59416   3.310  10.977   3.510  0.3420  0.0735 -0.2135
  451MOL0     N59417   3.230  10.939   3.397 -0.6288 -0.6280 -1.0306
  451MOL0     C59418   3.122  11.022   3.353 -0.4571  0.8040  0.5897
  451MOL0     C59419   3.082  10.960   3.238 -0.2812  0.2537 -0.2205
  451MOL0     C59420   2.969  11.010   3.166 -0.8363 -0.8805  0.2575
  451MOL0     C59421   3.005  11.106   3.058  1.0449 -0.0710 -0.2416
  451MOL0     C59422   3.035  11.045   2.921 -0.9714  0.6208  0.7632
  451MOL0     C59423   2.951  11.086   2.805 -0.0321  0.7303  0.5917
  451MOL0     O59424   2.941  11.235   2.795 -0.4091 -0.7273 -0.0385
  451MOL0     C59425   3.060  11.287   2.744  0.5761  0.0472  0.1150
  451MOL0     C59426   3.117  11.249   2.625 -0.6621  0.4193  0.1031
  451MOL0     C59427   3.240  11.292   2.581 -0.1518 -0.0807 -0.0091
  451MOL0     C59428   3.320  11.379   2.654 -0.3357 -0.7152  0.3530
  451MOL0     C59429   3.451  11.422   2.605  0.2873 -0.7064 -0.3198
  451MOL0     O59430   3.539  11.477   2.694  0.3267 -1.0861  0.2902
  451MOL0     C59431   3.648  11.534   2.637  0.3466  0.1941  0.0552
  451MOL0     C59432   3.764  11.464   2.604  0.3085 -0.5325 -0.0746
  451MOL0     C59433   3.877  11.534   2.562  0.6146  0.0058  0.5505
  451MOL0     C59434   3.870  11.669   2.525  0.1980 -1.4497  0.3842
  451MOL0     O59435   3.974  11.737   2.466  0.8746  0.3000 -0.0645
  451MOL0     C59436   4.095  11.751   2.548  0.3227 -0.2006  0.2511
  451MOL0     C59437   4.179  11.854   2.486 -0.2888 -0.0315  0.6218
  451MOL0     C59438   4.315  11.874   2.552 -0.0391  1.1193  0.5619
  451MOL0     C59439   4.408  11.762   2.524  0.1831 -0.7211  0.2336
  451MOL0     C59440   4.517  11.768   2.634  0.1735 -0.7163  0.3100
  451MOL0     C59441   4.630  11.664   2.617  0.0321 -0.1985  1.0533
  451MOL0     C59442   4.584  11.519   2.625  1.0089 -0.6089  0.7894
  451MOL0     C59443   4.690  11.422   2.644 -0.4861 -0.2507 -0.5080
  451MOL0    Cl59444   4.631  11.261   2.695 -0.1178  0.1886  0.4846
  451MOL0     C59445   3.759  11.746   2.545  0.2236 -0.4008 -0.6516
  451MOL0     C59446   3.654  11.677   2.616  0.2925 -0.3280  0.7741
  451MOL0     O59447   3.471  11.418   2.484 -0.1055 -0.5543 -0.1356
  451MOL0     C59448   3.265  11.426   2.773  0.6673  0.9805 -0.6319
  451MOL0     C59449   3.138  11.387   2.817  0.3123 -0.1701  0.6164
  451MOL0     N59450   3.157  10.844   3.221 -0.2278  0.9957 -0.4226
  451MOL0     N59451   3.241  10.834   3.314 -0.7173  1.0235  0.1987
  451MOL0     C59452   2.921  10.194   3.636 -0.4509 -1.0124  0.4670
  451MOL0     C59453   2.795  10.142   3.630  0.6721  1.0056 -0.4095
  451MOL0     C59454   2.424   9.911   3.595  0.1555  0.3322 -0.0445
  451MOL0     C59455   2.347  10.014   3.539 -0.0574  0.2213  0.2541
  451MOL0     C59456   2.213   9.989   3.537  0.2088  0.7430 -0.2879
  451MOL0     C59457   2.158   9.864   3.581 -1.1841 -0.1541 -0.4489
  451MOL0     O59458   2.032   9.825   3.550  0.1887 -0.0977  0.7137
  451MOL0     C59459   1.929   9.809   3.654 -0.7293  0.0995  1.0874
  451MOL0     C59460   1.807   9.906   3.620  0.1626  0.5128 -0.3669
  451MOL0     C59461   1.696   9.903   3.733  0.4076 -1.1693  0.0664
  451MOL0     C59462   1.619   9.774   3.742 -0.0413 -0.5661 -0.7015
  451MOL0     C59463   1.559   9.747   3.612 -0.0437  0.0068  0.5344
  451MOL0     C59464   1.499   9.730   3.509 -0.4305 -0.1105  0.0608
  451MOL0     C59465   2.233   9.782   3.660 -0.0844  0.1465  0.6690
  451MOL0     C59466   2.373   9.803   3.660 -0.1204  0.0686  0.7435
  451MOL0     H59467   2.815   9.996   3.327  2.1646  0.6706 -0.6633
  451MOL0     H59468   3.033  10.082   3.332  0.6826  0.9693  0.0837
  451MOL0     H59469   3.145  10.335   3.364  0.2661 -0.6958 -1.2005
  451MOL0     H59470   3.244  10.187   3.371  0.2928 -0.4138 -0.9721
  451MOL0     H59471   3.401  10.382   3.370  0.3815 -2.8372 -1.1026
  451MOL0     H59472   3.405  10.300   3.521  0.5905 -0.3078 -0.4726
  451MOL0     H59473   3.246  10.459   3.619  3.0413 -0.7591  2.8090
  451MOL0     H59474   3.255  10.554   3.472  0.9490  1.5553  0.2169
  451MOL0     H59475   3.496  10.474   3.646  2.9975 -0.6493 -5.5615
  451MOL0     H59476   3.492  10.592   3.518 -0.8148 -1.4523 -1.8003
  451MOL0     H59477   3.497  10.682   3.764  0.5995  1.4047 -1.8013
  451MOL0     H59478   3.336  10.603   3.781 -2.9224  2.7171 -0.5896
  451MOL0     H59479   3.296  10.832   3.751 -0.9341 -1.3078  1.0224
  451MOL0     H59480   3.231  10.749   3.610  0.1421  0.1631  0.6660
  451MOL0     H59481   3.485  10.898   3.620 -2.0890  0.3668  2.3804
  451MOL0     H59482   3.437  10.808   3.476  3.8821 -0.2991  2.6026
  451MOL0     H59483   3.373  11.064   3.488  0.0178  0.3436 -0.0857
  451MOL0     H59484   3.244  11.013   3.590 -0.1669 -2.3867  0.5739
  451MOL0     H59485   3.077  11.107   3.403 -1.7306 -0.7477  2.2046
  451MOL0     H59486   2.903  11.058   3.238 -0.4699  0.5747 -0.3428
  451MOL0     H59487   2.920  10.921   3.124 -0.5122 -1.3121  0.7843
  451MOL0     H59488   3.078  11.176   3.099  3.4213 -1.5120 -1.7854
  451MOL0     H59489   2.918  11.172   3.047  0.2722 -1.1986 -1.1492
  451MOL0     H59490   3.133  11.085   2.894  0.0284 -3.1080 -1.8982
  451MOL0     H59491   3.047  10.936   2.919  0.7731  0.7802 -0.6163
  451MOL0     H59492   2.857  11.034   2.823  1.2256 -1.0851  2.4001
  451MOL0     H59493   2.995  11.038   2.717  1.7494  3.3925 -0.1050
  451MOL0     H59494   3.071  11.170   2.567 -1.2210 -0.2103  1.3632
  451MOL0     H59495   3.288  11.247   2.495  0.9787 -2.1277  1.6042
  451MOL0     H59496   3.776  11.357   2.609  1.3843 -0.4719 -0.9584
  451MOL0     H59497   3.973  11.488   2.539 -0.5173 -2.1391 -0.1570
  451MOL0     H59498   4.147  11.655   2.562  2.8085  1.2451  1.6249
  451MOL0     H59499   4.075  11.799   2.644  2.3146 -0.8207  1.0089
  451MOL0     H59500   4.133  11.953   2.487 -3.0417 -1.2302  0.7396
  451MOL0     H59501   4.198  11.829   2.381 -2.2745 -0.4730  0.3274
  451MOL0     H59502   4.302  11.887   2.660 -0.4300 -1.7096  0.9354
  451MOL0     H59503   4.358  11.968   2.515  0.2340  1.1007  0.8337
  451MOL0     H59504   4.352  11.669   2.535 -4.2502  1.7445  0.9297
  451MOL0     H59505   4.455  11.771   2.426  0.4936 -1.7325  0.2816
  451MOL0     H59506   4.484  11.766   2.739  2.7660  1.6960  1.3137
  451MOL0     H59507   4.557  11.870   2.634 -0.6992 -0.3611 -0.2230
  451MOL0     H59508   4.709  11.692   2.687  3.2291  0.2230 -2.4083
  451MOL0     H59509   4.684  11.677   2.522 -0.1758  2.7897  1.2386
  451MOL0     H59510   4.510  11.524   2.705  0.2951 -0.9199  0.1652
  451MOL0     H59511   4.532  11.489   2.533  0.4374 -0.5320  1.0821
  451MOL0     H59512   4.756  11.451   2.726 -1.9114  0.3348  0.4797
  451MOL0     H59513   4.744  11.426   2.549 -1.8839  2.6707 -1.2813
  451MOL0     H59514   3.748  11.847   2.508 -0.9335 -0.1786  0.2384
  451MOL0     H59515   3.568  11.743   2.624  0.9332  0.3987  2.0075
  451MOL0     H59516   3.335  11.487   2.829  0.3240  1.2573 -0.5059
  451MOL0     H59517   3.077  11.414   2.903  0.8605  0.4428  0.8186
  451MOL0     H59518   2.961  10.246   3.723  0.4284  0.7397 -0.9062
  451MOL0     H59519   2.727  10.153   3.714  1.5993 -2.5896  0.9894
  451MOL0     H59520   2.382  10.107   3.496  3.1030 -0.2048  1.6260
  451MOL0     H59521   2.145  10.063   3.497 -0.7595  0.1063  0.1387
  451MOL0     H59522   1.984   9.830   3.746  2.4177 -3.2856  0.2353
  451MOL0     H59523   1.887   9.708   3.659 -0.4721 -0.0825 -0.0326
  451MOL0     H59524   1.849  10.005   3.636  1.8547 -0.5413  2.4564
  451MOL0     H59525   1.772   9.882   3.519 -0.1837 -2.0491  0.2802
  451MOL0     H59526   1.628   9.987   3.716 -0.0952 -1.7532 -0.9633
  451MOL0     H59527   1.750   9.924   3.826 -1.8197  1.0057  0.9849
  451MOL0     H59528   1.692   9.699   3.775 -1.8160 -1.4935  1.4186
  451MOL0     H59529   1.534   9.773   3.812 -2.4285 -2.2710 -3.4479
  451MOL0     H59530   1.458   9.708   3.412 -0.7404 -0.2299  0.2169
  451MOL0     H59531   2.179   9.700   3.705 -0.0891  0.4048  1.1412
  451MOL0     H59532   2.436   9.726   3.705 -1.0427 -3.9656 -3.9622
  452MOL0     O59533   0.712  10.013   7.503  0.0931 -0.1072 -0.3362
  452MOL0     C59534   0.751  10.116   7.564  0.0716 -0.3998  0.2555
  452MOL0     O59535   0.687  10.226   7.554  0.1955 -0.0252  0.9027
  452MOL0     C59536   0.589  10.226   7.451  1.0197 -0.7083 -0.2629
  452MOL0     C59537   0.607  10.297   7.333  0.0561 -0.8647  0.8734
  452MOL0     C59538   0.510  10.290   7.228  0.9002 -0.1936 -0.2016
  452MOL0     C59539   0.372  10.248   7.255  0.0247  0.1606 -0.9468
  452MOL0     O59540   0.285  10.278   7.156  0.1606 -0.2220  0.5633
  452MOL0     C59541   0.166  10.186   7.148 -1.4337 -0.4405  0.6399
  452MOL0     C59542   0.119  10.226   7.011  0.2877  0.1574  0.2520
  452MOL0     C59543   0.012  10.131   6.957 -0.1675 -0.8745 -0.2744
  452MOL0     C59544  -0.111  10.141   7.040 -0.0034  0.1393 -0.1915
  452MOL0     C59545  -0.218  10.035   7.006 -0.4687  0.0504 -0.5655
  452MOL0     C59546  -0.269  10.058   6.861 -0.3222  0.3317 -0.2294
  452MOL0     C59547  -0.357  10.184   6.861  0.4201 -0.6288  0.1043
  452MOL0     C59548  -0.485  10.159   6.939  0.4465  0.8661 -0.7121
  452MOL0     N59549  -0.586  10.261   6.906 -0.3951 -0.5927  0.3006
  452MOL0     C59550  -0.696  10.228   6.833  0.0450  0.8751 -0.0193
  452MOL0     C59551  -0.765  10.339   6.819  0.0120  0.0030  0.4869
  452MOL0     C59552  -0.894  10.364   6.741 -0.2189  0.4433 -0.1740
  452MOL0     C59553  -1.017  10.278   6.803  0.4974 -0.9439  0.0653
  452MOL0     C59554  -1.119  10.248   6.699  0.5968 -0.3343 -0.4427
  452MOL0     C59555  -1.204  10.373   6.666  0.2269  0.1299  0.0870
  452MOL0     O59556  -1.313  10.381   6.765  0.4475  0.1292  0.0993
  452MOL0     C59557  -1.425  10.306   6.743  0.4592  0.8997 -0.0788
  452MOL0     C59558  -1.534  10.334   6.825 -0.2219  0.2364 -0.4720
  452MOL0     C59559  -1.656  10.259   6.819 -0.9901  0.7473  0.3979
  452MOL0     C59560  -1.670  10.160   6.722  0.0980 -0.3693 -0.1757
  452MOL0     C59561  -1.791  10.075   6.715  0.4014 -0.5401 -1.0293
  452MOL0     O59562  -1.890  10.108   6.810 -0.2252  0.0124  0.7496
  452MOL0     C59563  -2.009  10.031   6.792 -0.4874  0.3750 -0.8005
  452MOL0     C59564  -2.131  10.084   6.749  0.8885 -0.7406 -0.3752
  452MOL0     C59565  -2.251  10.005   6.749  0.5086 -0.7675  0.6061
  452MOL0     C59566  -2.245   9.875   6.796 -0.4106 -0.7629 -0.6922
  452MOL0     O59567  -2.340   9.779   6.802  0.0967  0.5654 -0.3116
  452MOL0     C59568  -2.475   9.823   6.772  0.5582  0.2302  0.1541
  452MOL0     C59569  -2.507   9.814   6.613 -0.2915 -0.1934 -0.0406
  452MOL0     C59570  -2.621   9.903   6.576  1.0038 -0.9720  0.6465
  452MOL0     C59571  -2.675   9.885   6.429 -0.2978 -0.8103  0.6295
  452MOL0     C59572  -2.801   9.965   6.407 -1.0360 -0.5891  0.4000
  452MOL0     C59573  -2.841   9.966   6.261  1.3326  0.4578  0.0508
  452MOL0     C59574  -2.981  10.034   6.247 -0.1253 -0.1629 -0.3411
  452MOL0     C59575  -2.965  10.184   6.219 -0.1235  0.1250 -0.4410
  452MOL0    Cl59576  -2.922  10.218   6.059 -0.4116  0.1351  0.2934
  452MOL0     C59577  -2.120   9.821   6.836 -0.3702  0.4333 -0.0848
  452MOL0     C59578  -2.007   9.900   6.826  0.0533  1.0949 -0.3871
  452MOL0     O59579  -1.803   9.987   6.628  0.6156  0.4187  0.1585
  452MOL0     C59580  -1.563  10.136   6.632 -0.1699 -0.3396  0.3662
  452MOL0     C59581  -1.442  10.204   6.642  0.7456 -1.7336  0.6102
  452MOL0     N59582  -0.702  10.444   6.892 -0.1702 -0.0027  0.1071
  452MOL0     N59583  -0.586  10.398   6.924 -0.1133 -0.0624 -0.2971
  452MOL0     C59584   0.350  10.193   7.380 -0.6066 -0.2802 -0.4890
  452MOL0     C59585   0.461  10.183   7.476  0.7555  0.4685 -0.0921
  452MOL0     C59586   0.842  10.089   7.671 -0.0311 -1.0568 -0.1880
  452MOL0     C59587   0.943   9.989   7.658 -0.0169 -0.7243  0.2165
  452MOL0     C59588   1.044   9.973   7.749  0.5817 -1.0839  0.2802
  452MOL0     C59589   1.048  10.065   7.857  0.3184  0.4362  0.2030
  452MOL0     O59590   1.154  10.050   7.945 -0.4047 -0.1546 -0.7713
  452MOL0     C59591   1.126  10.074   8.087  0.5694 -0.9185  0.0458
  452MOL0     C59592   1.020   9.977   8.135  0.2427 -0.0784 -0.1676
  452MOL0     C59593   1.040   9.966   8.285 -0.0613 -1.2654  0.3285
  452MOL0     C59594   0.951   9.866   8.359 -0.3875 -0.7061 -0.5052
  452MOL0     C59595   0.994   9.827   8.496  0.3073 -0.4117 -0.1556
  452MOL0     C59596   1.039   9.807   8.604 -0.1481 -0.4119 -0.0586
  452MOL0     C59597   0.947  10.157   7.878 -0.6683 -0.3258  0.7289
  452MOL0     C59598   0.844  10.171   7.787 -0.2748 -0.9329  0.2163
  452MOL0     H59599   0.698  10.354   7.313 -0.5791 -1.1568 -4.2471
  452MOL0     H59600   0.529  10.323   7.126 -1.6713 -0.7478 -0.9346
  452MOL0     H59601   0.090  10.198   7.226 -1.3717 -2.7683  1.1250
  452MOL0     H59602   0.182  10.078   7.151 -1.4037 -0.5073 -1.1896
  452MOL0     H59603   0.208  10.212   6.950 -0.2889 -1.8542 -0.2331
  452MOL0     H59604   0.091  10.331   7.024  3.0174  0.9888 -0.1513
  452MOL0     H59605   0.038  10.026   6.943  0.2881 -0.7169 -0.6437
  452MOL0     H59606  -0.005  10.168   6.855 -1.0487 -4.0601 -1.4087
  452MOL0     H59607  -0.071  10.116   7.138  0.7970 -1.1606 -0.8244
  452MOL0     H59608  -0.141  10.247   7.045 -1.5365 -0.1270 -2.3516
  452MOL0     H59609  -0.292  10.040   7.086  2.4100  1.6149  2.2408
  452MOL0     H59610  -0.172   9.937   7.015 -0.9284 -0.1585 -0.4587
  452MOL0     H59611  -0.327   9.971   6.827  0.6631 -0.1690 -0.6830
  452MOL0     H59612  -0.189  10.064   6.786  2.4888 -2.1902  2.2907
  452MOL0     H59613  -0.303  10.270   6.902 -0.4508  0.5652 -1.1740
  452MOL0     H59614  -0.379  10.217   6.759  0.8262  3.5264  1.1763
  452MOL0     H59615  -0.472  10.154   7.048 -0.9480  1.4722 -0.4960
  452MOL0     H59616  -0.519  10.057   6.921  4.2299 -0.6433 -0.4277
  452MOL0     H59617  -0.725  10.130   6.797 -0.1243  0.9991 -0.2222
  452MOL0     H59618  -0.879  10.338   6.636 -0.2135 -1.2619  0.2176
  452MOL0     H59619  -0.914  10.470   6.759  1.5178  0.7062  0.4051
  452MOL0     H59620  -1.056  10.337   6.887 -0.0050 -1.0342 -0.1060
  452MOL0     H59621  -0.991  10.180   6.845 -1.1793 -2.5919 -2.4791
  452MOL0     H59622  -1.072  10.216   6.606 -0.2878  0.9651 -1.3734
  452MOL0     H59623  -1.187  10.170   6.736  0.1298  0.8450  1.3376
  452MOL0     H59624  -1.250  10.365   6.567  1.6100  1.7041 -0.7390
  452MOL0     H59625  -1.134  10.456   6.663  0.1557  0.1773 -0.3183
  452MOL0     H59626  -1.513  10.405   6.904  0.5705 -1.7039  1.1520
  452MOL0     H59627  -1.734  10.293   6.887 -1.0610 -1.8191  1.7012
  452MOL0     H59628  -2.131  10.186   6.712  1.1495 -1.3172 -2.0333
  452MOL0     H59629  -2.331  10.059   6.699  1.2474  0.6386  0.8639
  452MOL0     H59630  -2.500   9.924   6.803 -1.3857  0.4234 -1.7415
  452MOL0     H59631  -2.551   9.752   6.808 -0.0050  1.4582  1.4495
  452MOL0     H59632  -2.529   9.708   6.598  3.2174 -1.3787  1.9320
  452MOL0     H59633  -2.420   9.842   6.553 -0.3688 -0.5900 -0.3446
  452MOL0     H59634  -2.600  10.009   6.589 -1.1061 -0.6816  2.3071
  452MOL0     H59635  -2.703   9.883   6.646 -0.5709 -1.8015 -1.3459
  452MOL0     H59636  -2.597   9.916   6.359  0.8312 -0.6105  1.9419
  452MOL0     H59637  -2.690   9.780   6.403  1.3368 -0.1369 -3.9603
  452MOL0     H59638  -2.778  10.070   6.428  0.3745 -1.3528  3.0810
  452MOL0     H59639  -2.882   9.939   6.475 -2.0839  1.1057 -0.1492
  452MOL0     H59640  -2.842   9.864   6.220 -0.8590  0.8631 -1.0321
  452MOL0     H59641  -2.775  10.022   6.195 -2.9281  0.1567 -5.1365
  452MOL0     H59642  -3.029   9.983   6.163 -1.6536  1.0317 -0.2415
  452MOL0     H59643  -3.025  10.032   6.348  1.2942 -0.5118  0.3011
  452MOL0     H59644  -2.894  10.233   6.286  1.8329 -3.0721  0.0230
  452MOL0     H59645  -3.062  10.231   6.235  0.1059  0.3101  0.4248
  452MOL0     H59646  -2.099   9.719   6.866  0.1568  0.9198  1.3482
  452MOL0     H59647  -1.908   9.864   6.851  0.6448  2.4909 -0.5873
  452MOL0     H59648  -1.572  10.047   6.572 -1.2028  0.8205 -1.2668
  452MOL0     H59649  -1.358  10.165   6.585  1.1253 -1.1574  0.7733
  452MOL0     H59650   0.256  10.151   7.413 -0.0834 -0.7044  0.4987
  452MOL0     H59651   0.442  10.125   7.566 -1.9107 -1.4617 -1.7345
  452MOL0     H59652   0.946   9.926   7.570  0.2846 -0.0681 -0.2519
  452MOL0     H59653   1.116   9.892   7.737 -1.7981 -3.2707 -0.1312
  452MOL0     H59654   1.094  10.179   8.090 -1.7886 -1.4805 -2.0257
  452MOL0     H59655   1.215  10.064   8.149 -0.6698 -2.6251  1.6739
  452MOL0     H59656   0.920  10.009   8.105  0.3762  0.1219 -0.4057
  452MOL0     H59657   1.038   9.878   8.091 -2.7299 -2.2031  2.8957
  452MOL0     H59658   1.024  10.063   8.334  1.0649 -1.5006  1.1911
  452MOL0     H59659   1.140   9.930   8.309 -0.4758 -0.6520  3.5876
  452MOL0     H59660   0.849   9.902   8.365 -1.0849 -2.5433 -0.6406
  452MOL0     H59661   0.954   9.773   8.301  2.3185 -0.9710 -0.0799
  452MOL0     H59662   1.102   9.789   8.689 -0.4767  1.2103  0.5586
  452MOL0     H59663   0.958  10.234   7.952  1.1155 -0.2661  0.4380
  452MOL0     H59664   0.779  10.256   7.803  1.4699  0.3888  0.4479
  453MOL0     O59665   9.801   8.263   8.865  0.6176  0.1123 -0.6581
  453MOL0     C59666   9.777   8.374   8.914 -0.3265 -0.3790  0.0906
  453MOL0     O59667   9.874   8.467   8.956 -0.1545  0.0528  0.1611
  453MOL0     C59668  10.004   8.458   8.917 -0.4031  0.5199 -0.0572
  453MOL0     C59669  10.032   8.411   8.787 -0.6715  0.2125 -0.3282
  453MOL0     C59670  10.161   8.407   8.740 -0.1717 -0.2857  0.2915
  453MOL0     C59671  10.267   8.456   8.819 -1.3034  0.7715 -0.6371
  453MOL0     O59672  10.394   8.471   8.764 -0.2540  0.2253 -0.8967
  453MOL0     C59673  10.505   8.440   8.847  0.0644  0.0191 -0.1739
  453MOL0     C59674  10.493   8.298   8.916 -0.6690 -0.3346  0.3823
  453MOL0     C59675  10.622   8.270   9.000 -0.0512 -0.1736  1.0148
  453MOL0     C59676  10.642   8.353   9.125  1.3189 -0.4808 -0.4541
  453MOL0     C59677  10.760   8.321   9.215 -0.8949 -0.7675  0.3517
  453MOL0     C59678  10.810   8.176   9.240 -0.5878 -0.3390  0.3636
  453MOL0     C59679  10.948   8.186   9.296 -0.8289  0.5869 -0.9858
  453MOL0     C59680  10.958   8.123   9.438  0.2206 -0.1000 -0.3211
  453MOL0     N59681  10.858   8.180   9.543  0.0697 -0.0093  0.0892
  453MOL0     C59682  10.890   8.287   9.619 -0.6230 -0.3049  0.0309
  453MOL0     C59683  10.811   8.281   9.730 -0.3163 -0.0822  0.0651
  453MOL0     C59684  10.817   8.367   9.856 -0.0560 -0.3520  0.6013
  453MOL0     C59685  10.957   8.341   9.923  0.6012 -0.3165  0.2671
  453MOL0     C59686  10.963   8.190   9.963  0.5270 -0.0735  1.2872
  453MOL0     C59687  11.074   8.148  10.054  0.2849  0.0490 -0.3236
  453MOL0     O59688  11.036   8.171  10.189  0.3060  0.5175  0.3461
  453MOL0     C59689  10.957   8.083  10.255  0.3786  0.8770  0.3321
  453MOL0     C59690  10.840   8.127  10.295  0.3555  0.3498  0.6011
  453MOL0     C59691  10.745   8.046  10.369  0.0964 -0.6134  0.6824
  453MOL0     C59692  10.778   7.912  10.368 -0.0032  0.7383 -0.1087
  453MOL0     C59693  10.676   7.814  10.436 -0.3629  0.9039  0.2632
  453MOL0     O59694  10.583   7.869  10.504  0.6780  0.2221 -0.1419
  453MOL0     C59695  10.485   7.784  10.556 -0.1228  0.9660  0.5379
  453MOL0     C59696  10.480   7.771  10.697 -0.1226 -1.1280  0.6491
  453MOL0     C59697  10.379   7.700  10.747 -0.1703  0.0094  0.8425
  453MOL0     C59698  10.273   7.636  10.673 -0.5559 -0.0761  0.8431
  453MOL0     O59699  10.171   7.567  10.726  0.0853  0.6930 -0.3408
  453MOL0     C59700  10.179   7.535  10.870 -0.3088  0.7763  0.2079
  453MOL0     C59701  10.070   7.451  10.926 -0.2998  0.5563 -0.2539
  453MOL0     C59702   9.932   7.505  10.915 -0.2381  0.0713  0.0004
  453MOL0     C59703   9.831   7.410  10.992  0.1742  0.3573  0.3934
  453MOL0     C59704   9.695   7.477  11.016  0.0078  0.5161  0.1572
  453MOL0     C59705   9.596   7.361  11.037 -0.9414 -0.1139 -0.1019
  453MOL0     C59706   9.457   7.403  11.043  0.6274  0.3727 -0.0536
  453MOL0     C59707   9.357   7.307  10.975 -0.3121  0.2789 -1.2124
  453MOL0    Cl59708   9.369   7.157  11.066  0.3756 -0.8760 -0.1728
  453MOL0     C59709  10.284   7.647  10.541 -0.5229  0.2145  0.8457
  453MOL0     C59710  10.386   7.730  10.482 -0.9748  0.4655 -0.8344
  453MOL0     O59711  10.678   7.698  10.391  0.8048 -0.2124 -0.4721
  453MOL0     C59712  10.895   7.857  10.321 -0.1209 -0.4579  0.1285
  453MOL0     C59713  10.993   7.944  10.262 -0.1272  0.3435 -0.2640
  453MOL0     N59714  10.722   8.178   9.710 -0.9149  0.6670 -0.1153
  453MOL0     N59715  10.752   8.114   9.600  0.3657  1.1268  0.2276
  453MOL0     C59716  10.238   8.515   8.940 -0.2264  1.0037 -1.1806
  453MOL0     C59717  10.114   8.511   8.997 -0.6753  0.7677  0.4306
  453MOL0     C59718   9.648   8.422   8.944  1.7075 -0.4627 -0.0013
  453MOL0     C59719   9.534   8.332   8.930 -0.6840 -0.2242  0.0030
  453MOL0     C59720   9.404   8.383   8.946 -0.5263  0.3762  0.6794
  453MOL0     C59721   9.378   8.510   8.973 -0.0674  0.7473 -0.4044
  453MOL0     O59722   9.253   8.562   8.992 -0.5577 -0.3691 -0.5378
  453MOL0     C59723   9.220   8.554   9.126  0.0995  0.1164  0.0297
  453MOL0     C59724   9.089   8.481   9.136  0.1843 -0.1629  0.4359
  453MOL0     C59725   8.984   8.565   9.216 -0.3098 -0.0822  0.2263
  453MOL0     C59726   8.910   8.666   9.125  0.2676  0.5152  1.0601
  453MOL0     C59727   8.803   8.730   9.199  0.2667 -0.0830  1.2607
  453MOL0     C59728   8.722   8.772   9.280  1.4517  0.0529 -0.1533
  453MOL0     C59729   9.483   8.598   8.986 -0.4358  0.0693 -0.2751
  453MOL0     C59730   9.618   8.559   8.982  0.9312  0.5406  0.3485
  453MOL0     H59731   9.959   8.366   8.721 -2.1768  1.4263  0.4527
  453MOL0     H59732  10.185   8.363   8.644 -1.0192  2.2864 -1.2005
  453MOL0     H59733  10.522   8.509   8.930 -1.8901 -0.3652  0.6032
  453MOL0     H59734  10.589   8.454   8.778  0.5757  0.8517  0.5785
  453MOL0     H59735  10.482   8.223   8.837 -1.4414 -5.2651  4.5875
  453MOL0     H59736  10.405   8.293   8.981 -2.0742 -1.2998 -1.5081
  453MOL0     H59737  10.712   8.283   8.938  0.5449 -4.0889  0.8087
  453MOL0     H59738  10.621   8.166   9.034 -0.9375 -0.3530  0.4616
  453MOL0     H59739  10.635   8.460   9.103 -0.2033 -0.5844 -0.5847
  453MOL0     H59740  10.550   8.329   9.181  1.5899  0.5679  0.4710
  453MOL0     H59741  10.738   8.366   9.312  2.3176  2.2639 -0.1484
  453MOL0     H59742  10.842   8.381   9.175 -0.4059 -1.2190  0.6721
  453MOL0     H59743  10.813   8.115   9.149 -1.5581 -0.3178  0.3014
  453MOL0     H59744  10.740   8.123   9.305 -2.5063  0.6266 -0.7827
  453MOL0     H59745  11.022   8.136   9.232 -0.5228 -1.0222  0.5623
  453MOL0     H59746  10.988   8.288   9.298  1.0681 -0.0940 -1.2872
  453MOL0     H59747  11.061   8.138   9.470 -0.0462 -0.5288  0.7948
  453MOL0     H59748  10.941   8.016   9.425  2.3874 -0.4297 -0.7142
  453MOL0     H59749  10.976   8.351   9.605  2.0214 -3.8186 -1.5430
  453MOL0     H59750  10.728   8.345   9.916  0.8427 -0.3125  1.9871
  453MOL0     H59751  10.808   8.471   9.823  1.2465 -0.0825  1.0669
  453MOL0     H59752  10.968   8.389  10.021 -0.5713 -2.0942  1.3199
  453MOL0     H59753  11.033   8.373   9.851 -0.5374  0.8344 -0.4886
  453MOL0     H59754  10.867   8.146   9.993  0.9080 -1.6601  0.2990
  453MOL0     H59755  10.972   8.129   9.873  1.9607  0.6205  0.9503
  453MOL0     H59756  11.162   8.199  10.013 -0.4929 -0.4076 -2.7612
  453MOL0     H59757  11.103   8.043  10.051  0.1532 -0.1039  2.0670
  453MOL0     H59758  10.812   8.230  10.279  0.3990 -0.0342 -2.6430
  453MOL0     H59759  10.644   8.077  10.392  0.4845 -0.1893  1.8732
  453MOL0     H59760  10.557   7.824  10.752  0.0745  1.2462 -1.7066
  453MOL0     H59761  10.366   7.692  10.854 -1.3005  5.1660  1.3621
  453MOL0     H59762  10.166   7.629  10.924 -3.6643  0.5816 -0.0301
  453MOL0     H59763  10.268   7.477  10.895 -0.9007  1.5050  4.8174
  453MOL0     H59764  10.092   7.435  11.032 -1.8909  1.3723  0.2333
  453MOL0     H59765  10.063   7.357  10.870  1.9366  0.0061  0.3143
  453MOL0     H59766   9.903   7.496  10.810 -0.7297 -1.3526  0.2291
  453MOL0     H59767   9.930   7.604  10.962  3.4260 -0.7037  2.1745
  453MOL0     H59768   9.813   7.314  10.943  0.5441 -1.1192  2.9685
  453MOL0     H59769   9.870   7.387  11.091 -0.8032 -0.2005  0.6608
  453MOL0     H59770   9.676   7.542  10.930 -0.3766 -0.4248 -0.4854
  453MOL0     H59771   9.709   7.533  11.110 -0.3106 -1.5918  1.5335
  453MOL0     H59772   9.614   7.306  11.130  1.2483 -3.9477 -2.4941
  453MOL0     H59773   9.606   7.295  10.950 -0.7320  1.8916 -1.6747
  453MOL0     H59774   9.427   7.414  11.147  0.5614 -1.4695  0.1527
  453MOL0     H59775   9.441   7.496  10.988 -1.6312  0.1737  0.1566
  453MOL0     H59776   9.392   7.290  10.873  0.3530 -0.8886 -0.8000
  453MOL0     H59777   9.253   7.341  10.970 -0.0588  2.0998  2.3821
  453MOL0     H59778  10.209   7.610  10.472  0.2223  2.2215 -1.1439
  453MOL0     H59779  10.380   7.752  10.375  0.5802 -0.0430 -1.0488
  453MOL0     H59780  10.908   7.750  10.330 -1.0138 -0.6096 -0.2828
  453MOL0     H59781  11.088   7.916  10.219  0.5965  2.6890 -0.3413
  453MOL0     H59782  10.319   8.551   9.003 -0.2056  0.6784 -1.0188
  453MOL0     H59783  10.097   8.559   9.092 -0.9866  0.2597  0.6350
  453MOL0     H59784   9.553   8.229   8.899  2.2252  0.6844 -1.5775
  453MOL0     H59785   9.321   8.313   8.941 -1.2893  1.3578 -1.8188
  453MOL0     H59786   9.216   8.656   9.164  3.2169  0.6651 -0.8385
  453MOL0     H59787   9.294   8.502   9.187 -1.0748 -0.4977  0.9706
  453MOL0     H59788   9.049   8.464   9.035  1.0889  2.3575 -0.4231
  453MOL0     H59789   9.101   8.387   9.192 -2.1354  0.1380  1.5691
  453MOL0     H59790   9.022   8.628   9.297 -1.2806 -0.1848  0.7693
  453MOL0     H59791   8.910   8.498   9.260  0.7274 -0.4797  1.4058
  453MOL0     H59792   8.982   8.744   9.096 -0.3733  2.5891  4.4478
  453MOL0     H59793   8.864   8.619   9.038  4.1799  0.4882 -1.2794
  453MOL0     H59794   8.658   8.789   9.364  1.2188  4.5473 -0.9810
  453MOL0     H59795   9.465   8.700   9.018  1.8599  0.4033  0.1710
  453MOL0     H59796   9.691   8.638   8.993  2.6805 -0.3172 -3.4587
  454MOL0     O59797   9.477   8.422   6.401 -0.2104 -0.2485 -1.2421
  454MOL0     C59798   9.367   8.371   6.435  0.0812  0.0461  0.1429
  454MOL0     O59799   9.350   8.239   6.471 -0.4975 -0.1854 -0.4526
  454MOL0     C59800   9.447   8.140   6.463 -0.6482  0.2164 -0.4186
  454MOL0     C59801   9.576   8.167   6.517 -0.0935  0.6391 -0.2619
  454MOL0     C59802   9.676   8.065   6.529  0.0680 -0.6308 -0.2566
  454MOL0     C59803   9.640   7.940   6.490  0.5733 -0.3238  0.0403
  454MOL0     O59804   9.743   7.842   6.505  0.0442  0.2387  0.4206
  454MOL0     C59805   9.844   7.845   6.405 -1.0428 -0.3229 -0.4507
  454MOL0     C59806   9.805   7.804   6.261 -0.1424  0.9888  0.6537
  454MOL0     C59807   9.917   7.747   6.182  0.2065  0.7048  0.2438
  454MOL0     C59808  10.033   7.678   6.253 -0.1358  0.5304  0.1146
  454MOL0     C59809  10.122   7.592   6.148 -0.2134 -0.4734  0.0301
  454MOL0     C59810  10.229   7.509   6.223 -0.1232 -0.0483 -0.1255
  454MOL0     C59811  10.287   7.406   6.129  0.4741 -0.2704 -0.0506
  454MOL0     C59812  10.382   7.470   6.020  0.7796  0.3107  0.0391
  454MOL0     N59813  10.435   7.370   5.935 -0.1226  1.3985  0.6903
  454MOL0     C59814  10.359   7.305   5.836  0.6486 -0.3421  0.0578
  454MOL0     C59815  10.439   7.206   5.796 -0.0971 -0.1530  0.6916
  454MOL0     C59816  10.431   7.106   5.686  0.7661 -0.3164  0.0781
  454MOL0     C59817  10.369   7.157   5.555 -0.3432  0.7685  1.3920
  454MOL0     C59818  10.233   7.224   5.566  0.7876  0.4159  0.1117
  454MOL0     C59819  10.139   7.206   5.446  0.5178 -0.0422 -1.3219
  454MOL0     O59820  10.012   7.259   5.489 -0.0513  0.1262 -0.1612
  454MOL0     C59821   9.905   7.239   5.407  0.7774  0.2891 -0.4115
  454MOL0     C59822   9.786   7.293   5.459  0.3814 -0.8356 -0.6683
  454MOL0     C59823   9.676   7.312   5.376  0.6281  0.3609 -0.1190
  454MOL0     C59824   9.677   7.264   5.244 -0.4569  0.1433  0.6396
  454MOL0     C59825   9.552   7.283   5.166  0.2913 -0.2210  0.0613
  454MOL0     O59826   9.522   7.192   5.070  1.0184  0.1388 -0.3632
  454MOL0     C59827   9.405   7.205   5.005  0.0362 -1.7403  1.1125
  454MOL0     C59828   9.406   7.216   4.867 -0.1586 -0.3570  0.1869
  454MOL0     C59829   9.296   7.216   4.793  0.6410 -0.5656 -0.4596
  454MOL0     C59830   9.164   7.207   4.854 -0.2845  0.1334  0.3641
  454MOL0     O59831   9.064   7.205   4.767  0.2441 -0.7851 -0.7922
  454MOL0     C59832   8.926   7.205   4.822  0.1955  0.1350 -0.2354
  454MOL0     C59833   8.828   7.187   4.712  0.9809 -0.3743 -0.4176
  454MOL0     C59834   8.688   7.158   4.769  0.1751  1.2379  0.4468
  454MOL0     C59835   8.620   7.280   4.836  0.1660  0.3105  0.2006
  454MOL0     C59836   8.498   7.243   4.921 -0.1302  0.1135  0.4591
  454MOL0     C59837   8.378   7.201   4.844  0.4389  0.7131 -0.2875
  454MOL0     C59838   8.287   7.118   4.931 -0.4152 -0.1618 -0.4389
  454MOL0     C59839   8.145   7.108   4.872 -0.5235 -0.9277  0.2148
  454MOL0    Cl59840   8.058   7.238   4.941  0.0607 -0.3114 -0.1137
  454MOL0     C59841   9.160   7.186   4.990  1.0195 -0.2119 -0.2936
  454MOL0     C59842   9.279   7.192   5.068 -0.2413 -0.9656  0.6998
  454MOL0     O59843   9.475   7.378   5.198 -0.3797  0.4933 -0.5260
  454MOL0     C59844   9.801   7.209   5.192  0.0115  0.6470  0.7517
  454MOL0     C59845   9.912   7.192   5.282  0.5575 -0.1039  0.6582
  454MOL0     N59846  10.563   7.209   5.864  0.5347  0.0442 -0.0576
  454MOL0     N59847  10.563   7.322   5.935  0.4352  0.7246 -0.0566
  454MOL0     C59848   9.525   7.908   6.428  0.4662  0.0043 -0.5827
  454MOL0     C59849   9.426   8.010   6.427  0.3053  0.0219 -0.4294
  454MOL0     C59850   9.254   8.461   6.420 -0.5654  1.1739  0.5317
  454MOL0     C59851   9.270   8.593   6.378  0.4371  0.4861 -1.0004
  454MOL0     C59852   9.162   8.676   6.377 -0.2450  0.5365 -0.1419
  454MOL0     C59853   9.037   8.633   6.425  0.4860  0.1145 -0.0897
  454MOL0     O59854   8.933   8.721   6.415  0.5153  0.0826 -0.7174
  454MOL0     C59855   8.802   8.691   6.475  0.3106 -0.4185  0.1758
  454MOL0     C59856   8.742   8.831   6.460 -0.6755  0.8247  0.1169
  454MOL0     C59857   8.613   8.839   6.542  0.1799 -1.1704 -0.0360
  454MOL0     C59858   8.487   8.779   6.484  0.3248 -0.3455  0.2543
  454MOL0     C59859   8.462   8.838   6.347 -0.0876  1.3194 -1.1562
  454MOL0     C59860   8.424   8.888   6.242 -0.3662 -0.0178 -1.2016
  454MOL0     C59861   9.017   8.495   6.471 -0.0283 -0.3915 -0.1780
  454MOL0     C59862   9.128   8.416   6.463 -0.7086 -0.5512  1.4151
  454MOL0     H59863   9.614   8.257   6.566 -2.8207  0.5860  2.2148
  454MOL0     H59864   9.768   8.080   6.585 -0.2501 -2.1714  0.7398
  454MOL0     H59865   9.927   7.781   6.437  0.4138  2.3905  1.6747
  454MOL0     H59866   9.888   7.945   6.407 -1.1248 -0.2598  2.6443
  454MOL0     H59867   9.753   7.874   6.196  0.3256 -0.3250 -1.2004
  454MOL0     H59868   9.743   7.715   6.273  0.7283  0.2415 -0.2610
  454MOL0     H59869   9.971   7.825   6.128  2.0089 -1.4843 -1.3191
  454MOL0     H59870   9.872   7.678   6.110  1.6478 -0.5589  0.4879
  454MOL0     H59871  10.103   7.749   6.297 -2.8567  1.3784  3.5114
  454MOL0     H59872   9.991   7.606   6.324 -1.6407  1.3051  0.0352
  454MOL0     H59873  10.172   7.675   6.098  2.7792 -0.6518  2.4592
  454MOL0     H59874  10.060   7.526   6.086 -0.2947  0.4110 -0.8622
  454MOL0     H59875  10.192   7.461   6.314  1.3146 -0.4276  0.3028
  454MOL0     H59876  10.305   7.569   6.274  0.1834  0.1256 -0.7680
  454MOL0     H59877  10.353   7.345   6.191  0.1849 -1.7199 -1.1171
  454MOL0     H59878  10.200   7.356   6.086  1.9430 -1.8950 -1.2626
  454MOL0     H59879  10.463   7.524   6.069  0.1708  0.5602  0.8008
  454MOL0     H59880  10.328   7.544   5.960 -1.8563 -0.4134  1.3377
  454MOL0     H59881  10.257   7.331   5.808  0.4388 -0.4272  0.7408
  454MOL0     H59882  10.365   7.023   5.710 -1.1256  1.3409  0.9203
  454MOL0     H59883  10.530   7.059   5.678  0.0058 -2.1302  0.8410
  454MOL0     H59884  10.353   7.067   5.494 -0.2350  3.4082 -3.0209
  454MOL0     H59885  10.429   7.220   5.489  1.1798 -1.4991  0.5099
  454MOL0     H59886  10.184   7.180   5.653  3.4202 -0.8468  1.0570
  454MOL0     H59887  10.246   7.332   5.573  0.0807  0.7383 -2.5450
  454MOL0     H59888  10.127   7.098   5.432  0.5302 -0.2646  0.1926
  454MOL0     H59889  10.166   7.265   5.358  3.6440 -0.3444 -0.6706
  454MOL0     H59890   9.782   7.332   5.560 -0.5750 -1.2461 -0.5398
  454MOL0     H59891   9.595   7.373   5.413  0.5458  0.5260 -0.5627
  454MOL0     H59892   9.506   7.219   4.824  0.3495  3.0329  1.3120
  454MOL0     H59893   9.294   7.208   4.685 -1.6314 -0.0762 -0.5010
  454MOL0     H59894   8.915   7.306   4.863  4.1609  1.4902 -2.0511
  454MOL0     H59895   8.903   7.133   4.900 -1.0000 -0.6714 -1.2815
  454MOL0     H59896   8.862   7.101   4.655  0.7980 -1.8227  1.5681
  454MOL0     H59897   8.822   7.273   4.644 -1.0665 -0.2723 -0.1707
  454MOL0     H59898   8.702   7.084   4.848  0.8214  2.1077  1.1672
  454MOL0     H59899   8.621   7.118   4.692 -0.1598 -1.5729  2.0654
  454MOL0     H59900   8.692   7.333   4.899  0.6671  2.6984 -2.1995
  454MOL0     H59901   8.583   7.352   4.763  1.6167 -0.3093 -1.1931
  454MOL0     H59902   8.470   7.330   4.981  0.0270 -0.3431  1.2068
  454MOL0     H59903   8.527   7.157   4.982  0.8115  1.2902  1.7375
  454MOL0     H59904   8.397   7.136   4.759 -3.0041 -1.1735  0.2197
  454MOL0     H59905   8.334   7.295   4.807  0.1657  0.7424  0.1090
  454MOL0     H59906   8.318   7.014   4.919  1.2727  0.4676 -2.0711
  454MOL0     H59907   8.292   7.123   5.040  0.7172 -2.7011 -0.2883
  454MOL0     H59908   8.109   7.011   4.907  0.7482 -1.8757 -0.9841
  454MOL0     H59909   8.153   7.115   4.763  2.0980  2.7378  0.4449
  454MOL0     H59910   9.064   7.190   5.039  1.0006  1.3241 -0.4190
  454MOL0     H59911   9.268   7.188   5.176  1.8571 -4.8645  0.9441
  454MOL0     H59912   9.811   7.164   5.093  0.8246  0.1314  1.0631
  454MOL0     H59913  10.006   7.150   5.248 -0.8963 -2.0068 -1.3015
  454MOL0     H59914   9.496   7.811   6.389  0.7455 -1.0424  1.6560
  454MOL0     H59915   9.325   7.978   6.405  0.8438 -0.1423 -2.9640
  454MOL0     H59916   9.371   8.619   6.349  2.0754 -0.7710  2.9023
  454MOL0     H59917   9.176   8.779   6.344 -2.0084  0.6189 -0.7602
  454MOL0     H59918   8.812   8.650   6.576 -3.8433 -2.2334  0.0696
  454MOL0     H59919   8.745   8.613   6.425  2.3831 -3.2906  1.9897
  454MOL0     H59920   8.803   8.911   6.503  2.1894 -0.7465 -0.7755
  454MOL0     H59921   8.736   8.849   6.352  0.0075 -0.5284 -0.1712
  454MOL0     H59922   8.580   8.942   6.560 -2.4152 -1.7663 -0.9807
  454MOL0     H59923   8.637   8.799   6.641  1.3423  1.4235  0.8365
  454MOL0     H59924   8.485   8.670   6.480  1.4182 -0.3569 -2.0751
  454MOL0     H59925   8.412   8.800   6.560  2.3587 -0.9398  2.5267
  454MOL0     H59926   8.391   8.954   6.165 -2.8687  3.3366  2.3484
  454MOL0     H59927   8.932   8.462   6.530 -1.4078  2.0207 -0.7208
  454MOL0     H59928   9.130   8.315   6.501  0.2677  0.2477  3.6900
  455MOL0     O59929   9.998   3.233   7.165 -0.1743 -0.2068  0.0585
  455MOL0     C59930  10.058   3.170   7.078  0.3805  0.2257 -0.8990
  455MOL0     O59931  10.001   3.133   6.962 -0.4144  0.9163 -0.4357
  455MOL0     C59932   9.889   3.183   6.906 -0.0791 -0.1842 -0.3599
  455MOL0     C59933   9.851   3.319   6.909 -0.5694  0.8019  0.0027
  455MOL0     C59934   9.724   3.352   6.848 -0.2342  0.3515  0.2043
  455MOL0     C59935   9.646   3.250   6.794  0.0117  0.3247  0.1546
  455MOL0     O59936   9.514   3.279   6.786  0.0098 -0.8659 -0.8986
  455MOL0     C59937   9.423   3.165   6.782  0.0871  0.0490 -0.0245
  455MOL0     C59938   9.284   3.220   6.762  1.7386  0.6365  0.1892
  455MOL0     C59939   9.184   3.121   6.698 -1.0619 -0.6382 -0.0177
  455MOL0     C59940   9.041   3.198   6.686  1.1343 -0.1152 -0.1655
  455MOL0     C59941   8.923   3.104   6.645  0.4253  0.1087 -0.3529
  455MOL0     C59942   8.919   3.074   6.491  0.3056  0.2392 -0.0046
  455MOL0     C59943   8.866   3.181   6.404  0.2312  0.1186 -0.7510
  455MOL0     C59944   8.840   3.141   6.258 -0.1993 -0.5542  0.2135
  455MOL0     N59945   8.962   3.108   6.181 -0.0893  0.4816 -0.3676
  455MOL0     C59946   9.070   3.194   6.164 -0.2258 -0.5956 -0.2988
  455MOL0     C59947   9.151   3.115   6.088 -0.1807  0.4891 -0.1872
  455MOL0     C59948   9.290   3.134   6.032 -0.2189 -0.4664  0.7236
  455MOL0     C59949   9.342   3.280   6.036 -1.1050  0.7700  1.2479
  455MOL0     C59950   9.470   3.300   5.948  0.2294  0.1582  0.4467
  455MOL0     C59951   9.602   3.222   6.004  0.7120  0.3281  0.8451
  455MOL0     O59952   9.683   3.185   5.886 -0.4191 -0.2255  0.1318
  455MOL0     C59953   9.823   3.171   5.893 -0.4647 -0.1352  0.5715
  455MOL0     C59954   9.891   3.167   5.767  0.1443  0.5177 -0.3243
  455MOL0     C59955  10.027   3.138   5.753  1.3534  0.0082  0.4235
  455MOL0     C59956  10.101   3.123   5.867  0.2350  0.6116 -0.0724
  455MOL0     C59957  10.242   3.087   5.857  0.3781 -0.0856  0.3605
  455MOL0     O59958  10.312   3.072   5.980  0.5808  0.0454  0.3196
  455MOL0     C59959  10.450   3.072   5.989  0.4032 -0.6903 -0.3847
  455MOL0     C59960  10.497   3.169   6.080  0.8496  0.2086 -0.0642
  455MOL0     C59961  10.634   3.168   6.123  0.0264 -0.0711  0.0476
  455MOL0     C59962  10.715   3.074   6.079  0.3990 -0.4295 -0.1988
  455MOL0     O59963  10.832   3.047   6.142 -0.1742 -0.5154 -0.6642
  455MOL0     C59964  10.913   3.151   6.203  0.1748 -0.1838 -0.7197
  455MOL0     C59965  10.953   3.267   6.110  0.5111 -0.0454 -0.0476
  455MOL0     C59966  10.998   3.220   5.974 -0.7491 -0.3738 -0.1640
  455MOL0     C59967  11.138   3.150   5.976  0.0777 -0.0003 -0.7562
  455MOL0     C59968  11.252   3.256   5.976  1.2409  0.3247  1.3484
  455MOL0     C59969  11.370   3.211   6.053 -0.1545  0.6225  0.1666
  455MOL0     C59970  11.419   3.069   5.999 -0.2358  0.0954 -0.1187
  455MOL0     C59971  11.570   3.067   6.006 -0.1615  0.9539 -0.1824
  455MOL0    Cl59972  11.633   2.899   6.031  0.0576  0.2239 -0.1262
  455MOL0     C59973  10.676   2.995   5.974  0.2192 -0.0819 -1.1021
  455MOL0     C59974  10.538   2.992   5.917 -0.0403 -0.3798  0.5764
  455MOL0     O59975  10.292   3.075   5.745 -0.0471 -0.2174  0.0483
  455MOL0     C59976  10.036   3.134   6.001 -0.1547  0.1122  0.2903
  455MOL0     C59977   9.898   3.149   6.008  0.1224 -0.3043  0.3578
  455MOL0     N59978   9.111   2.992   6.066 -0.2562  0.3460  0.2895
  455MOL0     N59979   8.996   2.987   6.117  0.2232  0.2504  0.2932
  455MOL0     C59980   9.697   3.121   6.779  0.0330 -0.0301 -0.4357
  455MOL0     C59981   9.816   3.090   6.835  0.7380 -0.6648 -0.6495
  455MOL0     C59982  10.197   3.144   7.092 -0.0892 -0.9049  0.7227
  455MOL0     C59983  10.260   3.177   7.213  0.4544 -0.6799  0.1825
  455MOL0     C59984  10.391   3.169   7.220  0.5684  0.4308 -0.7406
  455MOL0     C59985  10.473   3.124   7.119 -1.1331  0.0687  0.8092
  455MOL0     O59986  10.608   3.106   7.138 -0.0472  0.4344 -0.2119
  455MOL0     C59987  10.694   3.073   7.021  0.0398 -0.4686  0.2923
  455MOL0     C59988  10.845   3.066   7.048 -0.5501  0.5403 -0.3230
  455MOL0     C59989  10.897   2.963   7.138 -0.1630  0.6790  0.6240
  455MOL0     C59990  10.911   2.824   7.065  0.1278 -0.9268  0.0084
  455MOL0     C59991  10.987   2.813   6.939  0.5573  0.7433  0.7270
  455MOL0     C59992  11.051   2.815   6.839  0.7207 -0.7904 -0.4548
  455MOL0     C59993  10.411   3.090   7.001 -0.9330 -0.5018  0.4070
  455MOL0     C59994  10.266   3.089   6.991 -0.9839 -0.3790  0.3304
  455MOL0     H59995   9.912   3.396   6.956  1.8031 -1.5717  1.1011
  455MOL0     H59996   9.702   3.458   6.850 -0.1328  0.3778  0.0093
  455MOL0     H59997   9.434   3.122   6.883  0.8035  0.0140 -0.1122
  455MOL0     H59998   9.455   3.101   6.699  2.2096 -0.5068  1.1242
  455MOL0     H59999   9.298   3.307   6.697  2.0919  0.7149  0.3689
  455MOL0     H60000   9.248   3.258   6.858  0.8957  1.0048 -0.2618
  455MOL0     H60001   9.165   3.036   6.764 -5.2627  0.6158  0.6972
  455MOL0     H60002   9.222   3.092   6.600 -2.4604 -1.2711 -0.4019
  455MOL0     H60003   9.027   3.228   6.791 -1.0602  2.3360 -1.0503
  455MOL0     H60004   9.050   3.286   6.622  1.9232 -0.8961 -1.1511
  455MOL0     H60005   8.832   3.157   6.675  2.7758  2.5669  3.2520
  455MOL0     H60006   8.926   3.015   6.709  1.6133  0.1728 -0.2882
  455MOL0     H60007   8.853   2.987   6.478  0.0959  0.7811 -3.3906
  455MOL0     H60008   9.023   3.052   6.469  1.2079  1.7569  2.3551
  455MOL0     H60009   8.766   3.213   6.435  0.4006  0.3791 -0.4736
  455MOL0     H60010   8.935   3.264   6.421 -0.6189  0.6324  0.2569
  455MOL0     H60011   8.798   3.226   6.204  1.1085  0.2030  0.3456
  455MOL0     H60012   8.757   3.069   6.252 -1.1819  0.4633  1.1857
  455MOL0     H60013   9.084   3.295   6.200 -2.1122  0.1402 -1.4627
  455MOL0     H60014   9.273   3.107   5.927  0.1988 -2.5293  1.1298
  455MOL0     H60015   9.359   3.057   6.069  3.6049  0.7006 -3.1373
  455MOL0     H60016   9.357   3.301   6.143  0.4204  1.4686  0.9319
  455MOL0     H60017   9.262   3.348   6.004 -3.2638 -2.4325 -0.6593
  455MOL0     H60018   9.452   3.266   5.846  3.6737 -0.8132  0.0222
  455MOL0     H60019   9.501   3.404   5.930 -1.4083  0.7492  0.8805
  455MOL0     H60020   9.588   3.128   6.057  1.3961 -1.1272 -1.4009
  455MOL0     H60021   9.656   3.290   6.070  0.9547  0.5331  0.4398
  455MOL0     H60022   9.827   3.196   5.684 -1.0104  1.3365  0.8174
  455MOL0     H60023  10.075   3.137   5.656 -1.5647  0.8611 -1.1509
  455MOL0     H60024  10.429   3.249   6.109  0.3520 -0.8528  1.8410
  455MOL0     H60025  10.659   3.239   6.201 -1.6900  0.5798  0.0667
  455MOL0     H60026  11.004   3.104   6.243 -0.0607  0.5713  0.7678
  455MOL0     H60027  10.863   3.194   6.290  0.6555 -0.5075 -0.2746
  455MOL0     H60028  11.030   3.321   6.165 -0.8635  1.5060  0.4626
  455MOL0     H60029  10.866   3.333   6.096  0.2204 -0.2926  0.5564
  455MOL0     H60030  11.020   3.307   5.911 -1.1488  0.5162  0.9002
  455MOL0     H60031  10.922   3.157   5.929 -1.9750  0.8706  0.0962
  455MOL0     H60032  11.151   3.086   6.063 -2.4644 -0.8151 -0.9050
  455MOL0     H60033  11.143   3.080   5.892 -2.2448 -1.2737  0.0755
  455MOL0     H60034  11.211   3.354   6.002  3.7063  1.6241  0.6300
  455MOL0     H60035  11.283   3.266   5.872 -0.8902 -2.0699  0.3855
  455MOL0     H60036  11.343   3.217   6.159 -1.1407 -0.0873 -0.0277
  455MOL0     H60037  11.455   3.280   6.057 -0.5574  1.1979 -0.8631
  455MOL0     H60038  11.384   2.996   6.072 -3.3653  1.8991  0.3473
  455MOL0     H60039  11.381   3.034   5.903  0.1677  0.3839 -0.3904
  455MOL0     H60040  11.617   3.136   6.077 -0.4051 -0.5887  1.5405
  455MOL0     H60041  11.612   3.095   5.908  0.7888 -0.9285 -0.3551
  455MOL0     H60042  10.758   2.942   5.927  0.9156  0.0851 -0.1143
  455MOL0     H60043  10.508   2.926   5.836  0.0320  0.2941 -0.0050
  455MOL0     H60044  10.091   3.131   6.095 -0.8535  1.4385  0.7795
  455MOL0     H60045   9.844   3.158   6.102 -0.3449  0.6737  0.0058
  455MOL0     H60046   9.646   3.033   6.738 -1.5006  0.3755  0.5118
  455MOL0     H60047   9.850   2.988   6.848  2.6970  0.1113  0.7246
  455MOL0     H60048  10.197   3.200   7.298 -0.0378 -1.2169 -0.0274
  455MOL0     H60049  10.423   3.200   7.319 -2.8378 -1.1413  0.9981
  455MOL0     H60050  10.682   3.150   6.945 -0.8179 -0.7666  0.1152
  455MOL0     H60051  10.651   2.984   6.974 -0.3474 -2.1285  3.5230
  455MOL0     H60052  10.905   3.064   6.957  0.2276 -1.5886  0.1632
  455MOL0     H60053  10.856   3.159   7.105  1.9857 -0.8520  1.7543
  455MOL0     H60054  10.834   2.948   7.226  0.5056  0.3561  1.0490
  455MOL0     H60055  10.998   2.992   7.166 -0.5664  1.3198  1.4257
  455MOL0     H60056  10.956   2.761   7.143  1.8483  2.1646  1.7005
  455MOL0     H60057  10.806   2.798   7.052 -0.1221  1.0806 -2.9634
  455MOL0     H60058  11.110   2.824   6.750  2.7477 -2.8780  0.5636
  455MOL0     H60059  10.471   3.052   6.919  2.4829 -1.5155  3.1222
  455MOL0     H60060  10.224   3.057   6.897 -0.4759  0.1283 -0.0791
  456MOL0     O60061   3.967   5.967   9.399 -0.0831  0.6792  0.8081
  456MOL0     C60062   3.937   5.946   9.277  0.3082 -0.9311 -0.2496
  456MOL0     O60063   4.023   5.916   9.181  0.2747 -0.1650  0.4094
  456MOL0     C60064   4.163   5.910   9.198 -0.5631  0.0556 -0.6407
  456MOL0     C60065   4.231   5.837   9.097  0.1422 -0.5705 -0.7691
  456MOL0     C60066   4.372   5.833   9.094  0.1351 -0.7885  0.1660
  456MOL0     C60067   4.445   5.913   9.181  0.2434  0.6971  0.4546
  456MOL0     O60068   4.584   5.904   9.169  0.0041 -0.4444  0.1431
  456MOL0     C60069   4.652   5.874   9.290  0.0075  0.6621  0.5693
  456MOL0     C60070   4.793   5.829   9.271  0.2862 -0.2764  0.1029
  456MOL0     C60071   4.796   5.710   9.172  0.2458 -0.4029 -0.8056
  456MOL0     C60072   4.753   5.583   9.256 -0.0691  0.6988  0.8069
  456MOL0     C60073   4.812   5.465   9.175  0.5722 -0.0341 -0.1488
  456MOL0     C60074   4.741   5.411   9.044 -0.0640  0.4486  0.2934
  456MOL0     C60075   4.592   5.397   9.066  1.0145  1.2049 -0.0155
  456MOL0     C60076   4.518   5.308   8.971 -0.5586 -0.0862 -0.6707
  456MOL0     N60077   4.376   5.304   8.985  0.5571  0.5072 -0.9543
  456MOL0     C60078   4.284   5.409   8.992  0.7270  0.1698 -0.9054
  456MOL0     C60079   4.165   5.351   9.028  0.3217  0.9465  0.2660
  456MOL0     C60080   4.040   5.428   9.063 -0.3817  0.0585 -0.0821
  456MOL0     C60081   3.924   5.339   9.113 -1.6257 -0.4228 -0.1112
  456MOL0     C60082   3.789   5.424   9.111 -1.3991  0.6768  0.5483
  456MOL0     C60083   3.675   5.341   9.157  0.9471 -0.6474  0.6429
  456MOL0     O60084   3.552   5.400   9.132 -0.2199  0.4170  0.2177
  456MOL0     C60085   3.435   5.352   9.189 -0.3904 -0.3160 -0.0071
  456MOL0     C60086   3.417   5.232   9.251  0.3794 -0.2303  0.0961
  456MOL0     C60087   3.290   5.190   9.304 -0.6089  0.1626  0.1436
  456MOL0     C60088   3.175   5.276   9.294 -1.1334  0.1388  0.1195
  456MOL0     C60089   3.051   5.236   9.346  1.0386  0.1585 -0.5494
  456MOL0     O60090   3.035   5.115   9.411 -0.1670 -0.1098  0.0168
  456MOL0     C60091   2.916   5.086   9.469 -0.0667  0.1564  0.4120
  456MOL0     C60092   2.814   5.008   9.407  0.3843 -0.5192 -0.2888
  456MOL0     C60093   2.694   4.982   9.481 -0.4710 -0.0001 -0.0894
  456MOL0     C60094   2.676   5.035   9.612 -0.1920  0.7125  0.8965
  456MOL0     O60095   2.557   4.996   9.668  0.4916 -0.0837 -0.9630
  456MOL0     C60096   2.497   5.093   9.745  0.1813 -0.7377 -0.1329
  456MOL0     C60097   2.345   5.067   9.729 -0.7590 -0.0552  0.4856
  456MOL0     C60098   2.245   5.137   9.821 -0.9785  0.1281  0.8161
  456MOL0     C60099   2.103   5.095   9.788  0.6964  0.6582 -0.1024
  456MOL0     C60100   2.018   5.107   9.913  0.2463 -0.3353 -0.0414
  456MOL0     C60101   1.869   5.082   9.891  0.2226 -0.4436 -0.2051
  456MOL0     C60102   1.790   5.102  10.026 -0.2497 -0.3331  0.6115
  456MOL0     C60103   1.638   5.052  10.024 -0.5100 -0.1102  0.5189
  456MOL0    Cl60104   1.532   5.158   9.923 -0.1748  0.2339  1.0782
  456MOL0     C60105   2.783   5.106   9.669  0.2514  0.7771 -0.1962
  456MOL0     C60106   2.905   5.127   9.602 -0.1843 -0.7970  0.7601
  456MOL0     O60107   2.963   5.319   9.332 -0.2789 -0.8097 -0.4559
  456MOL0     C60108   3.198   5.406   9.236  0.4763 -0.2531  0.3866
  456MOL0     C60109   3.320   5.440   9.182 -0.5537  1.0635 -1.0680
  456MOL0     N60110   4.186   5.211   9.038  0.3220 -0.1610  0.8757
  456MOL0     N60111   4.307   5.184   9.002  0.2641 -0.3972  0.3991
  456MOL0     C60112   4.381   5.972   9.291  0.1960  0.3994 -0.3874
  456MOL0     C60113   4.235   5.982   9.293 -0.4666 -0.1908 -0.3334
  456MOL0     C60114   3.789   5.958   9.243  0.0666 -0.2602  0.5750
  456MOL0     C60115   3.744   5.930   9.111 -0.2331  0.0349 -0.9362
  456MOL0     C60116   3.608   5.944   9.084  0.1709 -0.5204 -0.2162
  456MOL0     C60117   3.514   5.968   9.185 -0.3834 -0.7332 -0.8556
  456MOL0     O60118   3.388   5.978   9.144  0.1812 -0.3968 -0.3825
  456MOL0     C60119   3.289   6.045   9.225  0.1193  0.1082  0.1712
  456MOL0     C60120   3.144   6.022   9.159  0.4558 -0.0820 -0.4647
  456MOL0     C60121   3.118   5.865   9.136  0.2419  0.1619 -0.1441
  456MOL0     C60122   2.966   5.844   9.090 -0.1168  0.3174  0.8682
  456MOL0     C60123   2.925   5.699   9.092  0.2118 -0.5702 -0.8059
  456MOL0     C60124   2.905   5.584   9.117  0.6893  0.0027  0.4262
  456MOL0     C60125   3.562   5.988   9.313  0.9902 -0.8332  0.3409
  456MOL0     C60126   3.699   5.990   9.342 -0.8418 -1.3967  0.1896
  456MOL0     H60127   4.176   5.785   9.020  0.7799 -3.6882  0.7009
  456MOL0     H60128   4.421   5.780   9.013 -1.6697  0.2082 -1.6632
  456MOL0     H60129   4.591   5.792   9.329  1.7481 -1.6368 -1.2334
  456MOL0     H60130   4.659   5.954   9.364  3.7358 -0.0711  1.2368
  456MOL0     H60131   4.833   5.796   9.367 -1.0536  1.0011  1.1545
  456MOL0     H60132   4.857   5.905   9.225 -0.4737  0.0584 -0.4039
  456MOL0     H60133   4.899   5.690   9.143  0.4846  0.6607 -0.7026
  456MOL0     H60134   4.733   5.720   9.083 -0.4649  2.0596 -0.0984
  456MOL0     H60135   4.792   5.584   9.358  3.5442  1.0028 -0.4054
  456MOL0     H60136   4.644   5.578   9.252 -0.0917  1.1363  0.8031
  456MOL0     H60137   4.798   5.385   9.248 -3.0025 -2.0895 -2.7821
  456MOL0     H60138   4.920   5.476   9.162  0.3455  1.0476 -1.3185
  456MOL0     H60139   4.784   5.313   9.021  2.1195  1.0847  1.4181
  456MOL0     H60140   4.758   5.471   8.954  1.2706  1.3062  1.0962
  456MOL0     H60141   4.577   5.349   9.163  1.1411 -1.6110 -1.2815
  456MOL0     H60142   4.541   5.493   9.062 -3.7132 -0.9472  0.9646
  456MOL0     H60143   4.570   5.212   8.978  3.0702  1.7679  0.4302
  456MOL0     H60144   4.530   5.330   8.864 -0.4266 -0.4494 -0.7299
  456MOL0     H60145   4.304   5.515   8.978 -2.2363  1.2391  1.8513
  456MOL0     H60146   4.006   5.484   8.975  1.3765 -0.3598 -1.0992
  456MOL0     H60147   4.073   5.495   9.143 -0.2359 -2.5549  2.2022
  456MOL0     H60148   3.940   5.311   9.218 -1.6037  0.1623  0.0461
  456MOL0     H60149   3.910   5.251   9.050 -2.8333 -2.0521  2.2666
  456MOL0     H60150   3.801   5.525   9.151  4.0878  1.1451 -1.4527
  456MOL0     H60151   3.772   5.442   9.004  2.0356 -1.3465 -0.4785
  456MOL0     H60152   3.683   5.317   9.263 -0.0348  0.0037  0.8721
  456MOL0     H60153   3.667   5.239   9.117  2.1058 -0.0928 -1.1158
  456MOL0     H60154   3.501   5.164   9.260 -1.1617 -1.9274  4.8237
  456MOL0     H60155   3.294   5.092   9.351 -0.5035  0.9661  1.8670
  456MOL0     H60156   2.820   4.977   9.303  0.5814 -1.0177 -0.1313
  456MOL0     H60157   2.619   4.921   9.430 -2.3934  0.2393  2.2677
  456MOL0     H60158   2.521   5.194   9.712 -1.0759 -1.3876 -3.3459
  456MOL0     H60159   2.518   5.069   9.850  2.5131 -1.9173 -0.8150
  456MOL0     H60160   2.335   4.958   9.733 -1.8017 -0.2760 -3.6469
  456MOL0     H60161   2.319   5.081   9.624  2.1173 -2.8228 -0.7361
  456MOL0     H60162   2.260   5.245   9.820  1.7257 -0.1616  1.0601
  456MOL0     H60163   2.267   5.106   9.924  1.1844 -5.0049 -0.8476
  456MOL0     H60164   2.069   5.164   9.711  1.0407  3.6093  2.2404
  456MOL0     H60165   2.098   4.998   9.737  1.4858  1.9837 -2.9153
  456MOL0     H60166   2.033   5.206   9.955 -0.6345 -0.7893  1.4328
  456MOL0     H60167   2.050   5.028   9.982  0.7722 -0.9941 -1.0175
  456MOL0     H60168   1.841   4.982   9.857  0.0101 -0.4312 -0.0667
  456MOL0     H60169   1.829   5.154   9.819  2.8356  0.0485 -1.2800
  456MOL0     H60170   1.847   5.043  10.099  0.9411  1.9302  1.6097
  456MOL0     H60171   1.786   5.210  10.043 -2.6327  0.0894 -1.9396
  456MOL0     H60172   1.613   5.048  10.131  0.0926 -0.5573  0.6504
  456MOL0     H60173   1.623   4.952   9.983 -2.2087  0.4042 -0.1906
  456MOL0     H60174   2.769   5.146   9.769  0.4603  1.5282 -0.4573
  456MOL0     H60175   2.983   5.187   9.648 -1.4835  1.7672 -0.2221
  456MOL0     H60176   3.115   5.475   9.226 -1.2399 -1.9002  2.2268
  456MOL0     H60177   3.335   5.535   9.132 -2.3836  1.6549 -0.5658
  456MOL0     H60178   4.438   6.039   9.355 -1.3577 -0.4023  1.9664
  456MOL0     H60179   4.182   6.049   9.361  0.7788  0.7017 -0.1914
  456MOL0     H60180   3.816   5.902   9.036  1.3713  1.7850 -0.1380
  456MOL0     H60181   3.578   5.956   8.981  2.8452  2.3350 -0.8196
  456MOL0     H60182   3.326   6.148   9.226  3.4941 -0.9871  0.9095
  456MOL0     H60183   3.285   6.012   9.329 -0.0495  0.4567  0.2775
  456MOL0     H60184   3.065   6.062   9.223 -0.7148 -0.1062 -1.8455
  456MOL0     H60185   3.142   6.074   9.063 -3.4799  0.4927 -0.2393
  456MOL0     H60186   3.126   5.801   9.224 -4.7065 -0.8992 -0.1445
  456MOL0     H60187   3.187   5.821   9.063 -2.9937 -4.9323 -0.6882
  456MOL0     H60188   2.897   5.900   9.154 -0.5594  0.7922 -0.0221
  456MOL0     H60189   2.956   5.864   8.984  0.4555 -1.6113  0.3980
  456MOL0     H60190   2.889   5.479   9.133 -1.0728  0.3589  1.2739
  456MOL0     H60191   3.492   6.010   9.393  2.4325  3.4180  0.7097
  456MOL0     H60192   3.725   6.013   9.445 -2.8048  0.7219  0.3063
  457MOL0     O60193   0.301   7.269   8.987 -0.0518 -0.4848 -0.4579
  457MOL0     C60194   0.216   7.334   8.925  1.1230  0.4243  0.2682
  457MOL0     O60195   0.080   7.303   8.919 -0.5472 -0.3958  0.3114
  457MOL0     C60196   0.037   7.187   8.978  0.4984  0.1057  0.4395
  457MOL0     C60197   0.029   7.061   8.909 -0.6536  0.0296  0.4555
  457MOL0     C60198  -0.029   6.943   8.964  0.2368  0.4232  0.1059
  457MOL0     C60199  -0.076   6.950   9.094 -0.3558 -0.1587 -0.0916
  457MOL0     O60200  -0.138   6.854   9.162 -0.3268  0.7472 -0.2651
  457MOL0     C60201  -0.129   6.705   9.120  0.8138 -0.0207  0.0555
  457MOL0     C60202  -0.183   6.623   9.233 -0.6487  0.5593  0.5462
  457MOL0     C60203  -0.135   6.479   9.229  0.3402 -0.0852 -0.4549
  457MOL0     C60204  -0.206   6.389   9.131  0.3659 -0.2931 -0.5625
  457MOL0     C60205  -0.144   6.249   9.126 -0.3901 -0.6801 -0.4123
  457MOL0     C60206  -0.225   6.147   9.045  0.5911 -0.0320 -0.4298
  457MOL0     C60207  -0.141   6.017   9.034 -0.0678 -0.2966  0.2794
  457MOL0     C60208  -0.220   5.908   8.957  0.5348  0.4082 -0.2305
  457MOL0     N60209  -0.325   5.853   9.050  1.1275 -0.2181 -0.2321
  457MOL0     C60210  -0.311   5.768   9.152  0.1779  0.2309  0.3038
  457MOL0     C60211  -0.436   5.738   9.199 -0.4914  0.1006 -0.1032
  457MOL0     C60212  -0.458   5.658   9.324 -0.0639 -0.0099 -0.5325
  457MOL0     C60213  -0.413   5.519   9.290  0.9175 -0.3860  0.1017
  457MOL0     C60214  -0.476   5.422   9.391 -0.2193  0.4827 -0.6718
  457MOL0     C60215  -0.609   5.361   9.349 -0.5211  0.9391 -0.5527
  457MOL0     O60216  -0.657   5.288   9.466 -0.3261 -0.4276 -1.1774
  457MOL0     C60217  -0.787   5.258   9.470 -0.3125  0.1233 -0.3451
  457MOL0     C60218  -0.872   5.308   9.571 -0.5786 -0.2763 -0.2877
  457MOL0     C60219  -1.001   5.263   9.596 -0.4012 -0.4807  0.1731
  457MOL0     C60220  -1.054   5.162   9.512  0.7919  0.1965  0.6359
  457MOL0     C60221  -1.201   5.133   9.521  0.0292  0.0186  0.6360
  457MOL0     O60222  -1.262   5.162   9.641 -0.0103  0.0923 -1.4371
  457MOL0     C60223  -1.396   5.153   9.660 -0.2602  0.1806  0.6653
  457MOL0     C60224  -1.466   5.036   9.640 -0.2794 -0.6232  0.1110
  457MOL0     C60225  -1.604   5.029   9.637 -0.1395 -0.4512  0.7694
  457MOL0     C60226  -1.676   5.127   9.698  0.1524  0.5968  0.0349
  457MOL0     O60227  -1.814   5.098   9.717 -0.0535  0.0725 -0.0024
  457MOL0     C60228  -1.895   5.196   9.774  0.0762  0.0369 -0.3469
  457MOL0     C60229  -2.020   5.140   9.848  0.3150 -0.4809  0.4614
  457MOL0     C60230  -2.140   5.099   9.761 -0.0916  0.6337 -0.0336
  457MOL0     C60231  -2.243   5.002   9.829  0.4014  0.1510  0.0993
  457MOL0     C60232  -2.399   5.007   9.773 -0.5841 -0.2515 -1.1699
  457MOL0     C60233  -2.469   5.144   9.805 -0.5133 -0.6176 -0.5983
  457MOL0     C60234  -2.609   5.163   9.739 -0.1694  0.6527  0.1276
  457MOL0     C60235  -2.722   5.097   9.814  0.3194  0.1008 -0.0199
  457MOL0    Cl60236  -2.800   4.975   9.717  0.0245  0.2345  0.1483
  457MOL0     C60237  -1.614   5.249   9.719 -0.6292 -0.1582  1.5555
  457MOL0     C60238  -1.469   5.262   9.699 -0.2739  0.3987 -0.3147
  457MOL0     O60239  -1.267   5.094   9.424  0.3875  0.5717  0.1144
  457MOL0     C60240  -0.977   5.122   9.397  0.0054  0.3351 -0.5426
  457MOL0     C60241  -0.848   5.160   9.378 -0.2882 -0.9876 -0.6871
  457MOL0     N60242  -0.522   5.811   9.122 -0.2848  0.1624 -0.6552
  457MOL0     N60243  -0.463   5.882   9.039 -0.0498  0.7400  0.1880
  457MOL0     C60244  -0.055   7.065   9.169  0.3482  0.0565  0.4812
  457MOL0     C60245   0.003   7.182   9.113 -0.4793  0.1211 -0.0251
  457MOL0     C60246   0.265   7.444   8.832  0.3374  0.2875 -0.4980
  457MOL0     C60247   0.210   7.476   8.708  0.8339  0.5178  0.3396
  457MOL0     C60248   0.273   7.568   8.620 -0.4196 -0.7720  0.4790
  457MOL0     C60249   0.399   7.622   8.649  0.2415  0.1204  0.2482
  457MOL0     O60250   0.461   7.708   8.559  0.5753  0.1681 -0.0415
  457MOL0     C60251   0.449   7.663   8.422 -0.1373 -0.6921 -0.3598
  457MOL0     C60252   0.558   7.731   8.334  0.0492 -0.0964 -0.4910
  457MOL0     C60253   0.516   7.867   8.279 -0.1816  0.1908  0.9018
  457MOL0     C60254   0.564   7.972   8.377  0.0346  0.4605  0.0081
  457MOL0     C60255   0.707   8.000   8.358 -0.0749 -0.1085 -0.3818
  457MOL0     C60256   0.821   8.036   8.329 -0.5289 -0.3000  0.1526
  457MOL0     C60257   0.456   7.586   8.771  0.5171 -0.5366  0.4878
  457MOL0     C60258   0.389   7.502   8.863  0.8787  0.2913  0.0801
  457MOL0     H60259   0.067   7.061   8.807  0.3363  1.3071  0.7919
  457MOL0     H60260  -0.039   6.855   8.902 -3.0177  1.6356 -1.3645
  457MOL0     H60261  -0.025   6.679   9.098  1.5649 -0.7361  3.7678
  457MOL0     H60262  -0.190   6.681   9.033  0.5066  2.1390 -0.3778
  457MOL0     H60263  -0.291   6.613   9.226 -0.4724 -1.6227  0.4187
  457MOL0     H60264  -0.145   6.659   9.329 -2.1607 -0.0364  1.4011
  457MOL0     H60265  -0.155   6.438   9.329 -2.8102 -0.8343 -1.2639
  457MOL0     H60266  -0.028   6.495   9.214  1.1208  2.7267  5.3317
  457MOL0     H60267  -0.311   6.376   9.159  0.1514 -2.2650 -2.0361
  457MOL0     H60268  -0.213   6.445   9.037 -2.1981  2.0989  0.8888
  457MOL0     H60269  -0.122   6.209   9.225  0.7665  0.2977 -0.2559
  457MOL0     H60270  -0.041   6.250   9.089 -0.3580 -0.9438 -0.3307
  457MOL0     H60271  -0.246   6.184   8.944  0.5591  1.4493  0.0908
  457MOL0     H60272  -0.315   6.128   9.104  1.9210 -0.9925  1.3825
  457MOL0     H60273  -0.051   6.037   8.975  1.0388 -1.8590  1.3483
  457MOL0     H60274  -0.126   5.973   9.133  0.1010  0.2728  0.5136
  457MOL0     H60275  -0.151   5.828   8.930  0.1359  0.4925 -1.5305
  457MOL0     H60276  -0.273   5.942   8.868 -4.2971 -0.5556  1.9549
  457MOL0     H60277  -0.217   5.731   9.193  0.4603  1.0017  0.3691
  457MOL0     H60278  -0.564   5.658   9.352  0.2775 -2.2998  0.9664
  457MOL0     H60279  -0.393   5.688   9.407 -1.3070 -2.2979  1.3767
  457MOL0     H60280  -0.304   5.514   9.294  0.9521 -0.2122 -0.4980
  457MOL0     H60281  -0.451   5.492   9.191  1.3080  1.2911 -0.5434
  457MOL0     H60282  -0.402   5.342   9.403 -0.8333  0.0833  0.6176
  457MOL0     H60283  -0.486   5.475   9.486 -2.0093 -0.3086 -0.3625
  457MOL0     H60284  -0.583   5.297   9.264  1.0177 -2.1179  2.0137
  457MOL0     H60285  -0.678   5.441   9.322  0.0827  1.2602 -1.2064
  457MOL0     H60286  -0.833   5.388   9.634 -0.4601 -0.2243 -0.4271
  457MOL0     H60287  -1.070   5.304   9.670 -0.5160  1.6224 -1.0306
  457MOL0     H60288  -1.408   4.951   9.605  1.2686 -0.7083  2.6588
  457MOL0     H60289  -1.658   4.938   9.613 -0.4221 -0.9034  2.9833
  457MOL0     H60290  -1.932   5.272   9.704 -2.2963 -0.9933 -0.3074
  457MOL0     H60291  -1.831   5.249   9.846 -0.6608 -2.3939  2.2875
  457MOL0     H60292  -2.058   5.217   9.916 -3.0064  0.0767 -1.7424
  457MOL0     H60293  -1.987   5.059   9.913 -0.3765 -1.4518 -0.3710
  457MOL0     H60294  -2.103   5.036   9.679  2.3445 -1.0751  2.2067
  457MOL0     H60295  -2.187   5.186   9.714 -4.2812 -1.4514 -0.0750
  457MOL0     H60296  -2.207   4.899   9.838 -0.1986  0.0386  1.4065
  457MOL0     H60297  -2.254   5.034   9.933  0.4302  1.4172 -0.2704
  457MOL0     H60298  -2.446   4.922   9.822  2.3903 -0.9614  0.7164
  457MOL0     H60299  -2.391   4.993   9.665  0.0221  0.4596 -1.2245
  457MOL0     H60300  -2.398   5.226   9.789 -0.4789 -0.5095  0.0505
  457MOL0     H60301  -2.481   5.147   9.914 -2.9358 -1.3882 -0.7993
  457MOL0     H60302  -2.630   5.270   9.736  0.6822  0.8266 -3.0586
  457MOL0     H60303  -2.609   5.121   9.638  1.4578 -1.7175  1.0252
  457MOL0     H60304  -2.796   5.175   9.827  2.6090  2.5142 -0.6553
  457MOL0     H60305  -2.675   5.047   9.900 -0.3088 -3.3521 -1.5005
  457MOL0     H60306  -1.669   5.338   9.745 -1.1847 -0.5143  1.6249
  457MOL0     H60307  -1.432   5.362   9.718 -2.7724  1.3179  0.1677
  457MOL0     H60308  -1.022   5.055   9.324 -0.5131  0.0714  0.0156
  457MOL0     H60309  -0.794   5.128   9.289  0.5461  0.5156 -0.7622
  457MOL0     H60310  -0.078   7.059   9.275  0.2166 -0.1068  0.4431
  457MOL0     H60311   0.018   7.266   9.181  4.6180  0.2917 -0.9824
  457MOL0     H60312   0.111   7.443   8.679  0.8695  0.4835  0.2576
  457MOL0     H60313   0.214   7.595   8.533  1.0250  1.4950  0.1284
  457MOL0     H60314   0.354   7.698   8.381  0.4616  0.2289 -0.9918
  457MOL0     H60315   0.453   7.554   8.418 -0.2511 -0.6755 -0.9190
  457MOL0     H60316   0.649   7.740   8.394  0.2344 -0.4101 -0.7236
  457MOL0     H60317   0.583   7.668   8.248  0.0058 -0.5978 -0.1373
  457MOL0     H60318   0.408   7.881   8.276 -0.0945  1.1171  1.5045
  457MOL0     H60319   0.569   7.897   8.189  0.9811 -0.4853  1.3328
  457MOL0     H60320   0.514   8.068   8.359 -0.8258  0.1927  0.9107
  457MOL0     H60321   0.550   7.936   8.479 -0.8975  2.0098  0.4539
  457MOL0     H60322   0.913   8.082   8.301 -0.9855 -0.0383 -0.9568
  457MOL0     H60323   0.557   7.620   8.791  0.3551 -0.1303  0.6081
  457MOL0     H60324   0.440   7.473   8.954  0.3672  2.9927  1.3155
  458MOL0     O60325  10.278  10.160   5.083  1.1926 -0.9263  0.1541
  458MOL0     C60326  10.318  10.148   4.970 -1.2352 -0.8908  0.7389
  458MOL0     O60327  10.247  10.097   4.861  1.1603 -0.0970  0.3150
  458MOL0     C60328  10.111  10.075   4.875  0.1973  0.2723 -0.1966
  458MOL0     C60329  10.022  10.171   4.921  0.1630  0.3788  0.4871
  458MOL0     C60330   9.884  10.140   4.921 -0.0860  0.2422 -0.1175
  458MOL0     C60331   9.835  10.016   4.853  0.4864 -0.7577 -0.3724
  458MOL0     O60332   9.696  10.014   4.832  0.7718  0.2883 -0.0655
  458MOL0     C60333   9.627   9.886   4.834  0.3403  0.2887  0.2440
  458MOL0     C60334   9.479   9.917   4.846  0.2265  0.0460 -0.4016
  458MOL0     C60335   9.398   9.785   4.871  0.2640  0.0353  1.2077
  458MOL0     C60336   9.252   9.826   4.880  0.2637 -0.2415  0.0633
  458MOL0     C60337   9.169   9.717   4.956  0.4067 -1.2044  0.1435
  458MOL0     C60338   9.032   9.687   4.897 -0.5824  0.2674 -0.1740
  458MOL0     C60339   8.924   9.791   4.900 -0.2233 -0.3008  0.4326
  458MOL0     C60340   8.785   9.721   4.910 -0.6370  0.6695 -0.2089
  458MOL0     N60341   8.687   9.820   4.942  0.0740 -0.7755 -0.2423
  458MOL0     C60342   8.670   9.867   5.067  0.0130  0.4059 -0.2764
  458MOL0     C60343   8.587   9.970   5.054 -0.1487 -0.2868  0.9327
  458MOL0     C60344   8.554  10.075   5.149  0.1586  0.1258  0.1311
  458MOL0     C60345   8.406  10.125   5.163 -0.9754 -0.0430 -0.2341
  458MOL0     C60346   8.296  10.024   5.186  0.0161  0.8071 -0.2466
  458MOL0     C60347   8.174  10.094   5.246 -0.0095 -0.7977  0.4926
  458MOL0     O60348   8.115  10.177   5.146  0.1164 -0.1445 -0.1969
  458MOL0     C60349   7.997  10.245   5.178  0.2231  0.3886 -0.2596
  458MOL0     C60350   7.949  10.322   5.076  0.8689 -0.0531 -0.0795
  458MOL0     C60351   7.834  10.401   5.092 -0.6355  1.2050  0.0415
  458MOL0     C60352   7.776  10.426   5.219 -0.3276  0.7506  0.1944
  458MOL0     C60353   7.672  10.527   5.239  0.4815 -0.0192  1.2499
  458MOL0     O60354   7.641  10.556   5.356 -0.5453 -0.5210 -0.5114
  458MOL0     C60355   7.530  10.631   5.399 -0.4417  0.3247  0.5731
  458MOL0     C60356   7.545  10.690   5.522  0.9903  0.8894 -0.1164
  458MOL0     C60357   7.446  10.771   5.568 -0.3902 -0.3119  0.7616
  458MOL0     C60358   7.319  10.791   5.506 -0.0064  1.5313 -0.3062
  458MOL0     O60359   7.214  10.860   5.568 -0.7036  0.0173 -0.3464
  458MOL0     C60360   7.177  10.848   5.705 -0.4040  0.4038  0.1431
  458MOL0     C60361   7.030  10.889   5.722  0.7975 -0.6115 -0.0526
  458MOL0     C60362   6.936  10.781   5.671  0.1800  0.3887  0.6205
  458MOL0     C60363   6.792  10.837   5.652  0.6582  0.8566  0.3957
  458MOL0     C60364   6.692  10.796   5.760  0.4266 -0.1015  0.1230
  458MOL0     C60365   6.552  10.841   5.740  0.7239 -0.3258 -0.1608
  458MOL0     C60366   6.474  10.800   5.867 -0.6556  0.5036 -0.2715
  458MOL0     C60367   6.328  10.825   5.854 -0.5785 -0.4978  0.2115
  458MOL0    Cl60368   6.229  10.758   5.980 -0.0947 -0.0099  0.1337
  458MOL0     C60369   7.297  10.713   5.386  0.2826 -0.3821 -0.7826
  458MOL0     C60370   7.406  10.646   5.335  0.9264 -0.5652 -0.8291
  458MOL0     O60371   7.616  10.569   5.134 -0.4391 -0.3387  0.2974
  458MOL0     C60372   7.840  10.354   5.325 -0.3391 -0.8236 -0.6072
  458MOL0     C60373   7.939  10.259   5.308  0.8384  0.6803  0.5801
  458MOL0     N60374   8.542   9.978   4.925  0.0092  0.4958  0.8071
  458MOL0     N60375   8.604   9.886   4.860  0.6623  0.4646  0.0627
  458MOL0     C60376   9.929   9.924   4.801 -0.0438  0.6712 -0.7780
  458MOL0     C60377  10.066   9.957   4.821 -0.2033 -0.0484 -0.2179
  458MOL0     C60378  10.462  10.177   4.945  0.9282 -0.0378 -1.4094
  458MOL0     C60379  10.544  10.241   5.038  0.3740  0.2371 -0.4076
  458MOL0     C60380  10.687  10.249   5.018  0.0027  0.1781 -0.0183
  458MOL0     C60381  10.750  10.205   4.906  0.2479  1.1688  0.6842
  458MOL0     O60382  10.890  10.194   4.897 -0.1374  0.4606  0.4923
  458MOL0     C60383  10.965  10.146   4.783  0.5270  0.7212 -0.9292
  458MOL0     C60384  11.091  10.090   4.832 -0.3508 -0.7926 -0.8973
  458MOL0     C60385  11.068   9.943   4.879  0.0086  0.1971 -0.0216
  458MOL0     C60386  11.184   9.906   4.968  0.1180 -0.5876 -0.0657
  458MOL0     C60387  11.189   9.764   4.993  0.1797  0.7472  0.4966
  458MOL0     C60388  11.208   9.645   5.007 -0.1483 -0.0303  0.2503
  458MOL0     C60389  10.663  10.151   4.801  0.3015  0.2921 -0.2764
  458MOL0     C60390  10.529  10.149   4.824 -0.2178 -0.2185  0.6046
  458MOL0     H60391  10.069  10.262   4.955 -0.9196  1.7867 -1.5422
  458MOL0     H60392   9.823  10.222   4.957 -0.3912 -0.9090  2.1035
  458MOL0     H60393   9.665   9.824   4.917 -1.0580  0.5625  1.1122
  458MOL0     H60394   9.644   9.833   4.740 -0.9981 -0.8141  0.5987
  458MOL0     H60395   9.448   9.978   4.761 -2.3203  0.9025  1.0459
  458MOL0     H60396   9.471   9.993   4.924  2.8338  0.1855 -0.1767
  458MOL0     H60397   9.431   9.751   4.970 -0.7113  1.4424  2.0561
  458MOL0     H60398   9.423   9.715   4.791 -0.0197  0.7407  0.4876
  458MOL0     H60399   9.238   9.923   4.928 -0.8902 -0.1565 -0.4145
  458MOL0     H60400   9.227   9.847   4.776  1.1399  2.3146  0.2987
  458MOL0     H60401   9.161   9.738   5.063  3.0308 -0.3144  0.2404
  458MOL0     H60402   9.227   9.624   4.951 -0.3098 -1.6279 -0.5692
  458MOL0     H60403   9.000   9.597   4.950 -0.1167  0.6350  0.7403
  458MOL0     H60404   9.039   9.654   4.793 -2.8313 -1.4224  0.1187
  458MOL0     H60405   8.937   9.849   4.992 -1.3256 -3.1728  2.5465
  458MOL0     H60406   8.937   9.850   4.809 -0.8122 -0.2483  0.3772
  458MOL0     H60407   8.798   9.648   4.990  1.3004  2.6273  1.4111
  458MOL0     H60408   8.752   9.677   4.816  0.7001 -1.0599  0.0763
  458MOL0     H60409   8.722   9.836   5.157  2.2487  1.1388 -1.2294
  458MOL0     H60410   8.611  10.161   5.114 -1.5792  1.1986 -0.1270
  458MOL0     H60411   8.590  10.050   5.250 -2.7476  2.6884  1.9589
  458MOL0     H60412   8.371  10.167   5.068 -2.8654  0.9099  0.8169
  458MOL0     H60413   8.402  10.194   5.248 -0.0752 -0.7216  0.3771
  458MOL0     H60414   8.271   9.978   5.090  3.0307 -1.9645  0.1163
  458MOL0     H60415   8.320   9.936   5.247  1.5857 -0.3096 -2.3459
  458MOL0     H60416   8.196  10.151   5.336  0.6029  0.6713 -0.5430
  458MOL0     H60417   8.111  10.012   5.282 -1.1333 -0.7503 -1.2325
  458MOL0     H60418   8.015  10.329   4.990  0.8947  1.1024  0.0195
  458MOL0     H60419   7.798  10.463   5.012 -1.5485  1.5515  0.7110
  458MOL0     H60420   7.632  10.674   5.584 -1.6870 -3.0682  3.0971
  458MOL0     H60421   7.458  10.833   5.656 -0.9934  2.0121 -0.7093
  458MOL0     H60422   7.242  10.903   5.774 -0.0242 -0.0470  0.1504
  458MOL0     H60423   7.184  10.743   5.734  2.7246  0.5615  0.3116
  458MOL0     H60424   7.007  10.976   5.660 -1.1092 -0.6202  0.5691
  458MOL0     H60425   7.009  10.908   5.828 -4.1503 -1.1048 -0.6822
  458MOL0     H60426   6.924  10.695   5.737  0.2877  2.4903  3.5592
  458MOL0     H60427   6.959  10.750   5.568 -0.9057  1.3135  0.0831
  458MOL0     H60428   6.800  10.946   5.662 -1.1355  1.0867 -0.2149
  458MOL0     H60429   6.747  10.812   5.555 -0.4534  1.1625  0.8133
  458MOL0     H60430   6.730  10.835   5.854 -0.9570  2.2343 -0.2068
  458MOL0     H60431   6.688  10.687   5.763  1.7675 -0.2011 -0.7011
  458MOL0     H60432   6.518  10.806   5.642  1.6411  2.9078 -1.7714
  458MOL0     H60433   6.559  10.950   5.737  4.3528 -0.4564 -0.7988
  458MOL0     H60434   6.491  10.692   5.868  0.2697  0.6147  2.5205
  458MOL0     H60435   6.512  10.862   5.948 -1.1003 -0.1046  0.4173
  458MOL0     H60436   6.288  10.772   5.767 -1.6958 -1.1864  1.1186
  458MOL0     H60437   6.319  10.934   5.840  2.5181 -0.0806  0.7505
  458MOL0     H60438   7.199  10.712   5.339 -0.4028 -0.3423  0.5868
  458MOL0     H60439   7.407  10.581   5.248  1.6098 -2.2809  0.4109
  458MOL0     H60440   7.811  10.367   5.429  0.5339 -0.8115 -0.3572
  458MOL0     H60441   7.985  10.200   5.386 -0.5873 -1.8099 -0.3625
  458MOL0     H60442   9.899   9.832   4.751 -0.0392 -0.1945  0.7552
  458MOL0     H60443  10.142   9.891   4.781 -1.0895 -2.6806  2.1223
  458MOL0     H60444  10.492  10.269   5.129  0.8373  2.0388 -0.6532
  458MOL0     H60445  10.746  10.290   5.099  2.4992 -0.5691 -1.3637
  458MOL0     H60446  10.973  10.221   4.704  1.3057 -1.2020 -2.7880
  458MOL0     H60447  10.921  10.064   4.724  0.1484  2.9883 -4.0079
  458MOL0     H60448  11.153  10.103   4.743  0.9313  1.4558  0.2367
  458MOL0     H60449  11.118  10.153   4.918 -0.1530 -0.0118 -1.5146
  458MOL0     H60450  11.075   9.888   4.785 -2.3126  1.6800 -1.1460
  458MOL0     H60451  10.973   9.941   4.933  1.2369  2.1506  2.3903
  458MOL0     H60452  11.270   9.944   4.912 -1.8137  1.4327 -1.8656
  458MOL0     H60453  11.168   9.966   5.058 -1.8391 -0.7177 -0.2804
  458MOL0     H60454  11.227   9.540   5.016 -1.4115 -0.1398  2.1465
  458MOL0     H60455  10.708  10.102   4.715  3.0543 -0.5915  1.5351
  458MOL0     H60456  10.468  10.104   4.747 -1.4264  2.0735  0.1363
  459MOL0     O60457   6.923   3.167   3.253 -0.2387 -0.7140 -0.0767
  459MOL0     C60458   7.015   3.112   3.310 -0.7945  0.7682  0.4849
  459MOL0     O60459   7.019   2.982   3.347 -0.3910 -0.5797 -0.9964
  459MOL0     C60460   6.902   2.926   3.394 -0.2986  0.7751 -0.1752
  459MOL0     C60461   6.825   3.002   3.481  0.5581  0.1387  0.0097
  459MOL0     C60462   6.714   2.936   3.541 -0.0455  0.1639 -0.2554
  459MOL0     C60463   6.677   2.806   3.512 -0.0759 -0.7398 -0.1017
  459MOL0     O60464   6.574   2.743   3.564  0.3751 -0.0442 -0.0587
  459MOL0     C60465   6.482   2.809   3.654  0.1052  1.2085 -0.0889
  459MOL0     C60466   6.348   2.732   3.672  0.6150 -0.0045  0.1869
  459MOL0     C60467   6.260   2.811   3.771  0.6389 -0.0797 -0.0665
  459MOL0     C60468   6.141   2.724   3.786  0.3591  0.3728 -1.5635
  459MOL0     C60469   6.034   2.798   3.875  0.9587 -0.8345 -0.1295
  459MOL0     C60470   5.904   2.717   3.895  0.2631  0.6698 -0.4373
  459MOL0     C60471   5.932   2.583   3.958 -0.3187  0.4054  1.0245
  459MOL0     C60472   5.792   2.505   3.991 -1.1443  0.8704  0.2468
  459MOL0     N60473   5.809   2.359   4.006 -0.9476  0.0214  0.6031
  459MOL0     C60474   5.928   2.287   3.986 -0.1463  1.3168 -0.7419
  459MOL0     C60475   5.895   2.151   3.998 -0.1984 -0.1328 -0.0726
  459MOL0     C60476   6.004   2.058   3.954 -0.7404  0.3175  0.7553
  459MOL0     C60477   5.942   1.929   3.890  0.2056  0.1807 -0.3930
  459MOL0     C60478   5.920   1.821   3.994 -0.1912  0.3636 -0.2093
  459MOL0     C60479   5.814   1.728   3.954 -0.1462  0.4816  0.4743
  459MOL0     O60480   5.784   1.647   4.074  0.2890  0.6985 -0.2349
  459MOL0     C60481   5.713   1.526   4.056  1.1816  0.0408 -0.3445
  459MOL0     C60482   5.781   1.405   4.030  0.2102 -1.0852  1.0826
  459MOL0     C60483   5.718   1.288   3.984 -0.1346  0.1253 -0.8685
  459MOL0     C60484   5.580   1.279   3.986 -0.0046 -0.4502 -0.1177
  459MOL0     C60485   5.512   1.158   3.942  0.5419 -0.0913 -0.5582
  459MOL0     O60486   5.381   1.176   3.903  0.2479  0.7075 -0.9692
  459MOL0     C60487   5.313   1.065   3.862 -0.6008 -1.1261 -0.3580
  459MOL0     C60488   5.356   0.964   3.777  0.2177  0.2426 -0.3997
  459MOL0     C60489   5.258   0.856   3.751  0.0777  0.1622  0.1940
  459MOL0     C60490   5.120   0.873   3.792  0.5437  0.7609  0.1017
  459MOL0     O60491   5.025   0.780   3.746 -0.5828  0.2654  0.3539
  459MOL0     C60492   4.941   0.827   3.641  0.9826  0.0175  0.4144
  459MOL0     C60493   5.020   0.818   3.509 -0.0195 -0.0302 -0.0361
  459MOL0     C60494   4.918   0.831   3.392 -0.1597  0.0144 -1.2910
  459MOL0     C60495   4.944   0.724   3.285  0.5743 -0.4484 -0.2137
  459MOL0     C60496   4.855   0.758   3.154 -0.5555  0.4818 -1.2486
  459MOL0     C60497   4.809   0.629   3.084 -0.2469  0.7129 -0.3015
  459MOL0     C60498   4.909   0.588   2.972 -0.0220 -0.3777  0.7553
  459MOL0     C60499   4.840   0.490   2.880  0.4183  0.6857  0.5394
  459MOL0    Cl60500   4.925   0.492   2.724 -0.1756 -0.7329  0.0868
  459MOL0     C60501   5.082   0.987   3.859 -0.0082 -0.0692  0.5732
  459MOL0     C60502   5.183   1.078   3.905  1.2297 -0.4271  0.8168
  459MOL0     O60503   5.566   1.051   3.951  0.3810  0.2295 -0.3730
  459MOL0     C60504   5.506   1.394   4.023 -0.1237 -0.7945 -0.0917
  459MOL0     C60505   5.567   1.519   4.060 -0.6561  0.4369  0.0589
  459MOL0     N60506   5.759   2.138   4.000  0.3173  0.1728 -0.1710
  459MOL0     N60507   5.710   2.261   4.011 -0.2457 -0.5021  0.2217
  459MOL0     C60508   6.759   2.728   3.420  0.2622 -0.8792 -0.8690
  459MOL0     C60509   6.877   2.792   3.372 -0.7689  0.2055  0.1711
  459MOL0     C60510   7.148   3.173   3.309 -0.4154 -0.7282 -0.2700
  459MOL0     C60511   7.264   3.097   3.295  0.0589 -0.3719 -0.3230
  459MOL0     C60512   7.394   3.156   3.295  0.0184  1.3438 -0.2276
  459MOL0     C60513   7.402   3.292   3.315  0.4454  0.1233 -0.1292
  459MOL0     O60514   7.524   3.351   3.326 -0.3657 -0.1609  0.2596
  459MOL0     C60515   7.574   3.384   3.449 -0.8489 -0.6267  0.1300
  459MOL0     C60516   7.624   3.527   3.446 -0.9079 -0.8688  0.2756
  459MOL0     C60517   7.733   3.550   3.339  0.7726 -0.5372  0.3578
  459MOL0     C60518   7.770   3.695   3.331 -0.4385 -0.4106 -0.5918
  459MOL0     C60519   7.880   3.741   3.415  0.1807  0.3993  0.7352
  459MOL0     C60520   7.981   3.786   3.464 -1.2753  0.8932  0.1350
  459MOL0     C60521   7.290   3.371   3.328  0.0382 -0.0525 -0.5512
  459MOL0     C60522   7.166   3.305   3.337 -0.5180 -0.5893 -1.0083
  459MOL0     H60523   6.862   3.101   3.505 -0.4356  0.4312  0.3723
  459MOL0     H60524   6.654   2.997   3.608  1.6947  0.8690  0.7370
  459MOL0     H60525   6.455   2.906   3.611  1.5526  1.9358  0.5591
  459MOL0     H60526   6.530   2.838   3.748 -0.8403  3.3493 -0.2017
  459MOL0     H60527   6.368   2.633   3.713 -0.5515 -0.5368 -0.4606
  459MOL0     H60528   6.301   2.718   3.574  0.3898  0.3624  0.2396
  459MOL0     H60529   6.232   2.905   3.723  1.7276 -0.7942 -2.2388
  459MOL0     H60530   6.319   2.831   3.861  1.5867  0.6116 -0.8164
  459MOL0     H60531   6.092   2.707   3.690  1.4050 -0.7971 -1.9161
  459MOL0     H60532   6.164   2.629   3.836 -1.7232  0.8259  0.4839
  459MOL0     H60533   5.999   2.885   3.818  0.9835 -1.0828 -0.5257
  459MOL0     H60534   6.078   2.822   3.972  0.3806  1.0094 -0.2741
  459MOL0     H60535   5.842   2.705   3.806 -2.6057 -2.1752  1.6939
  459MOL0     H60536   5.846   2.765   3.975 -0.0743  2.3678 -1.6656
  459MOL0     H60537   6.003   2.534   3.891 -0.8263  1.6491 -0.4918
  459MOL0     H60538   5.987   2.610   4.048  1.2175  2.3899 -0.4243
  459MOL0     H60539   5.709   2.509   3.919 -1.3494  2.2758  0.5372
  459MOL0     H60540   5.759   2.546   4.087  2.3648  0.4098  1.8024
  459MOL0     H60541   6.027   2.328   3.966 -0.5541  2.9829  0.4571
  459MOL0     H60542   6.073   2.037   4.037 -0.4223 -1.2868  0.1316
  459MOL0     H60543   6.065   2.105   3.876  0.0428  0.7769  1.6215
  459MOL0     H60544   6.007   1.890   3.812  1.9588 -1.2055  1.6674
  459MOL0     H60545   5.851   1.964   3.839  0.5162  0.7452 -0.5690
  459MOL0     H60546   6.012   1.762   4.007 -0.2731 -0.2934 -2.2542
  459MOL0     H60547   5.891   1.860   4.092 -0.5414 -1.2721  0.3660
  459MOL0     H60548   5.862   1.666   3.878  1.4938 -0.2903  2.0712
  459MOL0     H60549   5.715   1.766   3.928 -0.7858 -1.2429  0.2171
  459MOL0     H60550   5.888   1.413   4.015 -0.1938  0.5830 -1.4659
  459MOL0     H60551   5.782   1.205   3.958 -2.6129 -2.4135  0.5692
  459MOL0     H60552   5.455   0.968   3.734  1.1229 -1.1004  1.4389
  459MOL0     H60553   5.283   0.777   3.680 -0.6837  1.2931 -1.3966
  459MOL0     H60554   4.906   0.927   3.669 -2.6403 -1.1634  0.5784
  459MOL0     H60555   4.853   0.763   3.637  2.1889 -1.6925 -0.3493
  459MOL0     H60556   5.077   0.724   3.505  0.9629  0.5178  0.6355
  459MOL0     H60557   5.095   0.897   3.501 -1.1965  0.8947 -2.8560
  459MOL0     H60558   4.944   0.924   3.339 -0.6077  0.5704 -0.5519
  459MOL0     H60559   4.812   0.845   3.415  0.1158 -0.2274  0.1843
  459MOL0     H60560   5.049   0.724   3.256 -0.1686 -0.6031 -3.1869
  459MOL0     H60561   4.923   0.626   3.330 -1.9184  0.2035  0.2275
  459MOL0     H60562   4.913   0.828   3.094  0.3375  1.9310  1.1687
  459MOL0     H60563   4.770   0.822   3.179  1.5052  1.5538  4.4429
  459MOL0     H60564   4.717   0.649   3.028 -0.7959 -4.2134 -1.6917
  459MOL0     H60565   4.800   0.548   3.157 -0.6227  1.6819  0.7420
  459MOL0     H60566   4.940   0.675   2.915 -1.3083 -0.6948 -0.4787
  459MOL0     H60567   5.002   0.543   3.010  0.4551  2.8534  4.0120
  459MOL0     H60568   4.742   0.536   2.864  1.1858  2.4007  0.5891
  459MOL0     H60569   4.837   0.385   2.913  2.6205  1.4993  3.8375
  459MOL0     H60570   4.975   1.005   3.868  0.0454  0.6652 -0.1503
  459MOL0     H60571   5.157   1.177   3.941 -0.5259 -0.2551 -0.7587
  459MOL0     H60572   5.400   1.376   4.020 -0.1433 -0.7971  0.5437
  459MOL0     H60573   5.507   1.606   4.083  1.4001  1.9850 -0.0957
  459MOL0     H60574   6.729   2.626   3.398  1.1646 -0.9409 -1.8756
  459MOL0     H60575   6.954   2.733   3.322 -1.5613  0.4417 -1.3944
  459MOL0     H60576   7.257   2.990   3.282  0.4826 -0.7276  1.9459
  459MOL0     H60577   7.481   3.091   3.292 -0.4198  0.7672 -0.5194
  459MOL0     H60578   7.659   3.317   3.465  1.0706  1.4325 -0.7456
  459MOL0     H60579   7.510   3.373   3.536  4.2939 -0.6505  4.4476
  459MOL0     H60580   7.534   3.588   3.437 -2.1649 -2.1251  3.0255
  459MOL0     H60581   7.661   3.560   3.544  0.7403  0.2991 -0.6941
  459MOL0     H60582   7.677   3.518   3.250  0.8400  0.2758  0.0170
  459MOL0     H60583   7.823   3.488   3.349  1.3823 -0.1692 -2.1370
  459MOL0     H60584   7.812   3.708   3.231  3.0174  1.6950  0.9355
  459MOL0     H60585   7.689   3.766   3.347 -1.7414 -1.8248 -0.7414
  459MOL0     H60586   8.069   3.818   3.516 -1.1133  0.8581 -0.1165
  459MOL0     H60587   7.306   3.477   3.343  1.2060 -0.0579 -1.5231
  459MOL0     H60588   7.076   3.361   3.363 -0.7057 -0.8885 -1.0047
  460MOL0     O60589   6.767   0.805   5.030 -0.3684 -0.0868  0.5928
  460MOL0     C60590   6.803   0.736   4.936 -0.5144  0.5740  1.1688
  460MOL0     O60591   6.761   0.752   4.806 -0.9716  0.3048  0.0464
  460MOL0     C60592   6.654   0.835   4.778 -0.3324 -0.9796 -1.0849
  460MOL0     C60593   6.571   0.791   4.677 -0.1723 -1.1306 -0.0515
  460MOL0     C60594   6.462   0.869   4.635  0.6916  0.1248 -0.2444
  460MOL0     C60595   6.434   0.994   4.689 -0.0300  0.3706 -0.1169
  460MOL0     O60596   6.326   1.068   4.659 -0.2010  0.5253  0.1039
  460MOL0     C60597   6.198   1.023   4.701  0.1595  0.3892  0.2577
  460MOL0     C60598   6.102   1.126   4.627 -0.8482 -0.4007  1.1337
  460MOL0     C60599   6.123   1.278   4.662  0.4050 -0.2160  0.2275
  460MOL0     C60600   6.038   1.375   4.571  1.1535 -0.7973 -0.2629
  460MOL0     C60601   6.105   1.518   4.568 -1.4638 -0.1911  1.1129
  460MOL0     C60602   6.016   1.614   4.482  0.5422 -0.4715 -0.3110
  460MOL0     C60603   6.096   1.749   4.477  0.1939 -0.3393  0.1281
  460MOL0     C60604   6.009   1.853   4.400 -0.2880  0.4367 -1.0314
  460MOL0     N60605   5.872   1.882   4.453  0.1031 -0.3391 -0.4853
  460MOL0     C60606   5.765   1.830   4.384 -0.0742 -0.7377  0.2455
  460MOL0     C60607   5.665   1.912   4.418  0.3893 -0.4237 -0.1883
  460MOL0     C60608   5.521   1.876   4.369 -0.7505  0.0276 -0.5542
  460MOL0     C60609   5.493   1.861   4.225 -0.4917 -0.0108  0.5928
  460MOL0     C60610   5.396   1.964   4.171 -0.2332  0.4383 -0.5903
  460MOL0     C60611   5.416   2.001   4.021 -0.6031  0.3624  0.5037
  460MOL0     O60612   5.416   1.882   3.938 -0.8818 -0.3986  0.1417
  460MOL0     C60613   5.307   1.800   3.936  0.3791 -0.3728 -0.3813
  460MOL0     C60614   5.175   1.818   3.973 -0.5395  0.1125 -0.2576
  460MOL0     C60615   5.072   1.730   3.946  0.6882 -0.3433 -0.9276
  460MOL0     C60616   5.098   1.615   3.872 -0.2401 -0.0979  0.6046
  460MOL0     C60617   4.989   1.540   3.813 -0.2217 -0.2176  0.5224
  460MOL0     O60618   5.000   1.404   3.806  0.1652  0.2825 -0.2972
  460MOL0     C60619   4.905   1.324   3.753  0.6978 -0.1922 -0.6139
  460MOL0     C60620   4.839   1.251   3.854 -0.0738  0.2537  0.0430
  460MOL0     C60621   4.745   1.160   3.811  0.3276 -0.1141  0.0606
  460MOL0     C60622   4.717   1.141   3.672  0.5094 -0.6132 -0.5258
  460MOL0     O60623   4.621   1.051   3.632 -0.0363 -0.1783 -0.6205
  460MOL0     C60624   4.607   1.028   3.485  0.6277  0.2000 -0.6354
  460MOL0     C60625   4.554   0.882   3.486 -0.2584 -0.3375 -0.1002
  460MOL0     C60626   4.523   0.841   3.344 -0.4463  0.3711 -0.1381
  460MOL0     C60627   4.378   0.866   3.295 -0.3398  0.1370 -0.0625
  460MOL0     C60628   4.363   0.824   3.146  0.1678 -0.2577  0.0154
  460MOL0     C60629   4.445   0.901   3.034  0.1280 -0.3619  0.0899
  460MOL0     C60630   4.391   0.893   2.889  0.9181  0.5828 -0.6193
  460MOL0     C60631   4.421   0.748   2.841  0.4842 -0.7272  0.6370
  460MOL0    Cl60632   4.591   0.723   2.793 -0.1214 -0.1163  0.0253
  460MOL0     C60633   4.778   1.228   3.581  0.5504 -0.6662 -0.1232
  460MOL0     C60634   4.867   1.326   3.623 -0.0746 -0.4611  0.5693
  460MOL0     O60635   4.894   1.606   3.770  0.8658  0.4398 -0.4638
  460MOL0     C60636   5.232   1.592   3.831 -0.4373  0.0917  0.1803
  460MOL0     C60637   5.334   1.685   3.865 -1.0556  0.7611 -0.3239
  460MOL0     N60638   5.716   2.010   4.504  0.0881  0.3381 -0.1225
  460MOL0     N60639   5.839   1.984   4.527 -0.5489  0.9112  0.3643
  460MOL0     C60640   6.522   1.046   4.786  0.4627  0.1473 -0.4432
  460MOL0     C60641   6.635   0.966   4.828  0.4143  0.0772 -0.6820
  460MOL0     C60642   6.925   0.654   4.960 -0.4537 -0.4967 -0.5615
  460MOL0     C60643   6.999   0.605   4.853  0.3546 -0.5446 -1.1436
  460MOL0     C60644   7.121   0.542   4.884 -0.5013 -0.3621 -0.6907
  460MOL0     C60645   7.169   0.530   5.017  0.0270 -0.0778 -0.3303
  460MOL0     O60646   7.294   0.483   5.056  0.7773 -0.1150  0.4939
  460MOL0     C60647   7.384   0.441   4.956 -0.4476 -1.0275  0.5060
  460MOL0     C60648   7.463   0.553   4.885  0.3952  0.3798 -0.1060
  460MOL0     C60649   7.577   0.604   4.980 -0.6000 -0.9954 -0.0876
  460MOL0     C60650   7.524   0.660   5.122  0.2075 -1.1046  0.4879
  460MOL0     C60651   7.639   0.726   5.166 -1.2372  0.7322 -0.2337
  460MOL0     C60652   7.747   0.752   5.220 -0.4060 -0.0437  0.2584
  460MOL0     C60653   7.097   0.575   5.125  0.4522 -0.1029  0.4662
  460MOL0     C60654   6.963   0.628   5.095 -0.8951  0.3501 -0.1832
  460MOL0     H60655   6.572   0.696   4.626  2.4243 -1.3281  0.2681
  460MOL0     H60656   6.410   0.842   4.544  2.0329  0.1363 -1.0360
  460MOL0     H60657   6.183   1.041   4.808 -1.8870  0.7822 -0.0484
  460MOL0     H60658   6.186   0.917   4.678  2.1092 -0.0150  0.9140
  460MOL0     H60659   5.996   1.106   4.644 -1.6451  1.6118 -0.9605
  460MOL0     H60660   6.115   1.115   4.519 -3.6850  2.4278  0.3469
  460MOL0     H60661   6.230   1.303   4.659  0.1614  1.0265  0.9392
  460MOL0     H60662   6.103   1.290   4.769  3.6412  2.0224  0.7279
  460MOL0     H60663   6.015   1.335   4.472 -3.1487  1.2274 -0.3123
  460MOL0     H60664   5.939   1.388   4.614  0.9992  1.8949 -1.2050
  460MOL0     H60665   6.209   1.517   4.534 -0.6043  1.7205  3.3677
  460MOL0     H60666   6.119   1.561   4.668  0.9331  2.2400 -0.1190
  460MOL0     H60667   5.920   1.634   4.530  1.6865 -1.2594  2.4956
  460MOL0     H60668   6.000   1.570   4.383  1.6142 -0.8037 -0.3417
  460MOL0     H60669   6.117   1.799   4.572 -2.3858  0.9360  0.1163
  460MOL0     H60670   6.186   1.733   4.417 -0.1566  0.0221 -0.5150
  460MOL0     H60671   6.009   1.821   4.295 -1.8523 -2.4349 -0.2499
  460MOL0     H60672   6.069   1.944   4.408 -0.0898  0.4713 -2.5352
  460MOL0     H60673   5.756   1.751   4.310  0.2349 -0.7062  0.1733
  460MOL0     H60674   5.454   1.953   4.407 -0.9077 -0.3729 -0.0144
  460MOL0     H60675   5.495   1.782   4.418 -0.6600  1.3272  2.1744
  460MOL0     H60676   5.456   1.760   4.210  0.0622 -0.1770  0.2989
  460MOL0     H60677   5.588   1.877   4.173 -0.6038  0.5272  0.5428
  460MOL0     H60678   5.293   1.938   4.194 -0.0461 -1.2169 -1.4909
  460MOL0     H60679   5.412   2.056   4.228 -1.4781 -0.1443  0.7420
  460MOL0     H60680   5.511   2.054   4.013 -0.6738  0.7435  1.9095
  460MOL0     H60681   5.332   2.066   3.993  0.1621  1.2334  0.1895
  460MOL0     H60682   5.158   1.912   4.024  0.2887 -0.7728  1.7374
  460MOL0     H60683   4.973   1.752   3.986 -0.0784 -1.1383 -2.3454
  460MOL0     H60684   4.869   1.253   3.958  1.3309 -1.1404 -0.2982
  460MOL0     H60685   4.699   1.099   3.888  3.9752 -3.6623 -0.2278
  460MOL0     H60686   4.701   1.041   3.431  1.0900  1.9206  0.5123
  460MOL0     H60687   4.539   1.099   3.437  0.8380 -0.0319 -1.2834
  460MOL0     H60688   4.465   0.885   3.549  1.0904  0.0075  1.8891
  460MOL0     H60689   4.635   0.827   3.534  0.5312  1.9545  1.3800
  460MOL0     H60690   4.546   0.734   3.346  2.0023  0.7199  5.2789
  460MOL0     H60691   4.592   0.888   3.272 -1.0950  0.2353 -0.8664
  460MOL0     H60692   4.301   0.813   3.351 -0.0913 -1.9331 -1.5706
  460MOL0     H60693   4.369   0.975   3.299  2.1602  0.3664  2.1504
  460MOL0     H60694   4.255   0.829   3.124 -0.5283  3.5556  3.1215
  460MOL0     H60695   4.389   0.718   3.142  1.0125 -0.0450 -0.3326
  460MOL0     H60696   4.550   0.869   3.040 -0.2501 -1.7663 -0.3315
  460MOL0     H60697   4.439   1.008   3.056  0.3238  0.1348 -2.0867
  460MOL0     H60698   4.282   0.896   2.878  0.7743 -2.9484 -1.4261
  460MOL0     H60699   4.437   0.974   2.833  1.7571  1.3209  1.0665
  460MOL0     H60700   4.350   0.728   2.760 -0.7970  2.2326  0.9126
  460MOL0     H60701   4.408   0.673   2.920  1.0840 -1.1490  0.3407
  460MOL0     H60702   4.747   1.236   3.477 -2.5849 -1.7872  0.6179
  460MOL0     H60703   4.900   1.394   3.545 -3.3479 -0.1124 -0.6519
  460MOL0     H60704   5.251   1.503   3.772  1.5719  1.7027 -1.7994
  460MOL0     H60705   5.433   1.669   3.823 -1.5095  1.2189 -1.6348
  460MOL0     H60706   6.500   1.138   4.839 -0.1249  0.8099 -1.8172
  460MOL0     H60707   6.689   1.003   4.915  0.8405 -0.5258 -0.6822
  460MOL0     H60708   6.957   0.610   4.753 -0.2659 -3.5274 -1.1441
  460MOL0     H60709   7.178   0.504   4.799 -1.5702 -0.4149 -1.3955
  460MOL0     H60710   7.336   0.379   4.879 -0.0326  1.1918 -1.6988
  460MOL0     H60711   7.453   0.379   5.014  1.0434  1.8025  1.9389
  460MOL0     H60712   7.512   0.509   4.797  0.0600  1.6634 -0.9628
  460MOL0     H60713   7.411   0.645   4.859 -0.3803  0.2507  0.9241
  460MOL0     H60714   7.636   0.677   4.923 -0.7643  0.5825  1.6623
  460MOL0     H60715   7.654   0.531   5.005  0.9347  0.4797 -0.3627
  460MOL0     H60716   7.452   0.741   5.103  3.2348  1.3945 -1.5249
  460MOL0     H60717   7.486   0.581   5.186 -1.0978 -0.6754  0.2802
  460MOL0     H60718   7.837   0.763   5.277 -0.4027  0.5130  0.1518
  460MOL0     H60719   7.140   0.574   5.225 -1.5401  1.7510  1.4201
  460MOL0     H60720   6.897   0.647   5.179 -1.5631  1.2883 -0.8834
  461MOL0     O60721   3.970   8.836   6.067  0.2876  0.3323  0.0872
  461MOL0     C60722   4.037   8.896   5.987 -0.1156  0.6053 -0.1827
  461MOL0     O60723   4.117   8.848   5.878  0.2236 -0.0270  0.1274
  461MOL0     C60724   4.143   8.714   5.892 -0.2596 -0.0325 -0.4016
  461MOL0     C60725   4.051   8.617   5.895  0.0974  0.1920  0.1399
  461MOL0     C60726   4.078   8.478   5.913  0.0277 -0.0032  0.0076
  461MOL0     C60727   4.210   8.436   5.922  0.1205  0.3600 -0.6623
  461MOL0     O60728   4.225   8.301   5.913 -0.3758  0.2910 -0.1604
  461MOL0     C60729   4.355   8.239   5.897  0.7755  0.2724 -0.9913
  461MOL0     C60730   4.365   8.153   5.780 -0.2736  0.0613 -0.9085
  461MOL0     C60731   4.320   8.223   5.649  0.9949 -0.0187 -0.2359
  461MOL0     C60732   4.419   8.329   5.595 -1.1682  0.9928  0.6974
  461MOL0     C60733   4.373   8.399   5.463  0.3457 -0.4554 -0.3957
  461MOL0     C60734   4.259   8.490   5.489  0.4082  0.2409 -0.7038
  461MOL0     C60735   4.233   8.603   5.392  0.0561  0.2016  1.2425
  461MOL0     C60736   4.149   8.724   5.450 -1.0174 -0.1576 -0.0215
  461MOL0     N60737   4.065   8.789   5.352  0.1820 -0.8520 -0.7305
  461MOL0     C60738   3.991   8.712   5.260  0.9727  0.7265  0.5202
  461MOL0     C60739   3.883   8.797   5.243 -0.1997  0.8096  0.5702
  461MOL0     C60740   3.759   8.763   5.169  0.4347  0.1966  0.3846
  461MOL0     C60741   3.635   8.708   5.247 -0.8626 -0.6325 -0.1159
  461MOL0     C60742   3.651   8.561   5.258 -0.5648 -0.6075  0.3407
  461MOL0     C60743   3.545   8.492   5.339  0.7943 -0.2945 -0.1409
  461MOL0     O60744   3.411   8.527   5.303  0.6021 -0.4778  0.5147
  461MOL0     C60745   3.303   8.466   5.380 -0.0016 -0.4481 -0.2977
  461MOL0     C60746   3.181   8.450   5.317  0.1409  0.7662  0.6503
  461MOL0     C60747   3.071   8.382   5.379 -0.4872 -0.7198  0.7005
  461MOL0     C60748   3.082   8.319   5.494  0.6218  0.2945 -0.7088
  461MOL0     C60749   2.964   8.248   5.550 -0.2014  1.0632  0.2320
  461MOL0     O60750   2.853   8.266   5.476  0.8206  0.1989 -0.1595
  461MOL0     C60751   2.772   8.154   5.474 -0.9505  0.4295  0.1357
  461MOL0     C60752   2.749   8.083   5.351 -0.3890  0.7377 -1.1178
  461MOL0     C60753   2.665   7.965   5.352  0.0332 -1.0019  0.3976
  461MOL0     C60754   2.593   7.935   5.463 -0.4324 -0.0680  1.3513
  461MOL0     O60755   2.527   7.822   5.440 -0.5311  0.5449  0.4193
  461MOL0     C60756   2.403   7.813   5.503  0.4012  0.2630  0.6245
  461MOL0     C60757   2.319   7.711   5.432  0.3160  0.9018 -0.8352
  461MOL0     C60758   2.173   7.713   5.484 -0.4545  0.4268  0.3430
  461MOL0     C60759   2.077   7.618   5.413 -0.0277 -0.1835 -0.7008
  461MOL0     C60760   2.111   7.474   5.461  0.1526  0.3791  0.3329
  461MOL0     C60761   1.982   7.385   5.478 -0.4035 -0.4825  0.3428
  461MOL0     C60762   1.935   7.330   5.343 -0.3826  0.6431 -0.3972
  461MOL0     C60763   1.802   7.239   5.356 -0.1057  0.0325  0.5463
  461MOL0    Cl60764   1.663   7.337   5.414 -0.2963 -0.0767 -0.0315
  461MOL0     C60765   2.619   7.995   5.585  0.0597  0.3036 -0.3583
  461MOL0     C60766   2.701   8.105   5.588  0.0523  0.9578 -0.5099
  461MOL0     O60767   2.974   8.192   5.660 -0.1532 -0.5315  0.7393
  461MOL0     C60768   3.205   8.326   5.558  0.4155  0.0528  0.4400
  461MOL0     C60769   3.316   8.400   5.505 -0.8808 -1.3298 -0.1205
  461MOL0     N60770   3.900   8.916   5.315  0.6979 -0.3688 -0.4876
  461MOL0     N60771   4.013   8.907   5.378  0.0754  0.4486  0.1879
  461MOL0     C60772   4.308   8.529   5.919 -0.2460 -0.3173  0.8495
  461MOL0     C60773   4.276   8.665   5.921 -0.1657  0.2475 -0.4947
  461MOL0     C60774   4.072   9.041   6.010  0.9930 -0.0077  0.5672
  461MOL0     C60775   4.022   9.106   6.120 -0.1095  0.3810 -0.0796
  461MOL0     C60776   4.046   9.237   6.146 -0.4522  0.8208  0.4001
  461MOL0     C60777   4.108   9.311   6.051 -0.5533  0.3379 -0.5048
  461MOL0     O60778   4.116   9.445   6.069 -0.6950 -0.3540  0.1633
  461MOL0     C60779   4.218   9.527   6.019  0.2299  0.5450  0.1868
  461MOL0     C60780   4.344   9.535   6.110  0.3722  0.0118 -0.4467
  461MOL0     C60781   4.421   9.402   6.151 -0.1433  0.9171 -0.6512
  461MOL0     C60782   4.569   9.426   6.209 -0.4897 -0.3658 -0.0188
  461MOL0     C60783   4.659   9.454   6.092  0.0441 -0.2403  1.0100
  461MOL0     C60784   4.746   9.449   6.010 -1.0064  0.2602  0.3255
  461MOL0     C60785   4.157   9.253   5.934 -0.8053  1.0312  0.3357
  461MOL0     C60786   4.145   9.114   5.912  0.5040 -1.1552  0.2911
  461MOL0     H60787   3.946   8.637   5.876 -0.4409 -2.4359 -0.0618
  461MOL0     H60788   4.008   8.396   5.924  1.8889 -1.4008  2.2911
  461MOL0     H60789   4.381   8.187   5.990  3.5014  2.0334 -0.6765
  461MOL0     H60790   4.436   8.311   5.890  2.3851 -1.3806 -0.1285
  461MOL0     H60791   4.298   8.070   5.803  1.8363 -1.8239 -1.2248
  461MOL0     H60792   4.466   8.109   5.778 -0.6218 -0.8237  0.1538
  461MOL0     H60793   4.220   8.266   5.665  1.3791  0.7822  0.0900
  461MOL0     H60794   4.316   8.144   5.574 -0.8053  0.4065 -0.6538
  461MOL0     H60795   4.450   8.400   5.673 -1.0758 -1.1091  2.6568
  461MOL0     H60796   4.506   8.274   5.558 -3.0985 -0.4645 -2.0029
  461MOL0     H60797   4.341   8.328   5.386  1.6836 -0.5010 -0.9385
  461MOL0     H60798   4.450   8.458   5.412 -1.2073  0.8493 -1.3439
  461MOL0     H60799   4.286   8.531   5.587 -3.4735 -1.7176  1.3975
  461MOL0     H60800   4.165   8.435   5.499 -0.4878  1.4499 -2.0334
  461MOL0     H60801   4.326   8.647   5.354 -0.8391  0.2295 -1.0725
  461MOL0     H60802   4.193   8.565   5.298  2.6381 -0.7714  0.4496
  461MOL0     H60803   4.211   8.799   5.500 -1.4827 -0.7865  1.5853
  461MOL0     H60804   4.081   8.686   5.528  1.4591 -1.4640  1.6506
  461MOL0     H60805   3.998   8.613   5.217 -1.1658  2.0832 -3.4346
  461MOL0     H60806   3.793   8.697   5.089  2.7161  1.8234 -0.0898
  461MOL0     H60807   3.724   8.856   5.124 -1.8533 -0.6915  0.1634
  461MOL0     H60808   3.546   8.736   5.191 -1.2849  0.5918  1.1275
  461MOL0     H60809   3.631   8.751   5.348 -1.6130 -3.7972  1.3350
  461MOL0     H60810   3.652   8.529   5.153  1.5878 -0.1819  0.1923
  461MOL0     H60811   3.750   8.549   5.302 -0.0703  1.9484  0.0450
  461MOL0     H60812   3.549   8.530   5.441  0.9237  0.0641 -0.2758
  461MOL0     H60813   3.545   8.382   5.336 -1.5109 -0.3482 -0.0588
  461MOL0     H60814   3.173   8.472   5.211  1.2528 -0.9560  0.1656
  461MOL0     H60815   2.990   8.371   5.307 -0.8224  1.8503  0.5707
  461MOL0     H60816   2.800   8.101   5.257  0.1016  0.8906 -0.8227
  461MOL0     H60817   2.665   7.904   5.262  2.3930 -0.1958 -0.2262
  461MOL0     H60818   2.353   7.910   5.500  1.8118  0.9997  0.1165
  461MOL0     H60819   2.414   7.777   5.606  1.5506 -3.1891 -0.5506
  461MOL0     H60820   2.367   7.616   5.453 -0.5270  1.1005  2.6754
  461MOL0     H60821   2.316   7.725   5.324  0.1899 -2.8801 -1.4490
  461MOL0     H60822   2.138   7.815   5.464  3.6199  2.2775  1.5453
  461MOL0     H60823   2.185   7.688   5.590  0.7150 -0.3173  0.0546
  461MOL0     H60824   1.981   7.645   5.457  0.8256  0.8175  0.6220
  461MOL0     H60825   2.075   7.609   5.304 -0.1591 -3.8382 -0.5139
  461MOL0     H60826   2.180   7.475   5.546  2.5280 -1.8092 -1.4034
  461MOL0     H60827   2.169   7.431   5.379  1.0173  2.8305 -0.4420
  461MOL0     H60828   1.896   7.432   5.528 -0.1516 -1.1818  1.4642
  461MOL0     H60829   2.025   7.309   5.544  1.2812  1.5484  1.7301
  461MOL0     H60830   1.919   7.411   5.270 -0.8747 -1.0576 -2.2903
  461MOL0     H60831   2.015   7.272   5.297  0.8578  2.6205 -0.8554
  461MOL0     H60832   1.821   7.173   5.441  1.4116  0.8060  0.8554
  461MOL0     H60833   1.793   7.179   5.265 -0.3433 -0.8824  1.1628
  461MOL0     H60834   2.557   7.972   5.671 -0.1751  2.3137  0.0460
  461MOL0     H60835   2.702   8.159   5.682 -2.9881  1.1298 -0.4764
  461MOL0     H60836   3.217   8.259   5.643  0.3388 -2.3992 -1.3887
  461MOL0     H60837   3.410   8.398   5.560 -0.4665  0.5582 -0.7053
  461MOL0     H60838   4.414   8.510   5.933  0.0591  0.8065  0.1860
  461MOL0     H60839   4.352   8.741   5.939  1.5021 -1.8011  1.6766
  461MOL0     H60840   3.979   9.042   6.196  0.8548  0.3289  0.4405
  461MOL0     H60841   4.013   9.282   6.239  0.4824  0.5531  0.8827
  461MOL0     H60842   4.180   9.630   6.017  0.3281  0.5770 -2.1669
  461MOL0     H60843   4.259   9.514   5.918 -1.5177 -0.0462 -0.4782
  461MOL0     H60844   4.417   9.599   6.059  0.3557  1.2142  0.9725
  461MOL0     H60845   4.306   9.590   6.197  4.4679  1.4631  0.6750
  461MOL0     H60846   4.434   9.334   6.067 -0.1014 -0.8202  0.7029
  461MOL0     H60847   4.365   9.348   6.228 -2.5854  1.5681 -1.8474
  461MOL0     H60848   4.564   9.518   6.267 -1.7632  0.4365 -1.3178
  461MOL0     H60849   4.596   9.337   6.267  2.2063 -0.1657 -0.8186
  461MOL0     H60850   4.808   9.416   5.929  0.1392 -0.6292  1.5419
  461MOL0     H60851   4.201   9.309   5.853  1.4347 -2.9781 -1.5283
  461MOL0     H60852   4.179   9.072   5.818 -1.1902 -0.5849 -0.6324
  462MOL0     O60853  10.887   4.029  10.861 -0.9065 -1.0573  0.8125
  462MOL0     C60854  10.966   4.106  10.798  0.1490 -0.0793 -0.4786
  462MOL0     O60855  10.926   4.199  10.718 -0.2313 -0.8906  0.7256
  462MOL0     C60856  10.801   4.247  10.746  0.2025  0.1373 -0.2371
  462MOL0     C60857  10.682   4.190  10.691 -0.2335  0.1182  0.0693
  462MOL0     C60858  10.559   4.257  10.700  0.7399  0.2287  0.8031
  462MOL0     C60859  10.552   4.376  10.777 -0.1723 -0.0725  0.6375
  462MOL0     O60860  10.443   4.451  10.811  0.4344  0.2855 -0.1809
  462MOL0     C60861  10.315   4.401  10.787  0.1408  0.6578  0.3566
  462MOL0     C60862  10.219   4.513  10.827 -0.2293 -0.2421 -0.1354
  462MOL0     C60863  10.075   4.475  10.787  0.6368 -1.2011 -0.0175
  462MOL0     C60864   9.983   4.594  10.826  0.9028  0.7222  0.4008
  462MOL0     C60865   9.828   4.552  10.842 -0.5020 -0.2402 -0.7084
  462MOL0     C60866   9.756   4.639  10.951  0.2190 -0.2496  0.4575
  462MOL0     C60867   9.606   4.607  10.968 -0.3628  0.3856 -0.0126
  462MOL0     C60868   9.555   4.699  11.089  0.1970  0.4210  0.1586
  462MOL0     N60869   9.417   4.701  11.089 -0.2737  0.5733 -0.2867
  462MOL0     C60870   9.329   4.604  11.127  0.4240  0.5190 -1.2172
  462MOL0     C60871   9.209   4.635  11.060  0.3905 -0.1101  0.4291
  462MOL0     C60872   9.086   4.547  11.040 -0.2469  0.2194 -0.0258
  462MOL0     C60873   8.970   4.644  11.045  0.0017 -0.0188 -0.1035
  462MOL0     C60874   8.836   4.578  11.019 -0.0758  0.3765  0.2465
  462MOL0     C60875   8.732   4.645  11.101 -0.3443  0.5334 -0.2984
  462MOL0     O60876   8.709   4.772  11.035 -0.8780  0.3091 -0.0360
  462MOL0     C60877   8.596   4.782  10.955 -0.3847 -0.5277 -0.0822
  462MOL0     C60878   8.603   4.862  10.843 -0.6673 -0.2331 -0.9915
  462MOL0     C60879   8.513   4.867  10.736  0.5691  1.4858 -0.7716
  462MOL0     C60880   8.391   4.796  10.750  0.1655 -0.0238  0.0178
  462MOL0     C60881   8.290   4.790  10.635  0.6222 -0.3036 -0.3976
  462MOL0     O60882   8.289   4.902  10.548 -0.6163  0.2831 -0.7396
  462MOL0     C60883   8.201   4.912  10.449 -0.1048 -0.6462 -0.0123
  462MOL0     C60884   8.076   4.963  10.459  0.6457 -0.9118 -0.0044
  462MOL0     C60885   8.007   4.991  10.341  0.1593 -0.2374 -0.1664
  462MOL0     C60886   8.051   4.965  10.214 -0.0069  0.2955  0.0077
  462MOL0     O60887   8.000   5.000  10.095  1.0244  0.6158  0.1717
  462MOL0     C60888   7.858   5.012  10.079 -0.4626  0.6731  0.7544
  462MOL0     C60889   7.825   4.966   9.939 -0.1413  0.1412  0.1364
  462MOL0     C60890   7.677   4.949   9.917 -0.0424  0.9047 -0.8920
  462MOL0     C60891   7.633   4.821   9.981 -0.1724 -0.1509 -0.1906
  462MOL0     C60892   7.483   4.818   9.978  0.9226  1.1113 -0.1510
  462MOL0     C60893   7.439   4.691  10.049  0.9797 -0.5566  0.2323
  462MOL0     C60894   7.289   4.677  10.073 -0.7999 -1.3444  0.0820
  462MOL0     C60895   7.243   4.534  10.094  0.4051  0.2405 -0.0427
  462MOL0    Cl60896   7.076   4.530  10.169  0.1506  0.0712  0.1835
  462MOL0     C60897   8.171   4.893  10.208  0.3705 -0.6955 -0.3860
  462MOL0     C60898   8.245   4.869  10.325 -0.4726  0.3936  0.0672
  462MOL0     O60899   8.223   4.690  10.624 -0.4009 -0.5038  0.5491
  462MOL0     C60900   8.365   4.730  10.871 -0.0331  0.1590  0.5954
  462MOL0     C60901   8.472   4.708  10.961  0.4673 -0.2307 -0.6108
  462MOL0     N60902   9.226   4.757  10.999  0.2878  0.3464  0.6374
  462MOL0     N60903   9.344   4.800  11.025  0.4842 -0.0392 -0.6203
  462MOL0     C60904  10.667   4.423  10.830  0.1271  0.7722  0.3872
  462MOL0     C60905  10.789   4.367  10.819  0.8639  0.2015  1.0807
  462MOL0     C60906  11.111   4.103  10.828 -0.6062  0.9313 -0.2762
  462MOL0     C60907  11.155   4.024  10.938 -1.0169 -0.4544 -0.1981
  462MOL0     C60908  11.295   4.037  10.978 -0.5663 -0.0849  0.1671
  462MOL0     C60909  11.394   4.116  10.904  0.0314  0.7620  0.7061
  462MOL0     O60910  11.517   4.142  10.944 -0.3464  0.1951 -0.4727
  462MOL0     C60911  11.574   4.055  11.050 -0.1895 -0.0189  0.8983
  462MOL0     C60912  11.721   4.080  11.089  0.3173  0.3752  0.1943
  462MOL0     C60913  11.736   4.208  11.174 -0.1964 -0.0463  0.5406
  462MOL0     C60914  11.883   4.220  11.222 -0.1815  0.9811  0.9817
  462MOL0     C60915  11.894   4.331  11.314 -0.3759  0.7961 -0.3763
  462MOL0     C60916  11.907   4.424  11.399  0.3914 -0.5644  1.4713
  462MOL0     C60917  11.341   4.191  10.794 -0.8537 -0.0321 -1.1943
  462MOL0     C60918  11.206   4.184  10.757  0.3347  0.7517 -0.6100
  462MOL0     H60919  10.696   4.099  10.633  0.4143 -1.0994  2.0377
  462MOL0     H60920  10.465   4.217  10.664  0.2397 -0.1711  2.4778
  462MOL0     H60921  10.295   4.300  10.824  0.6374  0.1424 -0.7204
  462MOL0     H60922  10.304   4.380  10.680  1.2231  1.3625  0.0870
  462MOL0     H60923  10.252   4.605  10.779 -0.4543  0.6610  1.3801
  462MOL0     H60924  10.228   4.512  10.936  3.5061 -2.4258 -0.3148
  462MOL0     H60925  10.047   4.382  10.839 -1.2013 -0.7627 -0.1493
  462MOL0     H60926  10.053   4.457  10.681  0.1305  1.2470 -0.3849
  462MOL0     H60927  10.026   4.637  10.916 -0.7213 -0.6583  1.9177
  462MOL0     H60928   9.986   4.666  10.744  2.9566  0.2013 -0.0456
  462MOL0     H60929   9.841   4.451  10.882  3.8842  0.4421  0.0708
  462MOL0     H60930   9.777   4.549  10.745  0.0267 -2.0026 -0.9846
  462MOL0     H60931   9.772   4.745  10.927  1.0184 -0.7510 -1.4041
  462MOL0     H60932   9.807   4.616  11.045  2.4412  2.2808 -0.0099
  462MOL0     H60933   9.554   4.645  10.880  1.5913  4.7174  0.4757
  462MOL0     H60934   9.593   4.499  10.982  0.3536  0.1956 -0.7935
  462MOL0     H60935   9.584   4.804  11.077 -3.8803  1.9193  1.3596
  462MOL0     H60936   9.589   4.662  11.187  0.1770  0.2582  0.1039
  462MOL0     H60937   9.322   4.527  11.203  0.6193  3.1290  1.6483
  462MOL0     H60938   9.084   4.470  11.117  0.7159 -1.2669 -1.4170
  462MOL0     H60939   9.098   4.487  10.950 -3.1232 -2.4781  1.2086
  462MOL0     H60940   8.969   4.711  10.958 -3.4734  1.1437  0.6678
  462MOL0     H60941   8.964   4.702  11.137 -1.2315 -0.2363 -0.0214
  462MOL0     H60942   8.813   4.581  10.912 -1.1761 -1.4714  0.3806
  462MOL0     H60943   8.847   4.471  11.041  1.1039  0.3000 -0.6311
  462MOL0     H60944   8.761   4.667  11.204  0.5814 -1.2200 -0.1460
  462MOL0     H60945   8.642   4.584  11.101  0.6562 -0.9941  0.3375
  462MOL0     H60946   8.692   4.923  10.837 -2.0439  1.8554 -1.3242
  462MOL0     H60947   8.535   4.914  10.641  2.0078 -3.5495 -3.3212
  462MOL0     H60948   8.038   4.987  10.558 -0.8435  0.8017 -0.9585
  462MOL0     H60949   7.908   5.034  10.349 -0.4658 -1.3624 -1.4186
  462MOL0     H60950   7.831   5.118  10.087 -2.1574  0.2732  0.8260
  462MOL0     H60951   7.813   4.957  10.162  0.1154  0.5080  0.9614
  462MOL0     H60952   7.883   4.873   9.932 -1.8105 -0.9458  0.2709
  462MOL0     H60953   7.873   5.024   9.860  3.0206 -1.5931  0.6266
  462MOL0     H60954   7.664   4.928   9.810 -1.3714  0.1588 -0.6032
  462MOL0     H60955   7.616   5.034   9.950 -1.3101 -1.5861  3.9789
  462MOL0     H60956   7.687   4.734   9.942 -0.6686 -0.5487  0.0003
  462MOL0     H60957   7.655   4.819  10.088 -0.2328 -1.7608 -0.1853
  462MOL0     H60958   7.446   4.808   9.876 -1.0794  2.2662  0.4120
  462MOL0     H60959   7.442   4.904  10.032 -0.3649 -0.6016  1.7634
  462MOL0     H60960   7.492   4.688  10.145  1.8104 -0.8283 -0.2296
  462MOL0     H60961   7.467   4.602   9.992 -0.6856 -0.5023 -0.7284
  462MOL0     H60962   7.266   4.723  10.170 -5.3283 -1.1947 -0.8608
  462MOL0     H60963   7.251   4.731   9.986 -0.8700  0.6969  1.3094
  462MOL0     H60964   7.295   4.469  10.166 -2.7469 -0.8661  1.4483
  462MOL0     H60965   7.247   4.474  10.003  2.8472 -2.1290  1.4461
  462MOL0     H60966   8.208   4.865  10.110  0.8465 -2.7502  0.3133
  462MOL0     H60967   8.341   4.825  10.300  0.3987  1.7666  0.8628
  462MOL0     H60968   8.268   4.688  10.893 -0.4491  1.1383  0.7235
  462MOL0     H60969   8.447   4.649  11.048  0.5057  1.1876  0.3887
  462MOL0     H60970  10.658   4.510  10.894 -2.1366 -2.0046  4.2420
  462MOL0     H60971  10.878   4.410  10.864  1.8907 -1.7029  0.9577
  462MOL0     H60972  11.085   3.963  10.995 -0.5840  1.2752  2.3508
  462MOL0     H60973  11.326   3.982  11.067 -0.4670 -1.3834 -0.6406
  462MOL0     H60974  11.578   3.950  11.019 -0.8144  0.4376 -0.8306
  462MOL0     H60975  11.505   4.065  11.134 -3.7524 -0.5150 -1.7632
  462MOL0     H60976  11.747   3.999  11.157 -3.7136 -1.8441 -0.5830
  462MOL0     H60977  11.784   4.078  11.000 -1.0719  1.6710 -0.8861
  462MOL0     H60978  11.669   4.196  11.260  1.0600  3.1026  2.1415
  462MOL0     H60979  11.707   4.293  11.111  0.3100 -1.6979 -2.0916
  462MOL0     H60980  11.925   4.124  11.255  0.2439  0.4769 -0.8954
  462MOL0     H60981  11.942   4.244  11.133  0.6707 -3.0080  0.2593
  462MOL0     H60982  11.922   4.506  11.466 -0.6857  1.3288 -0.4692
  462MOL0     H60983  11.412   4.256  10.745  1.5738 -1.9056 -0.3977
  462MOL0     H60984  11.158   4.246  10.682 -2.1557 -0.9711 -0.5440
  463MOL0     O60985   8.722   3.754   1.121 -0.0526 -0.0694  0.4607
  463MOL0     C60986   8.716   3.784   1.242  0.2720 -0.5122  0.3602
  463MOL0     O60987   8.616   3.754   1.330  0.2859  0.1798  0.9583
  463MOL0     C60988   8.533   3.649   1.314 -0.4036 -0.7496  0.7537
  463MOL0     C60989   8.431   3.650   1.406  0.1458 -1.2718  0.1940
  463MOL0     C60990   8.342   3.542   1.407  1.0183 -0.3318 -0.1183
  463MOL0     C60991   8.357   3.434   1.313 -0.2294  0.1019 -0.1360
  463MOL0     O60992   8.261   3.329   1.294 -0.9191 -0.3349 -0.5608
  463MOL0     C60993   8.232   3.252   1.406 -0.1860  0.0335  0.4498
  463MOL0     C60994   8.321   3.130   1.432  0.2386 -0.3317  0.0536
  463MOL0     C60995   8.456   3.175   1.503  0.2708 -0.2459 -0.5608
  463MOL0     C60996   8.504   3.038   1.560  0.0376  0.1236 -0.9819
  463MOL0     C60997   8.653   3.040   1.580 -0.5750  0.0526 -0.3373
  463MOL0     C60998   8.720   2.925   1.651  0.5026  0.4041  0.0986
  463MOL0     C60999   8.685   2.905   1.795  1.0740 -0.2694  0.1711
  463MOL0     C61000   8.725   3.032   1.882 -0.5928 -0.6447 -0.4577
  463MOL0     N61001   8.873   3.041   1.885  0.9501 -0.2138 -0.1072
  463MOL0     C61002   8.936   3.135   1.814  0.6154 -0.1561 -0.9787
  463MOL0     C61003   9.048   3.155   1.879 -0.1362  0.4538 -0.2647
  463MOL0     C61004   9.152   3.262   1.851 -0.2257  0.3181 -0.5542
  463MOL0     C61005   9.127   3.381   1.950  0.1248 -0.1899 -0.6772
  463MOL0     C61006   9.161   3.345   2.097 -1.2326  0.7345 -0.2251
  463MOL0     C61007   9.318   3.314   2.120 -0.3196  0.6860  0.6629
  463MOL0     O61008   9.369   3.442   2.149 -0.0265 -0.3764  0.0800
  463MOL0     C61009   9.499   3.463   2.117 -0.4890 -0.0804 -0.0947
  463MOL0     C61010   9.540   3.593   2.078 -0.7569  0.5115  0.9245
  463MOL0     C61011   9.669   3.611   2.036  0.3945 -1.1012 -0.1835
  463MOL0     C61012   9.768   3.513   2.043 -0.3254 -0.2562 -0.7217
  463MOL0     C61013   9.912   3.538   2.000 -0.6663 -0.2555 -0.3444
  463MOL0     O61014   9.922   3.616   1.887 -0.6871 -0.7293 -0.5269
  463MOL0     C61015  10.044   3.651   1.845  1.0407 -0.1726  0.0627
  463MOL0     C61016  10.129   3.751   1.897  0.2390  0.3687  0.8389
  463MOL0     C61017  10.260   3.777   1.854 -0.4369 -0.1190  0.5403
  463MOL0     C61018  10.315   3.704   1.750  0.2672 -0.3072  0.2369
  463MOL0     O61019  10.438   3.724   1.692 -0.7935 -0.2014  0.1573
  463MOL0     C61020  10.537   3.759   1.791 -0.7190  1.3620  0.2753
  463MOL0     C61021  10.674   3.749   1.723 -0.4789  0.6390  1.2586
  463MOL0     C61022  10.726   3.606   1.681 -0.0686  0.9033  0.1310
  463MOL0     C61023  10.846   3.601   1.590 -0.8459 -0.5912  0.2984
  463MOL0     C61024  10.859   3.464   1.536 -0.0259 -0.1445 -0.6303
  463MOL0     C61025  10.979   3.449   1.435  1.0110 -0.8023 -0.0680
  463MOL0     C61026  11.004   3.296   1.409 -0.5414  0.4508 -0.6343
  463MOL0     C61027  11.091   3.241   1.527  0.0707  0.0644 -0.3797
  463MOL0    Cl61028  11.255   3.308   1.519  0.1652 -0.3263  0.1871
  463MOL0     C61029  10.236   3.599   1.702 -0.0445  0.2130  0.5034
  463MOL0     C61030  10.106   3.578   1.748 -1.1144 -0.5286  0.0821
  463MOL0     O61031  10.005   3.488   2.062  0.0400  0.3795 -0.2774
  463MOL0     C61032   9.734   3.384   2.095 -0.2266 -0.0823 -0.2223
  463MOL0     C61033   9.596   3.363   2.131 -0.1482 -0.3108  0.4184
  463MOL0     N61034   9.055   3.065   1.985 -1.4106  0.5704  0.0565
  463MOL0     N61035   8.949   2.997   1.985  0.3010 -0.4683  0.0924
  463MOL0     C61036   8.456   3.449   1.215 -0.4536 -0.7160 -0.4204
  463MOL0     C61037   8.544   3.555   1.215  0.8051  0.4358 -0.7922
  463MOL0     C61038   8.819   3.862   1.313  0.8459  0.0465  0.2704
  463MOL0     C61039   8.843   3.848   1.455 -0.3601 -0.8491  0.1623
  463MOL0     C61040   8.964   3.892   1.513  0.5062 -0.6133  0.8512
  463MOL0     C61041   9.061   3.960   1.430  0.3784 -0.7220 -0.1040
  463MOL0     O61042   9.181   4.012   1.473 -0.5515 -0.0225  0.1853
  463MOL0     C61043   9.216   3.998   1.613 -0.2932 -0.1210 -0.3461
  463MOL0     C61044   9.358   4.034   1.640  0.2817 -0.4155  0.1344
  463MOL0     C61045   9.404   4.027   1.789  0.4626  0.0105 -0.1932
  463MOL0     C61046   9.432   3.881   1.844  0.6423  0.1650 -0.1826
  463MOL0     C61047   9.528   3.811   1.756  0.3307  0.0412 -0.1829
  463MOL0     C61048   9.604   3.766   1.676  0.5783  0.7745 -0.4867
  463MOL0     C61049   9.042   3.974   1.293 -0.1070  0.8463 -0.5763
  463MOL0     C61050   8.920   3.917   1.236  0.3179 -0.5917 -0.0036
  463MOL0     H61051   8.434   3.728   1.481  1.3608 -0.1327 -0.9866
  463MOL0     H61052   8.261   3.532   1.479  0.6002 -0.6356 -0.6228
  463MOL0     H61053   8.131   3.215   1.384  0.1079 -0.0524 -0.7976
  463MOL0     H61054   8.220   3.303   1.502  0.6136  1.1602 -0.0261
  463MOL0     H61055   8.341   3.080   1.337 -1.8953 -4.0818  1.3710
  463MOL0     H61056   8.264   3.058   1.490 -2.1022  1.0890 -0.3551
  463MOL0     H61057   8.422   3.251   1.573 -1.6824  1.3074 -3.0025
  463MOL0     H61058   8.526   3.219   1.431 -0.3610  0.1894 -0.9165
  463MOL0     H61059   8.461   3.021   1.659  2.1899  1.7895  0.3246
  463MOL0     H61060   8.485   2.948   1.501 -1.6114 -1.9288  2.4011
  463MOL0     H61061   8.695   3.125   1.634 -0.2177 -0.3686  0.0541
  463MOL0     H61062   8.693   3.051   1.479  1.8541 -0.0162  0.5477
  463MOL0     H61063   8.828   2.942   1.638  0.8938 -1.4492  0.5902
  463MOL0     H61064   8.699   2.831   1.600 -0.8748  0.0438  1.2724
  463MOL0     H61065   8.576   2.897   1.797  0.8315  1.3564 -2.3006
  463MOL0     H61066   8.735   2.815   1.831  2.7912 -0.0627 -1.5717
  463MOL0     H61067   8.688   3.017   1.984 -2.5123  1.5373 -0.7637
  463MOL0     H61068   8.678   3.122   1.842  3.9480  2.3565  0.2594
  463MOL0     H61069   8.888   3.197   1.739  0.5297  0.4109 -0.4574
  463MOL0     H61070   9.121   3.292   1.751 -2.0949 -2.8446 -1.0575
  463MOL0     H61071   9.253   3.223   1.864 -1.1397 -1.6615  1.1425
  463MOL0     H61072   9.027   3.421   1.931  0.1807  0.6502  0.6372
  463MOL0     H61073   9.193   3.461   1.914  0.8191 -0.5879 -0.3156
  463MOL0     H61074   9.135   3.432   2.159  0.8609  1.1032  0.2480
  463MOL0     H61075   9.106   3.257   2.132 -1.7490  1.5409  1.0556
  463MOL0     H61076   9.370   3.256   2.043  2.4136 -3.4358  5.0618
  463MOL0     H61077   9.328   3.240   2.199 -0.4409 -0.0473  0.0001
  463MOL0     H61078   9.466   3.672   2.077  0.4367  1.8621 -3.4788
  463MOL0     H61079   9.689   3.710   1.998  0.8658 -0.4910  1.5797
  463MOL0     H61080  10.093   3.818   1.974 -0.8918 -1.9156  2.4409
  463MOL0     H61081  10.313   3.862   1.897 -1.6152 -0.4519  2.7876
  463MOL0     H61082  10.542   3.689   1.875  4.9162  1.4151  0.3672
  463MOL0     H61083  10.540   3.862   1.826  1.3478  1.0692  1.0962
  463MOL0     H61084  10.750   3.792   1.789  1.7245  0.5983 -1.0730
  463MOL0     H61085  10.669   3.817   1.637  2.1356 -0.0479  0.4510
  463MOL0     H61086  10.636   3.553   1.647  0.1162  0.0512  0.9352
  463MOL0     H61087  10.761   3.562   1.775 -1.6491  0.1884  0.4249
  463MOL0     H61088  10.832   3.662   1.500 -1.4080  1.2149  1.5631
  463MOL0     H61089  10.937   3.634   1.641  1.4237 -1.9399 -2.5695
  463MOL0     H61090  10.767   3.422   1.494  1.0010 -1.0761 -2.0178
  463MOL0     H61091  10.881   3.409   1.628 -1.8333  0.1264  0.0122
  463MOL0     H61092  11.068   3.503   1.466 -0.6386  0.6633  2.4890
  463MOL0     H61093  10.931   3.497   1.349 -2.5642 -0.2579  2.0344
  463MOL0     H61094  10.912   3.236   1.404 -1.1757  1.2005  1.1605
  463MOL0     H61095  11.054   3.278   1.314  0.5643 -0.7942  0.1469
  463MOL0     H61096  11.088   3.133   1.541 -0.1283  0.3571  2.4533
  463MOL0     H61097  11.041   3.275   1.618  0.7242 -1.3215  0.5258
  463MOL0     H61098  10.280   3.525   1.635 -1.7238 -3.9928  3.5483
  463MOL0     H61099  10.054   3.496   1.700 -1.4399  0.6001 -1.5906
  463MOL0     H61100   9.813   3.310   2.097  0.1392  0.2675 -1.1224
  463MOL0     H61101   9.558   3.267   2.165 -2.0367  0.4509  0.5614
  463MOL0     H61102   8.478   3.371   1.142 -4.7827 -0.3261 -2.4152
  463MOL0     H61103   8.625   3.544   1.143  2.4455  0.4449  0.9849
  463MOL0     H61104   8.780   3.807   1.533  0.9613  0.3121  1.9364
  463MOL0     H61105   8.979   3.872   1.618  0.8581  0.8593  1.1024
  463MOL0     H61106   9.216   3.892   1.640  0.2560  0.1138  0.6238
  463MOL0     H61107   9.145   4.052   1.677 -0.1963  0.6647 -0.8753
  463MOL0     H61108   9.416   3.977   1.567  0.4269  0.1037 -0.1653
  463MOL0     H61109   9.383   4.136   1.608  1.8362  0.4055  3.5152
  463MOL0     H61110   9.332   4.079   1.854  1.3787  1.4607 -0.3030
  463MOL0     H61111   9.496   4.083   1.807 -0.3159  0.8781  1.3201
  463MOL0     H61112   9.465   3.892   1.948 -1.0094 -3.0682  0.8109
  463MOL0     H61113   9.336   3.829   1.852 -0.4463  2.1199  0.2542
  463MOL0     H61114   9.679   3.734   1.607  0.5060  0.4832 -0.4345
  463MOL0     H61115   9.118   4.026   1.236  1.1739  1.1261  1.2973
  463MOL0     H61116   8.910   3.923   1.128  1.6368  2.6354 -0.0499
  464MOL0     O61117   9.543   2.310   7.716  0.2699  0.5372 -0.1618
  464MOL0     C61118   9.541   2.357   7.832 -0.1162 -0.3903  0.0764
  464MOL0     O61119   9.432   2.384   7.911 -0.5592 -0.5725  0.3401
  464MOL0     C61120   9.315   2.339   7.863 -0.6217 -0.3504  0.2608
  464MOL0     C61121   9.290   2.205   7.842  0.2802  0.5125  0.6059
  464MOL0     C61122   9.174   2.168   7.772  0.5099  0.0942  0.7531
  464MOL0     C61123   9.067   2.258   7.745 -0.6649  0.0622  0.5445
  464MOL0     O61124   8.953   2.198   7.691  0.3403 -1.0177  0.0796
  464MOL0     C61125   8.835   2.274   7.702  0.4508  0.1830  0.2536
  464MOL0     C61126   8.723   2.164   7.671  0.2651 -0.2721  0.5580
  464MOL0     C61127   8.723   2.038   7.764  0.1151 -0.4412  0.4699
  464MOL0     C61128   8.630   1.923   7.722 -0.1530 -0.5626  0.9128
  464MOL0     C61129   8.474   1.938   7.733  0.8580 -0.3732  0.0850
  464MOL0     C61130   8.415   1.935   7.871 -1.0047 -1.3082 -0.2844
  464MOL0     C61131   8.260   1.913   7.864  0.0812  0.2898 -1.2112
  464MOL0     C61132   8.204   1.856   7.996  0.6692  0.7470  0.2954
  464MOL0     N61133   8.057   1.865   7.995  0.2620 -0.4361  0.6802
  464MOL0     C61134   7.979   1.856   8.101  0.4483  0.0374 -0.8831
  464MOL0     C61135   7.855   1.843   8.051  0.2179 -0.2292  0.6698
  464MOL0     C61136   7.739   1.804   8.124 -0.5016 -0.3040 -0.6392
  464MOL0     C61137   7.718   1.653   8.124 -0.1456  0.3803  0.9945
  464MOL0     C61138   7.621   1.621   8.235  0.0471 -0.2338 -0.1294
  464MOL0     C61139   7.470   1.656   8.201  0.0305 -0.8200  0.2575
  464MOL0     O61140   7.402   1.659   8.332 -0.0354  0.2982  0.4444
  464MOL0     C61141   7.278   1.726   8.316  0.6694  0.6839  0.0239
  464MOL0     C61142   7.233   1.798   8.422  0.2926 -0.0567  0.5784
  464MOL0     C61143   7.115   1.876   8.407 -0.7317  0.5562  0.0883
  464MOL0     C61144   7.046   1.876   8.285 -1.0306 -0.0911  0.1581
  464MOL0     C61145   6.922   1.963   8.270  0.2106 -0.3842 -1.4288
  464MOL0     O61146   6.880   2.027   8.389  0.0629  0.2799  0.1440
  464MOL0     C61147   6.788   2.127   8.371 -0.0711 -0.0377  0.7514
  464MOL0     C61148   6.653   2.113   8.399 -0.4385 -0.7987  0.1629
  464MOL0     C61149   6.564   2.220   8.390  0.6428 -0.7970  0.2802
  464MOL0     C61150   6.601   2.351   8.355  0.1574  0.0768 -0.4361
  464MOL0     O61151   6.521   2.470   8.362 -0.2632  0.2170  0.4051
  464MOL0     C61152   6.469   2.507   8.493  0.2043  0.8166 -0.2468
  464MOL0     C61153   6.319   2.518   8.497  0.3901  0.8344  0.6922
  464MOL0     C61154   6.282   2.639   8.414  0.7835 -0.2653  0.1647
  464MOL0     C61155   6.143   2.692   8.446  0.3559 -0.9599 -0.6431
  464MOL0     C61156   6.027   2.624   8.376 -0.3137  0.3138  0.1160
  464MOL0     C61157   5.922   2.716   8.344 -0.2558  0.7363  0.0905
  464MOL0     C61158   5.805   2.647   8.280 -0.1922  0.1441 -0.2081
  464MOL0     C61159   5.712   2.751   8.215 -0.0105 -0.6818 -1.2197
  464MOL0    Cl61160   5.611   2.848   8.339 -0.1867 -0.3385 -0.6893
  464MOL0     C61161   6.742   2.362   8.340  0.1221 -0.3619 -0.3837
  464MOL0     C61162   6.833   2.258   8.351  0.2269 -0.4360  0.0615
  464MOL0     O61163   6.872   1.977   8.160  0.4183  0.5296  0.2709
  464MOL0     C61164   7.080   1.789   8.192 -0.2469 -0.2657  0.1494
  464MOL0     C61165   7.196   1.725   8.191 -0.4138 -0.6841  0.8654
  464MOL0     N61166   7.856   1.850   7.916  0.2309  0.7596 -0.2654
  464MOL0     N61167   7.978   1.851   7.882 -0.1138 -0.9319  0.2023
  464MOL0     C61168   9.088   2.394   7.772 -0.4065  0.0519 -0.2373
  464MOL0     C61169   9.216   2.427   7.822  0.2247 -0.0347  0.3731
  464MOL0     C61170   9.671   2.374   7.905  1.1515  0.0505 -0.0773
  464MOL0     C61171   9.789   2.350   7.842 -0.4556 -0.9744 -0.0690
  464MOL0     C61172   9.910   2.362   7.916  0.5286  0.3518  0.1765
  464MOL0     C61173   9.922   2.392   8.052  0.4850 -0.4696 -0.1844
  464MOL0     O61174  10.050   2.405   8.102  0.0394 -0.0220 -0.3022
  464MOL0     C61175  10.092   2.545   8.094 -0.7938 -0.0625 -0.1592
  464MOL0     C61176  10.136   2.582   7.953  0.1883 -0.8453 -0.4791
  464MOL0     C61177  10.234   2.700   7.940  0.3403  0.2274 -0.4571
  464MOL0     C61178  10.208   2.780   7.812 -1.7629  0.0708 -0.3340
  464MOL0     C61179  10.228   2.709   7.691 -0.1732  0.1670 -0.0385
  464MOL0     C61180  10.225   2.673   7.574  0.0907  1.0653  0.1096
  464MOL0     C61181   9.801   2.404   8.122  0.1845 -1.0677  0.3136
  464MOL0     C61182   9.680   2.409   8.045 -0.1073  0.6019  0.6446
  464MOL0     H61183   9.362   2.131   7.875  0.5509 -0.7836 -2.5654
  464MOL0     H61184   9.149   2.064   7.751  1.7793  0.3438 -2.6234
  464MOL0     H61185   8.836   2.349   7.622  1.7550 -2.2128 -2.1383
  464MOL0     H61186   8.819   2.316   7.802  0.1779  0.7008  0.0008
  464MOL0     H61187   8.737   2.124   7.570 -1.0123 -0.1762  0.3284
  464MOL0     H61188   8.622   2.205   7.682 -0.1383 -1.2731  0.7442
  464MOL0     H61189   8.703   2.074   7.865 -0.1665  1.5190 -0.2267
  464MOL0     H61190   8.821   1.990   7.762  0.0815 -0.6752  2.5657
  464MOL0     H61191   8.652   1.910   7.616 -1.5432 -1.1234  0.6669
  464MOL0     H61192   8.665   1.830   7.767  3.1553  0.7226  1.2504
  464MOL0     H61193   8.425   1.863   7.669  1.8903 -1.8593  0.9625
  464MOL0     H61194   8.448   2.037   7.695 -0.3422 -0.4363  0.7149
  464MOL0     H61195   8.438   2.026   7.927  0.3727 -3.2868  2.6686
  464MOL0     H61196   8.459   1.859   7.936 -1.3528  0.9699  2.8640
  464MOL0     H61197   8.214   2.009   7.837  0.9291  0.3384 -2.5932
  464MOL0     H61198   8.230   1.839   7.789 -3.6633  0.0297  0.3170
  464MOL0     H61199   8.251   1.905   8.081  0.7750  0.2412  0.5344
  464MOL0     H61200   8.239   1.752   8.002  1.7618  0.3874 -5.6790
  464MOL0     H61201   8.007   1.840   8.205 -0.3675 -1.6183 -0.8903
  464MOL0     H61202   7.649   1.852   8.085 -1.0389 -1.1992 -0.5399
  464MOL0     H61203   7.753   1.840   8.226 -3.2149 -1.3315  0.1756
  464MOL0     H61204   7.813   1.599   8.123 -0.5470 -0.3810  2.0941
  464MOL0     H61205   7.662   1.627   8.034  0.5878  0.7610  0.4181
  464MOL0     H61206   7.630   1.520   8.274  1.9889  0.8032  2.3764
  464MOL0     H61207   7.642   1.670   8.330  1.5906 -2.0948  0.5413
  464MOL0     H61208   7.438   1.581   8.128  0.6452 -0.9904  0.1606
  464MOL0     H61209   7.455   1.754   8.155 -0.4426 -1.6963 -1.5723
  464MOL0     H61210   7.294   1.789   8.511  2.0152 -0.6809 -0.5905
  464MOL0     H61211   7.073   1.927   8.493 -2.8782 -2.1302  0.7658
  464MOL0     H61212   6.612   2.015   8.424  1.4162 -1.6910 -0.1674
  464MOL0     H61213   6.460   2.221   8.423  1.0264 -0.2978  1.5180
  464MOL0     H61214   6.517   2.598   8.532 -0.4894  1.2210 -0.3297
  464MOL0     H61215   6.506   2.433   8.564 -2.7939 -0.1792  0.4033
  464MOL0     H61216   6.286   2.533   8.601 -0.8499 -0.6938  0.5592
  464MOL0     H61217   6.273   2.423   8.469 -2.4764  2.5830 -1.0177
  464MOL0     H61218   6.286   2.608   8.309  0.4621  2.6898 -0.8071
  464MOL0     H61219   6.356   2.719   8.417  2.4057 -1.5696 -1.9750
  464MOL0     H61220   6.109   2.690   8.550 -1.7020 -1.6073 -1.2787
  464MOL0     H61221   6.151   2.798   8.419  0.8200  0.2713  3.5675
  464MOL0     H61222   5.998   2.536   8.434  1.7631  0.4624  1.5204
  464MOL0     H61223   6.063   2.579   8.283 -0.6903 -1.0019  0.5887
  464MOL0     H61224   5.956   2.804   8.288  0.2763  0.4614 -0.0274
  464MOL0     H61225   5.888   2.752   8.441  0.8947  0.7743  0.4922
  464MOL0     H61226   5.845   2.586   8.198 -1.5351 -1.0817  0.0226
  464MOL0     H61227   5.754   2.579   8.348  3.4504 -2.3463  0.3497
  464MOL0     H61228   5.647   2.706   8.140  0.8603 -1.3308 -1.6093
  464MOL0     H61229   5.762   2.829   8.158 -1.1616  0.6755 -0.4443
  464MOL0     H61230   6.782   2.462   8.344 -1.0267  0.1223 -0.3847
  464MOL0     H61231   6.940   2.276   8.360 -0.0072  0.2464  2.0480
  464MOL0     H61232   7.020   1.767   8.104 -1.8097 -1.4427  1.4736
  464MOL0     H61233   7.216   1.664   8.104 -1.6214  1.4744 -1.0153
  464MOL0     H61234   9.028   2.479   7.742  0.0158  0.3527 -0.2243
  464MOL0     H61235   9.236   2.531   7.848  0.0857  0.3118 -0.8486
  464MOL0     H61236   9.779   2.328   7.737 -1.2831 -0.7624 -0.0442
  464MOL0     H61237  10.000   2.339   7.861  0.0557  0.3615 -0.6213
  464MOL0     H61238  10.183   2.566   8.152 -2.1606  0.1910  1.9749
  464MOL0     H61239  10.023   2.612   8.145  2.6153  1.5567  2.8371
  464MOL0     H61240  10.190   2.495   7.915  2.6441  0.5846 -0.4824
  464MOL0     H61241  10.049   2.595   7.888 -1.2924  0.4350  1.6415
  464MOL0     H61242  10.338   2.665   7.941  0.1923 -0.2543 -1.2816
  464MOL0     H61243  10.223   2.759   8.031  1.6584 -1.2332  0.7124
  464MOL0     H61244  10.104   2.815   7.814 -2.3979 -1.6972 -1.0161
  464MOL0     H61245  10.276   2.866   7.814  1.2075 -2.1737  0.9234
  464MOL0     H61246  10.224   2.650   7.469  0.8866 -0.2524  0.3793
  464MOL0     H61247   9.800   2.421   8.229  0.6608  3.1217 -0.1594
  464MOL0     H61248   9.586   2.413   8.099 -0.7256 -2.7171  0.0030
  465MOL0     O61249   1.177   2.233   6.910 -0.2436 -0.0003  0.5384
  465MOL0     C61250   1.087   2.166   6.863  0.5881  0.6166 -0.8659
  465MOL0     O61251   1.091   2.057   6.788  0.5624 -0.3114 -0.3316
  465MOL0     C61252   1.215   1.995   6.774  0.6959 -0.3928  0.2843
  465MOL0     C61253   1.225   1.876   6.840  0.9055 -0.7379 -0.1768
  465MOL0     C61254   1.343   1.792   6.827  1.4753 -0.4816  0.2878
  465MOL0     C61255   1.458   1.841   6.764 -0.5178 -0.1657  0.1396
  465MOL0     O61256   1.574   1.762   6.763  0.6316 -0.3421 -0.0359
  465MOL0     C61257   1.646   1.756   6.886  0.6294  0.8075 -0.3301
  465MOL0     C61258   1.759   1.666   6.877  0.0058 -0.7124 -0.1603
  465MOL0     C61259   1.849   1.699   6.761  0.3821  0.4304 -0.7026
  465MOL0     C61260   1.963   1.596   6.752  0.6386 -0.1530 -0.1923
  465MOL0     C61261   2.071   1.583   6.863  0.0510  0.2954 -0.0696
  465MOL0     C61262   2.139   1.717   6.876  0.4048  0.2630  0.4628
  465MOL0     C61263   2.232   1.708   7.001 -0.3514  0.7108 -0.6640
  465MOL0     C61264   2.355   1.799   6.994  0.3068  0.7906 -0.2740
  465MOL0     N61265   2.453   1.757   7.096 -0.9360 -0.4164  0.4056
  465MOL0     C61266   2.568   1.700   7.065 -0.5180 -0.2000 -0.1863
  465MOL0     C61267   2.629   1.690   7.184  0.1327  0.2426 -0.5933
  465MOL0     C61268   2.764   1.638   7.219 -0.1927  0.2000 -0.6747
  465MOL0     C61269   2.834   1.563   7.108 -1.1760  0.7593  0.3711
  465MOL0     C61270   2.974   1.512   7.141  0.7389 -0.5120  0.4786
  465MOL0     C61271   3.058   1.492   7.012 -0.5146  0.0839  0.4107
  465MOL0     O61272   3.181   1.428   7.047  0.0200  1.1101 -0.6777
  465MOL0     C61273   3.265   1.384   6.949 -0.5390  0.0355 -0.2807
  465MOL0     C61274   3.407   1.370   6.976  0.3811 -0.1111  0.9924
  465MOL0     C61275   3.489   1.299   6.891 -1.0699 -0.4155  0.6819
  465MOL0     C61276   3.446   1.261   6.761  0.4441  0.1425  0.1179
  465MOL0     C61277   3.528   1.193   6.668  0.2388  0.3315 -0.1842
  465MOL0     O61278   3.499   1.211   6.534  0.1670  0.0062  0.0159
  465MOL0     C61279   3.583   1.161   6.434 -0.8503 -0.0857 -0.5967
  465MOL0     C61280   3.707   1.228   6.405 -0.0371 -0.0631  0.2579
  465MOL0     C61281   3.789   1.181   6.305 -0.5851 -0.1713 -0.1056
  465MOL0     C61282   3.751   1.080   6.219 -0.4553  0.3122  0.2111
  465MOL0     O61283   3.837   1.066   6.117  0.5876 -0.3897 -0.8878
  465MOL0     C61284   3.885   0.937   6.080 -0.1027 -0.0066 -0.8058
  465MOL0     C61285   4.007   0.948   5.976  0.2199  0.3529  0.0834
  465MOL0     C61286   4.132   1.012   6.029  0.2226 -0.5694 -0.4147
  465MOL0     C61287   4.195   0.938   6.149 -0.0153  0.1470  0.7465
  465MOL0     C61288   4.341   0.984   6.175 -0.4346 -0.9157  0.2047
  465MOL0     C61289   4.404   0.903   6.283 -0.7579  0.0303 -0.2115
  465MOL0     C61290   4.549   0.940   6.320  0.4788  0.3234 -0.3494
  465MOL0     C61291   4.612   0.849   6.423  0.9229  0.1656 -0.5697
  465MOL0    Cl61292   4.760   0.931   6.463 -0.0965 -0.0498  0.4111
  465MOL0     C61293   3.632   1.011   6.240  0.8477  0.7225  0.0679
  465MOL0     C61294   3.553   1.051   6.347  0.2725 -0.6746 -0.2587
  465MOL0     O61295   3.627   1.124   6.710  0.5746  0.0237  0.4672
  465MOL0     C61296   3.310   1.273   6.735  0.4670 -0.3622 -1.1332
  465MOL0     C61297   3.215   1.321   6.835  0.1332 -0.0431 -0.7934
  465MOL0     N61298   2.552   1.765   7.281  1.1615  0.3950  0.2108
  465MOL0     N61299   2.449   1.810   7.220  0.2517  0.1452  0.8036
  465MOL0     C61300   1.448   1.966   6.706 -0.0409  0.1933 -0.5631
  465MOL0     C61301   1.330   2.041   6.706  0.6859 -0.4666 -0.2194
  465MOL0     C61302   0.947   2.218   6.901  0.2898  0.0040  0.4946
  465MOL0     C61303   0.925   2.354   6.968  0.9293  0.2953  0.1648
  465MOL0     C61304   0.796   2.401   7.009  0.7342  0.0315  0.7041
  465MOL0     C61305   0.681   2.324   6.959 -0.2464 -0.0376  0.8472
  465MOL0     O61306   0.551   2.353   6.994  0.1001 -0.0354  0.5271
  465MOL0     C61307   0.527   2.423   7.120  0.8278  0.3620 -0.3920
  465MOL0     C61308   0.373   2.427   7.140  0.1427  0.0931  0.4124
  465MOL0     C61309   0.300   2.501   7.022 -0.1755 -0.1185 -0.4642
  465MOL0     C61310   0.161   2.551   7.086 -0.5477  0.7335 -0.1624
  465MOL0     C61311   0.083   2.627   6.996 -0.0525 -0.3835  1.0078
  465MOL0     C61312   0.022   2.728   6.956  0.2761  0.5370 -0.9517
  465MOL0     C61313   0.697   2.204   6.894 -0.6170  0.7280 -0.9439
  465MOL0     C61314   0.826   2.152   6.870  0.1841  0.3099 -0.5214
  465MOL0     H61315   1.149   1.847   6.912 -0.7943  1.9412 -0.7400
  465MOL0     H61316   1.336   1.689   6.859  0.2597 -0.2328  0.8823
  465MOL0     H61317   1.574   1.717   6.959 -0.6546  0.5294 -1.6983
  465MOL0     H61318   1.677   1.855   6.921 -0.6135  1.4549 -0.9605
  465MOL0     H61319   1.716   1.566   6.865  1.4541 -1.2185 -1.3622
  465MOL0     H61320   1.816   1.670   6.970 -3.8006 -3.9276  2.6326
  465MOL0     H61321   1.890   1.798   6.782 -2.9094  1.8801 -0.6497
  465MOL0     H61322   1.796   1.708   6.666 -1.8800 -0.3566  0.4111
  465MOL0     H61323   1.931   1.495   6.724  0.5914  0.3049 -1.9124
  465MOL0     H61324   2.031   1.633   6.674 -1.0393  4.6149  0.2395
  465MOL0     H61325   2.139   1.500   6.844  1.9743  1.5938  0.8741
  465MOL0     H61326   2.018   1.554   6.955  1.0936 -2.1075 -0.1514
  465MOL0     H61327   2.069   1.801   6.879  0.1273  0.1570 -1.5424
  465MOL0     H61328   2.195   1.738   6.785  0.3934 -0.9824  0.1502
  465MOL0     H61329   2.183   1.738   7.094 -2.4900 -1.9642 -0.7969
  465MOL0     H61330   2.262   1.604   7.013 -1.9951 -0.0273 -2.4178
  465MOL0     H61331   2.326   1.904   7.000 -0.5646  0.6006 -0.8716
  465MOL0     H61332   2.402   1.782   6.897  0.7885  1.1464 -0.1055
  465MOL0     H61333   2.598   1.658   6.969 -1.3364  1.0735 -1.0382
  465MOL0     H61334   2.758   1.566   7.301 -0.5707  2.0680  1.0054
  465MOL0     H61335   2.824   1.725   7.246  0.9813 -0.0168 -2.4452
  465MOL0     H61336   2.847   1.638   7.029  1.4792  1.9770  1.8196
  465MOL0     H61337   2.771   1.479   7.078 -1.6221  2.2355 -3.3662
  465MOL0     H61338   3.023   1.590   7.200  1.7258 -2.2672  2.0927
  465MOL0     H61339   2.976   1.416   7.192  2.3363 -0.8141 -0.0810
  465MOL0     H61340   3.071   1.592   6.969 -0.7550 -0.6157 -1.3360
  465MOL0     H61341   3.006   1.431   6.938  2.9745 -2.8185  0.0459
  465MOL0     H61342   3.438   1.406   7.073 -0.0844  0.5969  0.8809
  465MOL0     H61343   3.591   1.292   6.927 -0.7761  0.9620  0.1783
  465MOL0     H61344   3.754   1.306   6.465  0.8545 -0.8369  0.6008
  465MOL0     H61345   3.875   1.244   6.284 -2.3778  2.3375 -0.3362
  465MOL0     H61346   3.809   0.870   6.039 -0.0204 -2.4399  2.6499
  465MOL0     H61347   3.927   0.891   6.169  0.9525  2.3495 -0.0056
  465MOL0     H61348   3.978   1.004   5.887 -0.4616 -0.2012 -0.0510
  465MOL0     H61349   4.027   0.845   5.944  1.4908  0.2332  1.1841
  465MOL0     H61350   4.097   1.111   6.062  0.1094 -1.3632  2.0403
  465MOL0     H61351   4.196   1.021   5.941 -2.9293 -0.5958 -2.8582
  465MOL0     H61352   4.146   0.971   6.241  0.2733  3.8305 -0.2917
  465MOL0     H61353   4.195   0.833   6.117  0.7002  0.9214 -2.0266
  465MOL0     H61354   4.336   1.092   6.191  0.4367 -0.7346 -0.6644
  465MOL0     H61355   4.389   0.981   6.077  0.0673  1.6985  0.3132
  465MOL0     H61356   4.400   0.800   6.245  0.3983  1.1353 -3.6820
  465MOL0     H61357   4.331   0.913   6.364 -0.1288 -0.0616  0.3810
  465MOL0     H61358   4.610   0.932   6.229  0.3967 -2.3303 -0.2442
  465MOL0     H61359   4.558   1.044   6.353 -1.8930 -0.0782  1.8374
  465MOL0     H61360   4.625   0.747   6.387  2.4408 -0.5379  1.7034
  465MOL0     H61361   4.545   0.848   6.509  0.2410 -0.8482 -1.1047
  465MOL0     H61362   3.599   0.934   6.171  2.0389  3.4591 -3.9406
  465MOL0     H61363   3.461   0.997   6.364 -1.0700  1.9832  1.6104
  465MOL0     H61364   3.276   1.230   6.641 -0.9137 -1.3954 -0.1868
  465MOL0     H61365   3.109   1.318   6.814  0.0062 -1.1513 -0.0705
  465MOL0     H61366   1.540   2.015   6.673 -0.6295  0.8089 -1.3408
  465MOL0     H61367   1.328   2.136   6.654  1.3381  0.8695  2.0563
  465MOL0     H61368   1.002   2.428   6.985 -2.6704  4.0394  2.0060
  465MOL0     H61369   0.778   2.490   7.067 -2.9748 -1.5007  2.2209
  465MOL0     H61370   0.554   2.529   7.109 -2.6153  1.3323 -0.7299
  465MOL0     H61371   0.565   2.371   7.208  0.3480  0.4069 -0.1565
  465MOL0     H61372   0.326   2.328   7.152  0.4031 -0.0337  0.3852
  465MOL0     H61373   0.351   2.489   7.228 -0.6009  2.7711 -1.5428
  465MOL0     H61374   0.293   2.430   6.939  0.5483  0.1694 -0.7843
  465MOL0     H61375   0.361   2.587   6.990 -0.0210 -0.6346 -1.6000
  465MOL0     H61376   0.113   2.460   7.124  2.2855 -0.4014  0.9920
  465MOL0     H61377   0.186   2.608   7.176 -1.5707 -1.0023  1.3029
  465MOL0     H61378  -0.026   2.820   6.930  3.4693  3.0302  1.1005
  465MOL0     H61379   0.610   2.142   6.874  1.8960 -3.2422 -0.7781
  465MOL0     H61380   0.836   2.063   6.809 -2.9759  1.4956 -3.0387
  466MOL0     O61381   4.012   9.320   3.128 -1.0467 -0.5250  0.6440
  466MOL0     C61382   3.915   9.397   3.135 -0.8254 -0.8396 -0.5969
  466MOL0     O61383   3.925   9.526   3.106 -0.4296  0.8482  0.1195
  466MOL0     C61384   4.037   9.586   3.050 -0.8302 -0.8669 -0.3642
  466MOL0     C61385   4.135   9.529   2.972  0.0930 -0.1164 -0.0917
  466MOL0     C61386   4.247   9.606   2.924  0.0763  0.7777  0.1615
  466MOL0     C61387   4.263   9.739   2.968 -0.6918  0.4232  0.0617
  466MOL0     O61388   4.376   9.808   2.947  0.1987  0.4114 -0.1317
  466MOL0     C61389   4.459   9.756   2.843  0.5490 -0.1054 -0.0037
  466MOL0     C61390   4.579   9.845   2.840  0.4594 -0.2880 -0.1807
  466MOL0     C61391   4.686   9.802   2.732  0.7052  0.0382 -0.2747
  466MOL0     C61392   4.816   9.867   2.777  0.6850 -0.2022  1.0203
  466MOL0     C61393   4.939   9.808   2.706 -0.3142  0.3397 -0.4333
  466MOL0     C61394   4.927   9.826   2.555 -0.1723 -0.2399  0.3600
  466MOL0     C61395   5.002   9.716   2.487  0.3710 -1.1930  0.7558
  466MOL0     C61396   5.102   9.760   2.384  0.7561 -0.6050 -0.0990
  466MOL0     N61397   5.223   9.812   2.448 -0.0817  0.2376  0.0494
  466MOL0     C61398   5.285   9.757   2.561 -0.0839 -0.2306 -0.1537
  466MOL0     C61399   5.379   9.852   2.595 -0.3659  0.1088 -0.0870
  466MOL0     C61400   5.491   9.823   2.693  0.5844 -0.3341  0.1394
  466MOL0     C61401   5.540   9.950   2.762 -0.1791 -0.5629  0.0654
  466MOL0     C61402   5.643   9.909   2.872 -0.0240  0.5384  0.0798
  466MOL0     C61403   5.772   9.847   2.817  0.1069  0.5141  0.3495
  466MOL0     O61404   5.849   9.849   2.928 -0.7621  0.0690  0.1731
  466MOL0     C61405   5.960   9.778   2.935 -0.3549  0.3853 -0.1413
  466MOL0     C61406   6.082   9.809   2.868  0.9184  0.2001 -0.7151
  466MOL0     C61407   6.199   9.742   2.870 -0.4172 -0.3032 -1.0573
  466MOL0     C61408   6.199   9.624   2.937  0.0768 -0.8449 -0.2099
  466MOL0     C61409   6.318   9.542   2.914  0.2792  0.5108  0.3808
  466MOL0     O61410   6.432   9.600   2.891  0.2808  0.0557  0.1459
  466MOL0     C61411   6.541   9.534   2.943  0.5254 -0.7506 -0.4201
  466MOL0     C61412   6.561   9.526   3.081 -0.3958  0.5212  0.0372
  466MOL0     C61413   6.684   9.483   3.130  0.2188  0.0132  0.5886
  466MOL0     C61414   6.785   9.432   3.049  0.6299 -0.4754  0.0101
  466MOL0     O61415   6.890   9.393   3.119 -0.0423 -0.0816  0.4121
  466MOL0     C61416   6.997   9.325   3.044 -0.0581  0.2306 -0.6541
  466MOL0     C61417   7.104   9.264   3.148 -0.0146  0.0392  0.2277
  466MOL0     C61418   7.040   9.182   3.263 -0.6585  0.5857  0.0803
  466MOL0     C61419   7.150   9.120   3.339  0.0720 -0.0786  0.1828
  466MOL0     C61420   7.102   9.062   3.469 -0.1447  0.4889 -0.1910
  466MOL0     C61421   7.211   8.978   3.536 -0.6790  0.0966 -0.1752
  466MOL0     C61422   7.316   9.072   3.589  0.0258  0.2942  0.3872
  466MOL0     C61423   7.452   9.072   3.519  0.3968 -0.2529  0.5318
  466MOL0    Cl61424   7.542   8.909   3.546 -0.0687  0.1767 -0.3226
  466MOL0     C61425   6.764   9.427   2.904 -0.1190 -0.0866 -0.5896
  466MOL0     C61426   6.643   9.489   2.853 -0.0734 -0.2148 -0.9877
  466MOL0     O61427   6.305   9.427   2.954  0.1624  0.2766  0.3281
  466MOL0     C61428   6.080   9.583   3.007  0.1965 -0.2259 -0.3260
  466MOL0     C61429   5.962   9.656   3.001 -0.4760 -0.3998  1.0969
  466MOL0     N61430   5.375   9.959   2.505  0.3853 -0.3291 -1.5103
  466MOL0     N61431   5.284   9.929   2.421 -0.1614 -0.2815 -0.1866
  466MOL0     C61432   4.164   9.801   3.041  0.4389  0.0235  0.3673
  466MOL0     C61433   4.051   9.721   3.075  0.9092 -0.4078 -0.0837
  466MOL0     C61434   3.793   9.338   3.180  0.1154 -0.1969  0.0150
  466MOL0     C61435   3.679   9.418   3.196 -0.8731 -0.1562 -0.0536
  466MOL0     C61436   3.559   9.367   3.228  1.0933 -0.7493  0.1869
  466MOL0     C61437   3.542   9.233   3.253  1.2028 -0.2672 -1.0047
  466MOL0     O61438   3.420   9.194   3.313 -0.2047  0.3207 -0.6051
  466MOL0     C61439   3.365   9.070   3.270  0.7605  0.3207 -0.1603
  466MOL0     C61440   3.218   9.058   3.328 -0.3387 -0.6075 -0.0725
  466MOL0     C61441   3.158   8.918   3.296 -0.8200  0.4164 -0.6331
  466MOL0     C61442   3.091   8.902   3.156  0.4538 -0.6470 -0.0928
  466MOL0     C61443   3.060   8.760   3.151 -1.0367 -0.5792  0.1276
  466MOL0     C61444   3.046   8.640   3.156 -0.5688  0.0207 -0.0247
  466MOL0     C61445   3.655   9.145   3.240 -0.2633  0.4257  0.9939
  466MOL0     C61446   3.785   9.192   3.199  0.4598 -0.0942 -0.3344
  466MOL0     H61447   4.126   9.426   2.938  0.9100  0.2727 -1.6052
  466MOL0     H61448   4.323   9.556   2.864 -0.9324 -0.4322 -0.1632
  466MOL0     H61449   4.403   9.751   2.749 -0.0580 -3.6851  0.4360
  466MOL0     H61450   4.502   9.660   2.871 -1.6206 -1.0148  0.3827
  466MOL0     H61451   4.631   9.836   2.936  0.2212  0.4881  0.0309
  466MOL0     H61452   4.566   9.953   2.833  1.1414  0.0695  2.7022
  466MOL0     H61453   4.648   9.832   2.634  0.5192 -1.8179 -0.8126
  466MOL0     H61454   4.698   9.694   2.737 -0.0898  0.0072  2.3913
  466MOL0     H61455   4.817   9.976   2.767  0.7298 -0.0178  2.6423
  466MOL0     H61456   4.839   9.853   2.883  3.8823  1.6812  0.6980
  466MOL0     H61457   4.940   9.702   2.734  0.8181  0.4732  0.1056
  466MOL0     H61458   5.036   9.849   2.735  0.4010 -0.5663 -1.4158
  466MOL0     H61459   4.968   9.923   2.525  1.4996 -0.9532  0.2429
  466MOL0     H61460   4.825   9.808   2.522 -0.3802 -0.0580  0.8856
  466MOL0     H61461   5.044   9.642   2.555  0.0405 -3.7663 -1.6338
  466MOL0     H61462   4.925   9.661   2.431 -1.1502  0.6525  0.9106
  466MOL0     H61463   5.053   9.837   2.322 -1.8426 -0.9645  1.3628
  466MOL0     H61464   5.119   9.670   2.324  1.6494 -0.2850 -0.3366
  466MOL0     H61465   5.267   9.666   2.618  1.2516  0.0550  0.7907
  466MOL0     H61466   5.573   9.770   2.643 -1.4499 -2.0935 -1.5284
  466MOL0     H61467   5.443   9.757   2.766 -0.5745 -0.9783 -1.1598
  466MOL0     H61468   5.460   9.996   2.822  2.2860  2.0697  1.5813
  466MOL0     H61469   5.587  10.020   2.693 -2.1892 -0.3435 -1.1704
  466MOL0     H61470   5.668  10.004   2.921 -3.1940 -0.2527  3.7280
  466MOL0     H61471   5.585   9.849   2.943 -2.2543  0.1750 -1.9015
  466MOL0     H61472   5.810   9.898   2.728 -0.5309 -0.8746 -0.7499
  466MOL0     H61473   5.762   9.746   2.777 -0.8060 -0.2511  2.3905
  466MOL0     H61474   6.073   9.898   2.806 -1.7690  1.2698  1.0048
  466MOL0     H61475   6.283   9.761   2.804 -0.6062  0.5612 -1.0583
  466MOL0     H61476   6.490   9.582   3.142 -1.0558  2.2108 -2.1554
  466MOL0     H61477   6.705   9.481   3.237 -1.0737 -0.4306  0.8497
  466MOL0     H61478   7.039   9.412   2.992  0.3177  0.1776 -0.4421
  466MOL0     H61479   6.967   9.251   2.969  1.2812 -1.2344  0.1850
  466MOL0     H61480   7.167   9.344   3.185  2.9335 -0.3926 -3.2519
  466MOL0     H61481   7.174   9.205   3.088 -0.4901 -0.9427  0.6216
  466MOL0     H61482   6.976   9.101   3.228  1.8444 -2.0867  1.2702
  466MOL0     H61483   6.982   9.248   3.327  2.4837  2.0383  1.6770
  466MOL0     H61484   7.197   9.049   3.271 -2.2915 -3.4505  1.7420
  466MOL0     H61485   7.220   9.202   3.356 -0.2133  0.0127  0.9835
  466MOL0     H61486   7.011   9.000   3.461 -0.2959  0.4096  1.6836
  466MOL0     H61487   7.076   9.146   3.533 -1.9283  1.2051 -1.7550
  466MOL0     H61488   7.255   8.898   3.476  1.2514  0.5681  0.5529
  466MOL0     H61489   7.168   8.926   3.623 -3.0292  0.0813 -1.2719
  466MOL0     H61490   7.269   9.170   3.601  2.1631  1.4062  0.1253
  466MOL0     H61491   7.340   9.047   3.692 -0.2852  1.2749  0.7093
  466MOL0     H61492   7.518   9.155   3.545  0.5745  0.3796 -1.6816
  466MOL0     H61493   7.427   9.073   3.412 -1.7001 -0.0740  0.9826
  466MOL0     H61494   6.839   9.400   2.830  0.9202 -0.3091  0.5104
  466MOL0     H61495   6.611   9.484   2.750  0.5191 -3.5939 -1.1159
  466MOL0     H61496   6.085   9.491   3.064  2.1079  0.6627  1.0679
  466MOL0     H61497   5.870   9.622   3.049 -2.1399 -0.8827 -2.1151
  466MOL0     H61498   4.184   9.898   3.086  2.6340 -0.9334  1.6276
  466MOL0     H61499   3.970   9.772   3.125  0.6902 -0.0150 -0.8267
  466MOL0     H61500   3.676   9.525   3.181  0.0446  0.0438  1.0272
  466MOL0     H61501   3.474   9.434   3.236  1.8265 -0.0064  3.2049
  466MOL0     H61502   3.436   8.992   3.301  0.6591  0.9890  1.8903
  466MOL0     H61503   3.350   9.062   3.162 -0.5858 -1.0226  0.0870
  466MOL0     H61504   3.217   9.096   3.430  1.4078 -1.0746  0.1611
  466MOL0     H61505   3.152   9.121   3.267  1.2732  1.2355 -0.0159
  466MOL0     H61506   3.078   8.903   3.369  0.6803 -3.0353  0.5106
  466MOL0     H61507   3.229   8.836   3.312 -1.0022  0.6828  2.0573
  466MOL0     H61508   3.000   8.959   3.139  1.7081  1.3957 -0.2550
  466MOL0     H61509   3.158   8.931   3.075 -2.9465  0.0525 -2.8437
  466MOL0     H61510   3.044   8.533   3.158  2.7197 -0.1537  0.0187
  466MOL0     H61511   3.630   9.041   3.260 -3.8522  0.2475 -2.8888
  466MOL0     H61512   3.870   9.125   3.190 -0.7378 -1.9084  1.0801
  467MOL0     O61513   8.691   1.749   2.592 -0.2648 -0.1263  0.2652
  467MOL0     C61514   8.737   1.641   2.550 -0.4099 -0.5092 -0.2307
  467MOL0     O61515   8.664   1.546   2.479  1.2511 -1.0150  0.4390
  467MOL0     C61516   8.535   1.580   2.449 -0.3613 -0.2205  0.6925
  467MOL0     C61517   8.435   1.535   2.541 -0.3584 -0.1988 -0.0968
  467MOL0     C61518   8.303   1.558   2.507 -0.7476  0.5960  0.3886
  467MOL0     C61519   8.259   1.610   2.385 -0.0856 -0.8817 -0.2169
  467MOL0     O61520   8.126   1.633   2.344 -0.1831  0.0207  0.5322
  467MOL0     C61521   8.032   1.646   2.448  0.0073 -0.0302 -0.2120
  467MOL0     C61522   7.932   1.535   2.455 -0.7088 -0.8076  0.9776
  467MOL0     C61523   7.872   1.509   2.307  0.4283 -0.2834 -0.7149
  467MOL0     C61524   7.795   1.378   2.321  0.6208  0.7105  0.0207
  467MOL0     C61525   7.648   1.401   2.279 -0.5743 -0.0829 -0.4309
  467MOL0     C61526   7.552   1.435   2.391 -0.3944  0.0895  0.4153
  467MOL0     C61527   7.405   1.418   2.334 -0.3099  0.0803 -0.6550
  467MOL0     C61528   7.307   1.418   2.446  0.3716 -0.2221  0.3863
  467MOL0     N61529   7.161   1.418   2.409 -0.1773 -0.1449 -0.7568
  467MOL0     C61530   7.102   1.387   2.286 -0.2586  0.2175  0.1287
  467MOL0     C61531   6.976   1.381   2.310  0.6096  0.4431 -0.1649
  467MOL0     C61532   6.877   1.327   2.211  0.7323  0.9638 -0.0048
  467MOL0     C61533   6.861   1.167   2.221  0.6383 -0.4581  0.5989
  467MOL0     C61534   6.975   1.093   2.156  0.5538 -0.4289 -0.0248
  467MOL0     C61535   7.014   0.961   2.216 -0.7095  0.2099 -0.3486
  467MOL0     O61536   7.148   0.917   2.178  0.4324 -0.3297 -0.1007
  467MOL0     C61537   7.256   0.962   2.254 -0.1027  0.2906 -0.5698
  467MOL0     C61538   7.252   1.032   2.376 -0.0675  0.5153  0.1113
  467MOL0     C61539   7.373   1.048   2.456 -0.2377 -0.7058 -0.3754
  467MOL0     C61540   7.495   1.005   2.406 -0.8926  0.3399  0.2926
  467MOL0     C61541   7.622   1.016   2.475 -0.1778  0.4776 -0.2219
  467MOL0     O61542   7.725   0.927   2.450  0.1902 -0.3005  0.0865
  467MOL0     C61543   7.846   0.977   2.481  0.6664 -0.7940  0.2596
  467MOL0     C61544   7.891   1.073   2.391 -0.2370  0.1928  0.7850
  467MOL0     C61545   8.017   1.119   2.421  0.0471 -0.1615  0.2008
  467MOL0     C61546   8.093   1.087   2.544  0.1295  1.3133  0.2211
  467MOL0     O61547   8.192   1.176   2.573 -0.5535  0.4226 -0.0157
  467MOL0     C61548   8.310   1.130   2.642 -0.4672 -0.6045 -0.2986
  467MOL0     C61549   8.405   1.065   2.545  0.4278 -0.2956  0.4651
  467MOL0     C61550   8.535   1.023   2.618 -0.0849 -0.0823  0.1250
  467MOL0     C61551   8.634   0.988   2.514 -0.5883  0.3581  0.3916
  467MOL0     C61552   8.782   0.972   2.564 -0.9172 -0.3042 -0.6239
  467MOL0     C61553   8.801   0.893   2.692  0.1323 -0.1604 -1.4275
  467MOL0     C61554   8.953   0.861   2.709  0.3274  0.7566 -0.2107
  467MOL0     C61555   9.037   0.985   2.747  0.0224  0.5707  0.3820
  467MOL0    Cl61556   9.072   0.988   2.918  0.3239  0.2380  0.5228
  467MOL0     C61557   8.031   1.002   2.636 -0.1740 -0.9956 -0.2088
  467MOL0     C61558   7.915   0.946   2.599 -0.0906  0.2369 -0.3383
  467MOL0     O61559   7.630   1.121   2.540  0.5106  0.4585  0.3027
  467MOL0     C61560   7.500   0.940   2.283 -0.5245  0.0097  0.7635
  467MOL0     C61561   7.382   0.919   2.210  0.9527 -0.5021 -1.3055
  467MOL0     N61562   6.954   1.417   2.444  0.5600  0.1117  0.0241
  467MOL0     N61563   7.062   1.441   2.507  0.3689 -0.6575 -0.4417
  467MOL0     C61564   8.358   1.650   2.290 -0.4560 -0.8868 -0.2985
  467MOL0     C61565   8.497   1.639   2.324  0.2140 -0.5662  0.3665
  467MOL0     C61566   8.877   1.602   2.581  0.3687 -0.2009 -0.1703
  467MOL0     C61567   8.933   1.486   2.522 -0.1934 -0.9982 -0.3592
  467MOL0     C61568   9.058   1.435   2.561  0.4722 -0.5914 -0.7205
  467MOL0     C61569   9.136   1.510   2.647  0.4643 -0.5176 -0.9889
  467MOL0     O61570   9.260   1.466   2.672 -0.8406  0.2546  0.1507
  467MOL0     C61571   9.350   1.543   2.752  0.4373  0.0730 -0.3478
  467MOL0     C61572   9.413   1.673   2.684  0.0916  0.1109  0.1301
  467MOL0     C61573   9.493   1.631   2.556 -0.7266 -0.3316 -0.4789
  467MOL0     C61574   9.572   1.749   2.501 -1.0388  0.3684  0.0513
  467MOL0     C61575   9.496   1.838   2.424 -0.3912 -1.0998 -0.2851
  467MOL0     C61576   9.415   1.905   2.355  0.0056 -0.2406 -0.2116
  467MOL0     C61577   9.084   1.628   2.705  0.4828  0.7450 -0.5512
  467MOL0     C61578   8.957   1.673   2.674  0.9298 -0.1794  0.3294
  467MOL0     H61579   8.456   1.486   2.635 -0.0858  2.7278  1.4523
  467MOL0     H61580   8.239   1.531   2.590 -1.8770 -0.4017 -0.7678
  467MOL0     H61581   7.972   1.738   2.439 -1.6495 -1.1794 -1.8289
  467MOL0     H61582   8.081   1.650   2.546  3.0919 -1.7518 -1.5467
  467MOL0     H61583   7.850   1.567   2.520  0.4077 -1.1645  2.6268
  467MOL0     H61584   7.972   1.447   2.507 -0.0795  0.4640  2.7630
  467MOL0     H61585   7.957   1.494   2.239  1.1986  1.5510 -0.2200
  467MOL0     H61586   7.814   1.597   2.277  1.0961  0.3422 -0.2129
  467MOL0     H61587   7.834   1.310   2.244  0.2178 -1.2595  1.4848
  467MOL0     H61588   7.803   1.329   2.418 -0.0825  0.6947  0.0802
  467MOL0     H61589   7.618   1.306   2.234  1.6003 -0.4904 -1.1685
  467MOL0     H61590   7.654   1.480   2.203 -1.4939  0.6766  0.2720
  467MOL0     H61591   7.553   1.537   2.433  1.3188  0.0897  0.4400
  467MOL0     H61592   7.577   1.369   2.474 -1.1815  1.7456  2.0577
  467MOL0     H61593   7.379   1.491   2.257 -0.2217  1.1075  0.2577
  467MOL0     H61594   7.406   1.316   2.294  1.5595 -0.9199  1.6247
  467MOL0     H61595   7.315   1.510   2.503  1.6870 -0.2791  0.3183
  467MOL0     H61596   7.329   1.327   2.504  0.2310 -1.5806 -1.5798
  467MOL0     H61597   7.149   1.374   2.189  0.9100  2.5171  0.3107
  467MOL0     H61598   6.915   1.364   2.116  1.6192  1.9412  0.6976
  467MOL0     H61599   6.780   1.376   2.218 -2.3483 -4.1928 -1.5010
  467MOL0     H61600   6.769   1.143   2.166  1.5927 -2.9608 -0.0441
  467MOL0     H61601   6.846   1.124   2.320 -1.3346 -3.6925 -0.9269
  467MOL0     H61602   6.956   1.072   2.051 -0.5032  1.2061 -0.2021
  467MOL0     H61603   7.058   1.165   2.159 -0.7901  1.2099 -0.6861
  467MOL0     H61604   6.948   0.878   2.191 -2.1429  1.7058 -1.7423
  467MOL0     H61605   7.009   0.978   2.324  2.4494 -0.3060 -0.0022
  467MOL0     H61606   7.159   1.066   2.420 -0.6675 -2.1002  1.0978
  467MOL0     H61607   7.370   1.092   2.555 -0.8310 -2.7864  0.5807
  467MOL0     H61608   7.823   1.097   2.311 -1.0665  0.1696  1.4677
  467MOL0     H61609   8.059   1.193   2.354  1.3967 -0.7112  0.4171
  467MOL0     H61610   8.296   1.061   2.725  2.8502 -1.5864 -0.3883
  467MOL0     H61611   8.359   1.219   2.682 -0.4983  0.6092 -2.7528
  467MOL0     H61612   8.424   1.149   2.478  4.1077 -2.8213 -2.0795
  467MOL0     H61613   8.365   0.980   2.489  0.6851 -1.1978  1.6144
  467MOL0     H61614   8.508   0.948   2.693 -0.9634  1.0665  1.0144
  467MOL0     H61615   8.575   1.103   2.681 -0.2958  0.2578 -0.1713
  467MOL0     H61616   8.611   0.890   2.472  1.3373  0.6895 -1.5620
  467MOL0     H61617   8.637   1.071   2.443 -1.1429  1.0598  1.1592
  467MOL0     H61618   8.833   1.069   2.567 -2.3397  0.4467  0.3361
  467MOL0     H61619   8.826   0.914   2.483 -0.0821 -1.6260  0.7328
  467MOL0     H61620   8.742   0.803   2.708  1.7388 -0.8761  1.0782
  467MOL0     H61621   8.776   0.961   2.774 -0.3441  1.4610 -2.8618
  467MOL0     H61622   8.964   0.792   2.793  2.3416  1.5031  0.1950
  467MOL0     H61623   8.983   0.823   2.611 -1.1139  0.9451 -0.7449
  467MOL0     H61624   8.994   1.083   2.726  0.2232  0.8348  1.1759
  467MOL0     H61625   9.121   0.980   2.677 -1.7821  0.4928 -1.9181
  467MOL0     H61626   8.082   0.988   2.731  1.2270  1.4205 -0.5123
  467MOL0     H61627   7.870   0.870   2.661 -1.3342  1.7744  0.7253
  467MOL0     H61628   7.595   0.904   2.245 -0.9575 -1.1364  0.7240
  467MOL0     H61629   7.373   0.875   2.111  2.2293  0.7514 -1.9979
  467MOL0     H61630   8.335   1.700   2.196  2.8865 -0.0860 -0.8203
  467MOL0     H61631   8.570   1.676   2.252 -0.8607  0.7239 -0.1058
  467MOL0     H61632   8.885   1.421   2.449  0.8347 -1.3700 -0.7260
  467MOL0     H61633   9.093   1.348   2.506 -2.0762 -3.6088  2.0827
  467MOL0     H61634   9.439   1.490   2.788 -0.1144  0.0830  1.0975
  467MOL0     H61635   9.291   1.575   2.838  2.9498  3.3591  0.3788
  467MOL0     H61636   9.338   1.744   2.649 -0.1643 -0.2756 -0.1181
  467MOL0     H61637   9.479   1.717   2.759 -2.1983  3.0224  0.6082
  467MOL0     H61638   9.421   1.599   2.480  0.9897 -1.6659 -1.6187
  467MOL0     H61639   9.561   1.551   2.586  0.8739  1.0359 -0.3408
  467MOL0     H61640   9.629   1.794   2.582 -0.2379 -0.1394 -0.2161
  467MOL0     H61641   9.643   1.708   2.429 -1.8233 -0.0830 -0.4823
  467MOL0     H61642   9.359   1.959   2.282 -4.2034  0.0012  2.8068
  467MOL0     H61643   9.139   1.688   2.777 -1.3503 -0.5044  2.0645
  467MOL0     H61644   8.921   1.766   2.717  0.6406 -0.8483  1.5889
  468MOL0     O61645   5.551   3.045   6.560 -0.2171  0.5840 -0.1494
  468MOL0     C61646   5.576   2.989   6.667  0.4765 -0.7087  0.0869
  468MOL0     O61647   5.542   3.038   6.791  0.6551 -0.0265  0.1074
  468MOL0     C61648   5.430   3.113   6.812  0.0606 -0.0087  0.6453
  468MOL0     C61649   5.314   3.110   6.717  0.6109  0.5638  0.1534
  468MOL0     C61650   5.200   3.187   6.753 -0.6104  0.0025 -0.1581
  468MOL0     C61651   5.189   3.242   6.880 -0.1567 -0.6220  0.0536
  468MOL0     O61652   5.082   3.312   6.926 -0.7315 -0.4640 -0.4690
  468MOL0     C61653   4.958   3.309   6.856 -0.2850 -0.1003 -0.5692
  468MOL0     C61654   4.857   3.384   6.943 -0.1321  0.4480 -0.3677
  468MOL0     C61655   4.730   3.407   6.863 -0.1690 -0.1681 -0.2239
  468MOL0     C61656   4.614   3.462   6.951  0.1297  0.5462  0.0809
  468MOL0     C61657   4.487   3.503   6.872  0.8981  0.3405  0.2821
  468MOL0     C61658   4.510   3.636   6.790 -0.4455  0.3348  0.6402
  468MOL0     C61659   4.385   3.689   6.712  0.4342  0.5386 -0.4674
  468MOL0     C61660   4.331   3.574   6.628  0.1930 -0.2156  0.1922
  468MOL0     N61661   4.208   3.605   6.550  0.5990 -0.6076  0.4763
  468MOL0     C61662   4.203   3.658   6.423  0.5496 -0.5060 -0.3142
  468MOL0     C61663   4.073   3.648   6.382  0.0675  0.1929 -0.4499
  468MOL0     C61664   4.015   3.683   6.248 -0.0712 -0.4010 -0.2272
  468MOL0     C61665   3.858   3.702   6.248 -0.3727 -0.5820 -1.2940
  468MOL0     C61666   3.813   3.828   6.326 -0.2547 -1.0484 -0.4979
  468MOL0     C61667   3.665   3.850   6.288  0.0339 -0.2138 -0.0957
  468MOL0     O61668   3.617   3.974   6.331  0.0325  0.3659  0.2348
  468MOL0     C61669   3.489   4.014   6.290 -0.3542  0.4494  0.4885
  468MOL0     C61670   3.425   4.116   6.367  0.4627  0.7667  0.3691
  468MOL0     C61671   3.303   4.161   6.329 -0.9037  0.1741  0.4968
  468MOL0     C61672   3.232   4.118   6.218 -0.1719  0.1268  0.3569
  468MOL0     C61673   3.102   4.187   6.185 -0.4242  0.5035 -0.9177
  468MOL0     O61674   3.028   4.109   6.096  0.0448 -0.3351 -0.7144
  468MOL0     C61675   2.898   4.150   6.083  0.2656 -0.9429 -0.3545
  468MOL0     C61676   2.880   4.225   5.966  0.6531  0.0602 -0.6212
  468MOL0     C61677   2.754   4.268   5.935 -0.5831 -0.1869  0.2282
  468MOL0     C61678   2.641   4.236   6.013  0.1948 -0.8349  0.4681
  468MOL0     O61679   2.515   4.265   5.979  0.4926  0.0699  0.2487
  468MOL0     C61680   2.504   4.405   5.945  0.0560 -0.2324  0.1559
  468MOL0     C61681   2.357   4.442   5.906 -0.6757  0.3829  0.6697
  468MOL0     C61682   2.274   4.463   6.037  0.8975  0.1416 -0.3206
  468MOL0     C61683   2.130   4.471   6.003 -0.5856  0.4563  0.4569
  468MOL0     C61684   2.050   4.496   6.122 -0.2217 -0.4086 -0.1540
  468MOL0     C61685   1.901   4.500   6.077 -0.8066  1.0667  0.3628
  468MOL0     C61686   1.818   4.493   6.211 -0.2411  1.0225 -0.2199
  468MOL0     C61687   1.673   4.454   6.190  0.7399  0.3264 -0.1059
  468MOL0    Cl61688   1.608   4.558   6.058  0.1085 -0.0077  0.4244
  468MOL0     C61689   2.668   4.168   6.131 -0.2407  0.8969 -0.1896
  468MOL0     C61690   2.797   4.132   6.175  0.5016  0.0917  0.4791
  468MOL0     O61691   3.071   4.289   6.244  0.1947 -0.4646 -0.5131
  468MOL0     C61692   3.292   4.021   6.134  0.4503  0.6292 -0.1282
  468MOL0     C61693   3.414   3.961   6.178  0.0080 -0.2228 -0.7028
  468MOL0     N61694   4.001   3.604   6.490  0.3113  0.8795 -0.2660
  468MOL0     N61695   4.086   3.569   6.585  0.0627 -0.7612 -0.5491
  468MOL0     C61696   5.295   3.243   6.967  0.0200 -0.3448  1.3817
  468MOL0     C61697   5.416   3.184   6.933 -0.3276  1.0471 -0.2706
  468MOL0     C61698   5.656   2.866   6.659  0.9707  0.3572 -0.6027
  468MOL0     C61699   5.688   2.810   6.785  0.3484  0.2671 -0.2986
  468MOL0     C61700   5.752   2.693   6.789 -0.2679  0.4509  0.8184
  468MOL0     C61701   5.810   2.635   6.678 -0.3915  0.0550  0.1278
  468MOL0     O61702   5.884   2.523   6.701  0.0345  0.6383 -0.1054
  468MOL0     C61703   5.893   2.422   6.604 -0.0515 -0.0975  0.4558
  468MOL0     C61704   5.795   2.313   6.625 -0.3559  0.3691 -0.7842
  468MOL0     C61705   5.821   2.191   6.537  0.6719 -0.2572 -0.9888
  468MOL0     C61706   5.725   2.086   6.589  0.3686  0.2876 -0.1797
  468MOL0     C61707   5.584   2.112   6.544 -0.8668 -0.3067  1.1737
  468MOL0     C61708   5.469   2.117   6.517  0.8213  0.1992  0.1924
  468MOL0     C61709   5.775   2.689   6.553 -0.1523  0.0225  0.0418
  468MOL0     C61710   5.691   2.794   6.543 -0.8675 -0.9883  0.1682
  468MOL0     H61711   5.306   3.052   6.625 -4.1142  0.1051  0.5998
  468MOL0     H61712   5.117   3.215   6.688  0.9664 -1.6742 -3.0918
  468MOL0     H61713   4.926   3.205   6.839  1.8023 -0.6062 -1.7611
  468MOL0     H61714   4.963   3.356   6.757  0.8594 -2.0429 -1.5002
  468MOL0     H61715   4.892   3.481   6.979  1.0013  0.1700 -0.6922
  468MOL0     H61716   4.827   3.323   7.029 -1.1310 -2.6319 -2.7079
  468MOL0     H61717   4.688   3.316   6.819 -0.2342 -1.2295  1.8669
  468MOL0     H61718   4.758   3.474   6.782  1.0026 -2.2184 -1.5956
  468MOL0     H61719   4.592   3.381   7.021  0.0838  2.2988  2.2323
  468MOL0     H61720   4.648   3.551   7.006 -3.1052  2.7160 -1.1284
  468MOL0     H61721   4.397   3.519   6.931 -1.0323 -0.5441 -2.2295
  468MOL0     H61722   4.455   3.415   6.815  1.8620 -0.1873  0.5258
  468MOL0     H61723   4.586   3.628   6.711 -0.5136  0.4566  0.5632
  468MOL0     H61724   4.537   3.710   6.866 -2.7541  0.4079  1.4658
  468MOL0     H61725   4.310   3.705   6.790  0.6798 -1.8075  0.3300
  468MOL0     H61726   4.413   3.775   6.651  2.0195 -0.8562 -1.8043
  468MOL0     H61727   4.298   3.489   6.689 -1.7838  0.2728 -0.1027
  468MOL0     H61728   4.401   3.551   6.548 -0.4706 -3.2913  0.3710
  468MOL0     H61729   4.279   3.679   6.348  1.7461 -0.3947  0.8875
  468MOL0     H61730   4.039   3.606   6.175  1.4773  0.2204 -0.4013
  468MOL0     H61731   4.061   3.776   6.217  1.3871 -0.6956  0.9250
  468MOL0     H61732   3.812   3.608   6.281  2.7416 -3.3894 -4.1094
  468MOL0     H61733   3.824   3.723   6.147 -0.5736 -1.7800 -1.4864
  468MOL0     H61734   3.833   3.821   6.433  0.4647 -1.0740 -0.6295
  468MOL0     H61735   3.878   3.910   6.296  0.1186 -0.5088  1.6636
  468MOL0     H61736   3.601   3.776   6.337 -0.1904 -2.1508 -3.0790
  468MOL0     H61737   3.659   3.856   6.179 -1.0745  1.3920  0.0167
  468MOL0     H61738   3.468   4.163   6.456  0.8177 -0.4638  0.8729
  468MOL0     H61739   3.265   4.249   6.380  1.3361  1.3157  0.3143
  468MOL0     H61740   2.952   4.236   5.886  1.8818 -0.5076  0.3652
  468MOL0     H61741   2.720   4.318   5.845 -2.3813 -1.4728  0.1401
  468MOL0     H61742   2.561   4.425   5.854 -0.6622 -1.3801 -0.5745
  468MOL0     H61743   2.532   4.461   6.035 -0.9628 -1.8308  1.5404
  468MOL0     H61744   2.325   4.353   5.851  0.7153  0.2099  0.1137
  468MOL0     H61745   2.366   4.534   5.847 -0.0186  1.0724  1.8079
  468MOL0     H61746   2.309   4.551   6.093 -0.3060  1.2560 -1.2729
  468MOL0     H61747   2.295   4.377   6.102  2.4215  0.0599 -0.8671
  468MOL0     H61748   2.120   4.552   5.930  4.9789  1.0080 -0.1300
  468MOL0     H61749   2.118   4.374   5.953  1.3197 -0.5182  1.7525
  468MOL0     H61750   2.078   4.591   6.168 -1.6646 -1.1789  2.5466
  468MOL0     H61751   2.075   4.421   6.197  0.4281 -2.4077 -2.2322
  468MOL0     H61752   1.890   4.404   6.027  2.0882  0.1732  1.2611
  468MOL0     H61753   1.878   4.586   6.014 -0.7300 -1.9880 -4.3113
  468MOL0     H61754   1.853   4.411   6.274  0.3464  1.0506 -0.5121
  468MOL0     H61755   1.829   4.582   6.273 -0.1895  0.2525  0.9016
  468MOL0     H61756   1.618   4.466   6.284  1.0046 -0.4759  0.1546
  468MOL0     H61757   1.679   4.349   6.161  0.8611  0.7989 -1.8970
  468MOL0     H61758   2.587   4.127   6.190  2.0592 -1.9947  1.1939
  468MOL0     H61759   2.804   4.075   6.267  1.6745 -1.2586 -0.4036
  468MOL0     H61760   3.239   3.970   6.055  2.5745 -1.9277 -0.0677
  468MOL0     H61761   3.463   3.885   6.119  1.6176  0.9943 -1.0174
  468MOL0     H61762   5.290   3.279   7.069  1.4163 -0.5752  1.5591
  468MOL0     H61763   5.495   3.171   7.006 -2.2574 -3.1597  1.4284
  468MOL0     H61764   5.647   2.853   6.876 -3.9348  0.9610 -2.2866
  468MOL0     H61765   5.769   2.643   6.884 -1.0747 -2.3841 -0.4129
  468MOL0     H61766   5.991   2.375   6.611  0.6197  0.8056 -1.7970
  468MOL0     H61767   5.889   2.443   6.496  4.6691 -0.6878 -0.0326
  468MOL0     H61768   5.797   2.284   6.730 -2.4911  1.4631 -0.3770
  468MOL0     H61769   5.694   2.348   6.602 -0.6743 -0.5903 -0.8730
  468MOL0     H61770   5.925   2.162   6.554  0.7446 -0.0576 -1.0967
  468MOL0     H61771   5.805   2.204   6.430  0.7840 -1.9427 -1.2430
  468MOL0     H61772   5.754   1.987   6.552 -3.0497 -1.5212  1.5145
  468MOL0     H61773   5.728   2.087   6.698 -3.7775 -1.9590  0.1470
  468MOL0     H61774   5.363   2.118   6.496  0.8711  0.3880 -0.0488
  468MOL0     H61775   5.806   2.653   6.456  1.1319 -2.8496  1.4137
  468MOL0     H61776   5.643   2.822   6.450 -0.5601 -3.4104 -0.7846
  469MOL0     O61777   2.857   8.634   8.722 -0.8787 -0.4745 -0.4387
  469MOL0     C61778   2.815   8.611   8.609 -1.4675 -0.1655 -0.3735
  469MOL0     O61779   2.694   8.635   8.566 -0.5883 -0.1190  1.3041
  469MOL0     C61780   2.603   8.707   8.635  0.1359  0.8996  1.0735
  469MOL0     C61781   2.464   8.694   8.618 -0.3042  1.2421 -0.6847
  469MOL0     C61782   2.370   8.787   8.670  0.4876  0.0651  0.5183
  469MOL0     C61783   2.411   8.886   8.760  0.1312  0.0772 -0.9762
  469MOL0     O61784   2.323   8.973   8.817 -0.2896 -0.2246 -0.3353
  469MOL0     C61785   2.187   8.921   8.845  1.0504 -0.7912 -0.4808
  469MOL0     C61786   2.175   8.842   8.978  0.2201  0.2949  0.4688
  469MOL0     C61787   2.036   8.864   9.037  0.2030 -0.1731  0.4110
  469MOL0     C61788   1.909   8.839   8.948 -0.9380 -0.2934 -0.0523
  469MOL0     C61789   1.790   8.817   9.039  0.5208 -0.5447 -0.3419
  469MOL0     C61790   1.650   8.814   8.971 -0.1287 -0.3515  1.3030
  469MOL0     C61791   1.626   8.944   8.886  0.0734  0.0859  0.0918
  469MOL0     C61792   1.523   8.912   8.777  0.4006  0.1783  0.3219
  469MOL0     N61793   1.475   9.033   8.711  0.7699  1.1582 -0.6043
  469MOL0     C61794   1.555   9.121   8.649  0.4150  0.3871  0.6186
  469MOL0     C61795   1.473   9.202   8.586 -0.4795 -0.0867  0.1030
  469MOL0     C61796   1.510   9.309   8.487 -1.1281  0.8625 -0.3819
  469MOL0     C61797   1.661   9.307   8.460  0.4858  0.1886  0.1052
  469MOL0     C61798   1.720   9.375   8.336 -0.3833  0.6282 -0.1352
  469MOL0     C61799   1.879   9.340   8.316  0.1125 -0.8838 -0.2042
  469MOL0     O61800   1.927   9.401   8.197 -0.0402 -0.1749  0.0547
  469MOL0     C61801   2.058   9.374   8.163  0.4981  0.6655  0.4264
  469MOL0     C61802   2.093   9.424   8.040 -0.1780 -0.3048  0.2839
  469MOL0     C61803   2.223   9.400   7.979 -0.6615 -0.5530  0.2628
  469MOL0     C61804   2.312   9.316   8.044 -0.2258 -0.3931  0.4394
  469MOL0     C61805   2.446   9.299   7.981 -0.0723  0.1927 -0.0998
  469MOL0     O61806   2.516   9.177   7.998  0.7686 -0.2283  0.6010
  469MOL0     C61807   2.652   9.169   8.019  0.1478  0.1033  0.6385
  469MOL0     C61808   2.718   9.061   7.963 -0.0511 -0.3966 -0.3674
  469MOL0     C61809   2.857   9.050   7.982 -0.0234 -0.5851  0.0416
  469MOL0     C61810   2.931   9.130   8.073  0.6294  0.3227 -1.0351
  469MOL0     O61811   3.053   9.102   8.126  0.3949  0.1427 -0.1497
  469MOL0     C61812   3.142   9.046   8.035 -0.1641 -0.3223  0.2045
  469MOL0     C61813   3.285   9.091   8.070 -0.3826  0.3953 -0.3522
  469MOL0     C61814   3.398   9.036   7.976  0.1884 -0.1394  0.2421
  469MOL0     C61815   3.539   9.065   8.027  0.3400 -0.5072 -0.0648
  469MOL0     C61816   3.636   9.005   7.922  0.1069  0.2576  0.0017
  469MOL0     C61817   3.772   9.068   7.947 -0.8841 -0.1308  0.3986
  469MOL0     C61818   3.876   9.009   7.847  0.9094  0.1237 -0.1710
  469MOL0     C61819   4.014   9.069   7.877  0.9227  0.2504 -0.5917
  469MOL0    Cl61820   4.072   9.002   8.028 -0.0587  0.2074 -0.0890
  469MOL0     C61821   2.858   9.236   8.122 -0.7946 -0.2695  0.5803
  469MOL0     C61822   2.719   9.253   8.105 -0.1015 -0.9690  0.2838
  469MOL0     O61823   2.494   9.395   7.917 -0.1907  0.5550  0.3183
  469MOL0     C61824   2.278   9.262   8.166  1.0724 -0.1789  0.3642
  469MOL0     C61825   2.154   9.293   8.222  0.1198  0.8123  0.9932
  469MOL0     N61826   1.343   9.158   8.595  0.2936  0.1620 -0.0276
  469MOL0     N61827   1.350   9.050   8.661  0.3818 -0.1063  0.5826
  469MOL0     C61828   2.547   8.900   8.784 -0.1706 -0.9210  0.6162
  469MOL0     C61829   2.644   8.813   8.721  0.1445 -0.1825 -0.1616
  469MOL0     C61830   2.916   8.562   8.508  0.2825  0.0839  0.1283
  469MOL0     C61831   3.051   8.604   8.529  0.0139  0.5965  0.8147
  469MOL0     C61832   3.155   8.561   8.452  0.4855 -0.1685  0.5136
  469MOL0     C61833   3.125   8.487   8.334 -0.8960 -0.3457 -0.2133
  469MOL0     O61834   3.231   8.446   8.254 -0.7941  0.1306  0.7843
  469MOL0     C61835   3.364   8.503   8.257  0.2735 -0.2523  0.3057
  469MOL0     C61836   3.356   8.653   8.225  0.9134 -0.4176  0.1270
  469MOL0     C61837   3.500   8.705   8.248  0.0260 -0.0040  0.2335
  469MOL0     C61838   3.591   8.662   8.132 -0.2096 -0.1889  0.5143
  469MOL0     C61839   3.724   8.718   8.169 -0.6175 -0.3504 -0.1826
  469MOL0     C61840   3.828   8.758   8.215 -0.0498  0.1666 -0.5573
  469MOL0     C61841   2.996   8.448   8.308  1.1058  0.1875  0.2746
  469MOL0     C61842   2.892   8.486   8.393 -0.1349  0.7780 -0.9608
  469MOL0     H61843   2.415   8.630   8.546  2.2731 -0.3127 -1.1695
  469MOL0     H61844   2.265   8.771   8.647  0.9549 -1.8591 -0.5469
  469MOL0     H61845   2.133   8.876   8.761 -0.2516  1.8855 -1.1885
  469MOL0     H61846   2.137   9.016   8.866  0.6836 -1.1476  0.3066
  469MOL0     H61847   2.255   8.867   9.048  2.0999 -0.7751 -1.1630
  469MOL0     H61848   2.181   8.735   8.955 -0.3043  0.7821 -2.3305
  469MOL0     H61849   2.020   8.962   9.081 -1.8801 -1.4694  2.7878
  469MOL0     H61850   2.034   8.795   9.121 -0.5025 -2.1139 -1.1142
  469MOL0     H61851   1.903   8.929   8.888 -1.1482  2.0153  3.1595
  469MOL0     H61852   1.909   8.754   8.879 -0.4158  1.6394 -2.5289
  469MOL0     H61853   1.778   8.891   9.119  0.0297 -0.7531 -0.2222
  469MOL0     H61854   1.810   8.723   9.091  2.1106 -0.4010 -0.6443
  469MOL0     H61855   1.564   8.803   9.038 -0.4164  3.3496  1.7435
  469MOL0     H61856   1.658   8.737   8.894 -0.2531 -0.4771  1.4149
  469MOL0     H61857   1.582   9.010   8.962  2.3334  2.0538 -0.1908
  469MOL0     H61858   1.719   8.985   8.846 -0.9693  1.3302 -1.1698
  469MOL0     H61859   1.440   8.853   8.818  0.6845  1.0829  2.3423
  469MOL0     H61860   1.582   8.863   8.699  1.8331 -0.0803  1.5256
  469MOL0     H61861   1.663   9.126   8.652  0.4900  0.6182 -1.2562
  469MOL0     H61862   1.476   9.399   8.540  0.1759  0.1078  1.9069
  469MOL0     H61863   1.460   9.292   8.391 -0.5532 -0.1913 -0.5105
  469MOL0     H61864   1.688   9.205   8.430  2.6502  1.0461 -1.1374
  469MOL0     H61865   1.707   9.348   8.550  0.4347  0.1785  0.1357
  469MOL0     H61866   1.659   9.359   8.247 -1.6786 -1.7080  1.0905
  469MOL0     H61867   1.722   9.480   8.367 -2.9860  1.1016 -1.3037
  469MOL0     H61868   1.879   9.232   8.293 -1.9109 -0.9912  0.0917
  469MOL0     H61869   1.940   9.368   8.402  1.0623  1.7656 -1.6500
  469MOL0     H61870   2.024   9.485   7.982  0.7778  0.2149 -0.3319
  469MOL0     H61871   2.241   9.451   7.885  3.3747  1.9732  2.1512
  469MOL0     H61872   2.660   8.993   7.903 -0.0481  0.2285 -1.0879
  469MOL0     H61873   2.899   8.965   7.930  0.1675  0.1826 -1.1186
  469MOL0     H61874   3.121   9.053   7.927 -0.9157 -1.9125  0.2170
  469MOL0     H61875   3.140   8.937   8.043 -0.6030 -0.3489 -0.1662
  469MOL0     H61876   3.308   9.031   8.159 -1.2456 -3.2009 -2.3520
  469MOL0     H61877   3.288   9.200   8.071 -0.6352  0.4017 -0.4076
  469MOL0     H61878   3.367   9.063   7.875 -0.8721 -1.7024  0.1083
  469MOL0     H61879   3.388   8.927   7.980 -0.1320 -0.1333 -0.4461
  469MOL0     H61880   3.560   9.168   8.058  1.7521 -1.1643  1.2816
  469MOL0     H61881   3.533   9.005   8.118  0.8128 -0.2728  0.1210
  469MOL0     H61882   3.609   9.023   7.817  0.3103  1.0116  0.0722
  469MOL0     H61883   3.650   8.897   7.926  0.0696  0.1878 -1.4121
  469MOL0     H61884   3.813   9.053   8.047 -2.7047  1.5646  1.4435
  469MOL0     H61885   3.760   9.176   7.938  1.5942  0.0762 -1.6723
  469MOL0     H61886   3.880   8.901   7.858  0.3217  0.2832  2.1428
  469MOL0     H61887   3.844   9.031   7.744 -0.8610 -0.1093  0.3061
  469MOL0     H61888   4.018   9.178   7.882 -0.9308  0.3862 -1.4794
  469MOL0     H61889   4.089   9.046   7.801  3.5414 -0.4942  2.0319
  469MOL0     H61890   2.918   9.301   8.184  0.2967  1.6958 -2.3561
  469MOL0     H61891   2.671   9.342   8.147  2.1419  0.6946 -0.4765
  469MOL0     H61892   2.342   9.203   8.232  0.2314 -1.0281  0.4372
  469MOL0     H61893   2.123   9.265   8.322  1.6167 -1.0572  1.0056
  469MOL0     H61894   2.588   8.978   8.846 -1.1039  1.3960 -1.4787
  469MOL0     H61895   2.744   8.843   8.751 -0.9057 -0.1556  3.7752
  469MOL0     H61896   3.082   8.668   8.611  1.5133 -1.9105  2.3326
  469MOL0     H61897   3.259   8.591   8.459  0.1569  1.3651 -0.5811
  469MOL0     H61898   3.422   8.450   8.181 -3.2631  2.9014 -5.2852
  469MOL0     H61899   3.413   8.495   8.355  0.7711 -2.6811 -0.0667
  469MOL0     H61900   3.320   8.662   8.123 -2.3803 -0.2767  1.1940
  469MOL0     H61901   3.288   8.716   8.282 -0.6358 -1.3181 -0.6719
  469MOL0     H61902   3.539   8.659   8.339 -0.1282 -3.7308 -1.4293
  469MOL0     H61903   3.493   8.814   8.255  2.4293  0.1291  1.4637
  469MOL0     H61904   3.601   8.555   8.110  5.7015  0.5206 -1.9688
  469MOL0     H61905   3.555   8.704   8.037  0.9173 -0.2821  0.0337
  469MOL0     H61906   3.924   8.778   8.260 -0.5010  0.0080  0.4944
  469MOL0     H61907   2.980   8.380   8.225  1.9596 -1.4846  1.4262
  469MOL0     H61908   2.793   8.451   8.366  0.6061 -0.5805 -1.9978
  470MOL0     O61909   8.773   7.093   9.050  0.3215 -0.0233 -0.1663
  470MOL0     C61910   8.809   7.008   8.969  0.7367 -0.5579 -0.0852
  470MOL0     O61911   8.732   6.930   8.889  0.2304 -0.2659 -0.1118
  470MOL0     C61912   8.600   6.941   8.898 -0.4811 -1.0448 -0.6045
  470MOL0     C61913   8.535   6.824   8.874 -0.0957  0.0778  0.1610
  470MOL0     C61914   8.390   6.821   8.886  0.2666  0.1069  0.0092
  470MOL0     C61915   8.322   6.932   8.920 -0.7383 -0.5581  1.1029
  470MOL0     O61916   8.185   6.920   8.915  0.0388 -0.3602  0.0113
  470MOL0     C61917   8.108   7.035   8.957  0.6830 -0.9408 -0.1434
  470MOL0     C61918   7.959   6.993   8.932 -0.0518  1.0830 -0.0384
  470MOL0     C61919   7.869   7.079   9.012  0.5625 -0.3011 -0.3594
  470MOL0     C61920   7.721   7.035   8.993  1.0450  0.4667  0.0410
  470MOL0     C61921   7.622   7.127   9.058 -0.5273  0.4504 -0.2578
  470MOL0     C61922   7.484   7.104   9.001  0.2924  0.3182  0.4930
  470MOL0     C61923   7.376   7.199   9.052 -0.2849  0.1517  0.2480
  470MOL0     C61924   7.239   7.168   8.988 -0.4168  0.1786  0.1904
  470MOL0     N61925   7.130   7.222   9.062 -0.1249  0.1269  0.3552
  470MOL0     C61926   7.116   7.352   9.074  0.0946 -0.7224  0.4138
  470MOL0     C61927   6.996   7.371   9.141 -0.2837 -0.5477 -0.5945
  470MOL0     C61928   6.918   7.495   9.157 -0.7074 -0.6374 -1.4788
  470MOL0     C61929   6.771   7.477   9.104  0.7164 -0.1532  0.1294
  470MOL0     C61930   6.761   7.455   8.963 -0.3309 -0.0154 -1.2505
  470MOL0     C61931   6.613   7.446   8.929  0.5115  0.3016  0.5054
  470MOL0     O61932   6.618   7.422   8.787  0.4079  0.3035  0.1475
  470MOL0     C61933   6.501   7.393   8.715 -0.0137 -0.2574  0.5681
  470MOL0     C61934   6.514   7.345   8.584  0.3226  0.3068  0.3974
  470MOL0     C61935   6.404   7.326   8.493 -0.4715 -0.5981 -1.5723
  470MOL0     C61936   6.273   7.347   8.543  0.9651 -0.3246 -0.0125
  470MOL0     C61937   6.153   7.314   8.460 -0.1857 -0.7892 -0.6057
  470MOL0     O61938   6.037   7.322   8.525  0.5122  0.4697  0.2883
  470MOL0     C61939   5.916   7.302   8.462 -0.9596  0.5919  0.2927
  470MOL0     C61940   5.875   7.173   8.426  0.0929 -0.3442 -0.5920
  470MOL0     C61941   5.742   7.142   8.379  0.0037  0.0360 -0.1618
  470MOL0     C61942   5.650   7.247   8.370 -0.4964 -0.5498  0.1038
  470MOL0     O61943   5.516   7.223   8.343 -0.0556  0.0553  0.4590
  470MOL0     C61944   5.411   7.321   8.364  0.0886 -0.4088 -0.0447
  470MOL0     C61945   5.265   7.278   8.349 -0.1580  0.5266  0.1864
  470MOL0     C61946   5.234   7.257   8.205  0.6286  0.5588  1.0833
  470MOL0     C61947   5.080   7.253   8.186 -0.0396  0.3808 -0.1086
  470MOL0     C61948   5.038   7.177   8.065 -0.4112 -0.1188 -0.0357
  470MOL0     C61949   4.894   7.190   8.021 -0.0326 -0.8472  0.0524
  470MOL0     C61950   4.859   7.331   7.964  1.1387  0.0392 -0.6425
  470MOL0     C61951   4.712   7.347   7.926  0.0298  0.6137  0.2016
  470MOL0    Cl61952   4.657   7.518   7.951 -0.1394 -0.5598  0.2697
  470MOL0     C61953   5.694   7.383   8.411  0.0772  0.1506  0.4389
  470MOL0     C61954   5.823   7.404   8.462  0.5072 -0.8274  0.2838
  470MOL0     O61955   6.173   7.291   8.342  0.2196  0.3601 -0.0779
  470MOL0     C61956   6.258   7.388   8.677 -0.2364  0.8634  0.0444
  470MOL0     C61957   6.371   7.410   8.765  0.1531 -0.2351  0.2420
  470MOL0     N61958   6.950   7.251   9.180 -0.6362  0.4705 -0.4268
  470MOL0     N61959   7.033   7.165   9.141 -1.0393 -0.1052 -0.5535
  470MOL0     C61960   8.388   7.053   8.940 -1.1957 -0.3645 -0.5103
  470MOL0     C61961   8.520   7.061   8.926 -0.0343 -0.6588  0.3390
  470MOL0     C61962   8.947   6.973   8.985 -0.1096 -0.8063 -0.1892
  470MOL0     C61963   8.995   6.864   8.919  0.0927  0.5347 -0.3948
  470MOL0     C61964   9.116   6.807   8.956  1.3301  0.3765  0.4971
  470MOL0     C61965   9.194   6.857   9.066 -0.3516  0.0253  0.2598
  470MOL0     O61966   9.315   6.809   9.112  0.6471  1.0386 -1.0561
  470MOL0     C61967   9.378   6.700   9.036  0.4000 -0.8888  0.1759
  470MOL0     C61968   9.523   6.696   9.056 -0.3577  0.0390  0.3370
  470MOL0     C61969   9.585   6.831   9.050  0.3110 -0.4544  0.3932
  470MOL0     C61970   9.715   6.815   8.963  0.1357  0.0433  0.6274
  470MOL0     C61971   9.685   6.798   8.820  0.2706  0.8390 -0.5257
  470MOL0     C61972   9.633   6.764   8.713  0.0376 -0.3269  0.9789
  470MOL0     C61973   9.153   6.975   9.120  0.1170 -0.7136  0.2801
  470MOL0     C61974   9.029   7.032   9.087  0.0106 -0.7518  0.1151
  470MOL0     H61975   8.593   6.735   8.853 -0.4298 -0.2697  0.7067
  470MOL0     H61976   8.338   6.726   8.883 -0.7211  0.4944  2.4149
  470MOL0     H61977   8.124   7.123   8.892  0.2089 -1.4949 -1.0371
  470MOL0     H61978   8.127   7.060   9.061  1.3239 -2.4219  0.1140
  470MOL0     H61979   7.942   6.889   8.959  0.1684  1.3790  1.3200
  470MOL0     H61980   7.936   6.994   8.825  4.6939 -2.0212 -1.3463
  470MOL0     H61981   7.872   7.185   8.986 -1.7742 -0.3918 -1.2865
  470MOL0     H61982   7.897   7.062   9.116 -0.3401 -3.2436 -0.4898
  470MOL0     H61983   7.691   7.042   8.888 -1.7417  2.8438  0.8435
  470MOL0     H61984   7.697   6.935   9.029  1.3756  0.3471 -0.0704
  470MOL0     H61985   7.645   7.234   9.049 -1.4481  0.7226  0.5222
  470MOL0     H61986   7.625   7.101   9.164 -0.2968  0.7292 -0.1958
  470MOL0     H61987   7.447   7.003   9.019  1.0464 -0.4773 -2.0481
  470MOL0     H61988   7.485   7.112   8.892  3.0690 -2.0835  0.2424
  470MOL0     H61989   7.366   7.178   9.158  2.5371 -0.1587  0.5306
  470MOL0     H61990   7.397   7.303   9.025  1.1876 -0.0419  0.5578
  470MOL0     H61991   7.231   7.059   8.980  0.7076 -0.1558  2.5628
  470MOL0     H61992   7.246   7.208   8.887  0.5703  4.8204  1.8328
  470MOL0     H61993   7.176   7.430   9.026  0.6834 -1.4925 -0.1255
  470MOL0     H61994   6.980   7.557   9.090  0.3208  0.2918  0.2651
  470MOL0     H61995   6.912   7.535   9.259 -5.3011 -2.8400 -0.6206
  470MOL0     H61996   6.724   7.571   9.134 -1.5129 -1.3194  0.4713
  470MOL0     H61997   6.715   7.396   9.150  0.1816  0.7927  1.2078
  470MOL0     H61998   6.817   7.534   8.912  3.9513 -0.9878  1.4411
  470MOL0     H61999   6.809   7.360   8.938  2.5597  1.2045 -0.6854
  470MOL0     H62000   6.562   7.541   8.953  0.3099  0.1625  0.6353
  470MOL0     H62001   6.562   7.365   8.982  1.4826  1.0015  2.6364
  470MOL0     H62002   6.615   7.331   8.546  1.8093  1.6997  3.5475
  470MOL0     H62003   6.440   7.304   8.393  0.9387 -0.0248 -1.2204
  470MOL0     H62004   5.935   7.087   8.452  0.0961 -0.9486 -2.4410
  470MOL0     H62005   5.718   7.039   8.356 -1.6777  0.4037 -0.1566
  470MOL0     H62006   5.424   7.402   8.291 -0.3026  1.0311  1.4264
  470MOL0     H62007   5.423   7.367   8.462  2.6714 -0.3799 -0.2933
  470MOL0     H62008   5.196   7.355   8.383 -1.2553 -0.5066  0.3935
  470MOL0     H62009   5.246   7.190   8.411  0.5297  0.2496  0.0214
  470MOL0     H62010   5.279   7.164   8.171 -3.6010 -1.5026  0.4845
  470MOL0     H62011   5.280   7.332   8.140 -2.1649  1.6569  0.2218
  470MOL0     H62012   5.037   7.185   8.260  3.0927 -1.5588  0.1193
  470MOL0     H62013   5.040   7.352   8.210 -1.8462 -0.5763  1.0274
  470MOL0     H62014   5.056   7.072   8.093 -0.1781  0.3471  1.6516
  470MOL0     H62015   5.118   7.194   7.992  0.3352 -1.1171  0.5068
  470MOL0     H62016   4.846   7.171   8.118 -0.0031  4.3958  1.3981
  470MOL0     H62017   4.860   7.119   7.945  0.8652 -0.0003 -1.1602
  470MOL0     H62018   4.883   7.410   8.035  0.9045  0.0585 -0.5851
  470MOL0     H62019   4.908   7.346   7.867  2.6722  1.9897  0.3766
  470MOL0     H62020   4.656   7.286   7.997  2.0170  0.3281  1.6107
  470MOL0     H62021   4.685   7.311   7.827 -1.5139  1.9951  0.0662
  470MOL0     H62022   5.624   7.465   8.419  1.3492  1.4884 -1.4496
  470MOL0     H62023   5.848   7.503   8.500  0.0509 -0.0402 -1.3825
  470MOL0     H62024   6.159   7.393   8.722 -1.0051 -3.0413 -0.8721
  470MOL0     H62025   6.359   7.459   8.861 -0.2631  2.8090 -1.2449
  470MOL0     H62026   8.336   7.149   8.948  0.4946  0.7042 -1.7752
  470MOL0     H62027   8.562   7.161   8.932  0.4059 -0.8004 -0.2813
  470MOL0     H62028   8.950   6.822   8.829 -3.4621 -0.0879  1.5219
  470MOL0     H62029   9.149   6.711   8.918  3.5703  1.4529 -0.4883
  470MOL0     H62030   9.361   6.711   8.928 -0.5019 -0.5513  0.3470
  470MOL0     H62031   9.342   6.600   9.063 -2.3254  0.2532  1.1441
  470MOL0     H62032   9.544   6.655   9.155  0.9888  2.9178  1.3355
  470MOL0     H62033   9.572   6.626   8.987  0.8530 -0.0505  1.2554
  470MOL0     H62034   9.626   6.870   9.144  4.4545 -1.0773 -0.9681
  470MOL0     H62035   9.524   6.912   9.009  0.0639 -0.0411  1.5272
  470MOL0     H62036   9.782   6.902   8.970  0.4694  0.1057 -2.1744
  470MOL0     H62037   9.773   6.726   8.989  0.3755  0.3727  1.2207
  470MOL0     H62038   9.567   6.759   8.629 -0.7129  1.6590  1.3984
  470MOL0     H62039   9.218   7.018   9.195 -0.8099 -1.0366  1.3192
  470MOL0     H62040   8.988   7.119   9.137  0.3367  0.2079 -1.2193
  471MOL0     O62041   2.720   1.724   4.437 -0.1347 -0.6135 -1.2787
  471MOL0     C62042   2.730   1.605   4.446 -0.4497 -0.1150  0.5829
  471MOL0     O62043   2.631   1.511   4.437 -0.0343  0.7676 -0.2060
  471MOL0     C62044   2.498   1.540   4.433 -0.2528  0.2446  0.5964
  471MOL0     C62045   2.435   1.648   4.503  0.1661  0.0973 -0.2150
  471MOL0     C62046   2.296   1.652   4.504  0.4026  0.5565  0.3196
  471MOL0     C62047   2.218   1.558   4.433 -0.4410 -0.8422  0.6438
  471MOL0     O62048   2.073   1.550   4.442  0.2196  0.4404 -0.0503
  471MOL0     C62049   2.027   1.548   4.575 -0.1313  0.8366 -1.0091
  471MOL0     C62050   1.916   1.445   4.587 -0.5401 -0.5130  0.7467
  471MOL0     C62051   1.780   1.474   4.522 -1.6455  0.1462  0.6075
  471MOL0     C62052   1.683   1.357   4.551  0.2443  0.1383  0.3701
  471MOL0     C62053   1.545   1.365   4.509  1.1716 -0.7332  0.3406
  471MOL0     C62054   1.461   1.473   4.570 -1.1035 -0.8446 -0.3504
  471MOL0     C62055   1.313   1.469   4.526 -0.1122 -0.6567  0.6050
  471MOL0     C62056   1.227   1.384   4.627 -0.2624  0.0540  0.9996
  471MOL0     N62057   1.084   1.398   4.582  0.4090  0.0164 -1.5553
  471MOL0     C62058   1.019   1.362   4.467  0.1462 -0.5383  0.9353
  471MOL0     C62059   0.889   1.397   4.487 -0.3813 -0.3901  0.3328
  471MOL0     C62060   0.788   1.396   4.385  0.3875 -0.0533 -0.0311
  471MOL0     C62061   0.654   1.352   4.436 -0.1506  0.5366  0.5771
  471MOL0     C62062   0.564   1.292   4.323 -0.8207 -0.4772 -0.4444
  471MOL0     C62063   0.430   1.256   4.388  0.1199  0.4043 -0.4980
  471MOL0     O62064   0.348   1.192   4.291  0.4893  0.8655  0.0162
  471MOL0     C62065   0.227   1.152   4.327  0.1570  0.1675 -0.2003
  471MOL0     C62066   0.164   1.194   4.441 -0.5273  0.7290  0.5007
  471MOL0     C62067   0.028   1.199   4.443  0.6620  0.4804  0.7235
  471MOL0     C62068  -0.048   1.140   4.340 -0.5750  0.5002  0.4283
  471MOL0     C62069  -0.187   1.126   4.353 -0.8327  0.2976  0.1084
  471MOL0     O62070  -0.251   1.116   4.237  0.3949 -0.7911  0.6092
  471MOL0     C62071  -0.384   1.103   4.247  0.6972  0.0927 -0.7421
  471MOL0     C62072  -0.464   1.193   4.179 -0.0016  0.3223 -0.2691
  471MOL0     C62073  -0.602   1.174   4.158  0.1225 -0.2800  0.3678
  471MOL0     C62074  -0.670   1.059   4.209  0.0303  0.0968  0.0333
  471MOL0     O62075  -0.804   1.048   4.220  0.1763 -0.0858  0.0080
  471MOL0     C62076  -0.875   1.152   4.150 -0.0194  0.5051  0.2136
  471MOL0     C62077  -1.026   1.126   4.169 -0.1779 -0.1788 -1.6197
  471MOL0     C62078  -1.081   0.999   4.101 -0.1453 -0.0217  0.5783
  471MOL0     C62079  -1.112   1.016   3.953  0.0340  0.0398  0.1766
  471MOL0     C62080  -1.168   0.896   3.883  0.2339  0.3845  0.7148
  471MOL0     C62081  -1.304   0.828   3.917  0.0710  0.2486  0.2394
  471MOL0     C62082  -1.426   0.908   3.912  0.6685  0.2381  0.2059
  471MOL0     C62083  -1.564   0.830   3.902  1.3264  1.0742 -0.6501
  471MOL0    Cl62084  -1.605   0.723   4.041 -0.4798 -0.1105 -0.8193
  471MOL0     C62085  -0.586   0.967   4.281 -0.0463  1.4036  0.0006
  471MOL0     C62086  -0.445   0.985   4.295  0.2070 -0.0008  0.1724
  471MOL0     O62087  -0.234   1.094   4.467  0.8294  0.6394 -0.1072
  471MOL0     C62088   0.014   1.104   4.219 -1.0616 -0.0224  0.2916
  471MOL0     C62089   0.155   1.110   4.214 -0.0003  0.1956  0.2115
  471MOL0     N62090   0.869   1.453   4.615 -0.1758  0.1142  0.9321
  471MOL0     N62091   0.990   1.450   4.674 -0.4799  0.2215 -0.3576
  471MOL0     C62092   2.288   1.466   4.347  0.1116 -0.0613  0.7785
  471MOL0     C62093   2.429   1.452   4.353 -0.2108  0.2066  0.6615
  471MOL0     C62094   2.868   1.539   4.454  0.8977 -0.6946 -0.0341
  471MOL0     C62095   2.884   1.400   4.445  0.8393 -0.2635  0.1177
  471MOL0     C62096   3.006   1.338   4.445  0.2398  0.3619 -0.4146
  471MOL0     C62097   3.114   1.420   4.454 -0.0592 -0.4553  0.1424
  471MOL0     O62098   3.234   1.354   4.465 -0.7217 -0.4902  0.0198
  471MOL0     C62099   3.328   1.396   4.370  0.7065  0.7045  0.5347
  471MOL0     C62100   3.423   1.278   4.328 -1.4001  1.3964 -0.0403
  471MOL0     C62101   3.338   1.167   4.270  0.3542  0.5014  0.1212
  471MOL0     C62102   3.416   1.046   4.229  0.0843  0.2168  0.2093
  471MOL0     C62103   3.503   1.070   4.121  0.4516 -0.4296 -0.0224
  471MOL0     C62104   3.583   1.095   4.028 -0.6974  0.4426  0.3533
  471MOL0     C62105   3.112   1.564   4.453  0.2947  0.3855 -0.1591
  471MOL0     C62106   2.984   1.619   4.447 -0.0564  0.0728  0.0226
  471MOL0     H62107   2.500   1.709   4.565  1.6149 -1.9376  0.3789
  471MOL0     H62108   2.241   1.725   4.563 -1.2138 -0.8726  0.6261
  471MOL0     H62109   1.977   1.641   4.601 -0.5002  0.4952 -0.4721
  471MOL0     H62110   2.113   1.538   4.643  0.5355  1.7188 -1.6944
  471MOL0     H62111   1.897   1.429   4.693 -0.9641 -1.2770  0.5601
  471MOL0     H62112   1.951   1.349   4.548  1.5963  0.8901 -1.0552
  471MOL0     H62113   1.804   1.476   4.415  0.1140 -2.3153  0.8631
  471MOL0     H62114   1.742   1.571   4.555 -4.2859 -0.1006 -1.3922
  471MOL0     H62115   1.716   1.257   4.522 -2.5344 -0.6152 -0.5342
  471MOL0     H62116   1.682   1.355   4.660 -0.2242 -2.1457  0.3769
  471MOL0     H62117   1.496   1.267   4.517  3.0396 -1.9926 -2.2950
  471MOL0     H62118   1.537   1.382   4.401 -3.8052 -1.6093  0.3406
  471MOL0     H62119   1.492   1.571   4.532  0.6831 -0.3616  2.1319
  471MOL0     H62120   1.471   1.474   4.679 -1.0273  0.1251 -0.3540
  471MOL0     H62121   1.273   1.571   4.531 -0.3881 -0.7149 -0.1886
  471MOL0     H62122   1.305   1.435   4.422  0.5242 -0.1045  0.3697
  471MOL0     H62123   1.244   1.427   4.726  0.2915  1.7107  0.2329
  471MOL0     H62124   1.259   1.280   4.617  1.9445  0.9054 -2.9575
  471MOL0     H62125   1.066   1.318   4.380  2.0350 -0.8365  2.0393
  471MOL0     H62126   0.832   1.326   4.313  0.6224  0.6954 -0.6253
  471MOL0     H62127   0.781   1.493   4.335  2.1267 -0.8341 -1.8977
  471MOL0     H62128   0.606   1.440   4.480 -2.1574  0.0800 -0.5499
  471MOL0     H62129   0.665   1.283   4.520 -0.4463 -1.3468 -0.8689
  471MOL0     H62130   0.544   1.365   4.244  2.1851  2.9632  1.6342
  471MOL0     H62131   0.622   1.207   4.288  1.8339  0.8433  0.4966
  471MOL0     H62132   0.377   1.340   4.432 -2.4943 -1.2272 -0.3426
  471MOL0     H62133   0.441   1.190   4.474 -1.5606  0.5101 -0.1638
  471MOL0     H62134   0.224   1.242   4.518  0.2748  0.6199 -0.0507
  471MOL0     H62135  -0.020   1.242   4.530 -0.6739 -0.9802  0.7458
  471MOL0     H62136  -0.419   1.286   4.145 -0.8479  1.1105  0.6962
  471MOL0     H62137  -0.655   1.255   4.107  2.3683  1.2134  0.2695
  471MOL0     H62138  -0.849   1.162   4.044  1.6738  2.4445  0.7576
  471MOL0     H62139  -0.861   1.248   4.200  0.6266  1.7713 -2.2180
  471MOL0     H62140  -1.081   1.211   4.129 -0.9769  1.1131  1.8744
  471MOL0     H62141  -1.051   1.126   4.276  0.6058  0.2008 -1.4333
  471MOL0     H62142  -1.177   0.973   4.147 -2.1445 -1.0264 -3.6522
  471MOL0     H62143  -1.010   0.918   4.124 -0.0915  0.2067  1.2545
  471MOL0     H62144  -1.177   1.104   3.953 -0.3143 -0.2131 -0.0845
  471MOL0     H62145  -1.019   1.031   3.897 -0.7251 -0.1714 -1.1608
  471MOL0     H62146  -1.096   0.814   3.882 -1.6714 -1.3871 -1.2732
  471MOL0     H62147  -1.184   0.931   3.780  1.7195 -1.9547 -0.4006
  471MOL0     H62148  -1.300   0.778   4.015  0.8758  0.5575  0.3740
  471MOL0     H62149  -1.327   0.745   3.849 -0.1992 -1.7495  2.6103
  471MOL0     H62150  -1.437   0.971   4.001  2.0434 -0.1363  0.6683
  471MOL0     H62151  -1.416   0.966   3.820 -1.1833 -1.7376 -1.3499
  471MOL0     H62152  -1.559   0.778   3.806  2.0672 -3.1111  1.4050
  471MOL0     H62153  -1.642   0.907   3.903  1.0503  0.7921 -0.1546
  471MOL0     H62154  -0.627   0.887   4.342  0.2356  0.5484 -0.9179
  471MOL0     H62155  -0.385   0.916   4.353 -1.0490 -0.4722  0.9718
  471MOL0     H62156  -0.044   1.082   4.130 -0.1698  1.3093 -0.6425
  471MOL0     H62157   0.198   1.097   4.115 -1.4873 -2.6093 -0.1805
  471MOL0     H62158   2.225   1.404   4.283  0.9253  0.0944 -0.1934
  471MOL0     H62159   2.487   1.376   4.302  1.5191  0.0179  2.7684
  471MOL0     H62160   2.796   1.341   4.423  0.7045  1.1061 -3.8169
  471MOL0     H62161   3.017   1.236   4.409 -0.6044  0.0824  0.0921
  471MOL0     H62162   3.389   1.482   4.400  3.2236 -1.2249  1.2454
  471MOL0     H62163   3.271   1.432   4.284 -2.8842 -0.9144  2.0437
  471MOL0     H62164   3.467   1.313   4.234 -1.1378 -1.4049 -1.0648
  471MOL0     H62165   3.506   1.259   4.397 -0.9786  1.9259 -0.3902
  471MOL0     H62166   3.292   1.212   4.182  1.7619 -0.9850 -1.4458
  471MOL0     H62167   3.262   1.130   4.340 -0.9319  1.8812 -0.4827
  471MOL0     H62168   3.474   1.008   4.314  1.9807  1.5457 -0.4180
  471MOL0     H62169   3.348   0.967   4.197  1.4553 -0.3750 -1.4185
  471MOL0     H62170   3.639   1.123   3.942  0.2951  1.5644  1.3189
  471MOL0     H62171   3.203   1.621   4.464  0.4412  0.0945  0.1566
  471MOL0     H62172   2.970   1.725   4.463 -1.5900  0.2606 -2.1225
  472MOL0     O62173   2.389   7.269   7.550 -0.1932  0.6082 -0.4823
  472MOL0     C62174   2.310   7.186   7.596 -0.0822  0.1251  0.9200
  472MOL0     O62175   2.190   7.217   7.659  0.2175  1.1140 -0.4143
  472MOL0     C62176   2.159   7.338   7.705 -0.9123 -1.4680  0.1369
  472MOL0     C62177   2.100   7.345   7.828 -0.8455 -0.5850 -0.2828
  472MOL0     C62178   2.069   7.470   7.882  0.2400 -0.1266 -0.4908
  472MOL0     C62179   2.074   7.588   7.810 -0.4193 -0.7223  1.0022
  472MOL0     O62180   2.043   7.705   7.869 -0.7608 -0.2992 -0.0446
  472MOL0     C62181   2.021   7.819   7.797 -0.6090  0.1833 -0.3015
  472MOL0     C62182   1.903   7.812   7.700  0.9799 -0.1323 -0.2742
  472MOL0     C62183   1.772   7.776   7.776  0.5073 -0.0536  0.1989
  472MOL0     C62184   1.635   7.796   7.697  0.4416 -0.3797  0.0427
  472MOL0     C62185   1.509   7.778   7.787 -0.5381 -0.2454 -0.3065
  472MOL0     C62186   1.486   7.904   7.869 -0.4545 -0.5446 -0.3879
  472MOL0     C62187   1.423   8.019   7.790  0.3967  0.2415  0.3451
  472MOL0     C62188   1.387   8.138   7.875 -0.0425  0.7964  0.3706
  472MOL0     N62189   1.263   8.116   7.946  0.1991  0.5296  0.5227
  472MOL0     C62190   1.139   8.121   7.891  1.2991  0.2481 -0.5538
  472MOL0     C62191   1.061   8.060   7.988 -0.2159  0.2167  0.5059
  472MOL0     C62192   0.925   8.015   7.970 -0.3390  0.3759  0.4436
  472MOL0     C62193   0.828   8.133   7.977  0.6836 -0.6422 -0.3790
  472MOL0     C62194   0.689   8.085   7.969 -0.2979 -0.1902  0.1538
  472MOL0     C62195   0.638   8.032   7.832 -0.4705 -1.1625 -0.3916
  472MOL0     O62196   0.495   8.039   7.821 -0.0923  0.0065 -0.4735
  472MOL0     C62197   0.413   7.948   7.893 -0.9519  0.3225  0.3423
  472MOL0     C62198   0.454   7.830   7.962 -0.1595  0.1292  0.2048
  472MOL0     C62199   0.359   7.753   8.022 -1.2970 -0.7425 -1.3003
  472MOL0     C62200   0.229   7.787   8.023 -0.0514  0.8653 -0.4598
  472MOL0     C62201   0.139   7.702   8.101  0.3309 -0.0370  0.5704
  472MOL0     O62202   0.189   7.631   8.213  0.1429 -0.2578 -0.1818
  472MOL0     C62203   0.108   7.545   8.278 -0.5120 -0.0528  0.6434
  472MOL0     C62204   0.167   7.422   8.332 -0.3171 -0.1107  0.4175
  472MOL0     C62205   0.097   7.326   8.400  0.6376 -0.0332 -0.3680
  472MOL0     C62206  -0.038   7.344   8.421 -0.5745  0.5250 -0.2514
  472MOL0     O62207  -0.114   7.253   8.489  0.2693 -0.6650 -0.8757
  472MOL0     C62208  -0.200   7.307   8.589 -0.0370 -0.3870  1.0867
  472MOL0     C62209  -0.279   7.187   8.635  0.5016 -0.6369 -0.5467
  472MOL0     C62210  -0.334   7.223   8.769 -0.4929  0.3850  0.1681
  472MOL0     C62211  -0.387   7.086   8.832 -0.8047 -0.2395 -0.0091
  472MOL0     C62212  -0.409   7.106   8.987  0.0381 -0.1415 -0.1942
  472MOL0     C62213  -0.452   6.981   9.059 -0.0104  0.2018 -0.0872
  472MOL0     C62214  -0.464   6.998   9.217 -0.4445  0.2914  0.8120
  472MOL0     C62215  -0.553   6.901   9.293  0.6166 -0.5586  0.0546
  472MOL0    Cl62216  -0.512   6.740   9.261 -0.1487 -0.1855  0.0691
  472MOL0     C62217  -0.097   7.464   8.372 -0.1139 -0.1555  0.1911
  472MOL0     C62218  -0.024   7.560   8.311 -0.8210 -0.7300 -0.6657
  472MOL0     O62219   0.025   7.715   8.065  0.0412 -0.5579 -0.3084
  472MOL0     C62220   0.188   7.897   7.953  0.1917  0.2272  0.9227
  472MOL0     C62221   0.280   7.979   7.890  0.3235  0.3542  0.1617
  472MOL0     N62222   1.134   8.035   8.104  0.1942 -0.2324 -1.1998
  472MOL0     N62223   1.256   8.066   8.074  0.1783 -0.0014 -0.2867
  472MOL0     C62224   2.132   7.578   7.682  0.1065  0.2511 -0.1350
  472MOL0     C62225   2.184   7.465   7.632 -0.0701  0.0970  0.1615
  472MOL0     C62226   2.327   7.047   7.560  0.1434 -0.4728  0.3029
  472MOL0     C62227   2.455   6.984   7.547  0.7642  0.1979  0.4649
  472MOL0     C62228   2.475   6.848   7.535  0.6911  0.5277  0.3016
  472MOL0     C62229   2.372   6.761   7.528  0.1086  0.4009  1.0571
  472MOL0     O62230   2.408   6.631   7.504 -0.0434 -0.3257 -0.2705
  472MOL0     C62231   2.307   6.535   7.478  0.0857 -0.5870 -0.5416
  472MOL0     C62232   2.367   6.393   7.489 -0.5973  0.6108  0.6212
  472MOL0     C62233   2.483   6.358   7.387 -0.2165 -0.3397 -0.7287
  472MOL0     C62234   2.518   6.214   7.363  0.1448  0.7706  0.1825
  472MOL0     C62235   2.426   6.152   7.261  0.2886 -0.4898  0.0719
  472MOL0     C62236   2.357   6.116   7.165 -0.0519 -0.0497 -0.4052
  472MOL0     C62237   2.238   6.819   7.536 -0.0529 -0.4223  0.2991
  472MOL0     C62238   2.214   6.960   7.544  0.5377  0.2017 -0.4012
  472MOL0     H62239   2.088   7.251   7.880 -0.2239 -1.3959 -1.5540
  472MOL0     H62240   2.039   7.477   7.986  1.5931 -2.5352  0.1249
  472MOL0     H62241   2.110   7.846   7.739  0.5019 -0.6323  0.9573
  472MOL0     H62242   2.014   7.901   7.869 -1.5516 -0.1474 -0.0110
  472MOL0     H62243   1.927   7.737   7.624  0.4788 -0.6709  0.0859
  472MOL0     H62244   1.882   7.906   7.649 -2.2513 -0.4025  0.3831
  472MOL0     H62245   1.777   7.842   7.862  1.1560  1.1061 -0.7076
  472MOL0     H62246   1.775   7.674   7.817 -3.6453 -1.2154 -1.7996
  472MOL0     H62247   1.641   7.897   7.657  0.6353 -0.3505  0.1428
  472MOL0     H62248   1.640   7.726   7.613 -0.9617  0.5024 -0.8120
  472MOL0     H62249   1.524   7.690   7.851 -4.3561 -0.3731  0.6789
  472MOL0     H62250   1.415   7.757   7.735 -0.5357 -0.9230 -0.0467
  472MOL0     H62251   1.572   7.950   7.918 -2.1713  1.9654  0.4345
  472MOL0     H62252   1.419   7.871   7.949  1.1130 -1.0100  0.7830
  472MOL0     H62253   1.495   8.055   7.716 -0.2603  1.2107  0.1564
  472MOL0     H62254   1.335   7.990   7.731  0.5714 -0.0425  0.2232
  472MOL0     H62255   1.370   8.226   7.813 -4.4544 -1.5660 -2.2871
  472MOL0     H62256   1.476   8.149   7.939  2.2458 -1.6327 -2.1069
  472MOL0     H62257   1.110   8.141   7.789 -0.0811 -0.3699 -0.2984
  472MOL0     H62258   0.910   7.932   8.039 -1.1282 -0.1782 -0.3784
  472MOL0     H62259   0.927   7.969   7.871  2.1976 -1.7703  1.3420
  472MOL0     H62260   0.854   8.189   7.887 -1.3955  0.0698 -0.5826
  472MOL0     H62261   0.843   8.184   8.073  0.3228 -3.3508  1.2325
  472MOL0     H62262   0.671   7.999   8.034 -2.4467 -0.3340 -0.5500
  472MOL0     H62263   0.635   8.171   8.009  1.6412  0.7490  0.8735
  472MOL0     H62264   0.678   7.930   7.832 -1.4203 -1.5502 -0.4425
  472MOL0     H62265   0.687   8.083   7.748 -2.6954  1.6307 -0.1370
  472MOL0     H62266   0.558   7.802   7.970 -0.6853 -1.7632  1.1470
  472MOL0     H62267   0.381   7.654   8.061 -1.7451 -0.1198  0.6746
  472MOL0     H62268   0.269   7.392   8.311 -0.1632 -0.0021  0.9971
  472MOL0     H62269   0.138   7.237   8.446  2.2984  1.3368  0.9455
  472MOL0     H62270  -0.275   7.378   8.553  0.6556  0.1285  0.6237
  472MOL0     H62271  -0.144   7.356   8.670  1.4234  1.7916 -1.0828
  472MOL0     H62272  -0.215   7.099   8.623 -0.5016 -1.5488  0.5400
  472MOL0     H62273  -0.367   7.175   8.572 -0.6320  1.3475  0.5622
  472MOL0     H62274  -0.417   7.293   8.767 -0.6954  0.1519 -2.0603
  472MOL0     H62275  -0.252   7.258   8.833  0.5864 -0.0788 -0.9064
  472MOL0     H62276  -0.476   7.049   8.781 -0.2766 -0.2388 -0.9581
  472MOL0     H62277  -0.306   7.013   8.822  1.0287  1.2696  2.5155
  472MOL0     H62278  -0.484   7.184   9.002 -0.1577 -0.6615  1.8887
  472MOL0     H62279  -0.314   7.139   9.032 -0.5473 -0.3002  1.2063
  472MOL0     H62280  -0.377   6.903   9.040 -1.6877 -0.8437 -3.0152
  472MOL0     H62281  -0.554   6.957   9.030 -0.1257 -0.1564  0.5920
  472MOL0     H62282  -0.360   6.995   9.252 -0.4667 -1.1216  0.8102
  472MOL0     H62283  -0.503   7.099   9.233 -0.0128  0.6000  0.0031
  472MOL0     H62284  -0.654   6.921   9.257 -0.0342 -1.1904  1.4587
  472MOL0     H62285  -0.547   6.922   9.400  0.6608  0.7162 -0.1836
  472MOL0     H62286  -0.203   7.483   8.382  0.2427  0.5627  3.8511
  472MOL0     H62287  -0.072   7.651   8.276  2.6899  0.8769 -1.8017
  472MOL0     H62288   0.081   7.910   7.958 -0.0709 -2.0720  3.3446
  472MOL0     H62289   0.272   8.074   7.838 -2.1213  0.4965  0.6861
  472MOL0     H62290   2.154   7.669   7.628 -0.9379  0.8751  0.4522
  472MOL0     H62291   2.238   7.475   7.539 -1.9090  0.1454 -0.9613
  472MOL0     H62292   2.541   7.050   7.538  0.9175 -0.2425 -2.6202
  472MOL0     H62293   2.569   6.797   7.514  0.2311  0.5145 -1.8707
  472MOL0     H62294   2.247   6.544   7.386  0.0745 -3.8117 -0.9949
  472MOL0     H62295   2.226   6.556   7.548 -0.2709  2.2616 -1.6666
  472MOL0     H62296   2.407   6.385   7.591  0.9810  2.4259  0.1999
  472MOL0     H62297   2.284   6.322   7.479 -0.2940 -0.0961  2.6123
  472MOL0     H62298   2.571   6.415   7.418 -0.5401  0.8330 -1.9110
  472MOL0     H62299   2.453   6.407   7.294  0.5366  3.3407  0.7901
  472MOL0     H62300   2.621   6.208   7.328  0.3797 -0.0982  0.9935
  472MOL0     H62301   2.518   6.163   7.459 -0.2965 -0.7972 -0.6062
  472MOL0     H62302   2.302   6.064   7.090  0.2384 -3.5921  1.6047
  472MOL0     H62303   2.162   6.742   7.523  4.8957 -5.7611 -1.4671
  472MOL0     H62304   2.112   6.992   7.561 -0.1986 -1.9958 -0.3154
  473MOL0     O62305  10.731  11.219   5.326  0.4766  0.6985  0.3708
  473MOL0     C62306  10.755  11.338   5.325 -0.7072  0.8520 -0.0640
  473MOL0     O62307  10.657  11.435   5.326  0.6556 -0.5006 -0.4185
  473MOL0     C62308  10.528  11.407   5.362  0.2624  0.0823 -0.7329
  473MOL0     C62309  10.439  11.335   5.279  0.9025  1.3440  0.1707
  473MOL0     C62310  10.308  11.324   5.318  0.4911 -1.2680 -0.2871
  473MOL0     C62311  10.259  11.382   5.440 -0.2903 -0.1770 -1.0520
  473MOL0     O62312  10.132  11.344   5.471 -0.1832  0.4637  0.4329
  473MOL0     C62313  10.073  11.358   5.598 -0.0186  0.7749  0.8649
  473MOL0     C62314   9.943  11.282   5.582 -0.3019  0.0714 -0.1407
  473MOL0     C62315   9.966  11.131   5.544 -1.1726  0.5676 -0.0800
  473MOL0     C62316   9.837  11.076   5.495  0.3752 -0.0231 -0.5969
  473MOL0     C62317   9.715  11.090   5.590 -1.0677 -0.3118  0.0201
  473MOL0     C62318   9.585  11.033   5.527 -0.7404  0.3901  0.3241
  473MOL0     C62319   9.471  11.001   5.628  0.0155  0.0047 -0.0408
  473MOL0     C62320   9.350  10.939   5.554  0.1565  0.7870  0.2235
  473MOL0     N62321   9.241  10.912   5.651 -0.4760  0.0660  0.3346
  473MOL0     C62322   9.157  11.014   5.699  0.2292  0.4013 -0.3241
  473MOL0     C62323   9.049  10.947   5.737  0.9182  0.1240  0.5992
  473MOL0     C62324   8.931  11.007   5.792  0.2756 -0.8779  0.1376
  473MOL0     C62325   8.849  10.920   5.891 -0.3177 -0.9658  0.1361
  473MOL0     C62326   8.726  10.980   5.951  0.4210  0.1325 -0.6682
  473MOL0     C62327   8.764  11.025   6.093  0.1446  0.2422  0.6442
  473MOL0     O62328   8.759  10.914   6.185  0.6022  0.0759 -0.0794
  473MOL0     C62329   8.644  10.842   6.193  0.7951 -0.1820  0.3250
  473MOL0     C62330   8.647  10.703   6.184  0.3874  0.1270  0.0008
  473MOL0     C62331   8.524  10.630   6.181  0.5688  0.8886  0.2564
  473MOL0     C62332   8.402  10.692   6.197  0.3601  0.0779  0.0054
  473MOL0     C62333   8.273  10.619   6.242  0.4194  0.0411  0.5278
  473MOL0     O62334   8.148  10.681   6.246  0.4431  0.0611  0.1544
  473MOL0     C62335   8.032  10.615   6.284 -0.9914  1.3973 -0.3859
  473MOL0     C62336   8.015  10.483   6.343 -0.1692  0.5322  0.2953
  473MOL0     C62337   7.896  10.427   6.368  0.4021 -0.0666 -0.6553
  473MOL0     C62338   7.782  10.507   6.349  0.6414  0.1750 -0.1021
  473MOL0     O62339   7.655  10.457   6.368  0.1862  0.6254  0.2639
  473MOL0     C62340   7.554  10.544   6.422  0.0629  0.0226 -0.3762
  473MOL0     C62341   7.439  10.469   6.502  0.0068 -0.4915  0.1013
  473MOL0     C62342   7.323  10.566   6.539  0.0015 -0.7601  0.2383
  473MOL0     C62343   7.210  10.509   6.627 -0.2786  0.0525 -0.2112
  473MOL0     C62344   7.080  10.595   6.629 -0.0677 -0.0815 -0.3522
  473MOL0     C62345   7.004  10.571   6.757  0.0638  0.3620 -0.2693
  473MOL0     C62346   6.935  10.428   6.758 -0.6513 -0.1026  0.1877
  473MOL0     C62347   6.918  10.389   6.905  0.0715 -0.4666  0.4107
  473MOL0    Cl62348   7.078  10.348   6.967 -0.0611  0.0390 -0.4689
  473MOL0     C62349   7.797  10.638   6.319 -0.0844 -1.2347  1.2497
  473MOL0     C62350   7.924  10.688   6.279 -0.0360 -0.3920  0.4406
  473MOL0     O62351   8.297  10.502   6.267  0.2158 -0.2498 -0.2188
  473MOL0     C62352   8.400  10.834   6.203 -0.3586  0.7946  0.8895
  473MOL0     C62353   8.524  10.905   6.194  0.1720 -0.0708  0.1079
  473MOL0     N62354   9.077  10.813   5.737  0.3865  0.6261 -0.5331
  473MOL0     N62355   9.185  10.793   5.682 -0.4458  0.1830  0.5981
  473MOL0     C62356  10.342  11.456   5.519 -0.0267 -0.8213 -0.5045
  473MOL0     C62357  10.475  11.477   5.477 -0.5304  1.4676 -0.9829
  473MOL0     C62358  10.899  11.371   5.310  0.1621  0.3328  0.2172
  473MOL0     C62359  10.982  11.295   5.225 -0.1663 -0.1914 -0.2506
  473MOL0     C62360  11.111  11.341   5.190 -0.0465  0.8063 -0.5477
  473MOL0     C62361  11.155  11.465   5.236 -0.6465 -0.4342 -0.1488
  473MOL0     O62362  11.290  11.508   5.199  0.7583  0.2017 -1.1787
  473MOL0     C62363  11.338  11.643   5.225 -0.5480 -0.0309  0.5015
  473MOL0     C62364  11.471  11.675   5.157  0.2087  0.5907  0.0708
  473MOL0     C62365  11.471  11.633   5.016  0.5745 -0.3463 -0.1186
  473MOL0     C62366  11.606  11.688   4.968  0.4653 -0.0486 -0.3653
  473MOL0     C62367  11.640  11.666   4.823  0.7196  0.2290 -0.5215
  473MOL0     C62368  11.678  11.693   4.709  0.3376  0.6776 -0.1328
  473MOL0     C62369  11.076  11.540   5.326  0.4466 -0.3611 -0.8885
  473MOL0     C62370  10.949  11.493   5.357  0.1404  0.3321  0.0984
  473MOL0     H62371  10.460  11.292   5.181 -0.8013  2.1933 -0.6263
  473MOL0     H62372  10.231  11.278   5.257  0.6136 -1.4926 -0.2735
  473MOL0     H62373  10.061  11.465   5.618  1.4792  1.0206  0.6174
  473MOL0     H62374  10.145  11.317   5.670  0.2223 -3.3698 -1.4537
  473MOL0     H62375   9.899  11.340   5.501  1.6220 -1.8238 -2.7355
  473MOL0     H62376   9.878  11.288   5.669 -0.7020  0.4894 -0.4599
  473MOL0     H62377   9.986  11.072   5.634  2.1331  2.0941  0.3538
  473MOL0     H62378  10.040  11.107   5.467 -1.0008  0.1650  0.2013
  473MOL0     H62379   9.813  11.109   5.393  3.1871  1.9039 -0.7372
  473MOL0     H62380   9.867  10.970   5.488  1.7755  0.3624 -0.8075
  473MOL0     H62381   9.695  11.195   5.615 -0.1084  0.2042 -1.2763
  473MOL0     H62382   9.745  11.042   5.684  1.0619 -1.1247 -1.0156
  473MOL0     H62383   9.607  10.936   5.480  0.1995  0.7935 -0.0907
  473MOL0     H62384   9.546  11.087   5.441 -1.4094 -2.0128 -0.9770
  473MOL0     H62385   9.508  10.923   5.696  0.8398  0.7550  0.3800
  473MOL0     H62386   9.445  11.093   5.680 -1.9637 -0.1743 -0.6333
  473MOL0     H62387   9.380  10.843   5.511 -0.7054  0.9076 -0.6887
  473MOL0     H62388   9.310  11.007   5.478 -0.2824 -0.3058 -0.5446
  473MOL0     H62389   9.177  11.121   5.709  1.6290  0.0820  0.7179
  473MOL0     H62390   8.875  11.047   5.706  1.3196  0.1372 -0.0929
  473MOL0     H62391   8.965  11.101   5.837 -3.4092  0.6773  0.0478
  473MOL0     H62392   8.926  10.893   5.963 -0.8941 -2.8876  0.1078
  473MOL0     H62393   8.822  10.828   5.837  1.1096  0.0035 -2.3818
  473MOL0     H62394   8.678  11.057   5.890 -1.0973 -0.2901 -0.0436
  473MOL0     H62395   8.651  10.901   5.963 -1.1645  1.5409 -0.9498
  473MOL0     H62396   8.687  11.098   6.121 -2.5349 -0.7501 -3.2834
  473MOL0     H62397   8.858  11.079   6.102 -1.0421  2.2494  1.7084
  473MOL0     H62398   8.748  10.662   6.184  1.1451  1.8735  0.2867
  473MOL0     H62399   8.530  10.522   6.173  0.7564  0.8533  0.7964
  473MOL0     H62400   8.102  10.426   6.376  0.9550  2.3835  0.6477
  473MOL0     H62401   7.879  10.324   6.399  0.3083  0.3913  0.8974
  473MOL0     H62402   7.517  10.595   6.333  1.4838  2.1194  0.1454
  473MOL0     H62403   7.587  10.621   6.493  5.2680  0.6208 -2.8798
  473MOL0     H62404   7.484  10.414   6.585  1.1013 -1.3310 -1.0136
  473MOL0     H62405   7.392  10.396   6.436  0.4366  1.1554 -2.1540
  473MOL0     H62406   7.277  10.597   6.444  1.1319  0.9513  0.2024
  473MOL0     H62407   7.370  10.653   6.586  3.2830 -2.7245  0.8994
  473MOL0     H62408   7.175  10.423   6.570  0.2057  0.3656 -1.0002
  473MOL0     H62409   7.246  10.477   6.725 -0.9287 -1.0682 -0.3301
  473MOL0     H62410   7.010  10.570   6.548  0.0470  0.5770 -0.6624
  473MOL0     H62411   7.113  10.699   6.626  1.9321 -0.6912 -2.1453
  473MOL0     H62412   6.927  10.648   6.753  1.0133  1.3037 -1.2461
  473MOL0     H62413   7.068  10.587   6.845  1.1348 -1.4709 -0.6514
  473MOL0     H62414   6.844  10.425   6.698 -0.5797 -1.5737  0.1066
  473MOL0     H62415   6.992  10.349   6.707 -2.0674 -1.0064 -0.0346
  473MOL0     H62416   6.849  10.306   6.927 -1.0587  0.7026  1.4878
  473MOL0     H62417   6.864  10.476   6.945 -0.5969  0.6440 -2.6026
  473MOL0     H62418   7.724  10.718   6.316 -0.6991 -1.6905  2.8520
  473MOL0     H62419   7.928  10.789   6.242 -1.5430 -0.9556 -1.4087
  473MOL0     H62420   8.301  10.879   6.206 -1.3244 -1.1935  0.4105
  473MOL0     H62421   8.525  11.013   6.204 -2.0148 -0.0455  0.6184
  473MOL0     H62422  10.298  11.512   5.601 -2.9253 -1.2538 -1.6508
  473MOL0     H62423  10.546  11.543   5.525  0.8860  0.2180 -1.2764
  473MOL0     H62424  10.941  11.199   5.193  1.4246 -0.7747 -0.6470
  473MOL0     H62425  11.176  11.280   5.127  2.1983 -0.1288  2.4700
  473MOL0     H62426  11.362  11.655   5.331 -0.0409  0.3797  0.3424
  473MOL0     H62427  11.265  11.718   5.193  0.7673  0.7664 -0.7670
  473MOL0     H62428  11.496  11.781   5.168 -3.8888  1.7518 -0.0497
  473MOL0     H62429  11.534  11.606   5.213 -0.5805  0.4917  0.8534
  473MOL0     H62430  11.392  11.676   4.954  1.5722  2.3882  0.3700
  473MOL0     H62431  11.471  11.524   5.009  0.5363 -0.3621  0.1300
  473MOL0     H62432  11.623  11.791   4.999  0.8876  0.6171 -2.5900
  473MOL0     H62433  11.688  11.630   5.012 -0.3131 -3.0010 -2.4267
  473MOL0     H62434  11.719  11.718   4.614  5.9333 -3.8028  0.5727
  473MOL0     H62435  11.101  11.635   5.371 -1.1537 -0.0302 -0.6413
  473MOL0     H62436  10.897  11.570   5.414  0.3770  2.3940 -2.3012
  474MOL0     O62437   7.177   8.950   1.972 -0.4270 -0.1791  0.8571
  474MOL0     C62438   7.184   8.875   1.879  1.0384 -1.2639  0.6689
  474MOL0     O62439   7.097   8.856   1.770  0.5488  0.8146  0.2629
  474MOL0     C62440   6.977   8.925   1.767  0.5137  0.0401  0.6812
  474MOL0     C62441   6.882   8.910   1.868  0.6000 -0.1102 -0.6367
  474MOL0     C62442   6.757   8.970   1.850 -0.2679  0.4793 -0.3960
  474MOL0     C62443   6.709   9.037   1.741  1.0726  0.6999 -0.2921
  474MOL0     O62444   6.586   9.102   1.743  0.5908  0.3050 -0.4357
  474MOL0     C62445   6.560   9.199   1.633 -0.6065  0.3470  0.0506
  474MOL0     C62446   6.449   9.290   1.674  0.2022  1.0242 -0.4855
  474MOL0     C62447   6.416   9.383   1.553 -1.5369 -0.3233  0.4565
  474MOL0     C62448   6.303   9.482   1.587  0.1393 -0.4139  0.1631
  474MOL0     C62449   6.169   9.420   1.581 -0.0259  1.3059  0.5667
  474MOL0     C62450   6.063   9.469   1.667  0.7131 -0.0031  0.4302
  474MOL0     C62451   5.955   9.362   1.668  0.8640 -0.4582  0.9616
  474MOL0     C62452   5.829   9.409   1.735  0.5368  0.4085 -0.7394
  474MOL0     N62453   5.722   9.310   1.715 -0.2545  0.3933  0.6743
  474MOL0     C62454   5.739   9.174   1.684  0.1830 -0.3541  0.6276
  474MOL0     C62455   5.625   9.129   1.631 -0.0223 -0.1112 -0.5490
  474MOL0     C62456   5.597   8.983   1.580  0.4673 -0.5186  0.0364
  474MOL0     C62457   5.551   8.994   1.438 -0.1569 -0.3544  0.0603
  474MOL0     C62458   5.646   9.056   1.330 -0.1062  0.4320 -0.1778
  474MOL0     C62459   5.751   8.967   1.276  0.0212 -0.4881  0.3372
  474MOL0     O62460   5.842   8.945   1.378 -0.4476 -0.0567 -0.5213
  474MOL0     C62461   5.971   8.934   1.341 -0.6103 -0.4634  0.7753
  474MOL0     C62462   6.047   9.044   1.362 -0.8060  0.1413  0.7224
  474MOL0     C62463   6.184   9.040   1.336 -0.3034  0.5730  0.7596
  474MOL0     C62464   6.247   8.928   1.276  0.4992  0.1649  0.2883
  474MOL0     C62465   6.390   8.916   1.245 -0.5506  1.1402  0.0952
  474MOL0     O62466   6.460   9.032   1.274  0.2578  0.2704  0.4598
  474MOL0     C62467   6.599   9.032   1.263  0.3206  0.4218 -0.3815
  474MOL0     C62468   6.688   8.923   1.261  0.6922  0.3206  0.3187
  474MOL0     C62469   6.814   8.939   1.230  1.1231 -1.0297 -0.1436
  474MOL0     C62470   6.869   9.067   1.215 -0.4392  0.5316  0.0213
  474MOL0     O62471   7.004   9.088   1.203 -0.5505 -0.2407  0.9128
  474MOL0     C62472   7.097   8.979   1.189  0.2337 -0.6075 -0.1966
  474MOL0     C62473   7.249   9.028   1.201 -0.2177 -0.1648  0.1944
  474MOL0     C62474   7.288   9.077   1.339 -0.4164  0.2872  0.9292
  474MOL0     C62475   7.429   9.138   1.338 -0.8214 -0.2883 -0.1694
  474MOL0     C62476   7.457   9.183   1.483 -0.0132  0.1978 -0.2814
  474MOL0     C62477   7.609   9.209   1.514 -0.5879 -0.0124  0.8462
  474MOL0     C62478   7.638   9.275   1.653  0.8609 -0.4795 -0.4683
  474MOL0     C62479   7.776   9.347   1.663 -0.2224  0.0250 -0.4401
  474MOL0    Cl62480   7.804   9.418   1.836  0.0028 -0.1578 -0.1637
  474MOL0     C62481   6.786   9.172   1.217  0.7578 -0.0656 -0.4900
  474MOL0     C62482   6.652   9.160   1.244  0.4355 -0.0009 -0.6847
  474MOL0     O62483   6.433   8.806   1.198 -0.3275 -0.1912 -1.1971
  474MOL0     C62484   6.151   8.824   1.233  0.8894 -0.5145 -0.2228
  474MOL0     C62485   6.012   8.831   1.262  0.2865  0.7879  0.0924
  474MOL0     N62486   5.540   9.236   1.626  0.5843 -0.4835  0.0406
  474MOL0     N62487   5.598   9.341   1.671 -0.1997 -0.8294 -0.2284
  474MOL0     C62488   6.798   9.021   1.629 -0.2879 -0.3074 -0.7502
  474MOL0     C62489   6.931   8.974   1.642  0.3525  0.1546 -0.3580
  474MOL0     C62490   7.318   8.831   1.868 -0.7804 -0.1285 -0.0636
  474MOL0     C62491   7.384   8.856   1.744  0.1349  0.8406  0.1947
  474MOL0     C62492   7.512   8.814   1.721  0.6430 -0.2192 -0.5243
  474MOL0     C62493   7.597   8.774   1.830  0.0281  0.1826  0.2146
  474MOL0     O62494   7.722   8.748   1.785 -0.3875  0.1700 -1.0160
  474MOL0     C62495   7.818   8.725   1.894 -0.2239  0.1988 -0.0014
  474MOL0     C62496   7.874   8.862   1.946 -0.6383  0.1463  0.1781
  474MOL0     C62497   7.924   8.952   1.839  0.4510 -0.9930  0.4341
  474MOL0     C62498   7.965   9.093   1.904 -0.1402 -0.9764  0.5821
  474MOL0     C62499   8.103   9.079   1.953  0.2144  0.4127 -0.7585
  474MOL0     C62500   8.205   9.046   2.012 -0.0919  0.3509  0.5552
  474MOL0     C62501   7.534   8.750   1.957  0.9199 -0.4732  0.0369
  474MOL0     C62502   7.397   8.778   1.973 -0.5183  0.1293  0.1568
  474MOL0     H62503   6.899   8.855   1.960 -0.9786 -1.8928 -1.3530
  474MOL0     H62504   6.689   8.963   1.935 -2.2338  1.1769 -1.8389
  474MOL0     H62505   6.530   9.148   1.542  3.3803 -0.1785 -1.1632
  474MOL0     H62506   6.649   9.254   1.599  1.0337 -1.4305  1.2555
  474MOL0     H62507   6.482   9.362   1.750  0.0867  0.7606 -0.1840
  474MOL0     H62508   6.370   9.222   1.707 -0.5893  1.9626 -0.4209
  474MOL0     H62509   6.401   9.318   1.466 -0.1354  0.6636 -0.5670
  474MOL0     H62510   6.503   9.439   1.517  1.3499 -4.0562  1.0850
  474MOL0     H62511   6.323   9.515   1.690  2.0208  1.7706 -0.8071
  474MOL0     H62512   6.298   9.577   1.534  1.0671  0.3477  1.3673
  474MOL0     H62513   6.186   9.317   1.611 -2.3453  0.3533 -1.0717
  474MOL0     H62514   6.130   9.413   1.479 -1.0446  2.7419  0.8176
  474MOL0     H62515   6.026   9.556   1.611  1.2631  0.0434  0.1296
  474MOL0     H62516   6.092   9.486   1.771 -2.8276 -0.5250  1.6642
  474MOL0     H62517   5.927   9.338   1.565 -3.7227  2.1360  1.3364
  474MOL0     H62518   5.994   9.279   1.727  2.7772  1.8072  3.0905
  474MOL0     H62519   5.799   9.509   1.699  0.6680  1.0301  0.7924
  474MOL0     H62520   5.843   9.424   1.843  2.1822 -2.3687 -0.4919
  474MOL0     H62521   5.829   9.115   1.698 -1.1630 -2.8653 -0.7227
  474MOL0     H62522   5.515   8.932   1.632 -1.9522  2.2503 -0.7417
  474MOL0     H62523   5.690   8.927   1.586  2.2506  2.0846 -1.4098
  474MOL0     H62524   5.456   9.049   1.436 -1.1135 -1.7041  2.7429
  474MOL0     H62525   5.523   8.891   1.410 -1.6512 -0.3932  1.5350
  474MOL0     H62526   5.594   9.090   1.240 -0.2399 -0.6494 -0.5149
  474MOL0     H62527   5.697   9.141   1.377 -0.4458  0.5555 -0.0319
  474MOL0     H62528   5.796   9.008   1.185 -0.0996 -1.3752 -0.1379
  474MOL0     H62529   5.704   8.880   1.229  0.0868 -0.3922  0.0959
  474MOL0     H62530   6.006   9.136   1.401  1.3756  1.1952  0.7093
  474MOL0     H62531   6.244   9.127   1.361  2.8235  0.3080 -4.3362
  474MOL0     H62532   6.646   8.825   1.281 -0.6289  0.7705 -0.1275
  474MOL0     H62533   6.877   8.851   1.233  0.2298 -1.6647  1.1176
  474MOL0     H62534   7.078   8.912   1.105  1.3537 -0.7582 -0.3401
  474MOL0     H62535   7.089   8.923   1.283  2.5098 -1.6144 -0.5342
  474MOL0     H62536   7.284   9.108   1.135  3.5255  0.8594  3.0966
  474MOL0     H62537   7.313   8.942   1.179 -1.8519 -1.5469  0.5756
  474MOL0     H62538   7.282   8.995   1.411 -4.5768 -1.3352 -0.9760
  474MOL0     H62539   7.211   9.147   1.373 -1.3872 -0.0842 -0.4254
  474MOL0     H62540   7.510   9.075   1.301 -1.6220  0.0236 -2.6933
  474MOL0     H62541   7.422   9.224   1.270  1.5041 -1.0338 -1.4531
  474MOL0     H62542   7.420   9.112   1.557 -0.9454  1.0918  0.1318
  474MOL0     H62543   7.400   9.276   1.484 -2.2878 -1.1215 -0.3346
  474MOL0     H62544   7.639   9.275   1.433  0.3999  0.2208  1.3975
  474MOL0     H62545   7.662   9.113   1.512  0.7220  0.5845  3.0650
  474MOL0     H62546   7.561   9.347   1.683  0.2841 -0.4962 -1.7871
  474MOL0     H62547   7.640   9.196   1.728  2.5739  0.1930  0.2347
  474MOL0     H62548   7.796   9.423   1.587  2.0852  1.7675  1.7586
  474MOL0     H62549   7.853   9.270   1.656  0.7157  0.6321  2.1308
  474MOL0     H62550   6.826   9.271   1.197  0.5384  0.0189 -0.5174
  474MOL0     H62551   6.582   9.244   1.241  0.6580  0.1939 -0.4964
  474MOL0     H62552   6.182   8.736   1.177  0.5249 -1.3227  0.8251
  474MOL0     H62553   5.943   8.751   1.237 -0.0356  1.5839 -1.6882
  474MOL0     H62554   6.774   9.059   1.530 -1.0906 -2.9132 -1.6427
  474MOL0     H62555   6.988   8.992   1.552 -2.1125  1.7010 -1.7123
  474MOL0     H62556   7.328   8.890   1.657  0.8374 -1.1771 -1.1347
  474MOL0     H62557   7.573   8.820   1.631  0.1421 -3.8566 -1.2531
  474MOL0     H62558   7.897   8.662   1.852  1.8682  2.1469  0.7875
  474MOL0     H62559   7.781   8.680   1.987 -0.5990  2.3620  0.9435
  474MOL0     H62560   7.807   8.912   2.016  2.1431 -1.9210  4.7613
  474MOL0     H62561   7.965   8.836   2.000  0.7051  0.6803 -1.7419
  474MOL0     H62562   7.839   8.960   1.771  0.3520  1.2735  0.7309
  474MOL0     H62563   8.007   8.912   1.781  0.9845  1.5170 -0.6818
  474MOL0     H62564   7.959   9.179   1.837  1.9943 -0.8481  0.4874
  474MOL0     H62565   7.901   9.126   1.987  0.8910 -1.6343  1.6650
  474MOL0     H62566   8.287   9.011   2.072 -0.5077 -0.0203  0.9071
  474MOL0     H62567   7.592   8.728   2.046  0.9452 -0.5708 -0.0041
  474MOL0     H62568   7.356   8.751   2.070  0.3985  0.5000  0.6708
  475MOL0     O62569   6.960   7.573   6.278  0.4197 -0.3632  0.0764
  475MOL0     C62570   6.921   7.530   6.392  0.2532 -0.7356  0.4844
  475MOL0     O62571   6.792   7.524   6.429  0.4200 -0.7528 -0.9715
  475MOL0     C62572   6.687   7.551   6.347 -0.0303 -0.3925 -0.4421
  475MOL0     C62573   6.612   7.445   6.310 -0.4126 -0.8194  0.0250
  475MOL0     C62574   6.503   7.445   6.223  0.1889  0.7748 -0.3047
  475MOL0     C62575   6.453   7.573   6.188  0.0789  0.5639 -0.4684
  475MOL0     O62576   6.338   7.564   6.108  0.5197 -0.3851  0.3603
  475MOL0     C62577   6.340   7.638   5.988 -1.0463 -0.2841  0.2308
  475MOL0     C62578   6.212   7.633   5.907 -0.2004  0.5467  0.4540
  475MOL0     C62579   6.170   7.492   5.872 -0.6284  0.1026 -0.6609
  475MOL0     C62580   6.037   7.476   5.793  0.2382  0.3908  0.6769
  475MOL0     C62581   6.016   7.561   5.661  1.0287 -1.1670 -0.6305
  475MOL0     C62582   5.892   7.524   5.578 -0.0127  0.0918  1.0356
  475MOL0     C62583   5.765   7.565   5.645 -0.5497 -0.4421  0.2276
  475MOL0     C62584   5.650   7.463   5.608  0.9345  0.7708 -0.0538
  475MOL0     N62585   5.541   7.494   5.689 -0.4959 -0.1009  0.9356
  475MOL0     C62586   5.412   7.521   5.650 -0.7683 -0.3796 -0.0041
  475MOL0     C62587   5.343   7.511   5.764 -0.2198  0.0061 -0.3728
  475MOL0     C62588   5.194   7.536   5.778  1.2972 -0.5490  0.4124
  475MOL0     C62589   5.169   7.688   5.762  0.3433 -0.0284  0.3218
  475MOL0     C62590   5.127   7.722   5.625  0.0144  0.3236 -0.3542
  475MOL0     C62591   5.098   7.866   5.588 -0.3687 -0.2206  0.9312
  475MOL0     O62592   5.008   7.909   5.693  0.7605 -0.3448 -0.1391
  475MOL0     C62593   4.948   8.032   5.686  0.1847  0.3484  0.5259
  475MOL0     C62594   4.986   8.134   5.593 -0.2978 -0.4025  0.5790
  475MOL0     C62595   4.929   8.258   5.583 -0.4526  0.2120 -0.1823
  475MOL0     C62596   4.828   8.296   5.688 -0.5063  0.2348  0.2863
  475MOL0     C62597   4.774   8.431   5.682 -1.0992  0.6238 -1.3262
  475MOL0     O62598   4.701   8.475   5.787 -1.0524  0.5318 -0.4733
  475MOL0     C62599   4.669   8.606   5.781  0.4713  0.3513 -0.1693
  475MOL0     C62600   4.708   8.684   5.892 -0.1766 -0.1318 -0.2489
  475MOL0     C62601   4.652   8.810   5.906 -0.3149  1.0319 -0.6946
  475MOL0     C62602   4.574   8.865   5.805  0.1655 -0.1042  0.6327
  475MOL0     O62603   4.512   8.983   5.820 -0.1264  1.2367  0.0910
  475MOL0     C62604   4.579   9.072   5.737  0.1448  0.0944  0.4910
  475MOL0     C62605   4.554   9.214   5.785  0.2957  0.2325  1.5682
  475MOL0     C62606   4.604   9.313   5.681 -0.0284  0.7021  0.2722
  475MOL0     C62607   4.510   9.430   5.664 -0.7296  0.4478 -0.0683
  475MOL0     C62608   4.551   9.523   5.543  0.6371  0.6680 -0.3422
  475MOL0     C62609   4.505   9.468   5.407  0.6307 -0.1410  0.3985
  475MOL0     C62610   4.548   9.584   5.300  0.1270 -0.4165  0.1556
  475MOL0     C62611   4.505   9.547   5.154 -0.7561 -1.1143 -0.2920
  475MOL0    Cl62612   4.327   9.603   5.142  0.2374  0.2681  0.1260
  475MOL0     C62613   4.547   8.793   5.697  0.4687  0.8480  0.5210
  475MOL0     C62614   4.594   8.665   5.677 -0.4235 -0.9564  0.1206
  475MOL0     O62615   4.797   8.497   5.578  0.5125 -0.1289 -1.2492
  475MOL0     C62616   4.792   8.197   5.784 -0.8635 -0.0610 -1.1878
  475MOL0     C62617   4.849   8.068   5.777 -0.8384  0.0079 -0.2424
  475MOL0     N62618   5.438   7.480   5.867 -0.4253 -0.2299 -0.3989
  475MOL0     N62619   5.556   7.477   5.824 -0.2661 -0.0268  0.5064
  475MOL0     C62620   6.522   7.694   6.236  0.7009  0.2317 -0.6291
  475MOL0     C62621   6.634   7.679   6.311 -0.2040  0.9028 -0.7202
  475MOL0     C62622   7.007   7.465   6.497  0.2916  0.3327 -0.5600
  475MOL0     C62623   7.147   7.468   6.469  0.6831  0.0200 -0.2702
  475MOL0     C62624   7.236   7.409   6.558 -0.4965 -0.5507 -0.2711
  475MOL0     C62625   7.194   7.356   6.681 -0.3265 -0.3477  0.6759
  475MOL0     O62626   7.281   7.297   6.774  0.2609  0.0178 -0.1074
  475MOL0     C62627   7.412   7.259   6.746  0.1313 -0.4572  0.8597
  475MOL0     C62628   7.434   7.109   6.704  0.0977 -0.1730  0.7740
  475MOL0     C62629   7.588   7.075   6.682  0.1397 -1.0906  0.0486
  475MOL0     C62630   7.602   6.926   6.658 -0.1069 -0.0948 -0.9371
  475MOL0     C62631   7.746   6.903   6.670  0.9939  0.3720 -0.4481
  475MOL0     C62632   7.866   6.878   6.698  0.0100 -0.2736  1.0068
  475MOL0     C62633   7.062   7.361   6.716  0.4195 -0.4194  0.6181
  475MOL0     C62634   6.970   7.416   6.623  0.3167  0.1405  0.1122
  475MOL0     H62635   6.646   7.347   6.342 -2.5998 -0.7921  2.7506
  475MOL0     H62636   6.460   7.359   6.172 -0.6485 -0.3284  2.0919
  475MOL0     H62637   6.420   7.601   5.924  1.9169  1.8816  2.4008
  475MOL0     H62638   6.385   7.737   5.998  0.5006 -1.1093  1.8140
  475MOL0     H62639   6.222   7.701   5.822  0.8847 -1.0379 -0.7411
  475MOL0     H62640   6.125   7.665   5.966 -2.3593 -0.4106 -2.0093
  475MOL0     H62641   6.165   7.432   5.964  3.1669  1.6026  0.7318
  475MOL0     H62642   6.254   7.446   5.819 -0.1042  2.1302 -1.6775
  475MOL0     H62643   6.031   7.371   5.763 -0.2697  0.6243 -0.0442
  475MOL0     H62644   5.952   7.491   5.860 -0.7790  0.2401 -0.5462
  475MOL0     H62645   6.109   7.545   5.604  0.8794 -2.1426 -0.6188
  475MOL0     H62646   6.007   7.668   5.677  1.2986 -0.9689 -1.7091
  475MOL0     H62647   5.878   7.419   5.550 -3.2352  0.0098  2.5019
  475MOL0     H62648   5.894   7.580   5.484  0.3473  0.9978  1.5776
  475MOL0     H62649   5.774   7.555   5.754 -0.6047 -0.9069  0.1918
  475MOL0     H62650   5.746   7.671   5.626  0.6781 -0.6860 -3.0296
  475MOL0     H62651   5.684   7.360   5.620 -4.8294 -1.9533 -3.1906
  475MOL0     H62652   5.634   7.479   5.501  3.5979  0.6416 -0.5352
  475MOL0     H62653   5.368   7.529   5.551  1.7079 -0.8784 -1.2061
  475MOL0     H62654   5.162   7.500   5.876 -0.4506  0.0989  0.1180
  475MOL0     H62655   5.147   7.477   5.699  0.4709  2.2001 -1.2979
  475MOL0     H62656   5.248   7.755   5.795  0.3941  0.2796 -0.4029
  475MOL0     H62657   5.088   7.711   5.832 -2.5163 -3.0200 -1.6871
  475MOL0     H62658   5.197   7.690   5.547  3.2238  2.2994  1.4939
  475MOL0     H62659   5.032   7.668   5.617  1.3551 -2.4780  1.3147
  475MOL0     H62660   5.051   7.878   5.490 -0.7176 -0.5619  1.0525
  475MOL0     H62661   5.194   7.917   5.584  0.0662 -1.1112 -0.7058
  475MOL0     H62662   5.067   8.106   5.527 -0.7479 -1.6738  0.5554
  475MOL0     H62663   4.952   8.327   5.503 -0.6813  3.2359  2.1680
  475MOL0     H62664   4.765   8.647   5.977 -1.9243  0.1862  1.1059
  475MOL0     H62665   4.665   8.851   6.006 -1.1582 -0.1906 -0.0511
  475MOL0     H62666   4.535   9.056   5.638 -1.4168 -0.3344  1.2241
  475MOL0     H62667   4.687   9.068   5.723  0.1470  2.5662 -0.9158
  475MOL0     H62668   4.600   9.225   5.883  1.2607  2.1963  0.9505
  475MOL0     H62669   4.446   9.216   5.804  0.4316  0.6183  2.3451
  475MOL0     H62670   4.616   9.261   5.585 -1.5209 -0.9042  0.8847
  475MOL0     H62671   4.698   9.365   5.702  0.4675  0.4174 -1.1438
  475MOL0     H62672   4.408   9.395   5.645 -0.2639 -0.1338 -1.6284
  475MOL0     H62673   4.499   9.487   5.757  0.9989 -0.2451  0.6142
  475MOL0     H62674   4.658   9.547   5.531  0.6030  0.5913 -0.8214
  475MOL0     H62675   4.516   9.624   5.565  2.1269  0.9638  0.8636
  475MOL0     H62676   4.397   9.460   5.415  0.7343  0.0910  2.6697
  475MOL0     H62677   4.555   9.377   5.371  0.7829  1.3094 -3.5868
  475MOL0     H62678   4.505   9.682   5.321  1.9771  0.7449 -1.2368
  475MOL0     H62679   4.655   9.600   5.317 -0.0586  0.1883  0.7695
  475MOL0     H62680   4.527   9.443   5.130  1.5150 -1.1847  1.8093
  475MOL0     H62681   4.563   9.609   5.086 -1.7781 -1.0445 -1.1188
  475MOL0     H62682   4.490   8.834   5.615  2.3672  1.2731 -0.6386
  475MOL0     H62683   4.551   8.613   5.593 -2.4976  0.3197  0.3056
  475MOL0     H62684   4.730   8.225   5.868  0.1396 -0.2771 -0.3665
  475MOL0     H62685   4.835   8.005   5.865  2.2472  1.5773  1.5184
  475MOL0     H62686   6.486   7.791   6.201  2.1077  1.4896  1.1926
  475MOL0     H62687   6.683   7.768   6.349 -2.0494  1.1195  1.3046
  475MOL0     H62688   7.202   7.507   6.384  0.3982  2.2028  0.4911
  475MOL0     H62689   7.339   7.387   6.530  1.2668  0.9202  4.0360
  475MOL0     H62690   7.465   7.262   6.842 -1.9967 -2.8210  2.2216
  475MOL0     H62691   7.462   7.342   6.696  0.0189 -0.6127  0.4901
  475MOL0     H62692   7.391   7.044   6.781 -0.8716 -1.4223 -0.7599
  475MOL0     H62693   7.374   7.095   6.613 -1.2382  3.0715  1.0281
  475MOL0     H62694   7.636   7.107   6.775 -1.9849  1.9629  0.2466
  475MOL0     H62695   7.628   7.140   6.604  0.0931 -0.4403  0.5597
  475MOL0     H62696   7.547   6.888   6.744 -1.4334 -1.0004 -2.1542
  475MOL0     H62697   7.565   6.885   6.564  3.9640 -0.8658 -2.3898
  475MOL0     H62698   7.972   6.872   6.703 -0.0009  0.7916  4.1290
  475MOL0     H62699   7.024   7.301   6.797 -1.6630  1.7557  1.3779
  475MOL0     H62700   6.864   7.404   6.645  0.7328  0.7544  2.6942
  476MOL0     O62701   4.917   2.303   5.467  0.1261  0.2230 -0.2577
  476MOL0     C62702   4.951   2.192   5.507 -0.8561  0.4466 -0.1761
  476MOL0     O62703   4.913   2.075   5.447  0.7527  0.2176  0.0861
  476MOL0     C62704   4.803   2.067   5.366 -0.0540  0.2809  0.5544
  476MOL0     C62705   4.691   2.148   5.358  0.0196 -0.2331 -0.6300
  476MOL0     C62706   4.586   2.130   5.282  0.1823 -0.1150  0.0606
  476MOL0     C62707   4.582   2.019   5.202  0.2639 -0.5181  0.0135
  476MOL0     O62708   4.475   1.987   5.119  0.3458  0.1981 -0.1390
  476MOL0     C62709   4.351   2.063   5.128 -0.5671 -0.3923  0.5137
  476MOL0     C62710   4.241   2.004   5.036  1.4343 -0.2919 -0.1644
  476MOL0     C62711   4.103   2.047   5.103 -0.2456 -0.6263  0.2501
  476MOL0     C62712   3.974   1.997   5.026 -0.4523 -0.3162 -0.0068
  476MOL0     C62713   3.939   2.095   4.902  0.8061 -0.3202 -0.2733
  476MOL0     C62714   3.795   2.057   4.844  1.0504  0.1957  0.7895
  476MOL0     C62715   3.757   2.145   4.723  0.6640 -0.2602  0.3436
  476MOL0     C62716   3.609   2.129   4.687  0.0042  0.7404  1.1753
  476MOL0     N62717   3.516   2.183   4.782  0.2603 -0.2126  0.0341
  476MOL0     C62718   3.502   2.314   4.813 -0.2068 -0.5952  0.8898
  476MOL0     C62719   3.405   2.317   4.907  0.8696 -0.3742  0.2468
  476MOL0     C62720   3.366   2.460   4.959 -0.2450  0.6099 -0.5971
  476MOL0     C62721   3.359   2.480   5.113  0.2961 -0.0235 -0.7480
  476MOL0     C62722   3.311   2.614   5.156 -0.7381 -0.3579  1.0028
  476MOL0     C62723   3.249   2.626   5.295  0.2533 -0.4234 -0.5555
  476MOL0     O62724   3.130   2.539   5.295  0.0627  0.3855 -0.4787
  476MOL0     C62725   3.029   2.585   5.367  0.6470  0.8245  0.1186
  476MOL0     C62726   3.033   2.572   5.508 -0.3490 -0.1049  0.7190
  476MOL0     C62727   2.923   2.602   5.580  0.4219  0.0632 -1.4574
  476MOL0     C62728   2.806   2.648   5.525  0.1689  1.1809  1.0508
  476MOL0     C62729   2.688   2.669   5.608 -0.0445  0.3641  0.3279
  476MOL0     O62730   2.700   2.659   5.739 -0.2922 -0.0505 -0.4590
  476MOL0     C62731   2.594   2.695   5.810  0.2692  0.4778 -1.2953
  476MOL0     C62732   2.544   2.606   5.904 -1.3340 -0.0401  0.2582
  476MOL0     C62733   2.444   2.638   5.992 -0.0456  0.0309  0.1415
  476MOL0     C62734   2.367   2.752   5.974 -0.2813  0.6631 -0.0911
  476MOL0     O62735   2.245   2.777   6.044 -0.1801  0.9419  0.5867
  476MOL0     C62736   2.225   2.708   6.174 -0.9780  0.5317  0.5758
  476MOL0     C62737   2.116   2.768   6.266 -0.5684 -0.5478 -0.0073
  476MOL0     C62738   1.972   2.730   6.218 -0.4545 -0.3245 -0.1487
  476MOL0     C62739   1.936   2.759   6.070  0.6243 -0.0573  0.6705
  476MOL0     C62740   1.788   2.786   6.055  2.0529 -0.9155  0.9342
  476MOL0     C62741   1.711   2.664   5.992 -0.7858 -0.2791 -0.4710
  476MOL0     C62742   1.622   2.720   5.884 -0.0331 -0.3873 -0.2344
  476MOL0     C62743   1.531   2.620   5.816  0.1337 -0.7892 -0.0221
  476MOL0    Cl62744   1.457   2.532   5.944 -0.1493 -0.3913 -0.1640
  476MOL0     C62745   2.420   2.848   5.883 -0.7729  0.3759 -0.3962
  476MOL0     C62746   2.523   2.813   5.799 -0.7123 -0.4447 -0.6592
  476MOL0     O62747   2.578   2.663   5.549  0.2660 -0.3255  0.6716
  476MOL0     C62748   2.799   2.665   5.388  0.3595 -0.0051  0.0063
  476MOL0     C62749   2.917   2.644   5.311  0.2573  0.2199  0.3753
  476MOL0     N62750   3.354   2.193   4.937 -0.1901 -0.0716  0.3367
  476MOL0     N62751   3.419   2.116   4.855 -0.7648  0.2446 -0.2128
  476MOL0     C62752   4.689   1.931   5.201 -0.4187 -0.5047  0.3064
  476MOL0     C62753   4.808   1.964   5.272  0.7608  0.5664 -0.4072
  476MOL0     C62754   5.049   2.184   5.615 -0.0426 -0.1722  0.3776
  476MOL0     C62755   5.030   2.082   5.705 -0.1415  0.4659  0.4098
  476MOL0     C62756   5.125   2.060   5.809 -0.4459 -0.4299  0.1858
  476MOL0     C62757   5.227   2.156   5.823  0.2615  1.0670  0.2142
  476MOL0     O62758   5.327   2.140   5.917 -0.0823 -0.2942 -0.3628
  476MOL0     C62759   5.299   2.065   6.039 -0.1742  0.1113  0.7612
  476MOL0     C62760   5.416   2.062   6.136  0.3163  0.1906  0.2262
  476MOL0     C62761   5.467   2.201   6.159 -0.9652  0.7172 -0.7466
  476MOL0     C62762   5.360   2.303   6.197  0.9471  0.4230  0.1162
  476MOL0     C62763   5.411   2.425   6.257  1.0593 -0.4871  0.7729
  476MOL0     C62764   5.444   2.536   6.292  0.1685  0.3805  0.8220
  476MOL0     C62765   5.240   2.271   5.735  0.5164  0.0147  0.5076
  476MOL0     C62766   5.140   2.286   5.634 -0.4034  0.2605 -0.0342
  476MOL0     H62767   4.670   2.228   5.429 -0.1454  0.7482 -1.7494
  476MOL0     H62768   4.503   2.199   5.280 -1.3452 -1.8813  0.0647
  476MOL0     H62769   4.362   2.167   5.094 -0.9087 -0.1378  1.1636
  476MOL0     H62770   4.324   2.070   5.234 -4.7509  0.8493 -0.4736
  476MOL0     H62771   4.231   1.896   5.047 -3.1509  0.1432  2.4686
  476MOL0     H62772   4.255   2.053   4.939 -0.2764  5.2357  1.9993
  476MOL0     H62773   4.102   2.154   5.121 -0.0925 -0.3070 -1.4432
  476MOL0     H62774   4.107   1.998   5.201 -0.4104 -0.9659  0.0900
  476MOL0     H62775   3.979   1.893   4.993 -2.8127  0.4846 -3.3779
  476MOL0     H62776   3.885   2.014   5.087 -1.6321  1.3841 -2.0373
  476MOL0     H62777   4.014   2.087   4.823 -2.4756 -0.2425 -3.6794
  476MOL0     H62778   3.930   2.199   4.933  0.3783 -0.5309  0.3204
  476MOL0     H62779   3.711   2.059   4.914  0.5570  0.3827  0.2051
  476MOL0     H62780   3.801   1.951   4.815  0.8940  0.6459 -1.0280
  476MOL0     H62781   3.768   2.251   4.744 -2.2767  0.0543  0.5890
  476MOL0     H62782   3.823   2.128   4.637  1.9042  0.5000  1.1082
  476MOL0     H62783   3.598   2.022   4.666 -3.4068  1.3800 -1.1356
  476MOL0     H62784   3.588   2.187   4.597 -0.3334  0.4983  1.0953
  476MOL0     H62785   3.570   2.392   4.779  1.5708 -2.4334  0.0238
  476MOL0     H62786   3.269   2.480   4.914 -0.0592 -0.1235 -1.3355
  476MOL0     H62787   3.438   2.533   4.920  0.5182 -0.1458 -0.6325
  476MOL0     H62788   3.459   2.471   5.158  1.6023  3.7872 -2.4584
  476MOL0     H62789   3.289   2.409   5.159  2.0517 -1.1250  0.3490
  476MOL0     H62790   3.387   2.691   5.143  0.7123 -1.6018  1.8048
  476MOL0     H62791   3.228   2.641   5.090  1.1774  0.6668 -1.1315
  476MOL0     H62792   3.228   2.731   5.319  2.1758 -0.2692  0.7126
  476MOL0     H62793   3.321   2.604   5.375 -3.3776  1.3301  3.6237
  476MOL0     H62794   3.117   2.525   5.557  1.2052  2.4552  0.6691
  476MOL0     H62795   2.940   2.581   5.686 -0.8190 -2.2863 -1.6577
  476MOL0     H62796   2.598   2.512   5.916  0.1611  0.7155 -0.3133
  476MOL0     H62797   2.432   2.569   6.075 -1.4202 -0.1831 -0.2170
  476MOL0     H62798   2.320   2.698   6.227 -1.8369  2.1248  2.5940
  476MOL0     H62799   2.200   2.604   6.152  0.4832  0.2370  0.2046
  476MOL0     H62800   2.118   2.877   6.274 -0.4236 -0.6955  3.2588
  476MOL0     H62801   2.133   2.736   6.369 -1.8248 -1.1126  0.0461
  476MOL0     H62802   1.900   2.781   6.282  2.9226  1.0907  2.9140
  476MOL0     H62803   1.961   2.622   6.235  1.4536 -0.6706 -0.8089
  476MOL0     H62804   1.987   2.848   6.033 -2.5191  1.2709 -0.8428
  476MOL0     H62805   1.970   2.685   5.996  0.4855  0.2670  0.2773
  476MOL0     H62806   1.781   2.878   5.996  3.9677 -0.7401  0.9335
  476MOL0     H62807   1.738   2.815   6.148  2.0786 -1.5360  1.1461
  476MOL0     H62808   1.652   2.616   6.070 -3.0040  0.3372 -1.6680
  476MOL0     H62809   1.780   2.585   5.963 -1.7312 -1.5468  0.6040
  476MOL0     H62810   1.573   2.803   5.935  1.4734  3.4217 -4.3104
  476MOL0     H62811   1.684   2.775   5.812  1.0647 -0.4202  0.6496
  476MOL0     H62812   1.592   2.564   5.745  0.1615 -1.1943  0.3152
  476MOL0     H62813   1.449   2.669   5.762 -1.2111 -1.0516  1.6547
  476MOL0     H62814   2.377   2.946   5.868 -0.6980  0.6159  0.9172
  476MOL0     H62815   2.566   2.891   5.737 -1.1553  1.2952  1.1058
  476MOL0     H62816   2.702   2.680   5.342  0.5009  1.4902  0.1494
  476MOL0     H62817   2.910   2.640   5.202  0.7845 -2.9472  0.3659
  476MOL0     H62818   4.684   1.844   5.137  0.3924 -0.6274  0.4011
  476MOL0     H62819   4.891   1.895   5.258  1.3914  1.4799 -1.2845
  476MOL0     H62820   4.957   2.002   5.701  1.7958 -1.3930  0.3822
  476MOL0     H62821   5.114   1.983   5.885 -1.3997  1.4216  2.0208
  476MOL0     H62822   5.291   1.964   5.998  2.9357  0.7212 -1.7745
  476MOL0     H62823   5.208   2.103   6.087 -2.1611 -1.5196 -1.5201
  476MOL0     H62824   5.387   2.019   6.233 -0.9211 -0.4310 -0.3985
  476MOL0     H62825   5.494   2.000   6.090  0.0232  0.6071 -0.8540
  476MOL0     H62826   5.535   2.240   6.083  2.0879  0.1167  1.5318
  476MOL0     H62827   5.534   2.190   6.244 -3.0377  0.7987  0.9828
  476MOL0     H62828   5.293   2.317   6.111 -2.7006  1.3362  2.8579
  476MOL0     H62829   5.287   2.266   6.270 -0.6063 -0.7657 -1.9327
  476MOL0     H62830   5.468   2.640   6.304 -1.0791  0.5715  2.0244
  476MOL0     H62831   5.319   2.344   5.743 -0.3261  0.9134  0.8407
  476MOL0     H62832   5.127   2.366   5.562 -2.0251 -0.6323 -0.7929
  477MOL0     O62833   1.438   9.618   4.687  0.2857  0.5864 -0.4360
  477MOL0     C62834   1.560   9.599   4.694  0.2539  0.2231  0.3253
  477MOL0     O62835   1.611   9.490   4.762 -0.0277 -0.7055 -0.8173
  477MOL0     C62836   1.545   9.369   4.747 -0.1750  0.2817 -1.0808
  477MOL0     C62837   1.510   9.306   4.863  0.2972 -0.3113 -0.3468
  477MOL0     C62838   1.470   9.174   4.854 -0.4697  0.0748  0.6030
  477MOL0     C62839   1.456   9.107   4.739  0.2982 -0.0539  0.8815
  477MOL0     O62840   1.412   8.972   4.725 -0.1934 -0.1280  0.2550
  477MOL0     C62841   1.346   8.913   4.842 -0.4532  0.0321  0.1737
  477MOL0     C62842   1.197   8.958   4.844  0.2367 -0.6846  0.2392
  477MOL0     C62843   1.122   8.898   4.729 -0.6932  0.0476 -0.2835
  477MOL0     C62844   0.982   8.960   4.739 -0.5129  0.1710 -0.5237
  477MOL0     C62845   0.869   8.896   4.653 -0.0375  0.1436 -0.2660
  477MOL0     C62846   0.836   8.761   4.711 -0.3324  0.6691 -0.1355
  477MOL0     C62847   0.793   8.764   4.861  0.3207 -1.4681  0.0511
  477MOL0     C62848   0.762   8.628   4.904 -0.5144  0.8361 -0.7384
  477MOL0     N62849   0.756   8.624   5.050 -0.2530  0.5682  1.2988
  477MOL0     C62850   0.691   8.703   5.138 -0.5581  0.0667 -0.0743
  477MOL0     C62851   0.707   8.636   5.254  0.1740  1.1079  0.0112
  477MOL0     C62852   0.659   8.681   5.389 -0.4966 -0.4567  0.0148
  477MOL0     C62853   0.705   8.836   5.408 -0.0355  0.3342  0.0470
  477MOL0     C62854   0.723   8.877   5.557  0.5300  0.8981  0.1936
  477MOL0     C62855   0.747   9.031   5.558  0.8412 -0.0342 -0.0769
  477MOL0     O62856   0.658   9.119   5.487  0.2367 -0.2162  0.2338
  477MOL0     C62857   0.531   9.133   5.534 -0.1395 -0.7976  0.5622
  477MOL0     C62858   0.491   9.105   5.659  1.0687 -0.8612  0.7603
  477MOL0     C62859   0.360   9.124   5.706 -0.2264 -1.1642 -0.0977
  477MOL0     C62860   0.264   9.180   5.612 -0.6671 -0.9479 -0.2499
  477MOL0     C62861   0.122   9.175   5.651  0.0501  0.0074  0.1486
  477MOL0     O62862   0.037   9.171   5.543 -1.5958  0.9102 -0.6551
  477MOL0     C62863  -0.095   9.169   5.534  0.2653  0.5984 -0.0742
  477MOL0     C62864  -0.189   9.203   5.632 -0.7902  0.6875 -0.6824
  477MOL0     C62865  -0.328   9.209   5.619  0.4418 -1.8346  1.1227
  477MOL0     C62866  -0.376   9.172   5.493 -0.0019 -0.4679 -0.0320
  477MOL0     O62867  -0.506   9.173   5.460 -0.0301 -0.0267  0.7786
  477MOL0     C62868  -0.607   9.208   5.551  0.0763  0.6239 -0.0025
  477MOL0     C62869  -0.741   9.183   5.461 -0.7634 -0.6229 -0.2197
  477MOL0     C62870  -0.854   9.257   5.532  1.6159 -0.2731 -0.3409
  477MOL0     C62871  -0.849   9.412   5.503 -0.2763 -1.1314  0.3112
  477MOL0     C62872  -0.973   9.500   5.544  0.3167  0.0590 -1.5333
  477MOL0     C62873  -1.027   9.442   5.681 -0.4297  0.5977 -0.1558
  477MOL0     C62874  -1.123   9.538   5.736 -0.6679 -0.2895 -0.0883
  477MOL0     C62875  -1.200   9.487   5.857 -0.3977 -0.3026  0.0979
  477MOL0    Cl62876  -1.084   9.437   5.991 -0.2474  0.0224  0.4539
  477MOL0     C62877  -0.292   9.114   5.403 -0.1167  0.3533  0.5260
  477MOL0     C62878  -0.153   9.113   5.427  0.5695 -0.0084  0.5176
  477MOL0     O62879   0.096   9.148   5.762 -0.3736 -0.1944  0.0363
  477MOL0     C62880   0.307   9.205   5.480  0.4173 -1.0588 -0.0931
  477MOL0     C62881   0.439   9.186   5.439 -0.4134 -0.4218  0.1705
  477MOL0     N62882   0.768   8.514   5.232  0.0908  0.8927 -0.1565
  477MOL0     N62883   0.803   8.514   5.108 -0.4088  0.3657 -0.2591
  477MOL0     C62884   1.499   9.172   4.615  0.3884  1.2292 -0.0368
  477MOL0     C62885   1.538   9.305   4.622 -0.7054  0.4689 -0.0840
  477MOL0     C62886   1.668   9.687   4.647  0.6131  0.0276  0.2726
  477MOL0     C62887   1.639   9.779   4.541  0.8361  1.0434  0.1241
  477MOL0     C62888   1.738   9.850   4.476 -0.8806 -0.0557 -0.0662
  477MOL0     C62889   1.869   9.845   4.522  0.4478 -0.2749 -0.0216
  477MOL0     O62890   1.959   9.936   4.477 -0.2757  0.0258  0.2062
  477MOL0     C62891   2.008   9.889   4.349 -0.3272  0.5805 -0.9582
  477MOL0     C62892   2.162   9.900   4.361  0.3135  0.4236  0.1261
  477MOL0     C62893   2.215  10.040   4.388 -0.7256 -0.3553 -0.2596
  477MOL0     C62894   2.364  10.032   4.423  0.6538  0.1631 -0.0025
  477MOL0     C62895   2.443  10.148   4.386  0.6345  0.0419  0.4456
  477MOL0     C62896   2.486  10.260   4.342 -0.9461 -0.2785 -0.5872
  477MOL0     C62897   1.901   9.766   4.633 -0.0183 -0.1018 -0.3171
  477MOL0     C62898   1.801   9.687   4.693  0.0987 -0.5072  0.0603
  477MOL0     H62899   1.517   9.359   4.957 -1.5107  0.3907 -0.5588
  477MOL0     H62900   1.443   9.127   4.948 -3.2434  1.4520  0.6094
  477MOL0     H62901   1.397   8.930   4.937  1.3186 -0.8626 -0.5797
  477MOL0     H62902   1.355   8.804   4.830  0.3738  0.0897  0.2574
  477MOL0     H62903   1.201   9.066   4.825  0.7992 -0.4162  1.7447
  477MOL0     H62904   1.153   8.941   4.943  2.1307  1.9436  1.6758
  477MOL0     H62905   1.122   8.790   4.742 -0.5629  0.2689  1.8383
  477MOL0     H62906   1.160   8.916   4.628 -2.4086 -0.3764 -1.0571
  477MOL0     H62907   0.955   8.977   4.844  3.0135  2.6140  0.1726
  477MOL0     H62908   0.975   9.057   4.689 -1.0103 -0.0210 -0.8336
  477MOL0     H62909   0.907   8.877   4.552 -2.2863  2.0166 -1.5723
  477MOL0     H62910   0.778   8.952   4.632  1.0757  1.7320 -1.0789
  477MOL0     H62911   0.923   8.695   4.701  0.1613  1.5581 -2.0200
  477MOL0     H62912   0.761   8.700   4.660  3.4991 -3.1508 -1.8546
  477MOL0     H62913   0.866   8.807   4.930  0.2083  1.2831 -1.3764
  477MOL0     H62914   0.701   8.820   4.878 -0.1138 -2.7693  2.3903
  477MOL0     H62915   0.841   8.560   4.869 -2.1101  0.7126 -4.6195
  477MOL0     H62916   0.667   8.594   4.862 -0.5242 -0.6726  0.4218
  477MOL0     H62917   0.640   8.796   5.118 -0.4304 -0.4026 -3.0088
  477MOL0     H62918   0.707   8.619   5.466  0.3108 -0.2601 -0.3141
  477MOL0     H62919   0.551   8.669   5.401 -0.7198  1.0739 -0.2440
  477MOL0     H62920   0.640   8.897   5.345  1.4212 -0.4423 -2.3003
  477MOL0     H62921   0.806   8.844   5.367  0.2657  1.4205  0.9618
  477MOL0     H62922   0.636   8.848   5.617  0.2093  0.8633 -0.2849
  477MOL0     H62923   0.811   8.830   5.601 -0.8810  0.4017  2.6461
  477MOL0     H62924   0.840   9.051   5.504  1.3596  0.9934  1.1485
  477MOL0     H62925   0.765   9.057   5.663 -1.3593  0.2917  0.2605
  477MOL0     H62926   0.564   9.083   5.735 -0.0841 -4.1147  1.0772
  477MOL0     H62927   0.327   9.096   5.806  0.1849  0.0954  0.4143
  477MOL0     H62928  -0.141   9.237   5.724  1.2646  0.2976 -1.5637
  477MOL0     H62929  -0.392   9.236   5.703 -2.4621  0.4548 -1.6015
  477MOL0     H62930  -0.600   9.310   5.588  0.3721  1.2172 -1.6129
  477MOL0     H62931  -0.607   9.126   5.624 -0.3889  0.2902 -0.3689
  477MOL0     H62932  -0.762   9.075   5.459  1.7985 -1.1998  0.7665
  477MOL0     H62933  -0.726   9.222   5.360 -1.7343 -1.5737 -0.7613
  477MOL0     H62934  -0.846   9.234   5.639 -1.5674 -3.5521 -0.5923
  477MOL0     H62935  -0.953   9.223   5.499  1.5655  0.1134 -0.5927
  477MOL0     H62936  -0.770   9.452   5.568 -1.1039 -0.2698  0.8140
  477MOL0     H62937  -0.829   9.438   5.399 -2.6261  3.0992  0.6514
  477MOL0     H62938  -1.040   9.486   5.459  3.1431 -1.3606 -3.7193
  477MOL0     H62939  -0.948   9.606   5.545 -3.9071  1.2421 -1.9158
  477MOL0     H62940  -0.945   9.434   5.753  1.7021  2.1048 -2.2865
  477MOL0     H62941  -1.078   9.346   5.662  2.2574 -0.7030 -1.3152
  477MOL0     H62942  -1.082   9.631   5.775 -1.3007 -0.6831  1.5910
  477MOL0     H62943  -1.184   9.560   5.648 -2.5217 -0.2199  1.1518
  477MOL0     H62944  -1.266   9.406   5.826 -1.9254  1.3617 -1.2468
  477MOL0     H62945  -1.261   9.572   5.890 -3.6274 -2.0996 -0.8550
  477MOL0     H62946  -0.335   9.089   5.306  0.4617  3.1702 -0.5597
  477MOL0     H62947  -0.102   9.080   5.337 -1.3360 -2.1291  0.1522
  477MOL0     H62948   0.244   9.224   5.394  0.8599  0.3300 -0.1488
  477MOL0     H62949   0.484   9.211   5.344 -0.0058  0.8190  0.6723
  477MOL0     H62950   1.500   9.111   4.525  1.4241  0.8446  0.2296
  477MOL0     H62951   1.580   9.354   4.535 -1.1966 -0.2994 -0.7715
  477MOL0     H62952   1.540   9.788   4.500  2.1525  0.8946 -3.4426
  477MOL0     H62953   1.713   9.929   4.406  1.0098 -1.5840 -2.6729
  477MOL0     H62954   1.958   9.941   4.267 -1.5749 -0.3266 -0.8113
  477MOL0     H62955   1.989   9.783   4.332  0.2937  0.6244 -2.0019
  477MOL0     H62956   2.196   9.838   4.444  2.5014 -0.9868 -1.7024
  477MOL0     H62957   2.206   9.862   4.268  0.3002  1.1694 -0.1973
  477MOL0     H62958   2.168  10.088   4.475  0.7309 -1.5464  1.2657
  477MOL0     H62959   2.203  10.097   4.296  0.8857 -1.4340 -1.1856
  477MOL0     H62960   2.379  10.017   4.531  0.9925  3.1640  0.4501
  477MOL0     H62961   2.407   9.951   4.363  1.3193 -0.2352  0.9704
  477MOL0     H62962   2.515  10.352   4.296  1.9466 -0.4027  0.7675
  477MOL0     H62963   2.000   9.776   4.675  0.8678 -1.1370 -2.0658
  477MOL0     H62964   1.819   9.613   4.770  0.5833  0.7028  1.1566
  478MOL0     O62965   7.972   6.236   1.398  0.3721  0.4855  0.0561
  478MOL0     C62966   7.957   6.338   1.337  0.7662 -0.2939  0.5846
  478MOL0     O62967   7.830   6.405   1.323 -0.0571  0.4363 -0.0756
  478MOL0     C62968   7.719   6.338   1.371 -0.7739 -0.5767  0.0877
  478MOL0     C62969   7.698   6.334   1.509  0.1466 -0.7629 -0.1324
  478MOL0     C62970   7.591   6.252   1.557  0.6165 -0.1704  0.0868
  478MOL0     C62971   7.507   6.182   1.455 -0.4590  0.5861  1.2656
  478MOL0     O62972   7.394   6.108   1.495 -0.1437 -0.6958 -0.7452
  478MOL0     C62973   7.431   6.002   1.580 -0.5067  0.1384  0.7013
  478MOL0     C62974   7.310   5.908   1.605 -0.5719  1.1851  0.6807
  478MOL0     C62975   7.232   5.939   1.734 -0.5455  0.6629  1.3790
  478MOL0     C62976   7.118   5.828   1.743  0.6835 -0.5511  0.0185
  478MOL0     C62977   7.003   5.884   1.826  0.1735 -0.6856  0.2009
  478MOL0     C62978   6.895   5.783   1.823  0.0748 -0.4129  0.0625
  478MOL0     C62979   6.779   5.827   1.917 -0.0426  0.2174 -0.9613
  478MOL0     C62980   6.671   5.712   1.932 -0.3526 -0.1996 -0.3547
  478MOL0     N62981   6.545   5.757   1.974  0.3131  0.6247 -0.2990
  478MOL0     C62982   6.455   5.828   1.898  0.0063 -0.1672  0.5268
  478MOL0     C62983   6.370   5.889   1.981  0.5295  0.7894  0.3673
  478MOL0     C62984   6.253   5.980   1.944 -0.9394 -0.2817  0.5327
  478MOL0     C62985   6.151   5.908   1.857 -0.5561  0.5153 -0.0721
  478MOL0     C62986   6.077   5.796   1.926 -0.5491 -0.2569 -0.3888
  478MOL0     C62987   5.947   5.843   1.998 -1.2912  0.0828  0.0689
  478MOL0     O62988   5.873   5.934   1.912 -0.2475 -0.1152  0.0025
  478MOL0     C62989   5.741   5.951   1.947  0.3962 -0.7456 -0.6608
  478MOL0     C62990   5.716   5.966   2.082  0.4217 -0.9139  0.5823
  478MOL0     C62991   5.579   5.993   2.111 -0.0428 -0.0019 -0.6113
  478MOL0     C62992   5.472   6.014   2.019  1.1931  0.2005  0.7884
  478MOL0     C62993   5.325   6.036   2.060  0.0339  0.1381  0.0078
  478MOL0     O62994   5.232   6.051   1.959  0.1503 -0.3115 -0.0686
  478MOL0     C62995   5.107   6.060   1.999  0.0920  0.9122 -0.1528
  478MOL0     C62996   5.035   6.157   1.928  0.6343 -0.7863  0.0085
  478MOL0     C62997   4.892   6.170   1.937 -0.4719 -0.6243 -0.1312
  478MOL0     C62998   4.825   6.083   2.026  0.2991  0.1515  0.7333
  478MOL0     O62999   4.693   6.072   2.051  0.5217 -0.3418  0.1772
  478MOL0     C63000   4.610   6.187   2.023 -0.4264  0.3519  0.4327
  478MOL0     C63001   4.460   6.169   2.085  0.2820 -0.1860 -0.0519
  478MOL0     C63002   4.383   6.300   2.057  0.7246  0.4153 -0.5793
  478MOL0     C63003   4.239   6.275   2.022  0.1559 -0.4530 -0.2662
  478MOL0     C63004   4.150   6.394   1.986 -0.6790 -0.1326  0.2599
  478MOL0     C63005   4.014   6.345   1.948 -0.2746 -1.1228 -0.7626
  478MOL0     C63006   3.922   6.474   1.947 -0.9146  0.0845 -0.4181
  478MOL0     C63007   3.787   6.455   1.893 -0.0970 -0.4506 -0.8767
  478MOL0    Cl63008   3.705   6.297   1.910 -0.5159  0.3170 -0.2801
  478MOL0     C63009   4.896   5.976   2.085  1.3497  0.2226  0.1941
  478MOL0     C63010   5.031   5.957   2.068  0.5300  0.0232 -0.4248
  478MOL0     O63011   5.302   6.048   2.178 -0.3160  0.6478 -0.1622
  478MOL0     C63012   5.510   6.006   1.887 -0.7149 -0.8317 -0.7564
  478MOL0     C63013   5.638   5.983   1.852 -0.5330 -0.0633 -0.3587
  478MOL0     N63014   6.396   5.841   2.103  0.6171  0.2944  0.2906
  478MOL0     N63015   6.495   5.750   2.103 -0.1907  0.0183  1.2397
  478MOL0     C63016   7.530   6.203   1.320 -0.0134  0.3547 -0.8794
  478MOL0     C63017   7.638   6.279   1.278  0.3895 -0.6716 -0.3222
  478MOL0     C63018   8.063   6.409   1.260  0.2398 -0.2042  0.7350
  478MOL0     C63019   8.047   6.469   1.130  0.1226 -0.5100 -0.3757
  478MOL0     C63020   8.148   6.521   1.055  0.5107  0.0158 -0.6057
  478MOL0     C63021   8.282   6.519   1.109 -0.6101  0.2140  0.3902
  478MOL0     O63022   8.389   6.572   1.031  0.6668  1.1395 -0.4555
  478MOL0     C63023   8.517   6.570   1.100  0.1301  0.3303  0.0553
  478MOL0     C63024   8.612   6.654   1.024 -0.5517  1.4510  0.2075
  478MOL0     C63025   8.648   6.593   0.882 -0.1475 -0.3649  0.1039
  478MOL0     C63026   8.714   6.704   0.799 -0.9909 -0.4871 -0.0748
  478MOL0     C63027   8.754   6.647   0.675 -0.2893 -0.1158  0.6303
  478MOL0     C63028   8.792   6.587   0.572  0.4434  0.4171 -0.0818
  478MOL0     C63029   8.297   6.447   1.234  0.6315 -0.2229 -0.3393
  478MOL0     C63030   8.187   6.395   1.309 -1.4551  0.3355 -0.2462
  478MOL0     H63031   7.756   6.392   1.579  0.2748 -3.5720  2.2625
  478MOL0     H63032   7.570   6.245   1.663 -4.2006 -0.2172 -0.6540
  478MOL0     H63033   7.453   6.053   1.674  0.1341 -1.0073  1.1853
  478MOL0     H63034   7.520   5.946   1.552  0.0836  2.0463 -1.6058
  478MOL0     H63035   7.351   5.807   1.615 -2.3123  0.6025  2.5591
  478MOL0     H63036   7.246   5.901   1.516  0.2486 -0.0946  0.1580
  478MOL0     H63037   7.184   6.037   1.740  0.5603  1.3542 -0.2474
  478MOL0     H63038   7.302   5.927   1.817  0.9573 -1.6276 -0.0935
  478MOL0     H63039   7.081   5.796   1.645  0.1852  0.0035  0.0207
  478MOL0     H63040   7.160   5.740   1.791  0.2062  0.2709  2.0338
  478MOL0     H63041   6.973   5.981   1.785  1.8165 -1.0186 -1.9765
  478MOL0     H63042   7.031   5.907   1.930 -3.2527  0.3335  1.0204
  478MOL0     H63043   6.935   5.690   1.865 -0.7322 -0.6362  0.3605
  478MOL0     H63044   6.855   5.764   1.723 -0.5635 -1.1400  0.4389
  478MOL0     H63045   6.821   5.840   2.017 -0.9531 -1.5341 -0.3097
  478MOL0     H63046   6.730   5.918   1.879  0.0782  0.5551 -0.3183
  478MOL0     H63047   6.719   5.635   1.994  1.7322  0.1977 -1.4019
  478MOL0     H63048   6.658   5.657   1.838  1.3085  0.4378 -0.9832
  478MOL0     H63049   6.464   5.834   1.790  2.7767 -1.8080  0.5694
  478MOL0     H63050   6.293   6.061   1.883  0.4320 -0.2384  1.4490
  478MOL0     H63051   6.206   6.025   2.032  1.0387  1.8651  0.5899
  478MOL0     H63052   6.212   5.856   1.782 -0.2621  2.5922 -1.3502
  478MOL0     H63053   6.084   5.979   1.808 -3.2672 -1.7326  0.0653
  478MOL0     H63054   6.047   5.744   1.834 -0.0921  2.3908 -2.1428
  478MOL0     H63055   6.139   5.730   1.987 -0.0740  1.2583  0.8490
  478MOL0     H63056   5.986   5.895   2.086  2.0742  1.4408 -2.0258
  478MOL0     H63057   5.879   5.761   2.025 -0.4843 -0.8483 -0.6695
  478MOL0     H63058   5.780   5.955   2.169 -0.7081 -0.5839  1.4829
  478MOL0     H63059   5.544   5.997   2.214 -0.2458 -1.7990 -0.5797
  478MOL0     H63060   5.097   6.212   1.858  1.7188  0.0705  1.5846
  478MOL0     H63061   4.838   6.243   1.878 -0.7222  0.1496  1.0194
  478MOL0     H63062   4.606   6.187   1.913 -4.3097 -0.6713  0.4282
  478MOL0     H63063   4.660   6.276   2.063 -0.6117  0.6464  0.0168
  478MOL0     H63064   4.462   6.137   2.190 -2.9317 -4.4893 -0.9827
  478MOL0     H63065   4.420   6.088   2.022  2.1659 -2.1828  1.1639
  478MOL0     H63066   4.430   6.351   1.972 -1.6069  0.6655 -1.8143
  478MOL0     H63067   4.386   6.359   2.149 -0.7907 -1.1102  0.5047
  478MOL0     H63068   4.238   6.207   1.936 -2.4215 -0.1976 -0.5183
  478MOL0     H63069   4.191   6.225   2.106 -0.9845 -0.5006 -0.9261
  478MOL0     H63070   4.197   6.451   1.905  2.1707 -2.2145  0.2712
  478MOL0     H63071   4.144   6.459   2.074  2.3456  0.4919  0.1092
  478MOL0     H63072   3.974   6.279   2.026 -0.8399 -1.8285 -1.6203
  478MOL0     H63073   4.010   6.285   1.856 -0.8212 -2.3782  0.0430
  478MOL0     H63074   3.911   6.512   2.048  1.4603 -3.1719  1.2814
  478MOL0     H63075   3.971   6.559   1.898 -2.1469  1.8427  1.2675
  478MOL0     H63076   3.796   6.459   1.784  0.6623  0.8238 -0.7934
  478MOL0     H63077   3.722   6.542   1.910 -0.5284 -0.8837 -0.2781
  478MOL0     H63078   4.844   5.897   2.137  0.3076  0.0843 -1.0145
  478MOL0     H63079   5.080   5.869   2.108 -2.0437 -1.5416 -0.5454
  478MOL0     H63080   5.437   6.026   1.809 -1.0995  2.9372  0.3317
  478MOL0     H63081   5.666   5.988   1.747  0.0346  2.7132 -0.1363
  478MOL0     H63082   7.462   6.163   1.245 -0.4749  1.6449 -1.1769
  478MOL0     H63083   7.651   6.267   1.171 -3.0940 -2.8112 -0.6698
  478MOL0     H63084   7.953   6.479   1.078  0.2598 -1.6846 -0.8824
  478MOL0     H63085   8.137   6.581   0.965  0.1645  0.6198 -0.1610
  478MOL0     H63086   8.564   6.473   1.113 -0.1316 -0.5394 -4.1151
  478MOL0     H63087   8.483   6.620   1.191 -2.5383  0.1995 -0.7872
  478MOL0     H63088   8.560   6.749   1.013  0.6610  2.0220 -0.7390
  478MOL0     H63089   8.706   6.668   1.079  0.8676 -0.1368 -1.6775
  478MOL0     H63090   8.552   6.577   0.832 -0.2024  2.6391 -0.9756
  478MOL0     H63091   8.696   6.495   0.891 -0.3737 -0.5257 -0.3461
  478MOL0     H63092   8.642   6.784   0.780  1.8536  1.9236 -1.7055
  478MOL0     H63093   8.798   6.764   0.836 -0.2520  1.1946 -3.9812
  478MOL0     H63094   8.804   6.538   0.478  0.6325 -0.4351  0.3783
  478MOL0     H63095   8.400   6.427   1.263  1.0063  1.8552 -0.0647
  478MOL0     H63096   8.204   6.352   1.407 -2.4743 -0.0463 -0.2335
  479MOL0     O63097   8.241   8.438   9.449 -0.5997  1.0304 -0.6101
  479MOL0     C63098   8.241   8.344   9.368  0.8912  0.1087 -0.3846
  479MOL0     O63099   8.131   8.283   9.318 -0.2339 -0.9039 -1.0017
  479MOL0     C63100   8.004   8.337   9.363  0.3655 -0.8246 -0.6695
  479MOL0     C63101   7.905   8.357   9.272  0.5050 -0.2524 -0.1175
  479MOL0     C63102   7.788   8.419   9.303 -0.1559  0.2444 -0.8593
  479MOL0     C63103   7.752   8.446   9.441  0.1501 -0.5389  0.2728
  479MOL0     O63104   7.632   8.498   9.451  0.6114  0.3518 -0.0753
  479MOL0     C63105   7.602   8.553   9.585  0.2438 -0.3679  0.2204
  479MOL0     C63106   7.469   8.624   9.566  0.1597 -0.2336  0.5618
  479MOL0     C63107   7.411   8.684   9.697  1.1122 -0.4898 -0.3995
  479MOL0     C63108   7.314   8.588   9.772 -1.1719  0.4031  0.5586
  479MOL0     C63109   7.255   8.673   9.886  0.0650  0.5500  0.3273
  479MOL0     C63110   7.181   8.568   9.972  0.9385  0.1577 -0.2318
  479MOL0     C63111   7.137   8.638  10.100  0.3942 -0.5267 -0.7323
  479MOL0     C63112   7.092   8.555  10.223 -0.3659 -0.4280 -0.4543
  479MOL0     N63113   6.982   8.467  10.191 -0.2321 -0.8626  0.4814
  479MOL0     C63114   6.873   8.521  10.132  1.1759  0.3361  0.3551
  479MOL0     C63115   6.817   8.408  10.076 -0.3109 -0.4227 -0.2059
  479MOL0     C63116   6.713   8.410   9.978 -0.2134  0.1384  0.3746
  479MOL0     C63117   6.572   8.445  10.030 -0.0206 -0.1023  0.4138
  479MOL0     C63118   6.542   8.367  10.151 -0.3127  0.2707 -0.3942
  479MOL0     C63119   6.412   8.403  10.214 -0.0280 -0.1126 -0.7927
  479MOL0     O63120   6.307   8.392  10.119  0.5363  1.2333 -0.1115
  479MOL0     C63121   6.185   8.431  10.167 -0.6066  0.8125  0.0068
  479MOL0     C63122   6.089   8.474  10.070 -0.2405  0.0898 -0.3021
  479MOL0     C63123   5.970   8.534  10.117  0.4447 -0.3286 -0.4379
  479MOL0     C63124   5.940   8.564  10.253 -0.1291 -0.5491  1.0143
  479MOL0     C63125   5.809   8.607  10.294  0.9362  0.5079  0.1899
  479MOL0     O63126   5.699   8.598  10.206  0.3679  0.6248  0.0911
  479MOL0     C63127   5.568   8.603  10.253 -0.0597  0.5211  0.3146
  479MOL0     C63128   5.523   8.523  10.359  0.3503  0.7461  1.2987
  479MOL0     C63129   5.393   8.538  10.402 -0.4628  0.7270  0.2798
  479MOL0     C63130   5.303   8.616  10.327 -0.6465  0.2611  0.1990
  479MOL0     O63131   5.182   8.628  10.382  0.1880 -0.2416 -0.5568
  479MOL0     C63132   5.083   8.674  10.300  0.1699  0.4532 -0.0868
  479MOL0     C63133   4.945   8.609  10.342  0.4083  0.6637  0.0488
  479MOL0     C63134   4.956   8.458  10.311  0.4877  0.6092  0.3763
  479MOL0     C63135   4.823   8.382  10.352  1.0470  0.1229 -0.7839
  479MOL0     C63136   4.839   8.226  10.324  0.7056 -0.9528  0.7622
  479MOL0     C63137   4.717   8.160  10.370  0.4586  0.5476  0.5920
  479MOL0     C63138   4.755   8.020  10.424  0.6536 -0.3393 -0.2767
  479MOL0     C63139   4.627   7.951  10.451 -0.0575 -0.9274  0.0279
  479MOL0    Cl63140   4.678   7.773  10.472  0.1542 -0.0453 -0.0908
  479MOL0     C63141   5.356   8.704  10.228  0.3109 -0.4205 -0.3744
  479MOL0     C63142   5.485   8.684  10.180  0.2063 -0.9163  0.2710
  479MOL0     O63143   5.806   8.659  10.409  0.0879  1.2538  0.1105
  479MOL0     C63144   6.033   8.511  10.341 -0.9878 -0.2588 -1.3413
  479MOL0     C63145   6.153   8.449  10.304 -0.6554 -0.1693  0.5085
  479MOL0     N63146   6.898   8.297  10.105  0.3683 -0.0717 -0.6605
  479MOL0     N63147   6.995   8.333  10.183  0.5476 -0.4131  0.0693
  479MOL0     C63148   7.848   8.418   9.538 -0.5059  0.0186  1.0273
  479MOL0     C63149   7.979   8.373   9.500 -0.6283 -0.5716 -0.5455
  479MOL0     C63150   8.361   8.303   9.311  0.3547  1.0656 -0.0076
  479MOL0     C63151   8.468   8.395   9.302 -0.0223 -0.0101 -0.9645
  479MOL0     C63152   8.589   8.363   9.231 -0.7394 -0.5588 -0.9605
  479MOL0     C63153   8.599   8.244   9.160 -0.0443 -0.7198  0.5661
  479MOL0     O63154   8.709   8.220   9.084  0.1866 -0.8039  0.7519
  479MOL0     C63155   8.688   8.218   8.942  0.5700 -0.1985  0.0623
  479MOL0     C63156   8.801   8.134   8.880  0.6793  0.3195 -0.4854
  479MOL0     C63157   8.944   8.194   8.874 -0.7537 -0.8147 -0.0171
  479MOL0     C63158   9.059   8.106   8.819 -1.1036  0.0098  0.3390
  479MOL0     C63159   9.028   8.023   8.702  0.9161 -0.7637  0.3652
  479MOL0     C63160   9.011   7.953   8.606 -0.1043 -0.6946 -0.3335
  479MOL0     C63161   8.490   8.160   9.161  0.6480  0.2097 -0.4905
  479MOL0     C63162   8.371   8.185   9.228  0.6240 -0.2925 -0.1549
  479MOL0     H63163   7.906   8.324   9.168  0.1935  0.9965 -0.5373
  479MOL0     H63164   7.723   8.427   9.216  0.1282  1.7195 -0.9571
  479MOL0     H63165   7.686   8.620   9.601  0.2686 -0.1404 -0.8002
  479MOL0     H63166   7.587   8.482   9.667 -3.6091 -0.9234 -0.7286
  479MOL0     H63167   7.400   8.557   9.513 -0.7660  0.5696  0.7307
  479MOL0     H63168   7.482   8.708   9.497  0.0715  0.6874  1.6309
  479MOL0     H63169   7.363   8.777   9.668 -1.3238 -1.6561 -0.3183
  479MOL0     H63170   7.493   8.725   9.757  0.9637 -2.5597  1.3320
  479MOL0     H63171   7.238   8.558   9.699  0.9459 -1.8286 -0.8957
  479MOL0     H63172   7.368   8.498   9.800 -0.7632 -0.0931 -1.6329
  479MOL0     H63173   7.189   8.757   9.863 -2.2508 -0.4009  2.9911
  479MOL0     H63174   7.330   8.720   9.949  2.3998 -2.4139  0.0080
  479MOL0     H63175   7.252   8.486   9.985  0.0284 -0.7706 -0.9474
  479MOL0     H63176   7.091   8.527   9.926 -2.0614  1.0083  4.2081
  479MOL0     H63177   7.227   8.684  10.142 -0.7694  1.1665 -0.0167
  479MOL0     H63178   7.058   8.712  10.089  1.3394  1.1900  2.5409
  479MOL0     H63179   7.073   8.627  10.303  1.1901 -1.3537  0.7848
  479MOL0     H63180   7.178   8.495  10.254  0.9557  0.1873 -2.6968
  479MOL0     H63181   6.836   8.621  10.111 -2.8004 -0.8474  0.9604
  479MOL0     H63182   6.716   8.316   9.921  1.1744  1.4585 -1.9096
  479MOL0     H63183   6.729   8.488   9.903 -0.2582  2.1608  2.3879
  479MOL0     H63184   6.505   8.408   9.952 -2.0294 -1.1203  2.5225
  479MOL0     H63185   6.552   8.550  10.054  1.0326 -0.1825  1.8049
  479MOL0     H63186   6.542   8.259  10.134  2.0593  0.4859 -2.2417
  479MOL0     H63187   6.624   8.371  10.223  1.6357 -4.9460 -1.9073
  479MOL0     H63188   6.419   8.503  10.257 -4.0900 -0.2174  0.5272
  479MOL0     H63189   6.395   8.331  10.294  3.3583  1.6121  1.7009
  479MOL0     H63190   6.106   8.476   9.963  0.0088 -0.8384 -0.2906
  479MOL0     H63191   5.907   8.563  10.033  0.9337 -0.0248 -0.7008
  479MOL0     H63192   5.599   8.460  10.404  0.1848 -0.8353 -0.5000
  479MOL0     H63193   5.359   8.480  10.487 -2.9615 -0.2408 -1.2893
  479MOL0     H63194   5.089   8.638  10.197 -1.9608  1.9440 -0.8008
  479MOL0     H63195   5.067   8.782  10.305  2.1026  0.7268  0.9382
  479MOL0     H63196   4.860   8.638  10.280  0.1106  0.1628  0.2203
  479MOL0     H63197   4.926   8.637  10.446 -0.3413 -0.3303  0.2029
  479MOL0     H63198   5.042   8.423  10.368  1.3639  1.6023 -0.2884
  479MOL0     H63199   4.962   8.432  10.205  0.4367  1.1525  0.2357
  479MOL0     H63200   4.792   8.380  10.457 -1.4342 -0.2702 -1.4587
  479MOL0     H63201   4.735   8.415  10.295 -1.6957 -1.2269  2.3130
  479MOL0     H63202   4.928   8.201  10.383  2.0424  4.1745  1.4718
  479MOL0     H63203   4.851   8.201  10.219 -1.6717 -1.2613  0.5072
  479MOL0     H63204   4.638   8.163  10.294  1.2663  2.6209 -0.2478
  479MOL0     H63205   4.679   8.215  10.457  2.1319  3.4341 -0.3461
  479MOL0     H63206   4.814   7.978  10.343 -0.2475  1.9270 -2.2485
  479MOL0     H63207   4.819   8.033  10.512  1.2575 -2.3866 -0.3815
  479MOL0     H63208   4.557   7.964  10.368 -0.5599 -2.8254  0.1135
  479MOL0     H63209   4.575   7.991  10.540  2.1077  0.2988  0.8106
  479MOL0     H63210   5.304   8.791  10.189 -0.8533 -1.7305 -1.8515
  479MOL0     H63211   5.533   8.733  10.096 -0.5960 -1.1588 -0.3395
  479MOL0     H63212   6.017   8.537  10.445 -0.5130  0.9858 -1.5626
  479MOL0     H63213   6.230   8.425  10.377  0.9332 -2.3712 -1.6946
  479MOL0     H63214   7.836   8.435   9.645  1.1318  0.2572  1.1886
  479MOL0     H63215   8.050   8.388   9.580 -1.3701  4.0095 -0.4895
  479MOL0     H63216   8.449   8.493   9.346  1.0637 -0.9156  1.7485
  479MOL0     H63217   8.668   8.437   9.224 -1.5891  0.2793 -2.1330
  479MOL0     H63218   8.688   8.325   8.919  0.8035  0.2421  1.9459
  479MOL0     H63219   8.591   8.173   8.920 -0.2397  1.0103  1.0253
  479MOL0     H63220   8.810   8.035   8.924 -0.1117  0.3511 -0.2390
  479MOL0     H63221   8.779   8.115   8.774  2.8626 -1.5408 -0.6904
  479MOL0     H63222   8.977   8.243   8.966 -3.0373  1.8035 -0.4898
  479MOL0     H63223   8.927   8.277   8.805  1.1351 -0.3589  0.0055
  479MOL0     H63224   9.141   8.168   8.783 -3.4973  2.8979 -0.6082
  479MOL0     H63225   9.105   8.043   8.895 -1.7731  0.0560  0.7975
  479MOL0     H63226   9.014   7.883   8.525 -0.3898  0.9631 -1.8298
  479MOL0     H63227   8.487   8.066   9.107 -0.7801 -0.1797  0.2162
  479MOL0     H63228   8.287   8.118   9.214 -1.6244  2.5592 -1.0011
  480MOL0     O63229  10.233   0.876   3.456  0.5884  0.0191  0.0555
  480MOL0     C63230  10.230   0.981   3.516 -0.3175 -0.3714  0.1575
  480MOL0     O63231  10.118   1.034   3.572  0.2409  0.9831  0.6381
  480MOL0     C63232   9.995   0.979   3.553 -0.0964 -0.4482 -0.2475
  480MOL0     C63233   9.907   1.061   3.490 -0.6002 -0.4397  0.5255
  480MOL0     C63234   9.786   1.022   3.453  0.0707  1.3437  0.7934
  480MOL0     C63235   9.747   0.889   3.455  0.5901  0.2252  0.0693
  480MOL0     O63236   9.630   0.857   3.408  1.0793 -0.1688  0.5351
  480MOL0     C63237   9.518   0.914   3.490 -0.4542  0.2944  0.6698
  480MOL0     C63238   9.502   0.814   3.607  0.2699  0.2432  0.9164
  480MOL0     C63239   9.366   0.836   3.676 -0.3990 -0.7402 -0.3216
  480MOL0     C63240   9.356   0.743   3.802  0.4832 -0.1490 -1.5804
  480MOL0     C63241   9.209   0.741   3.849  0.1898 -0.2518 -0.6663
  480MOL0     C63242   9.178   0.683   3.987  0.6059 -0.4923  0.5157
  480MOL0     C63243   9.024   0.668   4.003  0.1770 -0.2258 -0.2995
  480MOL0     C63244   8.965   0.801   4.065  0.9667  0.7209 -0.6072
  480MOL0     N63245   8.817   0.819   4.065  0.5383  0.0132  0.1525
  480MOL0     C63246   8.718   0.724   4.084 -0.0862  0.3858 -0.4408
  480MOL0     C63247   8.609   0.802   4.123  0.3073 -0.2717 -0.2638
  480MOL0     C63248   8.471   0.753   4.163 -0.6031  0.3694 -0.5628
  480MOL0     C63249   8.361   0.853   4.120 -0.1732 -0.2034  0.9781
  480MOL0     C63250   8.236   0.818   4.188 -0.2098  0.4990  0.1715
  480MOL0     C63251   8.127   0.921   4.172 -0.1069 -0.5159 -0.6331
  480MOL0     O63252   8.006   0.892   4.249  0.2947  0.5162 -0.6384
  480MOL0     C63253   7.895   0.968   4.233  0.3769  0.0466  0.4343
  480MOL0     C63254   7.780   0.915   4.290 -0.1038 -0.0130 -0.1224
  480MOL0     C63255   7.654   0.975   4.283 -0.7410  0.7229 -0.1573
  480MOL0     C63256   7.642   1.096   4.212 -0.6973  0.4969 -0.2055
  480MOL0     C63257   7.518   1.176   4.224 -1.0851 -0.1619 -0.3588
  480MOL0     O63258   7.414   1.120   4.292  0.6166  0.3141 -0.5022
  480MOL0     C63259   7.294   1.192   4.315  0.0715  0.0186  0.1067
  480MOL0     C63260   7.215   1.279   4.232 -0.4561  0.9120  0.2182
  480MOL0     C63261   7.100   1.344   4.290  0.1585  0.5139 -0.8385
  480MOL0     C63262   7.075   1.330   4.427  0.6386 -0.4495  0.0989
  480MOL0     O63263   6.974   1.404   4.479  0.5449 -0.3168 -0.5840
  480MOL0     C63264   6.897   1.363   4.592  0.5661  0.3380 -0.2513
  480MOL0     C63265   6.755   1.418   4.577 -0.4360  0.4358  0.5766
  480MOL0     C63266   6.668   1.349   4.475  0.0738 -0.4541 -1.4401
  480MOL0     C63267   6.555   1.434   4.424  0.6889 -0.1474 -1.2267
  480MOL0     C63268   6.498   1.377   4.296  0.7760 -0.6819 -0.0864
  480MOL0     C63269   6.371   1.457   4.252 -0.0739 -0.6882 -0.0392
  480MOL0     C63270   6.320   1.409   4.120  0.3880 -0.2397 -0.0327
  480MOL0     C63271   6.198   1.485   4.065 -0.3060 -0.0903  0.2870
  480MOL0    Cl63272   6.156   1.403   3.909 -0.1742  0.0227 -0.5348
  480MOL0     C63273   7.150   1.248   4.510 -0.3491  0.5208  1.1820
  480MOL0     C63274   7.252   1.173   4.450 -0.1723  0.5013 -0.7755
  480MOL0     O63275   7.519   1.289   4.176  0.3781 -0.4288 -0.0678
  480MOL0     C63276   7.760   1.156   4.152 -0.3621 -0.0657 -0.5723
  480MOL0     C63277   7.892   1.094   4.160 -0.4928 -0.2260 -0.2152
  480MOL0     N63278   8.646   0.935   4.106 -0.9671  0.1610  0.5606
  480MOL0     N63279   8.767   0.945   4.072  0.6810  0.4594  0.1320
  480MOL0     C63280   9.841   0.791   3.513  0.8092  0.6148  0.0192
  480MOL0     C63281   9.962   0.835   3.566  0.1318  0.4298 -0.4237
  480MOL0     C63282  10.359   1.045   3.554  0.5162 -0.5840 -0.4814
  480MOL0     C63283  10.485   0.996   3.518 -0.3718  0.3014  0.5172
  480MOL0     C63284  10.605   1.046   3.576  0.3188  1.2715  0.2599
  480MOL0     C63285  10.600   1.156   3.663 -0.9225  0.3510 -0.0540
  480MOL0     O63286  10.702   1.219   3.731  0.0350  0.1912 -0.0846
  480MOL0     C63287  10.823   1.147   3.729 -0.2188  0.5562 -0.2262
  480MOL0     C63288  10.928   1.223   3.794 -0.6581 -0.1139 -0.5546
  480MOL0     C63289  11.053   1.145   3.813 -0.3066  0.2514 -0.3695
  480MOL0     C63290  11.161   1.228   3.882  0.1270  0.7145  0.1039
  480MOL0     C63291  11.300   1.174   3.850  0.2971 -0.3465 -0.0744
  480MOL0     C63292  11.414   1.141   3.826 -0.9469  0.2254 -0.4410
  480MOL0     C63293  10.473   1.218   3.690 -0.6945 -0.1714 -0.4621
  480MOL0     C63294  10.355   1.170   3.630 -0.2859 -0.5689 -0.6282
  480MOL0     H63295   9.941   1.164   3.485  0.7065 -0.7212  2.5374
  480MOL0     H63296   9.714   1.097   3.422 -5.6476 -2.2888  3.7101
  480MOL0     H63297   9.428   0.913   3.428 -1.8308 -1.5834  2.5365
  480MOL0     H63298   9.533   1.015   3.528 -3.4033  0.0580  2.7228
  480MOL0     H63299   9.579   0.824   3.684  2.2637 -2.0221 -0.6452
  480MOL0     H63300   9.510   0.713   3.567  1.2550  0.7718 -0.3240
  480MOL0     H63301   9.282   0.823   3.608 -1.0597 -0.5847  0.4512
  480MOL0     H63302   9.365   0.942   3.701  0.4411 -0.8054  0.0102
  480MOL0     H63303   9.386   0.639   3.784 -0.7417 -0.5196 -1.5737
  480MOL0     H63304   9.413   0.779   3.887 -1.9447 -0.8000  0.4551
  480MOL0     H63305   9.152   0.686   3.773  0.4832  0.6009 -1.5181
  480MOL0     H63306   9.169   0.843   3.849 -0.2249 -0.4126 -0.7073
  480MOL0     H63307   9.224   0.726   4.077  1.4190 -0.4209  0.0731
  480MOL0     H63308   9.211   0.579   3.988 -1.7461 -1.3155  0.4035
  480MOL0     H63309   8.979   0.659   3.904  0.5142 -1.0240 -0.3910
  480MOL0     H63310   8.994   0.580   4.062  0.5228 -0.2043 -0.0907
  480MOL0     H63311   9.008   0.884   4.008 -0.0719  0.6045 -1.6042
  480MOL0     H63312   9.003   0.798   4.167  2.9744 -1.2125 -1.3259
  480MOL0     H63313   8.717   0.616   4.071 -0.5945  0.3435 -0.0787
  480MOL0     H63314   8.477   0.737   4.272  1.0151 -0.2696 -0.7091
  480MOL0     H63315   8.465   0.654   4.117  1.3928 -1.2101  2.1943
  480MOL0     H63316   8.349   0.843   4.011 -0.5463 -1.1481  1.0922
  480MOL0     H63317   8.388   0.956   4.145  0.1928 -0.0841  0.1264
  480MOL0     H63318   8.215   0.720   4.144 -0.3605  1.5717 -2.3219
  480MOL0     H63319   8.258   0.799   4.293 -2.1840 -1.3630  0.3014
  480MOL0     H63320   8.118   0.929   4.064  0.7382  0.2024 -0.6553
  480MOL0     H63321   8.158   1.021   4.204  0.4191 -1.7464  3.2029
  480MOL0     H63322   7.784   0.824   4.349 -5.9009  1.6962  3.7520
  480MOL0     H63323   7.575   0.928   4.340  1.7757 -2.3751  1.0537
  480MOL0     H63324   7.260   1.293   4.134 -0.7206  0.0991 -0.0233
  480MOL0     H63325   7.043   1.417   4.235  2.9153  3.3674 -0.2221
  480MOL0     H63326   6.948   1.402   4.680 -0.0190  3.2790 -1.0950
  480MOL0     H63327   6.881   1.255   4.603 -0.2781  0.4838 -0.0059
  480MOL0     H63328   6.751   1.526   4.556 -1.2649  0.1077 -1.0737
  480MOL0     H63329   6.698   1.408   4.670 -2.2879 -0.6299 -0.6159
  480MOL0     H63330   6.629   1.255   4.514 -0.6112 -1.7475 -4.9218
  480MOL0     H63331   6.724   1.324   4.384  1.4092 -0.8360 -0.5572
  480MOL0     H63332   6.484   1.423   4.506  3.3399  0.3618  1.3138
  480MOL0     H63333   6.600   1.533   4.409  3.0643 -0.6561  1.4780
  480MOL0     H63334   6.457   1.277   4.314 -1.9181  0.3683  0.0119
  480MOL0     H63335   6.571   1.370   4.214 -1.4738 -1.3959 -2.1632
  480MOL0     H63336   6.392   1.564   4.242  0.6774 -0.7049  1.1220
  480MOL0     H63337   6.302   1.436   4.335 -0.0655  0.5182  0.2912
  480MOL0     H63338   6.407   1.423   4.055  0.2792 -0.2464 -0.1806
  480MOL0     H63339   6.308   1.300   4.124 -0.5579 -0.1778 -0.8227
  480MOL0     H63340   6.219   1.590   4.043  1.1271  0.0228  2.0081
  480MOL0     H63341   6.114   1.471   4.134  1.0737  0.6519  2.1895
  480MOL0     H63342   7.124   1.228   4.613  0.2349 -1.7511  0.9546
  480MOL0     H63343   7.312   1.115   4.519  0.2784  0.5380 -1.1342
  480MOL0     H63344   7.752   1.256   4.111 -0.2830  2.0688  4.0157
  480MOL0     H63345   7.976   1.131   4.103 -0.3931 -1.7076 -1.0700
  480MOL0     H63346   9.803   0.690   3.518 -0.6845  1.1527 -0.0056
  480MOL0     H63347  10.039   0.766   3.601  0.6551  1.1214 -0.1858
  480MOL0     H63348  10.496   0.913   3.449 -4.2273  0.0818 -0.0318
  480MOL0     H63349  10.698   0.997   3.549 -1.0264 -2.0114  1.1562
  480MOL0     H63350  10.865   1.128   3.630  1.2129  0.6275  0.3411
  480MOL0     H63351  10.814   1.050   3.779  1.2638  1.0788  1.1362
  480MOL0     H63352  10.950   1.319   3.747 -2.8821  0.4629 -0.5009
  480MOL0     H63353  10.885   1.240   3.893 -1.7869  2.6884 -1.4298
  480MOL0     H63354  11.096   1.115   3.716 -2.3974 -4.6739 -0.0793
  480MOL0     H63355  11.027   1.051   3.862 -0.0461 -1.2110 -2.8459
  480MOL0     H63356  11.155   1.325   3.832  2.8470 -0.4186 -2.7789
  480MOL0     H63357  11.153   1.234   3.991 -0.9841  1.0930  0.0037
  480MOL0     H63358  11.519   1.128   3.811 -1.0711  0.9104 -2.0454
  480MOL0     H63359  10.475   1.304   3.755  1.1937  0.4572 -1.2864
  480MOL0     H63360  10.259   1.216   3.651 -0.6620  0.1550 -3.5374
  481MOL0     O63361   0.533   5.679   6.694 -0.2194  0.2740  0.3404
  481MOL0     C63362   0.550   5.694   6.817 -0.1700  0.5094  0.0779
  481MOL0     O63363   0.467   5.767   6.894 -0.3058  0.3167 -0.1086
  481MOL0     C63364   0.350   5.826   6.858 -0.2838 -0.0926 -0.6581
  481MOL0     C63365   0.303   5.868   6.734 -0.5259 -0.5530  0.0425
  481MOL0     C63366   0.170   5.918   6.727  0.2143 -0.2666  0.1003
  481MOL0     C63367   0.093   5.943   6.843  0.8125 -0.2296  0.0866
  481MOL0     O63368  -0.031   6.002   6.850  0.1620  0.6732  0.2371
  481MOL0     C63369  -0.105   6.021   6.723 -0.5112  0.7719 -0.6545
  481MOL0     C63370  -0.234   6.086   6.768  0.2180  0.2654  0.2839
  481MOL0     C63371  -0.332   6.102   6.648  0.1058 -0.5906 -0.4309
  481MOL0     C63372  -0.474   6.079   6.699  0.5082 -0.4211  0.0903
  481MOL0     C63373  -0.577   6.107   6.590 -0.4664 -0.0475 -0.2217
  481MOL0     C63374  -0.576   6.239   6.510 -1.0649  0.6799  0.4030
  481MOL0     C63375  -0.657   6.219   6.383  1.5918  0.2287  0.1781
  481MOL0     C63376  -0.801   6.183   6.401 -0.2585 -0.2749 -0.2816
  481MOL0     N63377  -0.880   6.282   6.476 -0.2770  0.1425 -0.0556
  481MOL0     C63378  -0.942   6.397   6.421 -0.1458  0.1047  0.2168
  481MOL0     C63379  -1.022   6.437   6.530 -0.0916  0.9350 -0.8141
  481MOL0     C63380  -1.109   6.551   6.529  0.1475  0.0575  0.1889
  481MOL0     C63381  -1.251   6.508   6.524 -0.3596  0.3523  0.5644
  481MOL0     C63382  -1.331   6.618   6.475  1.6041  0.1611  0.8083
  481MOL0     C63383  -1.483   6.597   6.486 -0.2383 -0.1452  0.0023
  481MOL0     O63384  -1.545   6.724   6.436  0.5737 -0.2155  0.1420
  481MOL0     C63385  -1.678   6.739   6.452 -0.0213 -0.1183  0.5830
  481MOL0     C63386  -1.724   6.871   6.431 -1.0703  1.1412 -0.2129
  481MOL0     C63387  -1.856   6.899   6.444  0.4664 -0.6698 -0.4723
  481MOL0     C63388  -1.949   6.805   6.485 -0.3544  0.1970  0.1791
  481MOL0     C63389  -2.100   6.830   6.508  0.2440  0.5479  0.2337
  481MOL0     O63390  -2.184   6.718   6.535  0.0930 -0.3455 -0.5549
  481MOL0     C63391  -2.309   6.753   6.544 -0.3511 -0.3309  0.2257
  481MOL0     C63392  -2.388   6.777   6.432 -0.0743  1.0753  1.1786
  481MOL0     C63393  -2.516   6.812   6.437  0.0928 -0.2066  0.5174
  481MOL0     C63394  -2.572   6.832   6.561  0.5392 -0.0722  0.0372
  481MOL0     O63395  -2.696   6.876   6.546 -0.0674 -0.2724  0.1371
  481MOL0     C63396  -2.794   6.818   6.629  0.2083 -0.4461 -0.1940
  481MOL0     C63397  -2.913   6.805   6.535  1.4380  0.5243  0.8593
  481MOL0     C63398  -2.991   6.935   6.516 -0.3679 -1.0603  1.0092
  481MOL0     C63399  -3.096   6.922   6.397  0.2140 -0.2146 -0.1183
  481MOL0     C63400  -3.141   7.065   6.343  0.1799 -0.1905  0.0996
  481MOL0     C63401  -3.236   7.133   6.449 -0.0199 -0.3943  0.2939
  481MOL0     C63402  -3.328   7.239   6.381  0.0552 -0.3255 -0.1697
  481MOL0     C63403  -3.462   7.263   6.442  0.2373 -0.0415 -0.9412
  481MOL0    Cl63404  -3.593   7.171   6.371  0.2677 -0.1524  0.1639
  481MOL0     C63405  -2.504   6.806   6.673 -0.6517  0.6380 -0.4532
  481MOL0     C63406  -2.364   6.756   6.671 -0.5432  1.6274  0.1252
  481MOL0     O63407  -2.141   6.947   6.507 -0.3975  0.4424  0.1873
  481MOL0     C63408  -1.900   6.674   6.496  0.0505 -0.3712 -0.3033
  481MOL0     C63409  -1.762   6.640   6.487  0.5449 -0.0833 -0.0554
  481MOL0     N63410  -1.012   6.355   6.641 -0.4757 -0.3223 -0.2218
  481MOL0     N63411  -0.918   6.268   6.610  0.2379  0.3610  0.2408
  481MOL0     C63412   0.146   5.891   6.957 -0.1131 -0.0151 -0.3142
  481MOL0     C63413   0.272   5.843   6.973  0.3290  0.0101 -0.7547
  481MOL0     C63414   0.667   5.644   6.875 -1.0952  0.0062  0.6500
  481MOL0     C63415   0.689   5.652   7.011  0.0100  0.5050 -0.2423
  481MOL0     C63416   0.806   5.598   7.069 -0.3869 -0.5783  0.1231
  481MOL0     C63417   0.892   5.515   6.998 -0.6301 -0.7483 -0.2372
  481MOL0     O63418   1.004   5.466   7.079 -0.0356  0.6465  0.0529
  481MOL0     C63419   1.088   5.371   7.005  0.3144 -1.0216 -0.3335
  481MOL0     C63420   1.184   5.291   7.092  0.1215 -0.0234 -0.6116
  481MOL0     C63421   1.298   5.372   7.138 -1.1885 -0.2437 -0.1379
  481MOL0     C63422   1.419   5.290   7.194  0.0060 -0.2796 -0.1516
  481MOL0     C63423   1.538   5.371   7.196 -0.4940 -1.0787 -1.1649
  481MOL0     C63424   1.636   5.444   7.189 -0.5579 -1.2065 -0.0791
  481MOL0     C63425   0.869   5.499   6.863 -0.1286  0.3597 -0.4470
  481MOL0     C63426   0.758   5.560   6.797 -0.4032  0.2759 -0.3064
  481MOL0     H63427   0.368   5.854   6.649 -1.4322  0.1933 -0.8107
  481MOL0     H63428   0.134   5.933   6.626  2.9468  1.1839 -0.7510
  481MOL0     H63429  -0.127   5.924   6.679 -1.1203  1.3867 -1.7299
  481MOL0     H63430  -0.052   6.076   6.645 -0.0044  0.1489 -0.7457
  481MOL0     H63431  -0.222   6.188   6.806 -3.9639  1.3716 -0.9234
  481MOL0     H63432  -0.273   6.030   6.853  2.3326  0.1055  1.2131
  481MOL0     H63433  -0.311   6.029   6.569  3.0921 -0.3015 -0.0181
  481MOL0     H63434  -0.323   6.203   6.606  0.0125  0.7190  2.4825
  481MOL0     H63435  -0.485   5.973   6.724 -1.2960 -0.6168 -1.2996
  481MOL0     H63436  -0.504   6.145   6.781 -0.4918 -0.8082  0.0452
  481MOL0     H63437  -0.673   6.094   6.641 -0.2179  1.4966  0.7248
  481MOL0     H63438  -0.570   6.030   6.514 -0.0749 -1.3409  1.0695
  481MOL0     H63439  -0.477   6.271   6.475 -0.3370 -2.0724 -0.2452
  481MOL0     H63440  -0.614   6.312   6.582 -0.0889 -2.5645  4.6002
  481MOL0     H63441  -0.655   6.317   6.334 -1.4997  0.6393  0.6813
  481MOL0     H63442  -0.612   6.156   6.305  1.7049  1.0098 -0.4026
  481MOL0     H63443  -0.804   6.088   6.455 -1.5639 -0.4106 -0.5518
  481MOL0     H63444  -0.841   6.176   6.299  3.6203 -2.4901 -1.8669
  481MOL0     H63445  -0.931   6.434   6.319  0.2690 -1.1327 -0.2118
  481MOL0     H63446  -1.081   6.617   6.446  2.3355 -2.2480 -1.0680
  481MOL0     H63447  -1.095   6.594   6.629  1.8818  1.9529 -0.7766
  481MOL0     H63448  -1.301   6.457   6.607 -3.8707 -1.4691 -2.3857
  481MOL0     H63449  -1.265   6.428   6.450 -1.1743  0.2372  0.8319
  481MOL0     H63450  -1.303   6.711   6.525 -0.9639  0.4034  1.9774
  481MOL0     H63451  -1.326   6.630   6.366 -1.5945 -0.4309  0.4927
  481MOL0     H63452  -1.524   6.576   6.585 -1.0713  1.4182  0.0292
  481MOL0     H63453  -1.499   6.511   6.420 -1.3597 -0.1969  0.3129
  481MOL0     H63454  -1.649   6.944   6.402 -0.2148  0.5375  0.4302
  481MOL0     H63455  -1.888   7.001   6.430  0.6858 -0.9259 -3.2596
  481MOL0     H63456  -2.331   6.776   6.339 -0.5565  0.8064  0.8795
  481MOL0     H63457  -2.578   6.835   6.350 -0.6076 -1.7714  0.5675
  481MOL0     H63458  -2.822   6.876   6.718  0.0328 -0.4993 -0.2144
  481MOL0     H63459  -2.754   6.720   6.655  1.3357  0.0024 -0.2011
  481MOL0     H63460  -2.979   6.727   6.572  1.4592  0.1067  0.0267
  481MOL0     H63461  -2.865   6.773   6.442  0.6403  0.3895  0.4882
  481MOL0     H63462  -2.922   7.014   6.485 -0.8098 -0.7658  0.7804
  481MOL0     H63463  -3.042   6.960   6.609  0.0709 -0.8025  1.1863
  481MOL0     H63464  -3.048   6.872   6.312 -0.1697  2.6927 -2.1974
  481MOL0     H63465  -3.177   6.860   6.435  1.6407 -0.2330  3.1499
  481MOL0     H63466  -3.188   7.054   6.245  0.2818  1.0839 -0.1107
  481MOL0     H63467  -3.050   7.121   6.318  1.2069 -2.0405 -0.4721
  481MOL0     H63468  -3.173   7.167   6.531 -1.2819 -1.1746  1.6384
  481MOL0     H63469  -3.300   7.052   6.487 -0.1234 -0.6025 -0.2983
  481MOL0     H63470  -3.270   7.331   6.381  0.0738 -0.3082  1.3441
  481MOL0     H63471  -3.326   7.229   6.272  2.5598 -1.1704 -0.1112
  481MOL0     H63472  -3.488   7.366   6.417  4.0930  1.1387 -0.8134
  481MOL0     H63473  -3.456   7.249   6.551 -1.9545 -0.4488 -0.8328
  481MOL0     H63474  -2.556   6.821   6.767 -2.1129  2.1541 -1.4579
  481MOL0     H63475  -2.307   6.724   6.758 -2.3948  1.1335  1.2035
  481MOL0     H63476  -1.964   6.589   6.516  1.0116 -0.6101  2.0423
  481MOL0     H63477  -1.731   6.537   6.501 -2.4757 -1.1625 -0.5582
  481MOL0     H63478   0.085   5.903   7.047  0.1404  0.5956 -0.2173
  481MOL0     H63479   0.300   5.823   7.076 -1.0166  1.6577 -0.0203
  481MOL0     H63480   0.612   5.699   7.072 -2.6349  0.1035 -3.0092
  481MOL0     H63481   0.828   5.625   7.172  0.1567  4.3697 -1.0408
  481MOL0     H63482   1.149   5.440   6.946 -0.4608  1.0574  1.1773
  481MOL0     H63483   1.027   5.297   6.952 -0.1808 -1.2790  0.5775
  481MOL0     H63484   1.130   5.250   7.177 -1.8411 -1.9561 -2.6545
  481MOL0     H63485   1.221   5.210   7.028  0.9158  0.4159 -0.7346
  481MOL0     H63486   1.262   5.448   7.208 -0.3337 -1.6115  1.8695
  481MOL0     H63487   1.343   5.407   7.044  2.3417 -0.9179  1.1359
  481MOL0     H63488   1.400   5.256   7.296  1.1058  2.8428  1.1903
  481MOL0     H63489   1.443   5.200   7.135 -0.0441 -1.6234  1.7875
  481MOL0     H63490   1.722   5.507   7.200 -0.8322 -1.1762  2.8991
  481MOL0     H63491   0.934   5.434   6.805  3.0476  3.0947 -0.1910
  481MOL0     H63492   0.730   5.536   6.695  0.2191 -0.0516 -0.4065
  482MOL0     O63493   6.387   1.317  10.969 -0.4886  0.3032  0.2320
  482MOL0     C63494   6.400   1.302  10.848 -0.4465 -0.4702 -0.2757
  482MOL0     O63495   6.313   1.333  10.753  0.1159 -0.8533  0.1308
  482MOL0     C63496   6.178   1.355  10.785 -0.1922 -0.2038  0.1435
  482MOL0     C63497   6.104   1.295  10.886  0.1079  0.9039 -0.0212
  482MOL0     C63498   5.968   1.317  10.900  0.2463  1.3184 -0.4088
  482MOL0     C63499   5.899   1.406  10.813 -0.2021  0.6358  0.7488
  482MOL0     O63500   5.775   1.459  10.834  0.5676 -0.2604 -0.1595
  482MOL0     C63501   5.656   1.378  10.862 -0.2346  0.2966  1.0199
  482MOL0     C63502   5.553   1.378  10.749 -0.3724  0.3242  0.7072
  482MOL0     C63503   5.616   1.351  10.614  0.4051 -0.9938 -0.1487
  482MOL0     C63504   5.702   1.223  10.609  0.0661 -0.3241  0.1171
  482MOL0     C63505   5.821   1.237  10.507 -0.2049  0.4829 -0.3158
  482MOL0     C63506   5.900   1.106  10.527  0.1400  0.4559 -0.1056
  482MOL0     C63507   6.021   1.094  10.429 -0.1004  0.4818 -0.7708
  482MOL0     C63508   6.161   1.149  10.479 -0.2749 -0.4590 -1.7780
  482MOL0     N63509   6.279   1.076  10.421  0.5363 -0.6891  0.4444
  482MOL0     C63510   6.299   0.942  10.437 -0.8331  0.0523 -0.6498
  482MOL0     C63511   6.425   0.919  10.394  0.1292 -0.9285 -0.2058
  482MOL0     C63512   6.484   0.775  10.378  0.0552 -0.5329  0.0974
  482MOL0     C63513   6.377   0.658  10.356 -0.2667  0.4112  0.4044
  482MOL0     C63514   6.332   0.639  10.206  0.6125  0.2811  0.4535
  482MOL0     C63515   6.198   0.713  10.177  0.2471  0.1265 -0.4375
  482MOL0     O63516   6.091   0.656  10.255 -0.2052 -0.6280  0.4086
  482MOL0     C63517   5.966   0.708  10.262  0.2886 -0.4720 -0.2476
  482MOL0     C63518   5.865   0.629  10.327 -0.1084  0.0213 -0.1241
  482MOL0     C63519   5.734   0.680  10.344  0.0211  0.2067 -0.0808
  482MOL0     C63520   5.696   0.809  10.302 -0.8099 -0.6099  0.3272
  482MOL0     C63521   5.560   0.848  10.330  0.5404 -0.1183 -0.2641
  482MOL0     O63522   5.552   0.976  10.375 -0.3102 -0.1137 -0.0849
  482MOL0     C63523   5.424   1.029  10.420  0.8348 -0.4954 -0.1480
  482MOL0     C63524   5.328   0.952  10.498  0.4871 -0.5961  0.3890
  482MOL0     C63525   5.217   1.017  10.559 -1.0506  0.4105  0.2711
  482MOL0     C63526   5.194   1.151  10.537 -0.6086  0.0590  1.3846
  482MOL0     O63527   5.102   1.230  10.612 -0.5205 -0.4949  1.2917
  482MOL0     C63528   5.071   1.185  10.747  0.7560 -0.4342 -0.8325
  482MOL0     C63529   5.031   1.289  10.852  0.2015  0.2628  0.1711
  482MOL0     C63530   4.909   1.385  10.831 -0.8225 -0.5077 -0.3461
  482MOL0     C63531   4.771   1.317  10.832 -0.4183 -0.4726 -0.1748
  482MOL0     C63532   4.672   1.390  10.922 -0.3543  0.9334 -1.1746
  482MOL0     C63533   4.543   1.309  10.949  0.0114 -0.6790  0.9652
  482MOL0     C63534   4.431   1.405  10.975  0.3694  0.5286  0.8476
  482MOL0     C63535   4.298   1.332  11.028  0.6028  0.5473 -0.3337
  482MOL0    Cl63536   4.199   1.281  10.885 -0.3869  0.3707 -0.1243
  482MOL0     C63537   5.278   1.226  10.446  1.0751 -0.2849 -0.1760
  482MOL0     C63538   5.381   1.158  10.386  0.5209  0.6540 -0.1992
  482MOL0     O63539   5.466   0.767  10.319 -0.6943 -0.1052 -0.6342
  482MOL0     C63540   5.793   0.892  10.248  0.4259 -0.4912 -0.4852
  482MOL0     C63541   5.925   0.837  10.219 -0.3918  0.4428 -0.2773
  482MOL0     N63542   6.469   1.040  10.342  0.1277 -0.6705 -0.8370
  482MOL0     N63543   6.379   1.137  10.358  0.5169 -0.0249  0.5561
  482MOL0     C63544   5.977   1.471  10.714 -0.0634  0.1441 -0.2187
  482MOL0     C63545   6.112   1.436  10.701 -0.3659 -0.2840  0.7526
  482MOL0     C63546   6.529   1.252  10.793 -0.7241  0.2066  0.6329
  482MOL0     C63547   6.637   1.242  10.885 -0.2906 -0.3123  0.0159
  482MOL0     C63548   6.763   1.206  10.841 -0.0031  0.3432  0.2200
  482MOL0     C63549   6.782   1.167  10.711  0.1826 -0.1076 -0.4880
  482MOL0     O63550   6.902   1.133  10.670  0.6167  0.9447  0.3760
  482MOL0     C63551   6.970   1.015  10.705 -0.2749 -0.2386  0.7789
  482MOL0     C63552   7.125   1.035  10.687 -0.6425  0.3961 -0.9674
  482MOL0     C63553   7.182   1.091  10.815 -0.4642 -0.2768  0.5543
  482MOL0     C63554   7.330   1.081  10.808  0.3103 -0.0597  0.2203
  482MOL0     C63555   7.389   1.221  10.789  0.6798  0.0610  0.6573
  482MOL0     C63556   7.420   1.335  10.762 -1.1712 -0.2233  0.0846
  482MOL0     C63557   6.677   1.162  10.622 -0.9405 -0.4710 -0.6490
  482MOL0     C63558   6.551   1.219  10.654  0.3294  0.4792 -0.8933
  482MOL0     H63559   6.139   1.221  10.957  1.3108  1.8661  0.4234
  482MOL0     H63560   5.911   1.264  10.975  1.1676  2.9718  1.5716
  482MOL0     H63561   5.604   1.419  10.948 -0.7706  1.9770 -0.0505
  482MOL0     H63562   5.692   1.276  10.876 -3.1750 -0.7688  1.4148
  482MOL0     H63563   5.498   1.472  10.742 -1.8662 -0.4837  1.0833
  482MOL0     H63564   5.474   1.304  10.765 -1.1157  1.0360  0.3899
  482MOL0     H63565   5.681   1.432  10.580 -1.0787 -1.0946 -3.6445
  482MOL0     H63566   5.540   1.353  10.535  1.0419 -0.1061 -0.7563
  482MOL0     H63567   5.743   1.193  10.706 -0.0128  3.9393  1.6884
  482MOL0     H63568   5.636   1.144  10.570  0.0039 -0.5091  0.5972
  482MOL0     H63569   5.884   1.325  10.519 -3.2447  2.7823 -0.1809
  482MOL0     H63570   5.778   1.239  10.406  0.4294  1.7311 -0.5780
  482MOL0     H63571   5.837   1.017  10.515  2.3309 -1.5721  2.3937
  482MOL0     H63572   5.938   1.109  10.630  0.6057 -2.0689 -0.1462
  482MOL0     H63573   6.037   0.994  10.388 -0.7720 -0.3520  0.8947
  482MOL0     H63574   5.987   1.150  10.342 -0.4736 -1.1359 -1.7024
  482MOL0     H63575   6.166   1.147  10.588 -2.1281 -3.1545 -1.6375
  482MOL0     H63576   6.161   1.254  10.449  0.5672 -0.7748 -2.9427
  482MOL0     H63577   6.238   0.859  10.471 -1.1139  0.9282  1.1226
  482MOL0     H63578   6.541   0.747  10.467 -1.5660 -4.0521  0.1997
  482MOL0     H63579   6.551   0.779  10.292 -0.9303 -1.5355 -0.7422
  482MOL0     H63580   6.291   0.657  10.425  1.9830  2.1545  3.5223
  482MOL0     H63581   6.446   0.574  10.359 -0.7712 -0.0583 -0.6789
  482MOL0     H63582   6.403   0.681  10.135  0.5446  0.6779  0.6154
  482MOL0     H63583   6.331   0.531  10.189  0.5342  0.1868  1.0311
  482MOL0     H63584   6.176   0.696  10.071  1.0419 -1.4059 -0.3827
  482MOL0     H63585   6.207   0.816  10.210  1.5713 -0.4512  1.1435
  482MOL0     H63586   5.875   0.527  10.363 -3.7956  1.0205  4.8690
  482MOL0     H63587   5.661   0.634  10.410 -1.8600 -0.0175 -2.2096
  482MOL0     H63588   5.345   0.845  10.504  6.3455  0.0282  0.4617
  482MOL0     H63589   5.148   0.960  10.621 -0.5850  0.4832  0.8602
  482MOL0     H63590   5.158   1.128  10.781 -0.7541 -1.0174  2.4391
  482MOL0     H63591   4.988   1.113  10.746 -0.2598  0.4022  3.6822
  482MOL0     H63592   5.122   1.351  10.856 -0.4410  1.5293 -2.6030
  482MOL0     H63593   5.016   1.242  10.949  0.1299 -0.5001 -0.2002
  482MOL0     H63594   4.931   1.434  10.736  1.6515 -0.6158  0.0962
  482MOL0     H63595   4.922   1.462  10.907  2.8082  1.5995 -2.7944
  482MOL0     H63596   4.738   1.312  10.728 -2.9903  0.1468  0.5569
  482MOL0     H63597   4.774   1.215  10.874 -2.7039 -0.5777 -0.1470
  482MOL0     H63598   4.636   1.477  10.866 -1.0749  0.1455 -1.9890
  482MOL0     H63599   4.716   1.411  11.019 -2.2703 -2.4529  0.6248
  482MOL0     H63600   4.566   1.235  11.026  0.5824 -1.6018 -0.0517
  482MOL0     H63601   4.522   1.254  10.857 -0.8143  2.0528 -0.5848
  482MOL0     H63602   4.463   1.478  11.050 -0.3894  2.6207 -0.7582
  482MOL0     H63603   4.424   1.456  10.878  2.5677 -1.3450 -0.4005
  482MOL0     H63604   4.238   1.397  11.092  0.2943 -0.9682  0.9893
  482MOL0     H63605   4.326   1.245  11.090 -2.7037  1.1327  2.2785
  482MOL0     H63606   5.251   1.326  10.415 -0.4604 -0.7482 -0.3936
  482MOL0     H63607   5.439   1.208  10.310  1.3072 -1.7792 -1.2711
  482MOL0     H63608   5.763   0.995  10.230  0.6442  0.2227  2.5865
  482MOL0     H63609   6.000   0.895  10.168 -0.6196  2.3341  1.4368
  482MOL0     H63610   5.933   1.551  10.655 -0.3604  0.4342  0.3908
  482MOL0     H63611   6.163   1.503  10.632  0.2364 -0.7072  0.7797
  482MOL0     H63612   6.610   1.270  10.986  2.1531 -0.1675  0.6733
  482MOL0     H63613   6.847   1.189  10.908 -4.1168 -2.3213  5.4852
  482MOL0     H63614   6.943   0.938  10.632 -0.7148  0.6218  0.0186
  482MOL0     H63615   6.960   0.970  10.804  1.9965  0.4273  1.3700
  482MOL0     H63616   7.171   0.938  10.664  1.7444  0.9248  1.1381
  482MOL0     H63617   7.155   1.103  10.607  0.1468  2.5186  1.0369
  482MOL0     H63618   7.151   1.025  10.897 -0.4656 -1.2797 -0.2403
  482MOL0     H63619   7.140   1.191  10.835 -5.3329 -1.4128 -2.3578
  482MOL0     H63620   7.361   1.032  10.900 -2.5714 -0.0022  1.3179
  482MOL0     H63621   7.372   1.030  10.721  2.0961  0.0362  0.9912
  482MOL0     H63622   7.443   1.437  10.737 -0.6222  0.2666  2.3705
  482MOL0     H63623   6.686   1.121  10.522  1.5295 -1.7427  0.0142
  482MOL0     H63624   6.475   1.234  10.578  0.8203  2.7818 -1.0080
  483MOL0     O63625   1.220   8.773   7.004  0.5547  0.0822  0.7668
  483MOL0     C63626   1.272   8.815   7.103 -0.4550 -0.2417 -0.1388
  483MOL0     O63627   1.217   8.858   7.229 -0.4073  0.5377 -0.3841
  483MOL0     C63628   1.084   8.851   7.253  0.4208 -0.7138 -0.5263
  483MOL0     C63629   1.017   8.734   7.240 -0.4320 -0.3179 -0.4023
  483MOL0     C63630   0.887   8.722   7.296 -0.2784  0.6896  1.0816
  483MOL0     C63631   0.811   8.824   7.338 -0.4499 -0.2275  0.0242
  483MOL0     O63632   0.682   8.820   7.386  0.2945  0.6841  0.7746
  483MOL0     C63633   0.608   8.703   7.398 -0.2952  0.8515 -0.3078
  483MOL0     C63634   0.462   8.724   7.446 -0.3842 -0.2509  0.0215
  483MOL0     C63635   0.439   8.818   7.565  0.0124 -0.5392 -1.0146
  483MOL0     C63636   0.297   8.851   7.577  1.3621 -0.4687  0.8165
  483MOL0     C63637   0.213   8.718   7.604  0.7604 -0.0853 -0.7808
  483MOL0     C63638   0.070   8.759   7.643 -0.9647 -0.1831  0.4669
  483MOL0     C63639  -0.020   8.635   7.660 -0.4251  0.5359  0.8029
  483MOL0     C63640  -0.005   8.576   7.791 -0.7320  0.4006 -0.2510
  483MOL0     N63641  -0.105   8.479   7.813  0.0908  0.3897  0.1599
  483MOL0     C63642  -0.230   8.497   7.852  0.5920 -0.4806 -0.0347
  483MOL0     C63643  -0.282   8.378   7.862  0.4677  0.5346  0.1912
  483MOL0     C63644  -0.428   8.350   7.900  0.1346 -0.4205 -0.0867
  483MOL0     C63645  -0.444   8.323   8.056  0.4482  1.0079  0.8173
  483MOL0     C63646  -0.574   8.245   8.063  0.2798 -0.6853  0.1376
  483MOL0     C63647  -0.607   8.214   8.214  0.0983 -0.5415 -0.5856
  483MOL0     O63648  -0.498   8.149   8.285  0.1248 -0.5035 -0.3179
  483MOL0     C63649  -0.513   8.118   8.420  0.4430  0.5008 -0.4235
  483MOL0     C63650  -0.400   8.054   8.473 -0.6765 -0.3407 -0.1598
  483MOL0     C63651  -0.406   8.029   8.609  0.0630 -0.9457  0.1630
  483MOL0     C63652  -0.514   8.045   8.685 -0.1498 -0.2705  0.1414
  483MOL0     C63653  -0.508   8.005   8.829 -0.1685  0.0119 -1.5391
  483MOL0     O63654  -0.627   7.959   8.886 -0.2955  0.5445 -0.5071
  483MOL0     C63655  -0.636   7.904   9.012  0.3955  0.2096  0.4610
  483MOL0     C63656  -0.759   7.907   9.080 -0.4410 -0.0873 -0.0825
  483MOL0     C63657  -0.775   7.868   9.211 -0.0043  0.6489  0.1013
  483MOL0     C63658  -0.660   7.816   9.283 -1.1077  0.2779 -0.1745
  483MOL0     O63659  -0.662   7.776   9.418 -0.3762  0.2542  0.3392
  483MOL0     C63660  -0.788   7.768   9.483  0.3784 -0.5114  0.1589
  483MOL0     C63661  -0.779   7.686   9.613 -0.4446 -0.1840 -0.1649
  483MOL0     C63662  -0.918   7.684   9.697 -1.4077 -0.2042 -1.1373
  483MOL0     C63663  -0.895   7.614   9.830  0.0488 -0.7213 -0.6071
  483MOL0     C63664  -1.024   7.587   9.914 -0.9148  0.1932 -0.5624
  483MOL0     C63665  -1.008   7.462  10.008  0.3389  0.8580  0.3045
  483MOL0     C63666  -0.946   7.494  10.144 -0.0651 -0.9367 -0.1603
  483MOL0     C63667  -0.873   7.381  10.207 -0.2210  0.2632 -0.3776
  483MOL0    Cl63668  -0.712   7.316  10.136  0.1601 -0.1180 -0.0410
  483MOL0     C63669  -0.539   7.809   9.215 -1.1487  0.9316 -0.6215
  483MOL0     C63670  -0.526   7.841   9.079  0.0159  0.5258 -0.4347
  483MOL0     O63671  -0.392   8.005   8.879  0.4161  0.2924  0.2715
  483MOL0     C63672  -0.637   8.093   8.627  0.2921 -0.6599 -0.1406
  483MOL0     C63673  -0.637   8.119   8.486 -0.5297 -0.5702 -0.5364
  483MOL0     N63674  -0.188   8.288   7.831  0.4842 -0.6370 -0.8270
  483MOL0     N63675  -0.076   8.354   7.795  0.3792  0.7476 -0.5233
  483MOL0     C63676   0.874   8.951   7.340 -0.0310 -0.1919  0.4522
  483MOL0     C63677   1.004   8.963   7.299  0.5083  0.3408  0.1127
  483MOL0     C63678   1.412   8.852   7.080 -0.4112  0.6881  0.5139
  483MOL0     C63679   1.497   8.782   6.984  1.0871  0.6465  0.0163
  483MOL0     C63680   1.626   8.816   6.966 -1.2442  0.0530  0.0566
  483MOL0     C63681   1.679   8.925   7.029  1.0312  0.5044  0.2040
  483MOL0     O63682   1.803   8.950   6.991 -0.2158 -0.4001 -0.7201
  483MOL0     C63683   1.882   9.012   7.094  0.0951  0.6389  0.2267
  483MOL0     C63684   2.029   9.036   7.044 -0.0492  1.0043  0.4793
  483MOL0     C63685   2.089   9.155   7.116  0.2142 -0.0640  0.5508
  483MOL0     C63686   2.238   9.171   7.062 -1.1730 -0.3990  0.2121
  483MOL0     C63687   2.322   9.052   7.092  1.1459 -0.5833  0.4173
  483MOL0     C63688   2.407   8.972   7.118 -0.6359  0.0663  0.5094
  483MOL0     C63689   1.598   8.995   7.123  1.0887  0.4258  0.0200
  483MOL0     C63690   1.461   8.962   7.152  0.1789  0.2243  0.2622
  483MOL0     H63691   1.067   8.641   7.218  0.2141 -0.5644  1.8932
  483MOL0     H63692   0.839   8.627   7.274 -1.3588  1.4464  0.0962
  483MOL0     H63693   0.651   8.647   7.481 -0.5149 -0.6176 -1.1507
  483MOL0     H63694   0.602   8.645   7.305 -2.1351  1.5596 -0.6647
  483MOL0     H63695   0.411   8.630   7.470 -1.6367  0.2708 -0.4993
  483MOL0     H63696   0.405   8.768   7.364 -3.0020 -3.5256 -0.0982
  483MOL0     H63697   0.484   8.917   7.554  1.5398 -0.7583  2.0435
  483MOL0     H63698   0.483   8.774   7.655 -3.0573 -1.1971  0.2925
  483MOL0     H63699   0.275   8.925   7.654 -0.5153 -1.5762  1.4204
  483MOL0     H63700   0.256   8.898   7.487  1.1177 -2.0838  0.0519
  483MOL0     H63701   0.257   8.668   7.691 -0.8957  0.2391  0.2832
  483MOL0     H63702   0.210   8.647   7.521 -0.3401 -1.4755  0.3781
  483MOL0     H63703   0.029   8.840   7.581  3.1864  1.4233 -0.5263
  483MOL0     H63704   0.076   8.812   7.738  1.0729 -1.4374  1.0952
  483MOL0     H63705  -0.124   8.666   7.649 -0.3665  0.4029 -0.1949
  483MOL0     H63706  -0.001   8.557   7.585  0.4779  0.0106  1.5482
  483MOL0     H63707  -0.014   8.647   7.873 -1.8324 -0.4446  0.4032
  483MOL0     H63708   0.092   8.527   7.795 -1.2249 -0.5801  0.1268
  483MOL0     H63709  -0.291   8.585   7.873  0.2649 -1.0981  1.8131
  483MOL0     H63710  -0.463   8.262   7.847 -0.9272 -0.3673  0.5021
  483MOL0     H63711  -0.492   8.436   7.880 -0.9558 -1.5763 -1.7061
  483MOL0     H63712  -0.448   8.418   8.109  3.6822  0.2960  2.6148
  483MOL0     H63713  -0.361   8.260   8.089  0.5247  0.3704 -0.5242
  483MOL0     H63714  -0.657   8.296   8.014 -3.1028 -4.6223  1.1899
  483MOL0     H63715  -0.565   8.147   8.015  2.0164 -0.7414  0.5044
  483MOL0     H63716  -0.686   8.139   8.222 -0.5433  0.2299  0.6431
  483MOL0     H63717  -0.630   8.308   8.266 -1.9129  0.6836 -3.4023
  483MOL0     H63718  -0.319   8.023   8.408  0.2724  0.8001  0.4497
  483MOL0     H63719  -0.313   7.997   8.655 -0.6059  0.9978  3.1264
  483MOL0     H63720  -0.847   7.949   9.033  0.0002 -0.5670 -1.3813
  483MOL0     H63721  -0.870   7.892   9.259  0.8821 -0.7995  2.7924
  483MOL0     H63722  -0.865   7.715   9.427  0.8331 -2.6639  1.4579
  483MOL0     H63723  -0.813   7.872   9.502 -0.1811 -0.0996 -2.3954
  483MOL0     H63724  -0.695   7.715   9.677 -0.3314  0.0725 -0.4300
  483MOL0     H63725  -0.759   7.585   9.577 -1.9926  0.8050 -4.3372
  483MOL0     H63726  -0.990   7.621   9.643  1.3901 -4.2402 -0.6033
  483MOL0     H63727  -0.954   7.784   9.722  1.4784  0.3910  1.2043
  483MOL0     H63728  -0.840   7.520   9.820  0.8593 -0.3955  0.5966
  483MOL0     H63729  -0.829   7.677   9.891 -1.9793 -0.2824  1.2299
  483MOL0     H63730  -1.110   7.560   9.852  0.3781  0.0117 -2.3438
  483MOL0     H63731  -1.038   7.683   9.966  1.3051  0.9769 -1.2839
  483MOL0     H63732  -0.959   7.381   9.954 -3.1542 -1.2707 -0.0134
  483MOL0     H63733  -1.106   7.416  10.028  1.1222 -0.7811  0.5175
  483MOL0     H63734  -0.877   7.578  10.131 -3.6057  2.2324 -0.2790
  483MOL0     H63735  -1.023   7.528  10.215  1.4879 -0.6835  1.4584
  483MOL0     H63736  -0.946   7.300  10.208 -0.0220 -0.0263 -3.0332
  483MOL0     H63737  -0.847   7.414  10.309  1.3029  0.1308 -0.6928
  483MOL0     H63738  -0.448   7.767   9.256 -0.4234  0.5663 -2.4976
  483MOL0     H63739  -0.421   7.834   9.055  0.5848 -1.2637  2.1282
  483MOL0     H63740  -0.724   8.109   8.690  0.3722  4.4733 -0.9001
  483MOL0     H63741  -0.731   8.155   8.445 -0.3033  2.8575  1.5808
  483MOL0     H63742   0.828   9.047   7.364 -0.1223  0.3000 -1.5099
  483MOL0     H63743   1.046   9.063   7.298 -2.3052  1.5977 -0.2459
  483MOL0     H63744   1.456   8.705   6.919 -1.8026 -1.1007  3.5703
  483MOL0     H63745   1.682   8.761   6.892  2.3013 -0.1867  2.6484
  483MOL0     H63746   1.889   8.960   7.190  1.3201 -1.6143 -0.9988
  483MOL0     H63747   1.845   9.114   7.105  0.4781  0.8911 -0.6931
  483MOL0     H63748   2.090   8.945   7.057  1.2870  1.8572  0.3639
  483MOL0     H63749   2.019   9.046   6.936 -0.8420 -0.1662  0.4269
  483MOL0     H63750   2.086   9.138   7.224 -3.4792 -2.1104  0.2950
  483MOL0     H63751   2.029   9.245   7.104  0.8130  0.3173  0.3854
  483MOL0     H63752   2.236   9.195   6.956 -4.7015  0.0073  0.2777
  483MOL0     H63753   2.272   9.258   7.120 -3.0776  1.7678 -1.7324
  483MOL0     H63754   2.480   8.900   7.150  0.1843  0.8954  0.5642
  483MOL0     H63755   1.640   9.076   7.183  3.3848 -1.4460  1.1019
  483MOL0     H63756   1.397   9.022   7.216 -0.1355 -1.7813  1.9600
  484MOL0     O63757   3.875   4.235   1.811 -0.1371 -0.6366  0.7027
  484MOL0     C63758   3.784   4.224   1.735 -0.3134  0.9409 -0.5523
  484MOL0     O63759   3.790   4.167   1.609 -1.0377 -0.1547 -0.9262
  484MOL0     C63760   3.912   4.102   1.580  0.3875  0.4340 -0.4236
  484MOL0     C63761   4.028   4.162   1.543 -0.1043 -0.1196 -0.7568
  484MOL0     C63762   4.144   4.096   1.520  0.5436  0.2466  0.0741
  484MOL0     C63763   4.151   3.957   1.531 -0.3180 -0.0319 -0.7151
  484MOL0     O63764   4.264   3.876   1.523  0.4414  0.1117 -0.0246
  484MOL0     C63765   4.383   3.949   1.524 -0.3354  0.2044 -0.9938
  484MOL0     C63766   4.493   3.832   1.527  0.7426 -0.1858  0.0451
  484MOL0     C63767   4.508   3.769   1.668  0.4227 -0.7688  0.0559
  484MOL0     C63768   4.631   3.678   1.677  0.1163  0.4163 -0.2461
  484MOL0     C63769   4.633   3.602   1.803 -0.0294  0.3219 -0.0440
  484MOL0     C63770   4.683   3.688   1.921 -0.3763 -0.9581  0.1260
  484MOL0     C63771   4.684   3.614   2.048  0.2629  0.2803 -1.3595
  484MOL0     C63772   4.697   3.719   2.166 -0.8923 -0.0834  0.7142
  484MOL0     N63773   4.569   3.744   2.232  0.3959 -0.5408  0.4599
  484MOL0     C63774   4.500   3.865   2.213 -1.0062 -0.6157  0.0475
  484MOL0     C63775   4.408   3.858   2.306  0.1164 -0.9020 -0.4884
  484MOL0     C63776   4.322   3.983   2.341 -0.5157  0.3158 -0.0570
  484MOL0     C63777   4.181   3.933   2.323  0.9694  0.1274  0.3536
  484MOL0     C63778   4.085   4.047   2.373  0.6846  0.1153 -0.4656
  484MOL0     C63779   3.942   4.010   2.340 -0.1372 -0.0721 -0.2765
  484MOL0     O63780   3.868   4.085   2.435  0.9415  0.5209 -0.0823
  484MOL0     C63781   3.736   4.121   2.429  0.4490 -0.2471 -0.1288
  484MOL0     C63782   3.671   4.170   2.543  0.4313 -0.9668 -1.3549
  484MOL0     C63783   3.531   4.198   2.551 -0.0707 -0.7562  0.6745
  484MOL0     C63784   3.457   4.185   2.433  0.3122  0.2860 -0.3428
  484MOL0     C63785   3.317   4.239   2.434  0.1840  0.1837 -0.3350
  484MOL0     O63786   3.249   4.237   2.316  0.0523  0.2137  0.4781
  484MOL0     C63787   3.118   4.277   2.299 -0.5940  0.0204 -0.3071
  484MOL0     C63788   3.068   4.274   2.163 -0.6445  0.4310 -0.6418
  484MOL0     C63789   2.936   4.302   2.128  0.7005 -0.2884 -0.7296
  484MOL0     C63790   2.841   4.318   2.230 -0.6929 -1.2329  0.1794
  484MOL0     O63791   2.716   4.355   2.198 -0.2175 -0.5466  0.1555
  484MOL0     C63792   2.625   4.428   2.293 -0.3418  0.1507 -0.7711
  484MOL0     C63793   2.478   4.446   2.259 -0.6259 -0.3175  0.6923
  484MOL0     C63794   2.468   4.524   2.121  0.8604  0.1174  0.3769
  484MOL0     C63795   2.463   4.672   2.124  0.1234  1.0121 -0.2330
  484MOL0     C63796   2.410   4.720   1.992  0.6054 -0.4335  0.1119
  484MOL0     C63797   2.394   4.870   1.988  0.9638 -0.6503 -0.9537
  484MOL0     C63798   2.362   4.939   1.856  0.5244 -0.0480  0.5133
  484MOL0     C63799   2.210   4.930   1.827  0.2943  0.1323 -0.2196
  484MOL0    Cl63800   2.166   5.035   1.680  0.1518 -0.1910  0.2560
  484MOL0     C63801   2.890   4.309   2.361 -0.7915  0.5585  1.1144
  484MOL0     C63802   3.022   4.294   2.394  0.3802 -0.1766  0.0375
  484MOL0     O63803   3.275   4.303   2.533  0.0412 -0.2126 -0.1725
  484MOL0     C63804   3.530   4.127   2.317 -0.0085 -0.5181 -0.4168
  484MOL0     C63805   3.664   4.097   2.309 -0.2856  0.1940 -1.6262
  484MOL0     N63806   4.413   3.749   2.382  0.5790 -0.1660 -0.3124
  484MOL0     N63807   4.507   3.680   2.330  0.1943 -0.3546 -0.0155
  484MOL0     C63808   4.031   3.887   1.551  0.4326 -0.7052 -0.1502
  484MOL0     C63809   3.913   3.962   1.577  0.9391  0.3476 -0.0669
  484MOL0     C63810   3.655   4.281   1.786  0.4278 -0.5985 -0.0010
  484MOL0     C63811   3.639   4.301   1.925 -0.1615  0.8531  1.0435
  484MOL0     C63812   3.509   4.341   1.971  0.2395 -0.6814 -0.0477
  484MOL0     C63813   3.408   4.370   1.888  0.7060  1.0270 -0.5721
  484MOL0     O63814   3.283   4.405   1.941 -0.6904  0.0448 -0.9943
  484MOL0     C63815   3.199   4.499   1.859 -0.3701  1.1572  0.3616
  484MOL0     C63816   3.097   4.579   1.942  0.3560 -0.7531 -0.2826
  484MOL0     C63817   2.983   4.646   1.873  0.2802  0.1893  0.6959
  484MOL0     C63818   2.919   4.762   1.964  0.4337  0.4213  1.0636
  484MOL0     C63819   2.805   4.846   1.904 -0.1937 -0.1981 -0.8992
  484MOL0     C63820   2.709   4.906   1.871 -0.0764  0.7144  0.7509
  484MOL0     C63821   3.429   4.360   1.746  0.4666 -0.6695 -0.3740
  484MOL0     C63822   3.551   4.313   1.688  0.7572  0.9680 -0.5963
  484MOL0     H63823   4.032   4.270   1.533  2.5504 -0.1134 -0.1366
  484MOL0     H63824   4.233   4.154   1.498 -0.5142  1.4718 -1.1995
  484MOL0     H63825   4.397   4.002   1.618  2.7735 -2.6137  0.3311
  484MOL0     H63826   4.386   4.004   1.430 -0.2486 -1.3615 -1.9461
  484MOL0     H63827   4.588   3.882   1.506  0.4495 -0.4956 -2.1937
  484MOL0     H63828   4.484   3.764   1.442 -1.7003  1.3225 -0.9937
  484MOL0     H63829   4.420   3.705   1.680 -0.5668  0.0695 -2.2782
  484MOL0     H63830   4.492   3.847   1.743  0.6896 -0.3655 -0.3048
  484MOL0     H63831   4.627   3.607   1.594  3.1836 -1.3840  0.9832
  484MOL0     H63832   4.722   3.737   1.660 -1.3044  2.6709 -0.4739
  484MOL0     H63833   4.681   3.505   1.788  0.6866  0.1020  3.1039
  484MOL0     H63834   4.534   3.576   1.843  0.3513  0.8557  1.2936
  484MOL0     H63835   4.625   3.778   1.945  1.7250  0.4043  0.3736
  484MOL0     H63836   4.782   3.725   1.891 -1.3311  1.9779  0.2516
  484MOL0     H63837   4.593   3.557   2.067 -1.2930  3.6757  3.0078
  484MOL0     H63838   4.770   3.547   2.058 -0.3550 -0.4179 -0.5076
  484MOL0     H63839   4.740   3.810   2.123 -1.6417 -1.2901 -3.0000
  484MOL0     H63840   4.778   3.689   2.234  1.3150  2.2073 -0.7219
  484MOL0     H63841   4.514   3.946   2.143  3.1008 -0.0328  1.2508
  484MOL0     H63842   4.331   4.060   2.264 -0.7062 -0.2305 -0.6352
  484MOL0     H63843   4.353   4.022   2.439  1.1204  0.2101 -0.5111
  484MOL0     H63844   4.152   3.844   2.380 -2.5086  1.2505  0.6145
  484MOL0     H63845   4.155   3.915   2.218  0.9597 -1.0263  0.5388
  484MOL0     H63846   4.093   4.061   2.481  1.7594  0.6404 -0.6007
  484MOL0     H63847   4.104   4.140   2.319  1.7764  0.8273  1.0886
  484MOL0     H63848   3.928   3.903   2.354 -1.9841  0.2196  0.5281
  484MOL0     H63849   3.912   4.039   2.238 -2.5488 -0.5203  0.2396
  484MOL0     H63850   3.730   4.187   2.633  1.2338  2.1695 -2.3446
  484MOL0     H63851   3.487   4.245   2.639  0.9480 -1.6041  1.6628
  484MOL0     H63852   3.141   4.247   2.088  1.5163 -0.4474  1.6420
  484MOL0     H63853   2.895   4.311   2.028 -0.0765  0.4034 -0.3591
  484MOL0     H63854   2.678   4.522   2.310  2.4775 -1.5947  0.6380
  484MOL0     H63855   2.628   4.379   2.391  0.4522  3.3838  0.9441
  484MOL0     H63856   2.414   4.483   2.339 -2.0409 -3.5520  1.2246
  484MOL0     H63857   2.437   4.347   2.234  0.7319 -0.3738 -1.6768
  484MOL0     H63858   2.385   4.487   2.061  0.8402  1.5332 -0.5089
  484MOL0     H63859   2.550   4.485   2.060 -1.5191 -2.3380 -1.4647
  484MOL0     H63860   2.385   4.709   2.192  0.6660 -0.3449  1.1800
  484MOL0     H63861   2.564   4.709   2.141  0.8286  0.1160 -2.2439
  484MOL0     H63862   2.311   4.676   1.981 -0.1601  1.2701 -0.0554
  484MOL0     H63863   2.469   4.676   1.911  1.5172  0.9355 -0.0026
  484MOL0     H63864   2.483   4.923   2.025  0.7643  1.3083 -3.0574
  484MOL0     H63865   2.305   4.879   2.050 -0.0389 -0.9401 -2.3026
  484MOL0     H63866   2.380   5.047   1.867 -0.1707 -0.1252  3.1225
  484MOL0     H63867   2.418   4.890   1.776 -0.3355 -1.6548  0.8533
  484MOL0     H63868   2.154   4.954   1.918 -0.7579  1.4563 -1.1763
  484MOL0     H63869   2.186   4.825   1.806  1.6401 -0.0183 -1.1148
  484MOL0     H63870   2.826   4.323   2.448  0.2501  0.2684  1.9571
  484MOL0     H63871   3.048   4.288   2.499 -2.5440 -1.7720  0.7833
  484MOL0     H63872   3.472   4.109   2.228  0.3725  3.2784 -1.6023
  484MOL0     H63873   3.719   4.052   2.227 -2.0556 -1.6769 -1.8728
  484MOL0     H63874   4.003   3.782   1.551 -1.9365 -0.1522 -0.9227
  484MOL0     H63875   3.823   3.905   1.599 -0.5555  1.3739 -2.8659
  484MOL0     H63876   3.724   4.275   1.988  1.6688  2.5990 -0.5600
  484MOL0     H63877   3.490   4.349   2.077 -1.7630 -3.1115 -0.1532
  484MOL0     H63878   3.141   4.442   1.786 -1.0293  1.4447  0.6613
  484MOL0     H63879   3.260   4.574   1.807  0.0705  1.1873  0.9158
  484MOL0     H63880   3.043   4.502   1.999 -0.1880 -1.2580 -1.4440
  484MOL0     H63881   3.154   4.639   2.013  1.6466 -1.1162 -0.9775
  484MOL0     H63882   2.909   4.570   1.847  0.8503  0.6303 -2.7587
  484MOL0     H63883   3.028   4.687   1.782  3.6924 -1.2549  1.5534
  484MOL0     H63884   2.886   4.706   2.052  0.5554 -0.3633  0.6191
  484MOL0     H63885   2.998   4.828   2.002  1.9959  0.3152 -1.7404
  484MOL0     H63886   2.628   4.962   1.827 -1.1790 -0.4059  1.3024
  484MOL0     H63887   3.348   4.392   1.682  0.9052  0.6976 -0.2669
  484MOL0     H63888   3.574   4.296   1.583  2.5622  2.9611 -0.5882
  485MOL0     O63889   0.251   1.262   0.024 -0.8216  0.3631  0.0272
  485MOL0     C63890   0.307   1.156   0.017 -1.0989 -0.8498 -0.4002
  485MOL0     O63891   0.259   1.042   0.072  0.2403  0.6465 -0.0180
  485MOL0     C63892   0.131   1.025   0.116  0.5260  0.3492  0.4214
  485MOL0     C63893   0.020   1.109   0.094  0.0441 -0.7728  0.0451
  485MOL0     C63894  -0.102   1.073   0.158 -0.9107  0.6981 -1.0015
  485MOL0     C63895  -0.119   0.952   0.230  0.0153 -0.3231  0.6135
  485MOL0     O63896  -0.234   0.917   0.290  0.1330 -0.0431  0.2696
  485MOL0     C63897  -0.357   0.962   0.232  0.1154  0.7179  0.0340
  485MOL0     C63898  -0.471   0.886   0.310  0.2331 -0.0470  0.7134
  485MOL0     C63899  -0.608   0.923   0.247  0.6295 -0.5768 -0.4329
  485MOL0     C63900  -0.703   0.806   0.265  0.3310 -0.0420 -0.4939
  485MOL0     C63901  -0.846   0.836   0.212 -0.5530 -0.5972  0.0532
  485MOL0     C63902  -0.951   0.763   0.309  0.4141  0.4220 -0.1140
  485MOL0     C63903  -1.096   0.770   0.256  1.0079 -0.0572 -0.3474
  485MOL0     C63904  -1.144   0.906   0.200  0.3364 -0.8710  0.3149
  485MOL0     N63905  -1.169   1.013   0.299  0.3156 -0.5743  0.2225
  485MOL0     C63906  -1.212   1.142   0.273  0.8453  0.3815 -0.4041
  485MOL0     C63907  -1.230   1.193   0.393 -0.4696  0.4127  0.4245
  485MOL0     C63908  -1.271   1.328   0.421 -0.3609  0.9680  0.3725
  485MOL0     C63909  -1.425   1.339   0.374  0.6108  1.0433  0.3222
  485MOL0     C63910  -1.527   1.268   0.458  0.0607 -1.1333  0.2028
  485MOL0     C63911  -1.586   1.355   0.578  0.4605 -0.8205 -0.5238
  485MOL0     O63912  -1.663   1.469   0.537  0.1535  1.1029  0.1478
  485MOL0     C63913  -1.765   1.527   0.615  0.2699 -0.0468 -0.6042
  485MOL0     C63914  -1.863   1.602   0.551  0.0547  0.2520  0.9290
  485MOL0     C63915  -1.972   1.658   0.620 -0.1164 -0.3218 -1.1584
  485MOL0     C63916  -1.995   1.638   0.757 -0.4105 -0.2913 -0.9407
  485MOL0     C63917  -2.128   1.676   0.820  1.1376 -0.5667 -0.3233
  485MOL0     O63918  -2.201   1.772   0.764 -0.0737  0.7066  1.0022
  485MOL0     C63919  -2.318   1.838   0.816 -0.4632  0.6004  0.6886
  485MOL0     C63920  -2.354   1.954   0.753 -0.3854  0.3081  0.7469
  485MOL0     C63921  -2.476   2.022   0.784 -0.3530 -0.1357  0.0130
  485MOL0     C63922  -2.556   1.969   0.883  0.5056 -0.0762 -0.0125
  485MOL0     O63923  -2.689   2.018   0.897  0.1890  0.2791  0.0604
  485MOL0     C63924  -2.698   2.160   0.880 -1.2422  1.0174 -0.2848
  485MOL0     C63925  -2.848   2.197   0.902  0.1501 -0.0996 -0.2489
  485MOL0     C63926  -2.924   2.119   1.014 -0.2741  0.5463  0.6400
  485MOL0     C63927  -3.061   2.178   1.016 -0.2494 -0.8041  0.0517
  485MOL0     C63928  -3.152   2.123   1.123  0.0280 -0.2962 -0.5876
  485MOL0     C63929  -3.254   2.230   1.137  0.3301 -1.0968 -0.0931
  485MOL0     C63930  -3.348   2.189   1.245 -1.0855 -0.1420 -0.3779
  485MOL0     C63931  -3.417   2.052   1.236  0.1186  0.0787 -0.2615
  485MOL0    Cl63932  -3.518   2.053   1.097 -0.3340 -0.1723 -0.2220
  485MOL0     C63933  -2.520   1.857   0.945 -0.7981 -0.1060 -0.2951
  485MOL0     C63934  -2.396   1.797   0.924 -0.4649  0.7687 -0.3290
  485MOL0     O63935  -2.168   1.607   0.913  0.4420 -0.0230  0.0552
  485MOL0     C63936  -1.896   1.550   0.825 -0.2056 -0.7190 -0.2385
  485MOL0     C63937  -1.779   1.495   0.754  0.5292  0.0503  0.7831
  485MOL0     N63938  -1.179   1.105   0.487 -0.1489  0.1303  0.7924
  485MOL0     N63939  -1.154   0.990   0.434  0.0857  0.2579 -0.3234
  485MOL0     C63940  -0.008   0.868   0.243 -0.4939 -0.6416  0.4746
  485MOL0     C63941   0.113   0.911   0.188  0.8749 -0.1946 -0.7246
  485MOL0     C63942   0.435   1.145  -0.056  0.1029  0.7469  0.5088
  485MOL0     C63943   0.487   1.263  -0.123 -1.2191 -0.1232  0.9144
  485MOL0     C63944   0.607   1.257  -0.194 -0.0982  0.6346 -0.4314
  485MOL0     C63945   0.685   1.138  -0.197 -0.4626  0.2556  0.1969
  485MOL0     O63946   0.790   1.128  -0.290  0.4820 -0.0551 -0.4912
  485MOL0     C63947   0.809   1.016  -0.372  0.5273  0.1932 -0.7193
  485MOL0     C63948   0.935   0.948  -0.319 -0.4014 -0.0217  0.4894
  485MOL0     C63949   1.071   0.982  -0.387 -0.3587  0.1187  0.4633
  485MOL0     C63950   1.103   1.124  -0.354 -0.3133 -0.1619 -0.5549
  485MOL0     C63951   1.130   1.150  -0.209 -0.0758 -0.6103  1.0530
  485MOL0     C63952   1.172   1.159  -0.101 -1.1100  0.7637 -0.2501
  485MOL0     C63953   0.631   1.026  -0.136 -0.3569  0.4949 -0.2752
  485MOL0     C63954   0.511   1.027  -0.063  0.1676  0.2125  0.8728
  485MOL0     H63955   0.018   1.191   0.024  2.3388 -2.2274 -1.8871
  485MOL0     H63956  -0.181   1.147   0.152 -1.2256  0.4261 -0.3146
  485MOL0     H63957  -0.362   0.947   0.124  3.1544 -0.3067 -0.0537
  485MOL0     H63958  -0.370   1.069   0.251 -2.9968  1.0454 -2.9650
  485MOL0     H63959  -0.467   0.922   0.413 -2.3587 -1.6201  1.4423
  485MOL0     H63960  -0.460   0.779   0.291  0.0362 -0.2830  1.8713
  485MOL0     H63961  -0.600   0.920   0.138  2.4873  1.2776 -0.4207
  485MOL0     H63962  -0.643   1.021   0.280  1.5529  0.8302 -3.2975
  485MOL0     H63963  -0.656   0.723   0.211 -0.1104 -0.7149  0.1244
  485MOL0     H63964  -0.710   0.778   0.371  0.9069  1.4035 -0.0497
  485MOL0     H63965  -0.871   0.802   0.111 -0.9821 -0.1270 -0.0027
  485MOL0     H63966  -0.866   0.943   0.228 -0.2364 -0.6765  1.0334
  485MOL0     H63967  -0.940   0.811   0.406 -0.5768  2.6689 -1.0227
  485MOL0     H63968  -0.922   0.658   0.319  1.6802  0.5200 -2.0852
  485MOL0     H63969  -1.115   0.691   0.184 -0.9759  1.4569 -1.5863
  485MOL0     H63970  -1.172   0.744   0.330  1.9153  0.3069  0.7406
  485MOL0     H63971  -1.238   0.897   0.145  0.0424  3.3871 -0.2253
  485MOL0     H63972  -1.073   0.945   0.126 -1.2760 -0.7115 -1.2090
  485MOL0     H63973  -1.234   1.177   0.173  1.7050  0.7810 -0.4641
  485MOL0     H63974  -1.203   1.399   0.372  1.3663 -1.1094 -0.3836
  485MOL0     H63975  -1.272   1.341   0.530  2.9539  0.8943  0.5008
  485MOL0     H63976  -1.422   1.305   0.270 -0.8957  2.5819 -0.2550
  485MOL0     H63977  -1.453   1.444   0.370  0.9621  1.1158 -0.3786
  485MOL0     H63978  -1.613   1.242   0.396 -0.3565 -0.8882  0.6685
  485MOL0     H63979  -1.499   1.174   0.505 -0.9484 -2.0767 -1.0071
  485MOL0     H63980  -1.503   1.377   0.646  2.2987 -2.1838 -2.2426
  485MOL0     H63981  -1.655   1.286   0.627  1.1374 -1.1403 -0.0070
  485MOL0     H63982  -1.844   1.611   0.444 -2.8968 -1.5547  0.1476
  485MOL0     H63983  -2.037   1.721   0.559  0.9095  1.7226 -0.2551
  485MOL0     H63984  -2.287   2.005   0.685 -1.6051  1.9211  0.6936
  485MOL0     H63985  -2.516   2.106   0.728 -0.7133 -0.5082 -0.2934
  485MOL0     H63986  -2.671   2.196   0.781  0.4229 -1.3758 -0.7870
  485MOL0     H63987  -2.643   2.210   0.960  0.1301 -0.0080 -0.5599
  485MOL0     H63988  -2.901   2.175   0.809 -2.0293  3.7383 -0.0890
  485MOL0     H63989  -2.848   2.305   0.918  2.4727 -0.0981  0.1297
  485MOL0     H63990  -2.871   2.137   1.109  2.6376 -1.9806 -0.3177
  485MOL0     H63991  -2.939   2.012   0.997 -0.1395  0.7715 -1.1112
  485MOL0     H63992  -3.040   2.284   1.032  2.7451 -1.5058  1.5614
  485MOL0     H63993  -3.115   2.170   0.922 -0.9151  3.4789 -0.1252
  485MOL0     H63994  -3.116   2.092   1.221  3.8142 -2.1288 -2.3620
  485MOL0     H63995  -3.194   2.030   1.084 -3.7959  1.3589 -0.8766
  485MOL0     H63996  -3.305   2.265   1.047 -0.1648  2.4754  1.3975
  485MOL0     H63997  -3.204   2.325   1.157  3.3242 -1.9924 -2.5017
  485MOL0     H63998  -3.285   2.188   1.335  2.1447 -0.6280 -2.4836
  485MOL0     H63999  -3.426   2.265   1.256 -0.2050  0.4857  2.2211
  485MOL0     H64000  -3.468   2.029   1.330  1.0686  0.5414  0.3773
  485MOL0     H64001  -3.349   1.966   1.231 -1.0882 -0.8610 -1.3773
  485MOL0     H64002  -2.594   1.823   1.016 -2.1173  0.8298 -1.1667
  485MOL0     H64003  -2.381   1.705   0.980 -1.5855  0.5892 -0.2834
  485MOL0     H64004  -1.913   1.512   0.925  0.9027  0.6260  0.4979
  485MOL0     H64005  -1.708   1.428   0.801 -0.8793 -0.3026  2.5493
  485MOL0     H64006  -0.010   0.776   0.301  1.3169 -0.4982  0.8388
  485MOL0     H64007   0.202   0.857   0.220  1.2881  2.3648  3.1372
  485MOL0     H64008   0.435   1.358  -0.115 -0.0605  0.5373  0.7491
  485MOL0     H64009   0.650   1.334  -0.258 -2.7259  1.4960 -1.3161
  485MOL0     H64010   0.819   1.056  -0.474 -1.1804  3.0765  0.1097
  485MOL0     H64011   0.722   0.950  -0.377 -0.6431  1.3583  1.9452
  485MOL0     H64012   0.932   0.963  -0.211 -1.2782  0.4154  0.4187
  485MOL0     H64013   0.917   0.841  -0.319  3.9174 -0.9206  0.5636
  485MOL0     H64014   1.057   0.970  -0.495 -1.7718 -1.7331  0.8065
  485MOL0     H64015   1.144   0.921  -0.333  0.5512  2.6914  2.3557
  485MOL0     H64016   1.189   1.167  -0.405  1.1562 -1.3890  0.7731
  485MOL0     H64017   1.012   1.183  -0.370 -1.4215 -1.2302  1.3493
  485MOL0     H64018   1.205   1.157   0.001 -1.7918  0.5194 -0.0291
  485MOL0     H64019   0.689   0.935  -0.138  1.0368  1.3393 -0.0590
  485MOL0     H64020   0.469   0.936  -0.022 -1.4938  0.4329 -0.2476
  486MOL0     O64021   0.382   8.977   1.179 -0.1382  0.4643  0.0068
  486MOL0     C64022   0.386   8.898   1.085  0.6417 -0.2988  0.0778
  486MOL0     O64023   0.303   8.795   1.066 -0.3733 -0.1943 -0.2819
  486MOL0     C64024   0.196   8.776   1.142  0.2629  0.5987  0.0537
  486MOL0     C64025   0.158   8.642   1.176 -1.0919 -0.2125 -0.1625
  486MOL0     C64026   0.046   8.619   1.257  0.2430  0.6642  0.4084
  486MOL0     C64027  -0.037   8.723   1.300 -0.1916  0.3776  0.1071
  486MOL0     O64028  -0.156   8.699   1.365  0.4312 -0.0926  0.4312
  486MOL0     C64029  -0.204   8.561   1.357 -1.0235 -0.3829  0.8230
  486MOL0     C64030  -0.343   8.546   1.400  0.8579 -0.3424 -0.5200
  486MOL0     C64031  -0.361   8.598   1.539 -0.2903  0.3423  0.5833
  486MOL0     C64032  -0.504   8.634   1.575  0.2585  0.4819 -1.0172
  486MOL0     C64033  -0.593   8.519   1.586 -0.0053  0.5160  1.2310
  486MOL0     C64034  -0.745   8.557   1.584  0.3714  0.2355 -0.1087
  486MOL0     C64035  -0.835   8.440   1.633  0.8049  0.2376 -0.3738
  486MOL0     C64036  -0.979   8.485   1.608  0.8299  0.8413 -0.7415
  486MOL0     N64037  -1.067   8.411   1.700  0.0255 -0.4198  0.5475
  486MOL0     C64038  -1.204   8.440   1.699  0.0839 -0.6716  0.2029
  486MOL0     C64039  -1.267   8.339   1.750 -0.5615 -1.0734 -0.2656
  486MOL0     C64040  -1.419   8.342   1.785  0.4592  0.5705  0.1176
  486MOL0     C64041  -1.441   8.270   1.918  0.9452 -1.4152 -0.4607
  486MOL0     C64042  -1.585   8.296   1.968 -0.2701  0.3528  0.7729
  486MOL0     C64043  -1.701   8.229   1.888 -1.0897  0.6959 -0.9835
  486MOL0     O64044  -1.821   8.242   1.962 -0.0380 -1.1263  0.5974
  486MOL0     C64045  -1.941   8.195   1.910 -0.8838  0.2147 -0.6165
  486MOL0     C64046  -2.063   8.247   1.960  0.1306  0.5604  0.6827
  486MOL0     C64047  -2.191   8.200   1.915 -0.0445  0.7666  0.5949
  486MOL0     C64048  -2.186   8.109   1.802  0.5576  0.3247  1.0658
  486MOL0     C64049  -2.320   8.064   1.748 -0.3527  0.4555  0.6997
  486MOL0     O64050  -2.424   8.133   1.801  0.0884 -0.0400  0.7437
  486MOL0     C64051  -2.560   8.106   1.778 -0.2216  0.1841  0.3783
  486MOL0     C64052  -2.611   7.979   1.754  0.2289 -0.5189  0.8336
  486MOL0     C64053  -2.735   7.960   1.696  0.2756  0.0933 -0.2540
  486MOL0     C64054  -2.832   8.064   1.691 -0.6139 -0.3002  0.2652
  486MOL0     O64055  -2.969   8.052   1.678  0.0923  0.2076  0.0422
  486MOL0     C64056  -3.019   7.920   1.633  0.2541 -0.9734  0.4596
  486MOL0     C64057  -3.164   7.932   1.596 -0.1528  0.0305 -0.0762
  486MOL0     C64058  -3.253   7.815   1.665 -0.1219 -1.1044 -0.3813
  486MOL0     C64059  -3.387   7.815   1.605  0.5641 -0.2502  0.5353
  486MOL0     C64060  -3.505   7.779   1.695  0.4051 -0.3412  0.9226
  486MOL0     C64061  -3.637   7.798   1.616 -0.4547 -0.6033  0.2594
  486MOL0     C64062  -3.755   7.768   1.700 -1.0981 -1.0289 -0.4268
  486MOL0     C64063  -3.878   7.806   1.627  0.0484 -0.0155 -0.6960
  486MOL0    Cl64064  -3.914   7.698   1.497 -0.0818  0.0477 -0.2916
  486MOL0     C64065  -2.783   8.191   1.736  0.2601 -0.1410  0.4647
  486MOL0     C64066  -2.648   8.214   1.772 -1.1094 -0.5362 -0.6576
  486MOL0     O64067  -2.323   7.984   1.653  1.3651 -1.0669  0.4472
  486MOL0     C64068  -2.070   8.056   1.746 -0.3518  0.7092 -0.7120
  486MOL0     C64069  -1.943   8.098   1.798  0.4188  0.1119 -0.5326
  486MOL0     N64070  -1.168   8.239   1.781  0.5849 -0.5347 -0.1334
  486MOL0     N64071  -1.062   8.286   1.739 -0.9763  0.1569 -0.8681
  486MOL0     C64072  -0.004   8.860   1.264 -1.0640  0.3595 -0.1683
  486MOL0     C64073   0.113   8.878   1.183 -1.6017  0.0244 -0.3143
  486MOL0     C64074   0.510   8.904   0.990 -0.1529  0.1644  0.1792
  486MOL0     C64075   0.544   8.815   0.890  0.1978 -0.2574  0.5201
  486MOL0     C64076   0.662   8.842   0.828 -0.0611 -0.7542  0.0872
  486MOL0     C64077   0.751   8.953   0.850 -0.1784 -0.0262 -0.8166
  486MOL0     O64078   0.864   8.975   0.776  0.4413 -0.5754 -0.1685
  486MOL0     C64079   0.978   8.903   0.821  0.9838 -0.0986  0.0896
  486MOL0     C64080   1.097   8.939   0.743  0.2031 -0.5570  0.0661
  486MOL0     C64081   1.223   8.885   0.806 -1.0243  0.3702 -0.5095
  486MOL0     C64082   1.350   8.939   0.754 -0.5755 -0.3069  0.3189
  486MOL0     C64083   1.381   8.885   0.624  0.4967  0.2150 -0.4442
  486MOL0     C64084   1.401   8.834   0.515  0.3093  0.3428  0.9154
  486MOL0     C64085   0.708   9.039   0.942  0.1698 -0.5192 -0.3504
  486MOL0     C64086   0.604   9.001   1.022  0.4347  0.1918 -0.8565
  486MOL0     H64087   0.221   8.557   1.151 -1.2617 -0.1042 -0.9784
  486MOL0     H64088   0.028   8.515   1.281  2.3131  0.5213  1.6388
  486MOL0     H64089  -0.140   8.501   1.423  1.5724 -0.4961 -1.6005
  486MOL0     H64090  -0.185   8.528   1.255  2.4832 -0.4813  1.3665
  486MOL0     H64091  -0.365   8.439   1.398 -1.3687 -0.0191  1.4131
  486MOL0     H64092  -0.410   8.603   1.336  1.8200  2.0397  0.4719
  486MOL0     H64093  -0.305   8.689   1.562  1.3404 -0.2086 -0.9929
  486MOL0     H64094  -0.331   8.519   1.609  1.9977  0.9672  0.3800
  486MOL0     H64095  -0.505   8.682   1.672 -3.4070  2.5427 -1.9076
  486MOL0     H64096  -0.542   8.708   1.504  2.1486  1.7856 -0.7297
  486MOL0     H64097  -0.580   8.454   1.673  2.8138 -1.4171 -0.4713
  486MOL0     H64098  -0.589   8.461   1.493 -1.2227  3.0614 -0.5382
  486MOL0     H64099  -0.764   8.602   1.487 -0.1601  0.6712  0.1906
  486MOL0     H64100  -0.758   8.640   1.654  0.0537 -0.5093  0.7425
  486MOL0     H64101  -0.819   8.351   1.571  1.1965 -0.0899  0.1823
  486MOL0     H64102  -0.825   8.427   1.741 -1.6410  0.2775 -0.0888
  486MOL0     H64103  -1.014   8.466   1.506 -3.0838  0.7453  0.4431
  486MOL0     H64104  -0.999   8.589   1.635 -4.1270  0.0333 -0.4034
  486MOL0     H64105  -1.256   8.532   1.670 -0.7731 -0.3737  2.4457
  486MOL0     H64106  -1.478   8.291   1.709  1.7968 -0.7453 -0.0935
  486MOL0     H64107  -1.454   8.445   1.795 -1.5841  0.1783 -2.1635
  486MOL0     H64108  -1.378   8.300   2.002  2.9569 -3.4808 -1.1386
  486MOL0     H64109  -1.429   8.162   1.906  1.7091 -1.5558  1.2843
  486MOL0     H64110  -1.584   8.255   2.070 -1.6336 -0.6126  0.4347
  486MOL0     H64111  -1.605   8.403   1.982  1.7760  0.8562  0.1706
  486MOL0     H64112  -1.671   8.124   1.880  4.0676  1.7849  0.3509
  486MOL0     H64113  -1.699   8.266   1.785  0.0605  0.9671 -0.8700
  486MOL0     H64114  -2.046   8.326   2.033  2.0336 -1.2113  2.2508
  486MOL0     H64115  -2.280   8.240   1.962  1.4733  2.5195  2.1432
  486MOL0     H64116  -2.540   7.898   1.765  1.7418  0.5112 -0.8174
  486MOL0     H64117  -2.753   7.854   1.680 -0.4508 -0.2843  2.5024
  486MOL0     H64118  -3.011   7.838   1.705  1.0421  0.3516  1.9534
  486MOL0     H64119  -2.963   7.889   1.544 -0.0801  0.0854 -0.1339
  486MOL0     H64120  -3.176   7.932   1.487 -1.4693  0.0527  0.0519
  486MOL0     H64121  -3.203   8.026   1.637 -0.7835 -0.3647  0.2489
  486MOL0     H64122  -3.260   7.831   1.773 -2.9318 -1.6366 -0.4037
  486MOL0     H64123  -3.211   7.716   1.643  2.5928  0.3301 -2.2701
  486MOL0     H64124  -3.413   7.916   1.570 -2.7278 -1.1377  0.0415
  486MOL0     H64125  -3.389   7.745   1.521  1.6988 -0.5460  0.7500
  486MOL0     H64126  -3.498   7.842   1.785  1.7927 -2.0156  2.0460
  486MOL0     H64127  -3.498   7.673   1.721 -0.3350 -0.4301  0.7761
  486MOL0     H64128  -3.626   7.748   1.519 -1.9894 -0.7145  0.1099
  486MOL0     H64129  -3.651   7.900   1.579  1.3438 -0.9232 -1.5130
  486MOL0     H64130  -3.733   7.664   1.726  1.4174 -1.0870 -2.3201
  486MOL0     H64131  -3.744   7.842   1.780 -1.2701 -1.3677 -0.0897
  486MOL0     H64132  -3.882   7.906   1.583 -0.1710  0.2951  0.0224
  486MOL0     H64133  -3.956   7.803   1.704  0.1353 -0.8826 -0.6306
  486MOL0     H64134  -2.849   8.277   1.737 -0.2011 -0.4855  0.1085
  486MOL0     H64135  -2.617   8.311   1.812 -3.0740 -0.2271  0.2202
  486MOL0     H64136  -2.072   7.988   1.661 -1.0503 -0.7829  0.4538
  486MOL0     H64137  -1.848   8.062   1.761  0.5486 -0.4384  0.3131
  486MOL0     H64138  -0.057   8.948   1.299 -2.4031  0.5147 -2.4160
  486MOL0     H64139   0.152   8.977   1.163  0.1790 -0.9019 -1.6842
  486MOL0     H64140   0.488   8.726   0.861 -0.3212 -0.2737  1.5323
  486MOL0     H64141   0.702   8.763   0.765  1.8554  2.3146 -2.9097
  486MOL0     H64142   0.957   8.796   0.814 -3.7464  0.5227  1.6294
  486MOL0     H64143   0.989   8.924   0.928 -1.4876 -1.6960  0.7379
  486MOL0     H64144   1.086   8.898   0.642  4.7452  1.3622 -1.4323
  486MOL0     H64145   1.114   9.046   0.728  3.4337 -1.0455 -0.3137
  486MOL0     H64146   1.220   8.776   0.798 -3.4897  0.1920  1.5115
  486MOL0     H64147   1.218   8.912   0.913  4.4212  3.0852 -0.5691
  486MOL0     H64148   1.350   9.048   0.746 -1.6978 -0.2923  0.2975
  486MOL0     H64149   1.423   8.903   0.827  0.6593 -1.2079 -1.2989
  486MOL0     H64150   1.428   8.781   0.426  0.1746  0.3835  0.8503
  486MOL0     H64151   0.771   9.126   0.958  2.1758 -2.2594  2.1734
  486MOL0     H64152   0.583   9.057   1.112 -1.2219 -2.3138  0.4527
  487MOL0     O64153   6.759   2.390   5.112  0.1462  1.0139  0.0664
  487MOL0     C64154   6.655   2.427   5.049  0.3941 -0.4382  0.8007
  487MOL0     O64155   6.550   2.343   5.028 -0.2597 -0.4786  0.4587
  487MOL0     C64156   6.547   2.212   5.087  0.4992 -0.2736 -0.1265
  487MOL0     C64157   6.535   2.187   5.228  0.1678  0.3286  0.1506
  487MOL0     C64158   6.506   2.059   5.279 -1.2693  0.2069 -0.0561
  487MOL0     C64159   6.507   1.945   5.194  0.0963 -0.1247 -0.7437
  487MOL0     O64160   6.497   1.818   5.242 -0.5305  0.8949  1.3133
  487MOL0     C64161   6.459   1.802   5.380  0.3431  0.5718  0.1748
  487MOL0     C64162   6.309   1.845   5.413 -0.6817 -0.4166 -0.3156
  487MOL0     C64163   6.196   1.779   5.330  0.5446 -0.4971 -0.4104
  487MOL0     C64164   6.072   1.871   5.338 -0.4129  0.6615 -0.6913
  487MOL0     C64165   5.948   1.793   5.317  0.3286  0.3376 -0.5314
  487MOL0     C64166   5.843   1.890   5.261  0.7267 -0.2699 -0.9046
  487MOL0     C64167   5.702   1.832   5.226  0.3259 -0.9462 -0.4158
  487MOL0     C64168   5.651   1.745   5.333 -0.0128  0.4189  0.2855
  487MOL0     N64169   5.518   1.683   5.316  0.3103 -0.2174  0.0688
  487MOL0     C64170   5.422   1.743   5.241 -0.1376  0.3877 -0.6633
  487MOL0     C64171   5.309   1.679   5.289 -0.0052  0.4255  0.8252
  487MOL0     C64172   5.170   1.710   5.253  0.1925  0.5073  0.7398
  487MOL0     C64173   5.127   1.619   5.131 -0.4849 -0.1482  0.2016
  487MOL0     C64174   4.984   1.657   5.098  0.3220  0.2485  0.6930
  487MOL0     C64175   4.914   1.558   5.002  1.0588 -0.1363 -0.3436
  487MOL0     O64176   4.833   1.463   5.071  0.1903 -0.3145  0.2682
  487MOL0     C64177   4.793   1.349   4.996  0.8770 -0.1113 -0.0504
  487MOL0     C64178   4.772   1.224   5.048  0.3829 -0.6111  0.1215
  487MOL0     C64179   4.712   1.122   4.981 -1.1438  0.3750 -1.3864
  487MOL0     C64180   4.662   1.133   4.854 -0.1419 -0.8402  0.1103
  487MOL0     C64181   4.590   1.019   4.785  0.8061 -0.5403 -1.1096
  487MOL0     O64182   4.576   0.901   4.863  0.1551 -0.1670 -0.6049
  487MOL0     C64183   4.545   0.792   4.797 -1.0599 -0.2547  0.4431
  487MOL0     C64184   4.444   0.697   4.841 -0.3253 -0.7958  0.4822
  487MOL0     C64185   4.426   0.574   4.778  0.0008  0.9506 -0.4040
  487MOL0     C64186   4.507   0.532   4.677 -0.4340 -0.1457 -0.8031
  487MOL0     O64187   4.519   0.405   4.612  0.5243  1.6761  0.5536
  487MOL0     C64188   4.423   0.298   4.638  0.2671 -0.3995 -0.4877
  487MOL0     C64189   4.285   0.337   4.564 -0.4450 -0.0040  0.3756
  487MOL0     C64190   4.190   0.226   4.564 -0.7604 -0.4212  0.0051
  487MOL0     C64191   4.101   0.212   4.447  0.6581 -0.3623  0.4992
  487MOL0     C64192   4.014   0.329   4.404  0.5742 -0.0948 -0.5663
  487MOL0     C64193   3.997   0.358   4.255 -0.6496 -0.6950  0.8473
  487MOL0     C64194   3.967   0.231   4.174 -0.7750  0.3223  0.0232
  487MOL0     C64195   3.920   0.275   4.025 -0.4830  0.8243 -0.7573
  487MOL0    Cl64196   4.053   0.355   3.938  0.3553  0.1961 -0.1056
  487MOL0     C64197   4.602   0.627   4.629 -1.1380 -0.3569  0.6871
  487MOL0     C64198   4.622   0.753   4.685 -0.0262 -0.6215  0.1373
  487MOL0     O64199   4.550   1.036   4.672 -0.0913 -0.7547 -0.7086
  487MOL0     C64200   4.677   1.257   4.794 -1.5049 -0.8068 -0.7111
  487MOL0     C64201   4.743   1.360   4.861  0.6562 -0.1153 -1.1197
  487MOL0     N64202   5.347   1.587   5.380  0.1064 -0.1786 -1.0485
  487MOL0     N64203   5.476   1.581   5.399  0.2660 -1.1826  0.9126
  487MOL0     C64204   6.522   1.969   5.059  0.5476  0.4035  0.7748
  487MOL0     C64205   6.536   2.102   5.005 -0.8224 -0.6425 -0.2149
  487MOL0     C64206   6.644   2.572   4.989 -0.0460 -0.0826 -0.0789
  487MOL0     C64207   6.529   2.622   4.929 -0.3521 -0.1955  0.3914
  487MOL0     C64208   6.525   2.751   4.872  0.3878  0.8994  0.4615
  487MOL0     C64209   6.628   2.839   4.881 -0.6436  0.1425  0.0792
  487MOL0     O64210   6.608   2.964   4.857 -0.0975 -0.6411  0.1079
  487MOL0     C64211   6.712   3.022   4.770  0.1286 -0.4420  0.5004
  487MOL0     C64212   6.685   2.994   4.624 -0.0508  0.3732  0.3215
  487MOL0     C64213   6.800   3.004   4.524 -0.8116  0.3070 -0.0305
  487MOL0     C64214   6.758   3.064   4.388  0.0560  0.8101 -0.4538
  487MOL0     C64215   6.734   2.956   4.287  0.7662  0.6801  0.9739
  487MOL0     C64216   6.703   2.858   4.221 -0.7815  0.0476 -0.3559
  487MOL0     C64217   6.745   2.791   4.944 -0.5190 -0.1440 -0.6590
  487MOL0     C64218   6.750   2.660   4.994 -0.9509  0.2806 -0.1154
  487MOL0     H64219   6.537   2.276   5.290  0.4281 -0.0514  0.6889
  487MOL0     H64220   6.500   2.049   5.387  0.5799  1.0023  0.1505
  487MOL0     H64221   6.530   1.852   5.446  0.3440  0.9147 -0.0810
  487MOL0     H64222   6.462   1.695   5.401 -2.5091  0.7584  2.1011
  487MOL0     H64223   6.293   1.953   5.404 -2.0699 -0.6621 -1.0821
  487MOL0     H64224   6.295   1.823   5.519  2.2509 -0.7338  0.0849
  487MOL0     H64225   6.173   1.682   5.374 -1.6456 -0.4006 -1.2013
  487MOL0     H64226   6.210   1.758   5.224 -1.0040  0.3255 -0.8200
  487MOL0     H64227   6.069   1.921   5.435 -0.6011  2.4173 -1.5521
  487MOL0     H64228   6.086   1.956   5.271 -0.9765  2.3553  1.2309
  487MOL0     H64229   5.906   1.761   5.413 -2.8730  1.8700 -1.2655
  487MOL0     H64230   5.958   1.706   5.252 -4.0198  0.7102 -2.0445
  487MOL0     H64231   5.883   1.947   5.177 -3.1158  4.6115  0.1559
  487MOL0     H64232   5.831   1.975   5.329  2.8433 -1.2817  0.8708
  487MOL0     H64233   5.634   1.916   5.210 -0.9454 -1.3244  2.3573
  487MOL0     H64234   5.701   1.771   5.135 -2.1346  0.4424 -1.4092
  487MOL0     H64235   5.642   1.794   5.430  1.3340  0.3111  0.4894
  487MOL0     H64236   5.722   1.664   5.353 -3.0881 -2.6202 -0.1377
  487MOL0     H64237   5.429   1.828   5.174  2.0884  2.6323  2.1022
  487MOL0     H64238   5.163   1.814   5.220  1.0793 -0.3504 -2.5336
  487MOL0     H64239   5.110   1.672   5.336 -1.0136  0.5655 -0.0790
  487MOL0     H64240   5.135   1.513   5.154  0.1484 -0.4885 -1.4895
  487MOL0     H64241   5.200   1.624   5.051  2.0468  1.9815  2.4428
  487MOL0     H64242   4.927   1.664   5.191 -2.6668 -0.9568 -0.8868
  487MOL0     H64243   4.989   1.757   5.052 -0.4409  0.7717  1.7005
  487MOL0     H64244   4.981   1.512   4.929  1.3774  0.0791 -0.1899
  487MOL0     H64245   4.848   1.625   4.946  3.0868  1.1664 -1.3198
  487MOL0     H64246   4.804   1.205   5.150  1.1020  0.7824  0.1821
  487MOL0     H64247   4.709   1.029   5.037  0.9691  2.1977  2.0707
  487MOL0     H64248   4.382   0.727   4.925 -1.1733  0.4782 -0.5719
  487MOL0     H64249   4.339   0.514   4.805 -0.5583  2.2392  0.7358
  487MOL0     H64250   4.409   0.283   4.746 -2.1177  2.1225 -0.3244
  487MOL0     H64251   4.467   0.208   4.594  3.4744  0.5404  0.5504
  487MOL0     H64252   4.307   0.354   4.458  1.1934  1.1225  0.8580
  487MOL0     H64253   4.247   0.432   4.601  1.7613  0.3724  1.8268
  487MOL0     H64254   4.125   0.229   4.652 -0.6235  0.6798  0.0797
  487MOL0     H64255   4.240   0.129   4.571 -0.6135 -0.3677 -0.2829
  487MOL0     H64256   4.162   0.180   4.361 -1.2240 -0.4287 -0.8886
  487MOL0     H64257   4.037   0.127   4.471 -2.1594  1.0851 -1.2300
  487MOL0     H64258   4.051   0.423   4.447 -0.6868  0.8561 -1.4780
  487MOL0     H64259   3.920   0.306   4.455  1.4589  0.6848  1.5218
  487MOL0     H64260   4.087   0.411   4.223 -0.6944 -1.2050 -0.1388
  487MOL0     H64261   3.913   0.429   4.254  1.0214  1.4504 -1.7427
  487MOL0     H64262   4.054   0.164   4.165 -1.9060 -1.3041  0.6418
  487MOL0     H64263   3.890   0.165   4.216  2.2100 -2.8738  1.0020
  487MOL0     H64264   3.838   0.346   4.023 -1.1134  0.1609  0.4128
  487MOL0     H64265   3.897   0.185   3.967  1.3849  0.9390 -1.7816
  487MOL0     H64266   4.675   0.605   4.552 -0.3749 -1.7144  1.7399
  487MOL0     H64267   4.707   0.818   4.663 -0.2651 -0.3859 -0.0995
  487MOL0     H64268   4.643   1.274   4.693  1.2684  0.5313 -1.5108
  487MOL0     H64269   4.743   1.460   4.820  1.5917  0.6843  0.7291
  487MOL0     H64270   6.522   1.882   4.994  2.2515  0.6019  0.4600
  487MOL0     H64271   6.559   2.132   4.903  0.9455  0.3503  0.4258
  487MOL0     H64272   6.437   2.568   4.946 -0.2091  0.3500  3.5427
  487MOL0     H64273   6.428   2.787   4.840 -0.3539 -1.8903 -0.7778
  487MOL0     H64274   6.810   2.980   4.796 -0.1374 -0.5038  1.4287
  487MOL0     H64275   6.713   3.130   4.782  0.6461 -0.5705  1.7296
  487MOL0     H64276   6.652   2.889   4.624  2.4489 -0.5611 -2.4730
  487MOL0     H64277   6.600   3.057   4.596 -0.2995 -0.4981 -0.9861
  487MOL0     H64278   6.836   2.902   4.507 -0.6676 -0.0781  2.3179
  487MOL0     H64279   6.883   3.062   4.566  0.8128  1.3614 -4.1904
  487MOL0     H64280   6.675   3.135   4.394 -1.3893 -0.7895 -0.6534
  487MOL0     H64281   6.842   3.119   4.345 -0.3017  2.0010  0.3248
  487MOL0     H64282   6.671   2.780   4.154  0.1020  0.4340 -1.2710
  487MOL0     H64283   6.823   2.863   4.966 -1.5166  0.5221  0.8863
  487MOL0     H64284   6.832   2.615   5.049 -2.2280 -1.1229  0.7047
  488MOL0     O64285   4.072   4.750   7.210 -0.2128 -0.2141  0.5216
  488MOL0     C64286   4.157   4.761   7.124  0.7453 -0.4611  0.7949
  488MOL0     O64287   4.164   4.860   7.037 -0.0119  0.1122  0.2646
  488MOL0     C64288   4.060   4.953   7.040 -0.2060 -0.0599 -0.3790
  488MOL0     C64289   3.943   4.910   6.989  0.3965  0.8637 -0.2426
  488MOL0     C64290   3.826   4.983   7.014  0.1437  0.1927  0.8669
  488MOL0     C64291   3.828   5.107   7.069  0.2992  0.5529 -0.5701
  488MOL0     O64292   3.706   5.173   7.065 -0.8277 -0.2574 -0.3204
  488MOL0     C64293   3.713   5.305   7.006  0.2505 -0.8717  0.3156
  488MOL0     C64294   3.563   5.353   6.976  1.0578 -0.9450 -0.1216
  488MOL0     C64295   3.576   5.472   6.875  0.2531 -0.0311  0.5454
  488MOL0     C64296   3.436   5.535   6.850  0.0199 -0.3238 -0.2352
  488MOL0     C64297   3.427   5.584   6.702 -0.2645  0.2540 -0.5809
  488MOL0     C64298   3.542   5.687   6.676 -0.4860  0.3214 -1.0323
  488MOL0     C64299   3.529   5.742   6.534  0.3369 -0.4928 -0.3586
  488MOL0     C64300   3.632   5.856   6.516 -1.1571 -1.2459 -0.0867
  488MOL0     N64301   3.581   5.988   6.561 -0.2400 -0.1235 -0.4674
  488MOL0     C64302   3.599   6.033   6.690 -0.0057 -0.2137 -0.6873
  488MOL0     C64303   3.543   6.161   6.691 -0.1173 -0.1416 -0.7225
  488MOL0     C64304   3.528   6.255   6.798 -0.2156  0.3200 -0.8034
  488MOL0     C64305   3.391   6.251   6.861 -0.0127  0.5941 -0.3463
  488MOL0     C64306   3.362   6.114   6.927  1.3848  0.1861 -0.5418
  488MOL0     C64307   3.460   6.068   7.031 -0.2117  0.7160  0.7082
  488MOL0     O64308   3.463   5.922   7.019  0.7357 -0.3053  0.2753
  488MOL0     C64309   3.562   5.845   7.075  0.0200  0.6913 -0.3636
  488MOL0     C64310   3.536   5.720   7.130 -0.3559  0.0742  0.1118
  488MOL0     C64311   3.638   5.634   7.180  0.1315  0.3271  0.5278
  488MOL0     C64312   3.770   5.678   7.187  0.9439 -0.0187  0.1706
  488MOL0     C64313   3.871   5.596   7.252 -0.8339 -0.3824  0.0571
  488MOL0     O64314   3.995   5.641   7.279 -0.5525  0.6950  0.9029
  488MOL0     C64315   4.080   5.549   7.317 -0.0166  0.0524  0.1674
  488MOL0     C64316   4.151   5.464   7.221 -0.8407  0.7616 -0.2476
  488MOL0     C64317   4.242   5.366   7.268  0.5778  0.0988  0.1221
  488MOL0     C64318   4.248   5.342   7.411  0.1045 -0.4143 -0.8126
  488MOL0     O64319   4.336   5.251   7.461  0.5823  0.4583 -0.5158
  488MOL0     C64320   4.367   5.139   7.380  0.8715  0.5098  0.1503
  488MOL0     C64321   4.472   5.063   7.448  0.2140 -0.0204 -0.5032
  488MOL0     C64322   4.488   4.937   7.385 -0.1333  0.5505  0.8037
  488MOL0     C64323   4.603   4.852   7.428 -0.7394  0.0587 -0.5806
  488MOL0     C64324   4.578   4.760   7.551  0.2875  0.7735 -0.2512
  488MOL0     C64325   4.675   4.643   7.568 -0.2509  0.1297 -0.1155
  488MOL0     C64326   4.817   4.699   7.588 -0.0477  0.0039  0.5461
  488MOL0     C64327   4.913   4.604   7.664 -0.4291 -0.3930  0.9519
  488MOL0    Cl64328   4.909   4.461   7.572  0.0992  0.1213 -0.1692
  488MOL0     C64329   4.179   5.427   7.497  0.1449 -0.5906 -0.3529
  488MOL0     C64330   4.103   5.530   7.453  1.0395  0.1694  0.1501
  488MOL0     O64331   3.835   5.483   7.281  0.2776 -0.0316  0.1277
  488MOL0     C64332   3.795   5.803   7.132  0.1055  0.0995 -0.1697
  488MOL0     C64333   3.699   5.881   7.067  0.2205  0.3758 -0.2451
  488MOL0     N64334   3.513   6.197   6.555 -0.0719  0.3326  0.2765
  488MOL0     N64335   3.530   6.088   6.481 -0.2222  0.1267 -0.1442
  488MOL0     C64336   3.947   5.157   7.121 -0.1362 -0.0450 -0.2625
  488MOL0     C64337   4.065   5.077   7.113 -0.1523  0.6148 -0.9797
  488MOL0     C64338   4.268   4.663   7.134 -0.1496 -0.2350 -0.8088
  488MOL0     C64339   4.377   4.676   7.057 -0.1629 -1.0204  0.9906
  488MOL0     C64340   4.485   4.589   7.068 -0.3868  0.8329 -1.1279
  488MOL0     C64341   4.489   4.477   7.156 -0.2098  0.3892  0.1001
  488MOL0     O64342   4.584   4.380   7.154  0.0974  0.7827 -0.6969
  488MOL0     C64343   4.687   4.377   7.062  0.4143  0.6605 -0.3518
  488MOL0     C64344   4.800   4.282   7.098  0.3526 -0.6103  0.5969
  488MOL0     C64345   4.892   4.342   7.206 -0.1440 -0.0332  0.4205
  488MOL0     C64346   4.998   4.244   7.256 -0.6508  0.6315 -0.8857
  488MOL0     C64347   5.073   4.204   7.136  0.1687  0.8330  0.3095
  488MOL0     C64348   5.137   4.166   7.046 -0.8040  0.5468 -0.5548
  488MOL0     C64349   4.376   4.465   7.236  0.0120  0.3599 -0.3775
  488MOL0     C64350   4.273   4.558   7.225 -0.2559  0.2779  0.4092
  488MOL0     H64351   3.934   4.808   6.954  0.7045  0.8344 -0.2432
  488MOL0     H64352   3.732   4.955   6.967  0.5878 -0.4310  0.3383
  488MOL0     H64353   3.781   5.303   6.920 -1.6993  1.2362 -1.4098
  488MOL0     H64354   3.759   5.381   7.069 -0.1039 -0.5391  0.1742
  488MOL0     H64355   3.521   5.389   7.070  2.6427 -0.0226  0.2554
  488MOL0     H64356   3.503   5.265   6.950 -1.6947 -0.2313  3.1002
  488MOL0     H64357   3.629   5.426   6.791  1.1238 -0.4182  1.2924
  488MOL0     H64358   3.639   5.551   6.915 -0.8590  1.0178  0.2784
  488MOL0     H64359   3.362   5.461   6.882 -2.1543  0.9819 -1.9514
  488MOL0     H64360   3.423   5.619   6.919 -0.0730 -0.5180 -0.0158
  488MOL0     H64361   3.325   5.623   6.693  0.1418  1.7058  0.6136
  488MOL0     H64362   3.438   5.500   6.634 -0.6914  0.5468 -1.0140
  488MOL0     H64363   3.638   5.637   6.688 -0.1460  1.6666  5.8136
  488MOL0     H64364   3.538   5.770   6.747  1.0323  3.0038 -3.8572
  488MOL0     H64365   3.550   5.661   6.463  3.6242 -0.1531  0.0548
  488MOL0     H64366   3.428   5.782   6.524  0.0906 -0.9597  0.2169
  488MOL0     H64367   3.667   5.876   6.414  1.9168  0.2998  1.1549
  488MOL0     H64368   3.716   5.818   6.575  1.0385  4.4629  1.1440
  488MOL0     H64369   3.644   5.988   6.778  0.4843  1.5444  0.0121
  488MOL0     H64370   3.542   6.347   6.740 -0.6419  0.0888 -1.2833
  488MOL0     H64371   3.607   6.259   6.873  1.7347  1.3132 -2.7835
  488MOL0     H64372   3.330   6.268   6.771  0.3794 -0.2210 -0.7751
  488MOL0     H64373   3.379   6.329   6.937  2.8954  1.6442 -0.8584
  488MOL0     H64374   3.274   6.132   6.990  1.1670  2.7037 -1.4753
  488MOL0     H64375   3.352   6.028   6.860  1.8085 -2.1354  2.1579
  488MOL0     H64376   3.428   6.097   7.132 -1.2463  0.4000  0.4750
  488MOL0     H64377   3.556   6.114   7.004  0.6042 -0.5869  1.2852
  488MOL0     H64378   3.437   5.676   7.133 -0.5178  0.4930  1.3735
  488MOL0     H64379   3.617   5.534   7.216 -0.6679  0.6360  0.9366
  488MOL0     H64380   4.140   5.473   7.113  0.7662 -2.4341 -0.8036
  488MOL0     H64381   4.295   5.312   7.190 -0.7327  2.4885 -2.6157
  488MOL0     H64382   4.404   5.162   7.279 -1.8802  0.8586 -0.8475
  488MOL0     H64383   4.274   5.082   7.378  0.4607  1.1010  1.4273
  488MOL0     H64384   4.440   5.055   7.552  3.2901 -1.4378  0.4186
  488MOL0     H64385   4.562   5.124   7.453  0.7082 -0.8210  3.3571
  488MOL0     H64386   4.507   4.956   7.279 -0.6051  2.0067  0.9445
  488MOL0     H64387   4.396   4.878   7.394 -0.4630  1.1078  1.1616
  488MOL0     H64388   4.640   4.788   7.348 -1.3281  0.0963 -0.8851
  488MOL0     H64389   4.679   4.920   7.468 -5.7934  4.6940  2.4478
  488MOL0     H64390   4.477   4.718   7.541  1.2477 -2.2738  1.6783
  488MOL0     H64391   4.573   4.814   7.646 -0.7588 -2.7127  1.8612
  488MOL0     H64392   4.674   4.577   7.480  0.3262 -2.7347  1.8726
  488MOL0     H64393   4.642   4.575   7.647  0.5063 -0.6771 -0.4740
  488MOL0     H64394   4.857   4.715   7.487 -1.5299  0.1104 -0.0555
  488MOL0     H64395   4.813   4.792   7.645 -0.5381  0.1773  0.2364
  488MOL0     H64396   4.873   4.577   7.762  0.3611  2.3607  2.1022
  488MOL0     H64397   5.009   4.648   7.691 -1.6644  0.7112  3.9135
  488MOL0     H64398   4.172   5.408   7.604 -2.0891  0.3409 -0.2641
  488MOL0     H64399   4.051   5.605   7.511  0.4890  0.0994 -0.2450
  488MOL0     H64400   3.896   5.843   7.139  0.6327 -0.8897 -1.6900
  488MOL0     H64401   3.738   5.977   7.037 -1.4110  1.2789  0.4034
  488MOL0     H64402   3.937   5.254   7.169  0.9451 -0.3478  0.6102
  488MOL0     H64403   4.161   5.097   7.158  2.4029 -6.7415 -1.7625
  488MOL0     H64404   4.383   4.752   6.979  2.0122 -0.6475  1.4558
  488MOL0     H64405   4.571   4.605   7.003  1.8913 -0.8295  1.2538
  488MOL0     H64406   4.736   4.471   7.037  3.9876 -0.7866  0.5511
  488MOL0     H64407   4.654   4.352   6.961 -1.4354  2.4976 -0.2589
  488MOL0     H64408   4.758   4.192   7.145 -2.2020  0.7877  1.1787
  488MOL0     H64409   4.849   4.250   7.006 -0.7177  0.0304 -0.2081
  488MOL0     H64410   4.833   4.367   7.295 -2.1411 -2.5299 -0.0681
  488MOL0     H64411   4.933   4.435   7.167  0.3278 -0.4917 -0.1967
  488MOL0     H64412   5.050   4.301   7.333 -3.8294  2.7140 -0.0758
  488MOL0     H64413   4.948   4.160   7.304 -2.0704  2.6282  1.3225
  488MOL0     H64414   5.207   4.129   6.973 -2.0468  3.0513 -3.2124
  488MOL0     H64415   4.363   4.380   7.304 -0.6516 -1.2475 -2.4099
  488MOL0     H64416   4.185   4.550   7.289 -1.8046  3.8739 -0.9830
  489MOL0     O64417   6.230   8.917   8.961  0.0274  0.7440  0.6883
  489MOL0     C64418   6.248   8.803   8.922  1.7281 -0.1212  0.6387
  489MOL0     O64419   6.154   8.712   8.901  0.0034 -0.0672 -0.0526
  489MOL0     C64420   6.019   8.720   8.921  1.2848  0.3166  0.6137
  489MOL0     C64421   5.936   8.824   8.896 -0.1264  0.7824  0.5085
  489MOL0     C64422   5.800   8.816   8.921  0.4407  0.2183  0.2239
  489MOL0     C64423   5.738   8.700   8.957 -0.1874  0.0186 -2.0485
  489MOL0     O64424   5.611   8.705   8.993  0.3125  0.0836 -0.0434
  489MOL0     C64425   5.525   8.589   8.993 -0.7491  0.2811 -0.1610
  489MOL0     C64426   5.509   8.546   8.851  0.1713 -0.7717  0.4183
  489MOL0     C64427   5.382   8.450   8.833  0.2529  0.0831  0.7110
  489MOL0     C64428   5.357   8.407   8.687  0.0541 -0.2785  0.1107
  489MOL0     C64429   5.256   8.498   8.623  0.8575  0.6015  0.3461
  489MOL0     C64430   5.217   8.447   8.487 -0.5579 -0.4753 -0.3197
  489MOL0     C64431   5.113   8.535   8.412  0.0522 -0.1349  0.4518
  489MOL0     C64432   4.992   8.572   8.489  0.1651 -0.9469 -0.2283
  489MOL0     N64433   4.880   8.596   8.393  0.4624  0.3549 -0.4787
  489MOL0     C64434   4.817   8.495   8.321 -0.5748 -0.0450 -0.8625
  489MOL0     C64435   4.693   8.539   8.307  0.2971  0.0489 -0.3397
  489MOL0     C64436   4.583   8.476   8.228  0.2756 -0.0117  0.8577
  489MOL0     C64437   4.569   8.326   8.220 -0.2123 -0.8354  0.2656
  489MOL0     C64438   4.425   8.292   8.187 -0.0427 -0.0433 -0.8302
  489MOL0     C64439   4.397   8.144   8.148  0.9587 -0.0924  0.2456
  489MOL0     O64440   4.262   8.136   8.099 -0.2738  0.8223  0.6550
  489MOL0     C64441   4.164   8.104   8.194 -0.1927 -0.2593  0.2026
  489MOL0     C64442   4.186   8.107   8.334  0.9925  0.4053 -0.4597
  489MOL0     C64443   4.081   8.054   8.415 -0.0311 -0.2136  0.9389
  489MOL0     C64444   3.961   8.001   8.369 -0.3121  0.3231 -0.1268
  489MOL0     C64445   3.854   7.962   8.466 -0.4061  0.3200  0.0412
  489MOL0     O64446   3.750   7.895   8.413  0.0482 -0.1018 -0.6162
  489MOL0     C64447   3.689   7.788   8.487  1.3442 -0.6215 -0.0611
  489MOL0     C64448   3.609   7.824   8.597  0.8650  1.1092  0.0910
  489MOL0     C64449   3.534   7.719   8.658  0.6943 -0.4898  0.7165
  489MOL0     C64450   3.537   7.589   8.614  0.0747  1.2553 -0.1620
  489MOL0     O64451   3.471   7.491   8.682 -0.7271  0.1990 -0.1225
  489MOL0     C64452   3.340   7.517   8.722  0.0958  0.2571  1.0790
  489MOL0     C64453   3.268   7.390   8.688 -0.2254 -0.3351 -0.9137
  489MOL0     C64454   3.116   7.404   8.711 -0.6759  0.1035  0.7826
  489MOL0     C64455   3.028   7.298   8.649 -0.8050 -0.3427 -0.0615
  489MOL0     C64456   2.898   7.356   8.612 -0.1344 -0.0050  1.1720
  489MOL0     C64457   2.817   7.391   8.733  0.5751 -0.5373  0.7350
  489MOL0     C64458   2.674   7.440   8.692 -0.1833  0.7644  0.2590
  489MOL0     C64459   2.602   7.522   8.792  0.1186  0.2683  0.8089
  489MOL0    Cl64460   2.434   7.536   8.735  0.0527 -0.2326  0.5990
  489MOL0     C64461   3.611   7.557   8.509 -0.4692 -0.9688 -0.1792
  489MOL0     C64462   3.692   7.648   8.446 -0.4203 -0.8386 -0.8503
  489MOL0     O64463   3.878   7.974   8.587 -0.5399  0.7110  0.3511
  489MOL0     C64464   3.937   8.009   8.232  0.3086  0.8599 -0.4506
  489MOL0     C64465   4.042   8.046   8.146  0.4548 -1.2252 -1.2410
  489MOL0     N64466   4.679   8.655   8.381  0.1985 -0.2098 -0.8134
  489MOL0     N64467   4.796   8.689   8.435  0.5454 -0.0701  0.6538
  489MOL0     C64468   5.811   8.583   8.975 -1.4640 -0.2156 -0.6514
  489MOL0     C64469   5.950   8.600   8.955 -0.9778 -0.0418 -0.0418
  489MOL0     C64470   6.389   8.763   8.898  0.5864  0.6454 -0.1633
  489MOL0     C64471   6.495   8.855   8.900 -0.3590  0.3693 -0.6351
  489MOL0     C64472   6.627   8.812   8.886  0.9572 -0.4395 -0.7940
  489MOL0     C64473   6.665   8.685   8.884  0.2372 -0.0867  0.7543
  489MOL0     O64474   6.790   8.641   8.857 -0.2816  0.4352  0.5616
  489MOL0     C64475   6.817   8.521   8.773  0.2029 -0.5943 -0.5845
  489MOL0     C64476   6.964   8.478   8.782 -0.2072 -0.5584  0.9296
  489MOL0     C64477   7.073   8.591   8.766  0.7139  0.2068  0.6217
  489MOL0     C64478   7.211   8.541   8.782 -1.3985  0.4727 -0.8007
  489MOL0     C64479   7.249   8.440   8.679  0.3663  0.4109  0.6224
  489MOL0     C64480   7.296   8.367   8.592 -0.9068 -0.6534  0.1635
  489MOL0     C64481   6.556   8.589   8.887 -1.0240 -0.4104 -0.7139
  489MOL0     C64482   6.417   8.629   8.901 -0.2871 -0.2462 -0.0789
  489MOL0     H64483   5.970   8.920   8.858  1.5656 -0.1719 -0.5189
  489MOL0     H64484   5.739   8.905   8.909  1.0362  0.7797  1.2287
  489MOL0     H64485   5.421   8.608   9.019 -0.9600 -0.4667 -0.4251
  489MOL0     H64486   5.570   8.520   9.065  1.8225  1.8532 -0.1362
  489MOL0     H64487   5.600   8.494   8.821  1.1478 -0.2362  2.3000
  489MOL0     H64488   5.490   8.630   8.784 -2.0168 -2.1485 -0.8007
  489MOL0     H64489   5.298   8.503   8.878 -0.3934  0.5999 -1.0359
  489MOL0     H64490   5.416   8.360   8.886  1.0525  0.9996  1.8114
  489MOL0     H64491   5.451   8.410   8.632 -0.1984 -2.2339 -0.5196
  489MOL0     H64492   5.317   8.305   8.690  1.7614 -0.9706  0.1464
  489MOL0     H64493   5.293   8.601   8.619 -1.1657  1.3630 -0.4508
  489MOL0     H64494   5.164   8.485   8.681  0.2260 -2.9876 -1.1653
  489MOL0     H64495   5.167   8.353   8.507 -0.1144 -0.9947 -1.5851
  489MOL0     H64496   5.301   8.415   8.424  1.0283 -0.4430  1.6497
  489MOL0     H64497   5.151   8.630   8.374 -0.9775 -0.1917 -0.8041
  489MOL0     H64498   5.079   8.486   8.319  2.5685  1.2834 -1.3297
  489MOL0     H64499   5.009   8.659   8.554  0.7577 -1.3636  0.1786
  489MOL0     H64500   4.956   8.490   8.550 -0.4211 -0.1749  0.4887
  489MOL0     H64501   4.849   8.404   8.271  2.9877  1.8472 -2.4019
  489MOL0     H64502   4.586   8.516   8.126  1.2980  1.1710  1.3340
  489MOL0     H64503   4.493   8.518   8.273  0.7158 -0.3035  2.0345
  489MOL0     H64504   4.606   8.291   8.317 -0.0796 -0.8219  0.2199
  489MOL0     H64505   4.639   8.274   8.153 -0.6202 -2.0203  0.7353
  489MOL0     H64506   4.359   8.310   8.273  0.0274 -1.1892 -0.5122
  489MOL0     H64507   4.401   8.366   8.110  1.9990  2.0953  0.4605
  489MOL0     H64508   4.410   8.071   8.229 -2.7753 -0.5036  0.6685
  489MOL0     H64509   4.461   8.126   8.061  0.2147 -0.1914 -0.2950
  489MOL0     H64510   4.274   8.143   8.386  0.5378 -0.3034  0.8549
  489MOL0     H64511   4.083   8.069   8.523  2.7179  1.3898  0.7398
  489MOL0     H64512   3.598   7.927   8.629  0.5646  0.7158  1.2943
  489MOL0     H64513   3.477   7.750   8.745 -0.8082 -1.8334  0.2563
  489MOL0     H64514   3.300   7.602   8.666  2.4126 -0.9631 -2.8577
  489MOL0     H64515   3.343   7.546   8.828  4.7160  0.7651  1.0333
  489MOL0     H64516   3.300   7.310   8.755 -3.0904 -0.7425  0.1066
  489MOL0     H64517   3.296   7.358   8.587  2.8006  0.1387 -0.3289
  489MOL0     H64518   3.097   7.506   8.676  2.2115  0.4388 -0.0699
  489MOL0     H64519   3.095   7.414   8.818  3.1887  2.1699  1.5176
  489MOL0     H64520   3.085   7.242   8.574  0.6287  0.3227  0.5037
  489MOL0     H64521   2.999   7.213   8.712 -2.2972  0.8600  0.9568
  489MOL0     H64522   2.845   7.276   8.561  2.0998 -0.6987 -0.2124
  489MOL0     H64523   2.913   7.440   8.544  2.4571 -2.1022 -1.0865
  489MOL0     H64524   2.865   7.470   8.792 -0.1260 -0.6519  1.4814
  489MOL0     H64525   2.809   7.306   8.801 -2.2158 -0.7547  0.2557
  489MOL0     H64526   2.663   7.486   8.593 -0.9833 -3.3232 -1.7360
  489MOL0     H64527   2.617   7.347   8.689  1.9889 -0.6135 -1.9936
  489MOL0     H64528   2.647   7.622   8.784  1.7869 -0.5115 -0.2114
  489MOL0     H64529   2.610   7.468   8.887  0.1049 -1.7957 -0.3159
  489MOL0     H64530   3.629   7.454   8.478  0.0791 -0.2730 -2.3758
  489MOL0     H64531   3.754   7.604   8.368 -0.7076 -0.7107 -1.1550
  489MOL0     H64532   3.845   7.967   8.191 -1.4961  0.4114  3.5925
  489MOL0     H64533   4.016   8.054   8.041  2.7376 -0.6889 -1.8100
  489MOL0     H64534   5.770   8.489   9.011  2.5659 -1.6740  0.7247
  489MOL0     H64535   6.020   8.520   8.976  0.6365  1.1135 -0.8213
  489MOL0     H64536   6.465   8.959   8.907 -0.4180  0.4517 -1.9127
  489MOL0     H64537   6.710   8.880   8.869  2.8283 -2.3473  0.1342
  489MOL0     H64538   6.791   8.539   8.668 -1.7699 -3.7678 -0.7672
  489MOL0     H64539   6.757   8.439   8.813  0.3321 -0.2810  0.2750
  489MOL0     H64540   6.975   8.432   8.880 -0.7594  2.3231  2.4408
  489MOL0     H64541   6.976   8.401   8.705 -1.6024  0.0002  0.1179
  489MOL0     H64542   7.046   8.671   8.835 -1.1699  0.4678 -0.3558
  489MOL0     H64543   7.063   8.634   8.666 -1.8008  0.9529  1.1307
  489MOL0     H64544   7.276   8.629   8.776 -2.1580  1.0356 -0.9834
  489MOL0     H64545   7.224   8.495   8.881 -1.2661 -0.4683 -1.2482
  489MOL0     H64546   7.351   8.293   8.537  1.7062  1.1607  0.1517
  489MOL0     H64547   6.560   8.480   8.883  3.5950 -0.4855 -0.0498
  489MOL0     H64548   6.337   8.556   8.889  0.6747 -1.2443 -0.6950
  490MOL0     O64549   7.826   5.774   9.947  0.2468 -0.4563  0.3435
  490MOL0     C64550   7.817   5.652   9.966  0.0916 -0.8170 -0.2803
  490MOL0     O64551   7.713   5.581   9.928  0.1477  1.3789 -0.1308
  490MOL0     C64552   7.605   5.621   9.850 -0.1147 -0.7268 -0.1042
  490MOL0     C64553   7.527   5.523   9.772 -0.0865  0.5821 -0.1090
  490MOL0     C64554   7.414   5.558   9.702 -0.9377  0.0495 -0.2422
  490MOL0     C64555   7.377   5.692   9.700  0.5622 -1.0012  0.2621
  490MOL0     O64556   7.277   5.725   9.614  0.3796 -0.0800  0.7662
  490MOL0     C64557   7.196   5.832   9.670  1.5048  0.3049  0.3724
  490MOL0     C64558   7.050   5.841   9.613  0.7466  0.0628 -0.8135
  490MOL0     C64559   6.938   5.759   9.694 -0.4241  0.8514  0.2750
  490MOL0     C64560   6.796   5.764   9.643 -0.0132  0.0523 -0.2667
  490MOL0     C64561   6.801   5.714   9.503  1.1088  0.5821 -0.1233
  490MOL0     C64562   6.659   5.673   9.459 -0.0210  0.8825  0.0111
  490MOL0     C64563   6.554   5.787   9.465  0.0788 -0.4354 -0.5040
  490MOL0     C64564   6.418   5.731   9.432  0.8278 -1.1472  0.1468
  490MOL0     N64565   6.324   5.844   9.423 -1.2069  0.0859 -0.3764
  490MOL0     C64566   6.309   5.939   9.318  0.7536  0.1209 -0.3719
  490MOL0     C64567   6.232   6.035   9.376  0.4400 -1.1711  0.2398
  490MOL0     C64568   6.170   6.155   9.305  0.2953  0.2103  0.3791
  490MOL0     C64569   6.037   6.108   9.233 -0.8640  0.8256 -0.1317
  490MOL0     C64570   5.965   6.227   9.165  0.2940  0.0497  0.0452
  490MOL0     C64571   5.836   6.206   9.089  0.4768 -0.0327 -0.1019
  490MOL0     O64572   5.751   6.322   9.114  0.7584  0.0332  0.6196
  490MOL0     C64573   5.618   6.311   9.103 -0.3865 -0.2338 -0.0437
  490MOL0     C64574   5.555   6.195   9.047 -1.6285 -0.2839 -0.7743
  490MOL0     C64575   5.420   6.193   9.032  0.6199  0.3093  0.6118
  490MOL0     C64576   5.336   6.299   9.068  0.1375  0.2104  0.2062
  490MOL0     C64577   5.187   6.278   9.045  0.2626  0.2494  0.3718
  490MOL0     O64578   5.146   6.164   8.989 -0.5510 -0.0557  0.3421
  490MOL0     C64579   5.023   6.149   8.942  0.0151  0.3751 -0.1540
  490MOL0     C64580   4.913   6.122   9.025  0.1356  0.0192  0.7291
  490MOL0     C64581   4.789   6.087   8.970  0.0193  0.0831 -0.0268
  490MOL0     C64582   4.765   6.091   8.835 -0.6068 -1.1356 -1.0768
  490MOL0     O64583   4.663   6.043   8.764 -0.2877  0.1702  0.1217
  490MOL0     C64584   4.536   6.027   8.837 -0.4524  0.4261 -0.6331
  490MOL0     C64585   4.434   6.006   8.716 -1.1766 -0.8391  0.0986
  490MOL0     C64586   4.301   5.944   8.763  0.3100  0.1014 -0.2311
  490MOL0     C64587   4.195   5.929   8.653  0.9537 -0.2481 -0.5246
  490MOL0     C64588   4.073   5.840   8.693  0.6625 -0.0266 -0.3249
  490MOL0     C64589   3.982   5.792   8.570 -0.4318 -0.2021  0.0698
  490MOL0     C64590   3.890   5.677   8.600 -0.0646  0.4885 -0.5177
  490MOL0     C64591   3.792   5.701   8.711  1.2914 -0.4336 -0.5717
  490MOL0    Cl64592   3.875   5.667   8.866 -0.3448  0.0454 -0.1816
  490MOL0     C64593   4.877   6.136   8.753 -0.0716  0.1429  0.0334
  490MOL0     C64594   5.002   6.154   8.809 -0.8806 -0.4540 -0.5190
  490MOL0     O64595   5.118   6.366   9.087  0.0290 -0.4994 -0.2329
  490MOL0     C64596   5.393   6.419   9.118 -0.4273 -0.6646  0.1294
  490MOL0     C64597   5.535   6.423   9.126 -0.4019 -0.0785  0.1605
  490MOL0     N64598   6.204   5.997   9.504  0.3033  0.9702 -0.9582
  490MOL0     N64599   6.257   5.885   9.522 -0.5335 -0.6250  0.0459
  490MOL0     C64600   7.451   5.793   9.765 -0.4801 -0.3937 -0.5857
  490MOL0     C64601   7.565   5.757   9.844  0.0747  0.1700  0.3627
  490MOL0     C64602   7.936   5.579  10.017 -0.0847  0.7129  0.2200
  490MOL0     C64603   8.054   5.653  10.061  1.0717  0.2266  0.0613
  490MOL0     C64604   8.171   5.581  10.071 -0.8011 -0.8740 -0.4444
  490MOL0     C64605   8.188   5.447  10.072 -0.1945  0.6975  0.3796
  490MOL0     O64606   8.310   5.390  10.106 -0.2376  0.5268 -0.4918
  490MOL0     C64607   8.320   5.248  10.109  0.5657  0.9185 -0.1149
  490MOL0     C64608   8.464   5.215  10.132  0.3355  0.7587 -0.8971
  490MOL0     C64609   8.510   5.242  10.278  0.4108  0.2783  1.0591
  490MOL0     C64610   8.660   5.241  10.298  0.1452  0.4956 -0.1838
  490MOL0     C64611   8.718   5.119  10.263 -0.2880  0.8010  0.5766
  490MOL0     C64612   8.789   5.025  10.235  0.6623  0.0806  0.4938
  490MOL0     C64613   8.070   5.365  10.051 -0.1639 -0.6660 -0.5991
  490MOL0     C64614   7.957   5.437  10.020  1.8391 -0.0892  0.4491
  490MOL0     H64615   7.559   5.419   9.762  2.6378  0.8956  3.3726
  490MOL0     H64616   7.358   5.492   9.637 -0.8520  1.8213 -2.2367
  490MOL0     H64617   7.240   5.929   9.643 -0.3215  1.8013  2.4497
  490MOL0     H64618   7.198   5.823   9.778  2.2490  1.1967  0.4479
  490MOL0     H64619   7.049   5.808   9.508  0.6844 -0.5260 -0.6299
  490MOL0     H64620   7.030   5.948   9.622 -1.1419 -0.3909  1.2326
  490MOL0     H64621   6.943   5.787   9.799 -2.0757 -2.9840  1.5490
  490MOL0     H64622   6.970   5.655   9.707  1.2670  1.0713 -1.5991
  490MOL0     H64623   6.741   5.687   9.699  1.1166 -1.6826 -1.4437
  490MOL0     H64624   6.751   5.863   9.655 -0.9463 -0.5891  2.2535
  490MOL0     H64625   6.857   5.621   9.491 -0.5827 -0.8255  2.1214
  490MOL0     H64626   6.850   5.794   9.446 -2.8127  3.3636  0.0325
  490MOL0     H64627   6.624   5.587   9.516  1.6867 -0.8838 -1.4593
  490MOL0     H64628   6.676   5.646   9.355  0.0933 -2.1960  0.7505
  490MOL0     H64629   6.550   5.834   9.563  0.5528 -3.0284  0.8554
  490MOL0     H64630   6.573   5.864   9.389  1.9864  0.9023  1.2277
  490MOL0     H64631   6.379   5.669   9.513  3.3680  0.0159  2.4020
  490MOL0     H64632   6.411   5.666   9.344  0.0952 -0.4399 -0.3355
  490MOL0     H64633   6.349   5.930   9.218  0.5598  0.1066 -0.4489
  490MOL0     H64634   6.239   6.209   9.238  1.6541 -1.5766  0.2705
  490MOL0     H64635   6.139   6.222   9.385  1.6683 -0.4820  1.5406
  490MOL0     H64636   5.970   6.046   9.294  1.4484  0.6274  2.3565
  490MOL0     H64637   6.078   6.041   9.158 -3.6109 -1.0139 -0.1678
  490MOL0     H64638   5.940   6.289   9.251 -1.5732 -1.0793  0.3786
  490MOL0     H64639   6.032   6.278   9.096  0.7843 -1.2549 -0.4711
  490MOL0     H64640   5.780   6.119   9.125 -2.1078  0.2201 -3.1057
  490MOL0     H64641   5.862   6.195   8.984 -0.8641  2.2031 -0.7247
  490MOL0     H64642   5.607   6.110   9.005 -2.2453  0.3009 -2.8550
  490MOL0     H64643   5.388   6.098   8.991  1.4783  1.2602 -2.5511
  490MOL0     H64644   4.914   6.135   9.132  2.1683  1.5545  0.5766
  490MOL0     H64645   4.707   6.067   9.038 -0.2373 -1.8819 -0.8581
  490MOL0     H64646   4.523   6.115   8.901 -0.9550  0.7688 -1.1948
  490MOL0     H64647   4.547   5.934   8.892 -2.1805  1.3811  1.4934
  490MOL0     H64648   4.475   5.940   8.639 -1.6698 -1.4737  0.3700
  490MOL0     H64649   4.417   6.106   8.677  1.6234  0.0798  1.0177
  490MOL0     H64650   4.257   6.019   8.829  0.0670  0.8202 -1.1869
  490MOL0     H64651   4.321   5.844   8.803  1.8301 -0.1681 -1.6008
  490MOL0     H64652   4.164   6.033   8.640  2.2925  0.2665  0.2281
  490MOL0     H64653   4.232   5.884   8.560  0.3209 -0.7919 -0.5212
  490MOL0     H64654   4.028   5.882   8.783  0.0126 -1.7824  0.2094
  490MOL0     H64655   4.110   5.744   8.728 -0.3329 -0.3194 -0.0435
  490MOL0     H64656   4.039   5.771   8.480  3.4250  2.8880  1.5134
  490MOL0     H64657   3.915   5.871   8.533 -0.2716 -0.2817 -0.3948
  490MOL0     H64658   3.828   5.659   8.512 -2.1403 -0.5962  1.0514
  490MOL0     H64659   3.948   5.588   8.625 -1.7209 -0.8997 -1.4149
  490MOL0     H64660   3.703   5.638   8.714  0.4723  0.7037  0.0590
  490MOL0     H64661   3.757   5.804   8.702  1.1063 -0.5106 -0.7257
  490MOL0     H64662   4.870   6.144   8.645 -2.2679  1.1430  0.2014
  490MOL0     H64663   5.094   6.177   8.755 -0.6392  0.1821  0.1473
  490MOL0     H64664   5.327   6.503   9.136  1.7284  2.6442 -5.0206
  490MOL0     H64665   5.573   6.516   9.166  2.4060 -1.5560  1.1997
  490MOL0     H64666   7.421   5.896   9.781  0.8199 -0.1246  0.1920
  490MOL0     H64667   7.609   5.841   9.896  0.4724  0.9160 -1.1052
  490MOL0     H64668   8.055   5.760  10.081  0.8377 -0.0950  1.9641
  490MOL0     H64669   8.258   5.645  10.082 -0.9599 -0.8564  0.8358
  490MOL0     H64670   8.295   5.196  10.016 -1.5554 -1.8404  1.8307
  490MOL0     H64671   8.261   5.207  10.191  4.0931 -0.0707  2.1530
  490MOL0     H64672   8.468   5.106  10.123 -2.1230  0.4876  0.4404
  490MOL0     H64673   8.515   5.258  10.045 -0.5876  1.1029 -1.2774
  490MOL0     H64674   8.477   5.162  10.345  1.3291 -0.6047  0.4959
  490MOL0     H64675   8.480   5.338  10.319 -2.4622 -1.0461  2.3924
  490MOL0     H64676   8.691   5.317  10.226  1.3481  0.2589  0.0544
  490MOL0     H64677   8.687   5.256  10.403  1.8966  1.8240 -0.7665
  490MOL0     H64678   8.852   4.941  10.215  1.9585  0.7936  1.3866
  490MOL0     H64679   8.070   5.257  10.060 -2.8021 -0.5853  1.5966
  490MOL0     H64680   7.869   5.377  10.004 -0.4259  3.4852 -1.9730
  491MOL0     O64681   9.883   9.470  10.717 -0.3840  0.2319  0.5365
  491MOL0     C64682   9.792   9.543  10.754 -0.9567 -0.3875 -0.1027
  491MOL0     O64683   9.814   9.648  10.836 -0.0641 -0.5312 -0.7219
  491MOL0     C64684   9.948   9.681  10.865 -0.1677 -0.8056  0.6069
  491MOL0     C64685  10.036   9.728  10.772  0.1403 -0.3996  0.8083
  491MOL0     C64686  10.157   9.799  10.805 -0.0892 -0.1943 -0.3541
  491MOL0     C64687  10.211   9.804  10.936  0.5674  0.8309  0.4264
  491MOL0     O64688  10.337   9.832  10.969  0.7998  0.5611  0.3641
  491MOL0     C64689  10.365   9.969  10.929  0.1263  0.1217  0.1330
  491MOL0     C64690  10.503  10.022  10.966 -0.3321  0.5346 -1.0276
  491MOL0     C64691  10.543  10.001  11.117  0.1175  0.2159  0.1880
  491MOL0     C64692  10.679  10.058  11.141 -0.1301 -0.0099 -0.0807
  491MOL0     C64693  10.722  10.048  11.288 -0.2162  0.7808 -1.0674
  491MOL0     C64694  10.713   9.909  11.346 -0.0194  0.2338 -0.2620
  491MOL0     C64695  10.814   9.803  11.291 -0.1393 -0.7378 -0.5921
  491MOL0     C64696  10.820   9.673  11.369 -0.5955  0.8076  0.6437
  491MOL0     N64697  10.693   9.611  11.394 -0.2571  0.4582  0.1548
  491MOL0     C64698  10.601   9.557  11.301 -0.7935 -0.4834 -0.4930
  491MOL0     C64699  10.483   9.542  11.359  0.2635  0.2079 -0.3103
  491MOL0     C64700  10.362   9.511  11.280  0.5440 -0.0850  0.1407
  491MOL0     C64701  10.252   9.467  11.371 -0.1786  0.2597  0.6344
  491MOL0     C64702  10.155   9.377  11.305  0.8238 -0.4521 -0.0993
  491MOL0     C64703  10.041   9.324  11.397 -0.0448 -0.1306 -0.1302
  491MOL0     O64704   9.968   9.436  11.450 -1.1167 -0.3474 -0.4276
  491MOL0     C64705   9.842   9.418  11.501 -0.8999  0.5261 -0.0423
  491MOL0     C64706   9.791   9.293  11.532  0.6489 -0.0459 -0.4401
  491MOL0     C64707   9.668   9.290  11.592 -0.0342 -0.0575 -0.4790
  491MOL0     C64708   9.596   9.407  11.630 -0.3223 -0.6881 -0.2503
  491MOL0     C64709   9.467   9.398  11.685  0.7889  0.5682  0.1506
  491MOL0     O64710   9.427   9.265  11.712 -0.5266  0.8261 -0.6614
  491MOL0     C64711   9.301   9.256  11.760 -0.0524  0.4837 -0.1442
  491MOL0     C64712   9.199   9.211  11.682  0.3665  0.4037 -0.8205
  491MOL0     C64713   9.075   9.182  11.739  0.1339  0.3142  0.1195
  491MOL0     C64714   9.053   9.218  11.874  0.2948 -0.0079 -0.5325
  491MOL0     O64715   8.937   9.187  11.943  0.6285 -0.7236 -0.3897
  491MOL0     C64716   8.867   9.300  11.983 -0.2437  0.3339 -0.5425
  491MOL0     C64717   8.722   9.259  11.975  0.2090 -0.0415  0.2478
  491MOL0     C64718   8.693   9.243  11.826 -0.5861  0.4962 -0.2321
  491MOL0     C64719   8.541   9.226  11.804 -0.1211 -0.4810  0.1178
  491MOL0     C64720   8.508   9.163  11.669 -0.8048 -0.8264 -0.5462
  491MOL0     C64721   8.356   9.146  11.653 -0.1342  0.9438 -0.3299
  491MOL0     C64722   8.331   9.069  11.516 -0.3469  0.0729  0.2460
  491MOL0     C64723   8.185   9.014  11.515 -1.0364 -0.0799  0.5051
  491MOL0    Cl64724   8.075   9.141  11.504  0.1430 -0.3607 -0.2711
  491MOL0     C64725   9.156   9.284  11.950 -0.4782  0.0209 -0.7055
  491MOL0     C64726   9.280   9.287  11.897  0.3641 -0.7326  0.9813
  491MOL0     O64727   9.384   9.493  11.678  0.2435  0.1471  0.1630
  491MOL0     C64728   9.642   9.527  11.573 -0.7909 -0.0262 -0.6336
  491MOL0     C64729   9.767   9.530  11.510 -1.1549  0.2606 -0.2733
  491MOL0     N64730  10.503   9.578  11.493  0.8943  0.0237 -0.5178
  491MOL0     N64731  10.624   9.618  11.513 -0.4040  0.7179  0.0938
  491MOL0     C64732  10.121   9.745  11.033  0.0870  0.2325  0.0631
  491MOL0     C64733   9.990   9.698  10.999  0.2163  0.7920  0.4344
  491MOL0     C64734   9.657   9.531  10.698  0.4164  0.3271 -0.4758
  491MOL0     C64735   9.608   9.402  10.667  0.7919 -0.5723 -0.5313
  491MOL0     C64736   9.472   9.389  10.636  0.3927 -0.1351  0.3976
  491MOL0     C64737   9.385   9.493  10.628  0.9601 -0.3104 -1.1234
  491MOL0     O64738   9.261   9.467  10.583  0.0637 -0.4716 -0.8040
  491MOL0     C64739   9.202   9.579  10.511  0.0781 -0.1004  0.3587
  491MOL0     C64740   9.094   9.541  10.402 -0.2774  0.6676 -0.6687
  491MOL0     C64741   8.981   9.461  10.454 -0.6268  0.5428  0.2497
  491MOL0     C64742   8.886   9.560  10.524 -0.0026 -0.4780 -0.1058
  491MOL0     C64743   8.747   9.520  10.531 -0.8774  0.8597  0.4492
  491MOL0     C64744   8.634   9.489  10.539  0.8438 -0.1852  0.3082
  491MOL0     C64745   9.423   9.620  10.666  0.4046  0.2905 -0.3432
  491MOL0     C64746   9.562   9.635  10.693  1.6313  0.3262  0.1302
  491MOL0     H64747   9.990   9.727  10.674 -1.1615  0.5048  1.3757
  491MOL0     H64748  10.219   9.841  10.727  0.5556  1.3099  0.9127
  491MOL0     H64749  10.287  10.027  10.980 -1.6090 -0.4032 -1.7976
  491MOL0     H64750  10.338   9.989  10.825  0.7963  1.8774  0.2584
  491MOL0     H64751  10.501  10.130  10.950  0.5496  0.8107  0.4803
  491MOL0     H64752  10.573   9.975  10.897 -2.5925  0.5989 -3.5229
  491MOL0     H64753  10.551   9.894  11.136  1.0691  0.2456  0.0016
  491MOL0     H64754  10.467  10.052  11.178 -0.2492 -2.4154  2.0793
  491MOL0     H64755  10.745   9.999  11.077  0.5664 -0.5984  1.1470
  491MOL0     H64756  10.677  10.159  11.099 -2.9049 -1.2712 -3.5039
  491MOL0     H64757  10.658  10.112  11.350 -1.5135  1.0330 -2.5867
  491MOL0     H64758  10.827  10.076  11.297 -0.0456 -0.1867  0.2659
  491MOL0     H64759  10.615   9.866  11.322 -0.9136  2.9447 -1.7676
  491MOL0     H64760  10.720   9.925  11.454  1.6227  2.2927 -0.6091
  491MOL0     H64761  10.793   9.776  11.187 -0.4017 -3.4649  0.0832
  491MOL0     H64762  10.915   9.846  11.293 -1.1760  1.8145  0.3025
  491MOL0     H64763  10.864   9.671  11.469  0.6839  0.0861  0.0879
  491MOL0     H64764  10.877   9.598  11.314 -0.6774  1.7003 -0.7173
  491MOL0     H64765  10.611   9.559  11.193 -2.1299 -1.7865 -0.6808
  491MOL0     H64766  10.381   9.430  11.208 -0.9168 -0.8337  0.5565
  491MOL0     H64767  10.324   9.602  11.233  0.4929  0.6679  1.5870
  491MOL0     H64768  10.194   9.546  11.419  0.1718 -0.1909  1.8359
  491MOL0     H64769  10.290   9.403  11.452  1.2752 -2.6254 -2.1122
  491MOL0     H64770  10.107   9.440  11.230 -1.1949  0.5036  1.8837
  491MOL0     H64771  10.205   9.290  11.261  0.7743 -0.4626 -0.1348
  491MOL0     H64772  10.067   9.260  11.482 -2.9931 -1.9435 -0.4570
  491MOL0     H64773   9.964   9.274  11.338 -0.9359 -0.3939  1.1922
  491MOL0     H64774   9.838   9.197  11.514 -0.1663 -0.4061 -0.7077
  491MOL0     H64775   9.640   9.190  11.624 -0.7854  0.2074 -0.3033
  491MOL0     H64776   9.227   9.176  11.584  4.6371  0.1631  0.2797
  491MOL0     H64777   8.989   9.134  11.693 -0.3086 -1.0452  2.2280
  491MOL0     H64778   8.887   9.378  11.908 -2.2988  0.0911 -1.4099
  491MOL0     H64779   8.889   9.340  12.082 -2.4596 -0.6074  0.4011
  491MOL0     H64780   8.664   9.340  12.021  0.4835 -0.0619  0.6325
  491MOL0     H64781   8.693   9.167  12.026  2.9709 -0.6850  0.8331
  491MOL0     H64782   8.737   9.150  11.788  0.2507  0.5916  0.4651
  491MOL0     H64783   8.728   9.326  11.765  2.7065 -0.6124 -0.0763
  491MOL0     H64784   8.488   9.154  11.867 -1.7142 -1.3899 -2.1344
  491MOL0     H64785   8.495   9.324  11.816  0.0697 -0.7346  3.8372
  491MOL0     H64786   8.542   9.060  11.678  1.6474  0.0591  1.6464
  491MOL0     H64787   8.564   9.214  11.590 -0.3599  1.0520  0.8951
  491MOL0     H64788   8.297   9.238  11.662 -2.4196 -0.6009  1.5870
  491MOL0     H64789   8.318   9.076  11.727  1.7407  0.4510  0.2092
  491MOL0     H64790   8.348   9.129  11.426  1.4791  1.2012  1.2841
  491MOL0     H64791   8.402   8.986  11.514  0.0841  0.4522 -0.6013
  491MOL0     H64792   8.170   8.942  11.596  0.9756  0.7872  1.7233
  491MOL0     H64793   8.179   8.952  11.425 -0.2383 -1.0422  1.0922
  491MOL0     H64794   9.143   9.314  12.053  1.9299 -2.8966  0.5989
  491MOL0     H64795   9.355   9.313  11.971  1.6524 -0.2248 -0.4271
  491MOL0     H64796   9.574   9.611  11.574 -0.1647  0.4903 -0.0001
  491MOL0     H64797   9.822   9.620  11.485  1.7290 -1.1074  0.7207
  491MOL0     H64798  10.160   9.746  11.134 -1.4285 -0.9860  0.7082
  491MOL0     H64799   9.924   9.671  11.080 -0.0392  0.3263  0.0760
  491MOL0     H64800   9.667   9.311  10.673 -0.9980 -1.7081  0.7514
  491MOL0     H64801   9.434   9.295  10.598  0.5646  0.6008 -1.7276
  491MOL0     H64802   9.277   9.631  10.451 -0.2874 -0.6938 -0.6232
  491MOL0     H64803   9.171   9.653  10.585  1.5135  3.1860 -2.0621
  491MOL0     H64804   9.054   9.634  10.359 -0.5020  3.3384  4.5577
  491MOL0     H64805   9.144   9.484  10.323  3.1577 -1.3085  2.6142
  491MOL0     H64806   9.017   9.387  10.527 -0.1180  0.8738  0.3376
  491MOL0     H64807   8.930   9.409  10.372 -1.6689 -3.1398  2.9431
  491MOL0     H64808   8.916   9.590  10.625 -0.2405  1.4656 -0.5817
  491MOL0     H64809   8.878   9.650  10.463  1.3211 -0.6918 -0.6244
  491MOL0     H64810   8.527   9.484  10.527  1.0390  1.0757 -3.0763
  491MOL0     H64811   9.347   9.697  10.671 -0.2498 -0.3622  0.0420
  491MOL0     H64812   9.590   9.737  10.718  1.3583  1.7364 -4.4137
  492MOL0     O64813   7.864   2.024   4.266 -0.4566  0.0082  0.3426
  492MOL0     C64814   7.913   2.077   4.176 -0.0992  0.0125  0.4404
  492MOL0     O64815   7.870   2.193   4.126  0.8710  0.1179 -0.4803
  492MOL0     C64816   7.744   2.235   4.165 -0.1937  0.4333  0.8939
  492MOL0     C64817   7.638   2.143   4.154  0.2594  0.4494 -0.7030
  492MOL0     C64818   7.510   2.183   4.189  1.1028 -0.0292  0.5132
  492MOL0     C64819   7.475   2.317   4.227 -0.0817 -0.8618  0.1183
  492MOL0     O64820   7.342   2.347   4.249  0.0657 -0.3583 -0.6398
  492MOL0     C64821   7.298   2.482   4.260  0.0374  0.0207  0.3999
  492MOL0     C64822   7.287   2.523   4.107  0.1588 -0.1704  0.3162
  492MOL0     C64823   7.170   2.617   4.100 -0.4954  0.4692 -0.6762
  492MOL0     C64824   7.144   2.672   3.960 -0.3884 -0.3745  0.3497
  492MOL0     C64825   7.034   2.780   3.954 -0.8003 -0.2609 -0.2398
  492MOL0     C64826   7.045   2.894   3.840  0.2424  0.2583 -0.1509
  492MOL0     C64827   7.171   2.986   3.854  0.1468  0.3713 -0.2571
  492MOL0     C64828   7.234   3.038   3.725 -0.5999 -0.0274  0.5281
  492MOL0     N64829   7.191   3.173   3.695 -0.6639  0.4776 -0.3732
  492MOL0     C64830   7.260   3.284   3.737  0.5279 -0.3908 -0.3300
  492MOL0     C64831   7.172   3.383   3.717  1.1096 -0.1924  0.4535
  492MOL0     C64832   7.193   3.525   3.757  0.3436  0.6619 -0.9514
  492MOL0     C64833   7.237   3.619   3.645  0.1797  0.2677 -0.2869
  492MOL0     C64834   7.228   3.767   3.678  0.5578  0.0469  0.6859
  492MOL0     C64835   7.305   3.839   3.569  0.1838 -1.0849  0.8000
  492MOL0     O64836   7.451   3.835   3.567 -0.5158 -0.3587 -0.6494
  492MOL0     C64837   7.521   3.874   3.680  0.2838 -0.3045 -0.4130
  492MOL0     C64838   7.655   3.840   3.678  0.7496 -0.0609  0.5917
  492MOL0     C64839   7.747   3.898   3.767  1.2142  0.3172 -0.9472
  492MOL0     C64840   7.702   3.984   3.865 -0.3488 -0.4776 -0.1333
  492MOL0     C64841   7.788   4.041   3.970 -0.5387  0.5320  0.4077
  492MOL0     O64842   7.922   4.055   3.938  0.6270 -0.3909  0.3181
  492MOL0     C64843   8.014   4.115   4.023  0.3167  0.0899  0.7567
  492MOL0     C64844   8.145   4.092   3.977 -0.0499  0.2540  0.0064
  492MOL0     C64845   8.250   4.135   4.065 -0.6769  0.6186  0.6492
  492MOL0     C64846   8.237   4.201   4.190  0.6449 -0.2325 -0.0621
  492MOL0     O64847   8.342   4.209   4.284 -0.5774  0.6172 -0.6594
  492MOL0     C64848   8.476   4.239   4.234 -0.2126  0.7302  0.4308
  492MOL0     C64849   8.573   4.120   4.261  0.9614 -0.3306  0.2661
  492MOL0     C64850   8.716   4.161   4.214  0.5132  0.6593 -0.5921
  492MOL0     C64851   8.825   4.077   4.274 -0.7921  0.0164  0.2254
  492MOL0     C64852   8.948   4.092   4.205 -0.8118  0.1894 -0.2032
  492MOL0     C64853   9.052   4.002   4.266 -0.9551  0.4348  0.1962
  492MOL0     C64854   9.046   3.866   4.209 -0.1463 -0.7018  0.7894
  492MOL0     C64855   9.149   3.770   4.267  0.7350 -0.4633 -0.6290
  492MOL0    Cl64856   9.300   3.809   4.191 -0.1956  0.4173 -0.0027
  492MOL0     C64857   8.098   4.225   4.227  0.4189 -0.3550 -0.1476
  492MOL0     C64858   7.989   4.182   4.146  0.8940 -0.5491 -0.5114
  492MOL0     O64859   7.734   4.079   4.072  0.1618 -0.9408 -0.6170
  492MOL0     C64860   7.568   4.021   3.861 -0.8451 -0.4672  0.0974
  492MOL0     C64861   7.478   3.970   3.769 -0.5455 -0.5890  0.4787
  492MOL0     N64862   7.050   3.328   3.668 -0.4937  0.0468  0.3036
  492MOL0     N64863   7.062   3.200   3.667 -0.6012 -0.6514  0.4692
  492MOL0     C64864   7.585   2.414   4.233  1.2900  0.2779 -0.3215
  492MOL0     C64865   7.722   2.374   4.200  0.3674 -0.0405  0.6503
  492MOL0     C64866   8.029   2.017   4.116 -1.0778  0.6185  0.2555
  492MOL0     C64867   8.048   1.871   4.126  0.3511  0.7089 -0.3943
  492MOL0     C64868   8.157   1.813   4.057  0.5440 -0.4354 -0.5955
  492MOL0     C64869   8.255   1.890   3.997  0.3375  0.2240 -0.0345
  492MOL0     O64870   8.354   1.819   3.928  0.6204  0.0885  0.1368
  492MOL0     C64871   8.468   1.883   3.873  0.0477 -0.1158 -0.3146
  492MOL0     C64872   8.583   1.786   3.854 -0.0280  1.7103 -0.6332
  492MOL0     C64873   8.632   1.739   3.993 -0.2789 -0.5506 -0.3487
  492MOL0     C64874   8.678   1.849   4.089  0.0525  0.3203 -0.1460
  492MOL0     C64875   8.758   1.952   4.018 -0.1440 -0.8669 -0.4743
  492MOL0     C64876   8.841   2.033   3.972 -0.2863 -0.3546  1.4984
  492MOL0     C64877   8.229   2.026   3.990  0.1319  0.2517  0.2656
  492MOL0     C64878   8.126   2.093   4.051  0.1777 -0.8052 -0.3950
  492MOL0     H64879   7.664   2.040   4.131 -0.8446  0.1971 -0.8636
  492MOL0     H64880   7.433   2.106   4.194  0.3106  0.5934 -1.1687
  492MOL0     H64881   7.370   2.549   4.308  1.1049  0.5023 -1.7590
  492MOL0     H64882   7.200   2.481   4.309 -0.7695 -0.0734 -1.1453
  492MOL0     H64883   7.263   2.432   4.051  1.8423 -0.1294 -0.5509
  492MOL0     H64884   7.381   2.563   4.066 -1.2417  0.3555 -2.6435
  492MOL0     H64885   7.187   2.699   4.169  0.8846 -0.3185 -0.0451
  492MOL0     H64886   7.085   2.553   4.124 -0.2816 -0.2420 -1.6954
  492MOL0     H64887   7.233   2.719   3.916 -0.2271  0.1292  1.1851
  492MOL0     H64888   7.111   2.587   3.900 -1.2088  0.2484 -0.1180
  492MOL0     H64889   7.020   2.833   4.048  0.5156 -0.3257  0.0105
  492MOL0     H64890   6.941   2.724   3.952 -0.2661 -1.5191  3.4152
  492MOL0     H64891   6.956   2.957   3.844  2.4430  3.5568  0.6496
  492MOL0     H64892   7.052   2.840   3.745 -0.6216 -1.6269  0.8018
  492MOL0     H64893   7.142   3.061   3.929 -3.3143  0.5658 -1.6012
  492MOL0     H64894   7.243   2.917   3.898  0.8240  2.5070  2.2947
  492MOL0     H64895   7.205   2.983   3.635  0.2741  1.0216 -0.4398
  492MOL0     H64896   7.344   3.031   3.725 -0.5095 -0.2735 -2.8302
  492MOL0     H64897   7.359   3.294   3.780 -0.5008 -0.1622  2.1454
  492MOL0     H64898   7.262   3.529   3.842  0.3012 -1.5093 -0.7559
  492MOL0     H64899   7.091   3.538   3.795 -0.4688 -2.2510 -1.9276
  492MOL0     H64900   7.152   3.596   3.580 -0.7982  0.1578  0.9834
  492MOL0     H64901   7.328   3.585   3.595  0.1204 -0.9305  0.3769
  492MOL0     H64902   7.125   3.803   3.683  0.7423  0.4312  4.3908
  492MOL0     H64903   7.267   3.789   3.777 -1.4597  2.4029  1.0497
  492MOL0     H64904   7.278   3.944   3.589 -1.7842 -2.0625  3.9808
  492MOL0     H64905   7.259   3.803   3.477 -0.2586 -0.4110  0.7479
  492MOL0     H64906   7.683   3.767   3.603 -1.1921 -0.3867  0.1292
  492MOL0     H64907   7.848   3.861   3.784  0.8856 -0.6814 -1.0688
  492MOL0     H64908   8.156   4.051   3.877 -0.2631  1.1404 -0.3867
  492MOL0     H64909   8.351   4.114   4.031 -0.4749 -0.3287  1.7832
  492MOL0     H64910   8.509   4.327   4.290  1.6446  1.1180 -1.1826
  492MOL0     H64911   8.478   4.270   4.129  1.0421  2.2411  0.8597
  492MOL0     H64912   8.544   4.046   4.187 -1.4181  1.0081 -0.2250
  492MOL0     H64913   8.567   4.079   4.363  0.6949  2.5463  1.5220
  492MOL0     H64914   8.734   4.262   4.251 -1.6047  2.9646 -5.0209
  492MOL0     H64915   8.711   4.178   4.106  0.6304  1.3445 -0.4943
  492MOL0     H64916   8.839   4.105   4.378 -1.0026  2.8768 -0.4348
  492MOL0     H64917   8.796   3.971   4.275 -0.6877 -0.0983 -2.3232
  492MOL0     H64918   8.989   4.191   4.227 -0.6814  0.3781 -1.2705
  492MOL0     H64919   8.938   4.080   4.097  2.9193  0.4823 -0.7171
  492MOL0     H64920   9.031   3.998   4.373 -3.3897  1.3457 -0.1864
  492MOL0     H64921   9.149   4.049   4.249 -0.3755 -1.0776 -0.9884
  492MOL0     H64922   8.946   3.824   4.223 -0.2651 -1.6853 -2.3931
  492MOL0     H64923   9.056   3.878   4.101  0.6747  0.1650  0.9478
  492MOL0     H64924   9.139   3.662   4.255  4.6472 -1.1385  0.6923
  492MOL0     H64925   9.162   3.784   4.375 -2.0871  1.1958 -0.3972
  492MOL0     H64926   8.073   4.279   4.318  0.8211 -2.7364  1.4609
  492MOL0     H64927   7.888   4.212   4.172  0.0443  0.4454 -4.2864
  492MOL0     H64928   7.523   4.096   3.925  2.6183  1.0134  1.0293
  492MOL0     H64929   7.375   4.004   3.777 -0.9854 -2.2778  3.3338
  492MOL0     H64930   7.562   2.517   4.255  0.7065  0.1016 -0.1004
  492MOL0     H64931   7.809   2.436   4.214  2.5517 -2.6257 -0.6210
  492MOL0     H64932   7.977   1.801   4.171  1.9526 -1.6789 -1.3561
  492MOL0     H64933   8.151   1.706   4.041 -0.1850 -0.2796 -1.4066
  492MOL0     H64934   8.493   1.964   3.943 -0.5418 -0.4317  0.2714
  492MOL0     H64935   8.442   1.929   3.777  1.8750  2.9794  0.5592
  492MOL0     H64936   8.548   1.706   3.788 -0.3214  2.3802 -1.3047
  492MOL0     H64937   8.664   1.839   3.804  1.4115 -0.7456 -1.0402
  492MOL0     H64938   8.716   1.671   3.978  0.9818  0.9422 -0.1978
  492MOL0     H64939   8.562   1.669   4.040  1.7750 -3.3034 -1.1321
  492MOL0     H64940   8.598   1.901   4.141  1.0308  0.3696  1.3888
  492MOL0     H64941   8.740   1.810   4.170  0.0669 -1.1193 -0.8207
  492MOL0     H64942   8.912   2.102   3.930 -1.9618 -0.4643 -1.8938
  492MOL0     H64943   8.302   2.085   3.934  0.6095  0.6374  1.2779
  492MOL0     H64944   8.101   2.197   4.030  0.8096 -0.5926 -0.1133
  493MOL0     O64945   0.785   3.008   8.948 -0.2256  0.6075  0.2738
  493MOL0     C64946   0.712   3.086   8.882 -0.1738  0.2291  0.2778
  493MOL0     O64947   0.668   3.060   8.760  0.1308 -0.0016 -0.2050
  493MOL0     C64948   0.718   2.946   8.705  0.1798 -0.2848  0.5285
  493MOL0     C64949   0.833   2.960   8.632 -0.3166  0.8124 -1.1283
  493MOL0     C64950   0.878   2.854   8.558  0.6566 -1.0036 -0.5128
  493MOL0     C64951   0.801   2.740   8.550 -0.0880  0.9126 -0.0232
  493MOL0     O64952   0.831   2.637   8.463 -0.3481  0.2416  0.1480
  493MOL0     C64953   0.824   2.681   8.328  0.3960 -0.3102 -0.1713
  493MOL0     C64954   0.850   2.558   8.249  0.0889  0.5015  0.3175
  493MOL0     C64955   0.991   2.495   8.260  0.2631  1.1449  0.1652
  493MOL0     C64956   0.998   2.357   8.186 -0.2664 -0.1998  0.3575
  493MOL0     C64957   1.147   2.301   8.205  1.2826 -0.0132 -0.4152
  493MOL0     C64958   1.179   2.213   8.088 -0.0928  0.3969 -0.0355
  493MOL0     C64959   1.277   2.102   8.121 -0.5466  0.8207  0.9446
  493MOL0     C64960   1.362   2.076   8.003 -0.2553  0.2121  0.5908
  493MOL0     N64961   1.283   2.027   7.889 -0.4600  0.0141  0.3617
  493MOL0     C64962   1.186   1.928   7.892 -0.1532 -0.7465  0.6178
  493MOL0     C64963   1.124   1.947   7.767  0.7873 -0.2751 -0.1458
  493MOL0     C64964   0.998   1.886   7.713  0.4412  0.3946  0.9246
  493MOL0     C64965   1.013   1.826   7.574 -0.4760  0.8320 -0.8718
  493MOL0     C64966   0.952   1.687   7.576 -0.6736 -0.1326  0.9305
  493MOL0     C64967   0.801   1.695   7.552 -1.3444 -0.4863  0.1611
  493MOL0     O64968   0.743   1.567   7.575 -0.0869 -0.1673 -0.5868
  493MOL0     C64969   0.617   1.571   7.620  0.7491 -0.4070  0.5511
  493MOL0     C64970   0.511   1.643   7.557  0.0334  0.5466 -0.4155
  493MOL0     C64971   0.389   1.627   7.611  0.1286 -0.3037 -0.4866
  493MOL0     C64972   0.355   1.540   7.704  0.2569  0.6511 -0.6759
  493MOL0     C64973   0.219   1.536   7.746  0.0675 -0.1339 -0.0327
  493MOL0     O64974   0.186   1.440   7.837  0.6529  0.3569  0.0531
  493MOL0     C64975   0.063   1.403   7.887 -0.1836 -0.6802 -0.1146
  493MOL0     C64976   0.042   1.282   7.941 -0.0460  0.2193 -1.2146
  493MOL0     C64977  -0.088   1.233   7.986 -1.1212 -0.5842 -0.0968
  493MOL0     C64978  -0.192   1.316   7.991  0.4134 -0.4960 -0.1931
  493MOL0     O64979  -0.318   1.284   8.031  0.0650 -0.1997 -0.1637
  493MOL0     C64980  -0.391   1.245   7.920  0.8742  0.9016 -0.1807
  493MOL0     C64981  -0.531   1.265   7.970  0.1590 -0.2085  0.0194
  493MOL0     C64982  -0.639   1.213   7.875 -0.5206  0.7350 -0.3366
  493MOL0     C64983  -0.777   1.231   7.933  0.2513  0.0915 -0.1603
  493MOL0     C64984  -0.875   1.163   7.832 -0.3796  0.1170  0.2215
  493MOL0     C64985  -1.001   1.135   7.907  0.9524  0.0105  0.2350
  493MOL0     C64986  -1.098   1.075   7.798 -0.2857 -0.4554  0.5829
  493MOL0     C64987  -1.245   1.085   7.851  0.2892 -0.3051 -0.0898
  493MOL0    Cl64988  -1.256   1.013   8.012  0.4535 -0.0813 -0.5140
  493MOL0     C64989  -0.165   1.443   7.950 -0.5484 -0.0289  0.7775
  493MOL0     C64990  -0.047   1.494   7.894  0.3736  0.7676  1.1486
  493MOL0     O64991   0.140   1.626   7.711 -0.0435  0.1775 -0.4057
  493MOL0     C64992   0.455   1.459   7.760  0.3804  0.7568  0.0505
  493MOL0     C64993   0.588   1.476   7.714  0.1606  0.0640  0.2192
  493MOL0     N64994   1.186   2.050   7.699 -0.5042  0.7381 -0.0407
  493MOL0     N64995   1.281   2.098   7.774  0.0161  0.0110 -0.3381
  493MOL0     C64996   0.682   2.728   8.624 -0.2368  0.2862  0.0093
  493MOL0     C64997   0.643   2.831   8.706 -0.4419  0.3663 -0.7623
  493MOL0     C64998   0.670   3.212   8.953  0.1455 -0.2677 -0.2352
  493MOL0     C64999   0.698   3.227   9.091 -0.7561 -0.3185 -0.0873
  493MOL0     C65000   0.656   3.345   9.160 -0.3677  0.4184  0.4998
  493MOL0     C65001   0.573   3.438   9.100 -0.4399 -0.2244  0.4179
  493MOL0     O65002   0.538   3.562   9.158  0.3354 -0.2785  0.0239
  493MOL0     C65003   0.648   3.619   9.238  0.6643 -0.5744  0.3114
  493MOL0     C65004   0.641   3.770   9.222 -0.3392 -0.2506 -0.4204
  493MOL0     C65005   0.704   3.796   9.088  0.4670  0.2081 -0.3355
  493MOL0     C65006   0.664   3.934   9.034  0.0043 -1.0489  0.6068
  493MOL0     C65007   0.738   4.040   9.093  0.2274 -0.5314  0.3474
  493MOL0     C65008   0.790   4.141   9.120  0.3913 -0.0857 -0.4239
  493MOL0     C65009   0.536   3.414   8.971 -0.1391 -0.2558  0.4641
  493MOL0     C65010   0.580   3.302   8.895  0.8771 -0.9525 -0.7132
  493MOL0     H65011   0.890   3.053   8.636  1.8346 -0.4742 -0.5601
  493MOL0     H65012   0.966   2.872   8.497  1.3241 -0.6236  0.5418
  493MOL0     H65013   0.903   2.755   8.315 -0.4903  0.9057  1.1046
  493MOL0     H65014   0.727   2.725   8.299  0.4793  1.5906  2.1206
  493MOL0     H65015   0.821   2.590   8.149 -4.0140  0.3590  1.2897
  493MOL0     H65016   0.781   2.479   8.279  1.8143 -0.6901  1.3764
  493MOL0     H65017   1.024   2.473   8.362  1.0356 -1.9996 -0.6642
  493MOL0     H65018   1.060   2.571   8.222  2.5574 -0.4650  0.9167
  493MOL0     H65019   0.940   2.278   8.234 -2.6287  2.3111  1.9570
  493MOL0     H65020   0.973   2.363   8.079  1.3231  0.6459  0.0112
  493MOL0     H65021   1.155   2.246   8.299 -1.4929  0.2448  0.0405
  493MOL0     H65022   1.223   2.380   8.212  1.5766 -0.4379  1.6626
  493MOL0     H65023   1.208   2.284   8.010 -4.6155  2.0405 -0.5268
  493MOL0     H65024   1.093   2.157   8.051  2.1879 -4.3709  1.1384
  493MOL0     H65025   1.345   2.132   8.201  1.5228  0.6301 -0.6493
  493MOL0     H65026   1.219   2.015   8.152  1.2051 -0.2553  1.3565
  493MOL0     H65027   1.430   1.996   8.033 -1.3910 -0.9976  0.0621
  493MOL0     H65028   1.417   2.167   7.977  0.3594 -0.3654 -0.1815
  493MOL0     H65029   1.157   1.867   7.977  3.2999 -1.3225  1.5270
  493MOL0     H65030   0.914   1.956   7.717  0.2123  0.6862 -3.8008
  493MOL0     H65031   0.963   1.810   7.784 -0.0090 -1.2175 -0.9545
  493MOL0     H65032   1.121   1.817   7.561 -0.3753 -0.9759  0.7867
  493MOL0     H65033   0.980   1.889   7.490  1.9932  1.7440 -1.2428
  493MOL0     H65034   1.000   1.654   7.483 -2.2862  3.4572 -1.4228
  493MOL0     H65035   0.981   1.631   7.666  0.7612  2.5493  2.2710
  493MOL0     H65036   0.791   1.732   7.449 -1.6617 -2.9170 -0.7521
  493MOL0     H65037   0.762   1.769   7.622  1.6335  2.6574 -1.2232
  493MOL0     H65038   0.524   1.713   7.475  1.6035 -0.0729 -0.7306
  493MOL0     H65039   0.316   1.697   7.572 -0.4719 -2.0730 -2.7134
  493MOL0     H65040   0.131   1.225   7.963  2.2182  3.1342 -2.1235
  493MOL0     H65041  -0.102   1.141   8.042  1.8624 -0.2749  1.3885
  493MOL0     H65042  -0.367   1.141   7.895  1.1405 -0.0724  3.5941
  493MOL0     H65043  -0.372   1.308   7.833  0.3123  0.8294 -0.3551
  493MOL0     H65044  -0.554   1.368   7.998  1.0725 -0.2494  0.9963
  493MOL0     H65045  -0.541   1.213   8.065 -2.3502 -0.1482 -0.1495
  493MOL0     H65046  -0.626   1.108   7.846 -5.1954  0.3955 -2.0612
  493MOL0     H65047  -0.618   1.263   7.780  1.0707  1.1319  0.1994
  493MOL0     H65048  -0.793   1.174   8.025  0.2196 -0.9423 -0.7849
  493MOL0     H65049  -0.802   1.335   7.955 -0.8072  0.0933 -1.2381
  493MOL0     H65050  -0.834   1.069   7.795 -1.5062  0.0610 -0.9361
  493MOL0     H65051  -0.899   1.219   7.742  1.4110 -0.8746 -0.9203
  493MOL0     H65052  -1.048   1.219   7.958  0.6435 -1.8180  3.2023
  493MOL0     H65053  -0.979   1.061   7.985  2.1464 -1.1169 -1.1083
  493MOL0     H65054  -1.106   1.137   7.709 -3.2120  3.0908  2.9976
  493MOL0     H65055  -1.077   0.972   7.768  3.6207  0.9695 -2.3817
  493MOL0     H65056  -1.316   1.032   7.788 -1.7369 -0.7547  2.4144
  493MOL0     H65057  -1.280   1.188   7.864  1.4515  0.2692 -1.2428
  493MOL0     H65058  -0.243   1.517   7.934 -0.8955 -0.9992 -3.1324
  493MOL0     H65059  -0.036   1.594   7.853  0.0948  0.3802  0.0803
  493MOL0     H65060   0.432   1.377   7.826 -0.3614 -0.8351 -2.0636
  493MOL0     H65061   0.667   1.415   7.756 -0.3241  0.5962  1.9948
  493MOL0     H65062   0.619   2.640   8.623  0.5954 -0.3596  1.2370
  493MOL0     H65063   0.549   2.810   8.756  0.0921 -1.8606 -0.6088
  493MOL0     H65064   0.765   3.162   9.145  2.2634 -0.6218 -3.7653
  493MOL0     H65065   0.699   3.370   9.257  0.0608 -1.2060  0.7621
  493MOL0     H65066   0.749   3.578   9.228  0.7805  0.2563 -3.3603
  493MOL0     H65067   0.607   3.600   9.337 -1.0303 -0.4746 -0.3391
  493MOL0     H65068   0.539   3.810   9.230  1.0876  3.4834  1.9254
  493MOL0     H65069   0.705   3.824   9.292  2.1914 -1.1335 -1.9333
  493MOL0     H65070   0.663   3.729   9.011 -0.0230  2.8252 -2.4862
  493MOL0     H65071   0.813   3.786   9.096  0.4253 -0.3644 -0.3915
  493MOL0     H65072   0.679   3.921   8.926 -1.8556  2.4864 -0.2027
  493MOL0     H65073   0.558   3.951   9.054  0.2713  2.9742 -0.6399
  493MOL0     H65074   0.835   4.235   9.144 -1.2465  0.1354  2.2368
  493MOL0     H65075   0.478   3.495   8.930  0.8698 -0.0141 -0.5522
  493MOL0     H65076   0.549   3.288   8.792 -1.4443  1.9778 -0.5659
  494MOL0     O65077   3.299  10.891   1.824 -0.2134  0.3948  0.4108
  494MOL0     C65078   3.359  11.004   1.798  0.3792  0.9701 -0.6776
  494MOL0     O65079   3.317  11.102   1.713 -0.5427 -0.1168 -0.2337
  494MOL0     C65080   3.200  11.087   1.634 -0.2761 -0.0689  0.6201
  494MOL0     C65081   3.195  11.169   1.522  0.3528  0.4494 -0.9234
  494MOL0     C65082   3.106  11.158   1.420 -0.3417 -0.1968  0.2360
  494MOL0     C65083   3.003  11.061   1.424 -1.0319 -0.3398  0.0494
  494MOL0     O65084   2.910  11.049   1.327 -0.4524  0.2722 -0.4944
  494MOL0     C65085   2.956  11.046   1.194 -0.2563  0.2796 -0.0915
  494MOL0     C65086   2.863  10.955   1.112  0.4892 -0.4891 -0.2440
  494MOL0     C65087   2.716  11.002   1.119 -0.0262  0.1304 -1.1320
  494MOL0     C65088   2.633  10.957   0.998  0.5508 -0.1174 -0.5542
  494MOL0     C65089   2.482  10.990   1.018  0.9438  0.6362 -0.3689
  494MOL0     C65090   2.378  10.941   0.909 -0.2356 -0.3768  0.5525
  494MOL0     C65091   2.241  10.987   0.960 -0.5507 -0.0303  0.9927
  494MOL0     C65092   2.212  11.133   0.914  0.1301  0.1823  0.2271
  494MOL0     N65093   2.064  11.155   0.922 -0.5860 -0.1863  0.2779
  494MOL0     C65094   1.990  11.144   1.034  0.3131  0.0073  0.9511
  494MOL0     C65095   1.866  11.160   0.990  1.2063 -0.0999 -0.3900
  494MOL0     C65096   1.740  11.161   1.082  0.2534 -1.0466  0.2358
  494MOL0     C65097   1.617  11.117   1.008  0.6533  0.6038  0.5435
  494MOL0     C65098   1.623  10.967   0.998 -0.5046 -0.6078 -0.6638
  494MOL0     C65099   1.489  10.902   0.959  0.3721  0.2573 -0.5541
  494MOL0     O65100   1.377  10.950   1.037  0.3437  0.5790 -0.0403
  494MOL0     C65101   1.255  10.927   0.991  0.2133 -0.5193  0.7806
  494MOL0     C65102   1.158  11.028   1.015 -0.1345 -0.6318  0.3365
  494MOL0     C65103   1.029  11.008   0.973  0.2377  0.7881 -0.6693
  494MOL0     C65104   0.991  10.894   0.905  0.2352  0.6729  0.1628
  494MOL0     C65105   0.853  10.875   0.862  0.1003 -0.9737 -0.1175
  494MOL0     O65106   0.836  10.754   0.805  1.0849 -0.1916 -0.1736
  494MOL0     C65107   0.709  10.702   0.798 -0.5542 -0.8077  0.5258
  494MOL0     C65108   0.599  10.721   0.885 -0.0331  0.3012 -0.5582
  494MOL0     C65109   0.478  10.665   0.861  0.8459  0.0050  0.3947
  494MOL0     C65110   0.457  10.579   0.754  0.2714  0.7492  0.3335
  494MOL0     O65111   0.342  10.507   0.740 -0.0642  0.3706 -0.5564
  494MOL0     C65112   0.213  10.572   0.726 -1.0126  0.2327  0.4348
  494MOL0     C65113   0.106  10.465   0.705  0.5083 -0.3913  0.2785
  494MOL0     C65114   0.118  10.396   0.569 -0.1929 -0.4662 -0.0998
  494MOL0     C65115   0.028  10.280   0.550  0.2236  0.4331  0.4358
  494MOL0     C65116   0.018  10.253   0.400  0.4991 -0.0515  1.2286
  494MOL0     C65117  -0.082  10.141   0.382 -0.4474  0.7556 -0.2226
  494MOL0     C65118  -0.072  10.084   0.232  0.2682  0.5927 -0.0208
  494MOL0     C65119  -0.199  10.030   0.178  0.0315  0.3208 -0.0925
  494MOL0    Cl65120  -0.275   9.908   0.294 -0.2799 -0.1416 -0.1392
  494MOL0     C65121   0.568  10.550   0.667 -0.9319 -0.1995 -0.5994
  494MOL0     C65122   0.692  10.618   0.686  0.2400 -0.0940  0.1282
  494MOL0     O65123   0.769  10.959   0.870 -0.0216  0.0134 -0.9319
  494MOL0     C65124   1.089  10.794   0.871 -0.9703 -0.1661  1.1253
  494MOL0     C65125   1.219  10.810   0.917 -1.1211  0.5399 -0.1735
  494MOL0     N65126   1.865  11.195   0.855 -0.4644 -0.4702 -0.0267
  494MOL0     N65127   1.988  11.191   0.817  0.0746 -0.1834  0.5808
  494MOL0     C65128   2.993  10.984   1.544  0.1177 -0.2043  0.4654
  494MOL0     C65129   3.094  11.001   1.645  0.2842 -0.2273 -0.5366
  494MOL0     C65130   3.503  11.019   1.858 -0.1120 -0.1343 -0.6654
  494MOL0     C65131   3.560  10.913   1.930  0.4432 -0.4379 -0.1096
  494MOL0     C65132   3.680  10.924   2.003  0.4015  0.4950  0.4826
  494MOL0     C65133   3.757  11.034   1.984 -0.0042 -0.1490  0.3483
  494MOL0     O65134   3.877  11.047   2.044  0.0308  0.2402 -0.1886
  494MOL0     C65135   3.965  10.939   2.027 -0.1798 -0.4697  1.2615
  494MOL0     C65136   4.110  10.991   2.009 -0.0168  0.3296 -1.0206
  494MOL0     C65137   4.209  10.869   2.016 -0.0615  0.2426  0.7708
  494MOL0     C65138   4.336  10.905   1.933  1.2847  0.5784  0.0949
  494MOL0     C65139   4.427  10.796   1.940 -0.5413 -0.0281  0.6270
  494MOL0     C65140   4.515  10.710   1.929  0.5305 -0.2832  0.2764
  494MOL0     C65141   3.713  11.144   1.912  0.9469 -0.7725 -0.3704
  494MOL0     C65142   3.584  11.137   1.847 -0.0738 -0.4359  0.2986
  494MOL0     H65143   3.259  11.256   1.510 -0.2152  1.0418  0.1733
  494MOL0     H65144   3.112  11.238   1.346 -2.8058  1.7668  1.9719
  494MOL0     H65145   3.056  11.002   1.192 -0.3216  0.0990  0.4856
  494MOL0     H65146   2.966  11.148   1.155  4.1324  0.4033  0.8300
  494MOL0     H65147   2.867  10.851   1.147 -0.7158 -0.8221 -1.0331
  494MOL0     H65148   2.894  10.950   1.007 -1.8732 -3.1353 -0.9116
  494MOL0     H65149   2.719  11.111   1.127 -0.9353  0.0667  0.7027
  494MOL0     H65150   2.665  10.963   1.207  3.1787  0.0531  0.8837
  494MOL0     H65151   2.666  11.014   0.911  1.3250  0.9634  0.4144
  494MOL0     H65152   2.633  10.848   0.990 -1.4392 -0.0090 -3.2648
  494MOL0     H65153   2.469  11.095   1.045  1.5359 -0.2545  4.3496
  494MOL0     H65154   2.452  10.927   1.103 -0.8286  0.6965 -0.9256
  494MOL0     H65155   2.371  10.832   0.904 -0.5330 -0.3062 -2.7145
  494MOL0     H65156   2.403  10.981   0.810  0.0694  0.2044  0.8628
  494MOL0     H65157   2.160  10.926   0.920 -1.2667  1.8795 -0.6643
  494MOL0     H65158   2.241  10.971   1.068  0.8103  0.6518  1.1177
  494MOL0     H65159   2.262  11.159   0.821 -0.2436  3.3742  0.8223
  494MOL0     H65160   2.257  11.212   0.976  0.3198 -0.8212  1.4183
  494MOL0     H65161   2.025  11.124   1.135  2.3081  0.2514  0.3524
  494MOL0     H65162   1.721  11.265   1.109  1.1260 -0.5429 -0.9955
  494MOL0     H65163   1.760  11.111   1.177  1.2543  1.2277  1.3004
  494MOL0     H65164   1.604  11.153   0.906 -0.8881 -0.0197  0.5041
  494MOL0     H65165   1.528  11.152   1.061  0.0716 -0.2367  0.1358
  494MOL0     H65166   1.695  10.927   0.926 -2.0698 -2.8141 -1.1032
  494MOL0     H65167   1.659  10.930   1.095  2.5550  2.2136 -0.5543
  494MOL0     H65168   1.514  10.798   0.980 -2.1873 -0.5370 -1.0477
  494MOL0     H65169   1.473  10.931   0.854 -0.1625 -0.2508 -0.6167
  494MOL0     H65170   1.190  11.119   1.065  0.1088 -1.0681  1.0007
  494MOL0     H65171   0.951  11.075   1.008 -1.0014 -1.5048  1.2933
  494MOL0     H65172   0.605  10.781   0.974 -1.9748  0.9816 -0.8557
  494MOL0     H65173   0.392  10.681   0.924 -0.4440  3.7610 -1.9252
  494MOL0     H65174   0.208  10.640   0.640 -2.6026  0.2968  0.5440
  494MOL0     H65175   0.188  10.631   0.815 -0.6654 -0.3882  0.9503
  494MOL0     H65176   0.016  10.526   0.714  0.9505  1.2026 -3.6624
  494MOL0     H65177   0.113  10.385   0.779 -1.8222 -0.6157  0.3338
  494MOL0     H65178   0.220  10.358   0.559 -0.6805 -1.9290  0.2479
  494MOL0     H65179   0.105  10.471   0.490 -0.0514 -0.4725 -0.1290
  494MOL0     H65180   0.059  10.185   0.595  3.6861 -0.4593 -3.2697
  494MOL0     H65181  -0.068  10.320   0.585 -0.3989 -0.7976  0.1580
  494MOL0     H65182   0.108  10.212   0.353  0.4297  3.4380 -2.4091
  494MOL0     H65183  -0.017  10.339   0.343 -1.9013 -0.3760  2.0888
  494MOL0     H65184  -0.181  10.184   0.399  0.4474  1.8750  2.7904
  494MOL0     H65185  -0.073  10.061   0.456 -4.4566 -0.7486 -1.0761
  494MOL0     H65186  -0.039  10.165   0.167  0.5116 -0.0764 -0.7370
  494MOL0     H65187   0.013  10.015   0.235 -0.2328 -0.0455 -0.2880
  494MOL0     H65188  -0.171   9.980   0.085  0.2858 -3.4247  1.8030
  494MOL0     H65189  -0.262  10.115   0.151  1.8429  3.3674  4.1777
  494MOL0     H65190   0.546  10.477   0.590  0.1610  0.3687 -1.4706
  494MOL0     H65191   0.769  10.605   0.610  0.8388  2.3617  0.2429
  494MOL0     H65192   1.070  10.700   0.820  1.8228  0.5942 -1.5570
  494MOL0     H65193   1.291  10.730   0.903 -2.1771 -0.5126  0.2928
  494MOL0     H65194   2.900  10.933   1.569 -1.0066  1.4352 -0.1867
  494MOL0     H65195   3.091  10.929   1.726  1.8671 -0.4923 -0.6720
  494MOL0     H65196   3.495  10.826   1.937  0.0140 -0.2251 -1.2340
  494MOL0     H65197   3.712  10.832   2.051 -0.8845 -1.6839 -2.5288
  494MOL0     H65198   3.944  10.877   1.939  2.1776  0.7789 -0.3001
  494MOL0     H65199   3.960  10.863   2.106 -1.3664 -0.1356  1.5234
  494MOL0     H65200   4.109  11.043   1.913  2.6712 -1.2998 -2.0533
  494MOL0     H65201   4.128  11.068   2.084 -0.8909 -0.0610 -0.3829
  494MOL0     H65202   4.151  10.784   1.978 -2.2892  1.6079  0.9243
  494MOL0     H65203   4.241  10.862   2.120  0.4107  0.3806  0.6347
  494MOL0     H65204   4.309  10.921   1.829  3.4615  2.6725 -0.2276
  494MOL0     H65205   4.382  10.997   1.970  0.3664  0.5745  1.3284
  494MOL0     H65206   4.599  10.643   1.917  2.3829  2.1451 -1.4076
  494MOL0     H65207   3.760  11.241   1.897 -0.2575 -0.0405  0.4025
  494MOL0     H65208   3.539  11.216   1.789  1.6768 -0.0028 -0.5447
  495MOL0     O65209   2.717   2.450   9.177 -0.3817  0.9876 -0.1993
  495MOL0     C65210   2.691   2.568   9.181  1.0760  0.7610 -0.5832
  495MOL0     O65211   2.767   2.665   9.147  0.1153 -0.2207 -0.2202
  495MOL0     C65212   2.899   2.645   9.126  0.6440 -0.1791 -0.6701
  495MOL0     C65213   2.991   2.605   9.222 -0.1224 -1.2266 -0.6237
  495MOL0     C65214   3.130   2.595   9.192  0.0098 -0.6254  0.3230
  495MOL0     C65215   3.173   2.636   9.064 -0.0654 -0.4427  0.3103
  495MOL0     O65216   3.298   2.622   9.019  0.6938 -0.0941  0.1837
  495MOL0     C65217   3.406   2.613   9.104 -0.1894  0.0485  0.9532
  495MOL0     C65218   3.535   2.643   9.022 -0.3612  0.8550 -0.0656
  495MOL0     C65219   3.532   2.790   8.970 -0.1961  0.4236 -0.0869
  495MOL0     C65220   3.643   2.802   8.873  1.1902  0.2380 -0.4760
  495MOL0     C65221   3.644   2.937   8.810  0.6751 -0.1295 -1.0498
  495MOL0     C65222   3.772   2.935   8.712  0.3411 -0.2030  0.0558
  495MOL0     C65223   3.795   3.074   8.651 -0.0488 -0.7829  0.0373
  495MOL0     C65224   3.696   3.095   8.529 -0.4960  1.2735  0.4744
  495MOL0     N65225   3.682   3.233   8.499 -0.1363 -0.8925 -0.4678
  495MOL0     C65226   3.579   3.302   8.545 -0.1514 -0.9417  0.4108
  495MOL0     C65227   3.605   3.434   8.511 -0.5937 -0.6400 -0.0159
  495MOL0     C65228   3.530   3.565   8.508  0.6003  0.0951  0.7607
  495MOL0     C65229   3.420   3.564   8.398 -0.7374  0.2245 -0.2479
  495MOL0     C65230   3.348   3.693   8.420  0.1567  0.0760 -0.7943
  495MOL0     C65231   3.241   3.727   8.319  0.1790 -0.0074 -0.4276
  495MOL0     O65232   3.118   3.660   8.345 -0.0396  0.8346  0.1808
  495MOL0     C65233   3.004   3.701   8.278 -0.1279  0.1606 -0.4534
  495MOL0     C65234   2.983   3.785   8.175  0.2003 -1.0442  0.8253
  495MOL0     C65235   2.856   3.804   8.114 -0.5838  1.0627 -0.2614
  495MOL0     C65236   2.749   3.725   8.159  0.4907 -0.2570 -0.9259
  495MOL0     C65237   2.619   3.740   8.087 -0.6981 -0.9741  0.1895
  495MOL0     O65238   2.504   3.685   8.135 -0.1323 -0.6343  0.0069
  495MOL0     C65239   2.387   3.686   8.067 -0.4076  0.8172  0.2884
  495MOL0     C65240   2.344   3.781   7.972  0.6625  0.4731 -0.1612
  495MOL0     C65241   2.227   3.752   7.902 -0.2143  0.0964 -0.5456
  495MOL0     C65242   2.155   3.643   7.936  0.2384  1.0860  0.4930
  495MOL0     O65243   2.030   3.615   7.880 -0.1444  0.0274  0.2834
  495MOL0     C65244   1.968   3.675   7.767 -0.5260 -0.1258 -0.3666
  495MOL0     C65245   1.987   3.591   7.642  0.1023 -0.1741  0.0581
  495MOL0     C65246   2.143   3.565   7.613  0.0901 -0.1299 -0.8259
  495MOL0     C65247   2.167   3.480   7.486  0.7042 -0.4001 -0.6773
  495MOL0     C65248   2.312   3.459   7.450  0.1790 -0.0330 -0.3821
  495MOL0     C65249   2.328   3.377   7.319  0.2431 -1.0026 -0.9686
  495MOL0     C65250   2.473   3.366   7.268  0.6583 -0.2748  0.2781
  495MOL0     C65251   2.495   3.249   7.166  0.1895 -0.0101 -0.2605
  495MOL0    Cl65252   2.665   3.231   7.133 -0.0038 -0.1190 -0.5605
  495MOL0     C65253   2.198   3.549   8.027 -0.1048 -0.4466 -1.2842
  495MOL0     C65254   2.311   3.572   8.089 -0.7723 -0.2298  0.1035
  495MOL0     O65255   2.629   3.811   7.978 -0.3265  0.7001 -0.2864
  495MOL0     C65256   2.764   3.629   8.261 -0.1040  0.4759 -0.2289
  495MOL0     C65257   2.897   3.614   8.317  0.8456 -0.7515  0.0599
  495MOL0     N65258   3.719   3.431   8.435  0.9999 -0.2999  0.2007
  495MOL0     N65259   3.764   3.312   8.419  0.6714 -0.0415  0.1136
  495MOL0     C65260   3.086   2.672   8.963  0.6687  0.7108  0.4661
  495MOL0     C65261   2.950   2.672   9.000  0.4096 -0.0316  0.3849
  495MOL0     C65262   2.541   2.607   9.205  0.4151 -0.4841  0.1146
  495MOL0     C65263   2.444   2.506   9.191 -0.1474 -0.3284  0.5798
  495MOL0     C65264   2.318   2.539   9.165  0.8469 -0.3618 -0.0871
  495MOL0     C65265   2.271   2.669   9.171 -0.5062 -0.2777  0.2921
  495MOL0     O65266   2.153   2.715   9.127  1.1990 -1.2133 -0.1331
  495MOL0     C65267   2.049   2.612   9.098  0.3748  0.3110 -0.2821
  495MOL0     C65268   1.918   2.674   9.046 -0.7232  0.6415  0.7478
  495MOL0     C65269   1.836   2.743   9.157  0.3645 -0.6984 -0.9082
  495MOL0     C65270   1.876   2.887   9.213  0.5662  0.4109 -0.1004
  495MOL0     C65271   1.822   2.914   9.345 -0.5091  0.0456  0.5189
  495MOL0     C65272   1.785   2.929   9.461 -0.1560  0.3601  1.4846
  495MOL0     C65273   2.359   2.767   9.205  0.2663 -0.8017  0.0429
  495MOL0     C65274   2.496   2.740   9.215 -0.5294  0.8995 -0.1004
  495MOL0     H65275   2.951   2.587   9.321 -0.7033 -0.7799 -0.7723
  495MOL0     H65276   3.210   2.561   9.257  4.3203  1.4489 -3.3627
  495MOL0     H65277   3.415   2.512   9.146  2.1887 -1.1053 -1.9455
  495MOL0     H65278   3.398   2.685   9.186 -2.2035  0.2452  0.6300
  495MOL0     H65279   3.546   2.573   8.939  3.1746  1.0595  0.0831
  495MOL0     H65280   3.622   2.616   9.083  0.1702  0.2040 -1.0995
  495MOL0     H65281   3.531   2.861   9.053 -0.0917  1.1149 -0.6648
  495MOL0     H65282   3.441   2.808   8.913 -0.2580  0.0454 -0.1096
  495MOL0     H65283   3.737   2.767   8.916  1.5583  0.6281 -0.9492
  495MOL0     H65284   3.639   2.726   8.795  2.7597  0.8991 -1.2428
  495MOL0     H65285   3.641   3.016   8.885 -2.9364 -0.1956 -0.9062
  495MOL0     H65286   3.549   2.959   8.760 -0.6914 -0.2028  1.3491
  495MOL0     H65287   3.759   2.867   8.627  0.8835  1.7090 -1.6590
  495MOL0     H65288   3.861   2.912   8.770 -0.6828  0.9546  2.2153
  495MOL0     H65289   3.789   3.146   8.733 -1.3601 -2.1462  1.1928
  495MOL0     H65290   3.897   3.086   8.612  0.3676  0.8232  1.4798
  495MOL0     H65291   3.598   3.047   8.536  0.3431 -0.4668  0.8297
  495MOL0     H65292   3.749   3.042   8.449  1.6633  1.7046  1.5496
  495MOL0     H65293   3.493   3.273   8.604 -1.5731  1.6119 -0.2889
  495MOL0     H65294   3.592   3.653   8.491 -1.0419  0.9532 -1.2452
  495MOL0     H65295   3.481   3.579   8.604 -1.7529 -0.8164 -0.2268
  495MOL0     H65296   3.360   3.474   8.411  2.1343 -2.4445 -3.5968
  495MOL0     H65297   3.457   3.577   8.296 -1.0526  0.8617 -0.2900
  495MOL0     H65298   3.307   3.691   8.521  0.8690  0.7779 -0.4858
  495MOL0     H65299   3.423   3.772   8.419  0.6755 -0.2896 -4.4919
  495MOL0     H65300   3.282   3.720   8.218 -0.3189 -0.2819 -0.6150
  495MOL0     H65301   3.217   3.833   8.328 -0.0772 -0.2250  2.2818
  495MOL0     H65302   3.054   3.864   8.150 -0.8887 -0.3477 -0.1942
  495MOL0     H65303   2.843   3.873   8.031 -2.6586 -0.7674 -1.5951
  495MOL0     H65304   2.410   3.858   7.934 -0.6978  1.0386 -1.5044
  495MOL0     H65305   2.183   3.820   7.831 -0.1713 -1.7122 -2.3764
  495MOL0     H65306   2.002   3.778   7.749 -5.1759  1.2241 -2.9735
  495MOL0     H65307   1.864   3.678   7.799 -0.4814 -0.4661 -0.1854
  495MOL0     H65308   1.942   3.631   7.551  1.7750  2.2336  0.1631
  495MOL0     H65309   1.953   3.488   7.657  2.1372 -0.5205  3.5728
  495MOL0     H65310   2.207   3.524   7.691 -0.2176  0.4315 -0.2704
  495MOL0     H65311   2.193   3.659   7.587 -0.3069 -0.3027 -2.3758
  495MOL0     H65312   2.125   3.380   7.499 -0.3598 -0.0045 -0.9795
  495MOL0     H65313   2.118   3.532   7.404 -2.1019 -1.2929  0.3339
  495MOL0     H65314   2.358   3.395   7.526 -0.1664  1.7828  1.4506
  495MOL0     H65315   2.360   3.557   7.450  0.1923 -0.0329 -1.6466
  495MOL0     H65316   2.270   3.434   7.246 -0.7557 -1.4813 -0.5690
  495MOL0     H65317   2.296   3.273   7.331 -0.3180 -0.7724 -0.4340
  495MOL0     H65318   2.492   3.459   7.213 -2.4806 -1.1934 -2.7216
  495MOL0     H65319   2.547   3.350   7.347  1.3409 -2.0104 -0.6562
  495MOL0     H65320   2.440   3.269   7.073  1.7979  3.3210 -0.6422
  495MOL0     H65321   2.466   3.166   7.231 -0.6819  1.0261  0.7135
  495MOL0     H65322   2.139   3.462   8.053  0.8249 -0.7931 -0.2376
  495MOL0     H65323   2.352   3.500   8.159  0.5541  0.9336  0.5566
  495MOL0     H65324   2.693   3.556   8.296 -0.1187 -0.9347 -2.9475
  495MOL0     H65325   2.918   3.553   8.404  1.4669 -0.1490  0.3441
  495MOL0     H65326   3.118   2.703   8.864  1.7459  0.6111  0.7790
  495MOL0     H65327   2.871   2.714   8.938 -0.0603 -0.6051  0.5864
  495MOL0     H65328   2.472   2.405   9.163  1.0287  0.2713 -0.4969
  495MOL0     H65329   2.245   2.466   9.133  1.3850 -1.8718  1.9221
  495MOL0     H65330   2.008   2.567   9.189  0.8158 -0.2613 -0.3574
  495MOL0     H65331   2.081   2.529   9.034  0.9828 -0.2531  0.7053
  495MOL0     H65332   1.938   2.746   8.966  0.3071 -0.4332 -0.0076
  495MOL0     H65333   1.851   2.602   8.998  2.6849  0.6326 -5.0009
  495MOL0     H65334   1.852   2.689   9.251  1.2056 -0.6300 -1.0076
  495MOL0     H65335   1.731   2.746   9.126  1.2828 -0.3682 -4.3235
  495MOL0     H65336   1.985   2.886   9.226  0.6204  1.5146 -0.4165
  495MOL0     H65337   1.862   2.966   9.139  1.1507  1.3239  0.7399
  495MOL0     H65338   1.755   2.936   9.564 -1.5174 -0.7100  1.1884
  495MOL0     H65339   2.320   2.866   9.188 -0.7428 -1.2055 -0.0608
  495MOL0     H65340   2.564   2.825   9.224 -0.6066  0.7868  1.9454
  496MOL0     O65341   1.562   6.703   5.181 -0.1565  0.0923 -0.4948
  496MOL0     C65342   1.576   6.766   5.285 -0.4891  0.3467  1.2630
  496MOL0     O65343   1.477   6.838   5.340 -0.2737 -0.1287  0.0955
  496MOL0     C65344   1.373   6.877   5.256 -0.0060  0.3111 -0.6757
  496MOL0     C65345   1.374   7.004   5.189  0.9495  0.3200  0.0801
  496MOL0     C65346   1.267   7.035   5.104  0.1631 -0.6467 -0.8876
  496MOL0     C65347   1.160   6.951   5.082  0.7060  0.0472 -1.7770
  496MOL0     O65348   1.061   6.998   5.008  0.0464 -0.5006 -0.1673
  496MOL0     C65349   0.949   6.917   4.971  0.1579  0.2300 -0.0950
  496MOL0     C65350   0.875   6.984   4.849 -0.4977 -0.0960  0.1095
  496MOL0     C65351   0.863   7.139   4.869  0.7125  0.5184  0.1338
  496MOL0     C65352   0.820   7.187   4.727  0.3089 -0.0599 -0.0986
  496MOL0     C65353   0.746   7.322   4.748  0.3662  0.1379  0.1536
  496MOL0     C65354   0.615   7.312   4.821  0.4235 -0.2133  0.5036
  496MOL0     C65355   0.527   7.221   4.735  0.4784  0.0670  0.3462
  496MOL0     C65356   0.385   7.263   4.752 -0.1464 -0.3985  0.3387
  496MOL0     N65357   0.289   7.157   4.709  0.4388  0.4915 -0.5644
  496MOL0     C65358   0.291   7.100   4.584  0.2754 -0.3504 -0.4044
  496MOL0     C65359   0.198   7.006   4.589 -0.3637 -0.6321 -0.2556
  496MOL0     C65360   0.160   6.911   4.477 -0.7397 -0.0368  1.5366
  496MOL0     C65361   0.051   6.967   4.395 -0.0720  0.1390 -0.3520
  496MOL0     C65362  -0.088   6.957   4.462  0.4098  0.2275  0.7270
  496MOL0     C65363  -0.201   6.951   4.357  0.4097  0.1534 -0.2582
  496MOL0     O65364  -0.176   7.057   4.261 -0.1432  0.5477 -0.3571
  496MOL0     C65365  -0.261   7.061   4.147  0.2851  0.3874  0.2647
  496MOL0     C65366  -0.389   6.991   4.145 -0.2054 -0.1263 -0.2915
  496MOL0     C65367  -0.472   7.011   4.036 -0.6907 -0.6692 -0.2994
  496MOL0     C65368  -0.422   7.068   3.917 -0.6584 -0.1881 -1.3456
  496MOL0     C65369  -0.504   7.085   3.793 -0.4450  0.0552 -0.1301
  496MOL0     O65370  -0.473   7.169   3.697 -0.1216 -0.5127  0.7386
  496MOL0     C65371  -0.560   7.152   3.588  0.1810 -0.0105  0.6564
  496MOL0     C65372  -0.675   7.231   3.602  0.2753 -0.3805  1.0385
  496MOL0     C65373  -0.750   7.253   3.484  0.4721  0.2761 -0.0989
  496MOL0     C65374  -0.721   7.172   3.367  0.6385 -0.1205  0.0304
  496MOL0     O65375  -0.796   7.175   3.245 -0.4716 -0.5056 -0.7508
  496MOL0     C65376  -0.914   7.264   3.245 -0.3176 -0.4419 -0.6918
  496MOL0     C65377  -1.013   7.225   3.140  0.4050  0.6733 -0.2515
  496MOL0     C65378  -1.075   7.082   3.156 -1.5447 -0.1904 -0.3370
  496MOL0     C65379  -1.193   7.076   3.256 -0.6568 -0.5229  0.3266
  496MOL0     C65380  -1.241   6.936   3.271  0.5874 -0.8353  1.0783
  496MOL0     C65381  -1.324   6.918   3.403 -0.5619  0.2885 -0.4606
  496MOL0     C65382  -1.356   6.770   3.421  1.1750  0.9910  0.8147
  496MOL0     C65383  -1.438   6.748   3.555  0.4116 -0.5312  0.5505
  496MOL0    Cl65384  -1.610   6.740   3.514 -0.0849  0.4276 -0.1706
  496MOL0     C65385  -0.604   7.091   3.366  0.2408 -0.4223 -0.1642
  496MOL0     C65386  -0.525   7.084   3.473  1.2737 -0.3498  0.2523
  496MOL0     O65387  -0.609   7.021   3.800  0.2955 -0.3928  0.1275
  496MOL0     C65388  -0.290   7.116   3.919  0.2757 -0.3493  0.2217
  496MOL0     C65389  -0.208   7.112   4.028 -1.2425 -0.7697  0.0060
  496MOL0     N65390   0.140   7.002   4.718  0.0620 -0.2272 -0.0665
  496MOL0     N65391   0.198   7.093   4.796 -0.5791 -0.4767  0.1781
  496MOL0     C65392   1.165   6.819   5.142 -0.3505 -0.2398  0.6011
  496MOL0     C65393   1.277   6.790   5.224  0.3912 -0.5071  0.1337
  496MOL0     C65394   1.709   6.765   5.359  0.6572 -0.0577  0.3737
  496MOL0     C65395   1.736   6.859   5.456 -0.7153  0.3362  0.8826
  496MOL0     C65396   1.868   6.871   5.503  0.2430 -0.7786 -0.4843
  496MOL0     C65397   1.975   6.824   5.429 -0.1303  0.1835  0.4706
  496MOL0     O65398   2.101   6.854   5.480 -0.3009  0.4434  0.5616
  496MOL0     C65399   2.217   6.811   5.408  0.0834 -0.5532  0.3084
  496MOL0     C65400   2.341   6.812   5.503 -0.6575  0.0227 -0.1299
  496MOL0     C65401   2.358   6.936   5.585  0.1368 -0.5931 -0.9543
  496MOL0     C65402   2.327   7.067   5.503  0.2577  0.2609 -0.2897
  496MOL0     C65403   2.369   7.201   5.557  0.5040 -0.5856 -0.0493
  496MOL0     C65404   2.381   7.319   5.587  0.1083 -0.2351 -0.3144
  496MOL0     C65405   1.952   6.735   5.326 -0.0933 -0.0484 -0.1665
  496MOL0     C65406   1.816   6.703   5.294  0.3949  0.4687 -0.5086
  496MOL0     H65407   1.453   7.074   5.215  1.1939  0.2824 -0.5348
  496MOL0     H65408   1.267   7.138   5.070 -1.5025 -0.3915 -0.2236
  496MOL0     H65409   0.877   6.918   5.053 -0.1351  3.7363 -0.2582
  496MOL0     H65410   0.976   6.818   4.932  0.2403  0.4193 -0.5243
  496MOL0     H65411   0.777   6.939   4.830 -0.0321 -0.2335 -2.3598
  496MOL0     H65412   0.930   6.975   4.755 -2.2867 -2.3200 -0.8323
  496MOL0     H65413   0.960   7.184   4.895  0.8588 -0.0608  0.6060
  496MOL0     H65414   0.793   7.163   4.949  0.5968 -1.5023  0.6970
  496MOL0     H65415   0.909   7.196   4.664 -0.7658 -2.1042 -2.0614
  496MOL0     H65416   0.751   7.121   4.674 -1.5320  0.8553  1.0758
  496MOL0     H65417   0.730   7.365   4.649  3.6308  0.2439 -0.4419
  496MOL0     H65418   0.812   7.395   4.797 -0.2501  1.4777 -0.9515
  496MOL0     H65419   0.577   7.414   4.827  0.3727 -0.1517 -0.5745
  496MOL0     H65420   0.627   7.260   4.916 -1.7711 -1.5332  0.1101
  496MOL0     H65421   0.562   7.215   4.631 -1.8055  0.0765 -0.4800
  496MOL0     H65422   0.522   7.119   4.772 -1.3977 -0.1571 -0.4242
  496MOL0     H65423   0.375   7.362   4.707  0.4961  0.4162  1.9121
  496MOL0     H65424   0.366   7.269   4.859 -0.4230 -3.6605  0.5731
  496MOL0     H65425   0.352   7.124   4.498  0.8667  0.9970  0.3580
  496MOL0     H65426   0.129   6.810   4.507 -1.1334 -0.9712 -1.6056
  496MOL0     H65427   0.249   6.903   4.413 -1.9314 -2.5311  0.0072
  496MOL0     H65428   0.054   6.901   4.307  0.9555 -2.2627  1.3813
  496MOL0     H65429   0.066   7.070   4.360 -1.6411  1.4844  2.5945
  496MOL0     H65430  -0.096   6.864   4.518  1.5742  0.8519  1.9810
  496MOL0     H65431  -0.115   7.033   4.536  1.2570  0.1943  1.0815
  496MOL0     H65432  -0.291   6.965   4.417  1.1399 -0.2782  0.9681
  496MOL0     H65433  -0.209   6.853   4.309  2.6905 -1.8182  2.9992
  496MOL0     H65434  -0.416   6.927   4.228  0.1365  2.2599  1.7507
  496MOL0     H65435  -0.564   6.956   4.056  0.6746 -3.3765 -0.9319
  496MOL0     H65436  -0.698   7.285   3.694 -1.3963 -0.9099  0.9671
  496MOL0     H65437  -0.830   7.326   3.487  0.1602  0.0352  4.0546
  496MOL0     H65438  -0.875   7.362   3.216  0.0609 -0.0746  0.9570
  496MOL0     H65439  -0.971   7.265   3.338 -2.3959 -0.3776 -1.8945
  496MOL0     H65440  -0.958   7.221   3.046 -2.6270  0.8053 -2.1650
  496MOL0     H65441  -1.088   7.304   3.138  0.5151  0.9944  2.7386
  496MOL0     H65442  -0.995   7.011   3.182 -1.6721 -1.4257 -2.9935
  496MOL0     H65443  -1.120   7.046   3.064 -1.0679 -0.5107 -0.4474
  496MOL0     H65444  -1.154   7.125   3.346 -1.8013 -0.4346  0.7890
  496MOL0     H65445  -1.274   7.136   3.213 -0.0994  1.1251  1.4689
  496MOL0     H65446  -1.148   6.880   3.286  1.9618  1.1681  0.4387
  496MOL0     H65447  -1.301   6.912   3.182  2.2721 -0.9430 -0.0728
  496MOL0     H65448  -1.410   6.986   3.413  1.0788  2.5649 -1.0378
  496MOL0     H65449  -1.252   6.944   3.481  0.9337 -0.7847 -1.4429
  496MOL0     H65450  -1.410   6.726   3.336 -0.0045  0.4067  1.8316
  496MOL0     H65451  -1.258   6.724   3.435  0.7605  0.1341  0.9610
  496MOL0     H65452  -1.413   6.835   3.618 -0.8334  1.5382 -1.6654
  496MOL0     H65453  -1.413   6.653   3.602  0.4405 -1.2067 -0.7985
  496MOL0     H65454  -0.554   7.065   3.273  3.0583  1.8022  0.5993
  496MOL0     H65455  -0.427   7.039   3.480 -0.0661 -3.6337 -0.3264
  496MOL0     H65456  -0.240   7.166   3.837  3.3437  2.2238  3.3464
  496MOL0     H65457  -0.101   7.132   4.022 -1.6704  1.6412 -0.4575
  496MOL0     H65458   1.110   6.731   5.113 -0.0281 -0.4174  0.5201
  496MOL0     H65459   1.305   6.692   5.262 -1.8313 -1.0259  0.5637
  496MOL0     H65460   1.664   6.908   5.521 -1.2686 -1.6850  1.8816
  496MOL0     H65461   1.894   6.933   5.588  2.2905 -0.1234 -1.5253
  496MOL0     H65462   2.235   6.874   5.321  0.4439 -1.5653 -0.3636
  496MOL0     H65463   2.222   6.706   5.378 -1.1431 -0.6967  0.5435
  496MOL0     H65464   2.341   6.727   5.572  1.8512  0.0307 -0.0500
  496MOL0     H65465   2.423   6.809   5.431 -1.8548  2.7247 -1.7691
  496MOL0     H65466   2.458   6.954   5.627 -0.3085  3.1687 -1.1482
  496MOL0     H65467   2.290   6.927   5.670 -0.3801  0.2347 -1.2702
  496MOL0     H65468   2.387   7.062   5.411  0.0499 -1.3151 -0.3601
  496MOL0     H65469   2.223   7.076   5.471  0.2898 -0.9406 -0.7785
  496MOL0     H65470   2.386   7.422   5.613 -2.0115 -0.3043  0.5839
  496MOL0     H65471   2.026   6.683   5.266 -1.1864  0.1715 -1.7958
  496MOL0     H65472   1.802   6.615   5.231 -0.8944  0.2544  0.0402
  497MOL0     O65473   5.289   3.409   7.355 -0.6747  0.9371 -0.0191
  497MOL0     C65474   5.269   3.289   7.343  0.0905 -0.4678  0.0131
  497MOL0     O65475   5.143   3.233   7.350  0.0585  0.3158 -0.6193
  497MOL0     C65476   5.043   3.311   7.400 -0.0140 -0.7275 -0.0909
  497MOL0     C65477   4.909   3.317   7.348  0.1615  0.6345  0.2748
  497MOL0     C65478   4.804   3.387   7.402 -0.9349  0.1198 -0.1103
  497MOL0     C65479   4.824   3.438   7.532 -0.3959 -0.3636  0.6424
  497MOL0     O65480   4.723   3.499   7.602  1.0035 -0.0523  0.0753
  497MOL0     C65481   4.586   3.505   7.544 -0.2060 -0.4123 -0.3947
  497MOL0     C65482   4.495   3.596   7.625 -0.1610  0.2979  0.0525
  497MOL0     C65483   4.356   3.600   7.566  0.0229 -0.2972  0.1601
  497MOL0     C65484   4.279   3.711   7.618 -0.4558 -0.4415  0.3589
  497MOL0     C65485   4.150   3.721   7.536 -0.7562  0.7090 -0.1194
  497MOL0     C65486   4.045   3.808   7.603 -0.7652  0.4149  0.7018
  497MOL0     C65487   3.924   3.828   7.512  0.2246 -0.1790 -0.3507
  497MOL0     C65488   3.815   3.903   7.598  0.3291  0.8219 -0.0983
  497MOL0     N65489   3.728   3.977   7.505  1.0504 -0.0936  0.8094
  497MOL0     C65490   3.731   4.105   7.450 -0.2001  0.0415  0.2545
  497MOL0     C65491   3.672   4.097   7.323 -0.0090  0.0558 -0.1762
  497MOL0     C65492   3.637   4.216   7.235 -0.3119  0.2387 -0.3953
  497MOL0     C65493   3.511   4.279   7.291  0.7590  0.5973  0.4196
  497MOL0     C65494   3.465   4.392   7.212  1.5111  1.2451  0.4979
  497MOL0     C65495   3.323   4.431   7.259  0.4105 -0.7011 -0.3410
  497MOL0     O65496   3.263   4.517   7.166  0.0983  0.1423 -0.0492
  497MOL0     C65497   3.131   4.489   7.143  0.2825 -0.9140 -0.3860
  497MOL0     C65498   3.036   4.556   7.221 -0.1752  0.5404 -0.2059
  497MOL0     C65499   2.897   4.541   7.188 -0.0296  0.1653 -0.7914
  497MOL0     C65500   2.860   4.434   7.102  0.2099  0.6433 -0.2413
  497MOL0     C65501   2.717   4.426   7.054  0.2800 -0.2760  0.2338
  497MOL0     O65502   2.624   4.522   7.087  0.4040  0.1106  0.4583
  497MOL0     C65503   2.493   4.533   7.025  0.1467 -0.1369 -0.2300
  497MOL0     C65504   2.405   4.608   7.094  1.4409  0.6922 -0.5681
  497MOL0     C65505   2.270   4.622   7.043  0.4293 -0.5675  0.5820
  497MOL0     C65506   2.230   4.568   6.918 -0.3575 -0.1856 -0.1797
  497MOL0     O65507   2.100   4.588   6.877  0.0559 -0.1645  0.0174
  497MOL0     C65508   2.055   4.518   6.755 -0.2289  0.3415 -0.2676
  497MOL0     C65509   1.903   4.521   6.756  1.0100 -0.3867 -0.3479
  497MOL0     C65510   1.823   4.477   6.880 -0.1898  0.6005 -0.6419
  497MOL0     C65511   1.668   4.487   6.840  0.4419  0.4440  0.6852
  497MOL0     C65512   1.588   4.461   6.968 -0.1895  0.5590 -0.4686
  497MOL0     C65513   1.444   4.503   6.966  0.0743  0.3118  0.1901
  497MOL0     C65514   1.361   4.392   6.895  0.2331 -1.0382 -0.0815
  497MOL0     C65515   1.215   4.372   6.938 -0.2828  0.1621 -0.2987
  497MOL0    Cl65516   1.139   4.250   6.835  0.1373  0.3205 -0.1161
  497MOL0     C65517   2.330   4.497   6.841 -0.3928  0.3549 -0.7445
  497MOL0     C65518   2.462   4.476   6.896 -0.5412 -1.4903  0.1865
  497MOL0     O65519   2.694   4.325   6.984  0.1969 -0.2737  1.3193
  497MOL0     C65520   2.955   4.356   7.034 -0.1788 -0.3913 -0.2908
  497MOL0     C65521   3.089   4.383   7.061 -0.1623 -0.0323 -0.0298
  497MOL0     N65522   3.621   3.970   7.308 -0.4041 -0.2106  0.0680
  497MOL0     N65523   3.648   3.906   7.419  1.1862  0.0286 -0.3191
  497MOL0     C65524   4.953   3.443   7.590 -0.3555 -0.7016  0.9126
  497MOL0     C65525   5.057   3.376   7.523 -0.1540 -0.5590 -0.6442
  497MOL0     C65526   5.380   3.181   7.327 -0.0020 -0.3568 -0.2939
  497MOL0     C65527   5.514   3.218   7.322  0.2587  0.7530 -0.4486
  497MOL0     C65528   5.610   3.130   7.266 -1.0528  1.2004 -0.1317
  497MOL0     C65529   5.578   2.999   7.226 -0.5092 -0.5158  1.0466
  497MOL0     O65530   5.680   2.926   7.177 -0.4321  0.2033 -0.8684
  497MOL0     C65531   5.723   2.829   7.272 -0.4099  0.0761  0.8157
  497MOL0     C65532   5.754   2.698   7.200 -0.3528 -0.1463  0.7402
  497MOL0     C65533   5.806   2.600   7.307 -0.1058 -0.1127 -0.4064
  497MOL0     C65534   5.764   2.461   7.274 -0.6639 -0.1197  0.7463
  497MOL0     C65535   5.830   2.429   7.147  0.5134 -0.5681  0.2994
  497MOL0     C65536   5.864   2.418   7.032  0.2983  0.1681 -0.4653
  497MOL0     C65537   5.446   2.963   7.232 -0.1454  0.2012 -0.5500
  497MOL0     C65538   5.349   3.049   7.284  0.0472 -0.3566  0.9015
  497MOL0     H65539   4.902   3.255   7.260  0.1847 -1.3685  1.6349
  497MOL0     H65540   4.714   3.397   7.342 -1.5574 -0.7182  0.6586
  497MOL0     H65541   4.541   3.405   7.544 -2.0517  0.3588  0.3574
  497MOL0     H65542   4.586   3.545   7.442 -0.9639  1.3531  0.2610
  497MOL0     H65543   4.539   3.696   7.633 -1.9660  1.3692 -2.1534
  497MOL0     H65544   4.512   3.559   7.726  3.7577 -0.9481 -0.9081
  497MOL0     H65545   4.311   3.512   7.611 -2.3635  1.3832  1.3117
  497MOL0     H65546   4.357   3.605   7.456 -1.9657 -2.3992 -0.0265
  497MOL0     H65547   4.260   3.707   7.726  0.3206  2.4610  0.7131
  497MOL0     H65548   4.338   3.802   7.599  1.9864 -2.1345 -0.7071
  497MOL0     H65549   4.104   3.622   7.538  0.1713  0.2483  2.5391
  497MOL0     H65550   4.168   3.757   7.434 -3.5908 -1.0167 -1.3309
  497MOL0     H65551   4.101   3.901   7.613 -2.6694  1.8392 -1.0983
  497MOL0     H65552   4.011   3.770   7.700 -0.6273 -0.2887  0.4850
  497MOL0     H65553   3.942   3.888   7.422 -1.5091  1.0539  0.0759
  497MOL0     H65554   3.889   3.731   7.477 -0.2922 -0.5005  1.0113
  497MOL0     H65555   3.865   3.975   7.664  2.0944  1.3061 -1.8552
  497MOL0     H65556   3.771   3.824   7.659 -0.6329  1.4276  0.0105
  497MOL0     H65557   3.784   4.190   7.492 -4.2057  1.4309  3.1248
  497MOL0     H65558   3.636   4.180   7.132  1.9229  1.6811 -0.9847
  497MOL0     H65559   3.716   4.291   7.243 -1.5922  2.0061 -3.1320
  497MOL0     H65560   3.534   4.321   7.389  1.4298  0.8001  0.1838
  497MOL0     H65561   3.430   4.206   7.301  1.0186  0.4870  1.9389
  497MOL0     H65562   3.542   4.470   7.217  1.4146  1.2722  2.0418
  497MOL0     H65563   3.455   4.366   7.106 -2.3292 -0.5147  1.1464
  497MOL0     H65564   3.334   4.485   7.354  0.2698 -2.4951  0.7222
  497MOL0     H65565   3.254   4.349   7.279  0.9942 -1.8124 -2.6043
  497MOL0     H65566   3.064   4.616   7.307  3.2239  1.0826 -1.5584
  497MOL0     H65567   2.816   4.601   7.229 -0.8386  0.5217 -2.7657
  497MOL0     H65568   2.419   4.640   7.197 -0.7353  1.3149 -0.4161
  497MOL0     H65569   2.192   4.678   7.095  1.2347 -0.0826  1.2908
  497MOL0     H65570   2.083   4.412   6.762  2.3108  0.9117 -0.8697
  497MOL0     H65571   2.096   4.553   6.660  3.0463 -0.6230  0.6826
  497MOL0     H65572   1.872   4.451   6.678  3.0044  0.5996 -2.1361
  497MOL0     H65573   1.851   4.614   6.730 -1.2029 -1.1998  0.9638
  497MOL0     H65574   1.847   4.555   6.953 -0.3610  1.0195 -1.0196
  497MOL0     H65575   1.849   4.376   6.912 -1.2735  0.6715  0.5419
  497MOL0     H65576   1.647   4.592   6.819  2.6956  0.4279 -2.1861
  497MOL0     H65577   1.655   4.416   6.758  2.7209  2.1064 -1.2546
  497MOL0     H65578   1.639   4.512   7.052 -0.1825 -1.1269  0.5958
  497MOL0     H65579   1.592   4.354   6.987 -0.6390  0.7309  0.6658
  497MOL0     H65580   1.421   4.605   6.933  1.3165  0.6633  0.3717
  497MOL0     H65581   1.424   4.512   7.073 -0.4641  0.3166  0.0960
  497MOL0     H65582   1.361   4.419   6.789 -1.4301  0.0924  0.1660
  497MOL0     H65583   1.405   4.292   6.909 -0.1404 -0.8294  3.5447
  497MOL0     H65584   1.167   4.470   6.945  2.7548  1.6748  1.0302
  497MOL0     H65585   1.220   4.319   7.033  0.7812 -2.5469 -1.7558
  497MOL0     H65586   2.315   4.445   6.747  2.0556  0.5881 -1.3531
  497MOL0     H65587   2.543   4.441   6.834  0.8946  0.4223  0.8645
  497MOL0     H65588   2.926   4.284   6.959 -0.6625  0.2216 -0.7088
  497MOL0     H65589   3.167   4.323   7.014 -0.3546  0.3756 -0.8952
  497MOL0     H65590   4.964   3.496   7.684  2.6203 -0.3850  0.4782
  497MOL0     H65591   5.157   3.367   7.565  0.0564  0.3884 -0.9163
  497MOL0     H65592   5.532   3.316   7.366 -0.3475 -0.3434  2.5039
  497MOL0     H65593   5.705   3.180   7.250 -0.1442 -0.1965  0.7320
  497MOL0     H65594   5.651   2.804   7.350  1.6435 -5.3049  1.3876
  497MOL0     H65595   5.815   2.876   7.307  1.3199  1.5426 -4.6676
  497MOL0     H65596   5.665   2.663   7.148 -0.4766 -0.2963  1.0534
  497MOL0     H65597   5.835   2.723   7.130 -0.2659  2.9632  1.7740
  497MOL0     H65598   5.766   2.630   7.405  1.6911  0.6374  0.1348
  497MOL0     H65599   5.914   2.606   7.319 -0.3083 -1.7249  4.2435
  497MOL0     H65600   5.794   2.394   7.355 -0.7676  0.9257  1.6761
  497MOL0     H65601   5.655   2.465   7.277 -0.6913  2.5496 -0.3715
  497MOL0     H65602   5.875   2.399   6.927  3.0276 -0.1396 -0.1770
  497MOL0     H65603   5.425   2.863   7.194 -0.0841 -0.1187  0.2408
  497MOL0     H65604   5.247   3.012   7.273 -0.8257  1.5051  2.2699
  498MOL0     O65605   8.137   1.013   3.798  0.4195  0.1217 -0.7280
  498MOL0     C65606   8.106   1.028   3.686  0.0422  0.0356  0.4536
  498MOL0     O65607   8.192   1.034   3.575  0.2088 -0.7396 -1.0301
  498MOL0     C65608   8.306   0.962   3.591  0.3172  0.5977 -0.7070
  498MOL0     C65609   8.419   0.999   3.518  0.4165  0.1265  0.9491
  498MOL0     C65610   8.548   0.943   3.528 -0.1426 -0.6242  0.1060
  498MOL0     C65611   8.561   0.835   3.613 -0.7755  0.1849 -0.2572
  498MOL0     O65612   8.687   0.783   3.629  0.3168  0.6468  0.1195
  498MOL0     C65613   8.712   0.704   3.754  0.0677  0.2829  1.5517
  498MOL0     C65614   8.717   0.557   3.707 -0.5669 -0.4415 -0.4149
  498MOL0     C65615   8.650   0.520   3.581 -0.1279  0.8881 -0.7888
  498MOL0     C65616   8.667   0.375   3.538  0.1368 -0.5038 -0.6808
  498MOL0     C65617   8.602   0.340   3.411 -0.8350  0.3771 -0.1803
  498MOL0     C65618   8.450   0.361   3.402  0.7049 -0.2048 -0.4386
  498MOL0     C65619   8.373   0.336   3.282 -0.2897  0.0898  0.3541
  498MOL0     C65620   8.226   0.359   3.316 -0.1394  0.7925  0.1858
  498MOL0     N65621   8.123   0.327   3.212 -0.1384  0.6542  0.0373
  498MOL0     C65622   8.107   0.403   3.098  0.5736  1.2784  0.7656
  498MOL0     C65623   7.994   0.361   3.036  0.1213  0.1501  0.1224
  498MOL0     C65624   7.940   0.426   2.907  0.3508 -0.1121  0.2402
  498MOL0     C65625   7.786   0.417   2.900 -0.8864 -0.2014  0.7519
  498MOL0     C65626   7.736   0.513   2.792  0.3381 -0.1798  0.2413
  498MOL0     C65627   7.578   0.509   2.789  0.3537 -0.0460  0.4422
  498MOL0     O65628   7.534   0.603   2.685  0.3334  0.0141  0.2376
  498MOL0     C65629   7.403   0.596   2.643  0.1903  1.2042 -0.1721
  498MOL0     C65630   7.364   0.667   2.533 -0.8054  0.3567  0.3757
  498MOL0     C65631   7.233   0.688   2.495  0.1207 -0.2199  0.5403
  498MOL0     C65632   7.130   0.618   2.559 -0.2373  0.1751 -0.6051
  498MOL0     C65633   6.983   0.629   2.517 -0.5172  0.2442 -0.2465
  498MOL0     O65634   6.894   0.595   2.615 -0.3860  0.0331  0.0998
  498MOL0     C65635   6.764   0.593   2.572  0.1455 -0.2806  0.2774
  498MOL0     C65636   6.682   0.705   2.607 -0.2852  0.5776  0.0810
  498MOL0     C65637   6.553   0.706   2.554 -0.1059  0.9670  0.5799
  498MOL0     C65638   6.502   0.602   2.468  0.4706  0.0271  0.5352
  498MOL0     O65639   6.367   0.594   2.412 -0.1212 -0.4957 -0.0250
  498MOL0     C65640   6.273   0.641   2.510  0.2993  0.1268 -0.9670
  498MOL0     C65641   6.129   0.609   2.454 -0.2114  0.4513 -0.6663
  498MOL0     C65642   6.102   0.675   2.310 -0.2484 -1.0515  0.9313
  498MOL0     C65643   5.958   0.640   2.267  0.0716  0.2159 -0.4361
  498MOL0     C65644   5.949   0.509   2.207  0.4155 -0.0186 -1.1086
  498MOL0     C65645   5.812   0.461   2.175  0.3592 -0.6113 -0.3923
  498MOL0     C65646   5.810   0.340   2.081 -0.0885  0.0655 -0.4694
  498MOL0     C65647   5.881   0.220   2.150 -0.0327 -0.7366  0.1811
  498MOL0    Cl65648   5.851   0.071   2.062 -0.1566 -0.0965 -0.0529
  498MOL0     C65649   6.582   0.496   2.441 -0.6928  0.0526 -0.2599
  498MOL0     C65650   6.709   0.494   2.492  0.2836 -0.5269  0.5113
  498MOL0     O65651   6.961   0.677   2.411 -0.2233 -0.2986  0.5297
  498MOL0     C65652   7.173   0.526   2.668  0.6412 -0.2174  0.4018
  498MOL0     C65653   7.304   0.524   2.709  0.7136 -0.2974  0.2756
  498MOL0     N65654   7.948   0.245   3.105  0.7014 -0.4833  0.1683
  498MOL0     N65655   8.030   0.232   3.210 -0.2211  0.3106  0.2212
  498MOL0     C65656   8.441   0.783   3.674  0.2650  0.4175 -0.2559
  498MOL0     C65657   8.321   0.850   3.668  0.0363  0.3399 -0.6753
  498MOL0     C65658   7.964   1.077   3.667 -0.1678  0.3282 -0.3368
  498MOL0     C65659   7.920   1.125   3.549  0.8235  0.4409 -0.2815
  498MOL0     C65660   7.776   1.151   3.534  0.1003 -0.1107  0.0997
  498MOL0     C65661   7.685   1.144   3.643  0.2547 -0.7177  1.0896
  498MOL0     O65662   7.558   1.178   3.602  0.4014 -0.5272  0.4104
  498MOL0     C65663   7.458   1.189   3.704 -0.1783  0.3855 -0.8875
  498MOL0     C65664   7.468   1.316   3.800  0.1664 -0.9759 -0.4158
  498MOL0     C65665   7.329   1.365   3.855  0.0229  1.2717  1.0213
  498MOL0     C65666   7.349   1.494   3.934  0.4236  0.0535  0.0842
  498MOL0     C65667   7.217   1.556   3.944  0.0771 -0.0397 -0.7851
  498MOL0     C65668   7.108   1.614   3.930  0.3882  0.4616  0.1837
  498MOL0     C65669   7.737   1.118   3.769 -0.2664 -0.7570 -0.2560
  498MOL0     C65670   7.872   1.083   3.779  0.2046 -0.6717 -1.1523
  498MOL0     H65671   8.399   1.079   3.447  3.4182 -0.8623 -1.2515
  498MOL0     H65672   8.628   0.986   3.468 -0.5126  0.5390  0.4236
  498MOL0     H65673   8.637   0.726   3.830 -0.7782  4.2991 -0.1966
  498MOL0     H65674   8.809   0.728   3.800  1.8623 -1.5328 -0.9714
  498MOL0     H65675   8.678   0.501   3.793 -0.0802 -2.6586 -1.5786
  498MOL0     H65676   8.821   0.527   3.696 -0.4795 -1.1365  1.8115
  498MOL0     H65677   8.692   0.583   3.502  0.5274  0.0322 -1.1430
  498MOL0     H65678   8.544   0.543   3.595 -0.2752  0.6629 -1.4643
  498MOL0     H65679   8.774   0.356   3.539  0.3876  0.1687  3.4289
  498MOL0     H65680   8.624   0.304   3.609  4.9283 -3.3017 -0.1916
  498MOL0     H65681   8.633   0.237   3.386  1.6026  0.6878  1.2010
  498MOL0     H65682   8.654   0.407   3.342  1.0734  0.1843  0.9882
  498MOL0     H65683   8.429   0.466   3.428 -3.4806 -0.8268 -0.6664
  498MOL0     H65684   8.407   0.296   3.478  2.6936  0.7013  1.6071
  498MOL0     H65685   8.404   0.396   3.196 -1.9650  0.6993  0.1414
  498MOL0     H65686   8.397   0.232   3.256  0.3443  0.6449 -1.4296
  498MOL0     H65687   8.204   0.464   3.338 -1.4071  0.0227  3.1358
  498MOL0     H65688   8.213   0.297   3.405  3.4904 -1.9217 -0.9578
  498MOL0     H65689   8.180   0.474   3.060  1.2825  0.2966  0.2493
  498MOL0     H65690   7.977   0.391   2.810  0.1502  1.7347 -0.5287
  498MOL0     H65691   7.981   0.527   2.915 -1.1410  0.3778  4.3353
  498MOL0     H65692   7.755   0.433   3.004  1.1870 -2.0845  1.7364
  498MOL0     H65693   7.759   0.316   2.869  1.8350 -1.3343  1.7490
  498MOL0     H65694   7.781   0.612   2.805  0.1977  0.1437 -1.5326
  498MOL0     H65695   7.770   0.471   2.697  2.4106 -1.0171  1.2931
  498MOL0     H65696   7.534   0.538   2.885  1.0491 -0.1619  0.8061
  498MOL0     H65697   7.554   0.404   2.770  0.5094 -0.2870  1.5065
  498MOL0     H65698   7.444   0.726   2.492 -2.0360  2.8032  1.2822
  498MOL0     H65699   7.205   0.767   2.425  2.7787 -0.3181 -0.7338
  498MOL0     H65700   6.729   0.787   2.660 -0.1914 -0.5672  1.8809
  498MOL0     H65701   6.502   0.800   2.573  1.7740  2.7881 -2.4133
  498MOL0     H65702   6.266   0.748   2.531 -4.7155  0.1277 -1.3621
  498MOL0     H65703   6.298   0.594   2.605 -0.3047  1.6598 -0.0337
  498MOL0     H65704   6.059   0.640   2.532  0.8452 -2.8507  1.7841
  498MOL0     H65705   6.119   0.500   2.448  3.8068 -0.1113  0.2135
  498MOL0     H65706   6.175   0.641   2.237 -2.0507  3.6237 -3.6965
  498MOL0     H65707   6.115   0.783   2.322  2.2021 -1.2795  0.8688
  498MOL0     H65708   5.898   0.659   2.357 -1.4057  0.1574 -1.3742
  498MOL0     H65709   5.942   0.718   2.191 -0.4908  2.1869  1.5809
  498MOL0     H65710   5.984   0.433   2.278  0.7381  0.3579 -0.8532
  498MOL0     H65711   6.004   0.505   2.113  1.0522  2.6040 -0.9352
  498MOL0     H65712   5.765   0.545   2.123  1.4647 -0.1897 -0.7369
  498MOL0     H65713   5.752   0.435   2.262  1.5683 -0.4722  0.5105
  498MOL0     H65714   5.708   0.301   2.079 -0.0341 -0.3327  1.6503
  498MOL0     H65715   5.857   0.372   1.988 -1.7935  1.4354 -0.9140
  498MOL0     H65716   5.845   0.211   2.253 -0.7384  0.3618  0.0442
  498MOL0     H65717   5.989   0.236   2.153 -0.0128  0.6411 -3.0959
  498MOL0     H65718   6.538   0.411   2.389 -2.3471 -1.0203  2.6680
  498MOL0     H65719   6.778   0.413   2.466  3.6481  1.8182  1.3865
  498MOL0     H65720   7.096   0.472   2.722  1.1154  0.6766  2.0438
  498MOL0     H65721   7.321   0.466   2.799 -0.9263  1.8675  2.0829
  498MOL0     H65722   8.447   0.694   3.736 -0.9572  2.6926  3.4651
  498MOL0     H65723   8.240   0.815   3.731  0.9528  0.7188  0.7523
  498MOL0     H65724   7.980   1.112   3.459 -0.3369  0.7985 -1.1474
  498MOL0     H65725   7.758   1.173   3.430  1.1440 -0.1566 -0.1020
  498MOL0     H65726   7.478   1.110   3.777  2.4564  2.1250  0.4348
  498MOL0     H65727   7.359   1.165   3.664  0.4521 -4.4427 -0.0599
  498MOL0     H65728   7.539   1.309   3.884  0.0140 -0.9731 -0.2872
  498MOL0     H65729   7.489   1.400   3.733 -1.6508 -0.4164 -0.3389
  498MOL0     H65730   7.282   1.293   3.923 -2.2626  2.2372  0.5670
  498MOL0     H65731   7.252   1.384   3.779  0.4815  4.8215  1.2495
  498MOL0     H65732   7.384   1.464   4.034 -1.4083 -0.1171  0.7035
  498MOL0     H65733   7.418   1.571   3.898 -2.6957  3.4769  0.8840
  498MOL0     H65734   7.013   1.659   3.909 -1.1368 -3.1323 -1.2261
  498MOL0     H65735   7.683   1.122   3.862 -2.8757 -3.7055 -1.4741
  498MOL0     H65736   7.915   1.044   3.871  1.9802  1.3045 -1.0691
  499MOL0     O65737  10.302   8.836   8.003 -0.8504 -0.4618  0.1682
  499MOL0     C65738  10.200   8.890   7.984  0.2991 -0.5116  0.0837
  499MOL0     O65739  10.185   9.015   7.939  0.6889 -0.6915 -0.6769
  499MOL0     C65740  10.295   9.093   7.926 -0.5135 -0.0121 -0.5461
  499MOL0     C65741  10.318   9.159   7.808  0.1037 -0.6653  0.1139
  499MOL0     C65742  10.434   9.238   7.797  0.2259  0.6217 -0.6765
  499MOL0     C65743  10.528   9.258   7.903 -0.5560 -0.1397 -0.1404
  499MOL0     O65744  10.637   9.334   7.895  0.0540  0.6883 -0.4118
  499MOL0     C65745  10.765   9.263   7.894  0.3472 -0.5045  0.0421
  499MOL0     C65746  10.852   9.294   8.022 -0.1980 -0.8017  0.8325
  499MOL0     C65747  11.000   9.247   7.997 -0.0120  0.5191 -0.6536
  499MOL0     C65748  11.096   9.328   8.068 -0.5310  0.3419 -0.5784
  499MOL0     C65749  11.238   9.290   8.063  0.4180 -0.6382  0.7030
  499MOL0     C65750  11.326   9.363   8.181 -0.2428  0.6286  0.3348
  499MOL0     C65751  11.468   9.329   8.184 -0.2549  0.1092 -0.4605
  499MOL0     C65752  11.533   9.370   8.310 -0.7333 -0.1896 -0.0429
  499MOL0     N65753  11.664   9.299   8.334 -0.7235 -0.0195 -0.0452
  499MOL0     C65754  11.679   9.182   8.397  0.4479  0.0033  0.2297
  499MOL0     C65755  11.801   9.139   8.365  0.2940  0.0534 -0.1293
  499MOL0     C65756  11.873   9.020   8.431 -0.2485 -0.4347 -0.7799
  499MOL0     C65757  12.021   9.013   8.387 -0.0716 -0.0516 -0.1193
  499MOL0     C65758  12.081   8.893   8.447 -0.3249 -0.3091 -0.0866
  499MOL0     C65759  12.233   8.869   8.427 -0.2725  0.4120  0.6993
  499MOL0     O65760  12.288   8.850   8.293  0.5788 -0.5440 -0.1433
  499MOL0     C65761  12.427   8.863   8.286  0.1559 -0.7897 -0.1073
  499MOL0     C65762  12.516   8.868   8.389 -0.1419  0.9163  0.0016
  499MOL0     C65763  12.654   8.887   8.356  0.2893  0.3870 -0.1233
  499MOL0     C65764  12.697   8.913   8.225  0.6168 -0.0728  0.3909
  499MOL0     C65765  12.837   8.941   8.187 -0.6697 -0.2871 -0.3776
  499MOL0     O65766  12.856   9.014   8.074 -0.1692 -0.0909  0.2358
  499MOL0     C65767  12.980   9.014   8.013  0.3789  0.1458 -0.2103
  499MOL0     C65768  13.009   8.908   7.926  0.5698  0.0603  0.4058
  499MOL0     C65769  13.134   8.901   7.854  0.5201 -0.8877  0.2320
  499MOL0     C65770  13.231   8.999   7.875  0.4442  0.6939  0.0936
  499MOL0     O65771  13.354   8.969   7.820 -0.6942 -0.7775  0.5909
  499MOL0     C65772  13.454   9.068   7.808  0.7501 -0.0267  0.1579
  499MOL0     C65773  13.575   8.996   7.753  0.1984  0.1686  1.0224
  499MOL0     C65774  13.678   9.093   7.694  0.4376 -0.9671  0.7054
  499MOL0     C65775  13.805   9.015   7.656  0.6397  1.1355 -0.0206
  499MOL0     C65776  13.907   9.096   7.582  0.3532  0.5647  0.1970
  499MOL0     C65777  14.017   9.016   7.530  0.0619  0.1955 -0.0102
  499MOL0     C65778  14.121   9.089   7.444  0.8378  0.5487  0.7189
  499MOL0     C65779  14.213   9.179   7.522 -0.4341 -0.2895  0.7911
  499MOL0    Cl65780  14.295   9.072   7.634  0.2419 -0.1637  0.1757
  499MOL0     C65781  13.201   9.100   7.969  0.9679  0.0220 -0.8192
  499MOL0     C65782  13.075   9.112   8.033 -0.7388  0.4548  0.6767
  499MOL0     O65783  12.924   8.895   8.262 -0.2351  0.0386  0.2785
  499MOL0     C65784  12.601   8.909   8.116  0.0410 -0.4213 -0.4520
  499MOL0     C65785  12.471   8.889   8.153  0.0685 -0.4155 -0.7064
  499MOL0     N65786  11.869   9.233   8.291  0.5106 -0.6383 -0.3825
  499MOL0     N65787  11.783   9.330   8.264 -0.5019 -0.2106  0.2844
  499MOL0     C65788  10.510   9.182   8.021  0.5189  0.2039 -0.3095
  499MOL0     C65789  10.394   9.101   8.034  0.5075 -0.4059 -0.2614
  499MOL0     C65790  10.078   8.820   8.022 -0.6139  0.7285  0.2681
  499MOL0     C65791  10.080   8.679   8.037 -0.1248  0.3813  0.3130
  499MOL0     C65792   9.962   8.602   8.083 -0.4240 -0.7500  0.1172
  499MOL0     C65793   9.848   8.675   8.092 -0.7288  0.6668 -0.6891
  499MOL0     O65794   9.748   8.594   8.106  0.1088  0.8424  0.4980
  499MOL0     C65795   9.613   8.661   8.114 -0.5143 -0.6332  0.1414
  499MOL0     C65796   9.514   8.550   8.128 -0.5261  0.0846  0.0316
  499MOL0     C65797   9.380   8.602   8.184  0.1932 -0.0901 -0.6865
  499MOL0     C65798   9.273   8.649   8.079  0.0891  0.3325 -0.0731
  499MOL0     C65799   9.135   8.648   8.138 -0.1561 -0.3856 -1.0825
  499MOL0     C65800   9.021   8.626   8.182 -0.4673  0.3223 -0.3141
  499MOL0     C65801   9.839   8.815   8.081 -0.5837 -0.7738  1.0154
  499MOL0     C65802   9.958   8.888   8.045  0.0343  0.5753  0.0004
  499MOL0     H65803  10.254   9.148   7.721 -1.5332  0.4195  1.1268
  499MOL0     H65804  10.445   9.274   7.695 -2.6344  0.0317 -1.2756
  499MOL0     H65805  10.814   9.311   7.809  1.0872 -1.1630  0.0892
  499MOL0     H65806  10.759   9.155   7.876 -0.4554 -0.3286 -0.8222
  499MOL0     H65807  10.803   9.241   8.104 -0.7827  2.2761  2.6176
  499MOL0     H65808  10.856   9.402   8.035  2.7092 -0.4681 -1.5392
  499MOL0     H65809  11.020   9.265   7.891 -0.7363  0.8861 -0.7366
  499MOL0     H65810  11.015   9.143   8.028 -0.2992  0.5572 -0.3902
  499MOL0     H65811  11.091   9.427   8.020 -3.2455  0.6860  0.2376
  499MOL0     H65812  11.064   9.337   8.172 -0.0815 -0.3505 -0.3752
  499MOL0     H65813  11.269   9.306   7.959 -4.4245  0.3028 -0.8554
  499MOL0     H65814  11.247   9.182   8.078  0.7377 -0.9757 -1.5042
  499MOL0     H65815  11.280   9.333   8.276  1.2402  1.9863  1.5341
  499MOL0     H65816  11.316   9.471   8.173  1.3712  0.7925  0.1970
  499MOL0     H65817  11.480   9.222   8.170  2.3579 -0.2914  3.4494
  499MOL0     H65818  11.507   9.376   8.093  2.5933  0.5333  0.8689
  499MOL0     H65819  11.463   9.342   8.389 -1.3746  1.8073  0.1716
  499MOL0     H65820  11.557   9.477   8.320  2.2537 -0.4469 -2.7132
  499MOL0     H65821  11.614   9.146   8.476 -1.2323 -0.7592 -1.4247
  499MOL0     H65822  11.821   8.926   8.411  1.1726 -1.6782  1.0103
  499MOL0     H65823  11.866   9.038   8.539  0.0594 -2.4562 -0.3654
  499MOL0     H65824  12.077   9.107   8.392 -0.7142  0.3562 -0.4263
  499MOL0     H65825  12.020   8.988   8.281  2.8564 -1.3444  0.0597
  499MOL0     H65826  12.058   8.895   8.553  1.2394  4.5675  0.3995
  499MOL0     H65827  12.033   8.806   8.401  0.2523 -1.9818  2.2816
  499MOL0     H65828  12.267   8.780   8.479  0.6978  0.1416 -0.3641
  499MOL0     H65829  12.289   8.954   8.468 -0.6064  0.5899  0.7879
  499MOL0     H65830  12.488   8.846   8.492  1.1492 -1.6466 -0.0999
  499MOL0     H65831  12.734   8.877   8.429  2.4020  1.2438 -2.2205
  499MOL0     H65832  12.930   8.837   7.905 -1.0700  1.3896  1.7986
  499MOL0     H65833  13.140   8.828   7.774  0.3980  1.1903 -1.8010
  499MOL0     H65834  13.481   9.111   7.904  0.5278 -0.1814  0.2910
  499MOL0     H65835  13.431   9.151   7.740  0.5579 -2.6869 -3.3387
  499MOL0     H65836  13.549   8.935   7.666  2.5764  1.5398 -0.7686
  499MOL0     H65837  13.619   8.932   7.829  0.6526 -2.8903 -1.6137
  499MOL0     H65838  13.688   9.158   7.781 -0.0447 -3.6312  2.8927
  499MOL0     H65839  13.645   9.145   7.603  1.4862  1.4736  1.6302
  499MOL0     H65840  13.857   8.972   7.742 -1.1245  1.1266  1.0868
  499MOL0     H65841  13.768   8.936   7.590  1.9938  0.2470  0.2429
  499MOL0     H65842  13.935   9.181   7.645  0.5238  0.7575 -0.1368
  499MOL0     H65843  13.854   9.136   7.495  3.4499  1.5194 -1.4010
  499MOL0     H65844  13.962   8.940   7.473 -0.1972  0.1006  0.3625
  499MOL0     H65845  14.063   8.957   7.609  0.1997 -1.4973 -1.2987
  499MOL0     H65846  14.178   9.003   7.407  1.8967  0.3283  2.7235
  499MOL0     H65847  14.072   9.141   7.361  0.8668  0.3072  0.5481
  499MOL0     H65848  14.166   9.262   7.576  0.2514  0.9538 -0.4344
  499MOL0     H65849  14.282   9.229   7.453 -0.4576 -0.6909  0.4744
  499MOL0     H65850  13.270   9.183   7.977 -0.0357  1.2306 -3.6991
  499MOL0     H65851  13.062   9.191   8.106 -0.1471  1.6201 -0.4388
  499MOL0     H65852  12.626   8.935   8.013 -0.8495  1.6831 -0.1914
  499MOL0     H65853  12.397   8.896   8.074 -1.3893  2.9036  0.7769
  499MOL0     H65854  10.589   9.196   8.094  0.2270 -5.2874  1.5542
  499MOL0     H65855  10.384   9.048   8.128  0.2129  1.3235  0.7437
  499MOL0     H65856  10.171   8.621   8.030 -0.1265 -0.3152  4.1791
  499MOL0     H65857   9.974   8.497   8.105  3.1440  0.1087  3.3368
  499MOL0     H65858   9.609   8.724   8.025  2.1206  0.8309  0.9741
  499MOL0     H65859   9.607   8.730   8.198 -3.0394  2.4533 -2.3532
  499MOL0     H65860   9.510   8.502   8.031  2.0954  0.7640 -0.4845
  499MOL0     H65861   9.543   8.468   8.194 -3.4602  1.4246  3.3493
  499MOL0     H65862   9.402   8.680   8.257  0.8489  0.2120 -1.1907
  499MOL0     H65863   9.331   8.526   8.245  1.6135  0.2583  0.9924
  499MOL0     H65864   9.296   8.743   8.028 -0.4163 -0.1480 -1.2170
  499MOL0     H65865   9.274   8.566   8.008  1.4146  1.0057 -0.8721
  499MOL0     H65866   8.931   8.628   8.240 -0.4487  1.8368 -0.2809
  499MOL0     H65867   9.749   8.875   8.082 -0.2285  0.2424 -3.6516
  499MOL0     H65868   9.961   8.993   8.020  3.0394  0.2935 -1.2870
  500MOL0     O65869   7.816   7.531   9.594 -0.3653  0.3996 -0.0182
  500MOL0     C65870   7.836   7.434   9.674 -0.8075 -0.8081  0.1305
  500MOL0     O65871   7.741   7.375   9.756 -0.2237  0.0593  0.7461
  500MOL0     C65872   7.626   7.429   9.808 -1.0524 -0.6079 -0.4965
  500MOL0     C65873   7.538   7.349   9.882 -0.7230  0.7384 -0.3496
  500MOL0     C65874   7.421   7.399   9.938 -0.3492 -0.2844 -0.9933
  500MOL0     C65875   7.388   7.532   9.904 -0.0692 -0.0198 -0.9919
  500MOL0     O65876   7.262   7.596   9.933 -0.1533 -0.7988  0.6740
  500MOL0     C65877   7.176   7.535  10.024  0.1321 -1.4836 -0.2565
  500MOL0     C65878   7.055   7.629  10.063 -0.4753 -0.0434  0.0024
  500MOL0     C65879   7.089   7.720  10.186  0.0921  0.1357 -0.3929
  500MOL0     C65880   6.977   7.811  10.210  0.1681 -0.0153  0.1435
  500MOL0     C65881   7.001   7.893  10.337  0.8272  0.9266 -0.4319
  500MOL0     C65882   7.096   8.013  10.311  0.1730  0.4282  0.1160
  500MOL0     C65883   7.116   8.089  10.446 -0.0031  0.1329  0.7663
  500MOL0     C65884   7.196   8.213  10.440 -0.7117  0.2064 -0.8077
  500MOL0     N65885   7.342   8.197  10.440 -0.6819 -0.4350 -0.4262
  500MOL0     C65886   7.427   8.132  10.528  0.8710 -0.1152  0.4336
  500MOL0     C65887   7.540   8.129  10.465 -0.5808  0.1944  0.5146
  500MOL0     C65888   7.670   8.078  10.517  0.4777  0.1308 -0.3137
  500MOL0     C65889   7.762   8.177  10.576 -0.4026 -0.0086  0.4300
  500MOL0     C65890   7.696   8.255  10.693  0.2001 -0.8037  0.1266
  500MOL0     C65891   7.806   8.321  10.793  0.4006  0.1707  0.6575
  500MOL0     O65892   7.899   8.213  10.819 -0.0932 -0.0924 -0.3909
  500MOL0     C65893   8.030   8.239  10.801  0.0047  0.2346  0.8224
  500MOL0     C65894   8.088   8.355  10.842 -0.4882 -1.0393  0.3130
  500MOL0     C65895   8.222   8.375  10.840 -0.8559 -0.8493 -0.4269
  500MOL0     C65896   8.312   8.276  10.797 -0.4644  0.1496  0.5335
  500MOL0     C65897   8.459   8.290  10.798  0.7773  0.3173  0.3190
  500MOL0     O65898   8.545   8.187  10.764 -0.4412 -0.2152 -0.2451
  500MOL0     C65899   8.682   8.229  10.779 -0.1312  0.6926  0.5653
  500MOL0     C65900   8.749   8.274  10.662  0.3684 -0.0614 -0.7319
  500MOL0     C65901   8.883   8.295  10.669 -0.3858 -0.2203  0.1655
  500MOL0     C65902   8.960   8.289  10.792  0.4241 -0.0616  1.0953
  500MOL0     O65903   9.092   8.319  10.790  0.1046 -0.1197  0.3193
  500MOL0     C65904   9.159   8.296  10.917 -0.6612  0.2244 -0.1082
  500MOL0     C65905   9.311   8.304  10.907 -0.6641  0.7191  0.0669
  500MOL0     C65906   9.380   8.252  11.046  0.1288 -1.1315  0.6676
  500MOL0     C65907   9.533   8.263  11.038 -1.1267  0.0663  0.3262
  500MOL0     C65908   9.590   8.322  11.163  0.1881 -0.6892  0.9842
  500MOL0     C65909   9.729   8.381  11.150  0.0788 -0.1917  0.2462
  500MOL0     C65910   9.795   8.395  11.283  0.2108  0.4854  0.5302
  500MOL0     C65911   9.831   8.550  11.295 -0.4118  0.1396 -0.4297
  500MOL0    Cl65912   9.982   8.587  11.211  0.2759  0.3476  0.5710
  500MOL0     C65913   8.887   8.248  10.906  0.5446  0.8198 -0.2362
  500MOL0     C65914   8.750   8.227  10.897  0.2009  0.1546 -0.5707
  500MOL0     O65915   8.491   8.400  10.836 -0.4387 -0.0790  0.3615
  500MOL0     C65916   8.252   8.156  10.753 -0.4006  0.6688 -0.5510
  500MOL0     C65917   8.111   8.135  10.759  0.0695 -0.4190 -0.8235
  500MOL0     N65918   7.537   8.216  10.356  0.3517 -0.0801 -0.5271
  500MOL0     N65919   7.419   8.263  10.350  0.7438 -0.0744 -0.2786
  500MOL0     C65920   7.476   7.621   9.840 -0.2514  0.2565 -0.3953
  500MOL0     C65921   7.590   7.563   9.782  0.6771 -0.1728  1.0714
  500MOL0     C65922   7.972   7.372   9.691 -0.2099  0.0693  0.4798
  500MOL0     C65923   8.082   7.440   9.635 -0.2669  0.5566  0.3762
  500MOL0     C65924   8.214   7.379   9.622  0.3487 -0.4257  0.0393
  500MOL0     C65925   8.234   7.252   9.681  1.1136  0.0865 -0.5536
  500MOL0     O65926   8.365   7.215   9.683 -0.1777  0.4678  0.3622
  500MOL0     C65927   8.386   7.088   9.738 -0.2263 -0.3709 -0.6215
  500MOL0     C65928   8.540   7.055   9.734 -0.1651  0.3321 -0.0250
  500MOL0     C65929   8.632   7.149   9.815  0.2359 -0.4980  0.1594
  500MOL0     C65930   8.582   7.203   9.948  0.1631  1.1586  0.3512
  500MOL0     C65931   8.689   7.275  10.018  0.5430  0.3637  0.5325
  500MOL0     C65932   8.789   7.325  10.064 -0.2592 -0.3818 -0.8114
  500MOL0     C65933   8.129   7.198   9.754  0.7243  0.0386  0.0333
  500MOL0     C65934   7.995   7.246   9.753 -0.4636  0.0678 -0.5145
  500MOL0     H65935   7.575   7.249   9.902  0.6150  1.4010  0.5903
  500MOL0     H65936   7.360   7.325   9.989 -4.9134  2.4782 -1.9503
  500MOL0     H65937   7.219   7.494  10.116  2.3804 -0.0690 -0.5997
  500MOL0     H65938   7.132   7.458   9.961 -0.7472 -1.4763  0.3231
  500MOL0     H65939   6.966   7.571  10.090  1.4004 -2.8429  0.4742
  500MOL0     H65940   7.027   7.692   9.978 -1.9759  3.4224  2.7840
  500MOL0     H65941   7.185   7.767  10.164 -0.4312  0.6210 -1.7172
  500MOL0     H65942   7.104   7.654  10.272  2.6746  2.0152  0.7404
  500MOL0     H65943   6.959   7.873  10.121  2.4299 -1.3961 -1.3765
  500MOL0     H65944   6.883   7.757  10.222  1.2202 -2.1190 -0.6896
  500MOL0     H65945   7.035   7.830  10.419  1.1177  1.4260 -0.1674
  500MOL0     H65946   6.913   7.953  10.360  1.0231  1.5983 -1.3682
  500MOL0     H65947   7.069   8.084  10.233 -0.1655 -1.3505 -1.4628
  500MOL0     H65948   7.190   7.966  10.279  0.4644 -0.1473  1.6989
  500MOL0     H65949   7.015   8.111  10.484 -1.9633 -2.9163 -2.1618
  500MOL0     H65950   7.160   8.024  10.522 -1.0622  0.7522  1.9493
  500MOL0     H65951   7.158   8.265  10.529  0.2126  2.8937 -1.8590
  500MOL0     H65952   7.178   8.273  10.350 -1.5197  1.9725  0.4661
  500MOL0     H65953   7.402   8.099  10.629  1.3004  2.1521  1.3463
  500MOL0     H65954   7.718   8.022  10.437  2.0554  0.4465  0.3660
  500MOL0     H65955   7.653   8.006  10.598  0.3056 -0.3068 -0.7324
  500MOL0     H65956   7.797   8.246  10.498  2.9043  0.2763  1.9944
  500MOL0     H65957   7.849   8.116  10.599  0.4114 -0.2973 -2.8921
  500MOL0     H65958   7.635   8.334  10.648  1.1722  0.6061  1.1940
  500MOL0     H65959   7.640   8.195  10.764 -0.2237  0.4664  0.9103
  500MOL0     H65960   7.764   8.371  10.881  0.3054  2.1240 -0.4577
  500MOL0     H65961   7.845   8.402  10.732  1.2602 -1.6353 -1.3056
  500MOL0     H65962   8.028   8.427  10.897 -2.3990 -1.3551 -1.2640
  500MOL0     H65963   8.264   8.470  10.872 -1.2157 -0.0478 -2.2182
  500MOL0     H65964   8.716   8.257  10.561 -1.4174 -0.8872 -0.0485
  500MOL0     H65965   8.953   8.316  10.589  0.6075 -0.3684  0.9620
  500MOL0     H65966   9.122   8.202  10.959  0.1225  0.1406  0.4075
  500MOL0     H65967   9.124   8.376  10.983  1.2936  3.0294 -2.2203
  500MOL0     H65968   9.333   8.408  10.881 -1.6556  0.4730 -1.9499
  500MOL0     H65969   9.337   8.241  10.822  0.6508  1.5825 -0.1834
  500MOL0     H65970   9.342   8.152  11.072  0.4128 -1.7975 -1.2911
  500MOL0     H65971   9.352   8.323  11.124  2.7898 -0.2803  0.9352
  500MOL0     H65972   9.582   8.167  11.020 -3.4849 -0.8503 -1.8438
  500MOL0     H65973   9.562   8.327  10.954  0.2944 -2.2745 -1.0653
  500MOL0     H65974   9.573   8.253  11.246 -0.6252 -2.0268 -0.2520
  500MOL0     H65975   9.530   8.410  11.189  1.2331  0.3352  0.0150
  500MOL0     H65976   9.738   8.471  11.089  1.9240 -2.1800 -2.7081
  500MOL0     H65977   9.792   8.301  11.109  3.2322  1.5528  1.3044
  500MOL0     H65978   9.730   8.362  11.365 -1.6874  2.1783 -0.2160
  500MOL0     H65979   9.885   8.333  11.277 -0.3977 -0.4411  0.8059
  500MOL0     H65980   9.852   8.580  11.398 -1.5990  7.8570 -1.8183
  500MOL0     H65981   9.758   8.622  11.256 -1.6204  1.1924  3.3930
  500MOL0     H65982   8.928   8.235  11.006 -4.4999 -0.4679  1.9925
  500MOL0     H65983   8.702   8.198  10.989  0.2397  2.8895  0.3998
  500MOL0     H65984   8.320   8.089  10.702 -0.0835  1.5831 -1.3573
  500MOL0     H65985   8.070   8.045  10.714  0.3721 -0.5808 -0.7842
  500MOL0     H65986   7.445   7.721   9.810 -3.5918 -0.0418  1.6114
  500MOL0     H65987   7.652   7.632   9.726 -1.4580  2.4075  1.7246
  500MOL0     H65988   8.073   7.530   9.576  0.5290  0.0042 -0.6306
  500MOL0     H65989   8.301   7.427   9.580  0.0670  1.2162  1.2291
  500MOL0     H65990   8.333   7.002   9.695  1.1185  0.1131 -3.4863
  500MOL0     H65991   8.362   7.088   9.844  0.7578  2.2631 -0.3301
  500MOL0     H65992   8.547   6.950   9.765  3.7617  0.5808  0.3850
  500MOL0     H65993   8.579   7.038   9.633  2.0902  1.3148  0.6336
  500MOL0     H65994   8.659   7.229   9.745  0.7198  0.8218  1.7918
  500MOL0     H65995   8.725   7.096   9.840 -0.2276  0.2782  4.1472
  500MOL0     H65996   8.485   7.251   9.933 -2.0921 -2.7014  1.1359
  500MOL0     H65997   8.551   7.119  10.012 -2.2098  0.2560 -1.8274
  500MOL0     H65998   8.876   7.377  10.098 -0.6673  0.6149 -1.2705
  500MOL0     H65999   8.146   7.102   9.803 -1.7913 -0.0414  0.8926
  500MOL0     H66000   7.913   7.196   9.803  0.1364 -1.4011 -0.9386
  501MOL0     O66001  11.127   5.131   3.483 -0.0369  0.4988 -0.0303
  501MOL0     C66002  11.036   5.195   3.430  0.0393 -1.0783  1.0032
  501MOL0     O66003  10.975   5.171   3.313  0.5134 -0.1870  0.2540
  501MOL0     C66004  10.992   5.047   3.257  0.1843  0.6015 -0.5187
  501MOL0     C66005  11.109   5.014   3.196  0.0586 -0.0517 -0.2179
  501MOL0     C66006  11.123   4.884   3.141  0.0996 -0.4234  1.0253
  501MOL0     C66007  11.008   4.802   3.109  0.0564 -0.2732  0.5853
  501MOL0     O66008  11.035   4.684   3.054 -0.6179  0.8783 -0.0262
  501MOL0     C66009  10.947   4.647   2.948 -0.9288 -0.5266 -0.8934
  501MOL0     C66010  10.876   4.514   2.978 -0.6203  0.5883  0.1332
  501MOL0     C66011  10.772   4.497   2.869  0.4164  0.4964 -0.0431
  501MOL0     C66012  10.694   4.368   2.889 -0.1679  0.0482  0.2669
  501MOL0     C66013  10.580   4.337   2.793  0.2861  0.1555  0.6162
  501MOL0     C66014  10.476   4.444   2.789 -0.3881 -0.5071 -0.2891
  501MOL0     C66015  10.343   4.392   2.734  0.2006  0.3611  0.2699
  501MOL0     C66016  10.356   4.367   2.578  0.0286  0.7626 -0.4586
  501MOL0     N66017  10.387   4.231   2.536  0.4328  0.7281 -0.2201
  501MOL0     C66018  10.287   4.136   2.536  0.9551 -0.3658  0.2424
  501MOL0     C66019  10.351   4.024   2.511 -0.5470 -0.0587  1.0555
  501MOL0     C66020  10.301   3.885   2.500  0.0044 -0.0187 -0.8052
  501MOL0     C66021  10.337   3.815   2.368 -0.2662  0.5399  0.1832
  501MOL0     C66022  10.238   3.700   2.340 -0.0282  0.7314 -0.3844
  501MOL0     C66023  10.264   3.609   2.219  0.2396 -0.4915 -0.4908
  501MOL0     O66024  10.396   3.559   2.242 -0.3587 -0.3511  0.1168
  501MOL0     C66025  10.449   3.474   2.152  0.0368 -0.3884 -0.8457
  501MOL0     C66026  10.389   3.444   2.030 -0.1164  0.8754 -0.4196
  501MOL0     C66027  10.462   3.369   1.944  0.2459  0.9650  0.2425
  501MOL0     C66028  10.594   3.331   1.968  1.7417 -0.9866  0.2974
  501MOL0     C66029  10.668   3.274   1.856  0.0435  0.2804 -0.5343
  501MOL0     O66030  10.788   3.218   1.890 -0.4870 -0.3104 -0.1031
  501MOL0     C66031  10.860   3.114   1.819 -0.7415 -0.3823 -1.0568
  501MOL0     C66032  11.000   3.123   1.852 -0.0891 -0.2079 -0.9211
  501MOL0     C66033  11.081   3.023   1.796  0.2895  0.7805 -0.1318
  501MOL0     C66034  11.028   2.921   1.709  0.0151 -0.7755  0.6007
  501MOL0     O66035  11.098   2.816   1.656 -0.5411 -0.5656 -0.7299
  501MOL0     C66036  11.229   2.836   1.610 -0.0615  0.0965  0.3884
  501MOL0     C66037  11.309   2.698   1.610  0.7646 -0.1411  0.2350
  501MOL0     C66038  11.231   2.596   1.522  1.0947 -0.8165 -0.0117
  501MOL0     C66039  11.301   2.461   1.528  0.6998 -0.0259  0.2480
  501MOL0     C66040  11.383   2.446   1.401  0.3556 -0.5561 -1.1261
  501MOL0     C66041  11.307   2.442   1.267  0.5250 -0.3331 -0.4517
  501MOL0     C66042  11.404   2.433   1.147 -0.7714 -0.2289  0.2808
  501MOL0     C66043  11.508   2.319   1.143 -0.2871  0.0786  1.2990
  501MOL0    Cl66044  11.436   2.156   1.161  0.0404  0.0695 -0.0086
  501MOL0     C66045  10.892   2.922   1.676  0.0122 -0.8043 -0.3930
  501MOL0     C66046  10.807   3.018   1.731  0.4296 -0.7988 -0.4423
  501MOL0     O66047  10.613   3.269   1.747  0.1826  0.0741  0.4283
  501MOL0     C66048  10.650   3.351   2.095  0.6979 -0.0999  0.4969
  501MOL0     C66049  10.578   3.423   2.186 -0.3272  0.3402 -0.4680
  501MOL0     N66050  10.473   4.054   2.474  0.1180 -0.4143 -0.3239
  501MOL0     N66051  10.501   4.175   2.492  0.2265 -0.0457 -0.0692
  501MOL0     C66052  10.887   4.847   3.154  0.2698  0.0452 -0.6860
  501MOL0     C66053  10.884   4.961   3.236  0.9283  0.6432 -0.2006
  501MOL0     C66054  11.018   5.341   3.472 -1.3528  0.0194  0.4709
  501MOL0     C66055  10.895   5.388   3.463 -0.0550 -0.2748 -0.0502
  501MOL0     C66056  10.875   5.523   3.494  0.8649  0.2426 -0.7087
  501MOL0     C66057  10.982   5.614   3.533 -0.0045  0.5418 -0.1829
  501MOL0     O66058  10.950   5.743   3.572  0.3477  0.2240 -0.0406
  501MOL0     C66059  10.966   5.834   3.463 -0.6715 -0.6058 -0.1636
  501MOL0     C66060  11.116   5.872   3.443 -0.6096  0.2696  0.1356
  501MOL0     C66061  11.177   5.935   3.564 -0.6511 -0.4815 -0.4161
  501MOL0     C66062  11.298   6.029   3.533 -0.1196 -0.3042 -0.0648
  501MOL0     C66063  11.410   5.951   3.481  0.2895 -0.1148 -0.0534
  501MOL0     C66064  11.504   5.884   3.450 -0.3384 -0.3414  0.2297
  501MOL0     C66065  11.113   5.553   3.548 -0.0135 -0.2717  0.5968
  501MOL0     C66066  11.128   5.418   3.517  0.3528 -0.1697  0.3961
  501MOL0     H66067  11.200   5.068   3.219 -0.4252  0.8684 -0.3742
  501MOL0     H66068  11.220   4.847   3.111 -0.6001 -1.1314 -0.5136
  501MOL0     H66069  11.013   4.641   2.861 -0.2633  2.5786 -0.7134
  501MOL0     H66070  10.870   4.724   2.940 -0.0651  0.2173 -2.2842
  501MOL0     H66071  10.831   4.511   3.077  0.7586  2.2877  0.8662
  501MOL0     H66072  10.951   4.435   2.972 -3.0950 -1.8661 -4.3006
  501MOL0     H66073  10.820   4.483   2.772 -0.4920 -3.5064 -0.0852
  501MOL0     H66074  10.709   4.586   2.879 -0.1770 -0.1773  3.5476
  501MOL0     H66075  10.766   4.286   2.886 -0.3948 -0.1722  0.8590
  501MOL0     H66076  10.647   4.377   2.987  1.8831  0.5983  1.2563
  501MOL0     H66077  10.538   4.240   2.821 -2.9369  1.3086  0.1042
  501MOL0     H66078  10.621   4.323   2.692 -1.5467  1.6610 -0.3900
  501MOL0     H66079  10.509   4.537   2.741  0.8075 -0.2297  1.0090
  501MOL0     H66080  10.455   4.482   2.889 -0.3681 -1.6487  0.1587
  501MOL0     H66081  10.324   4.294   2.779  4.2235 -1.2801 -1.0495
  501MOL0     H66082  10.262   4.457   2.765  0.6412 -0.8598  4.6601
  501MOL0     H66083  10.449   4.419   2.553  1.5868 -2.5216 -2.1109
  501MOL0     H66084  10.262   4.384   2.523 -1.8942 -1.6152  1.8232
  501MOL0     H66085  10.185   4.137   2.573  0.8286 -0.4669 -0.0974
  501MOL0     H66086  10.194   3.887   2.522 -0.5311  0.3256 -3.2127
  501MOL0     H66087  10.359   3.843   2.584  0.7985  0.0768 -1.2997
  501MOL0     H66088  10.439   3.775   2.371 -0.2931  0.4977  0.5841
  501MOL0     H66089  10.338   3.886   2.284  2.3912 -0.2426 -0.5425
  501MOL0     H66090  10.230   3.642   2.433 -0.0600 -1.6382 -1.7891
  501MOL0     H66091  10.141   3.741   2.314  1.2653  3.7491 -0.9210
  501MOL0     H66092  10.250   3.673   2.132  2.7435 -0.0283 -0.6058
  501MOL0     H66093  10.190   3.528   2.218  1.0689 -1.3998  1.9890
  501MOL0     H66094  10.291   3.478   1.998 -0.6055  0.6293  0.7705
  501MOL0     H66095  10.411   3.353   1.850 -0.2231  2.9559  0.1000
  501MOL0     H66096  11.040   3.209   1.905 -1.0265  0.6531 -1.5858
  501MOL0     H66097  11.190   3.024   1.800  0.3788 -0.7516 -1.1058
  501MOL0     H66098  11.291   2.896   1.677  3.0764  0.7593 -2.8295
  501MOL0     H66099  11.209   2.889   1.517 -3.5500  3.9016  2.9473
  501MOL0     H66100  11.321   2.647   1.707 -3.1081 -0.9464  0.4501
  501MOL0     H66101  11.409   2.699   1.566 -0.4559 -0.9205 -2.7639
  501MOL0     H66102  11.213   2.644   1.425 -4.7592  0.1685  1.1697
  501MOL0     H66103  11.127   2.597   1.557  0.4345  0.6302 -1.8430
  501MOL0     H66104  11.381   2.456   1.602  1.6337  2.0032 -0.5452
  501MOL0     H66105  11.229   2.379   1.540 -0.5585  0.9715 -0.2562
  501MOL0     H66106  11.426   2.346   1.417  0.0695 -0.6252 -0.7761
  501MOL0     H66107  11.459   2.525   1.401 -0.1405 -0.0734 -1.5220
  501MOL0     H66108  11.245   2.531   1.257 -0.5704 -1.2415 -2.1676
  501MOL0     H66109  11.243   2.354   1.267 -0.7093  0.5343 -0.6476
  501MOL0     H66110  11.339   2.426   1.059 -0.4721 -1.0596  0.1190
  501MOL0     H66111  11.455   2.528   1.125  0.6403 -1.4408 -2.1012
  501MOL0     H66112  11.591   2.344   1.210 -1.2323  0.5521  2.3117
  501MOL0     H66113  11.551   2.318   1.042  2.3407 -2.9819  2.2672
  501MOL0     H66114  10.851   2.842   1.616  0.6567 -0.0777 -1.8590
  501MOL0     H66115  10.703   3.028   1.702  0.2765  3.7499  0.9931
  501MOL0     H66116  10.750   3.313   2.108 -0.6370 -3.4346  2.2178
  501MOL0     H66117  10.621   3.444   2.284  0.3874  0.0216 -0.7092
  501MOL0     H66118  10.797   4.787   3.141 -1.4458  2.5205 -0.7775
  501MOL0     H66119  10.785   4.997   3.263 -0.4819 -0.7951 -2.9777
  501MOL0     H66120  10.811   5.325   3.436 -0.5755  1.7926 -4.1143
  501MOL0     H66121  10.777   5.569   3.484  1.2699  1.2157 -0.4041
  501MOL0     H66122  10.907   5.923   3.487  2.7806  1.0130  3.4751
  501MOL0     H66123  10.926   5.791   3.370 -3.5125  0.6264  0.3709
  501MOL0     H66124  11.190   5.800   3.406 -0.8391  1.2183 -2.3695
  501MOL0     H66125  11.109   5.952   3.368  0.6460 -0.2639 -0.5800
  501MOL0     H66126  11.208   5.852   3.629 -0.2552  0.8989  1.2212
  501MOL0     H66127  11.099   5.996   3.610  2.4960  1.8181  2.3162
  501MOL0     H66128  11.266   6.095   3.452 -3.5191 -1.6979 -0.0126
  501MOL0     H66129  11.330   6.085   3.622 -1.5645 -1.6940  1.3913
  501MOL0     H66130  11.602   5.852   3.421 -0.2302 -1.9525  2.1861
  501MOL0     H66131  11.199   5.604   3.589 -1.1039  0.9982  1.4223
  501MOL0     H66132  11.226   5.375   3.537  0.9713  0.4685 -1.1361
  502MOL0     O66133   8.986   5.314   1.378 -0.2876 -0.3515 -0.4006
  502MOL0     C66134   9.011   5.294   1.498  0.5901  0.6056 -1.2717
  502MOL0     O66135   8.934   5.217   1.577  0.2652 -0.4302 -0.6865
  502MOL0     C66136   8.806   5.199   1.534 -0.0799  0.3233  0.6962
  502MOL0     C66137   8.742   5.077   1.529  0.0027 -0.7852 -0.2452
  502MOL0     C66138   8.603   5.067   1.502  0.8604 -0.9485 -0.3243
  502MOL0     C66139   8.534   5.183   1.468 -0.3391 -0.4138  0.1081
  502MOL0     O66140   8.397   5.186   1.453 -0.5702 -0.0702  0.1970
  502MOL0     C66141   8.356   5.165   1.319  0.2429  0.3885 -0.0257
  502MOL0     C66142   8.224   5.233   1.302 -0.9178  0.3805 -0.1138
  502MOL0     C66143   8.117   5.195   1.405  0.2831  0.1621  0.2371
  502MOL0     C66144   7.982   5.258   1.376 -0.5715  0.1678 -0.3248
  502MOL0     C66145   7.877   5.220   1.482 -1.1753  0.4795  0.1622
  502MOL0     C66146   7.752   5.303   1.463 -0.2668 -0.5375  0.4894
  502MOL0     C66147   7.704   5.309   1.317 -0.4302  0.2695 -0.2222
  502MOL0     C66148   7.559   5.370   1.306 -0.7360  0.9477 -0.1225
  502MOL0     N66149   7.575   5.508   1.342  0.0977  0.5654 -0.5492
  502MOL0     C66150   7.632   5.612   1.282 -0.8097  0.6090 -0.4589
  502MOL0     C66151   7.648   5.711   1.374  0.0440 -0.1468 -1.1381
  502MOL0     C66152   7.736   5.831   1.352 -0.9427 -0.7860 -0.4211
  502MOL0     C66153   7.888   5.815   1.404  0.6800 -0.5876  0.3416
  502MOL0     C66154   7.967   5.734   1.311 -0.1422 -0.1019  0.1741
  502MOL0     C66155   8.110   5.727   1.360  0.0315  0.2918  0.4973
  502MOL0     O66156   8.179   5.651   1.264  0.3659 -0.1992 -0.4446
  502MOL0     C66157   8.312   5.634   1.287 -0.1440 -0.3603 -0.5870
  502MOL0     C66158   8.383   5.699   1.398 -0.6374  0.5960  0.0018
  502MOL0     C66159   8.525   5.685   1.405 -0.8152  0.3156  0.5515
  502MOL0     C66160   8.599   5.620   1.304  0.3133 -0.9555 -0.1464
  502MOL0     C66161   8.744   5.606   1.294  0.2722  0.7641  0.5334
  502MOL0     O66162   8.812   5.639   1.408 -0.5241  0.1700 -0.0885
  502MOL0     C66163   8.944   5.683   1.393  0.6145 -1.0716  0.3159
  502MOL0     C66164   9.041   5.627   1.301  0.6246  0.1861 -0.0778
  502MOL0     C66165   9.145   5.703   1.265 -0.2854 -0.2384 -0.4626
  502MOL0     C66166   9.168   5.839   1.318  0.7106  0.3284  0.1274
  502MOL0     O66167   9.275   5.902   1.275 -0.3276 -1.0819  0.3531
  502MOL0     C66168   9.363   5.935   1.379  0.4491  0.9558 -0.3194
  502MOL0     C66169   9.460   6.040   1.330 -0.4381 -0.1329 -0.2513
  502MOL0     C66170   9.550   5.996   1.219 -0.4460 -0.1688  0.2155
  502MOL0     C66171   9.668   6.088   1.204 -0.2555  0.1523  0.0038
  502MOL0     C66172   9.779   6.015   1.123  0.8447  0.1176 -0.6492
  502MOL0     C66173   9.906   6.102   1.111  0.1789 -0.8099  0.2150
  502MOL0     C66174   9.878   6.233   1.036 -0.2180 -0.1942  0.2118
  502MOL0     C66175   9.995   6.319   1.027  0.5272 -0.2021  0.4930
  502MOL0    Cl66176  10.106   6.235   0.913  0.4784  0.2696  0.3095
  502MOL0     C66177   9.069   5.891   1.396 -0.3057  0.0375  0.4640
  502MOL0     C66178   8.974   5.804   1.447 -0.7219 -0.2247  0.5721
  502MOL0     O66179   8.799   5.584   1.185  0.1204  0.1344  0.2927
  502MOL0     C66180   8.522   5.566   1.196 -0.2000 -0.5505 -0.2573
  502MOL0     C66181   8.389   5.562   1.200  0.1035  0.8544 -0.0731
  502MOL0     N66182   7.592   5.673   1.493  0.7353  0.5589 -0.9008
  502MOL0     N66183   7.550   5.548   1.474 -0.2767 -0.6091  0.1233
  502MOL0     C66184   8.594   5.304   1.464  0.5549  0.5511 -0.1435
  502MOL0     C66185   8.724   5.309   1.499 -0.2865 -0.2652  0.2296
  502MOL0     C66186   9.147   5.321   1.547  0.0289 -0.2809  0.0253
  502MOL0     C66187   9.255   5.380   1.466  0.0731 -0.5666 -0.8298
  502MOL0     C66188   9.389   5.383   1.509  0.3243 -0.3563  0.3420
  502MOL0     C66189   9.416   5.319   1.635  0.2459 -0.4978 -0.6256
  502MOL0     O66190   9.542   5.347   1.678 -0.5256 -0.1097  0.2772
  502MOL0     C66191   9.585   5.318   1.816  0.9808  0.1709  1.1092
  502MOL0     C66192   9.729   5.341   1.850  0.3844  0.0665 -0.5151
  502MOL0     C66193   9.775   5.476   1.816  0.2300 -0.3198  0.1907
  502MOL0     C66194   9.886   5.539   1.893  0.4559 -0.5138  0.4671
  502MOL0     C66195  10.012   5.470   1.862 -0.9085 -0.1101 -0.2593
  502MOL0     C66196  10.115   5.414   1.839 -0.3839 -0.1717  0.8734
  502MOL0     C66197   9.316   5.263   1.710  0.1253  1.0721 -0.3638
  502MOL0     C66198   9.187   5.259   1.666 -0.5155  0.4597  1.0708
  502MOL0     H66199   8.811   4.999   1.562 -0.4081 -0.6165  1.0835
  502MOL0     H66200   8.539   4.980   1.498 -1.3905  0.6300 -0.6085
  502MOL0     H66201   8.342   5.057   1.307 -1.3312  0.4201  1.0932
  502MOL0     H66202   8.418   5.198   1.236  2.1624 -0.7478  0.8809
  502MOL0     H66203   8.192   5.188   1.207  1.7308 -2.6122  0.2360
  502MOL0     H66204   8.236   5.341   1.291 -1.2307  0.3366 -1.0715
  502MOL0     H66205   8.152   5.230   1.503 -0.9761 -1.8212  1.4850
  502MOL0     H66206   8.117   5.086   1.398  1.7766  0.2652 -3.2313
  502MOL0     H66207   7.995   5.366   1.385  0.4372 -0.0378  1.0194
  502MOL0     H66208   7.957   5.245   1.271  0.6447  3.6169 -1.1725
  502MOL0     H66209   7.921   5.237   1.581 -0.5255  2.2113 -0.3908
  502MOL0     H66210   7.859   5.112   1.484 -1.4168  0.5090  2.3715
  502MOL0     H66211   7.758   5.405   1.503 -0.8835 -0.7399  1.1194
  502MOL0     H66212   7.675   5.252   1.522  0.9337  0.6339  3.2491
  502MOL0     H66213   7.771   5.369   1.254  2.5542  0.2870  2.6984
  502MOL0     H66214   7.697   5.203   1.291  0.5878 -1.1290  4.3526
  502MOL0     H66215   7.494   5.310   1.371 -0.0490  0.0477 -0.2424
  502MOL0     H66216   7.510   5.365   1.208  1.1868 -1.5746 -1.0570
  502MOL0     H66217   7.668   5.605   1.180  2.9007 -0.7984  0.7887
  502MOL0     H66218   7.687   5.919   1.395  0.0823 -1.8046  3.2140
  502MOL0     H66219   7.737   5.871   1.250  0.2766  0.5233  0.0692
  502MOL0     H66220   7.893   5.774   1.506  0.9415 -1.4032  0.0083
  502MOL0     H66221   7.932   5.915   1.404  0.9202 -0.6881 -0.3792
  502MOL0     H66222   7.919   5.636   1.300 -1.0585  0.3703 -0.1073
  502MOL0     H66223   7.962   5.780   1.212  2.2710 -0.7822 -0.3337
  502MOL0     H66224   8.119   5.682   1.460 -2.0310  0.5020  0.8334
  502MOL0     H66225   8.152   5.827   1.370  3.9546 -0.9611 -1.5898
  502MOL0     H66226   8.330   5.766   1.466  0.3081  0.7318  0.6287
  502MOL0     H66227   8.590   5.738   1.474  1.5446 -3.1695  1.3003
  502MOL0     H66228   9.024   5.525   1.269  3.2976 -0.6734  1.0138
  502MOL0     H66229   9.220   5.653   1.206  0.5930 -0.3966  0.7480
  502MOL0     H66230   9.416   5.843   1.408  0.0834  0.8892  0.1499
  502MOL0     H66231   9.320   5.978   1.470 -1.1106 -1.9688  0.4540
  502MOL0     H66232   9.520   6.060   1.419  0.8404  0.6075 -1.2334
  502MOL0     H66233   9.411   6.137   1.313 -1.7568 -0.7009  0.2480
  502MOL0     H66234   9.506   5.986   1.119  3.7478 -3.8629 -1.6166
  502MOL0     H66235   9.572   5.891   1.241 -0.7477 -0.4215 -0.6318
  502MOL0     H66236   9.631   6.171   1.143 -1.5936  1.2803  2.1984
  502MOL0     H66237   9.704   6.112   1.304 -4.1212  1.1299  1.3572
  502MOL0     H66238   9.741   5.980   1.027 -2.3528 -2.8225  1.4450
  502MOL0     H66239   9.799   5.921   1.175  0.7579  0.6101  0.2869
  502MOL0     H66240   9.988   6.047   1.065 -0.2661 -1.7108  0.4846
  502MOL0     H66241   9.924   6.116   1.218 -0.7984 -1.6515  0.5011
  502MOL0     H66242   9.834   6.215   0.937 -2.4255  0.7185  0.9601
  502MOL0     H66243   9.803   6.293   1.088 -1.3164 -1.1884 -0.1736
  502MOL0     H66244  10.043   6.332   1.124  1.2401 -3.0056  0.5991
  502MOL0     H66245   9.967   6.409   0.971  0.8826 -1.5838 -2.0724
  502MOL0     H66246   9.066   5.990   1.440 -0.0271  0.1008  0.3439
  502MOL0     H66247   8.900   5.844   1.516 -1.1862 -3.1343  1.8880
  502MOL0     H66248   8.567   5.523   1.107 -3.7617 -2.0824 -1.4859
  502MOL0     H66249   8.332   5.514   1.120 -1.0388  0.0017  1.2089
  502MOL0     H66250   8.527   5.383   1.433 -0.1269 -0.7082 -2.0361
  502MOL0     H66251   8.764   5.410   1.497  0.0242 -0.3294  1.5732
  502MOL0     H66252   9.230   5.432   1.374 -3.6355 -0.4071  0.0835
  502MOL0     H66253   9.463   5.434   1.449 -0.5830  1.1872  0.4879
  502MOL0     H66254   9.564   5.212   1.834 -1.4630 -0.0881 -2.2873
  502MOL0     H66255   9.523   5.384   1.878 -3.5222 -0.9661 -1.6735
  502MOL0     H66256   9.749   5.319   1.955 -2.5329 -0.7962 -0.0471
  502MOL0     H66257   9.781   5.273   1.782 -0.8936  0.5544 -2.0378
  502MOL0     H66258   9.695   5.546   1.840 -0.7168 -2.2784  3.2963
  502MOL0     H66259   9.797   5.469   1.709 -1.1953 -2.0618 -0.0443
  502MOL0     H66260   9.895   5.644   1.863  2.3886 -1.0402 -1.0356
  502MOL0     H66261   9.873   5.552   2.001  4.5267  0.2843  1.0233
  502MOL0     H66262  10.204   5.370   1.799 -1.3335 -0.7914 -0.6634
  502MOL0     H66263   9.350   5.208   1.797 -1.2409 -4.4180 -2.8289
  502MOL0     H66264   9.125   5.193   1.727 -3.7583  0.6331 -1.7590
  503MOL0     O66265   3.500   6.381   4.209  0.7431  0.0621  0.2480
  503MOL0     C66266   3.601   6.448   4.181 -0.8853 -0.6682  0.3700
  503MOL0     O66267   3.618   6.546   4.089 -0.0954  0.8282 -1.2188
  503MOL0     C66268   3.520   6.601   4.020 -0.4453 -1.3871 -0.5713
  503MOL0     C66269   3.383   6.589   4.039 -0.1945  0.1927  0.6879
  503MOL0     C66270   3.299   6.631   3.936  0.4488 -0.5934 -0.1038
  503MOL0     C66271   3.348   6.715   3.837 -0.3080  0.0672  0.2571
  503MOL0     O66272   3.272   6.771   3.742 -0.2079  0.3450  0.1572
  503MOL0     C66273   3.145   6.709   3.701  0.1499  0.2494 -0.7110
  503MOL0     C66274   3.057   6.795   3.602  0.4677  0.1737  0.1024
  503MOL0     C66275   2.936   6.703   3.565  0.0943  0.1284 -0.2293
  503MOL0     C66276   2.879   6.764   3.439  0.0261 -0.2573  0.6398
  503MOL0     C66277   2.770   6.670   3.391 -0.9427  0.9848 -0.2246
  503MOL0     C66278   2.664   6.744   3.306  0.0766 -0.5819 -0.2650
  503MOL0     C66279   2.727   6.772   3.169 -0.9349  0.7825  0.2924
  503MOL0     C66280   2.639   6.877   3.102 -0.4019  0.9094 -0.0687
  503MOL0     N66281   2.669   6.861   2.956  0.5197  1.1660 -0.1809
  503MOL0     C66282   2.774   6.897   2.884  0.5909  0.2197 -1.4029
  503MOL0     C66283   2.757   6.829   2.765  0.2425 -0.4858 -0.2675
  503MOL0     C66284   2.869   6.801   2.663 -0.4813  0.2972  0.3532
  503MOL0     C66285   2.987   6.733   2.732 -0.9874  0.0775 -0.3083
  503MOL0     C66286   3.108   6.721   2.635  0.2170 -0.3136 -0.5332
  503MOL0     C66287   3.247   6.708   2.703  0.1383 -0.3687 -0.3519
  503MOL0     O66288   3.276   6.819   2.798  0.0501 -0.0646  0.5319
  503MOL0     C66289   3.405   6.827   2.857  0.0876  0.4763 -0.2732
  503MOL0     C66290   3.452   6.941   2.927 -0.4568  0.5678  1.2455
  503MOL0     C66291   3.584   6.958   2.977  0.2444 -0.2149 -0.2926
  503MOL0     C66292   3.669   6.851   2.978  0.3088 -0.0164 -0.2867
  503MOL0     C66293   3.800   6.850   3.039 -0.9012 -0.3316  0.0041
  503MOL0     O66294   3.835   6.962   3.108  0.1489  0.3262  0.6736
  503MOL0     C66295   3.947   6.961   3.188  0.2956  0.1871 -0.1502
  503MOL0     C66296   3.954   7.088   3.263 -0.0571 -0.0307  0.4762
  503MOL0     C66297   4.070   7.103   3.336  0.2612 -0.0931  0.2098
  503MOL0     C66298   4.171   7.011   3.352 -0.8982  0.2865 -0.2412
  503MOL0     O66299   4.294   7.049   3.406  0.2138 -0.9722 -1.4680
  503MOL0     C66300   4.318   7.155   3.495  0.3009 -0.6185 -0.0979
  503MOL0     C66301   4.275   7.112   3.642  0.2576  0.1575  0.6565
  503MOL0     C66302   4.384   7.041   3.722  0.8887 -0.1393 -0.0870
  503MOL0     C66303   4.470   7.146   3.783  0.6633  0.4943  0.5635
  503MOL0     C66304   4.588   7.088   3.857  0.2462  0.0214 -0.6353
  503MOL0     C66305   4.630   7.179   3.972 -0.0605  0.5384 -0.4969
  503MOL0     C66306   4.724   7.106   4.063 -0.1598  0.2163 -0.0020
  503MOL0     C66307   4.764   7.166   4.190  1.0000 -0.4655 -0.0703
  503MOL0    Cl66308   4.853   7.310   4.171  0.6513 -0.8095 -0.2442
  503MOL0     C66309   4.156   6.889   3.287 -0.3544 -0.0565 -0.4124
  503MOL0     C66310   4.040   6.862   3.217 -0.1494  0.0374  0.1986
  503MOL0     O66311   3.870   6.757   3.019  0.3965 -0.0338  0.4204
  503MOL0     C66312   3.618   6.733   2.925  1.0932  0.5413  0.0238
  503MOL0     C66313   3.493   6.725   2.870  0.6238  0.7355  0.2504
  503MOL0     N66314   2.633   6.767   2.762 -1.1098 -1.5596  0.2761
  503MOL0     N66315   2.583   6.791   2.882  0.1333 -0.1067 -0.3684
  503MOL0     C66316   3.482   6.749   3.832 -0.7040  0.5152 -0.0952
  503MOL0     C66317   3.565   6.682   3.922 -0.2545 -0.2845  0.0778
  503MOL0     C66318   3.726   6.405   4.245 -0.6884  0.9322  0.2054
  503MOL0     C66319   3.860   6.434   4.204  0.5095  0.7657 -0.1195
  503MOL0     C66320   3.969   6.405   4.281  0.3413  1.3697 -0.5161
  503MOL0     C66321   3.955   6.334   4.402  0.0346  0.0647 -0.4267
  503MOL0     O66322   4.075   6.291   4.461  0.5495  0.1859 -0.1353
  503MOL0     C66323   4.103   6.337   4.598 -0.1955  0.5700 -0.7572
  503MOL0     C66324   4.185   6.463   4.596 -0.1744  0.3160  0.6895
  503MOL0     C66325   4.198   6.526   4.734 -0.3846 -0.1858  0.0717
  503MOL0     C66326   4.299   6.639   4.740 -0.1187 -0.2968 -0.3347
  503MOL0     C66327   4.437   6.596   4.733 -0.4704 -0.0995  0.2045
  503MOL0     C66328   4.557   6.586   4.720  0.2061 -0.5091  0.2467
  503MOL0     C66329   3.836   6.305   4.453  0.7906 -0.0218  0.1234
  503MOL0     C66330   3.720   6.335   4.379 -0.3514  0.1813  1.0505
  503MOL0     H66331   3.349   6.520   4.115  1.9596 -1.0029  0.6161
  503MOL0     H66332   3.193   6.606   3.940  0.6328 -1.4479  3.5148
  503MOL0     H66333   3.079   6.699   3.788  0.5033  0.8466 -0.3664
  503MOL0     H66334   3.156   6.610   3.656 -0.4260  0.5874 -1.6353
  503MOL0     H66335   3.107   6.841   3.516 -3.3101  2.2918 -1.2304
  503MOL0     H66336   3.001   6.876   3.651 -0.2236  0.5168 -1.1906
  503MOL0     H66337   2.855   6.706   3.639 -0.5886 -3.5494 -0.6597
  503MOL0     H66338   2.962   6.598   3.555 -1.3678 -0.2599 -0.2480
  503MOL0     H66339   2.840   6.863   3.464 -1.6402  0.0035 -2.4763
  503MOL0     H66340   2.950   6.773   3.356 -0.8713  1.2212 -0.0001
  503MOL0     H66341   2.726   6.621   3.478  0.0840 -3.3501 -1.8635
  503MOL0     H66342   2.812   6.589   3.329  1.6883  2.4645 -0.4976
  503MOL0     H66343   2.628   6.836   3.352  0.6604 -1.7505  2.7855
  503MOL0     H66344   2.580   6.678   3.279 -0.5914  0.9283 -2.0993
  503MOL0     H66345   2.832   6.801   3.171  0.9977 -4.6912 -2.1999
  503MOL0     H66346   2.734   6.679   3.112  1.7515 -1.4348  3.7934
  503MOL0     H66347   2.664   6.978   3.137 -2.7441  1.9114 -1.1116
  503MOL0     H66348   2.533   6.861   3.122 -0.5276  1.4476 -0.2925
  503MOL0     H66349   2.860   6.947   2.927 -1.0169  2.2969 -0.4100
  503MOL0     H66350   2.897   6.895   2.614 -2.6220  1.2571  0.8764
  503MOL0     H66351   2.827   6.729   2.593 -0.5589 -0.1306  0.8352
  503MOL0     H66352   2.958   6.635   2.770 -1.3160  0.6607  1.0130
  503MOL0     H66353   3.015   6.796   2.816 -0.9824  1.5317 -1.3540
  503MOL0     H66354   3.099   6.631   2.573 -0.0196 -2.0393  1.8548
  503MOL0     H66355   3.104   6.812   2.576  0.9485 -0.3883 -0.7148
  503MOL0     H66356   3.333   6.691   2.637  2.3962 -0.4926  2.4654
  503MOL0     H66357   3.243   6.622   2.770  0.3924 -0.8458 -0.9376
  503MOL0     H66358   3.375   7.018   2.923 -1.4971 -0.3908  2.0748
  503MOL0     H66359   3.617   7.049   3.025 -1.0702  1.4384 -2.3654
  503MOL0     H66360   3.886   7.169   3.240 -0.8381  0.7810  4.7298
  503MOL0     H66361   4.082   7.209   3.358  1.2756  0.1984 -1.5124
  503MOL0     H66362   4.275   7.247   3.452 -2.4985 -0.8698  1.8786
  503MOL0     H66363   4.427   7.161   3.502  0.1506  1.2722  5.3740
  503MOL0     H66364   4.192   7.042   3.632 -0.1217  0.5943  0.6932
  503MOL0     H66365   4.231   7.194   3.700 -1.8012 -0.9509  0.7653
  503MOL0     H66366   4.444   6.983   3.651 -0.4149 -3.5715  1.4358
  503MOL0     H66367   4.335   6.982   3.799  0.3505 -0.1650 -0.4485
  503MOL0     H66368   4.506   7.229   3.722  0.7536  0.2963  0.3451
  503MOL0     H66369   4.421   7.207   3.859 -3.2353  1.4200 -2.3916
  503MOL0     H66370   4.679   7.082   3.796  0.3743 -1.6029 -0.3399
  503MOL0     H66371   4.571   6.987   3.897 -1.5161 -0.1648 -1.7521
  503MOL0     H66372   4.540   7.207   4.028 -2.5838 -1.8875 -3.0045
  503MOL0     H66373   4.672   7.269   3.926 -4.5944  2.8905 -0.5865
  503MOL0     H66374   4.682   7.007   4.080 -0.3919  0.5276  1.3487
  503MOL0     H66375   4.819   7.094   4.011  1.2645  0.3414  2.4030
  503MOL0     H66376   4.833   7.102   4.246  2.1244 -0.8269 -1.7854
  503MOL0     H66377   4.674   7.185   4.249  0.1092  0.5988 -1.7163
  503MOL0     H66378   4.228   6.808   3.287  0.6873  0.8177  0.9776
  503MOL0     H66379   4.050   6.764   3.173 -1.7328  0.0670 -0.3027
  503MOL0     H66380   3.664   6.636   2.936 -0.8082 -0.4110 -0.0026
  503MOL0     H66381   3.471   6.628   2.827  2.2548  1.7828 -3.2368
  503MOL0     H66382   3.515   6.819   3.756 -0.4910 -1.1087 -1.5392
  503MOL0     H66383   3.671   6.706   3.923 -0.1008 -0.9244 -0.0551
  503MOL0     H66384   3.878   6.481   4.108  0.2455  0.8070 -0.1488
  503MOL0     H66385   4.065   6.422   4.234  0.0947 -1.3750 -2.2366
  503MOL0     H66386   4.155   6.265   4.662 -0.8740 -0.9918 -1.9165
  503MOL0     H66387   4.011   6.361   4.651  0.3107  0.5257  0.1609
  503MOL0     H66388   4.285   6.440   4.556 -0.6325  0.5856 -0.6433
  503MOL0     H66389   4.134   6.524   4.522  1.4266 -0.1863 -0.8939
  503MOL0     H66390   4.222   6.462   4.820  0.7176 -0.2355 -0.2630
  503MOL0     H66391   4.102   6.574   4.756 -0.2662 -0.7096  1.8747
  503MOL0     H66392   4.280   6.708   4.657  0.0154  1.8255  1.3049
  503MOL0     H66393   4.284   6.698   4.831 -2.3116 -2.1532  0.6167
  503MOL0     H66394   4.662   6.566   4.709  0.5120  2.0531 -2.9249
  503MOL0     H66395   3.817   6.251   4.545 -0.6544 -1.5829 -1.0246
  503MOL0     H66396   3.628   6.297   4.423 -0.9067 -0.7728 -0.7934
  504MOL0     O66397   5.637   5.666   0.194 -0.4463 -0.1075 -1.0309
  504MOL0     C66398   5.678   5.748   0.119  0.5798 -0.1638  1.3081
  504MOL0     O66399   5.597   5.837   0.054 -0.1450  0.3721  0.6466
  504MOL0     C66400   5.471   5.847   0.105  0.5024  0.3595  0.6206
  504MOL0     C66401   5.375   5.747   0.062  0.0847  0.0399 -0.6551
  504MOL0     C66402   5.242   5.766   0.107  0.0342 -0.1435  0.1899
  504MOL0     C66403   5.203   5.866   0.194  0.5669  0.2150 -0.0027
  504MOL0     O66404   5.076   5.857   0.238  0.1756 -0.0855  0.1224
  504MOL0     C66405   5.042   5.935   0.357  0.1997  0.7847  0.2724
  504MOL0     C66406   4.896   5.897   0.394  0.9853  0.3666  0.8094
  504MOL0     C66407   4.887   5.742   0.441 -0.4298 -0.5907  0.3641
  504MOL0     C66408   4.951   5.716   0.570  0.6454 -0.5346  0.4759
  504MOL0     C66409   4.888   5.599   0.640 -0.2899  0.0979 -0.1260
  504MOL0     C66410   4.764   5.630   0.703  0.0875 -0.4848  0.6003
  504MOL0     C66411   4.767   5.753   0.806 -0.4043  0.2873  0.6650
  504MOL0     C66412   4.880   5.746   0.905  0.1887 -0.0072 -0.5659
  504MOL0     N66413   4.852   5.852   0.994 -0.4553  0.4305 -0.1754
  504MOL0     C66414   4.771   5.845   1.106 -0.0065  0.4998  0.3719
  504MOL0     C66415   4.802   5.955   1.178 -0.4238 -0.4736 -0.1323
  504MOL0     C66416   4.726   6.019   1.299  0.4957  0.9627  0.1136
  504MOL0     C66417   4.599   6.092   1.252 -0.4712  0.5628 -0.4233
  504MOL0     C66418   4.639   6.234   1.220 -0.2209  0.3045  0.2642
  504MOL0     C66419   4.526   6.300   1.137 -0.0796  0.0186  0.2739
  504MOL0     O66420   4.409   6.312   1.221 -0.5825 -0.2521  0.3229
  504MOL0     C66421   4.295   6.344   1.164  0.1541  0.7857  0.1765
  504MOL0     C66422   4.175   6.360   1.235 -0.6199 -0.8299  0.4352
  504MOL0     C66423   4.061   6.420   1.182 -0.6162 -0.5487  0.8676
  504MOL0     C66424   4.051   6.445   1.044 -0.6899 -0.0519 -0.0214
  504MOL0     C66425   3.921   6.488   1.001  0.9453 -0.1828  0.2800
  504MOL0     O66426   3.817   6.432   1.071  0.0955 -0.1253  0.1043
  504MOL0     C66427   3.696   6.492   1.046 -0.2445  0.6317  0.4076
  504MOL0     C66428   3.601   6.433   0.957  0.8989  0.7009  0.1548
  504MOL0     C66429   3.480   6.486   0.932  0.5547  0.0928  0.2421
  504MOL0     C66430   3.442   6.602   0.992  0.3318 -0.1930 -0.8211
  504MOL0     O66431   3.318   6.651   0.957 -0.0227  1.3792  0.3847
  504MOL0     C66432   3.254   6.731   1.057 -0.2231 -0.3730 -0.7047
  504MOL0     C66433   3.111   6.769   1.008  0.6712  0.6087 -0.7161
  504MOL0     C66434   3.004   6.667   1.051 -0.1771  0.2633  0.1163
  504MOL0     C66435   2.862   6.716   1.003 -0.8879 -0.2299  0.1675
  504MOL0     C66436   2.787   6.831   1.073 -0.4884  0.1995 -0.2598
  504MOL0     C66437   2.748   6.785   1.220  1.0628  1.3371  1.1890
  504MOL0     C66438   2.650   6.665   1.242 -0.4424  0.3771  0.9009
  504MOL0     C66439   2.624   6.647   1.382 -0.4406 -0.1207  0.4278
  504MOL0    Cl66440   2.514   6.789   1.430  0.1045  0.1437 -0.2973
  504MOL0     C66441   3.525   6.664   1.092 -0.8161  0.0233 -0.7869
  504MOL0     C66442   3.659   6.610   1.113  0.9575 -0.9661  0.5088
  504MOL0     O66443   3.913   6.570   0.910 -0.1813 -0.3459  0.0567
  504MOL0     C66444   4.170   6.434   0.974  0.4183 -1.1083  0.1881
  504MOL0     C66445   4.290   6.388   1.023 -0.2037  0.1876 -0.4452
  504MOL0     N66446   4.917   6.018   1.116  0.5863  1.5902  0.1627
  504MOL0     N66447   4.942   5.953   1.006  0.2000  0.0919 -0.5174
  504MOL0     C66448   5.302   5.952   0.253  1.7742  0.3130 -0.0276
  504MOL0     C66449   5.431   5.941   0.204  0.3039 -0.2691  0.5196
  504MOL0     C66450   5.821   5.776   0.099  0.4741 -0.4277  0.1419
  504MOL0     C66451   5.873   5.894   0.041  0.8004  0.2524 -0.2269
  504MOL0     C66452   6.013   5.896   0.015 -0.6381  0.9499  0.1254
  504MOL0     C66453   6.102   5.804   0.058  0.3580 -0.2965  0.0241
  504MOL0     O66454   6.228   5.836   0.028 -0.7434 -0.0065  0.2204
  504MOL0     C66455   6.326   5.733   0.069 -0.3747  0.3942  1.0890
  504MOL0     C66456   6.461   5.778   0.013  0.2386 -0.0940 -0.2479
  504MOL0     C66457   6.557   5.658  -0.025  0.6868 -0.4844  0.5372
  504MOL0     C66458   6.693   5.717  -0.053 -0.1365  0.0662 -0.2798
  504MOL0     C66459   6.722   5.750  -0.189 -0.3078  0.8276  0.1363
  504MOL0     C66460   6.765   5.758  -0.300 -0.2172  0.1916 -0.0322
  504MOL0     C66461   6.051   5.695   0.123  0.8044  0.4784 -0.0596
  504MOL0     C66462   5.909   5.676   0.139  0.2548  0.0319 -0.0922
  504MOL0     H66463   5.403   5.667  -0.005 -0.5280  0.6433 -1.6623
  504MOL0     H66464   5.153   5.708   0.083  0.0430 -0.2638  0.4478
  504MOL0     H66465   5.042   6.041   0.332  1.1893  0.4369 -1.3831
  504MOL0     H66466   5.110   5.907   0.438 -1.1384 -2.5406  0.4022
  504MOL0     H66467   4.834   5.916   0.306  1.3868 -3.8275 -0.6084
  504MOL0     H66468   4.864   5.959   0.479  1.9231  1.6258  0.2699
  504MOL0     H66469   4.939   5.680   0.367 -1.7863  1.3787 -2.4017
  504MOL0     H66470   4.788   5.696   0.436  0.1609 -1.7821 -2.4305
  504MOL0     H66471   5.054   5.692   0.542  1.1838 -0.7152  2.4100
  504MOL0     H66472   4.962   5.805   0.633 -1.6713  1.2509 -1.4671
  504MOL0     H66473   4.956   5.557   0.715  0.6046  2.4649  0.4975
  504MOL0     H66474   4.865   5.530   0.559  2.5701  0.2496 -1.1732
  504MOL0     H66475   4.729   5.536   0.745 -0.6656 -1.2702 -1.6326
  504MOL0     H66476   4.685   5.647   0.628 -0.3883  0.6640  1.3272
  504MOL0     H66477   4.770   5.844   0.747  0.7099 -0.3730 -0.3433
  504MOL0     H66478   4.672   5.751   0.861 -0.7635  0.2868  0.0505
  504MOL0     H66479   4.975   5.761   0.852 -1.1599  1.9671 -2.5797
  504MOL0     H66480   4.878   5.651   0.961  0.8023  0.3652  0.1106
  504MOL0     H66481   4.681   5.785   1.121 -0.2805  1.0885  1.1715
  504MOL0     H66482   4.788   6.086   1.359  1.9873  1.4303 -1.8263
  504MOL0     H66483   4.692   5.944   1.371 -1.9410  1.0981 -0.7888
  504MOL0     H66484   4.522   6.088   1.329  1.8885 -0.0854  2.0713
  504MOL0     H66485   4.551   6.044   1.166 -0.6261 -2.3074  1.1440
  504MOL0     H66486   4.666   6.300   1.302 -0.7377 -1.9668  2.3675
  504MOL0     H66487   4.728   6.222   1.158  0.3734  1.9486  0.7471
  504MOL0     H66488   4.515   6.254   1.039  0.4523  1.2280 -0.3800
  504MOL0     H66489   4.559   6.400   1.109  0.8208 -0.2538  0.3279
  504MOL0     H66490   4.180   6.344   1.343 -1.2295 -1.4595  0.3759
  504MOL0     H66491   3.976   6.424   1.249 -0.0010 -1.7027  1.7598
  504MOL0     H66492   3.624   6.338   0.911 -2.0349  0.7166 -1.6333
  504MOL0     H66493   3.409   6.432   0.869  0.3453 -1.0661  1.4197
  504MOL0     H66494   3.295   6.832   1.068  0.3421 -0.5964 -0.7096
  504MOL0     H66495   3.240   6.688   1.157 -2.4760 -0.3193 -0.9425
  504MOL0     H66496   3.115   6.785   0.900 -0.5011  0.8037 -0.7377
  504MOL0     H66497   3.083   6.867   1.047  0.6657 -0.4257  2.1388
  504MOL0     H66498   2.995   6.650   1.158 -1.2873 -1.3327 -0.1945
  504MOL0     H66499   3.044   6.576   1.006  2.1788  0.1167  2.3191
  504MOL0     H66500   2.883   6.756   0.903  1.5742 -2.2114 -0.2159
  504MOL0     H66501   2.804   6.623   1.002  1.2573 -1.6532  1.0349
  504MOL0     H66502   2.703   6.854   1.007 -0.6832 -2.4667 -1.0513
  504MOL0     H66503   2.850   6.921   1.080  1.6097 -1.2019 -0.0822
  504MOL0     H66504   2.703   6.875   1.263 -2.5821  0.4768 -0.5127
  504MOL0     H66505   2.847   6.774   1.267  1.8353 -0.5385 -0.7207
  504MOL0     H66506   2.545   6.678   1.215 -1.4307  0.1347  4.2367
  504MOL0     H66507   2.694   6.577   1.194 -1.6614  0.2702 -0.0738
  504MOL0     H66508   2.717   6.645   1.439 -0.2001 -1.8982  0.0186
  504MOL0     H66509   2.577   6.550   1.398  3.7552 -2.1462  2.0724
  504MOL0     H66510   3.494   6.757   1.138  0.2372 -1.2048  2.6630
  504MOL0     H66511   3.729   6.664   1.176 -0.6233 -1.6194  2.9453
  504MOL0     H66512   4.169   6.470   0.871  0.8571  0.6763  0.7804
  504MOL0     H66513   4.376   6.391   0.956  0.4965 -1.2507  0.3446
  504MOL0     H66514   5.291   6.025   0.332 -0.4849  2.2734 -1.9953
  504MOL0     H66515   5.502   6.014   0.242 -2.0271  0.4033  4.0886
  504MOL0     H66516   5.798   5.958  -0.005 -2.8401 -2.1664  1.8247
  504MOL0     H66517   6.037   5.980  -0.050 -0.3689  0.2143 -0.7532
  504MOL0     H66518   6.293   5.639   0.024  0.7422  0.8002 -0.6831
  504MOL0     H66519   6.327   5.709   0.176 -0.6655  3.1116  1.7651
  504MOL0     H66520   6.444   5.846  -0.071  0.0555 -0.2941 -0.3717
  504MOL0     H66521   6.512   5.815   0.102 -2.8633 -3.0645  3.1168
  504MOL0     H66522   6.523   5.603  -0.113  1.3546 -0.4800  0.2712
  504MOL0     H66523   6.574   5.588   0.057  0.6176 -0.6464  0.4137
  504MOL0     H66524   6.714   5.798   0.018  1.0191 -1.1450  0.7874
  504MOL0     H66525   6.759   5.636  -0.022 -1.0522 -0.8062 -0.5687
  504MOL0     H66526   6.786   5.783  -0.402  0.0258  1.0208  0.2170
  504MOL0     H66527   6.108   5.607   0.151 -2.5771 -1.2997  1.8625
  504MOL0     H66528   5.882   5.580   0.183  1.7657 -1.2060 -1.6925
  505MOL0     O66529   9.223   4.782   5.816  0.4123 -0.2330 -0.4886
  505MOL0     C66530   9.180   4.758   5.926 -0.2305  0.4851  0.1375
  505MOL0     O66531   9.045   4.744   5.963  0.2555  0.1228 -0.1603
  505MOL0     C66532   8.966   4.708   5.854 -0.5672 -0.5714  0.0038
  505MOL0     C66533   8.995   4.598   5.778  0.2230 -0.2849 -0.2081
  505MOL0     C66534   8.916   4.572   5.666  0.0948 -0.6211  1.0269
  505MOL0     C66535   8.813   4.655   5.624 -0.4335 -0.3128 -0.5585
  505MOL0     O66536   8.740   4.630   5.512  0.5439  0.3500 -0.3316
  505MOL0     C66537   8.786   4.528   5.419  0.4252 -0.3694 -0.3657
  505MOL0     C66538   8.702   4.509   5.296  0.6228  0.3609  0.1216
  505MOL0     C66539   8.687   4.641   5.226  0.8630 -0.0627  0.2120
  505MOL0     C66540   8.660   4.619   5.067  0.4580 -0.7189 -0.6259
  505MOL0     C66541   8.788   4.584   4.987 -0.0019 -0.9507  0.1415
  505MOL0     C66542   8.759   4.533   4.852 -0.0130  0.4293  1.3519
  505MOL0     C66543   8.666   4.629   4.778  0.2905 -0.0528 -0.2510
  505MOL0     C66544   8.654   4.589   4.627 -0.0078  1.6291  0.7391
  505MOL0     N66545   8.569   4.460   4.606 -0.2730 -0.4954  0.5234
  505MOL0     C66546   8.441   4.438   4.665 -0.2258 -0.1885  0.6791
  505MOL0     C66547   8.406   4.315   4.629 -0.0213  0.1714  0.2355
  505MOL0     C66548   8.269   4.260   4.657 -0.1944 -0.1506  0.0173
  505MOL0     C66549   8.166   4.365   4.605  0.1460 -0.5722  0.8898
  505MOL0     C66550   8.024   4.303   4.618 -0.0429  0.0725  0.0666
  505MOL0     C66551   7.977   4.291   4.767  0.3994 -0.8120  0.6634
  505MOL0     O66552   7.880   4.186   4.769  0.6037  0.6161  0.5636
  505MOL0     C66553   7.745   4.209   4.747 -0.3036 -0.6619 -0.8271
  505MOL0     C66554   7.665   4.103   4.798 -0.4660 -0.1692  0.4096
  505MOL0     C66555   7.528   4.113   4.784  0.0883  0.1376 -0.0398
  505MOL0     C66556   7.459   4.218   4.722 -0.6896 -0.3564  0.3009
  505MOL0     C66557   7.313   4.222   4.717 -0.3845 -0.2949 -1.4618
  505MOL0     O66558   7.248   4.280   4.612 -0.3463  0.8122 -0.3077
  505MOL0     C66559   7.112   4.282   4.610  0.0767 -1.0573  0.1213
  505MOL0     C66560   7.045   4.179   4.550  0.3334  0.7275  0.3870
  505MOL0     C66561   6.904   4.180   4.536  0.5409  0.1805 -0.2260
  505MOL0     C66562   6.827   4.286   4.594 -0.0027 -0.3724  0.2529
  505MOL0     O66563   6.693   4.306   4.592 -0.4994  0.1160  0.2835
  505MOL0     C66564   6.626   4.197   4.543  0.2159  0.5209 -0.6448
  505MOL0     C66565   6.479   4.235   4.535 -0.7172  0.4475  0.6432
  505MOL0     C66566   6.424   4.283   4.658 -0.8574  0.2162  0.1269
  505MOL0     C66567   6.262   4.278   4.653 -0.2438 -0.4340 -0.5007
  505MOL0     C66568   6.214   4.347   4.792 -0.2687  0.2067  0.3716
  505MOL0     C66569   6.071   4.328   4.828 -0.3631  0.8879  0.6063
  505MOL0     C66570   6.030   4.174   4.812 -0.7609  0.1902 -0.5454
  505MOL0     C66571   5.921   4.136   4.917 -0.7834  0.2846  0.1408
  505MOL0    Cl66572   5.785   4.251   4.874 -0.5166 -0.5508  0.0257
  505MOL0     C66573   6.896   4.392   4.655  0.1816 -0.3988  0.7235
  505MOL0     C66574   7.035   4.389   4.663 -0.4251  0.6135 -0.5304
  505MOL0     O66575   7.260   4.158   4.809  0.3312 -0.2290  0.3199
  505MOL0     C66576   7.542   4.332   4.682  0.8396 -0.2541  0.4857
  505MOL0     C66577   7.680   4.321   4.689  0.4663 -0.3141  0.7429
  505MOL0     N66578   8.507   4.255   4.556  0.8209 -0.4497 -0.7967
  505MOL0     N66579   8.607   4.344   4.545  0.7536  0.9177  0.3703
  505MOL0     C66580   8.789   4.767   5.706 -0.4159  0.0794  0.1163
  505MOL0     C66581   8.859   4.797   5.824  0.4682  0.5568 -0.1087
  505MOL0     C66582   9.274   4.763   6.036  0.1450 -0.1774  0.1109
  505MOL0     C66583   9.235   4.789   6.166  0.2173 -0.2618  0.6571
  505MOL0     C66584   9.339   4.799   6.265  0.4594  1.5075 -0.4846
  505MOL0     C66585   9.471   4.758   6.237 -0.8020 -0.3264 -0.5777
  505MOL0     O66586   9.559   4.770   6.344 -0.5852  0.1040 -0.3785
  505MOL0     C66587   9.697   4.718   6.332 -0.7943  0.5334  0.2730
  505MOL0     C66588   9.703   4.578   6.396 -0.3444  0.5792  0.2291
  505MOL0     C66589   9.693   4.597   6.546 -0.4791 -0.9412  0.5272
  505MOL0     C66590   9.698   4.459   6.635  0.0570 -0.4496  0.2552
  505MOL0     C66591   9.569   4.388   6.630 -0.0280 -0.5979  0.5247
  505MOL0     C66592   9.453   4.346   6.660  0.5383 -0.7234 -0.4994
  505MOL0     C66593   9.506   4.731   6.103 -0.2155 -0.4893 -0.1432
  505MOL0     C66594   9.406   4.741   6.001  0.0382  0.4804 -1.2877
  505MOL0     H66595   9.073   4.526   5.802  0.9831 -1.0003 -4.0989
  505MOL0     H66596   8.941   4.487   5.603 -2.7587  0.7974 -2.3785
  505MOL0     H66597   8.811   4.430   5.462 -0.8813 -0.3213  0.5335
  505MOL0     H66598   8.884   4.565   5.386 -0.2942  1.9282 -0.0698
  505MOL0     H66599   8.609   4.456   5.317  3.0749 -3.4270  2.9037
  505MOL0     H66600   8.765   4.446   5.232 -1.1064 -1.6931  0.3247
  505MOL0     H66601   8.775   4.706   5.232  2.5107 -2.1195 -0.6443
  505MOL0     H66602   8.604   4.690   5.278 -0.5833 -1.7796 -0.3758
  505MOL0     H66603   8.573   4.554   5.058 -1.8646  2.0487  0.1841
  505MOL0     H66604   8.611   4.708   5.025  0.9697  0.4459  1.1192
  505MOL0     H66605   8.852   4.509   5.035  1.2418  0.7848  1.3206
  505MOL0     H66606   8.859   4.667   4.991  0.2884 -1.0767 -1.5678
  505MOL0     H66607   8.708   4.437   4.862 -2.4765  1.7027  1.7233
  505MOL0     H66608   8.848   4.523   4.790 -1.0121  1.4221 -0.3269
  505MOL0     H66609   8.566   4.638   4.823  0.3163  0.6455 -0.3289
  505MOL0     H66610   8.702   4.732   4.773  0.2086 -0.0526 -1.0736
  505MOL0     H66611   8.751   4.579   4.579 -0.3511 -0.9611  0.4442
  505MOL0     H66612   8.603   4.671   4.576  0.9715  1.6841 -0.1738
  505MOL0     H66613   8.379   4.515   4.710 -0.0470  0.0363  0.5397
  505MOL0     H66614   8.255   4.234   4.763 -1.4594 -0.9875 -0.3365
  505MOL0     H66615   8.258   4.165   4.605  1.7819 -1.4606  1.7888
  505MOL0     H66616   8.192   4.374   4.499 -2.1400 -0.6122  0.2905
  505MOL0     H66617   8.170   4.462   4.656  4.3592 -0.8592  1.4830
  505MOL0     H66618   7.947   4.357   4.563 -2.2069 -1.5574  1.2990
  505MOL0     H66619   8.022   4.203   4.574  1.0739  1.6495 -3.9405
  505MOL0     H66620   7.937   4.388   4.797  1.4710 -0.4013  0.7721
  505MOL0     H66621   8.060   4.273   4.835  1.1323  1.1603  0.3333
  505MOL0     H66622   7.715   4.021   4.849 -0.2052 -0.8208 -0.8696
  505MOL0     H66623   7.471   4.029   4.823 -1.0673  0.9740  0.1258
  505MOL0     H66624   7.097   4.098   4.500 -1.5757 -1.8195  2.2793
  505MOL0     H66625   6.847   4.102   4.486  0.1458  1.7052 -2.2618
  505MOL0     H66626   6.633   4.113   4.613  0.3669 -0.6510 -2.0251
  505MOL0     H66627   6.670   4.158   4.451  5.6738 -1.4260  2.3274
  505MOL0     H66628   6.435   4.146   4.489  1.7547 -2.0104  2.6996
  505MOL0     H66629   6.475   4.308   4.454  0.1848  0.5540  0.6879
  505MOL0     H66630   6.453   4.388   4.668 -0.0714 -0.0062  0.2404
  505MOL0     H66631   6.458   4.222   4.742 -0.7829  1.6639  1.1708
  505MOL0     H66632   6.218   4.339   4.574 -1.8690  1.2125  1.5218
  505MOL0     H66633   6.227   4.175   4.648  0.1752 -0.6003 -0.1022
  505MOL0     H66634   6.245   4.452   4.799 -0.9181  0.3069  3.0434
  505MOL0     H66635   6.277   4.312   4.875 -2.0457 -0.1800  1.6187
  505MOL0     H66636   6.008   4.387   4.761 -0.9578 -0.1742  0.2064
  505MOL0     H66637   6.056   4.350   4.934 -2.0831 -0.2194  0.6445
  505MOL0     H66638   5.998   4.152   4.709 -4.3347 -3.4608  1.0741
  505MOL0     H66639   6.111   4.103   4.828 -0.6856  0.9855  3.6775
  505MOL0     H66640   5.961   4.164   5.015 -0.2553  0.9916 -0.2631
  505MOL0     H66641   5.901   4.029   4.910 -1.9715  0.2878  2.5501
  505MOL0     H66642   6.847   4.469   4.712 -0.7579  0.0337 -0.6112
  505MOL0     H66643   7.089   4.476   4.700  2.0906 -0.8917 -0.4148
  505MOL0     H66644   7.507   4.431   4.653  0.8336 -0.5942 -0.7103
  505MOL0     H66645   7.746   4.399   4.654  0.6777 -0.9191 -0.2490
  505MOL0     H66646   8.708   4.835   5.679  1.0884  2.2997  0.9343
  505MOL0     H66647   8.830   4.883   5.884  4.3268  1.5462  0.6507
  505MOL0     H66648   9.133   4.809   6.199  0.7409  0.4781  1.8899
  505MOL0     H66649   9.301   4.840   6.358 -4.6381  3.3176 -3.0027
  505MOL0     H66650   9.763   4.793   6.377 -1.6202  1.3773  0.1004
  505MOL0     H66651   9.733   4.720   6.228 -1.5100  1.0946  0.0257
  505MOL0     H66652   9.621   4.519   6.355 -0.5949  0.4958  0.8379
  505MOL0     H66653   9.793   4.525   6.364 -0.8625 -0.6132  0.7018
  505MOL0     H66654   9.602   4.653   6.566  0.3935  1.2570 -1.0996
  505MOL0     H66655   9.773   4.663   6.581 -0.6823 -2.0620  3.2633
  505MOL0     H66656   9.776   4.391   6.600 -0.7705 -1.1746 -0.2413
  505MOL0     H66657   9.723   4.490   6.736  1.7014  1.2780 -0.6148
  505MOL0     H66658   9.361   4.307   6.699  0.8839  1.6783  3.1801
  505MOL0     H66659   9.606   4.700   6.071 -0.7179  0.1093 -2.4730
  505MOL0     H66660   9.443   4.716   5.902 -0.3806 -2.4748 -0.7940
  506MOL0     O66661   7.436   0.334   3.124 -0.3337 -0.1538  0.9023
  506MOL0     C66662   7.384   0.244   3.186  0.3685  0.6635  0.7049
  506MOL0     O66663   7.257   0.239   3.223 -0.0487 -0.0811  0.0651
  506MOL0     C66664   7.165   0.327   3.171  0.0752 -0.3759 -0.0625
  506MOL0     C66665   7.061   0.266   3.096 -0.2305 -0.2642  0.0748
  506MOL0     C66666   6.969   0.349   3.029 -0.3463  0.3943 -0.1968
  506MOL0     C66667   6.991   0.489   3.032 -0.2369 -0.6522  0.2740
  506MOL0     O66668   6.921   0.572   2.951  0.4075 -1.2906  0.3382
  506MOL0     C66669   6.775   0.564   2.974 -0.2574 -0.1751  0.2342
  506MOL0     C66670   6.723   0.706   2.969  0.3687  0.4353  0.6047
  506MOL0     C66671   6.563   0.691   2.985  0.3290 -0.4022  0.0920
  506MOL0     C66672   6.507   0.824   2.957 -1.2979  0.2870 -0.2765
  506MOL0     C66673   6.348   0.811   2.987 -1.1078 -0.2019 -0.3622
  506MOL0     C66674   6.296   0.959   2.997 -0.3668 -0.3557  0.1693
  506MOL0     C66675   6.266   1.041   2.866  0.3300 -1.2016  0.1194
  506MOL0     C66676   6.393   1.119   2.822  0.3872  0.2024  1.0975
  506MOL0     N66677   6.366   1.228   2.724 -1.0344  0.2403 -0.4759
  506MOL0     C66678   6.354   1.357   2.755  0.1808  0.4091  0.0056
  506MOL0     C66679   6.317   1.419   2.647  0.3295 -0.2657 -0.2852
  506MOL0     C66680   6.273   1.572   2.652 -0.3949 -0.3431  0.1773
  506MOL0     C66681   6.118   1.610   2.642  0.2085  0.2385  0.3106
  506MOL0     C66682   6.027   1.493   2.689 -0.4408 -1.0468 -0.3979
  506MOL0     C66683   5.891   1.495   2.627  0.4417  0.8965 -1.0329
  506MOL0     O66684   5.810   1.407   2.710  0.0231 -0.2947 -0.1629
  506MOL0     C66685   5.686   1.394   2.665  0.4192  0.1000  0.0531
  506MOL0     C66686   5.620   1.286   2.715  0.1497 -0.7478 -0.9950
  506MOL0     C66687   5.493   1.244   2.667 -0.9615 -0.1052 -0.2906
  506MOL0     C66688   5.434   1.314   2.562 -0.3851 -0.4869  0.9300
  506MOL0     C66689   5.299   1.255   2.514  0.1934 -0.0160 -0.5244
  506MOL0     O66690   5.256   1.309   2.399  0.0487  0.6269 -0.6039
  506MOL0     C66691   5.127   1.289   2.364 -0.3621  0.2124  0.1797
  506MOL0     C66692   5.030   1.360   2.434  1.0486 -0.4689  0.7947
  506MOL0     C66693   4.895   1.327   2.412 -0.5542  0.3055 -0.2680
  506MOL0     C66694   4.859   1.226   2.315 -0.4328  0.2613  0.5639
  506MOL0     O66695   4.729   1.211   2.274  0.2760  0.5395 -1.0319
  506MOL0     C66696   4.701   1.201   2.134  0.9687 -0.1486  0.5969
  506MOL0     C66697   4.593   1.098   2.097 -0.1128 -0.3042  0.2464
  506MOL0     C66698   4.495   1.144   1.986  1.1140  0.1264  0.1490
  506MOL0     C66699   4.419   1.027   1.935  0.0868  0.6893 -0.2897
  506MOL0     C66700   4.330   1.068   1.818  0.1918 -0.4576  0.7056
  506MOL0     C66701   4.211   1.159   1.851 -0.6599  0.4597 -0.1256
  506MOL0     C66702   4.096   1.086   1.926 -0.8875  0.1074 -0.2925
  506MOL0     C66703   3.978   1.178   1.932 -0.5794 -0.5100 -0.4384
  506MOL0    Cl66704   3.844   1.091   2.026 -0.0273 -0.2212  0.3017
  506MOL0     C66705   4.965   1.165   2.239 -0.4807 -0.1139 -0.7978
  506MOL0     C66706   5.098   1.185   2.281  0.2736  0.2194  0.7199
  506MOL0     O66707   5.248   1.164   2.577 -0.3261 -0.4744  0.0260
  506MOL0     C66708   5.498   1.433   2.508  0.6795  0.1166  0.5761
  506MOL0     C66709   5.617   1.475   2.566  0.1509 -0.1268 -0.1777
  506MOL0     N66710   6.307   1.321   2.541 -0.2745  0.0413  0.2592
  506MOL0     N66711   6.342   1.208   2.592  0.1470  0.1068  0.2860
  506MOL0     C66712   7.084   0.546   3.121 -0.1468 -0.1786  0.4147
  506MOL0     C66713   7.170   0.462   3.184 -0.0018 -0.4231 -0.2517
  506MOL0     C66714   7.463   0.125   3.228 -0.6415 -0.5208 -0.0298
  506MOL0     C66715   7.602   0.115   3.197  0.2906  0.2635 -0.4494
  506MOL0     C66716   7.674  -0.000   3.250 -0.1364 -0.6816 -0.1681
  506MOL0     C66717   7.603  -0.101   3.305 -0.9786 -0.5395  0.2463
  506MOL0     O66718   7.651  -0.215   3.357 -0.0768 -0.1634  0.1151
  506MOL0     C66719   7.790  -0.241   3.371  0.8269 -0.0303 -1.0414
  506MOL0     C66720   7.836  -0.209   3.514  0.2734 -0.2129 -0.2976
  506MOL0     C66721   7.988  -0.242   3.518 -0.0430 -0.0537  0.5010
  506MOL0     C66722   8.045  -0.251   3.661  0.3853  0.1612 -0.1928
  506MOL0     C66723   8.162  -0.334   3.675  0.5292 -0.3823 -0.2832
  506MOL0     C66724   8.275  -0.382   3.674 -0.9826 -0.2555 -0.2859
  506MOL0     C66725   7.468  -0.098   3.327  0.2961 -0.1702  0.1000
  506MOL0     C66726   7.393   0.009   3.287 -0.0642 -0.5892 -0.3476
  506MOL0     H66727   7.055   0.160   3.071  0.4674 -0.2741 -0.0767
  506MOL0     H66728   6.900   0.298   2.963 -2.1118 -3.0917  3.8132
  506MOL0     H66729   6.738   0.510   3.061  0.1285 -0.6153  0.1312
  506MOL0     H66730   6.742   0.505   2.888  0.1592 -0.9772  0.6225
  506MOL0     H66731   6.756   0.746   2.872 -0.7880  0.7318  0.3148
  506MOL0     H66732   6.773   0.760   3.050  4.4250 -2.9519  0.6794
  506MOL0     H66733   6.550   0.665   3.091  3.1695 -2.8628 -0.0269
  506MOL0     H66734   6.525   0.608   2.925  0.8219  0.2028 -1.0832
  506MOL0     H66735   6.563   0.888   3.025  0.1117  0.4983 -1.5876
  506MOL0     H66736   6.531   0.857   2.856 -0.0295 -0.0717 -0.1105
  506MOL0     H66737   6.325   0.760   3.081 -3.3857  1.6064  0.1477
  506MOL0     H66738   6.301   0.759   2.904 -3.9960  0.5173  0.7018
  506MOL0     H66739   6.374   1.005   3.058  0.0029  0.0610 -0.5981
  506MOL0     H66740   6.200   0.965   3.049 -0.0925  1.9095  0.5301
  506MOL0     H66741   6.222   0.972   2.794  0.0659 -1.4373  0.4990
  506MOL0     H66742   6.198   1.123   2.888  0.3636 -1.6295  2.0622
  506MOL0     H66743   6.451   1.045   2.766 -1.1140  0.8609 -1.5136
  506MOL0     H66744   6.451   1.161   2.905  2.5098 -2.3078  1.0197
  506MOL0     H66745   6.360   1.405   2.852 -0.1409 -2.2675  1.4167
  506MOL0     H66746   6.324   1.618   2.566 -2.0784 -3.1830 -2.5935
  506MOL0     H66747   6.314   1.610   2.746  1.2297 -2.6237  0.4874
  506MOL0     H66748   6.088   1.638   2.540 -3.2868 -0.0211  1.1399
  506MOL0     H66749   6.098   1.702   2.697 -0.0829  0.9361 -0.9183
  506MOL0     H66750   6.067   1.397   2.656  0.3625 -0.8360 -0.0655
  506MOL0     H66751   6.029   1.502   2.798  4.3560 -0.3883 -0.3505
  506MOL0     H66752   5.899   1.461   2.523  0.5819 -0.2316 -0.6745
  506MOL0     H66753   5.860   1.600   2.627 -0.5613  0.7327  2.3606
  506MOL0     H66754   5.671   1.235   2.797 -0.8648  1.0670  0.8386
  506MOL0     H66755   5.461   1.152   2.715  0.4495  0.6908  2.3654
  506MOL0     H66756   5.041   1.449   2.494 -1.9669 -1.3309  2.8510
  506MOL0     H66757   4.812   1.373   2.465  0.1768  0.9850  0.3190
  506MOL0     H66758   4.782   1.205   2.060  0.5154  0.3840  0.1195
  506MOL0     H66759   4.651   1.297   2.122  0.6478 -0.3133  0.6111
  506MOL0     H66760   4.538   1.060   2.185 -0.8228  0.0081 -0.0538
  506MOL0     H66761   4.642   1.006   2.065  1.4123  0.5414  0.1054
  506MOL0     H66762   4.552   1.188   1.903  1.0347  1.7991  0.9378
  506MOL0     H66763   4.423   1.218   2.024 -0.6763 -0.5097 -1.7787
  506MOL0     H66764   4.490   0.949   1.906 -0.5092  0.2752 -0.6625
  506MOL0     H66765   4.349   0.995   2.013 -3.5878  3.5469 -2.0861
  506MOL0     H66766   4.286   0.975   1.781 -1.3991  1.3172 -2.2607
  506MOL0     H66767   4.379   1.116   1.733 -0.0606 -1.1421  0.1616
  506MOL0     H66768   4.167   1.200   1.760  1.5451  3.7174  0.1021
  506MOL0     H66769   4.240   1.236   1.922  3.2761 -1.9718  1.2557
  506MOL0     H66770   4.064   0.995   1.874 -3.3875  0.8832 -0.2539
  506MOL0     H66771   4.115   1.063   2.031 -4.8052 -1.3386  0.2623
  506MOL0     H66772   3.965   1.195   1.825  0.2776 -1.5770 -0.7236
  506MOL0     H66773   4.001   1.276   1.974  1.0080 -0.1953 -1.9330
  506MOL0     H66774   4.943   1.083   2.171  2.0125 -0.7143 -0.9683
  506MOL0     H66775   5.175   1.121   2.238  0.4355  1.0781 -0.3274
  506MOL0     H66776   5.457   1.487   2.424  1.5489 -1.6827 -1.0977
  506MOL0     H66777   5.673   1.559   2.527  3.3801 -0.1722  3.6946
  506MOL0     H66778   7.113   0.651   3.112 -0.8952  0.0759  0.8890
  506MOL0     H66779   7.257   0.496   3.239  0.9079  0.9553 -2.3922
  506MOL0     H66780   7.660   0.195   3.151  3.0256 -0.2584  1.8139
  506MOL0     H66781   7.778   0.002   3.220  0.1421  0.6298  0.7940
  506MOL0     H66782   7.848  -0.182   3.300  1.8075  0.7772  0.3793
  506MOL0     H66783   7.810  -0.348   3.355 -0.9019 -0.7743  1.2454
  506MOL0     H66784   7.810  -0.104   3.528 -2.3051 -0.6738 -1.0018
  506MOL0     H66785   7.781  -0.267   3.589 -0.1416 -0.8286 -1.0584
  506MOL0     H66786   8.048  -0.178   3.453 -1.7354  0.1117 -0.9788
  506MOL0     H66787   7.989  -0.344   3.477 -3.1853  0.4697 -1.2045
  506MOL0     H66788   8.063  -0.149   3.697 -0.8805  0.1854  0.4177
  506MOL0     H66789   7.964  -0.299   3.717 -1.3553  1.0559 -1.8244
  506MOL0     H66790   8.371  -0.430   3.678 -1.2861 -0.8065  1.3867
  506MOL0     H66791   7.420  -0.181   3.378 -0.1529  1.0502  1.7480
  506MOL0     H66792   7.287   0.016   3.312 -0.0022  0.1759 -0.2661
  507MOL0     O66793   5.817   7.030   0.494 -0.1207 -0.1065  0.3957
  507MOL0     C66794   5.765   7.065   0.389 -0.3679 -0.7970  0.0723
  507MOL0     O66795   5.824   7.128   0.284  0.3002 -0.1724  0.7820
  507MOL0     C66796   5.954   7.170   0.309  0.6140 -0.3499  0.3043
  507MOL0     C66797   5.993   7.309   0.314  0.5385 -0.2999 -0.2854
  507MOL0     C66798   6.127   7.347   0.312 -0.3292 -0.2158  0.8227
  507MOL0     C66799   6.233   7.259   0.299 -0.6448  0.4062  0.0332
  507MOL0     O66800   6.367   7.289   0.281 -0.3961  0.2509  0.8388
  507MOL0     C66801   6.410   7.424   0.248  0.1975 -0.0101  0.8405
  507MOL0     C66802   6.559   7.417   0.208  0.0060 -0.6996  0.5396
  507MOL0     C66803   6.598   7.318   0.104 -0.9924  0.1320  0.0153
  507MOL0     C66804   6.748   7.361   0.066 -0.7253  0.4931 -0.2469
  507MOL0     C66805   6.847   7.303   0.168 -0.2938 -0.6135 -0.1878
  507MOL0     C66806   6.951   7.199   0.113  0.3802  0.1587  0.7981
  507MOL0     C66807   7.043   7.135   0.220 -0.4405 -0.5997 -0.4632
  507MOL0     C66808   6.990   7.084   0.349 -0.0618  0.1097 -0.1050
  507MOL0     N66809   6.872   7.005   0.334 -0.3406  0.3328  0.3806
  507MOL0     C66810   6.748   7.015   0.384 -0.6047  0.6984 -0.3728
  507MOL0     C66811   6.683   6.903   0.369  0.0468  0.3216  1.0594
  507MOL0     C66812   6.540   6.880   0.415  0.6980 -0.2415  0.2291
  507MOL0     C66813   6.536   6.845   0.561 -0.2853 -0.6876 -0.4677
  507MOL0     C66814   6.558   6.697   0.617 -0.2058  0.5686 -0.4708
  507MOL0     C66815   6.502   6.678   0.754  0.8683 -0.2462 -0.3252
  507MOL0     O66816   6.365   6.704   0.751 -0.2846 -0.2297  0.2269
  507MOL0     C66817   6.284   6.703   0.862 -0.6005 -0.3004 -0.6285
  507MOL0     C66818   6.304   6.659   0.998 -0.6253  0.6010  0.1476
  507MOL0     C66819   6.199   6.647   1.086  0.6297  0.5325 -0.3704
  507MOL0     C66820   6.067   6.674   1.054  0.5230  0.3703  0.9110
  507MOL0     C66821   5.952   6.638   1.140  0.1490  0.5409 -0.5887
  507MOL0     O66822   5.844   6.712   1.107 -0.5154  0.3910  0.0481
  507MOL0     C66823   5.728   6.701   1.175  0.0404 -0.5918  0.0780
  507MOL0     C66824   5.720   6.685   1.317  0.9369  0.8096 -0.2700
  507MOL0     C66825   5.605   6.684   1.399  0.0959 -0.1433  0.1717
  507MOL0     C66826   5.491   6.710   1.320  0.3750 -0.0846  0.4061
  507MOL0     O66827   5.365   6.706   1.367  0.7324 -0.0121  0.4756
  507MOL0     C66828   5.349   6.728   1.508 -0.4692  0.2920 -0.5540
  507MOL0     C66829   5.206   6.757   1.549  0.5090  0.1447  0.2879
  507MOL0     C66830   5.145   6.878   1.470  0.0920  0.2961  0.1186
  507MOL0     C66831   5.035   6.951   1.551 -0.1130 -0.2235 -0.2777
  507MOL0     C66832   5.030   7.104   1.513 -0.7689 -0.0811  0.1625
  507MOL0     C66833   4.894   7.141   1.444 -0.0971  1.2842  0.8570
  507MOL0     C66834   4.911   7.120   1.288 -0.1969  0.1091 -0.6397
  507MOL0     C66835   4.781   7.115   1.214 -0.2704  0.5928 -0.2053
  507MOL0    Cl66836   4.682   6.978   1.250 -0.4154 -0.1656  0.3336
  507MOL0     C66837   5.497   6.730   1.179  0.9306 -0.1620 -0.3314
  507MOL0     C66838   5.609   6.732   1.112 -0.4714 -0.1721  1.0259
  507MOL0     O66839   5.955   6.551   1.224 -0.4882  0.1441 -0.4430
  507MOL0     C66840   6.047   6.725   0.922 -0.1255 -0.2984 -0.0778
  507MOL0     C66841   6.149   6.744   0.829 -0.7226  1.1786 -0.7231
  507MOL0     N66842   6.766   6.823   0.296  0.4223 -0.0609 -0.3534
  507MOL0     N66843   6.883   6.881   0.273  0.0949 -0.4326  0.3966
  507MOL0     C66844   6.188   7.130   0.314 -0.3633  0.2925 -0.1955
  507MOL0     C66845   6.055   7.076   0.314 -0.6287 -0.6612 -1.2484
  507MOL0     C66846   5.631   7.025   0.361  0.0797  0.7917 -0.6560
  507MOL0     C66847   5.536   7.121   0.333  0.4806 -0.3421 -0.1443
  507MOL0     C66848   5.408   7.097   0.305  0.3189  0.0093 -0.5896
  507MOL0     C66849   5.362   6.967   0.309  0.5339  0.6372  0.4090
  507MOL0     O66850   5.228   6.936   0.281  0.5059  0.2793 -0.0014
  507MOL0     C66851   5.157   6.812   0.309  0.3557  0.0780  0.3427
  507MOL0     C66852   5.155   6.769   0.460  0.6750  0.0059  0.4359
  507MOL0     C66853   5.024   6.698   0.503 -1.1654 -0.6080 -1.0099
  507MOL0     C66854   4.917   6.803   0.518 -0.0329  0.5948 -0.5950
  507MOL0     C66855   4.795   6.726   0.550  0.0462 -0.3562  0.1362
  507MOL0     C66856   4.688   6.672   0.569  0.2025 -1.5633  0.0744
  507MOL0     C66857   5.454   6.865   0.325 -0.6339 -0.2886  0.2453
  507MOL0     C66858   5.594   6.886   0.346  1.2096 -0.8138 -1.4321
  507MOL0     H66859   5.917   7.382   0.289 -0.1338 -1.0891 -0.5885
  507MOL0     H66860   6.153   7.451   0.325 -0.3822  0.4053 -2.9872
  507MOL0     H66861   6.391   7.497   0.327 -3.2874  1.3444 -1.0243
  507MOL0     H66862   6.349   7.465   0.166  1.5024  0.7729  0.2218
  507MOL0     H66863   6.621   7.402   0.297 -0.0809 -2.7038  0.2922
  507MOL0     H66864   6.573   7.522   0.178 -2.0582  0.3270  2.7937
  507MOL0     H66865   6.526   7.309   0.023 -0.7132 -2.2213 -0.0386
  507MOL0     H66866   6.602   7.215   0.140  0.3308 -0.1209 -0.7902
  507MOL0     H66867   6.771   7.329  -0.036  0.1991 -2.1649  0.7065
  507MOL0     H66868   6.768   7.468   0.058  2.8009  0.0268  0.7587
  507MOL0     H66869   6.791   7.259   0.251 -1.4616 -0.1600 -0.7109
  507MOL0     H66870   6.919   7.373   0.210 -0.3226  0.7687 -2.2731
  507MOL0     H66871   7.012   7.250   0.038 -1.2816  1.7780  0.4850
  507MOL0     H66872   6.900   7.113   0.070  0.9714  0.5449 -0.7239
  507MOL0     H66873   7.103   7.059   0.169 -2.2369  0.1836 -4.0945
  507MOL0     H66874   7.105   7.218   0.255  1.3781 -0.3406 -3.8121
  507MOL0     H66875   6.959   7.170   0.408 -2.1758  0.7228 -2.0005
  507MOL0     H66876   7.073   7.032   0.398  0.0161  2.1625  2.1014
  507MOL0     H66877   6.704   7.094   0.444 -1.2686 -0.7294  1.1029
  507MOL0     H66878   6.496   6.790   0.369 -4.3685  2.1009 -0.2351
  507MOL0     H66879   6.481   6.968   0.389  1.8048  0.9617  1.6301
  507MOL0     H66880   6.448   6.893   0.605  0.8302  2.1959 -1.1950
  507MOL0     H66881   6.621   6.896   0.609 -0.9312 -1.4295  1.5698
  507MOL0     H66882   6.501   6.627   0.556  1.3892 -1.0586 -0.1895
  507MOL0     H66883   6.662   6.674   0.591 -0.5405  1.9377 -3.4323
  507MOL0     H66884   6.555   6.743   0.824  2.0928 -0.5133 -0.9720
  507MOL0     H66885   6.507   6.576   0.794 -0.1028 -0.1802 -0.0103
  507MOL0     H66886   6.405   6.633   1.030  0.4623  2.9814 -1.1117
  507MOL0     H66887   6.229   6.618   1.186 -0.8564 -0.5054 -0.1830
  507MOL0     H66888   5.814   6.675   1.370 -0.2703 -1.0308  1.7034
  507MOL0     H66889   5.606   6.674   1.507  0.5900  0.6869  0.2554
  507MOL0     H66890   5.410   6.811   1.543  0.1124  0.4274 -1.8101
  507MOL0     H66891   5.382   6.635   1.556 -1.5366  0.9557  1.5870
  507MOL0     H66892   5.198   6.772   1.657  0.2790  0.8426  0.1847
  507MOL0     H66893   5.139   6.674   1.525 -0.6845  1.2822 -0.4566
  507MOL0     H66894   5.108   6.844   1.373 -1.3057 -0.1573  0.7814
  507MOL0     H66895   5.232   6.944   1.459  0.5716 -0.1220  1.2432
  507MOL0     H66896   4.942   6.903   1.520 -0.0381 -0.6157  0.1085
  507MOL0     H66897   5.057   6.935   1.657 -2.1564 -4.1759 -0.2644
  507MOL0     H66898   5.116   7.125   1.450 -0.1524  0.9805  1.3249
  507MOL0     H66899   5.041   7.147   1.613 -0.9017 -3.5174  1.8205
  507MOL0     H66900   4.863   7.244   1.467  0.8408  1.2538  2.3717
  507MOL0     H66901   4.807   7.087   1.482  0.7938  0.6146  2.0070
  507MOL0     H66902   4.964   7.209   1.254 -3.6911  3.8844  2.6966
  507MOL0     H66903   4.972   7.031   1.268 -0.5713 -0.0137 -1.2441
  507MOL0     H66904   4.799   7.125   1.107 -3.0587 -0.0451 -0.8131
  507MOL0     H66905   4.734   7.206   1.253  1.8846  2.6298 -2.0383
  507MOL0     H66906   5.403   6.744   1.126  0.7483 -1.9763 -0.5526
  507MOL0     H66907   5.613   6.756   1.007  0.4469 -1.4459  0.7478
  507MOL0     H66908   5.949   6.741   0.879  0.0212 -0.2024 -0.3757
  507MOL0     H66909   6.124   6.767   0.727 -0.5794 -0.5224 -1.1796
  507MOL0     H66910   6.269   7.059   0.303 -0.8509 -0.2624 -0.2455
  507MOL0     H66911   6.025   6.972   0.308 -1.8507 -0.2995 -1.5733
  507MOL0     H66912   5.564   7.225   0.348 -2.2586  0.1232  2.6114
  507MOL0     H66913   5.335   7.176   0.287 -0.4973 -0.4010  0.7499
  507MOL0     H66914   5.211   6.733   0.256 -0.3652 -1.5368  1.9264
  507MOL0     H66915   5.057   6.820   0.266  1.1191  0.8387 -1.4105
  507MOL0     H66916   5.238   6.702   0.485  1.2308  0.7824  0.6996
  507MOL0     H66917   5.164   6.866   0.509 -1.6726  1.7663 -2.2845
  507MOL0     H66918   5.038   6.654   0.603 -0.4210  1.8109  0.0375
  507MOL0     H66919   5.000   6.623   0.427 -2.9131  0.3740 -1.4849
  507MOL0     H66920   4.944   6.871   0.599 -1.0104  1.1279 -0.7022
  507MOL0     H66921   4.908   6.870   0.432 -0.5850  1.0740 -0.1697
  507MOL0     H66922   4.595   6.621   0.585 -1.8565  1.1785 -2.1171
  507MOL0     H66923   5.431   6.761   0.304 -1.1825  0.3634 -2.8581
  507MOL0     H66924   5.662   6.803   0.361 -0.4115 -1.9010  0.3134
  508MOL0     O66925   1.735  10.545   1.996  0.8361  0.5461 -0.6294
  508MOL0     C66926   1.778  10.448   1.927  0.0080  0.9145  0.1636
  508MOL0     O66927   1.708  10.337   1.904  0.5400  0.7054  0.1169
  508MOL0     C66928   1.575  10.319   1.940  0.2072  0.1475  0.0837
  508MOL0     C66929   1.527  10.201   1.990 -0.0888  0.3744 -0.2774
  508MOL0     C66930   1.392  10.193   2.029 -0.6162 -0.4767  0.0180
  508MOL0     C66931   1.306  10.299   2.028  0.7007  0.7991 -0.0474
  508MOL0     O66932   1.174  10.282   2.071 -0.6684  0.4964  0.4457
  508MOL0     C66933   1.091  10.393   2.095 -0.5004  0.8830 -0.5142
  508MOL0     C66934   0.971  10.352   2.185  0.1190 -0.0185 -0.7454
  508MOL0     C66935   0.841  10.342   2.111 -0.2279  0.1220  0.0277
  508MOL0     C66936   0.725  10.279   2.186  0.0597 -0.4304 -0.1428
  508MOL0     C66937   0.609  10.273   2.087 -0.5706 -0.7357 -0.1928
  508MOL0     C66938   0.496  10.215   2.158  0.2451  0.4523  0.3911
  508MOL0     C66939   0.362  10.239   2.083 -0.0779  0.2325  0.3932
  508MOL0     C66940   0.250  10.180   2.167 -0.3735  0.9304  0.3427
  508MOL0     N66941   0.115  10.204   2.107 -0.9047  0.5815 -0.4845
  508MOL0     C66942   0.091  10.190   1.973  0.5370 -0.1917 -0.9277
  508MOL0     C66943  -0.021  10.261   1.949 -0.5319 -0.1612 -0.3949
  508MOL0     C66944  -0.099  10.280   1.822  0.6873  0.0800 -0.2475
  508MOL0     C66945  -0.187  10.160   1.779 -0.7769  0.2821 -0.2064
  508MOL0     C66946  -0.296  10.125   1.883  0.1380 -0.4510 -0.1326
  508MOL0     C66947  -0.400  10.017   1.834  0.1337  0.7723 -0.6160
  508MOL0     O66948  -0.523  10.044   1.909  0.6203 -0.1180  0.0590
  508MOL0     C66949  -0.634   9.973   1.905 -0.1970 -0.1499  0.6882
  508MOL0     C66950  -0.710   9.950   2.022 -0.0511 -1.2406 -0.2851
  508MOL0     C66951  -0.840   9.897   2.022  0.3049 -0.3233 -0.1122
  508MOL0     C66952  -0.901   9.867   1.899  1.1215  0.0261 -0.0017
  508MOL0     C66953  -1.043   9.822   1.902 -0.0135 -0.3212  0.5158
  508MOL0     O66954  -1.105   9.818   2.024 -0.0474  0.1520  0.3812
  508MOL0     C66955  -1.237   9.802   2.027 -0.0340 -0.3609 -0.4850
  508MOL0     C66956  -1.339   9.874   1.960  0.2251  0.8276  0.4129
  508MOL0     C66957  -1.480   9.846   1.986 -0.9306 -0.0811  0.7920
  508MOL0     C66958  -1.516   9.749   2.077  0.3675  0.0835 -0.1750
  508MOL0     O66959  -1.649   9.727   2.108 -0.5510 -0.3559  0.5626
  508MOL0     C66960  -1.755   9.741   2.011 -0.5357  0.1173  0.1063
  508MOL0     C66961  -1.839   9.621   2.027 -0.5345  0.9345 -0.5249
  508MOL0     C66962  -1.762   9.482   2.029  1.2740 -1.2705  0.1201
  508MOL0     C66963  -1.714   9.449   1.886 -0.0362  0.1147 -0.1389
  508MOL0     C66964  -1.710   9.298   1.837 -0.0088 -0.2701 -0.1323
  508MOL0     C66965  -1.575   9.242   1.899 -0.1411  0.7665  0.2719
  508MOL0     C66966  -1.544   9.096   1.856 -0.1188  0.5545  0.1161
  508MOL0     C66967  -1.546   9.086   1.709  1.0602 -0.7850  0.1495
  508MOL0    Cl66968  -1.448   8.949   1.677 -0.6451 -0.2889  0.0856
  508MOL0     C66969  -1.416   9.683   2.150 -0.6170  0.4003 -0.4665
  508MOL0     C66970  -1.279   9.705   2.126  0.6125 -0.7481  0.1299
  508MOL0     O66971  -1.100   9.789   1.789 -0.4183  0.1891 -0.0955
  508MOL0     C66972  -0.828   9.879   1.782  0.7768  1.2278  0.3980
  508MOL0     C66973  -0.696   9.930   1.782 -0.6182  0.9019  0.4521
  508MOL0     N66974  -0.059  10.301   2.079  0.4046 -0.9717 -0.2564
  508MOL0     N66975   0.016  10.268   2.169  0.2645 -0.4193 -0.2455
  508MOL0     C66976   1.351  10.423   1.977 -1.1316 -0.0837 -1.2599
  508MOL0     C66977   1.486  10.433   1.931  0.6202  1.0905 -0.6589
  508MOL0     C66978   1.916  10.464   1.869  0.4102 -0.2517  0.2966
  508MOL0     C66979   1.995  10.582   1.898  0.3362  0.1705  0.4984
  508MOL0     C66980   2.127  10.597   1.853  0.2675 -0.9606 -0.6763
  508MOL0     C66981   2.174  10.500   1.769 -0.8876  0.2959 -0.4139
  508MOL0     O66982   2.296  10.504   1.701  0.5452 -0.3041  1.2142
  508MOL0     C66983   2.392  10.601   1.727 -0.1483 -0.0158 -0.4056
  508MOL0     C66984   2.522  10.573   1.651 -0.5998  0.1194 -0.1637
  508MOL0     C66985   2.599  10.701   1.626  0.7047  0.3602 -0.2403
  508MOL0     C66986   2.688  10.697   1.506 -0.5316  0.8467 -0.2213
  508MOL0     C66987   2.622  10.676   1.375  0.5952 -0.3777  0.1001
  508MOL0     C66988   2.579  10.666   1.262  0.5078  0.8014  0.1450
  508MOL0     C66989   2.098  10.391   1.738 -0.5514 -0.1128 -0.0198
  508MOL0     C66990   1.973  10.372   1.792  0.2238  0.4899  0.2214
  508MOL0     H66991   1.588  10.111   1.992 -1.9096 -1.0761  4.4586
  508MOL0     H66992   1.359  10.095   2.063 -1.4452  1.4293  5.8682
  508MOL0     H66993   1.066  10.435   1.997  3.9261 -0.4482 -2.5092
  508MOL0     H66994   1.151  10.469   2.145 -0.2926  1.8966 -2.2304
  508MOL0     H66995   0.965  10.424   2.267 -3.7853  0.7370 -1.5147
  508MOL0     H66996   0.999  10.258   2.234 -1.9327  0.3117  1.2292
  508MOL0     H66997   0.863  10.276   2.027  0.4427 -0.4647  0.6546
  508MOL0     H66998   0.818  10.446   2.085  1.5924  0.7767  0.8449
  508MOL0     H66999   0.755  10.183   2.229 -2.1472 -0.9052  0.4340
  508MOL0     H67000   0.699  10.349   2.266  0.1541  0.6357 -1.0147
  508MOL0     H67001   0.634  10.216   1.997 -0.1366  1.2146 -1.3582
  508MOL0     H67002   0.588  10.376   2.057  3.6039  0.8190  1.4637
  508MOL0     H67003   0.492  10.247   2.263  1.1964 -0.2639  0.6631
  508MOL0     H67004   0.527  10.111   2.166 -0.2344  0.1956 -0.8976
  508MOL0     H67005   0.341  10.346   2.068 -1.5100 -0.0939 -0.0743
  508MOL0     H67006   0.375  10.193   1.985  1.7431 -1.4268  1.3491
  508MOL0     H67007   0.267  10.209   2.271  1.4916 -1.2471  0.7349
  508MOL0     H67008   0.268  10.073   2.152  1.4493  1.1446  0.8061
  508MOL0     H67009   0.163  10.159   1.898  1.1539  2.6461 -1.6104
  508MOL0     H67010  -0.033  10.300   1.737  1.2595  1.4322  0.4705
  508MOL0     H67011  -0.158  10.371   1.837 -0.1421 -0.0506 -2.4008
  508MOL0     H67012  -0.129  10.068   1.768 -0.1205  0.3346  2.2684
  508MOL0     H67013  -0.236  10.187   1.685 -4.8796  0.9634  1.8785
  508MOL0     H67014  -0.256  10.084   1.976  0.4372 -0.7180 -0.3801
  508MOL0     H67015  -0.353  10.211   1.922 -2.2107 -1.2008 -1.6890
  508MOL0     H67016  -0.352   9.919   1.841 -0.4449  0.4121 -1.4712
  508MOL0     H67017  -0.420  10.012   1.727  0.1717 -1.0712 -0.5662
  508MOL0     H67018  -0.667   9.958   2.121 -2.5927 -0.2881  0.8176
  508MOL0     H67019  -0.885   9.872   2.117 -0.2210  0.1079 -0.2440
  508MOL0     H67020  -1.300   9.957   1.902 -2.2656  2.9763  1.6082
  508MOL0     H67021  -1.555   9.888   1.919  0.4638 -1.5415 -1.8403
  508MOL0     H67022  -1.726   9.734   1.905 -4.1588  0.2814 -1.0155
  508MOL0     H67023  -1.806   9.835   2.030  0.7429  0.9607 -0.4733
  508MOL0     H67024  -1.928   9.628   1.965 -1.0898 -0.1751  0.1218
  508MOL0     H67025  -1.882   9.643   2.125 -3.8580  3.0946 -2.2936
  508MOL0     H67026  -1.829   9.399   2.050 -1.1010 -0.6795 -3.9722
  508MOL0     H67027  -1.677   9.489   2.097 -0.6744  1.5207  2.5522
  508MOL0     H67028  -1.782   9.509   1.824  0.8491  0.8053 -0.4689
  508MOL0     H67029  -1.615   9.494   1.874 -1.0192  2.9265  1.3036
  508MOL0     H67030  -1.712   9.285   1.729 -0.8278 -2.2003  0.0846
  508MOL0     H67031  -1.802   9.249   1.870 -1.1184  1.3238 -0.7222
  508MOL0     H67032  -1.585   9.239   2.008  2.3741  0.6925  0.5529
  508MOL0     H67033  -1.489   9.304   1.873  0.4062 -0.8345 -2.0490
  508MOL0     H67034  -1.442   9.070   1.889 -0.8571 -1.5818  0.9272
  508MOL0     H67035  -1.620   9.027   1.894  0.7617 -0.4651  0.1009
  508MOL0     H67036  -1.497   9.171   1.660 -0.1590  0.4412  0.9912
  508MOL0     H67037  -1.649   9.094   1.674  1.5006  2.1838 -0.7174
  508MOL0     H67038  -1.449   9.605   2.218  0.7937 -0.1438 -0.3772
  508MOL0     H67039  -1.207   9.649   2.185  0.1902 -2.1741 -0.6672
  508MOL0     H67040  -0.875   9.849   1.689  2.5692 -2.4961  0.5061
  508MOL0     H67041  -0.644   9.961   1.692 -2.4321 -1.8275 -1.6961
  508MOL0     H67042   1.296  10.513   1.955  0.5964  1.2637 -0.2811
  508MOL0     H67043   1.514  10.535   1.905 -3.5237  2.6997  0.2987
  508MOL0     H67044   1.966  10.660   1.967 -2.6508  0.2392 -0.7241
  508MOL0     H67045   2.197  10.680   1.861  0.6962 -1.1342 -2.2458
  508MOL0     H67046   2.419  10.601   1.833  2.0479  1.7652 -0.8784
  508MOL0     H67047   2.350  10.698   1.701 -2.6725 -0.8591  0.2190
  508MOL0     H67048   2.586  10.510   1.713  2.5674  1.8468 -1.4663
  508MOL0     H67049   2.499  10.534   1.551  2.2508  1.3408 -1.4059
  508MOL0     H67050   2.649  10.718   1.722 -0.8256  2.4798  0.2523
  508MOL0     H67051   2.527  10.783   1.617 -0.1089 -0.6014 -3.7540
  508MOL0     H67052   2.754  10.784   1.497  0.0244  0.6771  1.7785
  508MOL0     H67053   2.750  10.609   1.523 -1.0680  0.6654  0.9228
  508MOL0     H67054   2.540  10.648   1.164 -0.1297  0.8822  0.3806
  508MOL0     H67055   2.149  10.320   1.674  1.9360 -0.3257  2.0275
  508MOL0     H67056   1.920  10.280   1.770  0.7167  1.1237 -4.6543
  509MOL0     O67057   6.801   9.523   8.950 -0.4675  0.3141 -0.6316
  509MOL0     C67058   6.866   9.565   8.855  0.0560 -0.5773  0.5646
  509MOL0     O67059   6.821   9.653   8.763  0.4027 -0.1745  0.6416
  509MOL0     C67060   6.703   9.712   8.783  1.2968 -0.9755 -0.4328
  509MOL0     C67061   6.684   9.849   8.768 -0.1068  0.1573  0.1233
  509MOL0     C67062   6.557   9.907   8.797 -0.4704  0.3113  0.8717
  509MOL0     C67063   6.446   9.843   8.840  0.0987 -0.2587  0.5009
  509MOL0     O67064   6.324   9.905   8.868  0.3026  0.1412  0.0358
  509MOL0     C67065   6.319  10.050   8.853  0.1441  0.8905  1.2179
  509MOL0     C67066   6.168  10.077   8.883  0.4011 -0.0725 -0.0757
  509MOL0     C67067   6.144  10.106   9.035 -0.0935  0.5239 -0.2565
  509MOL0     C67068   6.000  10.080   9.074 -0.1189  0.3462  0.3376
  509MOL0     C67069   5.985  10.095   9.222  0.8281  0.6538  0.2831
  509MOL0     C67070   5.841  10.068   9.274  0.3042 -0.1475 -0.1151
  509MOL0     C67071   5.742  10.180   9.231 -0.0932 -0.9233  0.6395
  509MOL0     C67072   5.603  10.173   9.302 -0.5982 -1.1095  0.2851
  509MOL0     N67073   5.577  10.277   9.400 -0.8737 -0.0058 -0.0695
  509MOL0     C67074   5.546  10.404   9.350  0.4177  0.4694 -0.5560
  509MOL0     C67075   5.565  10.489   9.458  0.7046 -0.6395  0.9263
  509MOL0     C67076   5.551  10.644   9.443  0.0360  0.4502  0.3510
  509MOL0     C67077   5.403  10.678   9.463  0.4494  0.0348  0.2897
  509MOL0     C67078   5.369  10.823   9.469  0.2635  0.1995  0.6427
  509MOL0     C67079   5.385  10.881   9.607 -0.1078  0.2825 -0.7582
  509MOL0     O67080   5.347  11.021   9.608  0.2532  0.3041 -0.4264
  509MOL0     C67081   5.213  11.038   9.610 -0.5461  0.3505 -1.0916
  509MOL0     C67082   5.162  11.165   9.577  0.1585  0.2658  0.0941
  509MOL0     C67083   5.024  11.187   9.567  0.3823  0.4771 -0.5353
  509MOL0     C67084   4.925  11.091   9.586 -0.0316  0.4466  0.7673
  509MOL0     C67085   4.780  11.120   9.572 -0.3367 -1.0668  0.7262
  509MOL0     O67086   4.699  11.016   9.568 -0.4272  0.0339  0.4203
  509MOL0     C67087   4.562  11.030   9.545 -0.0992 -0.1147 -0.1958
  509MOL0     C67088   4.509  11.013   9.413  0.1206 -0.9380  0.7953
  509MOL0     C67089   4.375  11.022   9.383 -0.2661 -0.2801 -0.2708
  509MOL0     C67090   4.289  11.070   9.483  0.8746  0.3823  0.5697
  509MOL0     O67091   4.156  11.100   9.475 -0.2115  0.3880 -0.1322
  509MOL0     C67092   4.104  11.130   9.347 -0.2702 -0.1329  0.5360
  509MOL0     C67093   4.051  10.997   9.291 -0.7786  0.1151  0.5933
  509MOL0     C67094   3.913  11.016   9.226 -0.6813  0.3553  0.0356
  509MOL0     C67095   3.852  10.888   9.180  0.5135  0.4198  0.1025
  509MOL0     C67096   3.729  10.915   9.082 -0.2097 -0.2372  0.0619
  509MOL0     C67097   3.648  10.790   9.049  0.3595 -0.9005  0.3259
  509MOL0     C67098   3.504  10.834   9.013  0.9025 -0.7590  0.1709
  509MOL0     C67099   3.405  10.722   8.993 -0.3731  0.5273  0.0631
  509MOL0    Cl67100   3.242  10.801   8.975  0.4041 -0.3394 -0.4409
  509MOL0     C67101   4.333  11.067   9.616 -1.1802 -0.2456  0.2605
  509MOL0     C67102   4.472  11.053   9.643 -0.2622 -0.1306  0.3123
  509MOL0     O67103   4.747  11.241   9.563  0.0265  0.4643 -0.2650
  509MOL0     C67104   4.980  10.965   9.626 -0.8277 -0.2780  0.9304
  509MOL0     C67105   5.111  10.939   9.637 -0.6852  0.3877  0.0317
  509MOL0     N67106   5.598  10.406   9.567  0.7427 -0.4720 -0.2465
  509MOL0     N67107   5.619  10.282   9.527 -0.5227  0.0858  0.2853
  509MOL0     C67108   6.466   9.705   8.844  0.0953 -0.0375 -0.1911
  509MOL0     C67109   6.585   9.638   8.814  1.1657 -0.3183 -0.4716
  509MOL0     C67110   7.006   9.517   8.852  0.8176 -0.0375 -0.8194
  509MOL0     C67111   7.068   9.446   8.958 -0.2424  0.5384 -0.3259
  509MOL0     C67112   7.200   9.398   8.945  0.4903  1.0096 -0.6896
  509MOL0     C67113   7.276   9.428   8.832 -0.2018 -0.6939 -0.1846
  509MOL0     O67114   7.407   9.401   8.810 -0.4467 -0.3198 -0.8539
  509MOL0     C67115   7.489   9.337   8.910  0.0079  0.2674  1.1065
  509MOL0     C67116   7.602   9.290   8.831 -0.3957  0.1253 -0.7662
  509MOL0     C67117   7.691   9.199   8.920 -0.6521 -0.3543  1.1956
  509MOL0     C67118   7.828   9.166   8.852 -0.5823  0.1271  0.0282
  509MOL0     C67119   7.823   9.110   8.717 -0.1704  0.1306  0.6889
  509MOL0     C67120   7.806   9.083   8.608  0.0814 -0.9921  0.6060
  509MOL0     C67121   7.216   9.513   8.738  1.0751  0.7668  0.0595
  509MOL0     C67122   7.083   9.560   8.744  0.8580 -0.3168  0.0749
  509MOL0     H67123   6.768   9.915   8.747  1.1272 -1.2162  0.5887
  509MOL0     H67124   6.562  10.012   8.771  0.8642  0.1024  0.1669
  509MOL0     H67125   6.333  10.077   8.748 -0.9116  2.1659  1.3745
  509MOL0     H67126   6.386  10.107   8.918  3.0199  1.3349 -1.8574
  509MOL0     H67127   6.105   9.991   8.856 -0.1104  0.5478 -0.9317
  509MOL0     H67128   6.143  10.161   8.817  1.7521 -1.2045 -2.1379
  509MOL0     H67129   6.183  10.204   9.063  2.8837 -0.5811 -0.2039
  509MOL0     H67130   6.212  10.043   9.093  1.0556  0.9632 -1.0975
  509MOL0     H67131   5.922  10.138   9.023 -2.6642 -0.5446  2.9243
  509MOL0     H67132   5.975   9.978   9.044  0.4119  0.6932 -1.3957
  509MOL0     H67133   6.009  10.198   9.252  0.9038  0.5371  0.6370
  509MOL0     H67134   6.054  10.028   9.274  0.0955 -1.3965 -1.2803
  509MOL0     H67135   5.833  10.066   9.383 -1.7839  5.7388  0.2058
  509MOL0     H67136   5.820   9.969   9.234  2.3445 -1.1852  1.2164
  509MOL0     H67137   5.787  10.279   9.246  1.2412 -1.9580  5.0463
  509MOL0     H67138   5.736  10.170   9.123 -1.5165  1.6480  0.4105
  509MOL0     H67139   5.610  10.076   9.351  1.1761 -1.3723 -0.4230
  509MOL0     H67140   5.527  10.179   9.224  0.5975 -0.1130 -0.8461
  509MOL0     H67141   5.531  10.422   9.244 -1.6838 -2.5472 -0.8900
  509MOL0     H67142   5.596  10.683   9.351  3.8009 -0.7723  1.4652
  509MOL0     H67143   5.611  10.676   9.528  0.8583  0.2427 -0.1380
  509MOL0     H67144   5.386  10.635   9.562  0.3334 -1.5639 -0.3882
  509MOL0     H67145   5.339  10.624   9.393  0.6427  3.5215 -2.9314
  509MOL0     H67146   5.428  10.883   9.399 -3.6864  1.9103 -1.5506
  509MOL0     H67147   5.263  10.836   9.445  0.8206  3.6761 -0.4194
  509MOL0     H67148   5.491  10.872   9.631 -0.2569 -0.8910 -0.5152
  509MOL0     H67149   5.323  10.816   9.668 -1.0697 -0.9081 -2.8782
  509MOL0     H67150   5.218  11.254   9.548 -2.3717  2.0636  0.3574
  509MOL0     H67151   4.996  11.291   9.551  0.3699  1.1515  3.0799
  509MOL0     H67152   4.578  10.987   9.334  1.1769 -0.6683  1.6044
  509MOL0     H67153   4.336  11.000   9.284 -1.2980 -0.5771  0.1826
  509MOL0     H67154   4.180  11.169   9.279  0.9512 -0.8641  1.4377
  509MOL0     H67155   4.032  11.212   9.360 -1.5904 -1.2593  0.6077
  509MOL0     H67156   4.043  10.928   9.376  1.6994  0.1015  0.8868
  509MOL0     H67157   4.132  10.959   9.228  0.2518  1.1630  1.2544
  509MOL0     H67158   3.943  11.072   9.137 -1.3958  0.1527 -0.3446
  509MOL0     H67159   3.848  11.076   9.291 -1.1731  0.1235 -0.2386
  509MOL0     H67160   3.912  10.819   9.120 -0.6314 -1.4089  0.9873
  509MOL0     H67161   3.809  10.832   9.263 -0.0614  0.3632 -0.2334
  509MOL0     H67162   3.767  10.953   8.986 -1.6108  0.5051 -0.2217
  509MOL0     H67163   3.671  10.997   9.126  1.8800  0.0383  2.5907
  509MOL0     H67164   3.641  10.737   9.144  0.5708 -1.2625  0.1416
  509MOL0     H67165   3.692  10.716   8.981  2.5473  0.3660  0.2759
  509MOL0     H67166   3.473  10.900   9.094  2.6554 -2.8661  2.7142
  509MOL0     H67167   3.501  10.883   8.915 -0.8082  3.8910  2.2644
  509MOL0     H67168   3.415  10.663   9.085  1.6046  2.3360  1.0898
  509MOL0     H67169   3.441  10.657   8.911  0.0330  3.1693 -1.9901
  509MOL0     H67170   4.267  11.096   9.698 -1.0272  1.1457 -0.0771
  509MOL0     H67171   4.493  11.050   9.749 -1.9895  2.2829  0.8200
  509MOL0     H67172   4.905  10.889   9.644  0.5932 -1.9502  0.0681
  509MOL0     H67173   5.127  10.832   9.647 -0.7912  0.3452 -0.2537
  509MOL0     H67174   6.389   9.637   8.881  0.2762  0.5327  1.2974
  509MOL0     H67175   6.585   9.531   8.836 -0.6871  0.0091  1.5175
  509MOL0     H67176   7.012   9.419   9.047  0.0420 -0.5274 -0.4619
  509MOL0     H67177   7.229   9.330   9.026 -0.2776  1.4791 -0.0123
  509MOL0     H67178   7.440   9.250   8.955  0.8533  0.3377  2.2082
  509MOL0     H67179   7.507   9.407   8.992 -2.3690 -1.1696  2.9975
  509MOL0     H67180   7.565   9.235   8.744 -2.6016  0.6479 -0.2332
  509MOL0     H67181   7.662   9.379   8.812  2.4556 -1.3842  0.4523
  509MOL0     H67182   7.639   9.104   8.937 -1.1462 -0.1048  1.0845
  509MOL0     H67183   7.715   9.262   9.007 -3.0289  1.4739  0.6126
  509MOL0     H67184   7.896   9.252   8.849  2.3653 -2.0643 -1.3607
  509MOL0     H67185   7.878   9.099   8.922  1.1291  2.8875  1.6282
  509MOL0     H67186   7.798   9.052   8.505  2.1200  1.8264 -0.5328
  509MOL0     H67187   7.276   9.549   8.656 -0.0266 -2.8395 -2.5916
  509MOL0     H67188   7.043   9.619   8.662 -0.5398 -0.5424  0.5684
  510MOL0     O67189   5.865   4.944   8.908  0.1552  0.1217 -0.2737
  510MOL0     C67190   5.877   4.950   9.035 -1.2141 -0.2924  0.0275
  510MOL0     O67191   5.818   5.048   9.116 -0.1639  0.1506  0.5493
  510MOL0     C67192   5.740   5.151   9.063  0.2449  0.0010  0.6557
  510MOL0     C67193   5.806   5.264   9.016  0.8066  0.0195  0.3151
  510MOL0     C67194   5.722   5.365   8.968  0.3728 -0.3321  0.0231
  510MOL0     C67195   5.582   5.354   8.962  0.2787 -0.3185 -1.2540
  510MOL0     O67196   5.500   5.446   8.909  0.3720  0.0328  0.1302
  510MOL0     C67197   5.548   5.568   8.873  0.5451 -0.7532 -0.8870
  510MOL0     C67198   5.435   5.664   8.823 -0.2180  0.5694  0.7182
  510MOL0     C67199   5.371   5.757   8.923  0.0447 -1.0720 -0.4726
  510MOL0     C67200   5.278   5.860   8.860  0.7229  0.1236  0.0477
  510MOL0     C67201   5.155   5.802   8.784 -0.3325  0.2796  0.3792
  510MOL0     C67202   5.065   5.735   8.876 -0.7340 -0.4035 -0.4760
  510MOL0     C67203   4.954   5.666   8.799 -0.4181  0.2381  0.6964
  510MOL0     C67204   4.858   5.755   8.716 -0.4670 -0.0172  0.9171
  510MOL0     N67205   4.731   5.691   8.721 -0.1449  1.0144  1.0740
  510MOL0     C67206   4.698   5.593   8.622 -0.5741 -0.1705  0.1201
  510MOL0     C67207   4.568   5.570   8.656  0.8502 -0.7002  0.7124
  510MOL0     C67208   4.471   5.478   8.588 -0.6098  1.1952  0.4936
  510MOL0     C67209   4.335   5.460   8.666  0.1101  0.1318  0.0831
  510MOL0     C67210   4.229   5.382   8.591  0.2742 -0.0739  0.7058
  510MOL0     C67211   4.112   5.324   8.673 -0.5416 -0.2853 -0.2395
  510MOL0     O67212   4.021   5.304   8.562 -0.3858 -0.1617 -0.0420
  510MOL0     C67213   3.887   5.311   8.581  0.0433  0.3598 -0.6726
  510MOL0     C67214   3.828   5.283   8.708  0.5169  0.3280  0.6150
  510MOL0     C67215   3.687   5.282   8.728 -0.6761 -0.0348 -0.0479
  510MOL0     C67216   3.606   5.297   8.618  0.6744  0.2962  0.9689
  510MOL0     C67217   3.460   5.293   8.646 -0.3929  0.3506 -0.4247
  510MOL0     O67218   3.425   5.340   8.770 -0.3783 -0.2229 -0.5759
  510MOL0     C67219   3.295   5.320   8.810  0.4920  0.1138 -0.4098
  510MOL0     C67220   3.249   5.210   8.881 -0.0233  0.2241  0.3420
  510MOL0     C67221   3.112   5.200   8.921 -0.7964 -0.0320 -0.0859
  510MOL0     C67222   3.016   5.301   8.895 -0.7918 -0.3252 -0.5890
  510MOL0     O67223   2.883   5.292   8.929  1.5126 -0.0846  1.0668
  510MOL0     C67224   2.818   5.182   8.868  0.0532  0.3178  0.8074
  510MOL0     C67225   2.766   5.079   8.968  0.4984  0.2093 -0.2239
  510MOL0     C67226   2.712   5.145   9.101  0.6137 -0.4278  0.3620
  510MOL0     C67227   2.625   5.273   9.079 -0.3430 -0.4338  0.0985
  510MOL0     C67228   2.544   5.290   9.196  0.2103 -0.2490 -0.4260
  510MOL0     C67229   2.416   5.205   9.202 -0.1540 -0.1880  0.0101
  510MOL0     C67230   2.348   5.211   9.350  0.2800  0.3357  0.3180
  510MOL0     C67231   2.228   5.120   9.359 -0.3937  1.0975  0.4286
  510MOL0    Cl67232   2.265   4.947   9.324  0.3692  0.2257  0.0365
  510MOL0     C67233   3.061   5.406   8.817  0.1870 -0.8273 -0.3641
  510MOL0     C67234   3.195   5.414   8.780 -0.2272  0.8531 -0.8119
  510MOL0     O67235   3.380   5.260   8.560 -0.1506 -0.0593  0.0484
  510MOL0     C67236   3.661   5.325   8.492  0.2805 -0.0935  0.6766
  510MOL0     C67237   3.804   5.331   8.474  0.7475 -0.1327 -0.1564
  510MOL0     N67238   4.527   5.642   8.773 -0.4236 -0.4350  0.1655
  510MOL0     N67239   4.638   5.706   8.810 -0.0181 -0.3906 -0.1994
  510MOL0     C67240   5.519   5.240   9.011  0.9598  0.0829  0.1814
  510MOL0     C67241   5.595   5.138   9.063 -1.4914 -0.4907 -0.6540
  510MOL0     C67242   5.957   4.850   9.116 -0.0048 -0.4229  0.7349
  510MOL0     C67243   5.980   4.862   9.255  0.2832 -0.2887  0.1565
  510MOL0     C67244   6.042   4.764   9.333  0.0947 -1.0597 -0.0572
  510MOL0     C67245   6.111   4.656   9.276 -0.3407  1.5409  0.8956
  510MOL0     O67246   6.184   4.582   9.363  0.0758  0.1501  0.4941
  510MOL0     C67247   6.271   4.478   9.305 -0.5699 -0.7779 -0.2107
  510MOL0     C67248   6.328   4.391   9.416 -0.2760  0.9433  0.0744
  510MOL0     C67249   6.390   4.265   9.357 -0.3035 -0.0280 -0.1799
  510MOL0     C67250   6.461   4.177   9.465 -0.0066  0.7115  0.3424
  510MOL0     C67251   6.360   4.117   9.560  0.0894 -0.8506  0.4088
  510MOL0     C67252   6.290   4.061   9.645  0.0075 -0.0290  0.0933
  510MOL0     C67253   6.092   4.642   9.135  0.0686  0.0184 -0.3356
  510MOL0     C67254   6.018   4.741   9.055  0.0639  0.3512 -1.0964
  510MOL0     H67255   5.913   5.273   9.000  0.5057  0.7886 -1.5523
  510MOL0     H67256   5.766   5.459   8.938  0.7641 -0.8133 -0.9777
  510MOL0     H67257   5.626   5.558   8.796  0.0978  0.0885 -1.4716
  510MOL0     H67258   5.592   5.608   8.965  0.0317 -0.4773 -0.7599
  510MOL0     H67259   5.357   5.601   8.780 -0.7289  0.3850  1.8697
  510MOL0     H67260   5.473   5.722   8.739 -1.7933 -1.5379 -1.5561
  510MOL0     H67261   5.451   5.815   8.971  0.7396  0.0717 -2.8582
  510MOL0     H67262   5.312   5.700   8.995 -0.4522 -2.5198 -1.9555
  510MOL0     H67263   5.248   5.937   8.932 -1.7926 -1.1303  0.4416
  510MOL0     H67264   5.329   5.911   8.778 -0.2175 -1.7443 -1.7867
  510MOL0     H67265   5.188   5.744   8.697  0.4290 -1.0099  1.4733
  510MOL0     H67266   5.105   5.886   8.737 -1.5956  0.8682  2.6339
  510MOL0     H67267   5.031   5.822   8.932  0.1925  1.0690 -2.0906
  510MOL0     H67268   5.111   5.660   8.942 -2.3857 -0.1528  1.0209
  510MOL0     H67269   4.994   5.593   8.727 -3.5295 -2.9265  1.8748
  510MOL0     H67270   4.905   5.612   8.880  1.0637  2.3048  3.1268
  510MOL0     H67271   4.897   5.759   8.614  1.4523 -2.4145  1.4507
  510MOL0     H67272   4.846   5.854   8.761  0.8594  0.2461  0.7064
  510MOL0     H67273   4.752   5.547   8.540 -0.8643 -0.0311 -0.1504
  510MOL0     H67274   4.520   5.383   8.566 -1.6792  0.6827  0.2246
  510MOL0     H67275   4.454   5.514   8.486 -0.6257 -1.1633 -0.3920
  510MOL0     H67276   4.289   5.546   8.715 -1.9851 -1.3613  0.8311
  510MOL0     H67277   4.366   5.384   8.738  0.6408 -1.2517 -1.5307
  510MOL0     H67278   4.180   5.446   8.517 -1.1465 -2.1891 -0.2856
  510MOL0     H67279   4.271   5.298   8.535 -2.2017 -2.5932  2.3805
  510MOL0     H67280   4.066   5.398   8.738  1.5414 -0.8785  2.0883
  510MOL0     H67281   4.138   5.233   8.729 -2.6568 -0.6623  0.1861
  510MOL0     H67282   3.893   5.264   8.793 -0.1009 -2.1512  0.6165
  510MOL0     H67283   3.637   5.273   8.824 -2.6042  2.3327 -0.7593
  510MOL0     H67284   3.310   5.124   8.908 -3.6119 -3.4643 -2.1930
  510MOL0     H67285   3.082   5.123   8.992 -0.4417  1.7845  2.1411
  510MOL0     H67286   2.882   5.137   8.791 -0.4491  1.3134 -0.2228
  510MOL0     H67287   2.735   5.208   8.801  0.7633  0.5997  0.0228
  510MOL0     H67288   2.849   5.017   9.001 -1.7223 -2.1484  1.3219
  510MOL0     H67289   2.691   5.011   8.926 -0.2970 -0.0219  1.4888
  510MOL0     H67290   2.791   5.165   9.173  0.3809 -0.5701  0.6608
  510MOL0     H67291   2.656   5.062   9.145 -0.8394 -0.0606 -0.7075
  510MOL0     H67292   2.682   5.366   9.083 -0.7082 -0.0878 -1.9310
  510MOL0     H67293   2.560   5.274   8.991 -1.4276  2.9899  0.7609
  510MOL0     H67294   2.525   5.398   9.196  5.1787  0.8455 -0.7422
  510MOL0     H67295   2.611   5.269   9.280  3.0802 -1.9602 -2.9599
  510MOL0     H67296   2.426   5.098   9.182 -6.1757 -1.4983  1.9001
  510MOL0     H67297   2.340   5.248   9.137  0.4325 -3.7125 -3.3656
  510MOL0     H67298   2.417   5.178   9.429  1.6705  0.5786 -0.7471
  510MOL0     H67299   2.330   5.313   9.385 -1.6620  0.1774 -0.1021
  510MOL0     H67300   2.139   5.155   9.305 -0.0322  1.3358 -0.0253
  510MOL0     H67301   2.203   5.127   9.465 -3.3055 -1.8504  0.0660
  510MOL0     H67302   2.996   5.485   8.781 -0.8440 -2.7037 -2.8176
  510MOL0     H67303   3.227   5.501   8.725  2.9841  0.6557  0.5517
  510MOL0     H67304   3.593   5.347   8.410  0.0888  1.5414  1.2316
  510MOL0     H67305   3.833   5.344   8.371  0.8660  0.0578 -0.1004
  510MOL0     H67306   5.411   5.251   9.011  0.6497 -2.3670  0.1646
  510MOL0     H67307   5.535   5.050   9.084 -1.0171 -0.4681  0.9299
  510MOL0     H67308   5.932   4.942   9.310  0.2129 -0.6794  0.6765
  510MOL0     H67309   6.057   4.776   9.440 -0.1065 -1.5430  0.0261
  510MOL0     H67310   6.349   4.525   9.244  1.5023 -0.0678  2.7545
  510MOL0     H67311   6.217   4.408   9.241 -0.4430 -2.3126  1.2849
  510MOL0     H67312   6.405   4.450   9.466 -0.3845  2.5733 -1.5675
  510MOL0     H67313   6.256   4.352   9.488  1.4841 -2.4970  0.1545
  510MOL0     H67314   6.455   4.293   9.274  0.1237 -2.0934 -0.5967
  510MOL0     H67315   6.316   4.193   9.319  0.4540 -0.3079 -1.1501
  510MOL0     H67316   6.512   4.090   9.422  0.4110  0.5386  1.1631
  510MOL0     H67317   6.538   4.241   9.510  0.2766 -1.2424  2.8799
  510MOL0     H67318   6.243   4.010   9.727  3.8220 -0.0173  2.5645
  510MOL0     H67319   6.143   4.565   9.078  2.9867  2.8892 -1.9535
  510MOL0     H67320   6.005   4.723   8.949  1.0186  0.3979 -1.2279
  511MOL0     O67321   5.484   8.878   4.338 -0.3722 -0.1606 -0.6037
  511MOL0     C67322   5.511   8.868   4.224 -0.3679 -1.1727 -0.8539
  511MOL0     O67323   5.429   8.878   4.118 -0.2040 -0.5964  0.0456
  511MOL0     C67324   5.297   8.903   4.113  0.2910 -1.0079  0.7338
  511MOL0     C67325   5.249   8.975   4.007  0.5284 -0.2739  0.4208
  511MOL0     C67326   5.110   8.999   3.994 -0.3014  0.1060 -0.1357
  511MOL0     C67327   5.016   8.944   4.081  0.2448  0.0355  0.2177
  511MOL0     O67328   4.880   8.964   4.071  1.0198  0.4702 -0.1639
  511MOL0     C67329   4.821   8.968   3.938 -0.5099  0.3023  0.1194
  511MOL0     C67330   4.703   9.066   3.940  1.5675 -0.1739 -0.0178
  511MOL0     C67331   4.580   9.011   4.013 -0.6539  0.2844  0.1411
  511MOL0     C67332   4.454   9.086   3.976  0.6360 -0.2347  0.2080
  511MOL0     C67333   4.329   9.025   4.034 -1.1630  0.1688  0.5111
  511MOL0     C67334   4.331   9.040   4.189 -0.9490  0.5669  0.8295
  511MOL0     C67335   4.189   9.010   4.246  0.4664  0.2573  1.0366
  511MOL0     C67336   4.182   9.004   4.402  0.2101 -0.1033  1.0451
  511MOL0     N67337   4.045   8.964   4.439  0.2528  0.0935  0.6496
  511MOL0     C67338   3.930   9.046   4.455 -0.9097  0.2288  0.8605
  511MOL0     C67339   3.827   8.960   4.466 -0.8558  0.6510  0.4548
  511MOL0     C67340   3.686   8.992   4.502 -0.3553  0.4465 -0.0177
  511MOL0     C67341   3.680   9.031   4.645  1.3640  0.3889  0.6179
  511MOL0     C67342   3.701   8.914   4.733 -0.3233  0.7351 -0.2191
  511MOL0     C67343   3.585   8.811   4.748  0.4274 -0.5793 -0.3734
  511MOL0     O67344   3.467   8.866   4.808  0.1163  0.4163 -0.6483
  511MOL0     C67345   3.345   8.805   4.814 -1.0254  1.6311 -0.0910
  511MOL0     C67346   3.241   8.881   4.867  0.0244 -0.1624 -0.4597
  511MOL0     C67347   3.114   8.827   4.884 -0.1701 -0.1571 -0.9395
  511MOL0     C67348   3.088   8.695   4.847  0.2179 -0.3718  1.2552
  511MOL0     C67349   2.950   8.647   4.848  0.6509  0.6717  1.0317
  511MOL0     O67350   2.949   8.513   4.867 -0.3839  0.1671 -0.0936
  511MOL0     C67351   2.838   8.461   4.936  0.5687 -0.5633  0.4226
  511MOL0     C67352   2.782   8.512   5.051 -0.5485 -0.6207  0.6613
  511MOL0     C67353   2.656   8.479   5.098 -0.4480  0.6571 -0.1161
  511MOL0     C67354   2.584   8.383   5.026  0.3457 -1.1717 -0.0227
  511MOL0     O67355   2.456   8.340   5.065 -0.4660  0.1958  0.1793
  511MOL0     C67356   2.468   8.237   5.163 -0.2121  1.4290  0.0716
  511MOL0     C67357   2.328   8.158   5.173  0.5866 -0.1179 -0.1146
  511MOL0     C67358   2.294   8.081   5.046 -0.5761  0.2311  0.3904
  511MOL0     C67359   2.149   8.055   5.032 -0.2666 -1.6690  0.3514
  511MOL0     C67360   2.098   7.957   5.137 -0.4827  0.5364 -0.0693
  511MOL0     C67361   1.945   7.959   5.141  0.9542  0.6747  0.4006
  511MOL0     C67362   1.877   8.076   5.211  0.7928 -0.5820 -0.5594
  511MOL0     C67363   1.917   8.101   5.349  0.4394  0.5126 -0.6031
  511MOL0    Cl67364   1.918   7.951   5.449 -0.3065  0.3804 -0.2374
  511MOL0     C67365   2.648   8.326   4.916  0.3598  0.3130  0.9488
  511MOL0     C67366   2.771   8.358   4.868  0.0691 -0.8354 -0.5545
  511MOL0     O67367   2.852   8.719   4.832  0.5231 -0.0023  0.9897
  511MOL0     C67368   3.194   8.607   4.808 -0.3029  0.4587 -1.2598
  511MOL0     C67369   3.317   8.671   4.775  0.1781  0.0317 -0.9504
  511MOL0     N67370   3.883   8.829   4.472 -0.0935  0.2158 -0.6585
  511MOL0     N67371   4.004   8.838   4.453  0.3404 -0.9224  0.4542
  511MOL0     C67372   5.072   8.869   4.190 -0.5914 -0.1958  0.5058
  511MOL0     C67373   5.208   8.842   4.204  0.1088  0.3363 -0.3565
  511MOL0     C67374   5.657   8.870   4.192 -0.4818 -0.0177 -0.9288
  511MOL0     C67375   5.749   8.846   4.304 -0.4175  0.8794 -0.3389
  511MOL0     C67376   5.885   8.824   4.274  0.0112 -0.0316  1.5035
  511MOL0     C67377   5.936   8.825   4.139  0.1956  0.0458 -0.0318
  511MOL0     O67378   6.076   8.830   4.108  0.2583  0.4891  0.4890
  511MOL0     C67379   6.165   8.801   4.211 -0.4670 -0.1170 -0.1760
  511MOL0     C67380   6.305   8.772   4.157  0.4293 -0.2366 -0.3294
  511MOL0     C67381   6.370   8.901   4.106 -0.2796 -0.3885  0.4550
  511MOL0     C67382   6.511   8.880   4.048 -0.6828 -0.3864  0.4146
  511MOL0     C67383   6.603   8.841   4.154 -0.2728  0.4330  0.3175
  511MOL0     C67384   6.661   8.801   4.248  0.3020 -0.3029  0.8540
  511MOL0     C67385   5.845   8.849   4.036  0.1788 -0.5158 -0.3535
  511MOL0     C67386   5.708   8.868   4.065 -0.4033 -1.1055 -0.2428
  511MOL0     H67387   5.323   8.996   3.930 -0.3267 -3.4333 -1.4706
  511MOL0     H67388   5.076   9.058   3.910 -1.5045  0.4051  0.5443
  511MOL0     H67389   4.781   8.869   3.915 -0.2081 -0.0745  1.1919
  511MOL0     H67390   4.890   9.003   3.860  0.8535  0.5172  1.3850
  511MOL0     H67391   4.675   9.089   3.837  1.5928 -0.3302 -0.0593
  511MOL0     H67392   4.731   9.161   3.987  1.9578 -1.3696  2.3412
  511MOL0     H67393   4.604   9.010   4.120 -2.3610  1.2351  0.5700
  511MOL0     H67394   4.571   8.907   3.980  3.7125 -0.4902  0.7745
  511MOL0     H67395   4.458   9.191   4.007 -1.1694 -0.1893  0.3836
  511MOL0     H67396   4.452   9.075   3.867  1.4291 -1.5209  0.3090
  511MOL0     H67397   4.330   8.919   4.007  2.5017 -0.3540  2.1103
  511MOL0     H67398   4.243   9.066   3.979 -0.4962 -2.2926 -2.6508
  511MOL0     H67399   4.364   9.144   4.200 -0.4765  0.1580  4.8713
  511MOL0     H67400   4.405   8.982   4.244 -1.8360 -2.5033 -0.9750
  511MOL0     H67401   4.114   9.084   4.215 -0.5730 -1.2796 -0.2431
  511MOL0     H67402   4.159   8.917   4.198  2.2705  0.1547  0.0088
  511MOL0     H67403   4.206   9.105   4.439 -0.4393  0.2280  0.5861
  511MOL0     H67404   4.262   8.935   4.429 -0.2326 -2.1695 -2.4017
  511MOL0     H67405   3.912   9.153   4.463 -0.6706  0.1852  2.1094
  511MOL0     H67406   3.628   8.900   4.485  0.9744 -1.1762  3.4290
  511MOL0     H67407   3.655   9.079   4.442 -2.7482 -0.6688 -0.5216
  511MOL0     H67408   3.582   9.073   4.670  2.0118  0.9265  2.3958
  511MOL0     H67409   3.741   9.120   4.661 -1.5609  2.3940  1.3808
  511MOL0     H67410   3.786   8.853   4.700 -1.3959  1.5988 -5.4641
  511MOL0     H67411   3.713   8.962   4.831 -0.3915  1.6074 -0.6317
  511MOL0     H67412   3.616   8.725   4.808  0.1030 -0.5832 -0.2110
  511MOL0     H67413   3.557   8.769   4.652 -1.5358  0.0620 -0.1243
  511MOL0     H67414   3.272   8.980   4.897  2.3387 -1.4590  1.8824
  511MOL0     H67415   3.042   8.894   4.930  0.5403 -0.7753  1.2250
  511MOL0     H67416   2.832   8.594   5.102 -0.5893 -0.1042 -0.1010
  511MOL0     H67417   2.612   8.520   5.189 -0.9533 -0.3710  0.1336
  511MOL0     H67418   2.481   8.286   5.260  0.1258  1.2804  0.1054
  511MOL0     H67419   2.548   8.170   5.130 -0.8728  2.0895 -3.1259
  511MOL0     H67420   2.258   8.237   5.200  2.2141  1.1075  0.7478
  511MOL0     H67421   2.332   8.093   5.262  0.9794  0.4386  0.2871
  511MOL0     H67422   2.330   7.978   5.052 -1.7259 -0.2283 -0.2599
  511MOL0     H67423   2.328   8.128   4.953 -2.2224 -0.1434 -0.4336
  511MOL0     H67424   2.097   8.151   5.029  2.0391 -0.3549 -2.1113
  511MOL0     H67425   2.132   8.005   4.936 -0.7649 -1.6328  0.4230
  511MOL0     H67426   2.145   7.965   5.235 -0.4933 -0.2614  0.0077
  511MOL0     H67427   2.124   7.858   5.100 -2.0805  0.1887 -0.3412
  511MOL0     H67428   1.923   7.865   5.193 -0.8297  1.6707  1.5494
  511MOL0     H67429   1.901   7.953   5.041 -0.4927  0.7614  1.0158
  511MOL0     H67430   1.900   8.174   5.167 -0.4313 -0.3581 -0.7605
  511MOL0     H67431   1.769   8.071   5.195  1.1825  1.0735 -5.1783
  511MOL0     H67432   1.856   8.183   5.389 -1.4850 -0.3082 -1.6860
  511MOL0     H67433   2.022   8.129   5.344  0.6181 -0.2704 -2.0420
  511MOL0     H67434   2.573   8.260   4.874 -0.6649  0.3072  2.6758
  511MOL0     H67435   2.822   8.318   4.782  1.3532 -1.6415  0.5402
  511MOL0     H67436   3.185   8.499   4.809  0.3920  0.3459  1.8366
  511MOL0     H67437   3.400   8.612   4.739  1.6664  0.4319  1.6074
  511MOL0     H67438   5.008   8.807   4.252  1.5281 -2.6772  0.3572
  511MOL0     H67439   5.250   8.780   4.282 -0.7753 -1.6636 -1.4037
  511MOL0     H67440   5.717   8.840   4.408 -0.3296 -1.0603 -0.3741
  511MOL0     H67441   5.949   8.828   4.361  2.5803  1.5806 -0.3102
  511MOL0     H67442   6.131   8.704   4.249 -2.4069  0.6860  0.2508
  511MOL0     H67443   6.153   8.871   4.295 -0.0730  0.8283 -0.8973
  511MOL0     H67444   6.363   8.728   4.238  1.9766  2.1110 -0.0602
  511MOL0     H67445   6.293   8.701   4.075 -3.3534  1.2233 -1.2507
  511MOL0     H67446   6.378   8.978   4.182  0.0932  0.4406 -0.4072
  511MOL0     H67447   6.303   8.944   4.031 -2.6042 -2.1142  1.4128
  511MOL0     H67448   6.509   8.800   3.973  2.3982 -1.6732  1.5185
  511MOL0     H67449   6.537   8.974   3.999  1.7259 -1.8036 -1.2759
  511MOL0     H67450   6.737   8.768   4.316  0.9147 -2.5968 -0.8270
  511MOL0     H67451   5.876   8.862   3.933 -2.3239  1.0008 -0.9871
  511MOL0     H67452   5.628   8.896   3.997 -0.5699  3.9966  1.6261
  512MOL0     O67453   2.047   9.575   3.912  0.5464  0.8822 -0.2730
  512MOL0     C67454   2.105   9.572   4.018  0.1608  0.0219  0.4608
  512MOL0     O67455   2.050   9.568   4.146 -0.0877  0.7054 -0.0341
  512MOL0     C67456   1.914   9.585   4.151 -0.5265  0.7632 -0.2217
  512MOL0     C67457   1.854   9.694   4.089 -0.6152  0.0388 -0.7135
  512MOL0     C67458   1.726   9.732   4.111  0.6847  0.3618  0.0144
  512MOL0     C67459   1.647   9.660   4.197  0.1216 -0.4753 -0.0718
  512MOL0     O67460   1.524   9.711   4.205 -0.8448  0.1732  0.1644
  512MOL0     C67461   1.425   9.630   4.257 -0.1518  0.1039 -0.6339
  512MOL0     C67462   1.292   9.709   4.278  0.6548 -0.2786 -0.4244
  512MOL0     C67463   1.178   9.605   4.302  0.2884  0.7216 -0.2068
  512MOL0     C67464   1.196   9.538   4.435  0.9261  0.3506 -0.5580
  512MOL0     C67465   1.061   9.468   4.487 -0.3981  0.6110  0.9368
  512MOL0     C67466   1.084   9.348   4.588  0.4322  1.0707  0.7379
  512MOL0     C67467   1.174   9.370   4.711  0.3043 -0.0410 -0.3445
  512MOL0     C67468   1.124   9.476   4.806  0.6259  0.4424  0.0122
  512MOL0     N67469   1.197   9.471   4.930  0.5404 -0.5145 -1.0940
  512MOL0     C67470   1.263   9.578   4.980 -0.6020  0.2592 -0.5234
  512MOL0     C67471   1.322   9.531   5.095 -0.9653 -0.1004  0.2173
  512MOL0     C67472   1.434   9.597   5.163  1.0804  0.2010 -0.1216
  512MOL0     C67473   1.568   9.620   5.095 -0.2146  0.1358  0.3388
  512MOL0     C67474   1.670   9.674   5.200  0.1762  0.3579 -0.0167
  512MOL0     C67475   1.805   9.731   5.148  0.8120  0.4195  0.5319
  512MOL0     O67476   1.782   9.850   5.060 -1.1380  0.0690  0.5474
  512MOL0     C67477   1.894   9.915   5.019 -0.2547 -0.7184  0.0811
  512MOL0     C67478   1.861  10.023   4.941  0.7372 -0.3881  0.1766
  512MOL0     C67479   1.959  10.107   4.888  0.0379 -0.2890 -0.5933
  512MOL0     C67480   2.096  10.097   4.918 -0.4259 -0.5941 -1.0508
  512MOL0     C67481   2.191  10.192   4.876 -0.9467 -0.0283 -1.2355
  512MOL0     O67482   2.311  10.195   4.950  0.9015 -0.2003  0.6046
  512MOL0     C67483   2.421  10.249   4.897 -0.4103  1.1921  0.3392
  512MOL0     C67484   2.508  10.304   5.000 -0.9119  0.0953  0.8591
  512MOL0     C67485   2.631  10.356   4.957 -0.4967  0.9458  0.9859
  512MOL0     C67486   2.685  10.351   4.829 -0.4547 -0.1818  0.3373
  512MOL0     O67487   2.816  10.388   4.792  0.6303 -0.0908  0.0860
  512MOL0     C67488   2.892  10.482   4.877  0.3910  0.2078  1.2487
  512MOL0     C67489   2.846  10.633   4.876 -0.0354  0.2093 -0.7230
  512MOL0     C67490   2.935  10.725   4.967  0.0266 -0.8031  0.1960
  512MOL0     C67491   2.885  10.864   4.999  0.0783  0.2532 -0.2193
  512MOL0     C67492   3.005  10.939   5.057  0.2019  0.0627 -0.1914
  512MOL0     C67493   3.037  10.877   5.195 -0.8155 -0.6190  0.1478
  512MOL0     C67494   2.921  10.875   5.293 -0.0510 -0.2956  0.1785
  512MOL0     C67495   2.967  10.805   5.418 -1.3711  0.4184 -0.5074
  512MOL0    Cl67496   2.828  10.781   5.516 -0.4490 -0.2343  0.3287
  512MOL0     C67497   2.591  10.303   4.735  0.0175  0.5108 -0.0426
  512MOL0     C67498   2.462  10.244   4.765  1.0255 -0.4715  0.0240
  512MOL0     O67499   2.168  10.280   4.792 -0.0714  0.2436  0.0964
  512MOL0     C67500   2.129   9.989   5.009  0.3171 -0.6597  0.3264
  512MOL0     C67501   2.031   9.892   5.048 -0.1965  0.7240 -0.0937
  512MOL0     N67502   1.271   9.400   5.115 -0.2220  0.4700  0.0615
  512MOL0     N67503   1.191   9.370   5.016 -0.7207 -0.4015 -0.4077
  512MOL0     C67504   1.704   9.558   4.268  1.1970  0.2504  0.1295
  512MOL0     C67505   1.836   9.518   4.242 -0.5874 -0.4798  0.1073
  512MOL0     C67506   2.256   9.568   3.999 -0.6442  0.0957  0.0057
  512MOL0     C67507   2.311   9.495   3.899 -0.1543 -0.1154 -0.6137
  512MOL0     C67508   2.447   9.512   3.873 -0.6854 -1.5219 -0.2397
  512MOL0     C67509   2.529   9.588   3.960 -0.5364  0.6641 -0.5818
  512MOL0     O67510   2.667   9.609   3.950 -0.1344 -0.0096 -0.6654
  512MOL0     C67511   2.738   9.516   3.861  0.4026 -0.4596 -0.3590
  512MOL0     C67512   2.883   9.536   3.875  0.2386  0.1957  0.4215
  512MOL0     C67513   2.929   9.682   3.825  0.0331  0.6797 -0.1014
  512MOL0     C67514   3.072   9.706   3.887 -0.4294 -0.0513  0.7459
  512MOL0     C67515   3.066   9.788   4.005 -0.1518  1.0866 -0.1652
  512MOL0     C67516   3.068   9.860   4.103  0.0354 -0.1004 -0.2499
  512MOL0     C67517   2.474   9.640   4.077 -0.5950 -0.3700  0.2366
  512MOL0     C67518   2.341   9.627   4.090  0.2736 -0.1124  0.1186
  512MOL0     H67519   1.922   9.748   4.023 -2.1515 -1.9031 -4.2019
  512MOL0     H67520   1.684   9.819   4.062 -0.8038 -0.1975  0.2511
  512MOL0     H67521   1.441   9.594   4.359 -0.7307  1.5410 -0.0115
  512MOL0     H67522   1.402   9.551   4.185  1.7398  1.8235 -3.3137
  512MOL0     H67523   1.270   9.767   4.188 -1.9240  2.0957  1.5618
  512MOL0     H67524   1.301   9.791   4.349  1.1094  1.3079 -2.2323
  512MOL0     H67525   1.178   9.528   4.225  2.3670  2.1544 -1.7607
  512MOL0     H67526   1.082   9.659   4.297 -1.3246 -2.0027 -4.4396
  512MOL0     H67527   1.264   9.453   4.427 -1.7926 -1.8994 -1.9791
  512MOL0     H67528   1.216   9.605   4.518  0.3045  0.2083 -0.2857
  512MOL0     H67529   1.017   9.418   4.401 -0.9640  0.1468  1.4866
  512MOL0     H67530   0.982   9.533   4.525 -1.4627 -1.0898  1.7416
  512MOL0     H67531   1.119   9.254   4.544  0.0639  1.4297 -0.3673
  512MOL0     H67532   0.987   9.304   4.614 -0.0320  0.8366 -1.2279
  512MOL0     H67533   1.180   9.272   4.760 -0.6900 -1.0860 -2.1616
  512MOL0     H67534   1.275   9.400   4.682 -0.7201  3.1403 -0.9808
  512MOL0     H67535   1.018   9.461   4.829  0.5843  1.6415  0.6392
  512MOL0     H67536   1.150   9.572   4.761  4.2184 -0.2075  0.3796
  512MOL0     H67537   1.290   9.671   4.932 -2.2613  0.9592 -0.1680
  512MOL0     H67538   1.440   9.538   5.254  0.3992 -1.6648 -1.2191
  512MOL0     H67539   1.399   9.699   5.182  0.7284  0.0680 -0.0426
  512MOL0     H67540   1.557   9.706   5.027 -0.9129  2.5027  3.2200
  512MOL0     H67541   1.604   9.536   5.035  0.3750  1.9207 -1.9568
  512MOL0     H67542   1.629   9.765   5.244  1.7518  0.5171  1.2325
  512MOL0     H67543   1.690   9.598   5.276  1.5619  0.6573 -0.0465
  512MOL0     H67544   1.855   9.652   5.091 -1.4857 -1.1995  0.5924
  512MOL0     H67545   1.856   9.751   5.242  0.2103 -2.8434  1.6909
  512MOL0     H67546   1.757  10.045   4.922  1.0164  0.4295 -0.4921
  512MOL0     H67547   1.925  10.166   4.803 -1.3428  1.2458  0.9508
  512MOL0     H67548   2.492  10.305   5.108  1.9733  1.9845  1.3763
  512MOL0     H67549   2.697  10.405   5.028 -0.2765  1.9334  0.1312
  512MOL0     H67550   2.998  10.464   4.861  0.2329 -0.2584  0.6533
  512MOL0     H67551   2.874  10.453   4.981 -0.2412 -3.1593  0.3239
  512MOL0     H67552   2.754  10.627   4.935  1.2843 -1.0515  1.3346
  512MOL0     H67553   2.824  10.688   4.784 -0.6719  1.0626 -0.0781
  512MOL0     H67554   3.036  10.729   4.926  1.0052  1.6910  2.5616
  512MOL0     H67555   2.945  10.667   5.058 -0.6685 -2.2743 -0.6365
  512MOL0     H67556   2.869  10.905   4.899  1.3626 -0.0025 -0.5507
  512MOL0     H67557   2.791  10.880   5.053  0.0753 -2.3972  0.7352
  512MOL0     H67558   2.975  11.042   5.074 -4.4362 -0.9596 -0.9546
  512MOL0     H67559   3.099  10.939   5.000  1.1922 -0.7950  1.3731
  512MOL0     H67560   3.130  10.924   5.228  0.1368 -1.9054 -0.6447
  512MOL0     H67561   3.074  10.775   5.181  1.8259  0.3366 -0.4027
  512MOL0     H67562   2.885  10.973   5.328 -0.5495 -0.0715 -0.9146
  512MOL0     H67563   2.838  10.818   5.253 -3.7813  3.2147  2.1423
  512MOL0     H67564   3.043  10.862   5.471 -0.4481  0.1204 -1.4651
  512MOL0     H67565   3.017  10.710   5.397 -1.4828 -0.4401  2.6239
  512MOL0     H67566   2.621  10.283   4.632 -0.4124  3.2142 -0.7699
  512MOL0     H67567   2.387  10.209   4.695  0.0894 -1.1835  1.3405
  512MOL0     H67568   2.231   9.970   5.040 -0.1913  0.4535  2.9401
  512MOL0     H67569   2.065   9.813   5.114 -1.2599  0.8634  0.6545
  512MOL0     H67570   1.641   9.495   4.329  1.2100  0.2125  0.1043
  512MOL0     H67571   1.883   9.444   4.306  0.4709  1.4690  1.7346
  512MOL0     H67572   2.257   9.427   3.834  1.3646 -1.9328 -0.0735
  512MOL0     H67573   2.484   9.473   3.779  0.0037 -1.5911  0.0534
  512MOL0     H67574   2.714   9.547   3.759 -0.6283  1.9806  0.5616
  512MOL0     H67575   2.714   9.416   3.897 -0.3851  0.1051  0.7135
  512MOL0     H67576   2.904   9.537   3.982 -1.8916  4.0230  0.9730
  512MOL0     H67577   2.933   9.457   3.818 -3.4414 -3.2192  1.4302
  512MOL0     H67578   2.854   9.753   3.860 -1.1802 -1.0540  1.0157
  512MOL0     H67579   2.938   9.675   3.716  1.0012 -2.2701  0.0658
  512MOL0     H67580   3.124   9.612   3.906  3.4391  1.1993 -2.2997
  512MOL0     H67581   3.139   9.758   3.818  1.1702  0.3451  2.5081
  512MOL0     H67582   3.079   9.939   4.174  2.0731  0.3198 -0.9550
  512MOL0     H67583   2.551   9.688   4.137  3.2394 -0.5633 -3.9761
  512MOL0     H67584   2.292   9.691   4.163 -0.1609 -0.8306  0.4693
  513MOL0     O67585   5.442   8.192   9.144 -0.1761 -0.7496  0.1333
  513MOL0     C67586   5.458   8.125   9.040  0.9045  0.3881 -0.4130
  513MOL0     O67587   5.362   8.059   8.969 -0.4616  0.7398 -0.1495
  513MOL0     C67588   5.232   8.044   9.010 -0.8256 -0.4065  0.3383
  513MOL0     C67589   5.192   7.989   9.132  0.1950  0.2086  0.5479
  513MOL0     C67590   5.050   7.976   9.171 -1.0717  0.7691  0.3883
  513MOL0     C67591   4.957   8.016   9.081  0.2042  0.5345 -0.2871
  513MOL0     O67592   4.829   8.028   9.111  0.4582 -0.6584  1.3159
  513MOL0     C67593   4.754   7.922   9.170 -0.3018  0.3505 -0.1047
  513MOL0     C67594   4.663   7.862   9.066 -0.5425 -0.5864  0.1344
  513MOL0     C67595   4.530   7.818   9.111  0.1088  0.5486  0.3333
  513MOL0     C67596   4.426   7.773   9.003  0.3760  0.0330 -0.3399
  513MOL0     C67597   4.289   7.723   9.049  0.5681  0.1880  0.4181
  513MOL0     C67598   4.312   7.583   9.097 -0.6140 -0.4550  0.0674
  513MOL0     C67599   4.183   7.536   9.177  0.4058 -0.1642  0.0691
  513MOL0     C67600   4.174   7.394   9.234  0.9230  1.3326 -0.3219
  513MOL0     N67601   4.223   7.301   9.133  0.3428  0.4634 -0.0297
  513MOL0     C67602   4.160   7.266   9.022 -0.1751 -1.1443 -0.0259
  513MOL0     C67603   4.248   7.195   8.953 -0.2058 -0.2660 -0.8891
  513MOL0     C67604   4.229   7.138   8.818  0.0089  0.6729 -0.5711
  513MOL0     C67605   4.127   7.024   8.816  0.2847  0.6593 -0.1804
  513MOL0     C67606   4.188   6.891   8.764 -0.1298 -0.8489 -0.7554
  513MOL0     C67607   4.081   6.785   8.714  0.3317 -0.9148 -0.3965
  513MOL0     O67608   3.969   6.792   8.812  0.4409 -0.5898 -0.2502
  513MOL0     C67609   3.867   6.704   8.787  0.6756  0.3027  0.7093
  513MOL0     C67610   3.774   6.676   8.885 -0.9634 -0.3902  0.5987
  513MOL0     C67611   3.660   6.591   8.868  0.2929  0.7325 -0.8569
  513MOL0     C67612   3.638   6.534   8.742 -0.0231  0.7197  0.6154
  513MOL0     C67613   3.522   6.448   8.707  0.8528 -0.1797 -0.7550
  513MOL0     O67614   3.459   6.487   8.591  0.0012  0.4722  0.2061
  513MOL0     C67615   3.339   6.434   8.572  0.7665  0.9675  0.2939
  513MOL0     C67616   3.318   6.311   8.517 -0.2939  0.4673  0.0462
  513MOL0     C67617   3.193   6.257   8.491 -0.5152 -0.2455  0.3165
  513MOL0     C67618   3.082   6.336   8.498  0.1828  0.1170 -0.0010
  513MOL0     O67619   2.959   6.282   8.466  0.9580  0.4663  0.2843
  513MOL0     C67620   2.845   6.367   8.460 -1.2967 -0.9414  0.5414
  513MOL0     C67621   2.716   6.328   8.385  0.2179  0.2309  0.4459
  513MOL0     C67622   2.602   6.422   8.406  0.6222 -0.5782 -0.6641
  513MOL0     C67623   2.479   6.388   8.325 -0.2488  0.4645 -1.2263
  513MOL0     C67624   2.347   6.453   8.380 -0.5073  0.3670  0.3511
  513MOL0     C67625   2.226   6.404   8.313 -1.1318 -0.2360  0.1572
  513MOL0     C67626   2.110   6.500   8.344  0.5397 -0.5557  0.1469
  513MOL0     C67627   1.965   6.454   8.297  0.6397 -0.1384 -0.6256
  513MOL0    Cl67628   1.961   6.474   8.121  0.0275 -0.4338 -0.2046
  513MOL0     C67629   3.101   6.465   8.558 -0.7622  0.6484  0.2833
  513MOL0     C67630   3.227   6.507   8.593  0.2509  0.2417  0.3774
  513MOL0     O67631   3.479   6.372   8.798 -0.8550  0.1154  0.1310
  513MOL0     C67632   3.728   6.568   8.639 -0.2007 -0.4676  0.8118
  513MOL0     C67633   3.843   6.647   8.667 -0.2029 -0.4949 -0.6874
  513MOL0     N67634   4.365   7.181   9.025  0.5068  0.6957  0.4784
  513MOL0     N67635   4.345   7.249   9.133  0.4432  0.1416  0.1033
  513MOL0     C67636   4.999   8.057   8.954 -0.0482  0.2989 -0.4187
  513MOL0     C67637   5.131   8.083   8.921  0.4413  0.5491 -0.3703
  513MOL0     C67638   5.602   8.125   9.002  0.5888  0.0158  0.5294
  513MOL0     C67639   5.702   8.184   9.081 -0.1212 -0.1238  0.6273
  513MOL0     C67640   5.829   8.190   9.026 -0.0078  0.3190 -0.0155
  513MOL0     C67641   5.870   8.135   8.901 -0.1524 -0.1419 -0.9722
  513MOL0     O67642   5.999   8.135   8.851  0.4439 -1.2709 -0.8126
  513MOL0     C67643   6.101   8.205   8.924 -1.3000  0.3862 -0.7140
  513MOL0     C67644   6.232   8.198   8.833  0.5726 -0.4600  0.1567
  513MOL0     C67645   6.359   8.203   8.906  0.6266  0.7324 -0.8287
  513MOL0     C67646   6.478   8.181   8.810  0.6497  0.0583 -0.4951
  513MOL0     C67647   6.603   8.179   8.879 -0.3134  1.0891  0.6953
  513MOL0     C67648   6.711   8.166   8.932 -0.1779 -0.5987 -0.4843
  513MOL0     C67649   5.767   8.076   8.829 -0.1970  0.3360 -0.5772
  513MOL0     C67650   5.633   8.077   8.876 -0.2268  0.1359 -0.5742
  513MOL0     H67651   5.278   7.947   9.184  2.9820  5.4309  0.8020
  513MOL0     H67652   5.019   7.925   9.261  0.8493 -2.2253 -0.4870
  513MOL0     H67653   4.692   7.964   9.250 -1.0671  0.1449 -0.5875
  513MOL0     H67654   4.822   7.841   9.198  1.6397  2.2705  1.1280
  513MOL0     H67655   4.716   7.779   9.019 -1.7214 -1.2878 -0.0083
  513MOL0     H67656   4.643   7.940   8.992  0.0276  1.2878  1.8819
  513MOL0     H67657   4.487   7.901   9.169 -0.6444  0.4144 -0.0147
  513MOL0     H67658   4.550   7.732   9.175  1.4829  1.4244  1.1187
  513MOL0     H67659   4.423   7.856   8.932 -2.9895  1.3367  1.1120
  513MOL0     H67660   4.473   7.691   8.949  0.5723 -1.6979  2.2825
  513MOL0     H67661   4.222   7.717   8.963  1.4547  1.5500 -0.4184
  513MOL0     H67662   4.234   7.778   9.126  2.1681  0.4736  1.4170
  513MOL0     H67663   4.402   7.581   9.159  1.2035 -0.8391 -2.4289
  513MOL0     H67664   4.341   7.516   9.015  1.5762  0.2119  0.2298
  513MOL0     H67665   4.156   7.599   9.262  1.5600  0.5576 -0.0768
  513MOL0     H67666   4.094   7.540   9.113  0.0854 -0.6431  0.4775
  513MOL0     H67667   4.070   7.373   9.260  0.6791 -0.3660 -2.4366
  513MOL0     H67668   4.232   7.392   9.326  0.8073 -0.6448 -0.2658
  513MOL0     H67669   4.061   7.301   8.996  0.4999  0.1697 -0.9570
  513MOL0     H67670   4.321   7.103   8.771 -0.0253  0.3622 -0.4090
  513MOL0     H67671   4.193   7.209   8.744 -2.4887 -2.6264 -2.8097
  513MOL0     H67672   4.040   7.053   8.756  0.3635 -0.8128 -1.0380
  513MOL0     H67673   4.087   7.011   8.918  1.2535 -1.3187 -0.0038
  513MOL0     H67674   4.257   6.908   8.681  2.2916 -2.5670  0.7494
  513MOL0     H67675   4.240   6.839   8.845  2.7309  1.8884 -0.6289
  513MOL0     H67676   4.126   6.686   8.704 -0.8268 -2.0550  3.8288
  513MOL0     H67677   4.053   6.821   8.615 -3.3230 -0.9728  0.4970
  513MOL0     H67678   3.802   6.722   8.979  3.0599  4.2079 -2.4010
  513MOL0     H67679   3.595   6.558   8.949  1.2086 -4.1048 -1.8083
  513MOL0     H67680   3.390   6.231   8.500 -2.3559 -1.2578 -1.1949
  513MOL0     H67681   3.172   6.156   8.458 -2.7836  1.4231 -4.1601
  513MOL0     H67682   2.882   6.463   8.423 -1.1770  0.8565  4.7893
  513MOL0     H67683   2.827   6.398   8.563 -0.7122  1.5984 -0.0384
  513MOL0     H67684   2.696   6.226   8.421  2.8231 -1.1085 -1.4943
  513MOL0     H67685   2.744   6.318   8.280 -0.0604 -3.9679  0.5769
  513MOL0     H67686   2.635   6.520   8.372 -1.6086  1.3749  2.2540
  513MOL0     H67687   2.570   6.426   8.511  0.5249 -1.1429 -0.6697
  513MOL0     H67688   2.493   6.419   8.221  0.7511  0.3063 -1.1551
  513MOL0     H67689   2.472   6.279   8.329  0.3811  0.4573  0.9044
  513MOL0     H67690   2.354   6.561   8.369  0.1660  0.3921  0.9341
  513MOL0     H67691   2.333   6.436   8.488  1.6676 -0.1523  0.6121
  513MOL0     H67692   2.203   6.300   8.338  2.3558 -0.1932  4.9180
  513MOL0     H67693   2.255   6.400   8.208 -0.1880  1.3789  0.3385
  513MOL0     H67694   2.099   6.522   8.451  1.7685  1.1209 -0.0353
  513MOL0     H67695   2.117   6.601   8.302 -3.6508 -1.1889 -2.6301
  513MOL0     H67696   1.881   6.508   8.342  0.5771 -0.6718 -0.0873
  513MOL0     H67697   1.962   6.348   8.324 -2.3617 -0.0177 -0.1625
  513MOL0     H67698   3.027   6.540   8.585 -0.5353  0.4541  1.5418
  513MOL0     H67699   3.236   6.604   8.640 -3.7068  0.3779  1.2071
  513MOL0     H67700   3.712   6.522   8.542 -0.9611  2.1518 -0.3848
  513MOL0     H67701   3.909   6.658   8.582  0.9666  0.3575  0.2900
  513MOL0     H67702   4.911   8.081   8.896  1.2057  2.4311 -1.5389
  513MOL0     H67703   5.169   8.130   8.830  4.6760  0.0853  0.9605
  513MOL0     H67704   5.679   8.230   9.176 -0.0640  0.7525  0.2254
  513MOL0     H67705   5.901   8.248   9.083  0.7296  1.2381 -1.8133
  513MOL0     H67706   6.124   8.151   9.017 -1.2283 -1.8145 -1.9588
  513MOL0     H67707   6.077   8.306   8.959 -0.4545  0.4063 -0.1508
  513MOL0     H67708   6.229   8.107   8.772  1.5067  1.0116 -2.2633
  513MOL0     H67709   6.223   8.289   8.772 -0.1125  0.3721  1.4597
  513MOL0     H67710   6.361   8.119   8.976 -1.6610 -1.0186 -2.6880
  513MOL0     H67711   6.375   8.297   8.959  3.3275  0.1713 -0.5397
  513MOL0     H67712   6.460   8.081   8.769  2.9875 -1.3052  1.5446
  513MOL0     H67713   6.489   8.254   8.729 -1.9081 -0.8351 -1.7707
  513MOL0     H67714   6.808   8.164   8.979 -0.5028 -1.5617  0.1710
  513MOL0     H67715   5.780   8.029   8.731 -1.0425 -3.2254  0.8568
  513MOL0     H67716   5.559   8.050   8.801  0.7023  2.1689 -2.3311
  514MOL0     O67717   5.449   4.124   9.522 -0.9994 -0.1560  0.5392
  514MOL0     C67718   5.423   4.213   9.438 -0.8107 -0.7443 -0.2501
  514MOL0     O67719   5.338   4.207   9.327 -0.0424 -0.8221  0.6018
  514MOL0     C67720   5.268   4.092   9.297  0.8649  0.0597  0.3738
  514MOL0     C67721   5.242   4.073   9.164 -0.8619 -0.2072  0.0022
  514MOL0     C67722   5.169   3.966   9.120  0.0345 -0.0136  0.0997
  514MOL0     C67723   5.117   3.871   9.209 -0.3038  1.1229 -0.6379
  514MOL0     O67724   5.038   3.758   9.189 -0.3442 -0.7550  0.7555
  514MOL0     C67725   5.003   3.722   9.059  0.8547  0.0823  0.7402
  514MOL0     C67726   4.875   3.633   9.066  0.8796 -0.4298 -0.7249
  514MOL0     C67727   4.896   3.487   9.103  0.6238 -0.0588  1.1144
  514MOL0     C67728   5.001   3.414   9.019 -0.9720  0.0808  0.1851
  514MOL0     C67729   4.980   3.266   9.039  0.2043  0.5505  0.1456
  514MOL0     C67730   5.074   3.174   8.948  0.3218 -0.0476 -1.2964
  514MOL0     C67731   5.015   3.135   8.810  0.4834 -0.4979  1.1386
  514MOL0     C67732   5.116   3.077   8.717 -0.0883  0.1102 -0.4304
  514MOL0     N67733   5.189   2.952   8.764 -0.5513 -0.5303  0.3416
  514MOL0     C67734   5.308   2.962   8.826 -0.8636  0.1479 -0.3125
  514MOL0     C67735   5.347   2.838   8.848  0.4040  1.0991 -0.7949
  514MOL0     C67736   5.470   2.797   8.928 -0.1014  0.3104 -0.4970
  514MOL0     C67737   5.542   2.675   8.864  0.4168 -0.2462  0.3677
  514MOL0     C67738   5.599   2.709   8.729 -0.2291  1.1618  0.6768
  514MOL0     C67739   5.703   2.611   8.673  0.6226 -0.5134 -0.2929
  514MOL0     O67740   5.835   2.634   8.723  0.4907  0.4785  0.4511
  514MOL0     C67741   5.934   2.538   8.728 -0.0053  0.3727 -0.9364
  514MOL0     C67742   5.915   2.409   8.680  0.0757 -0.1216  0.7875
  514MOL0     C67743   6.028   2.319   8.693  0.6076  0.2846  0.3035
  514MOL0     C67744   6.152   2.352   8.755  1.0285 -1.0341  0.5556
  514MOL0     C67745   6.262   2.257   8.751 -0.7221 -0.5451  0.0921
  514MOL0     O67746   6.261   2.153   8.669  0.6619  0.1442 -0.0472
  514MOL0     C67747   6.358   2.058   8.678 -1.0573  0.5551  0.6626
  514MOL0     C67748   6.495   2.086   8.685  0.5315 -0.2258  0.4162
  514MOL0     C67749   6.592   1.987   8.677 -0.9661  0.1265 -0.2442
  514MOL0     C67750   6.565   1.853   8.650  0.6202  0.6910  0.4433
  514MOL0     O67751   6.652   1.751   8.625 -0.7164  0.1777 -0.0294
  514MOL0     C67752   6.786   1.775   8.664 -0.2633  1.0881  0.4300
  514MOL0     C67753   6.859   1.655   8.612 -0.1568  0.1274 -0.6504
  514MOL0     C67754   7.001   1.623   8.681  0.4893  0.6153 -0.7855
  514MOL0     C67755   6.974   1.588   8.830  0.2827 -0.9605  0.9288
  514MOL0     C67756   7.093   1.534   8.905 -0.8693  0.7357  1.1247
  514MOL0     C67757   7.181   1.424   8.830 -0.2712  0.5682  0.4900
  514MOL0     C67758   7.295   1.364   8.913 -0.0264  0.3281  0.5166
  514MOL0     C67759   7.414   1.279   8.842  0.4538 -0.9777 -0.0018
  514MOL0    Cl67760   7.502   1.387   8.734 -0.7640  0.4140 -0.0099
  514MOL0     C67761   6.427   1.823   8.649  0.7229  0.4498 -0.2254
  514MOL0     C67762   6.324   1.922   8.657 -0.5913 -0.5620  0.5817
  514MOL0     O67763   6.358   2.281   8.829 -0.1349  0.3020 -0.5166
  514MOL0     C67764   6.158   2.480   8.812 -0.2254  0.1168 -0.0297
  514MOL0     C67765   6.054   2.567   8.795 -0.1740 -0.3925  0.2909
  514MOL0     N67766   5.243   2.750   8.803 -0.8013 -0.3609  0.4120
  514MOL0     N67767   5.152   2.829   8.749 -0.4131 -0.1024 -0.1110
  514MOL0     C67768   5.145   3.889   9.348 -0.2494  0.7763 -0.0720
  514MOL0     C67769   5.221   3.990   9.394 -0.6034 -1.0279  1.0248
  514MOL0     C67770   5.484   4.351   9.443  0.7278  0.0256 -1.2648
  514MOL0     C67771   5.453   4.446   9.347 -0.9153  0.2086 -0.2346
  514MOL0     C67772   5.490   4.580   9.367 -0.6668 -0.3961  0.0740
  514MOL0     C67773   5.576   4.616   9.469  0.2646 -1.3252 -0.9754
  514MOL0     O67774   5.640   4.735   9.485  0.7768  0.0891 -0.6760
  514MOL0     C67775   5.598   4.852   9.413  0.7145 -0.0931  0.6443
  514MOL0     C67776   5.635   4.963   9.493 -0.9125 -1.4504 -1.3753
  514MOL0     C67777   5.620   5.088   9.406  0.6791 -0.2303  0.3980
  514MOL0     C67778   5.644   5.220   9.486  0.3285  1.5147  0.2030
  514MOL0     C67779   5.601   5.333   9.406 -0.7669  0.3273  0.1321
  514MOL0     C67780   5.573   5.408   9.321  0.0000 -0.1403 -0.0179
  514MOL0     C67781   5.626   4.510   9.548 -0.3074 -0.6174 -0.0134
  514MOL0     C67782   5.570   4.384   9.549  0.0952 -0.4735 -0.1255
  514MOL0     H67783   5.288   4.150   9.104  0.8459 -1.8146 -0.8645
  514MOL0     H67784   5.156   3.949   9.013  0.6068 -1.9163  0.2878
  514MOL0     H67785   5.086   3.671   9.008  0.7236  0.6517 -0.0539
  514MOL0     H67786   4.998   3.815   9.002  2.2569  0.8174  1.7371
  514MOL0     H67787   4.810   3.651   8.980  0.6025 -0.7914 -0.5895
  514MOL0     H67788   4.820   3.674   9.151  1.6878 -0.1628 -0.3123
  514MOL0     H67789   4.803   3.433   9.084 -0.4457  2.3625 -1.2022
  514MOL0     H67790   4.917   3.475   9.210 -0.1320  2.4311  1.5984
  514MOL0     H67791   4.990   3.432   8.911  1.8544  0.6885 -0.0880
  514MOL0     H67792   5.099   3.450   9.053 -1.5437  0.0414  1.9537
  514MOL0     H67793   4.874   3.245   9.027  0.5469  0.1856 -2.9036
  514MOL0     H67794   4.999   3.246   9.145  0.2190 -0.2299  0.0026
  514MOL0     H67795   5.096   3.081   9.001 -0.3702  2.0137  3.1208
  514MOL0     H67796   5.168   3.227   8.935  1.4198 -1.9331 -1.3558
  514MOL0     H67797   4.944   3.053   8.822 -2.2116  1.3886 -0.7218
  514MOL0     H67798   4.961   3.209   8.750  0.6507 -0.0214  1.5709
  514MOL0     H67799   5.192   3.151   8.690 -1.3250  1.7560  0.4248
  514MOL0     H67800   5.063   3.050   8.625 -0.2198  1.7221 -0.8488
  514MOL0     H67801   5.361   3.051   8.859 -0.0549 -1.1750  2.2395
  514MOL0     H67802   5.436   2.763   9.026  0.7639 -1.5962 -0.8306
  514MOL0     H67803   5.541   2.878   8.950 -1.8255  1.9335 -0.5965
  514MOL0     H67804   5.462   2.603   8.845 -0.9609  1.0112  1.1677
  514MOL0     H67805   5.613   2.634   8.936  1.4097  1.0829  0.1926
  514MOL0     H67806   5.510   2.722   8.666  0.5034 -0.5204 -0.7871
  514MOL0     H67807   5.653   2.804   8.735  4.3615 -1.1897  0.3766
  514MOL0     H67808   5.701   2.623   8.564  2.1682 -0.6349 -0.3587
  514MOL0     H67809   5.673   2.509   8.700  2.4510 -0.6617  1.3930
  514MOL0     H67810   5.818   2.369   8.653  1.0990 -0.8595 -2.0579
  514MOL0     H67811   6.016   2.216   8.659 -2.6878  0.4614  0.6120
  514MOL0     H67812   6.528   2.189   8.694 -1.7842  0.9970 -2.9877
  514MOL0     H67813   6.694   2.026   8.675 -0.0972 -1.9490  0.5316
  514MOL0     H67814   6.788   1.772   8.774 -0.9393 -0.2111  0.4309
  514MOL0     H67815   6.831   1.867   8.625  1.0305  0.2155 -0.2194
  514MOL0     H67816   6.883   1.666   8.506  1.1710  0.8353 -0.3016
  514MOL0     H67817   6.790   1.571   8.623  0.3901 -0.3854 -1.0516
  514MOL0     H67818   7.072   1.706   8.671 -0.9498  2.3798  2.0540
  514MOL0     H67819   7.043   1.537   8.629  2.3409  0.3240  1.0347
  514MOL0     H67820   6.933   1.673   8.886 -0.7544 -1.0189  0.2990
  514MOL0     H67821   6.902   1.507   8.842  1.2474 -1.6831  1.9350
  514MOL0     H67822   7.071   1.493   9.004  0.1928  0.9602  1.4636
  514MOL0     H67823   7.153   1.623   8.925  0.7719 -0.2345  0.6609
  514MOL0     H67824   7.231   1.465   8.742  3.0095 -3.5698  0.1447
  514MOL0     H67825   7.112   1.344   8.803 -1.6668  0.3789  4.0100
  514MOL0     H67826   7.347   1.445   8.964 -0.0811  0.5109  0.2816
  514MOL0     H67827   7.228   1.305   8.977 -1.0126  1.5536  0.6583
  514MOL0     H67828   7.375   1.198   8.780 -3.0433  1.6405 -1.5172
  514MOL0     H67829   7.482   1.232   8.913  0.6912 -0.1938  0.2985
  514MOL0     H67830   6.395   1.720   8.634  4.1721 -0.9859  1.2970
  514MOL0     H67831   6.216   1.909   8.664 -0.6510 -1.1669 -1.1035
  514MOL0     H67832   6.247   2.517   8.862  0.5154 -4.2647  2.3499
  514MOL0     H67833   6.062   2.671   8.826 -0.0988 -0.7173  1.3963
  514MOL0     H67834   5.117   3.819   9.425 -1.5325 -0.0799 -1.2613
  514MOL0     H67835   5.239   3.997   9.501  1.3122  2.8656  0.6168
  514MOL0     H67836   5.398   4.414   9.259  0.0587 -2.1075 -0.0628
  514MOL0     H67837   5.478   4.652   9.286  3.4519 -0.0201 -0.4333
  514MOL0     H67838   5.489   4.848   9.409  0.7138 -0.4779  1.0434
  514MOL0     H67839   5.641   4.855   9.312  3.5853  0.2967  1.7677
  514MOL0     H67840   5.580   4.960   9.587  3.3689 -3.0711  1.3921
  514MOL0     H67841   5.739   4.968   9.527 -1.5584 -0.5324  0.5701
  514MOL0     H67842   5.514   5.095   9.376  1.2686  1.1799 -1.5774
  514MOL0     H67843   5.684   5.078   9.317 -3.1688 -0.9016 -2.6046
  514MOL0     H67844   5.593   5.220   9.583  2.6122  0.3076  1.5168
  514MOL0     H67845   5.751   5.221   9.509  0.3739 -1.4687  0.5917
  514MOL0     H67846   5.556   5.476   9.241  0.0437 -0.4397 -0.2824
  514MOL0     H67847   5.687   4.544   9.631 -3.3088 -0.2642  2.2330
  514MOL0     H67848   5.592   4.327   9.638  2.1284 -0.2364 -0.4351
  515MOL0     O67849   6.782   2.761   9.803  0.6943 -0.5868  0.6508
  515MOL0     C67850   6.806   2.881   9.790 -0.4225 -0.3088 -0.6278
  515MOL0     O67851   6.703   2.972   9.777 -0.0643  0.8302  0.7966
  515MOL0     C67852   6.572   2.939   9.777  0.7422 -0.3646  0.9007
  515MOL0     C67853   6.517   2.893   9.651  0.5538  0.8648  0.1071
  515MOL0     C67854   6.379   2.862   9.643 -0.1458 -0.4066 -0.7606
  515MOL0     C67855   6.298   2.883   9.753  1.6045  0.4014  0.4636
  515MOL0     O67856   6.165   2.857   9.730 -0.2097  0.6733  0.2638
  515MOL0     C67857   6.071   2.940   9.797 -0.6355  0.3719  0.4148
  515MOL0     C67858   5.938   2.915   9.717  0.2912  0.2871 -0.2926
  515MOL0     C67859   5.945   2.926   9.564 -0.3225 -1.1185  0.2901
  515MOL0     C67860   5.803   2.950   9.509  0.2468  0.5829 -0.0150
  515MOL0     C67861   5.795   2.906   9.362 -0.5255 -0.2266  0.0866
  515MOL0     C67862   5.661   2.961   9.295 -1.5296 -0.5448 -0.2814
  515MOL0     C67863   5.539   2.912   9.366  0.5393  0.7059  0.2842
  515MOL0     C67864   5.417   2.959   9.291 -0.0171  0.4436 -0.4845
  515MOL0     N67865   5.393   3.106   9.282  0.3673 -0.7287  0.5099
  515MOL0     C67866   5.313   3.166   9.369 -0.8603 -0.6113 -1.3742
  515MOL0     C67867   5.263   3.278   9.316 -0.9826  0.3924 -0.0233
  515MOL0     C67868   5.162   3.383   9.366  0.5971 -0.3053 -0.5081
  515MOL0     C67869   5.212   3.429   9.500  0.5186 -0.3163 -0.3350
  515MOL0     C67870   5.320   3.538   9.510  0.7616  0.1553  0.2146
  515MOL0     C67871   5.284   3.642   9.611 -0.1224 -1.0945 -0.3789
  515MOL0     O67872   5.377   3.751   9.583  0.3052  0.3343  0.3204
  515MOL0     C67873   5.518   3.728   9.591  0.5203 -0.4003  0.2769
  515MOL0     C67874   5.602   3.819   9.525 -0.7010  0.2074 -0.8351
  515MOL0     C67875   5.741   3.807   9.535 -0.4885 -0.0853 -0.8579
  515MOL0     C67876   5.804   3.709   9.612  0.3529 -0.3758 -0.4470
  515MOL0     C67877   5.953   3.686   9.599  0.2498 -0.1118  0.1437
  515MOL0     O67878   6.007   3.568   9.658  0.3844 -0.4713  0.6232
  515MOL0     C67879   6.136   3.570   9.672 -0.3644  0.1003 -0.7396
  515MOL0     C67880   6.202   3.453   9.626 -0.2882  0.2980 -0.0643
  515MOL0     C67881   6.327   3.421   9.665 -0.2588  0.1837  0.0972
  515MOL0     C67882   6.405   3.513   9.742  0.6412 -0.3574 -0.5761
  515MOL0     O67883   6.534   3.500   9.775 -0.9144  0.3720  0.0765
  515MOL0     C67884   6.617   3.402   9.715 -0.4737  0.7048  0.3780
  515MOL0     C67885   6.758   3.466   9.710 -0.3907 -0.2518  0.1126
  515MOL0     C67886   6.863   3.367   9.645 -0.0724 -0.6145  0.2420
  515MOL0     C67887   7.003   3.413   9.635  0.1639 -0.8622 -0.0793
  515MOL0     C67888   7.093   3.311   9.560 -0.1891  0.6064  0.7247
  515MOL0     C67889   7.237   3.376   9.548 -0.2950  1.2051  0.2344
  515MOL0     C67890   7.326   3.267   9.488  0.2028 -0.0132 -0.6135
  515MOL0     C67891   7.467   3.313   9.455 -0.1319 -0.2438 -0.2075
  515MOL0    Cl67892   7.567   3.382   9.584  0.3576 -0.0808  0.2728
  515MOL0     C67893   6.342   3.633   9.786  0.1149 -0.2964 -0.4208
  515MOL0     C67894   6.216   3.662   9.754  0.2507  0.6537  0.1516
  515MOL0     O67895   6.016   3.778   9.554 -0.2674  0.6470 -0.2168
  515MOL0     C67896   5.723   3.630   9.689 -0.0293 -0.1762 -0.8172
  515MOL0     C67897   5.581   3.630   9.677  0.1198  0.2659 -0.1203
  515MOL0     N67898   5.302   3.281   9.184  0.1879 -0.4611  0.3096
  515MOL0     N67899   5.375   3.178   9.160  0.1011 -0.9002 -0.3265
  515MOL0     C67900   6.357   2.908   9.875  0.2248  0.3712  0.5837
  515MOL0     C67901   6.493   2.944   9.888 -0.6277  0.2925 -0.1738
  515MOL0     C67902   6.943   2.927   9.812 -0.1434 -0.3492  0.0439
  515MOL0     C67903   7.050   2.837   9.781  1.1955 -1.1615 -0.3927
  515MOL0     C67904   7.188   2.876   9.802  0.0898  0.3252  0.1905
  515MOL0     C67905   7.218   3.009   9.828 -0.9036  0.5289 -0.1027
  515MOL0     O67906   7.352   3.030   9.835 -0.6705 -0.6966  0.3057
  515MOL0     C67907   7.390   3.166   9.869 -0.2279  1.5602 -0.3564
  515MOL0     C67908   7.545   3.160   9.885 -0.4255 -0.0351 -0.8629
  515MOL0     C67909   7.612   3.089   9.778  0.3021  0.7332  0.3463
  515MOL0     C67910   7.752   3.137   9.755 -0.3021  0.6947  0.4585
  515MOL0     C67911   7.841   3.112   9.869 -0.1818  0.8855 -0.0498
  515MOL0     C67912   7.929   3.094   9.955  0.6604  0.4678 -0.7438
  515MOL0     C67913   7.111   3.102   9.848  0.0351 -0.9202  0.3572
  515MOL0     C67914   6.983   3.058   9.857  0.8043  0.2238  0.0069
  515MOL0     H67915   6.584   2.868   9.570  2.2052 -1.6447  2.0998
  515MOL0     H67916   6.340   2.819   9.552  1.8692 -1.3955 -1.2159
  515MOL0     H67917   6.105   3.044   9.801  0.5231  0.1125 -1.5104
  515MOL0     H67918   6.053   2.899   9.897  1.5380  0.2018  0.7757
  515MOL0     H67919   5.855   2.975   9.755 -1.2997 -2.0356  0.1098
  515MOL0     H67920   5.907   2.814   9.745  0.1362  0.5241  0.3983
  515MOL0     H67921   5.989   2.830   9.533  1.7480  0.4328 -1.9657
  515MOL0     H67922   6.004   3.007   9.522 -0.7278 -1.4035 -0.8728
  515MOL0     H67923   5.743   2.896   9.584  0.5669  2.0471  1.3498
  515MOL0     H67924   5.772   3.055   9.514 -1.4904  0.1407 -0.8258
  515MOL0     H67925   5.806   2.798   9.361 -0.1624 -0.2151  1.2921
  515MOL0     H67926   5.878   2.949   9.304  0.0013 -0.1156  0.8942
  515MOL0     H67927   5.660   2.912   9.197 -0.5098 -1.3227  0.0796
  515MOL0     H67928   5.660   3.070   9.287 -4.2909 -0.6134 -2.6401
  515MOL0     H67929   5.534   2.803   9.374 -0.6378  0.4577 -2.5761
  515MOL0     H67930   5.532   2.947   9.469 -0.9683  0.1132  0.4153
  515MOL0     H67931   5.335   2.901   9.333 -0.9017  0.7934 -1.6629
  515MOL0     H67932   5.413   2.915   9.190 -1.4527 -2.0105  0.5534
  515MOL0     H67933   5.282   3.157   9.473  1.7806  3.4600  0.0363
  515MOL0     H67934   5.068   3.327   9.374  2.8364 -4.1573  2.8848
  515MOL0     H67935   5.158   3.458   9.287  2.7313 -0.1003 -0.4950
  515MOL0     H67936   5.238   3.346   9.567 -3.0182  0.0117  1.7058
  515MOL0     H67937   5.123   3.473   9.545  1.3285  0.0594  0.9859
  515MOL0     H67938   5.410   3.484   9.542  0.9409  0.5587  0.4076
  515MOL0     H67939   5.333   3.582   9.411  1.3230  1.5418  0.8692
  515MOL0     H67940   5.286   3.588   9.706  0.3670 -2.0074 -0.8944
  515MOL0     H67941   5.183   3.683   9.596 -0.1255 -0.5525  1.0197
  515MOL0     H67942   5.557   3.898   9.466 -3.1197 -0.8868 -0.5911
  515MOL0     H67943   5.803   3.889   9.501 -0.5612  0.1270 -0.4866
  515MOL0     H67944   6.154   3.375   9.566 -0.5789  0.3120  0.1469
  515MOL0     H67945   6.354   3.319   9.638  1.4023  0.6996 -0.2958
  515MOL0     H67946   6.584   3.367   9.617  1.7684 -2.0572  0.4981
  515MOL0     H67947   6.624   3.311   9.775 -1.4753 -1.3460 -2.3907
  515MOL0     H67948   6.807   3.490   9.804  0.7139  1.8244 -0.9211
  515MOL0     H67949   6.749   3.563   9.660 -3.4641  0.5335  1.9040
  515MOL0     H67950   6.832   3.355   9.541  1.2000  2.7420 -0.6629
  515MOL0     H67951   6.858   3.271   9.697 -0.6611  0.4749  2.3092
  515MOL0     H67952   6.996   3.504   9.575 -3.4534 -1.1653 -0.3599
  515MOL0     H67953   7.037   3.440   9.736 -2.4199  1.0541  0.3930
  515MOL0     H67954   7.061   3.289   9.458  3.4062 -0.0169 -0.4245
  515MOL0     H67955   7.091   3.212   9.606 -0.8415 -0.4673 -1.4572
  515MOL0     H67956   7.261   3.402   9.652  1.7046  1.7025 -0.3169
  515MOL0     H67957   7.234   3.464   9.483  0.1996  0.2001 -1.1981
  515MOL0     H67958   7.323   3.182   9.557 -3.0536  0.6662  0.2435
  515MOL0     H67959   7.270   3.237   9.399  1.0249  1.0042 -1.5019
  515MOL0     H67960   7.457   3.385   9.374 -0.6903 -1.0675 -0.8914
  515MOL0     H67961   7.529   3.233   9.413 -1.3525 -2.9825  2.7816
  515MOL0     H67962   6.394   3.690   9.862 -1.5465  1.0598 -0.2234
  515MOL0     H67963   6.180   3.758   9.792  0.3960  1.3220 -1.3142
  515MOL0     H67964   5.770   3.569   9.766  2.2803  2.2151 -0.1708
  515MOL0     H67965   5.528   3.556   9.734 -2.1896  2.1097  0.2941
  515MOL0     H67966   6.290   2.922   9.959 -1.5678 -0.3095 -0.6810
  515MOL0     H67967   6.524   2.978   9.987 -2.0339 -2.6612  1.4255
  515MOL0     H67968   7.029   2.736   9.746  2.2308 -0.6893 -2.5631
  515MOL0     H67969   7.262   2.805   9.768 -0.0577  1.0900 -1.8475
  515MOL0     H67970   7.350   3.194   9.967 -0.6924  1.0823 -0.4044
  515MOL0     H67971   7.373   3.233   9.784  0.6729  1.7418 -0.4044
  515MOL0     H67972   7.587   3.260   9.898 -0.0549 -0.4289  1.4884
  515MOL0     H67973   7.570   3.114   9.981 -1.0112 -0.2594 -0.8115
  515MOL0     H67974   7.563   3.114   9.683  2.3660  2.9195 -0.2519
  515MOL0     H67975   7.621   2.982   9.796 -1.4281  1.0898  4.4132
  515MOL0     H67976   7.777   3.072   9.671  0.9711 -2.2253  2.8879
  515MOL0     H67977   7.760   3.242   9.724 -0.1622  0.2610 -1.0063
  515MOL0     H67978   8.011   3.083  10.023 -0.7624 -2.7764  0.6980
  515MOL0     H67979   7.126   3.209   9.853 -0.6801 -0.7636 -0.4930
  515MOL0     H67980   6.905   3.129   9.882  2.0341  1.2945  0.9483
  516MOL0     O67981  10.045   6.986   1.839  0.3102  0.5657 -0.2174
  516MOL0     C67982  10.032   6.987   1.716 -0.9438 -0.0343 -0.5362
  516MOL0     O67983   9.933   6.935   1.649  0.3218  0.1044 -0.9926
  516MOL0     C67984   9.846   6.862   1.725  0.5483  0.3370 -0.4265
  516MOL0     C67985   9.825   6.727   1.689 -0.1470 -0.3543  0.7746
  516MOL0     C67986   9.737   6.650   1.764  0.8577  0.1258  0.9089
  516MOL0     C67987   9.650   6.707   1.854 -0.5331  0.4713 -0.3790
  516MOL0     O67988   9.566   6.637   1.936 -0.8897  0.1822 -0.1868
  516MOL0     C67989   9.510   6.518   1.878 -0.0705  0.3568  0.1692
  516MOL0     C67990   9.408   6.467   1.978  0.4384  0.5046 -0.7567
  516MOL0     C67991   9.369   6.320   1.970  0.3289  0.3510  0.3536
  516MOL0     C67992   9.298   6.279   2.103 -0.3718 -1.4180 -0.5668
  516MOL0     C67993   9.211   6.155   2.098 -0.2049 -0.9091  0.6299
  516MOL0     C67994   9.114   6.142   2.220 -0.2817 -0.5589 -0.0645
  516MOL0     C67995   9.003   6.243   2.246  0.5732  0.2355  0.0226
  516MOL0     C67996   8.913   6.199   2.359 -0.3610  0.1400 -0.0510
  516MOL0     N67997   8.821   6.088   2.322 -0.0924 -0.0046  0.5702
  516MOL0     C67998   8.704   6.110   2.255  0.6205  0.4912  0.5797
  516MOL0     C67999   8.670   5.995   2.197  0.2125  0.1813  0.3435
  516MOL0     C68000   8.590   5.990   2.071  0.2099 -0.9374  1.0141
  516MOL0     C68001   8.681   6.044   1.939 -0.7812  0.2634 -0.8839
  516MOL0     C68002   8.807   5.954   1.905 -0.9604  0.1629  0.1565
  516MOL0     C68003   8.849   5.991   1.760 -0.2099  0.2561  0.3881
  516MOL0     O68004   8.882   6.129   1.752  0.0369 -0.1218  0.1836
  516MOL0     C68005   9.000   6.170   1.701  0.8608  0.7673 -0.3695
  516MOL0     C68006   9.116   6.100   1.723  0.7213  0.1868 -0.0413
  516MOL0     C68007   9.242   6.145   1.682 -0.1902  0.5458 -0.2207
  516MOL0     C68008   9.261   6.276   1.628 -0.8432 -0.5580 -0.7080
  516MOL0     C68009   9.393   6.337   1.585 -0.1185  0.8570  0.1015
  516MOL0     O68010   9.502   6.260   1.631 -0.3478 -0.1784 -0.2557
  516MOL0     C68011   9.624   6.282   1.586 -0.4169 -0.7117 -0.0070
  516MOL0     C68012   9.723   6.242   1.679  0.6728 -0.5788  0.7662
  516MOL0     C68013   9.856   6.259   1.646  0.2558  0.4991 -0.1161
  516MOL0     C68014   9.898   6.326   1.532 -0.7432  0.4723  0.2608
  516MOL0     O68015  10.028   6.338   1.508 -0.3762 -0.8211  0.0791
  516MOL0     C68016  10.102   6.220   1.464  0.0552 -0.2973 -0.5537
  516MOL0     C68017  10.250   6.260   1.467 -0.9330  0.4185 -0.4578
  516MOL0     C68018  10.328   6.184   1.588  0.8585  0.8507  1.3466
  516MOL0     C68019  10.477   6.233   1.604  1.0403  0.1134 -1.0948
  516MOL0     C68020  10.546   6.144   1.698 -0.3181  0.1515 -0.6276
  516MOL0     C68021  10.670   6.204   1.762  0.5072  0.4254  0.1630
  516MOL0     C68022  10.743   6.306   1.689  0.7787  0.1521  0.8873
  516MOL0     C68023  10.883   6.340   1.751  0.6323  0.9876 -0.2104
  516MOL0    Cl68024  10.972   6.455   1.643  0.3809  0.4144 -0.1969
  516MOL0     C68025   9.801   6.373   1.441 -0.3329  0.1382 -0.1339
  516MOL0     C68026   9.666   6.358   1.471 -0.4558  0.8953  0.7178
  516MOL0     O68027   9.394   6.440   1.522 -0.4102  0.1179  0.6158
  516MOL0     C68028   9.146   6.344   1.598 -0.0992  0.5116 -0.5736
  516MOL0     C68029   9.018   6.289   1.632  0.2106 -0.8799  0.3296
  516MOL0     N68030   8.754   5.901   2.245 -1.0598  1.0344 -0.6468
  516MOL0     N68031   8.846   5.956   2.331 -0.2030  0.5000 -0.1369
  516MOL0     C68032   9.661   6.839   1.883 -0.4785  0.2855  0.2995
  516MOL0     C68033   9.762   6.917   1.818 -0.8822  0.2926 -0.0793
  516MOL0     C68034  10.146   7.037   1.634  1.2470  0.9710 -0.1481
  516MOL0     C68035  10.143   7.027   1.490 -0.3025  0.4004  0.1645
  516MOL0     C68036  10.252   7.089   1.425  0.1666  0.2942  0.2030
  516MOL0     C68037  10.356   7.160   1.485  0.3212 -0.1429  0.0620
  516MOL0     O68038  10.449   7.231   1.420  0.4164  0.0977  0.6007
  516MOL0     C68039  10.413   7.314   1.304  0.8703  0.0175 -0.5517
  516MOL0     C68040  10.473   7.250   1.168 -0.4248 -0.0099  0.4031
  516MOL0     C68041  10.624   7.220   1.181  0.1191  0.0443 -0.2362
  516MOL0     C68042  10.700   7.179   1.052  0.0993 -0.1862 -0.3400
  516MOL0     C68043  10.848   7.175   1.068 -0.1581  0.7230 -0.2898
  516MOL0     C68044  10.965   7.188   1.088  0.1774  0.0532  0.9984
  516MOL0     C68045  10.350   7.170   1.625 -0.5812  0.1387  0.3667
  516MOL0     C68046  10.252   7.102   1.696 -0.3882 -0.9911  0.4453
  516MOL0     H68047   9.887   6.676   1.616 -0.2521  2.4912 -1.4647
  516MOL0     H68048   9.747   6.547   1.732  1.0051  0.5913 -0.6614
  516MOL0     H68049   9.580   6.438   1.853  0.6163  0.5829  1.2733
  516MOL0     H68050   9.463   6.541   1.782 -2.0039  2.3435  1.4774
  516MOL0     H68051   9.317   6.528   1.974 -1.3726 -1.9087  0.4617
  516MOL0     H68052   9.457   6.478   2.075  0.6224 -1.5042 -0.5789
  516MOL0     H68053   9.461   6.261   1.962 -1.1751 -1.9927 -0.5151
  516MOL0     H68054   9.312   6.295   1.880  2.5657  3.1825 -2.0673
  516MOL0     H68055   9.377   6.271   2.179 -0.7911  0.0279  0.0534
  516MOL0     H68056   9.241   6.364   2.142 -0.4358 -1.2136 -1.0953
  516MOL0     H68057   9.266   6.061   2.089 -2.2023 -2.2748  1.8659
  516MOL0     H68058   9.150   6.162   2.008 -1.6256 -0.9796  1.5616
  516MOL0     H68059   9.180   6.145   2.308 -0.0946 -1.9881 -0.1216
  516MOL0     H68060   9.065   6.044   2.212 -1.7232 -0.2855  3.4009
  516MOL0     H68061   9.051   6.337   2.276 -1.9924  1.6572 -0.0145
  516MOL0     H68062   8.952   6.271   2.154  2.1976 -0.6584 -1.1876
  516MOL0     H68063   8.860   6.282   2.406 -1.0825 -0.5641  0.4293
  516MOL0     H68064   8.984   6.159   2.433  0.6437  3.1242  0.7134
  516MOL0     H68065   8.664   6.208   2.231  0.7457  0.3260 -0.3334
  516MOL0     H68066   8.501   6.053   2.066  1.1769  0.4387 -2.8691
  516MOL0     H68067   8.554   5.888   2.059  0.4145 -0.9855  0.7751
  516MOL0     H68068   8.699   6.150   1.958  2.0119 -0.3170  0.2254
  516MOL0     H68069   8.616   6.041   1.851  0.5303  3.1348 -2.0667
  516MOL0     H68070   8.892   5.983   1.967 -1.0022  0.5306  0.0401
  516MOL0     H68071   8.789   5.847   1.917  0.6543 -0.1076  0.3810
  516MOL0     H68072   8.759   5.988   1.698  1.6656 -1.5442 -2.4909
  516MOL0     H68073   8.924   5.917   1.728 -2.4456 -1.4067 -1.3800
  516MOL0     H68074   9.108   6.013   1.788  1.3675  0.8571  0.9639
  516MOL0     H68075   9.327   6.089   1.722  0.8223  0.0373 -2.8867
  516MOL0     H68076   9.694   6.194   1.772 -0.2114 -0.1865  0.7078
  516MOL0     H68077   9.935   6.215   1.707  1.1843  0.8783 -1.0043
  516MOL0     H68078  10.076   6.200   1.360 -0.1989  2.4174 -1.0828
  516MOL0     H68079  10.086   6.132   1.526 -1.5251 -1.2754 -2.2334
  516MOL0     H68080  10.258   6.369   1.465 -0.7814  0.4063 -0.4898
  516MOL0     H68081  10.297   6.226   1.375  0.0677 -0.1290  0.2361
  516MOL0     H68082  10.326   6.078   1.559 -0.6913  1.4198 -0.8309
  516MOL0     H68083  10.266   6.201   1.677  0.1937  0.9132  0.8758
  516MOL0     H68084  10.534   6.244   1.511 -0.2282 -2.4058 -2.2599
  516MOL0     H68085  10.473   6.330   1.653  2.6583 -0.4980  0.3662
  516MOL0     H68086  10.578   6.049   1.654 -1.4072 -1.9868  2.8133
  516MOL0     H68087  10.481   6.109   1.778  2.7906 -3.5584  0.5904
  516MOL0     H68088  10.742   6.122   1.775  0.1421  0.1142  0.2507
  516MOL0     H68089  10.643   6.252   1.856  0.3691 -2.1271  1.5322
  516MOL0     H68090  10.755   6.268   1.587  1.7562  1.4749  0.4657
  516MOL0     H68091  10.684   6.398   1.696  1.6178  0.6859  1.1730
  516MOL0     H68092  10.937   6.245   1.750  0.3259  0.8091 -0.0270
  516MOL0     H68093  10.877   6.383   1.851  1.5084  1.0499 -0.1739
  516MOL0     H68094   9.844   6.419   1.352  0.5177 -1.5992 -0.6799
  516MOL0     H68095   9.587   6.375   1.398 -0.3197 -1.9721 -0.2522
  516MOL0     H68096   9.155   6.440   1.548 -0.0819  1.1862  0.7019
  516MOL0     H68097   8.931   6.339   1.589  1.3124 -1.5715 -2.9770
  516MOL0     H68098   9.596   6.878   1.961 -0.4823  0.5154  0.1807
  516MOL0     H68099   9.763   7.021   1.850 -2.5076 -0.7575  4.1252
  516MOL0     H68100  10.067   6.983   1.428  0.7897  2.1187 -2.5640
  516MOL0     H68101  10.254   7.099   1.317 -2.2954 -0.1806  0.0505
  516MOL0     H68102  10.458   7.414   1.311 -0.3745  0.4553  2.3345
  516MOL0     H68103  10.306   7.335   1.306  0.3696 -2.2868 -0.6331
  516MOL0     H68104  10.406   7.167   1.145  0.4348 -0.3723 -0.8607
  516MOL0     H68105  10.455   7.312   1.080  0.8357  0.8462  0.7251
  516MOL0     H68106  10.637   7.143   1.258  1.3257  0.1777 -0.2880
  516MOL0     H68107  10.676   7.311   1.212 -0.3800  0.5166 -0.7646
  516MOL0     H68108  10.659   7.086   1.010 -0.7210  0.2824 -0.6019
  516MOL0     H68109  10.685   7.258   0.978 -0.8578 -0.4082 -0.4063
  516MOL0     H68110  11.069   7.206   1.108  0.1111  1.1604  0.4229
  516MOL0     H68111  10.424   7.229   1.679 -1.5157  0.7098  1.0465
  516MOL0     H68112  10.280   7.088   1.799 -0.3869 -0.9884  0.4453
  517MOL0     O68113   8.419   8.056   5.987 -0.5845  1.2255 -0.6599
  517MOL0     C68114   8.436   7.935   6.011 -0.1372  0.8009  0.9337
  517MOL0     O68115   8.339   7.850   6.039  0.3587  0.3375 -0.5541
  517MOL0     C68116   8.222   7.906   6.082 -0.7228  0.1541  0.2588
  517MOL0     C68117   8.200   7.934   6.220 -0.4098 -0.0781  1.0811
  517MOL0     C68118   8.078   7.987   6.269 -0.8537  0.0551  0.5300
  517MOL0     C68119   7.976   8.012   6.182 -0.1283 -1.0356  0.6500
  517MOL0     O68120   7.870   8.087   6.224 -0.2537 -0.2072 -0.4801
  517MOL0     C68121   7.879   8.205   6.311 -0.1241 -0.3776 -0.1208
  517MOL0     C68122   7.749   8.273   6.349 -0.1859  0.2875 -1.0331
  517MOL0     C68123   7.768   8.372   6.467 -0.2642  0.5570  0.1619
  517MOL0     C68124   7.638   8.451   6.492 -0.3588 -0.1663 -0.5242
  517MOL0     C68125   7.661   8.530   6.624  0.5876  0.6109  0.8253
  517MOL0     C68126   7.537   8.624   6.638  0.4183 -0.0471 -0.9197
  517MOL0     C68127   7.569   8.779   6.627 -0.2409  0.2612 -0.2818
  517MOL0     C68128   7.475   8.876   6.705  0.1667 -0.1078 -0.3596
  517MOL0     N68129   7.348   8.894   6.635 -0.8087  0.6131 -0.0928
  517MOL0     C68130   7.239   8.809   6.649  0.8009 -1.0836 -0.5502
  517MOL0     C68131   7.131   8.880   6.612  0.6450  0.3878  0.3582
  517MOL0     C68132   6.991   8.832   6.609 -0.2887  0.2351 -0.0832
  517MOL0     C68133   6.872   8.930   6.625  0.6776  0.3891  0.0908
  517MOL0     C68134   6.791   8.953   6.489 -0.4707 -0.2976 -0.4388
  517MOL0     C68135   6.712   8.831   6.450 -0.7677 -0.3811 -1.3564
  517MOL0     O68136   6.611   8.887   6.370  0.0905 -0.2967 -0.9666
  517MOL0     C68137   6.547   8.808   6.283 -0.8720 -0.4869  0.7676
  517MOL0     C68138   6.536   8.667   6.268 -0.4289  0.1419  0.0661
  517MOL0     C68139   6.448   8.603   6.177  0.0054  0.3014  0.5051
  517MOL0     C68140   6.367   8.680   6.095  0.5171  0.1068  0.1840
  517MOL0     C68141   6.251   8.622   6.018  0.1656 -0.1763  0.3685
  517MOL0     O68142   6.152   8.710   5.989  0.5277  0.2398  0.7676
  517MOL0     C68143   6.036   8.664   5.935 -0.0599 -0.2749 -0.3890
  517MOL0     C68144   6.014   8.627   5.802 -0.2135  0.2480 -0.0250
  517MOL0     C68145   5.889   8.572   5.768 -1.0565  0.5520 -1.0399
  517MOL0     C68146   5.789   8.555   5.865 -0.1114 -0.4893  1.0900
  517MOL0     O68147   5.665   8.514   5.835  0.1228 -1.0255 -0.1965
  517MOL0     C68148   5.636   8.434   5.719 -0.1136 -0.3514 -0.3153
  517MOL0     C68149   5.488   8.420   5.697 -0.8059 -0.6860 -1.0851
  517MOL0     C68150   5.409   8.382   5.819 -0.3824 -0.5048 -0.0452
  517MOL0     C68151   5.283   8.314   5.773  0.2530  0.5910  0.6250
  517MOL0     C68152   5.173   8.308   5.881  0.7633 -0.4852  0.4895
  517MOL0     C68153   5.212   8.207   5.992  0.7248 -0.2991 -0.2078
  517MOL0     C68154   5.098   8.173   6.093  1.0205 -0.8333 -0.2118
  517MOL0     C68155   5.115   8.056   6.183  0.2573  0.0308 -0.2049
  517MOL0    Cl68156   4.968   8.020   6.274 -0.0490 -0.4144  0.2477
  517MOL0     C68157   5.813   8.612   5.989  0.6720  0.2876 -0.4087
  517MOL0     C68158   5.934   8.661   6.023 -0.5891 -0.0120  0.9005
  517MOL0     O68159   6.246   8.500   5.995  0.4051 -0.5195  0.1309
  517MOL0     C68160   6.380   8.824   6.109 -0.4243 -0.2577  0.4426
  517MOL0     C68161   6.468   8.884   6.197  0.0719 -0.5117  0.8257
  517MOL0     N68162   7.176   8.992   6.556 -0.1453  0.2362  0.5585
  517MOL0     N68163   7.301   9.013   6.593  0.5879 -0.5575 -0.1519
  517MOL0     C68164   7.992   7.987   6.048  0.4174  0.1146 -0.1829
  517MOL0     C68165   8.109   7.926   5.992  0.3354 -0.2455 -0.2924
  517MOL0     C68166   8.576   7.890   6.009  1.3043 -0.5352  0.3784
  517MOL0     C68167   8.668   7.962   5.930  0.4225  0.2582 -0.4114
  517MOL0     C68168   8.800   7.921   5.911  0.2701  1.4666  0.1173
  517MOL0     C68169   8.845   7.799   5.954 -0.7913  0.5733  0.0052
  517MOL0     O68170   8.963   7.750   5.910 -0.1020 -0.0269  0.0145
  517MOL0     C68171   9.021   7.780   5.784  0.0575  0.0092  0.2860
  517MOL0     C68172   9.156   7.694   5.767 -0.2567  0.8210 -0.2821
  517MOL0     C68173   9.237   7.721   5.638  0.4630  0.0041 -0.2306
  517MOL0     C68174   9.169   7.653   5.519 -0.5149  0.2175 -0.9701
  517MOL0     C68175   9.259   7.666   5.406  0.9519 -0.8317 -0.1647
  517MOL0     C68176   9.340   7.663   5.311 -0.1829  0.9017 -0.5609
  517MOL0     C68177   8.755   7.732   6.041  0.1558 -0.7087  0.4515
  517MOL0     C68178   8.627   7.779   6.071 -0.5416  0.5126 -0.7881
  517MOL0     H68179   8.266   7.898   6.299 -0.6937  4.3713  3.6765
  517MOL0     H68180   8.075   8.029   6.370  1.8713 -0.3296  0.8696
  517MOL0     H68181   7.948   8.279   6.271  0.1513 -1.3374 -1.5053
  517MOL0     H68182   7.927   8.178   6.405  0.4186  0.5446 -0.1257
  517MOL0     H68183   7.679   8.201   6.391  1.3818 -0.7436 -0.0956
  517MOL0     H68184   7.709   8.332   6.265  0.6924  0.9346 -1.0128
  517MOL0     H68185   7.853   8.431   6.434  2.3784 -1.3264  3.0456
  517MOL0     H68186   7.805   8.322   6.557 -2.0984 -1.6200 -0.1987
  517MOL0     H68187   7.620   8.531   6.420  1.4392  2.4777  1.7561
  517MOL0     H68188   7.556   8.379   6.500 -0.1970 -0.6409 -2.4694
  517MOL0     H68189   7.756   8.580   6.643  0.3475  2.2541 -1.8061
  517MOL0     H68190   7.651   8.455   6.703 -1.2094 -1.3466 -1.1037
  517MOL0     H68191   7.504   8.614   6.741  3.0874  0.6187  0.0846
  517MOL0     H68192   7.452   8.592   6.576 -2.0461  0.6193  1.9226
  517MOL0     H68193   7.664   8.779   6.682  1.0096  0.1871 -2.3465
  517MOL0     H68194   7.592   8.811   6.525  1.9192  2.2436  0.7511
  517MOL0     H68195   7.530   8.971   6.706  0.9300 -0.5525  0.0341
  517MOL0     H68196   7.451   8.845   6.808 -4.2292  0.0991 -1.1188
  517MOL0     H68197   7.245   8.711   6.695 -1.2629 -1.1199 -0.2644
  517MOL0     H68198   6.973   8.742   6.669  0.1074 -1.6175 -2.5808
  517MOL0     H68199   6.974   8.797   6.507  0.2634 -3.2897  0.8954
  517MOL0     H68200   6.906   9.028   6.662 -3.9771  2.1363  0.3811
  517MOL0     H68201   6.788   8.905   6.689 -1.0865  1.8758 -1.5354
  517MOL0     H68202   6.720   9.032   6.515 -1.5285 -1.3275 -0.1386
  517MOL0     H68203   6.860   8.995   6.415  1.0751  1.8661  2.0656
  517MOL0     H68204   6.672   8.776   6.536 -0.6637  1.3645 -0.1358
  517MOL0     H68205   6.774   8.759   6.395  0.3388 -2.1867  1.9852
  517MOL0     H68206   6.600   8.607   6.332  1.8510  0.7612 -1.4874
  517MOL0     H68207   6.436   8.496   6.174 -1.1965  0.4099 -2.9920
  517MOL0     H68208   6.095   8.625   5.730 -1.1553 -3.5742 -1.2183
  517MOL0     H68209   5.886   8.552   5.661  1.9690  0.4879 -1.2015
  517MOL0     H68210   5.685   8.339   5.744  1.2381 -0.2108 -2.1921
  517MOL0     H68211   5.682   8.482   5.632  1.6732 -0.3998  0.5509
  517MOL0     H68212   5.501   8.340   5.623 -0.6282 -1.3676 -0.3335
  517MOL0     H68213   5.449   8.508   5.647  0.6856  1.0988  0.7402
  517MOL0     H68214   5.383   8.468   5.881  2.2345  0.2021  0.2024
  517MOL0     H68215   5.471   8.317   5.880  0.6481  0.7491  0.3018
  517MOL0     H68216   5.246   8.369   5.686 -0.2952 -0.3417  0.2580
  517MOL0     H68217   5.306   8.211   5.746 -0.2045  0.3694  1.0526
  517MOL0     H68218   5.089   8.259   5.830  1.0112  2.2927 -2.9909
  517MOL0     H68219   5.138   8.406   5.914 -0.6434 -1.1131  0.9481
  517MOL0     H68220   5.295   8.255   6.044  1.1051  0.3127 -1.3527
  517MOL0     H68221   5.238   8.113   5.942  0.3752  0.3368 -1.6534
  517MOL0     H68222   5.091   8.257   6.163 -1.0735 -1.4302  0.3994
  517MOL0     H68223   5.004   8.165   6.037  0.6415  0.7442  0.1625
  517MOL0     H68224   5.192   8.079   6.257 -0.8987  3.0609  0.1875
  517MOL0     H68225   5.139   7.962   6.132 -3.6504 -0.9555 -0.5573
  517MOL0     H68226   5.736   8.601   6.065 -1.4463 -0.1595 -2.5238
  517MOL0     H68227   5.945   8.684   6.129 -2.7003  2.3907  0.6772
  517MOL0     H68228   6.311   8.881   6.047 -0.4359 -1.1097 -0.3506
  517MOL0     H68229   6.474   8.991   6.216  2.8819 -1.0701  4.1451
  517MOL0     H68230   7.922   8.023   5.974  2.3483  2.1977 -1.1053
  517MOL0     H68231   8.128   7.932   5.885 -1.2475 -0.9763 -0.6377
  517MOL0     H68232   8.642   8.058   5.886  0.7601  0.0243 -1.1267
  517MOL0     H68233   8.873   7.973   5.849 -0.2532  0.9424 -0.9789
  517MOL0     H68234   9.052   7.884   5.770 -2.1795  0.4547 -1.8857
  517MOL0     H68235   8.942   7.755   5.713  0.7149  0.1214 -0.4983
  517MOL0     H68236   9.225   7.708   5.851 -2.1144  3.0504  0.9701
  517MOL0     H68237   9.139   7.587   5.785 -0.0741  0.6920 -0.8381
  517MOL0     H68238   9.337   7.681   5.655  0.0382  0.0906  2.8872
  517MOL0     H68239   9.261   7.827   5.622  0.3298 -0.2999 -3.0917
  517MOL0     H68240   9.159   7.546   5.540  0.8633  0.0792 -0.9177
  517MOL0     H68241   9.074   7.706   5.511  0.3616  2.1336  0.6416
  517MOL0     H68242   9.411   7.648   5.232 -0.3842  0.2404 -0.6164
  517MOL0     H68243   8.790   7.639   6.083 -1.3673 -0.8311  1.5107
  517MOL0     H68244   8.574   7.727   6.151  0.7893 -2.6562 -1.8207
  518MOL0     O68245  10.366   1.588   2.606  0.1080  0.1128 -0.1295
  518MOL0     C68246  10.473   1.645   2.594 -0.0582 -0.5174 -0.5942
  518MOL0     O68247  10.497   1.779   2.625  0.7241  0.0007  0.4323
  518MOL0     C68248  10.396   1.867   2.666 -0.3831  0.5402  0.1287
  518MOL0     C68249  10.276   1.833   2.738  0.2309  0.0354  0.3376
  518MOL0     C68250  10.183   1.932   2.766  0.3175 -0.5590  0.6708
  518MOL0     C68251  10.210   2.067   2.743  0.0859 -0.3138  0.1133
  518MOL0     O68252  10.116   2.162   2.773 -0.1817 -0.3714 -0.3601
  518MOL0     C68253  10.142   2.296   2.751  0.4371  0.1507  0.2642
  518MOL0     C68254  10.004   2.367   2.775 -0.4004  0.4584  0.3814
  518MOL0     C68255   9.893   2.335   2.673 -0.7144 -0.2538 -0.0145
  518MOL0     C68256   9.764   2.374   2.735  0.1186  0.7282  0.7167
  518MOL0     C68257   9.636   2.325   2.663 -0.0333  0.0173 -0.3397
  518MOL0     C68258   9.624   2.395   2.523 -0.8168  0.0660 -0.8810
  518MOL0     C68259   9.497   2.352   2.439 -0.7128 -0.0096  0.1029
  518MOL0     C68260   9.539   2.280   2.310 -0.2406 -0.4377 -0.2413
  518MOL0     N68261   9.432   2.237   2.216  0.0004  0.1122  0.3141
  518MOL0     C68262   9.295   2.263   2.230 -0.0908  1.3372 -0.1150
  518MOL0     C68263   9.239   2.203   2.118  0.2429  0.2654 -0.2556
  518MOL0     C68264   9.095   2.228   2.087  0.2717 -0.6202  0.3993
  518MOL0     C68265   9.040   2.140   1.965  0.2142 -0.3970 -0.2411
  518MOL0     C68266   8.926   2.215   1.887 -0.2375  0.2781 -0.4145
  518MOL0     C68267   8.882   2.147   1.755  0.2396 -1.1676 -0.2352
  518MOL0     O68268   8.822   2.014   1.784 -0.8017 -0.0592 -0.0374
  518MOL0     C68269   8.904   1.900   1.774  0.4711 -0.2526  0.6649
  518MOL0     C68270   9.048   1.894   1.758 -1.4680 -0.4787  0.2263
  518MOL0     C68271   9.122   1.780   1.745 -0.7582 -0.2636  0.3925
  518MOL0     C68272   9.057   1.658   1.755 -0.3188  0.2487  0.7232
  518MOL0     C68273   9.116   1.525   1.741  0.0786 -0.0155 -0.4298
  518MOL0     O68274   9.246   1.527   1.692  0.3218 -0.3501  0.5187
  518MOL0     C68275   9.332   1.430   1.716  0.1288  0.7415  0.2282
  518MOL0     C68276   9.306   1.292   1.683  0.3789  0.6055  0.2349
  518MOL0     C68277   9.411   1.203   1.708 -0.5571  0.4654  1.0240
  518MOL0     C68278   9.537   1.244   1.745  0.0032  0.4965 -0.2395
  518MOL0     O68279   9.635   1.152   1.766  0.1187 -0.6254 -0.4656
  518MOL0     C68280   9.723   1.136   1.652 -0.5139  0.8594  0.7802
  518MOL0     C68281   9.859   1.085   1.695 -0.6078 -0.8102 -0.4199
  518MOL0     C68282   9.951   1.060   1.571 -0.2779 -0.4540 -0.0378
  518MOL0     C68283  10.095   1.041   1.597 -0.2420  0.8388 -0.3484
  518MOL0     C68284  10.141   0.924   1.697 -0.1259 -0.3320 -0.0403
  518MOL0     C68285  10.299   0.936   1.717 -0.2186  0.0175 -0.0880
  518MOL0     C68286  10.350   0.821   1.804  0.1510 -0.5314  0.6460
  518MOL0     C68287  10.501   0.816   1.801 -0.3872 -0.6328  0.0492
  518MOL0    Cl68288  10.579   0.980   1.837  0.1635  0.0955  0.0035
  518MOL0     C68289   9.554   1.381   1.772 -0.1419 -0.5888 -0.2582
  518MOL0     C68290   9.459   1.475   1.752 -1.1444 -0.2181 -1.0995
  518MOL0     O68291   9.060   1.424   1.779 -0.3353 -0.7725  0.2666
  518MOL0     C68292   8.916   1.659   1.777  0.2714  0.0919  0.5832
  518MOL0     C68293   8.836   1.777   1.779 -0.0663 -0.0753 -0.1536
  518MOL0     N68294   9.343   2.144   2.047  0.4277 -0.5615 -0.4562
  518MOL0     N68295   9.454   2.163   2.097  0.0969  0.4557  0.0496
  518MOL0     C68296  10.334   2.096   2.686  0.0868 -0.3336 -0.5549
  518MOL0     C68297  10.420   2.001   2.640 -0.8477 -0.2636 -0.1451
  518MOL0     C68298  10.590   1.562   2.549  0.6337  0.0413 -0.5961
  518MOL0     C68299  10.565   1.434   2.496 -0.2266 -0.9801 -0.1932
  518MOL0     C68300  10.674   1.361   2.458  0.2587  0.5125 -0.4761
  518MOL0     C68301  10.806   1.405   2.466  0.6056  0.1456 -0.0893
  518MOL0     O68302  10.906   1.308   2.441  0.2062 -0.0361  0.4679
  518MOL0     C68303  11.044   1.349   2.452  0.3281  0.4835  0.3071
  518MOL0     C68304  11.126   1.231   2.419 -1.2462 -1.0314  0.1253
  518MOL0     C68305  11.061   1.140   2.304 -0.0942 -0.2993 -0.0945
  518MOL0     C68306  11.155   1.053   2.230  0.4666  0.5966  0.3516
  518MOL0     C68307  11.247   1.125   2.138 -0.3513  0.6360 -0.4351
  518MOL0     C68308  11.329   1.196   2.088 -0.6176  0.5006  0.1151
  518MOL0     C68309  10.822   1.537   2.508 -0.3870  1.2616 -0.2092
  518MOL0     C68310  10.715   1.612   2.552 -0.1425  0.2546  0.8275
  518MOL0     H68311  10.243   1.732   2.762 -2.6934  1.6399  4.3232
  518MOL0     H68312  10.082   1.913   2.801  1.8651 -0.7316  5.7641
  518MOL0     H68313  10.168   2.325   2.649 -2.2553  2.2767  0.0597
  518MOL0     H68314  10.208   2.333   2.830 -0.5590 -0.0882  1.2312
  518MOL0     H68315  10.024   2.472   2.801 -2.4303  0.2047  3.4529
  518MOL0     H68316   9.964   2.323   2.866 -0.2718  0.5905  0.5017
  518MOL0     H68317   9.896   2.227   2.652  1.0130  0.4094 -4.0693
  518MOL0     H68318   9.919   2.381   2.577  0.0942  2.2841  1.3475
  518MOL0     H68319   9.763   2.350   2.842  1.9504  0.3212  0.6882
  518MOL0     H68320   9.768   2.483   2.726  0.5622  0.6557 -0.0572
  518MOL0     H68321   9.553   2.353   2.728  0.5793  0.7402  0.1464
  518MOL0     H68322   9.631   2.219   2.636 -1.5343 -0.6626  2.2572
  518MOL0     H68323   9.715   2.375   2.467 -0.6714 -0.4039 -0.4878
  518MOL0     H68324   9.614   2.501   2.547  1.5014  0.1458  0.0237
  518MOL0     H68325   9.425   2.294   2.497  2.7799 -2.1413  2.6734
  518MOL0     H68326   9.444   2.440   2.400  0.3907 -0.3380 -2.3385
  518MOL0     H68327   9.573   2.181   2.341 -3.5060 -2.0180 -1.2794
  518MOL0     H68328   9.619   2.338   2.264 -0.2708 -0.7413 -0.6853
  518MOL0     H68329   9.237   2.323   2.298 -0.8495 -0.8372  1.2387
  518MOL0     H68330   9.082   2.334   2.063  1.9844 -0.4348  0.1736
  518MOL0     H68331   9.030   2.212   2.173 -2.0435 -1.3805 -1.3898
  518MOL0     H68332   9.003   2.043   1.999  1.0917 -1.0732 -1.1480
  518MOL0     H68333   9.127   2.122   1.902  0.6928  1.4839 -0.1744
  518MOL0     H68334   8.840   2.230   1.954  2.2399 -0.1688  3.1291
  518MOL0     H68335   8.960   2.316   1.863 -0.1708 -0.2874 -2.8649
  518MOL0     H68336   8.967   2.129   1.688  0.6899 -1.4057  0.3917
  518MOL0     H68337   8.805   2.207   1.705  1.6000  0.6698 -0.2406
  518MOL0     H68338   9.102   1.989   1.754 -0.5557 -0.9879  0.1400
  518MOL0     H68339   9.228   1.781   1.720 -0.3800  3.2519  1.5966
  518MOL0     H68340   9.212   1.261   1.638  0.2041  1.0011  0.3322
  518MOL0     H68341   9.404   1.100   1.673 -0.7559  0.8644 -0.1492
  518MOL0     H68342   9.733   1.226   1.590 -0.1814  0.0146 -0.4297
  518MOL0     H68343   9.673   1.065   1.585 -1.8825  0.9113  1.7009
  518MOL0     H68344   9.841   0.997   1.756  0.8793 -2.1370 -1.7953
  518MOL0     H68345   9.886   1.167   1.762 -1.1794  1.3697 -2.7059
  518MOL0     H68346   9.948   1.145   1.501  4.6641 -0.2925 -0.3992
  518MOL0     H68347   9.928   0.971   1.512  1.7024 -2.5372  2.1039
  518MOL0     H68348  10.145   1.020   1.503  1.1429 -2.1088  0.9063
  518MOL0     H68349  10.136   1.132   1.642 -0.3650  0.5174  0.4402
  518MOL0     H68350  10.113   0.835   1.641  0.7175  0.2784 -1.4961
  518MOL0     H68351  10.088   0.955   1.788  1.0165  3.3373 -0.4672
  518MOL0     H68352  10.308   1.039   1.755 -2.3753  1.0122 -2.0732
  518MOL0     H68353  10.339   0.928   1.616 -1.9444 -0.5304 -0.7525
  518MOL0     H68354  10.315   0.844   1.905 -1.5809  2.5373 -0.5127
  518MOL0     H68355  10.310   0.728   1.762 -1.8006  0.3512  0.4469
  518MOL0     H68356  10.540   0.786   1.703 -0.9608 -0.5416 -0.2130
  518MOL0     H68357  10.543   0.737   1.863  1.5054 -2.7505 -3.5641
  518MOL0     H68358   9.652   1.414   1.804 -0.0961  0.7181 -1.6229
  518MOL0     H68359   9.465   1.580   1.778 -2.9445  0.0970 -1.7986
  518MOL0     H68360   8.863   1.564   1.789 -0.7253  0.7709  1.8089
  518MOL0     H68361   8.729   1.765   1.784 -0.2136 -0.7998 -3.0826
  518MOL0     H68362  10.373   2.196   2.670 -0.1025  0.8191  4.3819
  518MOL0     H68363  10.515   2.033   2.596 -0.3067 -1.5405  0.0346
  518MOL0     H68364  10.470   1.382   2.489 -2.0876  1.6006  2.9825
  518MOL0     H68365  10.655   1.261   2.420 -0.6823  0.5876 -0.2381
  518MOL0     H68366  11.067   1.392   2.549 -3.2973  0.7872  1.1891
  518MOL0     H68367  11.057   1.420   2.370 -0.0698 -2.7551 -2.8075
  518MOL0     H68368  11.220   1.271   2.379 -1.6393 -2.3760 -2.3817
  518MOL0     H68369  11.160   1.175   2.506  0.5457  2.5545  1.9271
  518MOL0     H68370  11.014   1.218   2.245 -0.5852 -1.7635 -1.7062
  518MOL0     H68371  10.984   1.076   2.348 -1.2643  0.3640 -1.1447
  518MOL0     H68372  11.212   1.006   2.310  1.4039 -0.5422 -0.9347
  518MOL0     H68373  11.097   0.978   2.176  1.7951 -0.8788  0.8965
  518MOL0     H68374  11.397   1.255   2.030  1.9569 -2.7599 -0.4666
  518MOL0     H68375  10.923   1.576   2.518  0.1367 -0.4978  2.4447
  518MOL0     H68376  10.729   1.714   2.585 -1.4097  0.8847 -0.4633
  519MOL0     O68377   6.910  11.295   1.542  0.3708 -0.0128 -0.7692
  519MOL0     C68378   6.982  11.340   1.445 -0.2886  0.3203 -0.8990
  519MOL0     O68379   6.936  11.409   1.347 -0.0356  0.1143  0.2855
  519MOL0     C68380   6.813  11.459   1.347  0.2099 -0.4706 -0.4502
  519MOL0     C68381   6.797  11.598   1.353  0.4904  0.1442 -0.4204
  519MOL0     C68382   6.664  11.660   1.352 -0.2365 -0.1134 -0.4720
  519MOL0     C68383   6.555  11.578   1.329 -0.0667  0.1222  0.6697
  519MOL0     O68384   6.437  11.643   1.335  0.9401 -1.2620  0.3389
  519MOL0     C68385   6.321  11.575   1.404 -0.3586  0.3089  0.1557
  519MOL0     C68386   6.204  11.668   1.443  0.2439  0.4905 -0.0418
  519MOL0     C68387   6.076  11.597   1.484  0.6306  0.5641  0.1237
  519MOL0     C68388   5.973  11.695   1.534 -0.2500 -0.3658  0.3560
  519MOL0     C68389   5.870  11.641   1.635 -0.2079 -0.8853  0.0257
  519MOL0     C68390   5.755  11.545   1.578 -0.5602 -0.3370 -0.5465
  519MOL0     C68391   5.654  11.510   1.677  0.2998 -0.3779  0.2534
  519MOL0     C68392   5.594  11.368   1.645  0.1027 -0.5264 -0.7292
  519MOL0     N68393   5.479  11.336   1.737 -0.1757 -0.3569  0.4941
  519MOL0     C68394   5.492  11.321   1.872 -0.5912 -0.5322  0.5032
  519MOL0     C68395   5.364  11.333   1.921  1.1364 -0.1052  0.3546
  519MOL0     C68396   5.323  11.329   2.062  0.3629  0.3127 -0.6997
  519MOL0     C68397   5.180  11.354   2.084 -0.2711  0.5391 -0.3892
  519MOL0     C68398   5.146  11.319   2.233  0.5541 -0.4876  0.8027
  519MOL0     C68399   4.999  11.363   2.277 -0.5600  0.3662  0.0601
  519MOL0     O68400   5.009  11.462   2.382  0.5786  0.6910 -0.4365
  519MOL0     C68401   5.014  11.427   2.516 -0.3685  0.1372  0.6116
  519MOL0     C68402   4.999  11.301   2.564 -0.3614  0.5216  0.1925
  519MOL0     C68403   4.996  11.282   2.705  0.0897 -0.2582 -0.0653
  519MOL0     C68404   5.031  11.388   2.795 -0.1444 -0.1825  0.3540
  519MOL0     C68405   5.042  11.379   2.940  0.4358 -0.3166 -0.7004
  519MOL0     O68406   5.077  11.485   3.015  0.3998 -0.6060  0.5545
  519MOL0     C68407   5.097  11.484   3.154 -0.3563  0.1786  0.2950
  519MOL0     C68408   4.997  11.428   3.239  0.9384 -0.5978  0.0293
  519MOL0     C68409   5.004  11.421   3.373 -0.7425 -0.3867  0.2327
  519MOL0     C68410   5.123  11.471   3.435 -0.2240  0.3674 -0.7121
  519MOL0     O68411   5.167  11.446   3.565  0.0148  0.0796  0.2487
  519MOL0     C68412   5.061  11.397   3.652  1.1119 -0.0115 -0.5403
  519MOL0     C68413   5.115  11.306   3.771 -0.1011 -0.2048 -0.5347
  519MOL0     C68414   5.261  11.240   3.751  0.6345 -0.0881 -0.3504
  519MOL0     C68415   5.314  11.178   3.885  0.8110 -0.5767 -0.0087
  519MOL0     C68416   5.447  11.110   3.865 -1.5279 -0.6009  0.3589
  519MOL0     C68417   5.449  11.006   3.755 -0.1399  0.3585  0.4241
  519MOL0     C68418   5.572  10.920   3.759 -0.6847  1.1026  0.3271
  519MOL0     C68419   5.700  10.994   3.731  0.4889 -0.3337 -0.4183
  519MOL0    Cl68420   5.798  11.008   3.884  0.1785 -0.0793  0.0222
  519MOL0     C68421   5.223  11.542   3.360 -0.4381  0.7072 -1.0327
  519MOL0     C68422   5.207  11.547   3.227 -0.2941 -0.4717  0.4905
  519MOL0     O68423   5.020  11.270   2.987 -0.0778 -0.2093 -0.5593
  519MOL0     C68424   5.056  11.515   2.739  0.0670  0.6129  0.2064
  519MOL0     C68425   5.043  11.530   2.599  0.6255  0.3637 -1.1488
  519MOL0     N68426   5.277  11.360   1.815  0.5145 -0.2342 -0.1189
  519MOL0     N68427   5.352  11.364   1.703  0.2668  0.0620 -1.2278
  519MOL0     C68428   6.572  11.442   1.313  0.5461  0.8501 -0.1147
  519MOL0     C68429   6.703  11.380   1.326  0.7223  0.4486  0.0935
  519MOL0     C68430   7.125  11.310   1.444 -0.1824  0.6749 -0.0696
  519MOL0     C68431   7.193  11.263   1.562 -0.4350  0.0919 -0.6109
  519MOL0     C68432   7.331  11.251   1.566  0.8835 -0.5319 -0.4794
  519MOL0     C68433   7.412  11.290   1.462 -0.5205 -0.3967  0.6843
  519MOL0     O68434   7.540  11.233   1.466  0.4024 -0.2263  0.2869
  519MOL0     C68435   7.634  11.265   1.362 -0.3030  0.1101 -0.1587
  519MOL0     C68436   7.647  11.143   1.272 -0.1478  0.3064 -0.8584
  519MOL0     C68437   7.745  11.168   1.154 -0.6132  0.9472  0.1818
  519MOL0     C68438   7.879  11.196   1.202 -0.0755 -0.2965 -0.6454
  519MOL0     C68439   7.976  11.195   1.095  0.4195 -0.0919 -0.3894
  519MOL0     C68440   8.058  11.202   1.011 -0.3301 -0.8165  0.1795
  519MOL0     C68441   7.349  11.331   1.347 -0.2639  0.1109  0.3308
  519MOL0     C68442   7.210  11.337   1.336  1.3353 -1.3648 -1.3389
  519MOL0     H68443   6.885  11.661   1.357  0.0918  0.6804 -0.0677
  519MOL0     H68444   6.652  11.767   1.365 -0.8814 -0.1051 -1.0499
  519MOL0     H68445   6.358  11.514   1.487  2.3477 -2.4957 -2.8461
  519MOL0     H68446   6.277  11.503   1.335  1.4519 -1.4458  0.7509
  519MOL0     H68447   6.170  11.737   1.364 -2.6354  2.6740  2.8728
  519MOL0     H68448   6.243  11.724   1.528  2.8419 -2.2475  0.7548
  519MOL0     H68449   6.107  11.532   1.565  3.2056  4.2273  2.4030
  519MOL0     H68450   6.025  11.542   1.404  0.1091 -0.8200  1.3773
  519MOL0     H68451   6.022  11.771   1.597 -1.0866  2.6576 -2.3922
  519MOL0     H68452   5.935  11.745   1.445 -0.6708 -1.3199 -0.0078
  519MOL0     H68453   5.827  11.734   1.673 -0.7440 -1.4961  0.9376
  519MOL0     H68454   5.920  11.596   1.721  1.6490  1.8104  0.4899
  519MOL0     H68455   5.812  11.458   1.544  2.4176  0.6220  1.5490
  519MOL0     H68456   5.718  11.591   1.486  0.9877  3.8893  0.6946
  519MOL0     H68457   5.704  11.502   1.774  0.1236 -0.0204  0.3784
  519MOL0     H68458   5.581  11.592   1.676  2.5277  1.7589  1.6160
  519MOL0     H68459   5.684  11.309   1.659  0.6178  0.2466 -0.7109
  519MOL0     H68460   5.557  11.362   1.542 -1.7781  3.7580 -0.5456
  519MOL0     H68461   5.586  11.323   1.927 -1.6589 -0.2109  2.4294
  519MOL0     H68462   5.389  11.395   2.118 -1.2444  0.4610  1.1451
  519MOL0     H68463   5.346  11.228   2.098  2.8233  1.1780  0.3933
  519MOL0     H68464   5.106  11.320   2.011 -2.2454 -0.3448  1.8611
  519MOL0     H68465   5.173  11.464   2.084  1.6026  0.6850 -1.0191
  519MOL0     H68466   5.159  11.211   2.242  0.4705 -0.6707 -1.0229
  519MOL0     H68467   5.213  11.372   2.302  0.5598  0.5686  0.0063
  519MOL0     H68468   4.932  11.284   2.312  0.6275 -0.0838  1.4239
  519MOL0     H68469   4.945  11.404   2.191 -0.0868  1.3272  0.2098
  519MOL0     H68470   4.978  11.214   2.502  1.4461  2.2146 -3.0541
  519MOL0     H68471   4.986  11.177   2.733  4.4825 -1.1051 -0.7867
  519MOL0     H68472   4.908  11.393   3.188  2.1959 -1.1966 -1.8431
  519MOL0     H68473   4.914  11.396   3.429 -1.8375 -1.3756 -1.8738
  519MOL0     H68474   5.000  11.323   3.598  0.2518 -2.5470  3.4863
  519MOL0     H68475   4.999  11.476   3.694  1.4894  0.0987 -0.1913
  519MOL0     H68476   5.036  11.235   3.797 -0.8526  0.5875 -0.5885
  519MOL0     H68477   5.133  11.374   3.855  2.1542 -2.6232  1.0817
  519MOL0     H68478   5.335  11.309   3.709  0.1066  0.0756 -1.0274
  519MOL0     H68479   5.254  11.160   3.677 -0.9724 -2.5608  2.2724
  519MOL0     H68480   5.322  11.260   3.956 -4.6737  1.4191 -1.2256
  519MOL0     H68481   5.245  11.101   3.923 -0.2431  1.3491  2.2060
  519MOL0     H68482   5.479  11.060   3.957 -0.1384 -2.4596 -1.0578
  519MOL0     H68483   5.521  11.185   3.838 -2.0949 -0.6509 -1.4717
  519MOL0     H68484   5.440  11.051   3.656  2.3746 -0.4145 -0.2126
  519MOL0     H68485   5.366  10.938   3.774  1.6515 -1.9466  0.4244
  519MOL0     H68486   5.583  10.862   3.851  1.6395 -1.7692 -1.5432
  519MOL0     H68487   5.557  10.843   3.682  2.4523  1.7450 -1.0904
  519MOL0     H68488   5.669  11.091   3.692  0.5860 -0.7089 -1.4708
  519MOL0     H68489   5.757  10.945   3.652 -2.8808 -3.0966 -1.4027
  519MOL0     H68490   5.307  11.586   3.412 -1.4011  0.2833  0.9587
  519MOL0     H68491   5.272  11.601   3.159 -2.2410  0.6089 -0.6167
  519MOL0     H68492   5.085  11.598   2.803  0.9053 -0.6583  1.5233
  519MOL0     H68493   5.057  11.621   2.542  2.1686  0.8739 -0.0220
  519MOL0     H68494   6.482  11.383   1.305 -0.2272  2.1666 -1.6618
  519MOL0     H68495   6.708  11.276   1.294 -3.0465  0.6767 -1.6930
  519MOL0     H68496   7.138  11.240   1.653 -0.0087  0.6018 -0.2131
  519MOL0     H68497   7.361  11.199   1.657  0.5750  1.3921  0.7830
  519MOL0     H68498   7.730  11.296   1.403  0.4240  1.9943 -3.0217
  519MOL0     H68499   7.591  11.340   1.295 -1.6949 -0.7863 -0.3261
  519MOL0     H68500   7.676  11.056   1.332 -2.8190  0.5712  0.9965
  519MOL0     H68501   7.548  11.131   1.228 -0.8141 -1.0096  0.8781
  519MOL0     H68502   7.702  11.249   1.095 -0.9097  3.5370  3.6378
  519MOL0     H68503   7.748  11.073   1.099  0.1170  1.1724 -0.1811
  519MOL0     H68504   7.884  11.291   1.257 -1.2062 -2.1510  2.9762
  519MOL0     H68505   7.913  11.112   1.262  2.9442 -1.4638 -3.7091
  519MOL0     H68506   8.136  11.209   0.938 -0.7270 -0.0619 -0.1875
  519MOL0     H68507   7.407  11.350   1.258 -2.7175 -2.6263 -2.0559
  519MOL0     H68508   7.170  11.362   1.238  0.7579  0.3499 -0.7067
  520MOL0     O68509   4.187   3.343   4.846  0.1887  0.1979 -0.4281
  520MOL0     C68510   4.197   3.433   4.928 -0.4674 -0.2676 -0.0999
  520MOL0     O68511   4.088   3.497   4.991 -0.3402  0.6601 -1.0652
  520MOL0     C68512   3.952   3.463   4.973  0.3468  0.1993 -0.2718
  520MOL0     C68513   3.894   3.380   4.876  0.2668 -1.1060  0.9950
  520MOL0     C68514   3.754   3.373   4.859 -0.1385 -0.6027 -0.2293
  520MOL0     C68515   3.666   3.445   4.944  1.5092 -0.4793 -0.1628
  520MOL0     O68516   3.528   3.454   4.942 -0.7495 -0.1827  0.4372
  520MOL0     C68517   3.484   3.534   4.837  0.2372 -1.6796  0.4699
  520MOL0     C68518   3.330   3.525   4.850 -0.4706 -0.4538  0.1310
  520MOL0     C68519   3.259   3.392   4.814  0.5274  0.8808  0.2211
  520MOL0     C68520   3.110   3.412   4.825 -0.4797  0.3595 -0.9300
  520MOL0     C68521   3.025   3.284   4.799  0.5404  0.3556  0.1603
  520MOL0     C68522   2.879   3.308   4.774 -0.7655 -0.9076  0.1934
  520MOL0     C68523   2.815   3.196   4.686 -0.0855 -0.9111 -0.2610
  520MOL0     C68524   2.659   3.200   4.685  0.0481  0.0608 -0.0064
  520MOL0     N68525   2.609   3.313   4.604 -0.2885  0.0760  0.1268
  520MOL0     C68526   2.564   3.432   4.657 -0.7918  0.1337  0.5936
  520MOL0     C68527   2.523   3.516   4.554 -0.3292 -0.1274  0.3977
  520MOL0     C68528   2.442   3.636   4.575  0.2212  0.0488  0.3761
  520MOL0     C68529   2.297   3.608   4.572 -0.9553 -0.0318 -0.3110
  520MOL0     C68530   2.237   3.558   4.431  1.1065  0.9927 -1.0846
  520MOL0     C68531   2.089   3.513   4.447 -0.3841 -0.2694  0.1922
  520MOL0     O68532   2.001   3.618   4.478  0.4305 -0.0129  0.1605
  520MOL0     C68533   1.867   3.585   4.484 -0.2176  0.6594 -0.7352
  520MOL0     C68534   1.782   3.666   4.550  0.6218 -0.3516 -0.5970
  520MOL0     C68535   1.649   3.639   4.578 -0.0907 -0.0624 -0.0068
  520MOL0     C68536   1.597   3.522   4.525  0.2667 -0.6349 -1.4953
  520MOL0     C68537   1.451   3.483   4.545  0.1990 -0.2812 -0.0699
  520MOL0     O68538   1.407   3.358   4.504  0.0417 -0.1562  0.5268
  520MOL0     C68539   1.291   3.301   4.546 -0.1949 -0.5236 -0.9510
  520MOL0     C68540   1.181   3.362   4.602  0.7287 -0.2720 -0.2181
  520MOL0     C68541   1.073   3.288   4.652  0.8051  0.2754  0.5256
  520MOL0     C68542   1.077   3.150   4.630  1.1914 -0.0043 -0.8083
  520MOL0     O68543   0.955   3.084   4.670 -0.0242 -0.0281  0.6492
  520MOL0     C68544   0.917   2.963   4.603  0.5708  0.7383  0.1849
  520MOL0     C68545   0.781   2.899   4.643 -0.3702  0.1050  0.2969
  520MOL0     C68546   0.792   2.784   4.746 -0.3605 -0.2642 -0.3289
  520MOL0     C68547   0.666   2.715   4.766 -0.1761  0.6543 -0.6367
  520MOL0     C68548   0.667   2.594   4.861  0.0580 -0.7771 -0.4547
  520MOL0     C68549   0.524   2.540   4.863 -0.4351 -0.0412  0.6748
  520MOL0     C68550   0.531   2.409   4.952  0.2941  0.2724 -0.7650
  520MOL0     C68551   0.398   2.391   5.027 -0.1536  0.7362 -0.4207
  520MOL0    Cl68552   0.379   2.536   5.134  0.1437 -0.4042  0.1062
  520MOL0     C68553   1.194   3.085   4.585  0.0304 -0.1420  0.5292
  520MOL0     C68554   1.298   3.163   4.543  0.5594 -0.3408  0.8843
  520MOL0     O68555   1.377   3.580   4.579  0.0614 -0.0768  0.0118
  520MOL0     C68556   1.689   3.430   4.472  0.4258 -0.8043  0.4710
  520MOL0     C68557   1.812   3.463   4.443  0.6950 -0.3929  0.4380
  520MOL0     N68558   2.556   3.445   4.441  0.5316 -0.1288  0.7570
  520MOL0     N68559   2.603   3.326   4.465 -0.8295 -0.2943 -0.2575
  520MOL0     C68560   3.720   3.527   5.046 -0.3763 -1.1971  0.5866
  520MOL0     C68561   3.861   3.536   5.063  0.2162  1.0256 -0.0808
  520MOL0     C68562   4.333   3.480   4.955  0.3418  1.7086  0.4249
  520MOL0     C68563   4.363   3.598   5.021  0.1132 -0.2284 -0.0114
  520MOL0     C68564   4.492   3.637   5.044 -1.0645  0.0969 -0.4081
  520MOL0     C68565   4.599   3.559   5.003 -0.1205  0.2842 -0.4226
  520MOL0     O68566   4.732   3.588   5.029  0.6714  0.5627 -0.4437
  520MOL0     C68567   4.773   3.727   5.037 -0.3521 -0.4389  0.8271
  520MOL0     C68568   4.925   3.748   5.050  0.0270 -0.2156  0.5387
  520MOL0     C68569   4.985   3.656   5.156 -0.5714 -0.4988  0.8105
  520MOL0     C68570   5.143   3.673   5.162  0.1818  0.9445 -0.2842
  520MOL0     C68571   5.175   3.812   5.212  0.2287 -0.3357 -0.5657
  520MOL0     C68572   5.204   3.923   5.252 -0.4259  0.5387 -1.0652
  520MOL0     C68573   4.576   3.439   4.941  0.5507 -0.0461  0.8227
  520MOL0     C68574   4.443   3.399   4.912 -0.0620 -0.5223  0.4761
  520MOL0     H68575   3.959   3.316   4.817  1.3679 -2.1874  3.2543
  520MOL0     H68576   3.713   3.300   4.790 -1.9159 -1.3732  1.5389
  520MOL0     H68577   3.517   3.507   4.736  0.8232 -0.4606  0.3127
  520MOL0     H68578   3.522   3.636   4.854 -0.9253 -1.1649  0.1048
  520MOL0     H68579   3.276   3.602   4.794 -0.1155 -0.0921  0.2839
  520MOL0     H68580   3.309   3.533   4.957  1.2885  2.5741  0.3551
  520MOL0     H68581   3.290   3.311   4.881 -1.5718 -0.8817 -0.7739
  520MOL0     H68582   3.278   3.358   4.712 -3.0367  1.4608 -0.7998
  520MOL0     H68583   3.077   3.455   4.920 -0.1234 -1.5810  0.1457
  520MOL0     H68584   3.079   3.487   4.752  1.0391  0.2527 -1.7370
  520MOL0     H68585   3.042   3.212   4.880 -1.7446  0.1348  0.5205
  520MOL0     H68586   3.071   3.240   4.711  0.9474  1.5597 -0.2452
  520MOL0     H68587   2.856   3.404   4.727  1.0646 -0.3890  0.2849
  520MOL0     H68588   2.835   3.294   4.874 -0.0414 -2.3122  0.3385
  520MOL0     H68589   2.868   3.207   4.591  1.1799 -0.9403  0.4099
  520MOL0     H68590   2.846   3.099   4.725  3.4903  0.3695  0.4325
  520MOL0     H68591   2.607   3.213   4.780 -1.4921 -0.1808 -0.7754
  520MOL0     H68592   2.631   3.105   4.638  2.2584 -0.3328 -0.6157
  520MOL0     H68593   2.549   3.456   4.762  3.8032  2.8732  0.9074
  520MOL0     H68594   2.464   3.712   4.499 -0.4141 -0.7790 -0.6688
  520MOL0     H68595   2.465   3.676   4.674 -1.2988  0.2515  0.6793
  520MOL0     H68596   2.238   3.698   4.590 -0.4265 -0.1656  2.5506
  520MOL0     H68597   2.277   3.535   4.651 -2.9278 -0.1938 -0.8905
  520MOL0     H68598   2.237   3.631   4.349 -0.1176  1.2593 -0.8578
  520MOL0     H68599   2.286   3.462   4.413 -0.6468 -0.7925  2.7201
  520MOL0     H68600   2.102   3.436   4.524 -0.7660 -1.8382 -1.2431
  520MOL0     H68601   2.051   3.472   4.353 -2.0385  1.9147 -0.1739
  520MOL0     H68602   1.815   3.753   4.606  2.0320 -2.7483  2.6631
  520MOL0     H68603   1.604   3.723   4.631  2.3790  1.1124  0.3782
  520MOL0     H68604   1.189   3.469   4.620 -0.8887  0.1326 -1.6501
  520MOL0     H68605   0.994   3.339   4.705  0.9534  0.3770  0.6511
  520MOL0     H68606   0.993   2.894   4.642  0.8118  0.5853 -0.5309
  520MOL0     H68607   0.918   2.975   4.494 -0.7502 -0.8125 -0.0370
  520MOL0     H68608   0.731   2.859   4.554 -1.0349  1.5540 -0.0146
  520MOL0     H68609   0.705   2.974   4.667 -1.0517  0.1506 -1.8107
  520MOL0     H68610   0.817   2.829   4.843 -0.7913  1.1893 -0.8747
  520MOL0     H68611   0.873   2.716   4.718 -0.5911 -1.8383  2.3798
  520MOL0     H68612   0.599   2.793   4.805 -0.5370  0.0584 -0.0518
  520MOL0     H68613   0.631   2.686   4.667 -0.9639 -3.0446  0.5915
  520MOL0     H68614   0.699   2.626   4.960  1.0029  0.6688 -1.1995
  520MOL0     H68615   0.740   2.518   4.830  1.8453  1.1791 -1.3159
  520MOL0     H68616   0.488   2.509   4.765  0.2921  0.2271  0.3165
  520MOL0     H68617   0.471   2.626   4.906  0.9037  0.2229  1.8809
  520MOL0     H68618   0.551   2.323   4.887  1.0720 -3.3648  3.7806
  520MOL0     H68619   0.618   2.411   5.018 -0.8073 -2.0265  0.8688
  520MOL0     H68620   0.391   2.295   5.080 -1.4526 -1.0204 -3.4456
  520MOL0     H68621   0.330   2.396   4.941  2.4849  1.7812 -2.5888
  520MOL0     H68622   1.211   2.978   4.575 -1.9928 -0.3759 -1.0639
  520MOL0     H68623   1.377   3.104   4.498 -0.2903 -0.1283 -0.9532
  520MOL0     H68624   1.652   3.334   4.438 -0.9068  0.1603 -0.8920
  520MOL0     H68625   1.862   3.384   4.389 -1.7239  0.0130 -2.7102
  520MOL0     H68626   3.668   3.590   5.117  2.0750  1.0825  0.5122
  520MOL0     H68627   3.918   3.603   5.127  2.3516  0.3150 -1.1338
  520MOL0     H68628   4.292   3.668   5.064 -0.7598 -0.9281 -0.2936
  520MOL0     H68629   4.510   3.732   5.092 -0.3124  0.0880 -0.6556
  520MOL0     H68630   4.724   3.777   5.121 -0.8863 -1.9448  1.4466
  520MOL0     H68631   4.736   3.781   4.949  0.2342  1.7174  1.8291
  520MOL0     H68632   4.963   3.740   4.948 -0.1553 -2.8433  0.5971
  520MOL0     H68633   4.949   3.848   5.086  2.9752 -1.5805  2.8762
  520MOL0     H68634   4.964   3.550   5.138 -3.2749  0.1582 -0.5626
  520MOL0     H68635   4.938   3.688   5.249 -0.7345  4.8771 -0.7983
  520MOL0     H68636   5.180   3.606   5.240 -4.9808 -1.4785  0.5200
  520MOL0     H68637   5.183   3.649   5.063 -1.5260  0.9326 -1.0095
  520MOL0     H68638   5.253   4.012   5.286 -1.3069  0.2841  0.9793
  520MOL0     H68639   4.665   3.380   4.921  2.5221  2.8426  0.4734
  520MOL0     H68640   4.417   3.304   4.867  1.0405 -0.5326 -0.1971
  521MOL0     O68641   9.350   3.867   2.921 -0.2826 -0.1092 -0.4310
  521MOL0     C68642   9.253   3.925   2.871  0.0233  0.2665  0.6263
  521MOL0     O68643   9.252   4.052   2.833 -0.4728 -0.1526 -0.0925
  521MOL0     C68644   9.339   4.134   2.893  0.8650 -0.3453 -0.8527
  521MOL0     C68645   9.392   4.236   2.821 -0.1006 -0.2407  0.4142
  521MOL0     C68646   9.489   4.325   2.875  0.7006 -0.3920 -0.2872
  521MOL0     C68647   9.521   4.322   3.014 -0.1234  1.0220  0.5365
  521MOL0     O68648   9.615   4.397   3.078 -0.6173 -0.1327  0.5028
  521MOL0     C68649   9.700   4.482   2.999  0.3550 -0.2373  0.5065
  521MOL0     C68650   9.835   4.500   3.056  0.0464  0.1523 -0.3949
  521MOL0     C68651   9.935   4.552   2.957 -0.0886 -0.2073  0.6863
  521MOL0     C68652  10.060   4.627   3.020 -1.0541  0.2596  0.1183
  521MOL0     C68653  10.160   4.536   3.102  0.1523 -1.1556 -0.7947
  521MOL0     C68654  10.288   4.603   3.134  0.2582  0.5873  1.1741
  521MOL0     C68655  10.280   4.750   3.165  0.3225  0.8709  0.1756
  521MOL0     C68656  10.422   4.813   3.188 -0.5268 -0.3167  1.0106
  521MOL0     N68657  10.488   4.852   3.059  0.6027 -0.7247 -0.5909
  521MOL0     C68658  10.510   4.984   3.016  0.9469 -0.1817 -0.4909
  521MOL0     C68659  10.586   4.970   2.906 -0.2559 -1.1807  0.2123
  521MOL0     C68660  10.616   5.083   2.808 -0.5174 -0.0873  0.2797
  521MOL0     C68661  10.751   5.149   2.827 -0.0353  0.3439 -0.1139
  521MOL0     C68662  10.774   5.207   2.970  0.5938 -0.2731  1.0754
  521MOL0     C68663  10.920   5.230   3.001  0.0602 -0.3293  0.3271
  521MOL0     O68664  10.961   5.302   2.881 -0.2622 -0.2508  0.3339
  521MOL0     C68665  11.086   5.363   2.896 -1.0737  0.2148  0.0597
  521MOL0     C68666  11.177   5.353   3.006  0.2829  0.1263 -0.3689
  521MOL0     C68667  11.299   5.411   3.010  0.0999 -0.9653  0.2997
  521MOL0     C68668  11.341   5.489   2.898 -0.4540  0.3498  0.0879
  521MOL0     C68669  11.476   5.558   2.903  0.2872 -0.4254 -0.0396
  521MOL0     O68670  11.571   5.502   2.984  0.3158 -0.2031  0.6146
  521MOL0     C68671  11.693   5.564   2.977 -0.3498 -0.0253  0.8402
  521MOL0     C68672  11.748   5.634   3.090 -0.4532  0.0743 -0.1558
  521MOL0     C68673  11.871   5.697   3.087 -0.1547  0.6486  0.7406
  521MOL0     C68674  11.952   5.684   2.976 -0.0072 -0.0052  0.2017
  521MOL0     O68675  12.087   5.724   2.971  0.0306  0.3866 -0.6215
  521MOL0     C68676  12.153   5.787   3.087 -0.3945  0.5979  0.0021
  521MOL0     C68677  12.284   5.856   3.056  0.6178 -0.2609 -0.0718
  521MOL0     C68678  12.314   5.863   2.905 -0.5632 -0.2347 -0.7369
  521MOL0     C68679  12.451   5.929   2.871 -0.4365 -0.2424  0.6431
  521MOL0     C68680  12.472   5.914   2.728  0.1063 -0.2159 -0.8655
  521MOL0     C68681  12.595   5.991   2.674 -0.8604  0.3422  0.1497
  521MOL0     C68682  12.613   5.957   2.527 -0.2597  0.8428  1.1883
  521MOL0     C68683  12.741   6.032   2.477 -0.4220 -0.4810 -1.2776
  521MOL0    Cl68684  12.885   5.984   2.578  0.1740 -0.0999 -0.5457
  521MOL0     C68685  11.899   5.631   2.858 -0.1256 -0.8515  0.0805
  521MOL0     C68686  11.769   5.568   2.852 -0.6823 -1.0151  0.4488
  521MOL0     O68687  11.490   5.662   2.831  0.3937  0.4641 -0.3009
  521MOL0     C68688  11.252   5.508   2.789 -0.5746 -0.4320 -0.3421
  521MOL0     C68689  11.126   5.449   2.791  0.2438  0.1326 -0.0955
  521MOL0     N68690  10.616   4.835   2.886  0.5488  0.3648 -0.7971
  521MOL0     N68691  10.548   4.766   2.976  0.0827  0.1722  0.2318
  521MOL0     C68692   9.467   4.216   3.087  0.5054 -0.7079 -0.9839
  521MOL0     C68693   9.374   4.129   3.031  0.3737 -0.0719 -0.8978
  521MOL0     C68694   9.122   3.857   2.838  0.4678 -0.8801 -0.1054
  521MOL0     C68695   8.997   3.928   2.825  0.0427 -0.0810 -0.6895
  521MOL0     C68696   8.888   3.858   2.765 -0.6475  0.4323 -0.8825
  521MOL0     C68697   8.900   3.716   2.739  1.2560 -0.7709  0.1435
  521MOL0     O68698   8.781   3.671   2.694 -0.3511  0.1827 -0.2248
  521MOL0     C68699   8.763   3.526   2.665  0.2739 -0.3173 -0.1606
  521MOL0     C68700   8.606   3.508   2.649 -0.1429  0.2390 -1.1224
  521MOL0     C68701   8.555   3.364   2.607 -0.1816 -0.1921  0.4121
  521MOL0     C68702   8.411   3.340   2.633  0.2448 -0.3810  0.3699
  521MOL0     C68703   8.325   3.423   2.541 -0.1230 -0.6481  0.1422
  521MOL0     C68704   8.267   3.482   2.444 -0.4498  1.2005 -0.1715
  521MOL0     C68705   9.021   3.648   2.765 -0.7456 -0.4483  0.3616
  521MOL0     C68706   9.127   3.724   2.817  0.3377 -0.1668 -0.2207
  521MOL0     H68707   9.370   4.229   2.715  1.1397 -1.1821  0.2010
  521MOL0     H68708   9.539   4.393   2.808  2.1913 -1.1774 -0.0059
  521MOL0     H68709   9.650   4.579   3.007  0.7277  0.0520 -0.5411
  521MOL0     H68710   9.722   4.455   2.895  2.2962  2.8183 -0.0018
  521MOL0     H68711   9.882   4.411   3.100  0.3412  0.3451 -0.3178
  521MOL0     H68712   9.834   4.574   3.137  3.5515 -0.6452  0.5845
  521MOL0     H68713   9.896   4.642   2.908 -2.2340 -2.0248 -1.2142
  521MOL0     H68714   9.953   4.466   2.891  0.2596 -2.3136  3.3442
  521MOL0     H68715  10.116   4.639   2.926  1.6855 -0.8025  1.4952
  521MOL0     H68716  10.034   4.709   3.088  0.3486  0.4862  0.4178
  521MOL0     H68717  10.189   4.444   3.049 -0.4519 -1.1297 -1.1792
  521MOL0     H68718  10.109   4.511   3.196 -1.4846 -1.5705 -1.7516
  521MOL0     H68719  10.349   4.590   3.045 -1.9082  1.1375 -0.4621
  521MOL0     H68720  10.330   4.551   3.221  1.9123  2.4372  1.5634
  521MOL0     H68721  10.237   4.802   3.080 -0.5460  1.6980  1.0951
  521MOL0     H68722  10.217   4.766   3.253 -2.7613  0.7279 -1.8795
  521MOL0     H68723  10.469   4.744   3.258 -0.5623  1.9649  3.4253
  521MOL0     H68724  10.424   4.907   3.243  1.4898 -0.0678  0.5898
  521MOL0     H68725  10.481   5.078   3.061  0.3229  0.1924 -1.6334
  521MOL0     H68726  10.542   5.163   2.825 -0.2277  0.3285 -0.3676
  521MOL0     H68727  10.607   5.041   2.707 -4.0883 -1.0595  0.8575
  521MOL0     H68728  10.764   5.220   2.745  1.1667 -0.1292 -0.3492
  521MOL0     H68729  10.821   5.067   2.808 -0.6183  0.0498 -1.0230
  521MOL0     H68730  10.720   5.301   2.983  0.4980 -0.3347  1.1263
  521MOL0     H68731  10.737   5.140   3.049 -0.4913 -1.0132 -0.0199
  521MOL0     H68732  10.978   5.138   3.010  0.2632 -0.1892  0.4370
  521MOL0     H68733  10.936   5.296   3.087  2.7026  0.6327 -0.7963
  521MOL0     H68734  11.133   5.305   3.093  1.1158  0.5819  0.3350
  521MOL0     H68735  11.359   5.404   3.100  0.0528 -3.0399  0.2119
  521MOL0     H68736  11.700   5.627   3.186  1.4319 -0.9830  0.7732
  521MOL0     H68737  11.913   5.724   3.184 -1.1757  1.1923  1.0452
  521MOL0     H68738  12.189   5.712   3.159 -1.4485 -0.7538 -0.8400
  521MOL0     H68739  12.089   5.867   3.126  0.0637  1.1752 -0.3994
  521MOL0     H68740  12.367   5.798   3.097  1.0981  0.3351 -0.1971
  521MOL0     H68741  12.281   5.955   3.102 -1.2645 -0.1674 -0.3136
  521MOL0     H68742  12.238   5.927   2.858 -0.7595  1.2057  1.4272
  521MOL0     H68743  12.299   5.764   2.860 -2.4759  0.2430 -1.2344
  521MOL0     H68744  12.447   6.036   2.896  0.4922  1.0747 -3.8758
  521MOL0     H68745  12.530   5.881   2.929 -0.0485 -1.4238 -0.7871
  521MOL0     H68746  12.383   5.945   2.672  1.3133  1.0274 -2.1564
  521MOL0     H68747  12.505   5.810   2.716  0.6975 -0.0421 -0.7610
  521MOL0     H68748  12.690   5.961   2.722  0.1987  1.1598 -1.3589
  521MOL0     H68749  12.590   6.098   2.696  1.9530  0.1465  2.3648
  521MOL0     H68750  12.627   5.852   2.502  1.0355  1.5582 -1.5601
  521MOL0     H68751  12.522   5.992   2.477 -1.4389 -1.3852  1.6500
  521MOL0     H68752  12.724   6.139   2.491  2.8441 -0.1241  1.1705
  521MOL0     H68753  12.758   6.005   2.372 -3.3936 -1.1586 -1.6893
  521MOL0     H68754  11.962   5.632   2.770 -0.3914  3.4888 -0.2948
  521MOL0     H68755  11.741   5.504   2.768  1.4395  1.1916 -2.1352
  521MOL0     H68756  11.287   5.570   2.708  0.2826  0.3915  0.6357
  521MOL0     H68757  11.057   5.464   2.708  0.8951 -0.6229 -0.7907
  521MOL0     H68758   9.497   4.212   3.191 -0.2507 -1.0297 -0.7701
  521MOL0     H68759   9.324   4.059   3.099 -1.5739 -0.2632 -2.4356
  521MOL0     H68760   8.990   4.031   2.856  1.3184 -0.7048  1.9585
  521MOL0     H68761   8.796   3.911   2.742 -1.9359 -1.5319 -0.4530
  521MOL0     H68762   8.800   3.455   2.739  1.1353 -3.2165 -3.1444
  521MOL0     H68763   8.809   3.504   2.568  1.5159 -0.4551  0.4340
  521MOL0     H68764   8.577   3.508   2.754 -1.3065  0.8177 -1.4264
  521MOL0     H68765   8.551   3.585   2.593 -4.5760 -2.7600 -1.4206
  521MOL0     H68766   8.622   3.301   2.667  0.4402 -1.8186 -1.8462
  521MOL0     H68767   8.587   3.349   2.504 -0.4940 -2.4848  0.5803
  521MOL0     H68768   8.384   3.235   2.616  2.1270 -0.3300 -4.3526
  521MOL0     H68769   8.391   3.355   2.739 -0.9865 -2.6793  0.5379
  521MOL0     H68770   8.202   3.526   2.371 -2.7275 -4.3210 -2.0817
  521MOL0     H68771   9.021   3.541   2.747  1.0036 -0.4839  0.4138
  521MOL0     H68772   9.225   3.678   2.828  1.4082  2.5436  3.0991
  522MOL0     O68773   6.488   8.335  11.278  0.2857 -0.5583 -0.2663
  522MOL0     C68774   6.534   8.224  11.254 -0.5931 -0.5740  0.3464
  522MOL0     O68775   6.465   8.124  11.177 -0.5734 -0.5429 -0.4625
  522MOL0     C68776   6.339   8.145  11.156  0.4811 -0.3807 -0.8403
  522MOL0     C68777   6.304   8.207  11.042  1.2223  0.6885 -0.2166
  522MOL0     C68778   6.173   8.212  11.001  0.1704 -0.6707 -0.3005
  522MOL0     C68779   6.072   8.154  11.075 -0.1106 -0.5528 -0.6862
  522MOL0     O68780   5.949   8.163  11.018  0.8351 -0.0051 -0.9018
  522MOL0     C68781   5.872   8.041  11.016  0.4995 -0.6809  0.4545
  522MOL0     C68782   5.721   8.061  11.002 -0.6591 -0.3244  0.3672
  522MOL0     C68783   5.665   7.973  10.899 -0.1201 -0.7258 -0.3816
  522MOL0     C68784   5.514   7.995  10.875  1.4172  0.0663  0.0957
  522MOL0     C68785   5.468   7.888  10.783  0.0148  0.0457  0.2124
  522MOL0     C68786   5.319   7.915  10.739  0.6173  0.4515 -0.1478
  522MOL0     C68787   5.254   7.810  10.643  0.5651  0.2985 -0.7116
  522MOL0     C68788   5.328   7.799  10.509 -0.2102 -0.7033  0.7837
  522MOL0     N68789   5.279   7.688  10.427 -0.0179 -0.4036 -0.4053
  522MOL0     C68790   5.152   7.686  10.376 -0.5744 -0.3460 -1.0422
  522MOL0     C68791   5.157   7.603  10.273  0.3865  0.2035 -0.9780
  522MOL0     C68792   5.050   7.571  10.177  0.0792  0.1839  0.3176
  522MOL0     C68793   4.970   7.448  10.232 -0.4670  0.2417 -0.4189
  522MOL0     C68794   4.856   7.477  10.339  0.0170 -0.2348  0.8470
  522MOL0     C68795   4.780   7.345  10.352  0.6188 -0.1933 -0.5239
  522MOL0     O68796   4.656   7.346  10.425  0.2077  0.0681 -1.2382
  522MOL0     C68797   4.539   7.388  10.369  0.6397 -0.1503  0.1247
  522MOL0     C68798   4.454   7.476  10.442 -0.0185  0.0694  0.7966
  522MOL0     C68799   4.318   7.492  10.401  0.5369 -0.7244  0.6018
  522MOL0     C68800   4.288   7.450  10.270 -0.4869  0.3959 -0.1486
  522MOL0     C68801   4.174   7.504  10.199  0.1692  0.4526 -0.1613
  522MOL0     O68802   4.152   7.466  10.068  0.2321  0.3954 -0.7411
  522MOL0     C68803   4.051   7.534  10.004  0.4701  0.2211 -0.7783
  522MOL0     C68804   4.068   7.668   9.967  0.1530  0.3145  0.6419
  522MOL0     C68805   3.970   7.728   9.892 -0.2548 -0.2809 -1.1498
  522MOL0     C68806   3.850   7.665   9.854 -0.6345  0.5554  0.0005
  522MOL0     O68807   3.756   7.728   9.777 -0.4497 -0.5161 -0.8168
  522MOL0     C68808   3.719   7.675   9.650  0.6919 -0.1457 -0.4482
  522MOL0     C68809   3.576   7.652   9.642 -0.2660  0.3851 -0.1018
  522MOL0     C68810   3.531   7.601   9.508 -0.7867 -0.0545  1.1998
  522MOL0     C68811   3.383   7.542   9.498 -0.6749 -0.8757  0.0192
  522MOL0     C68812   3.356   7.503   9.351  0.3518  0.8766 -0.3211
  522MOL0     C68813   3.200   7.487   9.340 -0.6568  0.9705  0.5069
  522MOL0     C68814   3.149   7.476   9.194  0.4254 -0.1216  0.3510
  522MOL0     C68815   2.994   7.469   9.197  0.2826  0.4423 -0.1559
  522MOL0    Cl68816   2.903   7.487   9.046 -0.1805  0.1103 -0.0522
  522MOL0     C68817   3.833   7.539   9.898 -0.3489 -0.2503  0.1859
  522MOL0     C68818   3.937   7.470   9.966 -0.9826 -0.8717 -0.2659
  522MOL0     O68819   4.116   7.588  10.262  0.5948  0.6607 -0.3031
  522MOL0     C68820   4.370   7.358  10.203  0.2507 -0.2164 -0.0976
  522MOL0     C68821   4.495   7.325  10.255 -0.0639  1.4263  0.0267
  522MOL0     N68822   5.279   7.532  10.289  0.1307  0.0928 -0.3003
  522MOL0     N68823   5.352   7.595  10.374  0.0873  0.0404 -0.5764
  522MOL0     C68824   6.107   8.083  11.194  0.3985 -0.2644  0.0879
  522MOL0     C68825   6.237   8.084  11.239 -0.4788 -0.0750  0.2473
  522MOL0     C68826   6.677   8.196  11.277 -0.4362 -0.3528 -0.0164
  522MOL0     C68827   6.756   8.271  11.368  0.2665 -0.2693 -1.0646
  522MOL0     C68828   6.882   8.226  11.391 -0.0323  0.2899 -0.0035
  522MOL0     C68829   6.942   8.110  11.334 -0.4703 -0.9298 -0.3902
  522MOL0     O68830   7.073   8.081  11.340 -0.6260 -0.0879 -0.0015
  522MOL0     C68831   7.153   8.140  11.446 -0.8296  0.7635 -0.0397
  522MOL0     C68832   7.264   8.042  11.490  0.1821  1.2989  0.6747
  522MOL0     C68833   7.358   8.006  11.379 -0.0798  0.6588  0.3258
  522MOL0     C68834   7.400   7.854  11.377 -0.3491 -0.0278 -0.5575
  522MOL0     C68835   7.506   7.842  11.277 -0.5606  0.4508 -0.4227
  522MOL0     C68836   7.609   7.826  11.209 -0.1238 -0.7402 -1.1250
  522MOL0     C68837   6.860   8.041  11.249  0.1475  0.1289  0.2444
  522MOL0     C68838   6.733   8.085  11.217 -0.1446  0.8631  0.5203
  522MOL0     H68839   6.377   8.261  10.984 -0.5871  0.7922 -2.5448
  522MOL0     H68840   6.145   8.270  10.914  1.3973  2.1842  1.0483
  522MOL0     H68841   5.881   7.994  11.114  3.0761 -0.4339  0.4029
  522MOL0     H68842   5.916   7.983  10.934  0.5987 -0.4123  0.3143
  522MOL0     H68843   5.715   8.167  10.976  2.0938 -0.6717 -2.1465
  522MOL0     H68844   5.670   8.045  11.098  1.0793 -0.0762  1.3615
  522MOL0     H68845   5.688   7.868  10.920  1.4207 -0.1751  0.8937
  522MOL0     H68846   5.710   7.998  10.802  0.9859  2.2024  0.7646
  522MOL0     H68847   5.459   7.982  10.969 -0.5309 -1.8286 -1.2210
  522MOL0     H68848   5.489   8.093  10.834  0.3941 -0.3981 -0.4016
  522MOL0     H68849   5.465   7.796  10.842 -1.2140  1.6404  2.7739
  522MOL0     H68850   5.531   7.868  10.695 -0.9047  0.4885 -0.5598
  522MOL0     H68851   5.323   8.006  10.678  2.9862  0.3531 -0.2633
  522MOL0     H68852   5.257   7.926  10.828  0.1485  0.4250 -0.4679
  522MOL0     H68853   5.243   7.715  10.696 -1.5563  1.3132  0.8257
  522MOL0     H68854   5.155   7.848  10.616 -0.0536 -1.2808 -0.8031
  522MOL0     H68855   5.437   7.793  10.511 -0.1602  0.0055  3.1493
  522MOL0     H68856   5.307   7.895  10.462 -0.4220  1.3295  4.6063
  522MOL0     H68857   5.073   7.759  10.394 -1.5075 -0.5736 -3.7620
  522MOL0     H68858   5.095   7.538  10.083 -0.0771  1.0401 -0.0573
  522MOL0     H68859   4.984   7.657  10.167 -0.7623 -0.3105  1.4569
  522MOL0     H68860   5.043   7.373  10.262  1.0941  1.2509 -1.5486
  522MOL0     H68861   4.920   7.407  10.144  1.3301 -0.0568 -1.3366
  522MOL0     H68862   4.886   7.509  10.439  0.2331 -0.6428  0.9142
  522MOL0     H68863   4.796   7.561  10.300 -1.1722 -1.2862  0.3423
  522MOL0     H68864   4.839   7.272  10.408 -1.2490 -0.8166  0.7117
  522MOL0     H68865   4.753   7.312  10.251 -0.5961  0.5700 -0.4557
  522MOL0     H68866   4.496   7.531  10.525  1.8484  1.9021 -1.2374
  522MOL0     H68867   4.248   7.552  10.458  0.3778  2.3586 -2.4861
  522MOL0     H68868   4.165   7.714   9.986 -0.6938  2.3779  0.1785
  522MOL0     H68869   3.984   7.829   9.855  2.9715 -0.4509 -0.6614
  522MOL0     H68870   3.766   7.578   9.632  0.3342 -0.9043  2.3038
  522MOL0     H68871   3.758   7.748   9.577  2.1394  1.3514  1.6962
  522MOL0     H68872   3.537   7.751   9.665 -0.7080 -0.0017  0.8751
  522MOL0     H68873   3.551   7.576   9.717  0.4517 -0.3147 -0.5496
  522MOL0     H68874   3.605   7.529   9.473 -2.7383 -2.7329  2.2960
  522MOL0     H68875   3.540   7.679   9.431  0.3941 -1.2469  0.0702
  522MOL0     H68876   3.369   7.462   9.572  5.9395 -0.9733  1.7848
  522MOL0     H68877   3.317   7.625   9.523  0.2858 -0.3847  1.0081
  522MOL0     H68878   3.413   7.413   9.324  0.8709  1.4846 -1.2814
  522MOL0     H68879   3.388   7.583   9.285  1.1837 -0.4965 -1.6509
  522MOL0     H68880   3.156   7.569   9.398  0.3453  0.3131  2.2706
  522MOL0     H68881   3.170   7.393   9.387  1.1068 -0.5063 -1.1791
  522MOL0     H68882   3.177   7.566   9.139  1.5742 -2.2678 -2.8635
  522MOL0     H68883   3.197   7.390   9.146  0.2079 -0.6291  1.0352
  522MOL0     H68884   2.956   7.554   9.254  1.9458  0.4847  0.9445
  522MOL0     H68885   2.966   7.381   9.256  0.9869 -0.7286 -1.5199
  522MOL0     H68886   3.744   7.486   9.868  1.2285 -1.9203 -1.9163
  522MOL0     H68887   3.922   7.367   9.994 -1.5951 -0.4844  0.8994
  522MOL0     H68888   4.357   7.317  10.104  1.4284 -2.2632  0.5349
  522MOL0     H68889   4.553   7.248  10.205 -0.0520  1.2982  0.2342
  522MOL0     H68890   6.030   8.042  11.259 -2.3239 -0.7528 -3.1701
  522MOL0     H68891   6.255   8.026  11.329 -0.5380 -1.7173 -0.7767
  522MOL0     H68892   6.723   8.365  11.412 -1.7244 -1.7827  0.9293
  522MOL0     H68893   6.939   8.285  11.461  0.6013 -1.8678  1.4162
  522MOL0     H68894   7.086   8.163  11.529 -1.9134  1.6532 -1.1289
  522MOL0     H68895   7.201   8.231  11.408  0.7659  0.4817  1.1909
  522MOL0     H68896   7.316   8.094  11.571  3.1708 -0.6226  0.1323
  522MOL0     H68897   7.220   7.957  11.544  1.6394  0.8729  1.2253
  522MOL0     H68898   7.452   8.061  11.386 -0.5876  1.6372 -0.3682
  522MOL0     H68899   7.306   8.034  11.287 -1.3630 -2.9217 -0.2073
  522MOL0     H68900   7.436   7.825  11.476  0.5932 -0.7643 -1.1012
  522MOL0     H68901   7.322   7.784  11.345 -2.8458 -0.2684  4.8619
  522MOL0     H68902   7.700   7.796  11.162  1.4008  1.6657  0.0621
  522MOL0     H68903   6.901   7.948  11.211 -3.6568 -1.3972 -0.5413
  522MOL0     H68904   6.672   8.028  11.147  3.1071  0.0664 -1.8887
  523MOL0     O68905   8.142   8.151   6.589  0.1604 -0.3819 -0.0472
  523MOL0     C68906   8.246   8.206   6.546 -0.3481  0.5170 -0.0749
  523MOL0     O68907   8.279   8.340   6.529 -0.3058 -0.7994 -0.1376
  523MOL0     C68908   8.194   8.443   6.572 -0.4670 -0.1084 -0.5608
  523MOL0     C68909   8.097   8.440   6.672 -0.2015  0.4054 -0.4462
  523MOL0     C68910   8.021   8.550   6.718  0.5291 -0.6362  0.3392
  523MOL0     C68911   8.045   8.672   6.651  0.4190  0.2323  0.1196
  523MOL0     O68912   7.986   8.785   6.686 -0.5661 -0.5502 -0.2732
  523MOL0     C68913   7.980   8.811   6.824 -0.4126  1.3375 -0.0188
  523MOL0     C68914   7.957   8.958   6.841  0.0257 -0.1942 -0.3934
  523MOL0     C68915   7.808   8.996   6.841  0.0934 -0.6036  0.0697
  523MOL0     C68916   7.794   9.140   6.882  0.1570  0.1975  0.5865
  523MOL0     C68917   7.654   9.204   6.828  0.6935  0.3648  0.6148
  523MOL0     C68918   7.519   9.159   6.890 -0.1239  0.3585 -0.5879
  523MOL0     C68919   7.491   9.196   7.036 -0.2556  0.6258 -0.2985
  523MOL0     C68920   7.338   9.196   7.048 -0.2346 -0.6456  0.4068
  523MOL0     N68921   7.276   9.074   7.085 -0.0020  0.2225  0.3384
  523MOL0     C68922   7.223   8.978   6.999  0.1664 -0.3979 -0.4435
  523MOL0     C68923   7.165   8.889   7.080  0.4538 -0.7255  0.2500
  523MOL0     C68924   7.102   8.759   7.035  0.7967 -0.2707 -0.2419
  523MOL0     C68925   6.949   8.766   7.063 -0.0782  0.1875  0.2825
  523MOL0     C68926   6.876   8.879   6.984 -0.3283  0.0720  0.8763
  523MOL0     C68927   6.723   8.868   6.995 -0.4556  0.5702 -0.0224
  523MOL0     O68928   6.671   8.980   6.935  0.0051 -0.2942  0.6211
  523MOL0     C68929   6.534   8.977   6.911 -0.1683 -0.2480 -0.2131
  523MOL0     C68930   6.432   8.908   6.975  0.4790 -0.2621  0.2597
  523MOL0     C68931   6.298   8.928   6.934 -0.2096  0.0197 -0.2569
  523MOL0     C68932   6.262   9.019   6.834 -0.0519  1.0239 -0.6993
  523MOL0     C68933   6.124   9.040   6.813  1.0513 -0.4286  0.8844
  523MOL0     O68934   6.045   9.016   6.921  0.1915  1.0245  0.6161
  523MOL0     C68935   5.908   9.029   6.921  0.3593  0.0709 -0.0973
  523MOL0     C68936   5.842   8.950   7.014 -0.4454 -0.4054 -0.0112
  523MOL0     C68937   5.707   8.954   7.019  0.7250 -0.2228 -0.4967
  523MOL0     C68938   5.633   9.026   6.934  0.5818 -0.3266  0.0305
  523MOL0     O68939   5.495   9.030   6.954 -0.0769 -0.3798  0.1634
  523MOL0     C68940   5.426   8.906   6.922  0.0807  0.3091  0.0929
  523MOL0     C68941   5.291   8.899   6.991  0.1730  0.3232  0.0983
  523MOL0     C68942   5.197   9.028   6.944 -0.7294 -0.0007 -0.7227
  523MOL0     C68943   5.060   9.016   7.020  0.2607 -0.0730 -0.7322
  523MOL0     C68944   4.963   9.133   6.980 -1.2217 -0.0363 -0.2389
  523MOL0     C68945   4.823   9.137   7.045 -0.1347  0.6968  0.2070
  523MOL0     C68946   4.727   9.238   6.981  0.8021 -0.3323 -0.2511
  523MOL0     C68947   4.591   9.228   7.049 -0.2929 -0.0198  0.0783
  523MOL0    Cl68948   4.585   9.300   7.211 -0.0664  0.0200  0.3309
  523MOL0     C68949   5.696   9.112   6.829 -0.4058  0.5809  0.3007
  523MOL0     C68950   5.837   9.114   6.836 -0.4439 -0.3676  0.2401
  523MOL0     O68951   6.096   9.081   6.704  0.1057 -0.0125 -0.4799
  523MOL0     C68952   6.367   9.066   6.759 -0.1170 -0.5474 -1.0686
  523MOL0     C68953   6.497   9.054   6.803  0.2544 -0.0849  0.8267
  523MOL0     N68954   7.170   8.940   7.209  0.4867  0.7790  0.1286
  523MOL0     N68955   7.241   9.048   7.212 -0.6216 -0.3269 -0.3199
  523MOL0     C68956   8.132   8.676   6.543 -0.0587 -0.6009 -0.2813
  523MOL0     C68957   8.206   8.561   6.505 -0.1248  0.7078  0.5305
  523MOL0     C68958   8.340   8.094   6.502 -0.2569 -1.5382 -0.2286
  523MOL0     C68959   8.354   7.988   6.589  0.7505 -0.0649  0.5249
  523MOL0     C68960   8.453   7.892   6.560 -0.2322 -1.3110  0.2062
  523MOL0     C68961   8.528   7.898   6.443  0.3865  0.1674 -0.3307
  523MOL0     O68962   8.616   7.801   6.400 -0.4721  0.3032  1.0483
  523MOL0     C68963   8.670   7.689   6.480  1.0984 -0.0220 -0.4306
  523MOL0     C68964   8.800   7.653   6.407  0.1789 -0.3055 -0.3654
  523MOL0     C68965   8.876   7.550   6.497 -1.5522 -0.8163 -0.0974
  523MOL0     C68966   9.029   7.578   6.500  0.7948 -0.2333 -0.5543
  523MOL0     C68967   9.057   7.696   6.581 -0.7856  0.2002 -0.7648
  523MOL0     C68968   9.090   7.786   6.641  1.2923 -0.7728 -0.0331
  523MOL0     C68969   8.511   8.009   6.357 -0.0519 -0.1540 -0.7980
  523MOL0     C68970   8.421   8.112   6.393  0.1856  0.5476  0.7377
  523MOL0     H68971   8.079   8.346   6.723  0.0635 -0.2021 -1.4639
  523MOL0     H68972   7.952   8.540   6.801 -0.8994  1.5610 -0.4947
  523MOL0     H68973   8.075   8.793   6.877 -0.9182  0.9504  0.7687
  523MOL0     H68974   7.901   8.749   6.866  0.3353 -0.1766 -0.7534
  523MOL0     H68975   8.012   9.025   6.774 -0.2605  0.8941  0.4274
  523MOL0     H68976   7.998   8.990   6.938 -1.0775  1.3210 -0.3960
  523MOL0     H68977   7.755   8.928   6.908  1.4055 -1.0371  0.6934
  523MOL0     H68978   7.775   8.976   6.738 -0.7847 -1.6051  0.5292
  523MOL0     H68979   7.796   9.151   6.991 -0.2466  0.4730  0.5676
  523MOL0     H68980   7.879   9.191   6.837  1.5041 -1.9419  0.5664
  523MOL0     H68981   7.666   9.180   6.722  1.5360 -1.4095  1.0811
  523MOL0     H68982   7.660   9.314   6.831  2.8957  0.2979  0.5235
  523MOL0     H68983   7.522   9.050   6.891 -0.3890  0.2467 -3.3145
  523MOL0     H68984   7.439   9.196   6.825  0.1354  0.9220 -0.5991
  523MOL0     H68985   7.547   9.130   7.103  0.2313  0.0835 -1.2209
  523MOL0     H68986   7.520   9.301   7.044 -0.4348  1.1569 -4.4399
  523MOL0     H68987   7.292   9.244   6.961  1.3440  1.8660  0.8682
  523MOL0     H68988   7.313   9.265   7.128  0.0166  0.2055 -0.2361
  523MOL0     H68989   7.246   8.981   6.893  0.3181  1.7238 -0.4012
  523MOL0     H68990   7.160   8.673   7.072  0.4876 -1.2432 -1.9330
  523MOL0     H68991   7.114   8.751   6.927 -0.2757 -3.3067 -0.2288
  523MOL0     H68992   6.938   8.783   7.170  2.5390  2.2055  0.3347
  523MOL0     H68993   6.900   8.682   7.013 -2.2596  2.4506 -1.6899
  523MOL0     H68994   6.900   8.978   7.024 -3.0930  2.2529 -2.2206
  523MOL0     H68995   6.907   8.875   6.879 -2.3109  1.4125  0.1737
  523MOL0     H68996   6.694   8.867   7.100  2.8287 -1.2481  0.9994
  523MOL0     H68997   6.678   8.783   6.943  0.5612  1.8209 -3.2136
  523MOL0     H68998   6.450   8.834   7.052  1.2485 -2.7976 -2.1992
  523MOL0     H68999   6.224   8.870   6.990  1.6012 -1.0481  1.1304
  523MOL0     H69000   5.905   8.892   7.080  0.8623 -0.1045 -0.9612
  523MOL0     H69001   5.651   8.895   7.091 -0.9151  0.8998 -0.7901
  523MOL0     H69002   5.491   8.823   6.951  2.2119  1.7589 -0.2788
  523MOL0     H69003   5.407   8.903   6.814 -1.1331  0.3199  0.2878
  523MOL0     H69004   5.293   8.898   7.100  0.7184  3.8188  0.2349
  523MOL0     H69005   5.238   8.806   6.970  1.0678 -0.0052 -0.8163
  523MOL0     H69006   5.179   9.023   6.837  0.5438  0.2047 -0.9575
  523MOL0     H69007   5.238   9.125   6.972  0.0831 -0.6241  0.3443
  523MOL0     H69008   5.010   8.927   6.980 -0.2761  1.0264 -2.6621
  523MOL0     H69009   5.070   9.019   7.129  1.0859 -1.0146 -0.7717
  523MOL0     H69010   4.959   9.148   6.872  0.7295 -1.1990 -0.5059
  523MOL0     H69011   5.010   9.229   7.006  1.6769 -1.0353 -1.4010
  523MOL0     H69012   4.834   9.173   7.147 -1.8310  0.9067  0.3399
  523MOL0     H69013   4.779   9.037   7.039  0.1306  0.5346  0.8919
  523MOL0     H69014   4.772   9.338   6.976 -0.3218  0.1383 -2.0095
  523MOL0     H69015   4.702   9.215   6.877 -1.5946 -0.8627  0.3877
  523MOL0     H69016   4.560   9.124   7.038 -2.1590  0.5960 -0.9379
  523MOL0     H69017   4.518   9.286   6.992  0.5499 -1.4869 -2.6809
  523MOL0     H69018   5.649   9.184   6.763  2.8502  1.4914 -1.2495
  523MOL0     H69019   5.905   9.184   6.788  0.3929 -2.1552 -1.3501
  523MOL0     H69020   6.345   9.135   6.678  1.0738  1.1744 -0.0032
  523MOL0     H69021   6.582   9.102   6.754  0.1283  1.0132  1.6408
  523MOL0     H69022   8.143   8.774   6.498  0.9866 -0.1175  0.9496
  523MOL0     H69023   8.269   8.555   6.417 -0.7440  2.0691 -0.0377
  523MOL0     H69024   8.290   7.980   6.676 -0.0397 -0.8521 -0.1124
  523MOL0     H69025   8.474   7.821   6.639 -1.6235 -0.5368  1.3283
  523MOL0     H69026   8.601   7.605   6.479  0.6434  0.3126  0.9400
  523MOL0     H69027   8.695   7.710   6.584 -0.1470 -3.5603  0.7188
  523MOL0     H69028   8.779   7.613   6.307  0.9720  2.6912 -1.8403
  523MOL0     H69029   8.852   7.748   6.392 -0.3954  0.3476  1.5704
  523MOL0     H69030   8.854   7.448   6.463 -2.0951  0.1585 -2.9867
  523MOL0     H69031   8.840   7.563   6.600 -2.2081 -0.8575 -0.3188
  523MOL0     H69032   9.072   7.488   6.546  0.3084  1.1973  3.0111
  523MOL0     H69033   9.071   7.590   6.400  2.9078  0.1311  0.3275
  523MOL0     H69034   9.120   7.869   6.702  2.8601  0.2471 -2.0529
  523MOL0     H69035   8.584   8.008   6.276  0.4597  1.2746 -0.3725
  523MOL0     H69036   8.412   8.197   6.326 -4.7873  0.1068  0.5272
  524MOL0     O69037   5.442   4.045   2.706 -0.9540  0.1743 -0.1949
  524MOL0     C69038   5.469   3.933   2.766  0.2440 -0.6148  0.9608
  524MOL0     O69039   5.382   3.827   2.773  0.4288 -0.1190  0.0517
  524MOL0     C69040   5.251   3.830   2.729  0.1526  0.2070  0.5824
  524MOL0     C69041   5.198   3.713   2.682 -1.0013 -0.3783  0.2028
  524MOL0     C69042   5.059   3.700   2.645 -0.7339 -0.1788  0.0172
  524MOL0     C69043   4.978   3.815   2.651  1.1222 -0.0138 -1.3154
  524MOL0     O69044   4.844   3.804   2.612 -0.0970 -0.0430 -0.1236
  524MOL0     C69045   4.765   3.757   2.721  0.1462 -0.1269 -0.1467
  524MOL0     C69046   4.630   3.829   2.713  0.6790 -0.8498  0.4477
  524MOL0     C69047   4.532   3.758   2.809 -0.2243  0.1176  0.7583
  524MOL0     C69048   4.401   3.831   2.840 -0.3424  0.0503 -0.4937
  524MOL0     C69049   4.294   3.781   2.746 -0.1686 -0.6050 -0.4679
  524MOL0     C69050   4.153   3.847   2.750 -0.5528 -0.8145 -0.1642
  524MOL0     C69051   4.163   4.000   2.786 -1.0431  0.3583  0.0318
  524MOL0     C69052   4.025   4.073   2.777  0.2904 -0.8999 -0.1518
  524MOL0     N69053   3.920   4.011   2.862 -0.3052 -0.5573 -0.2599
  524MOL0     C69054   3.829   3.920   2.827  0.3399  0.4912  0.2433
  524MOL0     C69055   3.744   3.918   2.925  0.2818  0.8652 -0.2125
  524MOL0     C69056   3.621   3.832   2.927 -0.5939  0.1095  0.2548
  524MOL0     C69057   3.505   3.879   2.839 -0.2587  0.3297 -0.1695
  524MOL0     C69058   3.444   4.014   2.890  0.1593 -0.0640  0.1017
  524MOL0     C69059   3.314   3.977   2.970  0.2141 -0.3500  0.2056
  524MOL0     O69060   3.259   4.088   3.041 -0.2015  0.3901  0.5701
  524MOL0     C69061   3.146   4.140   2.987 -0.0615  0.5243  0.3219
  524MOL0     C69062   3.105   4.116   2.853  1.2355 -0.0246  0.0028
  524MOL0     C69063   2.978   4.152   2.802 -0.1765 -0.3149  0.1930
  524MOL0     C69064   2.896   4.220   2.890  1.4314  0.1164  0.8204
  524MOL0     C69065   2.765   4.257   2.844 -0.3319 -0.3983 -0.1854
  524MOL0     O69066   2.718   4.188   2.741 -0.4185  0.9127 -0.6031
  524MOL0     C69067   2.598   4.200   2.684  0.5586 -0.0262 -0.4933
  524MOL0     C69068   2.583   4.185   2.550  0.0082 -0.1055  1.2883
  524MOL0     C69069   2.461   4.182   2.483  0.3330 -0.0305 -0.1525
  524MOL0     C69070   2.340   4.200   2.550 -0.0029  0.5174  0.1168
  524MOL0     O69071   2.229   4.185   2.476  0.6558  0.2025  0.2861
  524MOL0     C69072   2.094   4.187   2.536  0.6882 -0.1330  0.1543
  524MOL0     C69073   2.034   4.327   2.546  0.3750  0.4291  0.2500
  524MOL0     C69074   1.987   4.388   2.414 -0.1811 -0.0633  0.1291
  524MOL0     C69075   2.101   4.452   2.323  0.0700  0.1431  0.2523
  524MOL0     C69076   2.049   4.541   2.204  0.2613  0.4864 -0.2495
  524MOL0     C69077   1.976   4.668   2.247  0.0506 -0.4105 -0.3277
  524MOL0     C69078   1.968   4.778   2.145  0.3129 -0.2648 -0.6304
  524MOL0     C69079   1.859   4.733   2.040 -0.3666 -0.4714 -0.9178
  524MOL0    Cl69080   1.951   4.654   1.911 -0.1265 -0.0594  0.1107
  524MOL0     C69081   2.348   4.229   2.689 -0.5262  0.0175 -0.2299
  524MOL0     C69082   2.479   4.236   2.751 -0.7838 -0.1512  0.4679
  524MOL0     O69083   2.701   4.336   2.912 -0.0185  0.4123 -1.0428
  524MOL0     C69084   2.930   4.252   3.021 -0.8059 -0.2889  0.0907
  524MOL0     C69085   3.060   4.211   3.068  0.3212  0.5173  0.5015
  524MOL0     N69086   3.781   4.004   3.026 -0.0692 -0.0204  0.3493
  524MOL0     N69087   3.892   4.066   2.987  0.2831 -0.1093  0.1614
  524MOL0     C69088   5.028   3.938   2.701 -0.5361  0.3503  0.6949
  524MOL0     C69089   5.167   3.943   2.735  0.6679  0.1971 -0.4630
  524MOL0     C69090   5.593   3.936   2.845 -0.2806  0.7557  0.0550
  524MOL0     C69091   5.662   4.055   2.881  0.6339 -0.7703 -1.0037
  524MOL0     C69092   5.786   4.050   2.942 -0.1147 -0.1854  0.9249
  524MOL0     C69093   5.851   3.926   2.968  0.8470 -0.2873 -0.5863
  524MOL0     O69094   5.974   3.929   3.032 -0.2848  0.2321 -0.0608
  524MOL0     C69095   6.026   3.822   3.105  0.9527 -0.6500 -0.1016
  524MOL0     C69096   6.167   3.860   3.161  1.4421 -0.8474  0.5089
  524MOL0     C69097   6.262   3.892   3.043 -0.4146 -0.1603 -0.1330
  524MOL0     C69098   6.398   3.927   3.112  0.5515  0.8782  0.4515
  524MOL0     C69099   6.513   3.911   3.017  0.6236 -0.1725 -0.9692
  524MOL0     C69100   6.615   3.877   2.956 -1.1076  0.1951 -0.5865
  524MOL0     C69101   5.782   3.800   2.938  0.5575 -0.0658  0.1246
  524MOL0     C69102   5.650   3.817   2.891 -0.2325 -0.0776 -0.0721
  524MOL0     H69103   5.262   3.632   2.650 -1.3069 -1.2703  1.7590
  524MOL0     H69104   5.029   3.605   2.603  2.0078 -2.2524  2.3070
  524MOL0     H69105   4.812   3.770   2.819  0.1506  0.8209 -0.2639
  524MOL0     H69106   4.748   3.651   2.702  0.3877  0.1480 -2.0453
  524MOL0     H69107   4.583   3.832   2.615 -0.2861  2.1454  0.8815
  524MOL0     H69108   4.637   3.930   2.757 -1.1812 -0.0538 -0.9748
  524MOL0     H69109   4.588   3.737   2.901  0.9308 -0.8069 -0.1276
  524MOL0     H69110   4.505   3.669   2.752 -3.8332  1.6204 -0.1349
  524MOL0     H69111   4.370   3.800   2.940 -0.4196 -3.8176 -1.5668
  524MOL0     H69112   4.425   3.938   2.840  0.4800  0.0135  3.2512
  524MOL0     H69113   4.265   3.676   2.757 -2.5385 -0.0241 -0.5870
  524MOL0     H69114   4.325   3.790   2.641 -0.2000 -0.6415 -0.4801
  524MOL0     H69115   4.106   3.795   2.834 -0.6927  2.4264  1.9283
  524MOL0     H69116   4.099   3.834   2.656 -3.4034 -2.8676  1.6098
  524MOL0     H69117   4.192   4.011   2.891  2.7680 -0.6552 -0.7573
  524MOL0     H69118   4.235   4.039   2.714  0.7121 -3.8781 -0.7910
  524MOL0     H69119   4.002   4.088   2.671  0.2028 -0.2041 -0.0403
  524MOL0     H69120   4.041   4.178   2.805  1.1997 -0.4673 -2.1404
  524MOL0     H69121   3.822   3.871   2.731 -2.4769  3.6109 -1.3854
  524MOL0     H69122   3.589   3.819   3.031 -1.3055 -2.9081 -0.2365
  524MOL0     H69123   3.642   3.726   2.906 -2.9530 -0.1782 -1.0884
  524MOL0     H69124   3.435   3.796   2.824  1.5085 -1.0914 -0.8639
  524MOL0     H69125   3.559   3.906   2.749 -0.2593  1.3945  0.1381
  524MOL0     H69126   3.520   4.061   2.953  0.3053 -1.2241  0.8151
  524MOL0     H69127   3.418   4.074   2.802 -0.6640 -4.2689 -2.7876
  524MOL0     H69128   3.356   3.903   3.038  1.3018 -2.3367 -2.4215
  524MOL0     H69129   3.252   3.914   2.906  1.1324 -2.4525  1.2819
  524MOL0     H69130   3.170   4.068   2.780  0.0552  1.7584 -2.3531
  524MOL0     H69131   2.951   4.114   2.704  0.4124 -0.6892  0.1713
  524MOL0     H69132   2.678   4.175   2.500  0.2253  3.3268  0.7684
  524MOL0     H69133   2.470   4.155   2.379  1.0050  0.1752 -0.1533
  524MOL0     H69134   2.094   4.137   2.634  2.3071 -0.5408 -0.0148
  524MOL0     H69135   2.036   4.114   2.479  0.0374 -0.1993  0.8799
  524MOL0     H69136   2.107   4.391   2.595  2.7761 -1.2574 -0.8954
  524MOL0     H69137   1.956   4.320   2.622  2.4297  0.9921  2.5085
  524MOL0     H69138   1.920   4.469   2.445 -1.1573 -1.1202  0.8380
  524MOL0     H69139   1.933   4.313   2.357  2.0514 -1.3663 -0.4036
  524MOL0     H69140   2.168   4.503   2.392 -0.0622  1.0348 -0.2688
  524MOL0     H69141   2.162   4.375   2.276 -2.3646 -1.9528  0.2710
  524MOL0     H69142   1.994   4.473   2.139  1.1720 -1.2086  0.6986
  524MOL0     H69143   2.144   4.578   2.164  1.1862 -0.2307  1.1965
  524MOL0     H69144   2.036   4.706   2.330 -0.2170  1.5139 -0.9461
  524MOL0     H69145   1.875   4.647   2.285  0.7153  1.8765  3.1929
  524MOL0     H69146   1.930   4.864   2.201 -2.3982 -0.5359 -1.9025
  524MOL0     H69147   2.071   4.789   2.110  0.9070 -4.0276 -0.4791
  524MOL0     H69148   1.792   4.816   2.014  0.9945  1.5259  1.4339
  524MOL0     H69149   1.786   4.664   2.082 -1.5887  2.0466  1.4607
  524MOL0     H69150   2.256   4.257   2.740  0.2420 -1.0859  1.9082
  524MOL0     H69151   2.476   4.246   2.859  0.6570  0.0598  0.5004
  524MOL0     H69152   2.865   4.299   3.095 -1.1570 -2.1192  1.0159
  524MOL0     H69153   3.083   4.229   3.172  4.0148 -2.3674  0.4076
  524MOL0     H69154   4.965   4.026   2.695  0.3821  0.9685 -3.9193
  524MOL0     H69155   5.199   4.039   2.775 -2.3643 -0.2918  3.7893
  524MOL0     H69156   5.632   4.154   2.847 -1.0202 -0.7297  0.4269
  524MOL0     H69157   5.837   4.144   2.958 -0.2664 -0.3082  2.2286
  524MOL0     H69158   6.026   3.735   3.039  3.5825 -0.9226  0.1712
  524MOL0     H69159   5.954   3.794   3.183 -0.5756  0.8308 -0.9186
  524MOL0     H69160   6.162   3.937   3.239  3.3392 -2.0293  1.8961
  524MOL0     H69161   6.196   3.768   3.214 -1.5481 -2.2503 -0.0962
  524MOL0     H69162   6.228   3.970   2.975  0.3717 -0.2171 -0.6099
  524MOL0     H69163   6.271   3.814   2.968 -2.1981 -0.7255  0.1978
  524MOL0     H69164   6.402   4.033   3.139  1.5886  1.9221 -3.2552
  524MOL0     H69165   6.424   3.865   3.199  1.7016  1.5506  0.6026
  524MOL0     H69166   6.717   3.864   2.925 -0.6989  1.4502  0.1480
  524MOL0     H69167   5.825   3.704   2.966 -0.2912 -0.3329  0.5408
  524MOL0     H69168   5.587   3.729   2.887 -3.2361  1.9828 -1.6133
  525MOL0     O69169   2.077   5.300   7.912 -0.3564  1.1937 -0.0686
  525MOL0     C69170   2.076   5.405   7.974  0.1757 -0.1929  0.2284
  525MOL0     O69171   2.179   5.460   8.053 -0.6987 -0.4756  0.4882
  525MOL0     C69172   2.301   5.408   8.020 -0.2261  0.1931  0.2637
  525MOL0     C69173   2.344   5.294   8.086  0.3452 -0.2803  0.4228
  525MOL0     C69174   2.465   5.232   8.053  0.7140  0.0444 -0.0751
  525MOL0     C69175   2.533   5.278   7.939  0.4814 -0.2726  0.1876
  525MOL0     O69176   2.631   5.198   7.891 -0.2372  0.3496  0.4768
  525MOL0     C69177   2.734   5.242   7.799  0.2400  0.1746 -0.6963
  525MOL0     C69178   2.816   5.356   7.853 -0.9308  0.7545  0.0519
  525MOL0     C69179   2.874   5.335   7.995 -0.2432 -0.5982 -0.3619
  525MOL0     C69180   2.973   5.227   8.013  0.0290 -0.1483 -0.7231
  525MOL0     C69181   3.037   5.234   8.152 -0.4311 -0.8061 -0.7900
  525MOL0     C69182   2.946   5.208   8.274 -0.2551 -0.7230  0.3981
  525MOL0     C69183   3.037   5.154   8.390 -0.0748  0.4345 -0.9043
  525MOL0     C69184   2.977   5.163   8.531  0.2115  0.7627 -0.3604
  525MOL0     N69185   2.853   5.081   8.543 -0.6409  0.5892 -0.1097
  525MOL0     C69186   2.738   5.112   8.482  0.7690 -0.4329  0.1103
  525MOL0     C69187   2.653   5.009   8.506  0.2038  0.5874  0.3004
  525MOL0     C69188   2.510   5.008   8.477  1.0479 -0.8529 -0.4184
  525MOL0     C69189   2.427   4.965   8.600  1.1656 -0.7367 -0.5989
  525MOL0     C69190   2.430   5.063   8.715  1.3777  0.6627 -0.0956
  525MOL0     C69191   2.361   4.999   8.837 -0.8665 -0.5794  1.3067
  525MOL0     O69192   2.217   5.014   8.817  0.4434  0.0146 -0.4812
  525MOL0     C69193   2.123   4.983   8.910 -0.7727 -0.3075  0.0722
  525MOL0     C69194   2.143   4.897   9.019  0.5399 -0.1428 -0.9395
  525MOL0     C69195   2.036   4.865   9.107 -0.2605  0.4357 -0.7898
  525MOL0     C69196   1.913   4.941   9.107 -0.6906 -0.0212  0.1356
  525MOL0     C69197   1.810   4.906   9.209  0.4193 -1.1329  0.5422
  525MOL0     O69198   1.707   4.993   9.220  0.3091  0.2843  0.4528
  525MOL0     C69199   1.596   4.968   9.294 -1.1175 -0.2635  0.4520
  525MOL0     C69200   1.473   4.982   9.251  0.3592 -0.6713  0.1033
  525MOL0     C69201   1.363   4.955   9.336 -0.6901 -1.3238 -0.1829
  525MOL0     C69202   1.380   4.932   9.477  0.6277  0.5535  0.5347
  525MOL0     O69203   1.274   4.905   9.561  0.0978  0.4415  0.1545
  525MOL0     C69204   1.144   4.955   9.516 -0.0362  0.1518 -0.7433
  525MOL0     C69205   1.048   4.941   9.634  0.7012 -1.4312  1.1104
  525MOL0     C69206   1.011   4.793   9.666 -0.2685  0.0361  0.6832
  525MOL0     C69207   0.945   4.778   9.809  0.1650 -0.4288  0.0084
  525MOL0     C69208   1.019   4.836   9.929  0.0743  0.9461  0.6917
  525MOL0     C69209   1.157   4.763   9.954  0.0183  0.0020  0.3479
  525MOL0     C69210   1.198   4.785  10.105  0.2185 -0.5474 -0.6447
  525MOL0     C69211   1.134   4.678  10.193  0.1157  0.6709 -0.3798
  525MOL0    Cl69212   1.217   4.525  10.165 -0.0747  0.3461  0.0095
  525MOL0     C69213   1.508   4.940   9.520  0.2162  0.9918 -0.0120
  525MOL0     C69214   1.616   4.955   9.435  0.8262  1.0281 -0.3831
  525MOL0     O69215   1.821   4.805   9.268  0.0950  0.2866  0.0810
  525MOL0     C69216   1.901   5.034   8.999  0.7989 -0.1547 -0.0259
  525MOL0     C69217   2.001   5.045   8.901 -0.2036  0.1518  0.0863
  525MOL0     N69218   2.727   4.922   8.586  1.1182 -0.0663 -0.0571
  525MOL0     N69219   2.836   4.970   8.618  0.0942  0.3707  0.3306
  525MOL0     C69220   2.500   5.397   7.877 -0.0461 -0.0691  0.1779
  525MOL0     C69221   2.378   5.458   7.913  0.2142  0.0148  1.6870
  525MOL0     C69222   1.953   5.487   7.972  0.0711  1.2760  0.4800
  525MOL0     C69223   1.838   5.437   7.907 -0.4064 -1.1444  0.0792
  525MOL0     C69224   1.721   5.518   7.911 -0.2422 -0.0572 -0.4077
  525MOL0     C69225   1.708   5.642   7.977 -0.8763 -0.3711 -1.0563
  525MOL0     O69226   1.592   5.721   7.978 -0.9540 -0.0956 -0.3205
  525MOL0     C69227   1.489   5.683   7.886 -0.5334  0.1352  0.0953
  525MOL0     C69228   1.376   5.791   7.919  0.0393  0.7165  0.1750
  525MOL0     C69229   1.238   5.757   7.857  0.6328 -0.1266 -0.9483
  525MOL0     C69230   1.123   5.861   7.874  0.1576  0.2846 -0.1202
  525MOL0     C69231   1.151   5.986   7.810 -0.0552 -0.5866 -0.2633
  525MOL0     C69232   1.189   6.086   7.746 -0.2796  0.0676  0.9137
  525MOL0     C69233   1.823   5.690   8.046  0.5349  0.7044  0.0191
  525MOL0     C69234   1.940   5.615   8.040 -0.0256  0.7412 -0.0452
  525MOL0     H69235   2.279   5.260   8.167  0.5759 -1.7294  0.0277
  525MOL0     H69236   2.495   5.140   8.102 -2.0519 -0.3130  1.1302
  525MOL0     H69237   2.693   5.275   7.703  0.2106  1.3798 -0.2834
  525MOL0     H69238   2.800   5.157   7.780  0.8232  0.9931 -2.6265
  525MOL0     H69239   2.753   5.445   7.853 -1.7814  0.1688 -0.0209
  525MOL0     H69240   2.891   5.369   7.774 -3.4131  0.0453 -2.5929
  525MOL0     H69241   2.794   5.319   8.068  1.4751 -3.3005  1.0821
  525MOL0     H69242   2.915   5.432   8.024 -0.4006 -0.1460 -1.5847
  525MOL0     H69243   2.942   5.126   7.987  1.7733 -1.2119  1.0484
  525MOL0     H69244   3.059   5.245   7.948  0.2782 -5.0995 -2.1651
  525MOL0     H69245   3.067   5.339   8.158 -2.2043 -0.1926 -1.8544
  525MOL0     H69246   3.117   5.160   8.146  0.3236 -0.0564 -0.2620
  525MOL0     H69247   2.882   5.122   8.252 -1.0160  0.2592 -1.4227
  525MOL0     H69248   2.888   5.297   8.302  1.7911  0.4747  1.0756
  525MOL0     H69249   3.059   5.049   8.368 -2.5963  0.1361 -2.3529
  525MOL0     H69250   3.136   5.202   8.397  0.4026 -0.7498  2.3911
  525MOL0     H69251   2.951   5.267   8.552  4.6357  2.1828 -0.7272
  525MOL0     H69252   3.051   5.124   8.602 -1.1014 -2.0305 -0.4093
  525MOL0     H69253   2.718   5.193   8.413 -4.9206 -2.6641 -1.4143
  525MOL0     H69254   2.464   4.948   8.398 -0.6993 -0.9356  0.6014
  525MOL0     H69255   2.474   5.111   8.463 -3.1961 -2.1897 -0.6771
  525MOL0     H69256   2.466   4.864   8.618  0.9771 -1.1336 -2.2079
  525MOL0     H69257   2.326   4.956   8.561  0.7045 -0.9149  0.5969
  525MOL0     H69258   2.534   5.092   8.730  1.4971  0.5129 -0.6234
  525MOL0     H69259   2.367   5.149   8.687 -1.1467 -0.8036  0.7403
  525MOL0     H69260   2.390   5.059   8.925 -0.7746  0.2185  0.7446
  525MOL0     H69261   2.391   4.895   8.854 -0.8958 -0.8573 -0.2607
  525MOL0     H69262   2.236   4.842   9.016  1.7523  1.8111 -0.7523
  525MOL0     H69263   2.041   4.781   9.175  0.3901  0.6822 -0.5188
  525MOL0     H69264   1.456   4.997   9.145  0.6754 -2.3958 -0.2085
  525MOL0     H69265   1.262   4.956   9.295 -0.9301 -0.4270  0.3918
  525MOL0     H69266   1.113   4.906   9.423  0.0335  0.3603 -0.8808
  525MOL0     H69267   1.152   5.064   9.501 -2.1361  0.6843  1.4216
  525MOL0     H69268   0.957   4.998   9.611  3.1060  3.3111  2.0338
  525MOL0     H69269   1.100   4.987   9.718  3.3936  0.1332 -1.1993
  525MOL0     H69270   1.110   4.747   9.672  0.1823  0.7276 -0.8952
  525MOL0     H69271   0.958   4.733   9.592  2.5677 -1.3529 -0.3961
  525MOL0     H69272   0.848   4.825   9.821  0.0686 -0.8038  0.8008
  525MOL0     H69273   0.929   4.671   9.826 -2.5005 -0.2098 -0.6768
  525MOL0     H69274   0.946   4.805  10.004 -1.0987 -1.5382 -1.3239
  525MOL0     H69275   1.030   4.944   9.925  3.3854  0.6841 -0.6990
  525MOL0     H69276   1.228   4.814   9.889  0.8888  0.8571  1.9049
  525MOL0     H69277   1.150   4.657   9.926 -1.2444 -0.0388  0.7264
  525MOL0     H69278   1.307   4.786  10.111  0.2303  2.6776  0.4596
  525MOL0     H69279   1.164   4.884  10.136  0.0077 -1.1174  1.0645
  525MOL0     H69280   1.025   4.681  10.183  0.2586  1.5370 -2.1894
  525MOL0     H69281   1.150   4.703  10.298 -1.6118  2.7509 -0.5367
  525MOL0     H69282   1.524   4.926   9.626  0.1726  2.1006  0.1560
  525MOL0     H69283   1.717   4.958   9.474 -0.1560 -2.9489  3.1662
  525MOL0     H69284   1.810   5.094   8.994  0.5213  0.1216  4.3812
  525MOL0     H69285   1.989   5.093   8.804  4.3673 -0.9362 -1.2751
  525MOL0     H69286   2.555   5.437   7.792 -0.8152 -1.2893 -0.9415
  525MOL0     H69287   2.355   5.549   7.858  0.7276 -1.3269 -0.9253
  525MOL0     H69288   1.846   5.343   7.854  0.3519 -1.4456  0.7169
  525MOL0     H69289   1.624   5.483   7.879  0.4107 -0.6251 -1.9099
  525MOL0     H69290   1.447   5.585   7.909  0.1027 -0.2865 -0.4963
  525MOL0     H69291   1.514   5.691   7.780 -0.6211 -0.1622  0.0504
  525MOL0     H69292   1.355   5.796   8.027  1.7704  1.7371  0.5061
  525MOL0     H69293   1.396   5.896   7.898 -2.2385  1.2032  0.2205
  525MOL0     H69294   1.206   5.665   7.908  2.2017  1.7376  4.0153
  525MOL0     H69295   1.241   5.747   7.748 -0.5557  2.4588 -1.2934
  525MOL0     H69296   1.035   5.833   7.816 -2.2941  3.3728  1.7948
  525MOL0     H69297   1.086   5.883   7.975  0.5130  0.5351 -0.0412
  525MOL0     H69298   1.248   6.156   7.690  0.2656  0.4157  1.8850
  525MOL0     H69299   1.819   5.793   8.080  0.1532 -0.1263  2.7487
  525MOL0     H69300   2.026   5.660   8.087 -1.7026  2.4549  1.5978
  526MOL0     O69301   2.307   2.750   2.016 -0.0224 -0.1422  0.8258
  526MOL0     C69302   2.212   2.786   2.087 -1.1387  0.9577  1.3179
  526MOL0     O69303   2.231   2.833   2.219  0.1010  0.4087  0.4157
  526MOL0     C69304   2.362   2.859   2.242  0.2289 -0.8326 -0.2469
  526MOL0     C69305   2.442   2.771   2.315  0.2557 -0.7934  0.0046
  526MOL0     C69306   2.574   2.800   2.337 -0.1402  0.4012  0.2101
  526MOL0     C69307   2.634   2.915   2.289 -0.7105  0.1754 -0.0442
  526MOL0     O69308   2.768   2.940   2.306 -0.6756 -1.0306 -0.3111
  526MOL0     C69309   2.849   2.847   2.394 -1.3308 -0.7755  0.7254
  526MOL0     C69310   3.000   2.868   2.406  1.0001 -0.9189  0.5125
  526MOL0     C69311   3.086   2.846   2.279  0.4514 -0.0971  0.7679
  526MOL0     C69312   3.225   2.888   2.291  0.2088 -0.1255 -0.3381
  526MOL0     C69313   3.303   2.855   2.167 -0.0845  0.3647  1.2195
  526MOL0     C69314   3.447   2.901   2.158 -0.0828 -0.2830 -0.4351
  526MOL0     C69315   3.539   2.841   2.265  0.3599  0.0659 -0.0184
  526MOL0     C69316   3.684   2.872   2.232 -0.4602 -0.3151 -0.3932
  526MOL0     N69317   3.718   3.014   2.214  0.1369 -0.1311 -0.5902
  526MOL0     C69318   3.684   3.110   2.306 -0.2083 -0.0560 -0.5587
  526MOL0     C69319   3.735   3.225   2.258  0.6293 -0.5160 -0.5727
  526MOL0     C69320   3.713   3.357   2.335 -0.2086 -0.1622 -0.6026
  526MOL0     C69321   3.590   3.423   2.289 -0.2846  0.1440  0.6691
  526MOL0     C69322   3.464   3.349   2.308 -0.1139  1.0517  0.0253
  526MOL0     C69323   3.352   3.430   2.261 -1.1417 -0.7939 -0.0074
  526MOL0     O69324   3.244   3.342   2.267 -0.2493  0.1199  0.2725
  526MOL0     C69325   3.109   3.385   2.258  0.5029 -0.0608  0.0277
  526MOL0     C69326   3.012   3.287   2.262 -0.5280  0.8882  0.6367
  526MOL0     C69327   2.878   3.310   2.224 -0.7476 -0.9554 -0.5001
  526MOL0     C69328   2.836   3.443   2.198 -0.0699  0.3421  0.6875
  526MOL0     C69329   2.700   3.472   2.192 -0.0435  0.4554 -0.3805
  526MOL0     O69330   2.628   3.369   2.238  0.0622  1.0791 -1.0517
  526MOL0     C69331   2.494   3.369   2.242 -0.3952 -1.1704  0.2474
  526MOL0     C69332   2.409   3.442   2.149 -1.0227  0.3114 -0.9343
  526MOL0     C69333   2.275   3.423   2.154 -0.3690 -0.7419  0.7360
  526MOL0     C69334   2.215   3.345   2.252  0.0153  0.0781 -0.0676
  526MOL0     O69335   2.081   3.315   2.253  0.1780 -0.1808 -0.0301
  526MOL0     C69336   2.043   3.178   2.236  0.3250  0.3679 -0.0994
  526MOL0     C69337   1.890   3.184   2.199  0.1116 -0.0706  0.8566
  526MOL0     C69338   1.806   3.112   2.307  0.0756 -0.0387 -0.4190
  526MOL0     C69339   1.659   3.103   2.267 -0.3656  0.7874  0.7576
  526MOL0     C69340   1.579   3.013   2.361  0.3988  0.8011  0.3137
  526MOL0     C69341   1.608   2.863   2.348  0.4310 -0.5491 -0.7959
  526MOL0     C69342   1.540   2.781   2.463 -1.2649  0.2556 -0.1943
  526MOL0     C69343   1.389   2.751   2.429  0.0298 -0.6503  0.2382
  526MOL0    Cl69344   1.361   2.632   2.300 -0.1374 -0.0822  0.1055
  526MOL0     C69345   2.298   3.288   2.352 -1.0168 -0.6229  0.8033
  526MOL0     C69346   2.443   3.295   2.343  0.2169  0.9266 -0.0733
  526MOL0     O69347   2.650   3.578   2.150 -0.6503  0.4996 -0.0061
  526MOL0     C69348   2.934   3.536   2.190 -0.1079 -0.8802 -0.0790
  526MOL0     C69349   3.068   3.517   2.214 -0.5032  1.3324  0.0231
  526MOL0     N69350   3.785   3.203   2.126  0.6600  0.9800 -0.9919
  526MOL0     N69351   3.767   3.078   2.105  0.0941 -0.7358  0.0173
  526MOL0     C69352   2.557   3.008   2.220 -0.0304  0.6033  0.5990
  526MOL0     C69353   2.422   2.983   2.197  0.8667 -0.1412  0.1439
  526MOL0     C69354   2.075   2.766   2.033  0.7189 -0.8668  0.4417
  526MOL0     C69355   2.042   2.687   1.919 -0.8453 -0.4895  0.0084
  526MOL0     C69356   1.913   2.683   1.875  0.0510 -0.2228  0.5192
  526MOL0     C69357   1.806   2.736   1.946  0.1491 -0.6459  0.5960
  526MOL0     O69358   1.677   2.688   1.925 -0.1414  0.0730 -0.0476
  526MOL0     C69359   1.645   2.566   1.999  0.3346  0.3235 -0.2303
  526MOL0     C69360   1.493   2.551   1.965  0.0942  0.6089 -0.3576
  526MOL0     C69361   1.443   2.420   2.045 -0.3701 -0.2207 -0.1766
  526MOL0     C69362   1.290   2.428   2.056 -0.3057 -0.2251  0.3856
  526MOL0     C69363   1.218   2.408   1.930 -0.4834  0.1269 -0.3526
  526MOL0     C69364   1.155   2.416   1.832  0.5961  0.1757  0.3628
  526MOL0     C69365   1.839   2.817   2.051 -0.6042 -0.1432  0.0194
  526MOL0     C69366   1.976   2.831   2.096  0.3700  0.4226 -0.0043
  526MOL0     H69367   2.399   2.681   2.359  1.4489 -2.0018 -1.1991
  526MOL0     H69368   2.610   2.711   2.387 -3.2887 -1.3461 -0.3680
  526MOL0     H69369   2.831   2.754   2.339 -3.3185  1.6533 -3.2379
  526MOL0     H69370   2.801   2.836   2.491 -1.1290 -0.9280  0.8107
  526MOL0     H69371   3.040   2.804   2.485  0.3976 -0.5605  1.1192
  526MOL0     H69372   3.001   2.973   2.436  1.5623 -1.0032  0.8058
  526MOL0     H69373   3.051   2.912   2.199  0.4439 -1.4245 -0.3668
  526MOL0     H69374   3.085   2.746   2.234  1.6440 -1.4227  3.4827
  526MOL0     H69375   3.228   2.995   2.310 -1.2733  0.2383 -1.9373
  526MOL0     H69376   3.274   2.839   2.376  1.7566  1.5081 -0.2268
  526MOL0     H69377   3.268   2.899   2.074 -0.2537  0.8074  1.4921
  526MOL0     H69378   3.310   2.747   2.149 -0.6729  0.3206  1.2327
  526MOL0     H69379   3.455   3.008   2.178  0.8798 -0.6875  1.6156
  526MOL0     H69380   3.482   2.870   2.059 -1.2662 -1.6922 -0.4382
  526MOL0     H69381   3.504   2.893   2.355 -1.9159  0.5910 -1.1346
  526MOL0     H69382   3.543   2.731   2.263  1.7892  0.0806 -2.4001
  526MOL0     H69383   3.712   2.806   2.149  1.5463 -0.6487  0.4850
  526MOL0     H69384   3.738   2.836   2.320  0.2137  3.4138  0.8565
  526MOL0     H69385   3.630   3.095   2.399  1.7523 -3.8232  0.1408
  526MOL0     H69386   3.801   3.420   2.317 -1.8464  2.3075 -0.3951
  526MOL0     H69387   3.710   3.344   2.444 -2.0778  2.7115 -0.2149
  526MOL0     H69388   3.590   3.437   2.180 -0.8059 -2.0841  0.3483
  526MOL0     H69389   3.580   3.523   2.333 -2.3162  0.3082 -0.0855
  526MOL0     H69390   3.468   3.258   2.246  0.3556 -0.7903  2.6110
  526MOL0     H69391   3.444   3.309   2.407  1.7288  3.4928  1.4873
  526MOL0     H69392   3.374   3.472   2.162  3.5160 -1.7489  0.4072
  526MOL0     H69393   3.339   3.516   2.327 -1.3534 -1.2164  0.5075
  526MOL0     H69394   3.048   3.189   2.290 -1.1795  0.9870  1.8967
  526MOL0     H69395   2.826   3.215   2.221  0.8899 -1.9822  1.3677
  526MOL0     H69396   2.436   3.503   2.063 -2.1722  1.6560 -0.3877
  526MOL0     H69397   2.214   3.468   2.076  1.2409  0.7450  0.2879
  526MOL0     H69398   2.059   3.118   2.326  1.0313  0.3833 -0.2092
  526MOL0     H69399   2.094   3.140   2.147  0.5310 -0.2002  0.2510
  526MOL0     H69400   1.878   3.128   2.106 -2.0388  0.5465  0.7288
  526MOL0     H69401   1.854   3.287   2.194 -2.2132 -0.8876 -0.1785
  526MOL0     H69402   1.819   3.181   2.391 -1.0893  2.2033 -1.9908
  526MOL0     H69403   1.846   3.011   2.321  1.1834  0.2560 -1.3292
  526MOL0     H69404   1.623   3.206   2.259 -0.8530  0.4468 -3.4149
  526MOL0     H69405   1.656   3.070   2.163  0.2521  3.1221 -0.0463
  526MOL0     H69406   1.473   3.029   2.341  0.5599  2.1330  0.4690
  526MOL0     H69407   1.591   3.052   2.463 -0.5312  1.1930  0.2791
  526MOL0     H69408   1.716   2.848   2.362  0.3474 -0.9105 -0.5041
  526MOL0     H69409   1.574   2.823   2.252 -0.7853 -0.3073 -0.4761
  526MOL0     H69410   1.588   2.685   2.484 -2.4277 -0.0115  1.4485
  526MOL0     H69411   1.542   2.847   2.550  1.0651  0.5405 -0.4017
  526MOL0     H69412   1.340   2.847   2.412 -2.9956 -1.0259  5.0815
  526MOL0     H69413   1.340   2.719   2.521 -2.0818  1.6649  0.0111
  526MOL0     H69414   2.259   3.228   2.433 -0.1270 -0.8754  1.0567
  526MOL0     H69415   2.508   3.246   2.414  2.0608  4.8697  1.2141
  526MOL0     H69416   2.904   3.640   2.181 -1.1924 -0.9885  1.6445
  526MOL0     H69417   3.148   3.586   2.190  1.4514 -0.8947 -0.1372
  526MOL0     H69418   2.610   3.090   2.173 -1.2727 -0.5923 -3.1626
  526MOL0     H69419   2.368   3.064   2.150 -2.8951 -3.3426 -1.6589
  526MOL0     H69420   2.128   2.654   1.862  0.3772  2.0964  0.2273
  526MOL0     H69421   1.894   2.633   1.780  0.4480  0.3657  0.1149
  526MOL0     H69422   1.653   2.582   2.107 -4.1221 -1.0927  0.5359
  526MOL0     H69423   1.698   2.477   1.965 -2.3446 -2.0010  1.2270
  526MOL0     H69424   1.429   2.631   2.004 -1.1635  0.2441 -1.5890
  526MOL0     H69425   1.468   2.550   1.859 -4.3059  3.1182  0.4031
  526MOL0     H69426   1.469   2.432   2.151 -1.1369 -0.6966  0.0793
  526MOL0     H69427   1.480   2.331   1.994 -0.3748 -1.5367  1.9902
  526MOL0     H69428   1.256   2.347   2.121 -0.4966 -1.0423 -0.7033
  526MOL0     H69429   1.257   2.525   2.093  1.3531  0.5297  0.0100
  526MOL0     H69430   1.079   2.417   1.756 -0.5303 -3.4935  1.2421
  526MOL0     H69431   1.764   2.854   2.120 -0.3277 -1.9431  1.3528
  526MOL0     H69432   1.995   2.894   2.182  0.6459  2.3759 -1.4336
  527MOL0     O69433   8.075   1.922   9.823 -0.6543  0.0105 -0.3077
  527MOL0     C69434   8.117   2.040   9.798  0.2599 -0.0434  0.6868
  527MOL0     O69435   8.069   2.153   9.854 -0.2860  0.1257 -1.1876
  527MOL0     C69436   7.951   2.155   9.929 -0.6671 -0.1519  0.8833
  527MOL0     C69437   7.947   2.102  10.056 -0.6964  0.1433  0.0965
  527MOL0     C69438   7.841   2.125  10.142  0.3609  0.4201 -0.3993
  527MOL0     C69439   7.754   2.232  10.112  0.0651  0.4913  0.5144
  527MOL0     O69440   7.659   2.270  10.201  0.1646  0.3225 -0.1363
  527MOL0     C69441   7.532   2.309  10.154  0.2831  1.0151  0.6796
  527MOL0     C69442   7.433   2.209  10.213  0.2724  0.8177  0.7210
  527MOL0     C69443   7.425   2.188  10.366  0.0005 -0.6500 -0.3604
  527MOL0     C69444   7.302   2.098  10.402 -0.0734 -1.1140 -0.8869
  527MOL0     C69445   7.163   2.159  10.368  0.0804  0.2012  0.9406
  527MOL0     C69446   7.052   2.073  10.425  0.5860 -0.5703 -0.1942
  527MOL0     C69447   6.911   2.131  10.461 -0.4849 -0.7424 -0.6835
  527MOL0     C69448   6.927   2.248  10.563 -1.1518  0.0394  0.4194
  527MOL0     N69449   7.034   2.234  10.668 -0.2189  1.0393 -0.2307
  527MOL0     C69450   7.125   2.330  10.685  0.1825 -0.2731  0.0344
  527MOL0     C69451   7.208   2.284  10.776 -0.5123 -0.3359 -0.7885
  527MOL0     C69452   7.312   2.378  10.829 -0.4450  0.3447 -0.3524
  527MOL0     C69453   7.450   2.373  10.756  0.0830  0.6272 -0.7380
  527MOL0     C69454   7.522   2.239  10.745 -0.0343 -0.1090  0.7031
  527MOL0     C69455   7.611   2.194  10.869  0.3251  0.1628  1.4740
  527MOL0     O69456   7.725   2.280  10.905  0.1043  0.6409 -0.4321
  527MOL0     C69457   7.843   2.278  10.828 -0.0512  0.0889  0.3263
  527MOL0     C69458   7.867   2.206  10.704  1.5957  0.0639 -0.4449
  527MOL0     C69459   7.964   2.232  10.616 -1.1681  0.4478  1.2700
  527MOL0     C69460   8.072   2.315  10.655  0.4416 -1.2557 -0.2690
  527MOL0     C69461   8.179   2.326  10.563 -0.6149 -0.4598 -0.6930
  527MOL0     O69462   8.177   2.252  10.449  0.1711  0.2036 -0.3612
  527MOL0     C69463   8.272   2.265  10.353  0.1456 -0.0307 -0.7107
  527MOL0     C69464   8.411   2.247  10.380 -0.8454  0.4832  0.2346
  527MOL0     C69465   8.504   2.250  10.280 -0.2173  0.5614  0.7948
  527MOL0     C69466   8.458   2.257  10.147  0.5271 -1.3233  1.1907
  527MOL0     O69467   8.559   2.246  10.051 -0.3817  0.1281  0.0838
  527MOL0     C69468   8.539   2.267   9.913  0.4244  0.0461  0.0787
  527MOL0     C69469   8.502   2.415   9.880  0.9839  0.3219  0.8634
  527MOL0     C69470   8.500   2.451   9.736  0.3051  0.5012  0.2319
  527MOL0     C69471   8.395   2.550   9.695  1.0600  0.6246  0.4215
  527MOL0     C69472   8.406   2.570   9.544  0.2454  0.5696  0.8353
  527MOL0     C69473   8.541   2.621   9.497  0.3722 -0.3751 -0.0169
  527MOL0     C69474   8.548   2.656   9.352  0.9364  0.9670  0.5343
  527MOL0     C69475   8.679   2.690   9.287 -0.8581  0.5680  0.1926
  527MOL0    Cl69476   8.643   2.726   9.111  0.9614  0.0222 -0.0097
  527MOL0     C69477   8.319   2.266  10.118 -0.9193  0.1379  0.2205
  527MOL0     C69478   8.229   2.259  10.225  0.6560 -0.2607  0.0852
  527MOL0     O69479   8.268   2.405  10.593 -0.0004 -0.1026 -0.4691
  527MOL0     C69480   8.065   2.376  10.782  0.0144 -0.9630  0.7162
  527MOL0     C69481   7.950   2.358  10.855  0.7796  0.3390  0.0595
  527MOL0     N69482   7.167   2.160  10.827 -0.5256 -0.2373  0.5933
  527MOL0     N69483   7.065   2.126  10.753 -0.5472 -0.5737  0.0460
  527MOL0     C69484   7.770   2.296   9.984 -0.3240  0.7406 -1.2067
  527MOL0     C69485   7.867   2.254   9.891  1.1646 -0.6446  0.5771
  527MOL0     C69486   8.217   2.061   9.689  0.6316  0.1846 -0.1916
  527MOL0     C69487   8.238   2.190   9.629 -0.3952  0.0748 -0.3825
  527MOL0     C69488   8.331   2.189   9.522 -0.1450 -0.6940 -0.3395
  527MOL0     C69489   8.387   2.081   9.468  0.6384  0.1241  0.4376
  527MOL0     O69490   8.472   2.098   9.360 -0.2936 -0.0074 -0.6862
  527MOL0     C69491   8.581   1.999   9.347  0.2442 -0.3952  0.0246
  527MOL0     C69492   8.701   2.021   9.441  0.1666  0.0012  0.4436
  527MOL0     C69493   8.785   2.138   9.399  0.5553 -0.3652 -0.4265
  527MOL0     C69494   8.904   2.157   9.494  0.1505  0.0735 -0.5314
  527MOL0     C69495   8.876   2.259   9.593  0.5194 -1.1694 -0.0105
  527MOL0     C69496   8.876   2.348   9.679 -0.4761 -0.3916 -0.2850
  527MOL0     C69497   8.361   1.956   9.524 -0.9461 -0.2443 -0.4467
  527MOL0     C69498   8.276   1.951   9.639 -0.0174  0.1902 -0.1550
  527MOL0     H69499   8.019   2.033  10.098 -0.8477  0.0826  0.2566
  527MOL0     H69500   7.830   2.091  10.245  1.8147  1.6967  0.2305
  527MOL0     H69501   7.521   2.310  10.046 -0.0572 -0.8718  0.6569
  527MOL0     H69502   7.510   2.405  10.201 -3.9365 -0.1041  1.3644
  527MOL0     H69503   7.458   2.117  10.159  0.8828  2.0823 -1.2514
  527MOL0     H69504   7.331   2.237  10.185  1.3988  4.2841 -0.4050
  527MOL0     H69505   7.407   2.293  10.394  0.4494  0.0294 -2.4418
  527MOL0     H69506   7.518   2.154  10.413  0.6402  1.6863  0.1963
  527MOL0     H69507   7.317   2.001  10.353  0.8081 -1.2327 -0.4012
  527MOL0     H69508   7.312   2.079  10.509 -0.3027  3.8809  0.2667
  527MOL0     H69509   7.153   2.182  10.262 -2.4882  2.5818  1.5653
  527MOL0     H69510   7.168   2.259  10.413 -1.2753  0.3090  0.9012
  527MOL0     H69511   7.085   2.019  10.515 -4.6625  0.5176  2.7714
  527MOL0     H69512   7.021   1.995  10.354  0.6826 -1.4232  0.6875
  527MOL0     H69513   6.847   2.158  10.377 -3.4311 -0.3897  1.5184
  527MOL0     H69514   6.861   2.052  10.517 -0.0388  1.0601  2.5405
  527MOL0     H69515   6.833   2.280  10.609 -0.2661  1.4035  1.3350
  527MOL0     H69516   6.946   2.339  10.506 -0.0403  1.4566  2.8856
  527MOL0     H69517   7.116   2.427  10.636  1.0200 -0.3373 -0.2629
  527MOL0     H69518   7.336   2.354  10.933  4.0585  0.1617 -1.2023
  527MOL0     H69519   7.282   2.483  10.815  1.3726  1.0223  0.3900
  527MOL0     H69520   7.529   2.432  10.802 -0.0560  1.4391 -1.5183
  527MOL0     H69521   7.441   2.411  10.653  1.1877 -2.2006 -1.9857
  527MOL0     H69522   7.445   2.162  10.728 -1.8361  1.5379  1.0118
  527MOL0     H69523   7.581   2.252  10.654 -3.0657 -1.2382 -1.6135
  527MOL0     H69524   7.630   2.087  10.855  1.2288  0.2298  2.0891
  527MOL0     H69525   7.545   2.178  10.955 -4.1019 -1.3425 -1.8414
  527MOL0     H69526   7.803   2.121  10.684  4.1851 -2.4596  1.3816
  527MOL0     H69527   7.954   2.166  10.531 -2.3813 -1.3661  2.7374
  527MOL0     H69528   8.448   2.222  10.479 -1.1712  0.3917  0.3325
  527MOL0     H69529   8.610   2.245  10.302 -0.0571  1.3097  0.2101
  527MOL0     H69530   8.476   2.190   9.867  2.2746  0.2792 -3.0961
  527MOL0     H69531   8.635   2.243   9.866  0.4187  2.4259 -1.3103
  527MOL0     H69532   8.583   2.472   9.925  1.2003 -0.5183  1.5769
  527MOL0     H69533   8.409   2.437   9.933 -0.1810  0.0123 -0.9516
  527MOL0     H69534   8.482   2.359   9.680  0.2928 -0.2413  1.4257
  527MOL0     H69535   8.601   2.493   9.725 -0.4067  1.7383 -2.5543
  527MOL0     H69536   8.301   2.497   9.713  2.3180 -2.6766 -1.8056
  527MOL0     H69537   8.394   2.639   9.758  0.9072  1.2783 -0.4867
  527MOL0     H69538   8.321   2.635   9.520 -0.4526  0.1507  2.1001
  527MOL0     H69539   8.383   2.482   9.483 -0.4986  2.9778 -2.6772
  527MOL0     H69540   8.612   2.538   9.503  0.6341 -0.0726  1.1870
  527MOL0     H69541   8.575   2.704   9.559 -1.6040  0.8935 -0.5549
  527MOL0     H69542   8.509   2.570   9.296  3.3750  0.9505 -1.3474
  527MOL0     H69543   8.488   2.740   9.316  1.2778 -0.2863 -3.5282
  527MOL0     H69544   8.748   2.606   9.296  0.7275  1.3709 -3.0066
  527MOL0     H69545   8.723   2.775   9.339 -0.6287  0.4114  0.2557
  527MOL0     H69546   8.285   2.277  10.015  0.8315 -1.6247 -0.6054
  527MOL0     H69547   8.121   2.263  10.217  0.6025  0.1028  0.9116
  527MOL0     H69548   8.150   2.433  10.817  1.8729 -2.4547 -1.1247
  527MOL0     H69549   7.937   2.421  10.942  1.9631 -0.0735  0.5580
  527MOL0     H69550   7.707   2.380   9.959  3.3710  3.9758 -0.5771
  527MOL0     H69551   7.881   2.282   9.787  5.3958 -0.1744  1.0929
  527MOL0     H69552   8.178   2.280   9.639 -0.6660  0.2407 -2.8751
  527MOL0     H69553   8.358   2.285   9.480 -0.1577 -0.2103  0.7338
  527MOL0     H69554   8.616   2.001   9.243 -0.4188  0.5392 -0.1904
  527MOL0     H69555   8.542   1.897   9.356 -0.1322 -0.3562 -1.0181
  527MOL0     H69556   8.675   2.041   9.546  1.0391  5.4736 -0.0932
  527MOL0     H69557   8.756   1.926   9.431 -1.3357 -0.7409 -1.2610
  527MOL0     H69558   8.724   2.228   9.408  2.3790  0.8830 -0.0994
  527MOL0     H69559   8.820   2.114   9.298  2.6435 -0.4403  0.2649
  527MOL0     H69560   8.914   2.070   9.558 -0.2088  0.5058  0.1232
  527MOL0     H69561   9.000   2.185   9.450  0.9102  2.3030  2.2266
  527MOL0     H69562   8.878   2.418   9.760 -1.2469 -2.0707  1.2637
  527MOL0     H69563   8.396   1.856   9.499 -2.0016 -1.0741  1.1945
  527MOL0     H69564   8.254   1.856   9.687 -1.1701  1.9573  3.0987
  528MOL0     O69565   6.579   9.769   2.564 -0.0538  0.0527  0.2274
  528MOL0     C69566   6.588   9.671   2.487 -0.0923  0.2500 -1.1219
  528MOL0     O69567   6.489   9.604   2.424 -0.1771  0.3536  0.0012
  528MOL0     C69568   6.365   9.654   2.420 -0.2214  0.4159  0.1761
  528MOL0     C69569   6.269   9.601   2.507  0.1765 -0.6524 -0.5624
  528MOL0     C69570   6.143   9.661   2.524  0.6726 -0.4942  0.1814
  528MOL0     C69571   6.104   9.768   2.449 -0.4477 -0.3171 -0.3911
  528MOL0     O69572   5.990   9.838   2.462  0.1187 -0.3840 -0.3628
  528MOL0     C69573   5.874   9.788   2.393  0.7472  1.2046  0.0281
  528MOL0     C69574   5.754   9.859   2.434  1.4368  0.7123  0.5905
  528MOL0     C69575   5.698   9.945   2.322  0.0694  0.4495  0.6911
  528MOL0     C69576   5.793  10.060   2.277  0.0073 -0.6559 -0.4618
  528MOL0     C69577   5.740  10.116   2.137 -0.1620  0.7567 -0.2993
  528MOL0     C69578   5.610  10.204   2.147 -0.4140  0.8727 -0.2413
  528MOL0     C69579   5.534  10.212   2.014  0.3879  0.2920  0.0025
  528MOL0     C69580   5.467  10.079   1.979 -0.2607 -0.3402 -0.3829
  528MOL0     N69581   5.389  10.096   1.850 -1.2106 -0.3869 -0.5726
  528MOL0     C69582   5.257  10.097   1.836  0.3831 -0.0970  0.4188
  528MOL0     C69583   5.240  10.106   1.702 -0.2769 -0.6235  0.7354
  528MOL0     C69584   5.105  10.112   1.622 -0.6483  0.3752 -0.1400
  528MOL0     C69585   5.036   9.971   1.613 -1.0637  0.2634  0.4609
  528MOL0     C69586   4.897   9.993   1.560  0.3586  0.0409  0.3506
  528MOL0     C69587   4.797  10.041   1.670 -0.1482  0.2390  0.5870
  528MOL0     O69588   4.779   9.933   1.757  0.2016 -0.4010 -0.5512
  528MOL0     C69589   4.658   9.870   1.741 -0.9168 -0.5794 -0.0052
  528MOL0     C69590   4.535   9.921   1.786 -0.6514 -0.6885 -0.3544
  528MOL0     C69591   4.422   9.838   1.796 -0.2399 -0.1332 -0.5854
  528MOL0     C69592   4.432   9.711   1.723  0.1966  0.0572 -0.2783
  528MOL0     C69593   4.305   9.633   1.700  0.3251 -0.4425  0.5709
  528MOL0     O69594   4.189   9.693   1.750 -0.7403 -0.5538  0.0901
  528MOL0     C69595   4.058   9.645   1.718  0.4365  0.2705 -0.1651
  528MOL0     C69596   3.955   9.665   1.810  0.3658 -0.3872  0.8125
  528MOL0     C69597   3.831   9.615   1.790 -0.4543  0.9150  0.0497
  528MOL0     C69598   3.804   9.533   1.676 -0.1360  0.4881 -0.4082
  528MOL0     O69599   3.684   9.473   1.661  0.1540 -0.2508 -0.1987
  528MOL0     C69600   3.668   9.359   1.744  0.1663  1.1779 -0.1915
  528MOL0     C69601   3.537   9.286   1.702 -0.1845 -0.2704  0.8719
  528MOL0     C69602   3.410   9.374   1.719  0.4490  0.2131  0.0126
  528MOL0     C69603   3.289   9.317   1.648 -0.5179  0.7462  0.5118
  528MOL0     C69604   3.230   9.185   1.702 -0.2976  0.3927  0.4773
  528MOL0     C69605   3.164   9.205   1.841 -0.4816 -0.9481 -0.4580
  528MOL0     C69606   3.107   9.069   1.895 -0.2184 -0.5466  0.3779
  528MOL0     C69607   2.954   9.071   1.891  0.0496 -0.2159  0.2367
  528MOL0    Cl69608   2.898   9.075   1.721 -0.8299  0.2135  0.2246
  528MOL0     C69609   3.903   9.508   1.577 -0.1216  0.4868  0.0795
  528MOL0     C69610   4.025   9.576   1.595 -0.2403  0.0956 -1.0770
  528MOL0     O69611   4.311   9.526   1.651  0.2545 -0.4343  0.0799
  528MOL0     C69612   4.556   9.674   1.663 -1.0509  0.1737  0.6280
  528MOL0     C69613   4.664   9.746   1.678  0.3978 -0.4937 -0.0483
  528MOL0     N69614   5.362  10.130   1.642 -0.7972 -0.1421 -0.9560
  528MOL0     N69615   5.454  10.106   1.737 -0.3385 -0.6447  0.1606
  528MOL0     C69616   6.193   9.822   2.362 -0.1699 -0.0947 -0.2212
  528MOL0     C69617   6.319   9.766   2.343 -0.6282 -0.3529  0.2589
  528MOL0     C69618   6.724   9.610   2.465  0.0614  0.6796  0.7700
  528MOL0     C69619   6.749   9.503   2.384 -0.5382 -0.1929  0.5089
  528MOL0     C69620   6.883   9.485   2.339  0.5931 -0.3323  0.4024
  528MOL0     C69621   6.992   9.548   2.404 -0.0572 -0.7072  0.0051
  528MOL0     O69622   7.124   9.528   2.362 -0.1196  0.4553 -0.2464
  528MOL0     C69623   7.244   9.572   2.436 -0.1371 -0.1082  0.1157
  528MOL0     C69624   7.373   9.499   2.376  0.6848 -0.4952  0.2613
  528MOL0     C69625   7.400   9.539   2.230 -0.4955 -0.6712 -0.1040
  528MOL0     C69626   7.458   9.680   2.208 -0.0825 -1.1168 -0.4632
  528MOL0     C69627   7.511   9.674   2.074 -0.1659 -0.1201 -0.3578
  528MOL0     C69628   7.540   9.663   1.955 -0.9028  0.0004  0.3665
  528MOL0     C69629   6.964   9.644   2.501  0.5431 -0.2061 -0.3089
  528MOL0     C69630   6.832   9.676   2.533 -0.4664 -0.0815  0.2852
  528MOL0     H69631   6.286   9.518   2.575  3.1104 -1.0065 -1.5752
  528MOL0     H69632   6.071   9.628   2.597  1.1993  0.3779  1.1228
  528MOL0     H69633   5.870   9.680   2.415  0.4625  1.5431  1.7993
  528MOL0     H69634   5.892   9.793   2.285  3.2785  2.3801  0.4441
  528MOL0     H69635   5.779   9.920   2.521  0.8299  0.8586  0.6679
  528MOL0     H69636   5.669   9.800   2.469 -0.0244  2.8730  0.9502
  528MOL0     H69637   5.596   9.980   2.345 -2.0049 -3.7999 -1.0969
  528MOL0     H69638   5.676   9.882   2.236  0.2394 -0.8656  1.5810
  528MOL0     H69639   5.792  10.139   2.353  1.2546 -0.6937 -0.3791
  528MOL0     H69640   5.894  10.022   2.260 -0.4104 -1.1320 -2.0745
  528MOL0     H69641   5.722  10.029   2.072  0.1020  0.2282  0.3270
  528MOL0     H69642   5.825  10.170   2.093 -0.6353  0.7619 -1.2361
  528MOL0     H69643   5.634  10.306   2.177 -0.0194  1.7042 -3.0673
  528MOL0     H69644   5.544  10.166   2.226 -0.7593 -0.7309 -1.2350
  528MOL0     H69645   5.453  10.285   2.019  1.1331  1.1060  0.4756
  528MOL0     H69646   5.594  10.251   1.931 -2.9868  1.5482 -2.0071
  528MOL0     H69647   5.411  10.038   2.064  1.4972  0.4207  1.1986
  528MOL0     H69648   5.544  10.008   1.949  3.0651  3.5327 -1.8975
  528MOL0     H69649   5.187  10.074   1.916  0.3615 -1.6412 -0.0028
  528MOL0     H69650   5.136  10.154   1.525 -1.0346 -1.2619 -1.0125
  528MOL0     H69651   5.040  10.182   1.674  0.7199 -0.6857  3.2925
  528MOL0     H69652   5.033   9.918   1.709  1.0362  1.1995  1.1053
  528MOL0     H69653   5.098   9.914   1.542 -0.9311  2.7532 -1.5661
  528MOL0     H69654   4.895  10.054   1.470 -1.2315  3.4899  2.4963
  528MOL0     H69655   4.863   9.894   1.528 -0.3149 -1.0490  3.8949
  528MOL0     H69656   4.706  10.090   1.636 -0.4400  0.4675  1.6717
  528MOL0     H69657   4.835  10.127   1.726 -2.8557  1.1337  1.2138
  528MOL0     H69658   4.524  10.016   1.837 -1.2257 -1.6116  1.3569
  528MOL0     H69659   4.334   9.865   1.853 -0.6520 -1.3286 -0.6261
  528MOL0     H69660   3.992   9.708   1.902  1.2433 -0.4763  0.5137
  528MOL0     H69661   3.747   9.651   1.849 -2.7390  1.3306 -3.1689
  528MOL0     H69662   3.658   9.396   1.847 -2.9029  0.8955 -0.2975
  528MOL0     H69663   3.750   9.289   1.725 -0.8209  0.4103 -1.7718
  528MOL0     H69664   3.537   9.192   1.758  1.7314 -0.0564  1.2993
  528MOL0     H69665   3.551   9.264   1.596 -0.2393 -3.6188  1.4519
  528MOL0     H69666   3.431   9.475   1.684  2.8562  0.5638  2.1929
  528MOL0     H69667   3.380   9.395   1.823  2.2461  2.6143  0.1425
  528MOL0     H69668   3.206   9.386   1.660 -0.2532  1.4267 -1.1897
  528MOL0     H69669   3.316   9.305   1.542 -1.6160 -2.0314  0.4563
  528MOL0     H69670   3.314   9.115   1.702 -1.5415 -1.1798  1.9575
  528MOL0     H69671   3.158   9.154   1.626  0.9236 -0.2660 -0.4420
  528MOL0     H69672   3.090   9.284   1.838  0.0414 -0.3677  0.8820
  528MOL0     H69673   3.234   9.245   1.915  0.4878  0.7600 -2.2183
  528MOL0     H69674   3.138   8.991   1.824  4.1064  0.8818  0.4223
  528MOL0     H69675   3.153   9.035   1.989 -1.1680  1.6916  1.7335
  528MOL0     H69676   2.918   9.167   1.931 -0.2571 -0.5958  0.8893
  528MOL0     H69677   2.911   8.985   1.942  1.3279 -2.4160 -2.1654
  528MOL0     H69678   3.890   9.434   1.499 -2.3901  0.0616  0.8046
  528MOL0     H69679   4.103   9.567   1.520 -0.9203  1.6997 -2.0337
  528MOL0     H69680   4.565   9.583   1.606 -1.2369  1.3284 -1.3623
  528MOL0     H69681   4.763   9.709   1.652  1.9597  0.8912  3.3434
  528MOL0     H69682   6.155   9.905   2.304 -1.2922 -1.3183 -1.3187
  528MOL0     H69683   6.393   9.815   2.281 -0.1640 -0.5382  0.6550
  528MOL0     H69684   6.669   9.443   2.341 -1.9749  1.0811  1.3028
  528MOL0     H69685   6.909   9.421   2.256  0.0999  0.4585 -0.3787
  528MOL0     H69686   7.224   9.528   2.534  2.4473 -1.1853  0.2355
  528MOL0     H69687   7.248   9.680   2.450 -2.1113  0.1618 -1.0103
  528MOL0     H69688   7.466   9.517   2.430  3.7466  1.5997 -4.9699
  528MOL0     H69689   7.345   9.394   2.375  1.8984 -0.8773 -2.2328
  528MOL0     H69690   7.315   9.524   2.163 -1.1441 -1.5257  0.8811
  528MOL0     H69691   7.487   9.478   2.203 -0.4112 -1.6992  2.2153
  528MOL0     H69692   7.382   9.757   2.225 -0.2255 -1.4761  0.6581
  528MOL0     H69693   7.529   9.699   2.289 -0.4084  2.6338 -0.8879
  528MOL0     H69694   7.582   9.626   1.863  0.2726  0.9942  0.4822
  528MOL0     H69695   7.027   9.686   2.579 -1.0382  3.1631 -0.6968
  528MOL0     H69696   6.800   9.762   2.591 -1.2240 -1.0916  1.4224
  529MOL0     O69697   4.270   8.543   2.974  0.3191 -0.6879  0.8256
  529MOL0     C69698   4.290   8.613   3.069 -0.5674 -0.3822 -0.0685
  529MOL0     O69699   4.206   8.711   3.121 -0.4146 -0.0100  0.3205
  529MOL0     C69700   4.073   8.727   3.102  1.1264  0.7344 -0.4387
  529MOL0     C69701   3.986   8.650   3.021 -0.5605  0.1380  0.0753
  529MOL0     C69702   3.846   8.679   3.018  1.7168 -0.0958 -0.2178
  529MOL0     C69703   3.800   8.775   3.106  0.0431 -0.4257  0.2023
  529MOL0     O69704   3.659   8.802   3.138  0.0954  0.4092  0.4172
  529MOL0     C69705   3.564   8.705   3.082 -0.2717  0.5203  0.0158
  529MOL0     C69706   3.445   8.707   3.184  0.1194 -0.4459  0.1515
  529MOL0     C69707   3.398   8.572   3.246  0.2308 -0.6269 -0.9022
  529MOL0     C69708   3.516   8.494   3.315 -0.1950  0.3949  0.3515
  529MOL0     C69709   3.482   8.348   3.324 -0.4275  0.2952  0.9986
  529MOL0     C69710   3.343   8.328   3.389 -0.3013 -0.5989 -0.3447
  529MOL0     C69711   3.320   8.190   3.443 -0.1084  0.3492  0.7748
  529MOL0     C69712   3.202   8.191   3.554  0.1867  0.0667 -0.4909
  529MOL0     N69713   3.259   8.241   3.678  0.3021 -0.3402 -1.3167
  529MOL0     C69714   3.208   8.340   3.762  0.5208 -0.3477 -0.5157
  529MOL0     C69715   3.271   8.330   3.877 -0.8750 -0.1463 -0.3204
  529MOL0     C69716   3.251   8.411   4.001 -0.0439  0.1911 -0.2272
  529MOL0     C69717   3.167   8.345   4.110 -0.1567 -0.8282  0.5432
  529MOL0     C69718   3.022   8.340   4.072  0.3154  0.7603  0.0138
  529MOL0     C69719   2.940   8.248   4.159  0.2206  0.7981  0.1132
  529MOL0     O69720   2.799   8.262   4.128 -0.2408  1.2338  0.8081
  529MOL0     C69721   2.719   8.158   4.150 -0.5209  0.5972  0.9973
  529MOL0     C69722   2.587   8.150   4.099 -0.5451 -0.3386  0.7804
  529MOL0     C69723   2.496   8.069   4.151  0.1298  0.1272 -0.5219
  529MOL0     C69724   2.528   7.977   4.255 -0.6944  0.0476  0.4001
  529MOL0     C69725   2.423   7.890   4.324  0.1292 -0.0156  0.0293
  529MOL0     O69726   2.295   7.935   4.338  0.6239  0.1018 -0.0747
  529MOL0     C69727   2.183   7.853   4.370 -1.0668  1.4365  0.3076
  529MOL0     C69728   2.075   7.913   4.423  0.3170  0.2399 -0.7688
  529MOL0     C69729   1.961   7.841   4.462  0.3375  0.0980  0.0867
  529MOL0     C69730   1.957   7.708   4.451  0.8478 -0.4743 -0.3556
  529MOL0     O69731   1.840   7.662   4.508 -1.0186 -0.1887  0.2827
  529MOL0     C69732   1.807   7.523   4.485  0.0953  0.0127  0.2250
  529MOL0     C69733   1.669   7.487   4.542  0.5097  0.0371 -0.3669
  529MOL0     C69734   1.644   7.497   4.693  0.3260 -0.2932 -0.5408
  529MOL0     C69735   1.659   7.643   4.744 -0.3405 -0.0465 -0.1274
  529MOL0     C69736   1.603   7.649   4.886  0.0312  0.4875  0.5640
  529MOL0     C69737   1.620   7.787   4.955  0.1731  0.3871 -0.9309
  529MOL0     C69738   1.500   7.878   4.930 -0.0887  0.0184  0.3393
  529MOL0     C69739   1.521   8.033   4.959  0.3969  0.7993  0.0691
  529MOL0    Cl69740   1.355   8.098   4.984  0.3573 -0.2914 -0.3719
  529MOL0     C69741   2.063   7.642   4.392  0.3406  0.9509  0.4626
  529MOL0     C69742   2.178   7.708   4.353  0.0733  0.0476 -0.0703
  529MOL0     O69743   2.466   7.786   4.376  0.0900 -0.2565 -0.0272
  529MOL0     C69744   2.664   7.961   4.285 -0.0098  0.3393 -0.3488
  529MOL0     C69745   2.755   8.055   4.240 -0.6079  0.2356  0.6064
  529MOL0     N69746   3.361   8.228   3.868 -1.1897  0.0345 -0.0996
  529MOL0     N69747   3.364   8.179   3.745  1.6829 -0.6182 -0.2030
  529MOL0     C69748   3.885   8.840   3.183 -0.7068 -0.3555 -0.4233
  529MOL0     C69749   4.017   8.837   3.170 -0.7690  0.6335  0.1384
  529MOL0     C69750   4.426   8.589   3.133  0.5272  0.4735 -0.6481
  529MOL0     C69751   4.521   8.500   3.075  1.2998 -0.9889  0.2346
  529MOL0     C69752   4.649   8.489   3.127  1.0770  0.6890 -0.5644
  529MOL0     C69753   4.688   8.571   3.237  0.1022 -0.5214  0.2583
  529MOL0     O69754   4.815   8.562   3.282  0.8241  0.0555 -0.6618
  529MOL0     C69755   4.859   8.630   3.403  0.1325  0.1789 -0.1127
  529MOL0     C69756   5.001   8.667   3.378 -0.4802  1.0594 -0.2753
  529MOL0     C69757   5.013   8.740   3.236 -0.3730  0.4040  0.0864
  529MOL0     C69758   5.155   8.782   3.201  0.5084 -0.0642 -0.3159
  529MOL0     C69759   5.197   8.899   3.270  0.1046 -0.3585  0.6137
  529MOL0     C69760   5.237   9.001   3.320 -0.0773 -0.8657 -0.9581
  529MOL0     C69761   4.588   8.649   3.292 -0.7437  0.1330 -0.1467
  529MOL0     C69762   4.461   8.669   3.238 -0.0876 -0.4368  0.0650
  529MOL0     H69763   4.040   8.576   2.963  1.4279 -0.5055  2.5720
  529MOL0     H69764   3.782   8.615   2.958 -2.3271  1.9293  1.5790
  529MOL0     H69765   3.597   8.601   3.070  1.7314  0.8312  2.1950
  529MOL0     H69766   3.536   8.726   2.978  0.0440  2.3265  0.2791
  529MOL0     H69767   3.356   8.740   3.130 -0.2846 -0.1968  0.9598
  529MOL0     H69768   3.459   8.767   3.274  1.6540  0.3760 -0.5747
  529MOL0     H69769   3.370   8.508   3.162 -0.9785  1.2748 -2.0300
  529MOL0     H69770   3.317   8.594   3.316  2.5823  0.1797  1.7756
  529MOL0     H69771   3.607   8.509   3.256  1.6057 -3.1408  1.9430
  529MOL0     H69772   3.536   8.529   3.417 -2.4518  2.6528  0.1194
  529MOL0     H69773   3.558   8.305   3.390  0.2349  0.7169  0.5249
  529MOL0     H69774   3.478   8.293   3.229 -2.2814 -0.8538  1.6807
  529MOL0     H69775   3.267   8.355   3.316 -0.3871 -1.2860 -0.5181
  529MOL0     H69776   3.343   8.404   3.468  0.7774 -0.3336 -0.5865
  529MOL0     H69777   3.300   8.137   3.349  0.7439  0.7349  0.3645
  529MOL0     H69778   3.409   8.144   3.487  0.7025  1.0474 -0.1162
  529MOL0     H69779   3.165   8.089   3.569 -1.1996  0.9408  2.8006
  529MOL0     H69780   3.121   8.256   3.521 -1.2075 -0.8790  0.9536
  529MOL0     H69781   3.125   8.409   3.747  0.6233 -0.0016  0.4300
  529MOL0     H69782   3.214   8.512   3.982 -0.0671  0.4674  1.1861
  529MOL0     H69783   3.352   8.419   4.043  1.3346  0.3537 -3.3003
  529MOL0     H69784   3.181   8.403   4.202  0.8393 -2.0741  1.1948
  529MOL0     H69785   3.203   8.246   4.140  0.0277 -0.8722  0.1771
  529MOL0     H69786   2.985   8.442   4.085  0.6306  0.5823  3.0166
  529MOL0     H69787   2.999   8.315   3.968 -0.3794  1.6513 -0.0584
  529MOL0     H69788   2.963   8.279   4.261 -1.2343  0.8513  0.4480
  529MOL0     H69789   2.977   8.147   4.142  0.3362  0.5992  1.4436
  529MOL0     H69790   2.567   8.232   4.031  1.4692 -0.5937 -0.1966
  529MOL0     H69791   2.393   8.079   4.118 -1.0447 -3.2960  1.5288
  529MOL0     H69792   2.066   8.019   4.447  1.0052 -0.3624  2.5992
  529MOL0     H69793   1.878   7.879   4.521 -0.8110  0.4602 -1.7073
  529MOL0     H69794   1.891   7.474   4.535  0.1965  0.6627  0.7070
  529MOL0     H69795   1.815   7.496   4.380 -3.8712 -3.7132  0.5830
  529MOL0     H69796   1.653   7.386   4.505  0.9565  0.7711 -2.7100
  529MOL0     H69797   1.595   7.555   4.499 -1.6838  0.8537  4.0386
  529MOL0     H69798   1.722   7.436   4.739  1.1181  2.5569  2.2471
  529MOL0     H69799   1.546   7.467   4.730 -0.0652  2.5122  0.9672
  529MOL0     H69800   1.760   7.683   4.755 -0.8105  1.2960 -0.4910
  529MOL0     H69801   1.600   7.708   4.680 -1.3290 -0.9771 -0.2060
  529MOL0     H69802   1.643   7.565   4.942 -1.5636 -0.8308 -0.1787
  529MOL0     H69803   1.497   7.621   4.886  0.2566 -0.7547 -2.4853
  529MOL0     H69804   1.707   7.834   4.908  1.0108  1.0878  1.1814
  529MOL0     H69805   1.643   7.770   5.061 -0.5036 -1.9794 -1.1190
  529MOL0     H69806   1.475   7.868   4.824  1.8134 -2.1700  0.0150
  529MOL0     H69807   1.417   7.848   4.994  1.3536  2.0247  3.3739
  529MOL0     H69808   1.564   8.080   4.870 -2.8997  1.4767 -1.3195
  529MOL0     H69809   1.575   8.046   5.054 -2.6410  0.5376  1.9685
  529MOL0     H69810   2.054   7.538   4.361 -2.2145 -0.2534  4.5667
  529MOL0     H69811   2.253   7.651   4.299  0.1109  1.3029 -1.4149
  529MOL0     H69812   2.699   7.887   4.356 -0.2871 -0.6837 -1.2519
  529MOL0     H69813   2.842   8.050   4.305  0.1819  0.0267 -0.4426
  529MOL0     H69814   3.841   8.909   3.255 -1.5127 -1.0125 -0.2743
  529MOL0     H69815   4.085   8.900   3.226 -0.2443  1.3750 -1.2886
  529MOL0     H69816   4.492   8.436   2.993 -0.9804 -0.5741  0.6494
  529MOL0     H69817   4.714   8.408   3.099 -0.9306 -2.1891  2.3839
  529MOL0     H69818   4.855   8.560   3.487 -1.1012  1.7621  1.2208
  529MOL0     H69819   4.795   8.715   3.431 -1.1887 -0.9807  0.5499
  529MOL0     H69820   5.043   8.728   3.457  0.1130  1.6173 -1.0097
  529MOL0     H69821   5.058   8.575   3.360  0.8813  2.0141 -1.0326
  529MOL0     H69822   4.938   8.821   3.242  0.0536  0.9520 -1.4698
  529MOL0     H69823   4.976   8.679   3.154  2.2569  0.4712 -1.2403
  529MOL0     H69824   5.225   8.708   3.239 -0.8543 -0.2706  1.9582
  529MOL0     H69825   5.161   8.813   3.096 -1.8334 -0.4588 -0.6299
  529MOL0     H69826   5.270   9.103   3.332 -1.1639 -0.2164 -3.0231
  529MOL0     H69827   4.598   8.708   3.382  0.6035  1.7612 -1.3007
  529MOL0     H69828   4.390   8.731   3.292  0.6769  2.0173 -1.5787
  530MOL0     O69829   8.395   9.230   6.187 -0.6194 -0.1056  0.7744
  530MOL0     C69830   8.342   9.272   6.080 -0.0641 -0.1096 -0.1891
  530MOL0     O69831   8.393   9.381   6.004 -0.1955 -0.4699 -0.3700
  530MOL0     C69832   8.506   9.449   6.042 -0.5866 -0.6838 -0.1204
  530MOL0     C69833   8.521   9.589   6.019 -0.2756 -0.3071 -0.0819
  530MOL0     C69834   8.627   9.679   6.061  0.3010  0.1368 -0.4641
  530MOL0     C69835   8.735   9.618   6.132 -0.5860  0.7363 -0.5733
  530MOL0     O69836   8.852   9.692   6.155  0.8934  0.1901 -0.1343
  530MOL0     C69837   8.948   9.655   6.257 -0.2365 -0.8572  0.0927
  530MOL0     C69838   9.048   9.772   6.275 -0.1049 -0.3253 -0.1136
  530MOL0     C69839   9.140   9.793   6.156  0.1954 -0.3393  0.1312
  530MOL0     C69840   9.228   9.675   6.138 -0.9650  0.1581 -0.6770
  530MOL0     C69841   9.366   9.710   6.072  0.0783  0.1110  0.1884
  530MOL0     C69842   9.356   9.724   5.913  0.7791  0.2524 -0.2399
  530MOL0     C69843   9.489   9.754   5.839  0.6840  0.1567 -0.5834
  530MOL0     C69844   9.541   9.894   5.888 -0.4441 -0.4929  0.4220
  530MOL0     N69845   9.455  10.013   5.850  0.4834 -0.0259 -0.4321
  530MOL0     C69846   9.428  10.045   5.721  0.2288 -0.5041  0.6845
  530MOL0     C69847   9.323  10.126   5.718 -0.9056 -0.2190 -1.2728
  530MOL0     C69848   9.255  10.192   5.604 -0.0518 -0.4045  0.1419
  530MOL0     C69849   9.102  10.155   5.585 -0.9555 -0.3838 -0.4723
  530MOL0     C69850   9.081  10.011   5.559  0.9850  0.3847 -0.6775
  530MOL0     C69851   8.930   9.995   5.539  0.4738 -0.5757  1.0281
  530MOL0     O69852   8.848  10.030   5.644 -0.0241  0.5330  0.1287
  530MOL0     C69853   8.717   9.994   5.639 -0.4235  0.5194 -1.7286
  530MOL0     C69854   8.627   9.992   5.536  0.4063 -0.0221 -0.1966
  530MOL0     C69855   8.489   9.983   5.548 -0.1625  0.1229  0.4776
  530MOL0     C69856   8.432   9.992   5.676 -0.2471  0.2726  0.0873
  530MOL0     C69857   8.290   9.987   5.695 -0.2615 -0.7378 -0.5015
  530MOL0     O69858   8.247   9.966   5.827 -0.7138  0.0993  0.2047
  530MOL0     C69859   8.110   9.958   5.856 -0.4842  0.4850  0.0692
  530MOL0     C69860   8.057  10.022   5.971 -0.2818  0.1469 -0.6847
  530MOL0     C69861   7.919  10.012   6.002 -0.2197 -0.1204 -0.3553
  530MOL0     C69862   7.833   9.948   5.910 -0.7712 -0.5610  0.2997
  530MOL0     O69863   7.699   9.942   5.944  0.6177  0.1552 -0.1958
  530MOL0     C69864   7.613   9.917   5.830  0.3818  0.3733  0.1526
  530MOL0     C69865   7.462   9.928   5.867 -0.4289  0.0610 -0.5213
  530MOL0     C69866   7.402   9.785   5.861  0.4518  0.3055 -0.4941
  530MOL0     C69867   7.249   9.789   5.875  0.0430 -0.4730  0.6993
  530MOL0     C69868   7.200   9.646   5.855 -0.4495 -0.1310  0.2602
  530MOL0     C69869   7.051   9.631   5.846 -0.3791  0.2101  0.6663
  530MOL0     C69870   7.005   9.494   5.795 -0.2540  0.8592  0.6631
  530MOL0     C69871   6.933   9.515   5.662  0.3925  0.7606 -0.3042
  530MOL0    Cl69872   6.783   9.614   5.685  0.1453 -0.0658  0.3020
  530MOL0     C69873   7.884   9.880   5.797  0.1518  0.2687  0.5326
  530MOL0     C69874   8.020   9.887   5.773 -0.2655 -0.3507 -0.6257
  530MOL0     O69875   8.218  10.029   5.606 -0.2270 -0.2967  0.5127
  530MOL0     C69876   8.517   9.991   5.787 -0.8891  0.8301 -0.4676
  530MOL0     C69877   8.660  10.001   5.768  0.0762 -0.3229 -0.1899
  530MOL0     N69878   9.275  10.142   5.856  0.2556  0.7175 -0.2308
  530MOL0     N69879   9.345  10.064   5.921 -1.5499  0.9857  0.9124
  530MOL0     C69880   8.726   9.475   6.156  0.7976  0.0064  0.2396
  530MOL0     C69881   8.617   9.397   6.117  0.3406  0.7079  0.3387
  530MOL0     C69882   8.214   9.217   6.046  0.2911  0.0255  0.2151
  530MOL0     C69883   8.145   9.134   6.136 -0.3999  0.6523 -0.0466
  530MOL0     C69884   8.022   9.087   6.114  0.3279  0.3463 -0.1521
  530MOL0     C69885   7.965   9.101   5.985  0.0726  0.2693  0.2964
  530MOL0     O69886   7.839   9.045   5.966  0.9004 -0.2023  0.9044
  530MOL0     C69887   7.756   9.078   5.855 -0.0039  0.3413  0.4673
  530MOL0     C69888   7.626   9.012   5.864  0.3549  0.0029 -1.0434
  530MOL0     C69889   7.531   9.040   5.744 -0.1038  0.4109 -0.8105
  530MOL0     C69890   7.397   8.970   5.764 -0.2717  0.5052  0.5280
  530MOL0     C69891   7.295   9.031   5.672 -1.0768 -0.0761 -1.1527
  530MOL0     C69892   7.212   9.085   5.605 -0.6087  0.4088  0.4596
  530MOL0     C69893   8.032   9.180   5.890 -0.1102  0.3098 -0.3475
  530MOL0     C69894   8.156   9.247   5.917  0.2869  0.3953 -0.8079
  530MOL0     H69895   8.441   9.634   5.961 -2.4847  1.1489  3.7546
  530MOL0     H69896   8.637   9.785   6.041  0.5719  0.0132 -1.0081
  530MOL0     H69897   9.004   9.575   6.208 -1.0724  0.2781 -2.9830
  530MOL0     H69898   8.908   9.626   6.354  1.4963 -0.9671  0.8091
  530MOL0     H69899   9.110   9.757   6.364 -1.4692 -0.3016  0.8786
  530MOL0     H69900   8.986   9.857   6.306 -0.7092 -0.2886 -1.3680
  530MOL0     H69901   9.199   9.883   6.174 -0.7770  1.2689 -3.6570
  530MOL0     H69902   9.078   9.811   6.067  2.2845 -2.0966 -1.8110
  530MOL0     H69903   9.242   9.614   6.228 -1.8315  1.0023  0.0459
  530MOL0     H69904   9.181   9.613   6.062 -0.8826  0.0423 -0.6342
  530MOL0     H69905   9.438   9.630   6.091 -0.5580 -1.5327 -3.5794
  530MOL0     H69906   9.404   9.803   6.115 -2.8512  1.2574  0.5717
  530MOL0     H69907   9.278   9.799   5.896 -0.7477 -1.4472 -1.0118
  530MOL0     H69908   9.314   9.632   5.873 -0.3012 -0.5755  2.5729
  530MOL0     H69909   9.562   9.674   5.852 -0.8333 -1.0502  0.9430
  530MOL0     H69910   9.473   9.756   5.730  1.0729 -3.9102 -0.8745
  530MOL0     H69911   9.641   9.909   5.845 -1.0386  1.4211 -0.3817
  530MOL0     H69912   9.563   9.895   5.995  0.4863  1.3615  0.2492
  530MOL0     H69913   9.476  10.003   5.633  1.5902 -0.3753  1.3379
  530MOL0     H69914   9.335  10.179   5.531 -0.2792 -0.7738 -0.0444
  530MOL0     H69915   9.257  10.300   5.622  1.9133 -0.6985  2.2101
  530MOL0     H69916   9.061  10.221   5.508 -0.6140  5.2854  3.5865
  530MOL0     H69917   9.060  10.186   5.681  0.3309  3.3914 -0.9963
  530MOL0     H69918   9.139   9.972   5.475 -1.4411 -1.3666 -1.6679
  530MOL0     H69919   9.098   9.956   5.652 -0.6418 -3.0988 -2.2546
  530MOL0     H69920   8.895   9.893   5.517 -2.0531  0.6594 -1.1164
  530MOL0     H69921   8.906  10.063   5.458 -1.4025  1.1333  2.9128
  530MOL0     H69922   8.680   9.995   5.441  2.5732  2.8964  0.9498
  530MOL0     H69923   8.427   9.975   5.459  0.5969  1.0350 -0.1533
  530MOL0     H69924   8.121  10.072   6.043  1.7180 -1.3283 -1.3539
  530MOL0     H69925   7.889  10.060   6.094  2.5577 -2.5349  1.9965
  530MOL0     H69926   7.632   9.822   5.779 -0.5453 -0.1446  0.7525
  530MOL0     H69927   7.629   9.994   5.754  1.8318  1.9841  1.9619
  530MOL0     H69928   7.412   9.984   5.788 -2.3085 -2.4103 -1.1912
  530MOL0     H69929   7.443   9.961   5.970  0.6420  0.9128 -0.5739
  530MOL0     H69930   7.455   9.724   5.934  2.4863 -0.2827 -2.3314
  530MOL0     H69931   7.428   9.732   5.769  0.7058 -2.5627  1.1099
  530MOL0     H69932   7.228   9.819   5.978 -2.0164  2.4656 -0.4664
  530MOL0     H69933   7.205   9.859   5.804  0.0231  0.1631  1.3219
  530MOL0     H69934   7.239   9.576   5.929 -0.6829 -0.0595  0.4552
  530MOL0     H69935   7.238   9.615   5.758  1.5877 -1.2756  1.3665
  530MOL0     H69936   7.021   9.715   5.782  2.5352  0.3074 -0.7053
  530MOL0     H69937   7.011   9.641   5.948 -0.8927  0.8346  0.4107
  530MOL0     H69938   7.089   9.428   5.771 -1.6164 -0.3516 -1.0835
  530MOL0     H69939   6.927   9.450   5.859 -1.2674  0.0695 -1.0400
  530MOL0     H69940   6.904   9.415   5.628 -0.0517  0.4645  0.9086
  530MOL0     H69941   6.997   9.555   5.583  1.4538 -0.8115 -0.2754
  530MOL0     H69942   7.827   9.817   5.730 -0.2532 -1.1054  2.0832
  530MOL0     H69943   8.063   9.835   5.687 -3.2339 -0.7799 -1.9835
  530MOL0     H69944   8.475   9.992   5.888  0.2436 -1.9577  0.1323
  530MOL0     H69945   8.722  10.019   5.856  2.5787  0.2174 -1.9409
  530MOL0     H69946   8.802   9.424   6.214  0.5610 -0.2709  0.3104
  530MOL0     H69947   8.613   9.290   6.133 -2.2403  0.7408  0.2743
  530MOL0     H69948   8.197   9.118   6.230 -0.0561  1.9466  0.0140
  530MOL0     H69949   7.961   9.051   6.197 -0.9510  1.1046 -0.7342
  530MOL0     H69950   7.808   9.046   5.764 -2.2704 -1.1305 -0.4143
  530MOL0     H69951   7.740   9.186   5.857 -0.3709  0.3655 -1.6063
  530MOL0     H69952   7.643   8.904   5.870 -0.2884 -0.0389  0.4048
  530MOL0     H69953   7.575   9.055   5.950  2.0914 -0.1890  0.1383
  530MOL0     H69954   7.578   9.013   5.649 -0.3133 -1.1421 -0.4959
  530MOL0     H69955   7.520   9.149   5.741 -0.0671  0.4215 -0.5552
  530MOL0     H69956   7.398   8.865   5.732  1.4457  0.8161 -0.5728
  530MOL0     H69957   7.363   8.974   5.868 -0.3733 -1.9729  0.6638
  530MOL0     H69958   7.149   9.143   5.540  0.8172  2.0974  0.5001
  530MOL0     H69959   7.983   9.180   5.792  0.4266  1.0494 -0.6260
  530MOL0     H69960   8.205   9.289   5.830 -0.2049 -1.4112 -1.9978
  531MOL0     O69961   5.109   8.913   8.271 -0.7688 -0.0563  0.1199
  531MOL0     C69962   5.188   8.883   8.175  0.6975  0.2792 -0.2155
  531MOL0     O69963   5.149   8.845   8.049 -0.5001  0.0283  0.8167
  531MOL0     C69964   5.017   8.851   8.016  0.7938 -0.0581  0.3147
  531MOL0     C69965   4.906   8.811   8.088  0.2649 -0.1140 -0.4711
  531MOL0     C69966   4.774   8.814   8.027 -0.5851 -0.8759 -1.3768
  531MOL0     C69967   4.763   8.851   7.896  0.1875 -1.0242 -0.2465
  531MOL0     O69968   4.639   8.868   7.837 -0.0676  0.6160 -0.1778
  531MOL0     C69969   4.529   8.792   7.881 -0.0356 -0.1640 -0.0374
  531MOL0     C69970   4.409   8.818   7.799 -0.2049 -0.6153 -0.1028
  531MOL0     C69971   4.298   8.708   7.808 -0.2184 -0.2523 -0.3677
  531MOL0     C69972   4.245   8.683   7.948 -0.0768 -0.2763 -0.1166
  531MOL0     C69973   4.120   8.586   7.946 -0.0073 -0.3288  0.8463
  531MOL0     C69974   4.087   8.550   8.093  0.4061  0.4657 -0.3698
  531MOL0     C69975   3.967   8.450   8.096 -0.5303  0.5228 -0.8523
  531MOL0     C69976   3.929   8.428   8.234 -0.3072  0.7149 -1.3304
  531MOL0     N69977   3.815   8.338   8.252  0.3572 -0.6610 -0.2907
  531MOL0     C69978   3.732   8.322   8.359 -0.7890  1.4252 -0.4090
  531MOL0     C69979   3.633   8.237   8.323 -0.5566  0.7213 -0.4101
  531MOL0     C69980   3.532   8.170   8.412  0.3247 -0.0238  0.0298
  531MOL0     C69981   3.387   8.168   8.364  0.2674  0.2203  0.0768
  531MOL0     C69982   3.298   8.099   8.464 -0.2104  0.4100 -0.8639
  531MOL0     C69983   3.150   8.089   8.431 -0.7620  0.1715  0.1436
  531MOL0     O69984   3.084   8.198   8.488 -0.1518 -0.3246  1.3807
  531MOL0     C69985   2.949   8.193   8.475 -0.2663 -0.4239  0.1310
  531MOL0     C69986   2.880   8.237   8.591 -0.2318  0.0577  0.5347
  531MOL0     C69987   2.744   8.231   8.606 -0.3468 -0.6706  0.0435
  531MOL0     C69988   2.672   8.177   8.493  0.2610  0.4446 -0.0549
  531MOL0     C69989   2.525   8.179   8.502  0.3183  0.5383  0.1466
  531MOL0     O69990   2.466   8.257   8.588 -0.0934 -0.8170  0.2693
  531MOL0     C69991   2.335   8.295   8.559  0.2095  0.7349 -0.7567
  531MOL0     C69992   2.302   8.360   8.440  0.7944  0.1458  0.7035
  531MOL0     C69993   2.178   8.422   8.431  1.1650  0.4465  0.5784
  531MOL0     C69994   2.075   8.400   8.528 -0.9113 -0.2086  0.1476
  531MOL0     O69995   1.940   8.444   8.530 -0.4486 -0.2863 -0.0098
  531MOL0     C69996   1.866   8.399   8.411 -1.0216 -0.0726 -0.3758
  531MOL0     C69997   1.762   8.505   8.380  0.6994  0.9226  0.2961
  531MOL0     C69998   1.663   8.509   8.497 -0.2869 -0.9481  0.6184
  531MOL0     C69999   1.543   8.597   8.463 -0.0674 -0.0813 -0.0691
  531MOL0     C70000   1.438   8.602   8.580  0.2425  0.2175  0.5254
  531MOL0     C70001   1.417   8.478   8.659  0.5879 -0.4029  0.4926
  531MOL0     C70002   1.305   8.485   8.762 -0.1837  0.4110  0.6704
  531MOL0     C70003   1.256   8.348   8.801 -0.1862  0.5736  0.0364
  531MOL0    Cl70004   1.344   8.293   8.952  0.1505 -0.4001 -0.1564
  531MOL0     C70005   2.109   8.326   8.640 -1.2438 -0.4987  0.3043
  531MOL0     C70006   2.239   8.277   8.659 -0.3755  0.4306 -0.2838
  531MOL0     O70007   2.465   8.106   8.422  0.8050 -0.4027 -0.1962
  531MOL0     C70008   2.746   8.122   8.385  0.0860  0.1729 -0.9766
  531MOL0     C70009   2.881   8.127   8.372 -1.0342  1.1513 -0.6751
  531MOL0     N70010   3.659   8.192   8.194 -0.0828  0.7638  0.2482
  531MOL0     N70011   3.756   8.264   8.144  0.2007  0.1093  0.4058
  531MOL0     C70012   4.878   8.885   7.824 -1.0854 -0.4153  0.0180
  531MOL0     C70013   5.001   8.880   7.883  0.0061  0.0283  0.5752
  531MOL0     C70014   5.311   8.827   8.218 -0.6376 -1.0874 -0.3184
  531MOL0     C70015   5.412   8.792   8.125 -0.7584 -0.5675 -0.4899
  531MOL0     C70016   5.534   8.738   8.163  0.3648  0.0099 -0.8069
  531MOL0     C70017   5.560   8.728   8.300 -0.2207  1.4201 -0.4960
  531MOL0     O70018   5.688   8.693   8.345 -0.5607  0.5692  1.0386
  531MOL0     C70019   5.702   8.554   8.358 -0.0314  0.0995 -0.4996
  531MOL0     C70020   5.850   8.512   8.389  0.4891  0.0659 -0.5241
  531MOL0     C70021   5.880   8.499   8.541 -0.3786  0.2414  0.0095
  531MOL0     C70022   5.887   8.349   8.583 -0.5532 -0.3537 -0.5006
  531MOL0     C70023   5.764   8.280   8.562  0.4281 -0.5082 -0.4641
  531MOL0     C70024   5.654   8.230   8.544 -1.4733 -0.2279  0.1245
  531MOL0     C70025   5.474   8.782   8.402  0.3498  0.0696 -0.1463
  531MOL0     C70026   5.351   8.830   8.362  0.2036 -0.6238  0.1769
  531MOL0     H70027   4.902   8.779   8.191 -1.6260  1.3151 -0.0381
  531MOL0     H70028   4.690   8.799   8.095  0.6364  2.1048  1.0079
  531MOL0     H70029   4.493   8.818   7.981 -1.4082 -0.5380 -0.4070
  531MOL0     H70030   4.540   8.683   7.879  0.2840 -0.2583  2.6940
  531MOL0     H70031   4.427   8.837   7.693 -5.8347  0.1886 -1.2378
  531MOL0     H70032   4.362   8.906   7.842 -1.6282 -1.3824 -0.0350
  531MOL0     H70033   4.322   8.617   7.752 -1.1499 -0.2244 -0.8342
  531MOL0     H70034   4.218   8.761   7.756 -0.1323  0.4815  0.2266
  531MOL0     H70035   4.326   8.646   8.013 -0.0244  0.4292  0.2331
  531MOL0     H70036   4.209   8.777   7.989  0.4582  0.7901 -1.9968
  531MOL0     H70037   4.150   8.490   7.904  2.4942 -0.4608  2.7090
  531MOL0     H70038   4.041   8.647   7.902  2.1934  1.1095 -1.4222
  531MOL0     H70039   4.059   8.643   8.143  0.8735 -0.9290  2.6708
  531MOL0     H70040   4.172   8.497   8.136 -1.9129 -0.1068  4.0680
  531MOL0     H70041   3.886   8.495   8.037 -1.7921  0.9726  1.1392
  531MOL0     H70042   4.007   8.361   8.046 -1.6515 -0.8353  0.5906
  531MOL0     H70043   3.917   8.518   8.294  0.6414 -0.8486  1.4319
  531MOL0     H70044   4.014   8.375   8.278 -2.4446 -0.4400  1.7667
  531MOL0     H70045   3.749   8.355   8.461 -0.6055  1.3967 -0.4292
  531MOL0     H70046   3.535   8.226   8.506 -2.1151  0.0560  0.1232
  531MOL0     H70047   3.557   8.067   8.440 -4.1472 -1.0234  1.1653
  531MOL0     H70048   3.388   8.111   8.271  1.6068  0.1312  0.1229
  531MOL0     H70049   3.330   8.259   8.342 -0.6978 -0.1584  0.9419
  531MOL0     H70050   3.339   7.998   8.478 -0.1113  0.5151 -0.3762
  531MOL0     H70051   3.307   8.152   8.559 -1.8908  0.1955 -0.5404
  531MOL0     H70052   3.105   7.994   8.463 -1.0345  0.0797 -0.4835
  531MOL0     H70053   3.149   8.091   8.321 -3.6550  1.3759  0.1055
  531MOL0     H70054   2.941   8.266   8.676  1.6261 -0.5565 -0.5233
  531MOL0     H70055   2.702   8.284   8.691  0.3861  1.1525 -0.6817
  531MOL0     H70056   2.372   8.368   8.357 -0.5649  0.9672 -0.4035
  531MOL0     H70057   2.162   8.488   8.346 -0.4268 -0.2841  0.2785
  531MOL0     H70058   1.821   8.301   8.432  1.5381 -1.1656  0.4803
  531MOL0     H70059   1.941   8.401   8.332 -0.1793  5.3706  0.1628
  531MOL0     H70060   1.715   8.475   8.286  0.5512  0.0420  0.6425
  531MOL0     H70061   1.813   8.602   8.372  1.6427  0.3617 -0.9056
  531MOL0     H70062   1.704   8.541   8.593 -1.1905  0.6059  0.5223
  531MOL0     H70063   1.634   8.403   8.500  2.0407 -1.7054 -0.7286
  531MOL0     H70064   1.568   8.702   8.445  1.1027  0.0548  1.9715
  531MOL0     H70065   1.505   8.564   8.366  0.8784 -2.0241  0.1636
  531MOL0     H70066   1.343   8.619   8.529  0.1516 -0.6694  0.3739
  531MOL0     H70067   1.471   8.683   8.645  0.1042 -1.5811  2.9749
  531MOL0     H70068   1.512   8.461   8.711  0.6695  0.5832  0.6910
  531MOL0     H70069   1.401   8.394   8.591 -1.6289  1.2906 -1.2167
  531MOL0     H70070   1.334   8.554   8.842  2.5413  0.0155  0.1449
  531MOL0     H70071   1.226   8.532   8.703 -0.2023  0.5459  0.8030
  531MOL0     H70072   1.277   8.265   8.734 -1.2921 -1.0976  1.6543
  531MOL0     H70073   1.149   8.358   8.824  0.4912  1.9471  3.1224
  531MOL0     H70074   2.047   8.310   8.727  3.5031 -2.1496  3.7916
  531MOL0     H70075   2.277   8.229   8.749  3.4650  3.3959 -0.0778
  531MOL0     H70076   2.685   8.068   8.313 -3.8768 -0.3486  2.3491
  531MOL0     H70077   2.931   8.068   8.295 -0.3087 -0.6548  1.0867
  531MOL0     H70078   4.861   8.904   7.718  1.4339 -0.4325 -0.4416
  531MOL0     H70079   5.097   8.910   7.840  0.6058  3.0648  3.5989
  531MOL0     H70080   5.403   8.820   8.020  1.2776 -0.4173 -0.6589
  531MOL0     H70081   5.611   8.693   8.102  0.4088 -1.1341  0.0763
  531MOL0     H70082   5.669   8.505   8.266  2.5175 -1.1653 -0.8314
  531MOL0     H70083   5.647   8.523   8.447  0.3179  1.3973  0.2045
  531MOL0     H70084   5.858   8.411   8.349 -0.1142 -0.2444  0.1300
  531MOL0     H70085   5.910   8.577   8.325  0.3772 -2.2142 -3.1117
  531MOL0     H70086   5.811   8.555   8.605 -0.4869 -0.8862  0.9138
  531MOL0     H70087   5.979   8.541   8.562 -0.5259  1.3491 -1.3342
  531MOL0     H70088   5.959   8.303   8.514  0.9942  0.6862  0.3548
  531MOL0     H70089   5.929   8.329   8.682  2.8147  3.0709 -0.9774
  531MOL0     H70090   5.557   8.189   8.527 -1.6912  0.7006 -1.0206
  531MOL0     H70091   5.495   8.776   8.508 -0.2719 -2.1306 -0.0875
  531MOL0     H70092   5.278   8.863   8.435 -1.3110  0.4874 -1.7228
  532MOL0     O70093   1.862   8.770  10.381 -0.1486  0.3849 -0.4572
  532MOL0     C70094   1.900   8.885  10.406  0.6107  0.1678 -0.0566
  532MOL0     O70095   1.819   8.991  10.420 -1.2644  0.4900  0.0471
  532MOL0     C70096   1.685   8.967  10.416  0.1897 -0.0446  0.1364
  532MOL0     C70097   1.625   8.931  10.290 -0.8385  0.1257 -1.4238
  532MOL0     C70098   1.494   8.907  10.283 -0.0307  0.2299  0.3516
  532MOL0     C70099   1.406   8.939  10.389 -0.6934  0.7819  0.1082
  532MOL0     O70100   1.271   8.907  10.357 -0.4016  0.0500 -0.7002
  532MOL0     C70101   1.169   8.927  10.456 -0.8692  0.4094  0.5444
  532MOL0     C70102   1.031   8.906  10.390  0.8027  0.1633 -0.9015
  532MOL0     C70103   0.994   8.758  10.356 -0.3072 -1.3447  0.7500
  532MOL0     C70104   0.862   8.752  10.282 -1.3860 -0.3186  1.1119
  532MOL0     C70105   0.810   8.611  10.239 -1.4285 -0.5753  0.1888
  532MOL0     C70106   0.760   8.532  10.361  0.2214 -1.1570 -0.2174
  532MOL0     C70107   0.706   8.387  10.322  0.9711  0.2285  0.5254
  532MOL0     C70108   0.613   8.329  10.433  0.2638  0.3966 -0.0563
  532MOL0     N70109   0.469   8.367  10.421 -0.2559  0.9528  0.7231
  532MOL0     C70110   0.415   8.489  10.414 -0.4328 -0.1055  0.2792
  532MOL0     C70111   0.289   8.464  10.379  0.1767 -0.0593 -0.0837
  532MOL0     C70112   0.189   8.567  10.358  0.4333 -0.6686 -0.6351
  532MOL0     C70113   0.215   8.630  10.221 -0.1796 -0.0940  0.7769
  532MOL0     C70114   0.144   8.770  10.218 -0.1979 -1.1650  0.1314
  532MOL0     C70115   0.176   8.813  10.073  0.2678  0.3005 -0.6495
  532MOL0     O70116   0.119   8.727   9.976 -0.2028  0.0547  0.0921
  532MOL0     C70117  -0.014   8.737   9.933 -0.6232  0.8435 -0.5131
  532MOL0     C70118  -0.118   8.797  10.001 -0.9354 -0.3265  0.9299
  532MOL0     C70119  -0.241   8.804   9.940  0.1066  0.4426  1.2145
  532MOL0     C70120  -0.273   8.730   9.823  0.1877 -0.7480 -0.9138
  532MOL0     C70121  -0.416   8.729   9.771  0.3755  0.0762  0.3312
  532MOL0     O70122  -0.444   8.678   9.644  0.4659 -0.6556  0.2989
  532MOL0     C70123  -0.562   8.701   9.573  1.2133 -0.8220 -0.3119
  532MOL0     C70124  -0.645   8.817   9.586  0.0780  0.5440  0.1521
  532MOL0     C70125  -0.743   8.832   9.491 -0.0174  0.3204  0.4287
  532MOL0     C70126  -0.776   8.738   9.397 -1.1006  0.5992 -0.0597
  532MOL0     O70127  -0.879   8.758   9.307  0.9298  0.2585  0.4998
  532MOL0     C70128  -0.991   8.800   9.382  0.8597  1.1425  0.4281
  532MOL0     C70129  -1.105   8.774   9.284 -0.7848  0.6686  0.3631
  532MOL0     C70130  -1.239   8.789   9.361 -0.0256  0.1415 -0.5207
  532MOL0     C70131  -1.361   8.741   9.294  0.3512  0.0141  0.1379
  532MOL0     C70132  -1.478   8.724   9.392 -0.1076 -0.6146 -0.3673
  532MOL0     C70133  -1.606   8.693   9.333  0.0401 -0.6475  0.4672
  532MOL0     C70134  -1.692   8.619   9.435 -0.6120  0.1123 -0.6520
  532MOL0     C70135  -1.840   8.613   9.394 -0.5145  0.3676  0.0402
  532MOL0    Cl70136  -1.898   8.774   9.350 -0.2876  0.1857 -0.0338
  532MOL0     C70137  -0.686   8.636   9.374 -0.1810 -0.9030 -0.3380
  532MOL0     C70138  -0.579   8.621   9.459  0.5858  0.3926  0.1699
  532MOL0     O70139  -0.505   8.784   9.837  0.4067  0.5984 -0.2555
  532MOL0     C70140  -0.177   8.671   9.756 -0.1025  0.2193 -0.4884
  532MOL0     C70141  -0.047   8.671   9.813 -0.0759  0.1385  0.3860
  532MOL0     N70142   0.264   8.328  10.359 -0.3160  1.5886 -0.8899
  532MOL0     N70143   0.377   8.274  10.379  0.2612  0.2789  0.6140
  532MOL0     C70144   1.460   8.965  10.517 -0.8574  0.2435 -0.4603
  532MOL0     C70145   1.597   8.985  10.530  0.7567 -0.9517  0.4100
  532MOL0     C70146   2.040   8.906  10.420 -0.3927  0.4494 -0.4257
  532MOL0     C70147   2.128   8.800  10.451 -0.2324  0.3079 -0.5699
  532MOL0     C70148   2.266   8.811  10.448  0.5040  0.2749  0.4697
  532MOL0     C70149   2.326   8.930  10.426 -0.1178  0.4279  0.5574
  532MOL0     O70150   2.466   8.916  10.415 -0.0092 -1.4140 -0.1621
  532MOL0     C70151   2.534   9.036  10.415 -0.2607 -0.8489 -0.3195
  532MOL0     C70152   2.684   9.000  10.398 -0.2532 -0.1949 -0.1165
  532MOL0     C70153   2.779   9.115  10.378  0.1450 -0.0740 -0.0807
  532MOL0     C70154   2.809   9.213  10.498  0.4953  0.3378 -0.0239
  532MOL0     C70155   2.909   9.163  10.595 -0.3059 -0.2613 -0.2567
  532MOL0     C70156   2.995   9.117  10.669  0.5207  0.0834 -0.0957
  532MOL0     C70157   2.246   9.047  10.416  0.7502  0.2875 -0.0408
  532MOL0     C70158   2.103   9.039  10.407 -1.3475  0.1198  0.9948
  532MOL0     H70159   1.689   8.925  10.203  1.5370  3.4407 -0.1164
  532MOL0     H70160   1.449   8.892  10.185 -2.2773  1.1623  1.1633
  532MOL0     H70161   1.178   9.036  10.468  1.2799  0.3165  0.1416
  532MOL0     H70162   1.197   8.872  10.547  2.2113 -1.0021 -1.0969
  532MOL0     H70163   1.039   8.963  10.298  0.1602  0.3213 -0.8598
  532MOL0     H70164   0.954   8.956  10.449  3.3850  1.6285  1.4938
  532MOL0     H70165   0.985   8.685  10.438  2.7896 -2.8818 -0.1043
  532MOL0     H70166   1.064   8.706  10.290 -1.8228 -2.9148  0.3206
  532MOL0     H70167   0.788   8.810  10.338 -0.7992  0.8263  0.7434
  532MOL0     H70168   0.868   8.808  10.189 -2.2831 -2.9040 -0.5981
  532MOL0     H70169   0.892   8.553  10.195 -0.5409 -1.1069  2.4268
  532MOL0     H70170   0.740   8.627  10.156  0.7625  2.5928 -1.2707
  532MOL0     H70171   0.685   8.603  10.399 -1.4708 -2.1790 -1.4926
  532MOL0     H70172   0.832   8.516  10.442 -2.0879 -0.2599  2.1661
  532MOL0     H70173   0.647   8.394  10.230 -1.1473 -2.4359  1.5706
  532MOL0     H70174   0.788   8.320  10.294  0.0275  0.0648 -2.0828
  532MOL0     H70175   0.652   8.370  10.527 -1.6960  2.9454 -0.2677
  532MOL0     H70176   0.616   8.219  10.439  0.3142  0.3592 -0.6941
  532MOL0     H70177   0.461   8.584  10.437 -0.8105  0.1561 -0.0604
  532MOL0     H70178   0.203   8.645  10.433 -0.1543 -1.3953  0.2460
  532MOL0     H70179   0.086   8.529  10.352 -0.1298  0.5543  0.6521
  532MOL0     H70180   0.177   8.559  10.146  3.1651 -0.5764 -0.6034
  532MOL0     H70181   0.323   8.640  10.224  0.0145 -1.8657  2.1324
  532MOL0     H70182   0.036   8.762  10.233 -0.4386 -0.4985 -1.1635
  532MOL0     H70183   0.189   8.836  10.293  2.4988  1.4921 -3.5119
  532MOL0     H70184   0.283   8.831  10.060  1.0045 -1.0988  2.3835
  532MOL0     H70185   0.134   8.913  10.058  0.4865  0.3622 -0.8443
  532MOL0     H70186  -0.111   8.869  10.083  0.1769  1.5151 -0.6928
  532MOL0     H70187  -0.321   8.858   9.989 -0.2697  1.7783 -0.7561
  532MOL0     H70188  -0.632   8.898   9.658  1.6978  2.0870 -1.7662
  532MOL0     H70189  -0.806   8.918   9.508 -2.2813 -1.0880 -0.4106
  532MOL0     H70190  -0.991   8.903   9.420  0.4674  0.9568  0.9339
  532MOL0     H70191  -0.994   8.723   9.459  3.1211  1.0012  0.4591
  532MOL0     H70192  -1.100   8.673   9.242  1.8023  0.9674 -0.2735
  532MOL0     H70193  -1.108   8.832   9.191 -0.5247 -4.7916 -3.4962
  532MOL0     H70194  -1.259   8.894   9.382  1.1895  0.2974 -0.0605
  532MOL0     H70195  -1.215   8.750   9.461 -0.7573 -1.3818 -0.9052
  532MOL0     H70196  -1.380   8.819   9.220  1.4247 -0.7283 -0.9649
  532MOL0     H70197  -1.361   8.645   9.241  0.2318  1.3970 -2.5000
  532MOL0     H70198  -1.495   8.794   9.475  4.4652 -3.4818  3.5188
  532MOL0     H70199  -1.441   8.641   9.453  4.0426  0.0935 -1.6017
  532MOL0     H70200  -1.601   8.643   9.235 -3.4396 -0.3620  0.0032
  532MOL0     H70201  -1.646   8.791   9.305  0.0759 -0.4043  1.2511
  532MOL0     H70202  -1.654   8.518   9.449 -0.8369 -0.0524 -1.2299
  532MOL0     H70203  -1.672   8.658   9.536  0.4166  1.0831 -1.2035
  532MOL0     H70204  -1.879   8.574   9.488  2.8267 -1.1891  0.9224
  532MOL0     H70205  -1.847   8.548   9.306 -0.1877  0.1381  0.1817
  532MOL0     H70206  -0.712   8.569   9.293  1.6538 -2.3296  0.1778
  532MOL0     H70207  -0.510   8.539   9.443  0.1190  0.1834 -0.8450
  532MOL0     H70208  -0.207   8.618   9.666  1.6005 -0.7245 -0.5460
  532MOL0     H70209   0.041   8.625   9.768  1.0453  0.9756  1.6245
  532MOL0     H70210   1.402   8.966  10.609  2.3673 -0.3185  1.7521
  532MOL0     H70211   1.631   9.010  10.630 -1.9577 -0.0780  1.2169
  532MOL0     H70212   2.103   8.695  10.465  0.9017  0.0298 -0.5125
  532MOL0     H70213   2.343   8.735  10.456  1.1088  0.8161 -0.0858
  532MOL0     H70214   2.530   9.099  10.505  1.0595 -2.2433  0.7731
  532MOL0     H70215   2.491   9.104  10.341 -0.1760  1.8921  1.9584
  532MOL0     H70216   2.702   8.945  10.490  1.8771 -1.6438 -1.3213
  532MOL0     H70217   2.710   8.935  10.314  3.0285 -0.5092  1.0051
  532MOL0     H70218   2.752   9.160  10.282 -0.6534  0.7900  0.5300
  532MOL0     H70219   2.878   9.071  10.361 -0.7369 -1.6212 -1.6476
  532MOL0     H70220   2.839   9.314  10.470 -0.2280  0.4723 -0.3357
  532MOL0     H70221   2.718   9.245  10.549 -0.2251 -0.2619 -0.9215
  532MOL0     H70222   3.070   9.071  10.730 -0.3927 -1.0092  0.2229
  532MOL0     H70223   2.295   9.144  10.420  0.2053  0.5377  0.8831
  532MOL0     H70224   2.043   9.126  10.382 -1.2146 -0.5893 -2.2184
  533MOL0     O70225   7.420   7.067   9.976  0.6775 -0.3683  0.1818
  533MOL0     C70226   7.355   6.964   9.941 -0.7473  0.4829 -0.3330
  533MOL0     O70227   7.406   6.843   9.898  0.1693  0.6090 -0.9339
  533MOL0     C70228   7.542   6.828   9.860 -0.2127 -0.8448 -0.3814
  533MOL0     C70229   7.624   6.927   9.800 -0.7010 -0.3038 -0.2009
  533MOL0     C70230   7.761   6.897   9.770  0.6814  0.0894  0.1993
  533MOL0     C70231   7.808   6.770   9.795 -0.6031  0.2699  1.0227
  533MOL0     O70232   7.929   6.738   9.735 -0.0326 -0.2114  0.3644
  533MOL0     C70233   7.992   6.614   9.742  0.0539 -0.1937  0.5034
  533MOL0     C70234   8.123   6.623   9.653  0.2179  0.4052 -0.8758
  533MOL0     C70235   8.239   6.710   9.704 -0.1651  0.7204 -0.4794
  533MOL0     C70236   8.300   6.654   9.835  0.2614  0.6457  0.1974
  533MOL0     C70237   8.406   6.752   9.881 -0.7479 -0.4791  0.2356
  533MOL0     C70238   8.453   6.715  10.020  0.1199 -0.1696 -0.2015
  533MOL0     C70239   8.588   6.778  10.079  0.8228  0.7316 -0.4893
  533MOL0     C70240   8.717   6.716  10.019  0.6188  0.6419  0.2880
  533MOL0     N70241   8.717   6.570   9.991  0.8753 -0.5177  0.3004
  533MOL0     C70242   8.782   6.482  10.073 -0.2696  0.0459  0.0536
  533MOL0     C70243   8.764   6.356  10.019  0.2744 -0.3531 -0.2349
  533MOL0     C70244   8.785   6.232  10.095  0.2790 -0.1159 -0.5003
  533MOL0     C70245   8.905   6.163  10.022  1.4542 -0.4154  0.8640
  533MOL0     C70246   8.926   6.022  10.081 -0.4124 -0.5294 -0.1018
  533MOL0     C70247   9.008   5.921  10.000  0.0558  0.8593  0.7538
  533MOL0     O70248   9.147   5.960  10.001 -0.0840  0.6230 -0.0533
  533MOL0     C70249   9.233   5.864   9.985 -0.2013 -0.3052  0.4753
  533MOL0     C70250   9.215   5.739   9.924 -0.4414  0.2984  0.0317
  533MOL0     C70251   9.321   5.648   9.919  0.5850  0.1276  0.2643
  533MOL0     C70252   9.443   5.667   9.997  0.9648 -0.0427 -0.0011
  533MOL0     C70253   9.550   5.563   9.979 -0.3278 -0.9559  0.1848
  533MOL0     O70254   9.658   5.590  10.058 -0.4896  0.1146  1.3679
  533MOL0     C70255   9.784   5.551  10.027 -0.3449  0.6231 -0.2281
  533MOL0     C70256   9.887   5.642   9.996  0.4281  0.8117  0.1491
  533MOL0     C70257  10.013   5.600   9.963 -0.0030 -0.2835 -0.8683
  533MOL0     C70258  10.040   5.466   9.972  0.0730  0.8222  0.3987
  533MOL0     O70259  10.165   5.405   9.942  0.3177 -0.2242 -0.6492
  533MOL0     C70260  10.289   5.473   9.983  0.4951 -0.5521  0.0554
  533MOL0     C70261  10.424   5.399   9.943  0.1369  1.0400 -0.2649
  533MOL0     C70262  10.455   5.276  10.024 -0.6435 -1.0272 -0.1380
  533MOL0     C70263  10.573   5.207   9.968  0.0790  0.6972  0.3291
  533MOL0     C70264  10.602   5.065  10.021  0.8547  1.1593 -0.3238
  533MOL0     C70265  10.726   5.001   9.959  0.1178 -0.1305 -0.6591
  533MOL0     C70266  10.768   4.886  10.046 -0.2444  0.4720  0.5808
  533MOL0     C70267  10.668   4.774  10.076 -0.6531 -0.3251 -0.5673
  533MOL0    Cl70268  10.596   4.734   9.927 -0.2688  0.9178  0.3684
  533MOL0     C70269   9.944   5.364  10.022  0.9826  0.0588 -0.6207
  533MOL0     C70270   9.815   5.413  10.052  1.5830  0.6755 -0.5112
  533MOL0     O70271   9.538   5.480   9.896  0.5644  0.7414  0.6129
  533MOL0     C70272   9.463   5.791  10.060 -1.1396 -0.1966 -0.1011
  533MOL0     C70273   9.357   5.884  10.050 -0.2909 -0.6836 -0.3888
  533MOL0     N70274   8.680   6.367   9.910  0.8293 -0.9782 -0.2337
  533MOL0     N70275   8.649   6.493   9.895 -0.4548 -0.1759 -0.5663
  533MOL0     C70276   7.726   6.672   9.861 -0.0879  0.0823  0.2546
  533MOL0     C70277   7.593   6.708   9.893 -0.2766  0.9318 -0.0617
  533MOL0     C70278   7.219   6.952   9.982  0.2932  1.0324 -0.3045
  533MOL0     C70279   7.180   6.999  10.110  0.3617 -0.8712  0.9448
  533MOL0     C70280   7.048   7.002  10.151 -0.3213  0.5017 -1.2516
  533MOL0     C70281   6.948   6.953  10.071  0.1676 -0.3574  0.7669
  533MOL0     O70282   6.829   6.974  10.125 -0.6334 -0.3797  0.5970
  533MOL0     C70283   6.719   6.916  10.062  0.0962  0.6435 -0.8155
  533MOL0     C70284   6.722   6.765  10.081  1.9600  0.4526  0.0195
  533MOL0     C70285   6.585   6.698  10.062 -0.7451 -0.1647  0.5334
  533MOL0     C70286   6.493   6.720  10.170 -0.6016  0.4254  1.0238
  533MOL0     C70287   6.362   6.713  10.104 -0.0204  0.1577  0.0663
  533MOL0     C70288   6.246   6.723  10.057 -0.1721  0.2477  0.0496
  533MOL0     C70289   6.987   6.892   9.945  0.3080  0.0796  0.2173
  533MOL0     C70290   7.121   6.891   9.910 -0.3450 -0.1758  0.2677
  533MOL0     H70291   7.580   7.024   9.779  0.7427  0.1712 -1.1920
  533MOL0     H70292   7.832   6.961   9.719 -1.5411  0.7276 -2.3313
  533MOL0     H70293   7.920   6.546   9.695 -0.2412  1.1206 -1.0479
  533MOL0     H70294   8.018   6.584   9.844  2.4655  0.5801  0.1771
  533MOL0     H70295   8.091   6.670   9.559 -1.5564  0.4561 -0.2724
  533MOL0     H70296   8.138   6.517   9.628 -1.9812 -0.0607 -0.4317
  533MOL0     H70297   8.196   6.809   9.721  3.8336  2.5311  0.2940
  533MOL0     H70298   8.323   6.713   9.634  1.3510 -0.9807  1.1808
  533MOL0     H70299   8.225   6.651   9.915  0.2560  3.6927  0.4427
  533MOL0     H70300   8.342   6.554   9.821  0.8791  1.0160 -0.7230
  533MOL0     H70301   8.378   6.858   9.878 -0.0280 -0.2333  1.6798
  533MOL0     H70302   8.495   6.745   9.819 -1.4565 -2.9110 -0.6322
  533MOL0     H70303   8.460   6.606  10.030  1.7647 -0.0653  0.0832
  533MOL0     H70304   8.386   6.749  10.100  1.2325 -0.4938  0.9058
  533MOL0     H70305   8.583   6.888  10.083 -1.1466  0.6409  1.9567
  533MOL0     H70306   8.583   6.745  10.183  2.0696 -3.0146 -1.4914
  533MOL0     H70307   8.813   6.744  10.062  0.9851 -0.1873  0.0263
  533MOL0     H70308   8.714   6.777   9.927 -4.3780  0.5904  0.1511
  533MOL0     H70309   8.840   6.502  10.162 -1.4781 -4.5997  2.1979
  533MOL0     H70310   8.696   6.169  10.103  1.3155 -1.4341  1.6193
  533MOL0     H70311   8.821   6.255  10.196  3.2466 -0.0209 -1.4847
  533MOL0     H70312   8.986   6.237  10.020 -1.0619  2.5574 -1.4712
  533MOL0     H70313   8.887   6.156   9.914 -2.7664 -1.1685  1.4281
  533MOL0     H70314   8.981   6.046  10.172  1.3118  1.0348 -1.4958
  533MOL0     H70315   8.829   5.977  10.107 -1.5185  1.9336  0.3784
  533MOL0     H70316   8.965   5.922   9.899 -1.9440  1.5969  1.5741
  533MOL0     H70317   8.996   5.816  10.027  1.2015 -0.8269 -4.2396
  533MOL0     H70318   9.119   5.720   9.877 -0.2483  1.4994 -0.9009
  533MOL0     H70319   9.303   5.562   9.856  1.4806 -0.4306  0.7621
  533MOL0     H70320   9.866   5.748   9.987  0.7991  0.8869  0.1521
  533MOL0     H70321  10.088   5.670   9.928 -4.0147  4.6000 -0.7659
  533MOL0     H70322  10.282   5.502  10.088  0.3696  1.6482 -0.5090
  533MOL0     H70323  10.287   5.571   9.936 -3.7661 -0.3980  0.0989
  533MOL0     H70324  10.500   5.477   9.958 -1.0118  2.4328 -1.4105
  533MOL0     H70325  10.433   5.378   9.836  4.5560 -2.4412  0.4870
  533MOL0     H70326  10.368   5.210  10.025 -1.6525  0.2498 -0.7445
  533MOL0     H70327  10.465   5.304  10.129 -2.3530 -2.6532  0.5264
  533MOL0     H70328  10.563   5.200   9.859 -0.8380 -0.0589  0.4547
  533MOL0     H70329  10.659   5.269   9.995 -1.3231  1.8746  2.3239
  533MOL0     H70330  10.506   5.014  10.006  0.5408  2.1498 -2.0565
  533MOL0     H70331  10.616   5.070  10.129 -0.0984  1.2504 -0.1946
  533MOL0     H70332  10.812   5.068   9.956  3.4725 -4.0203 -1.4777
  533MOL0     H70333  10.694   4.978   9.857 -3.8909 -0.9467  0.5913
  533MOL0     H70334  10.856   4.846   9.994 -0.3633  0.9769 -0.0201
  533MOL0     H70335  10.815   4.913  10.141  0.9468  0.3450  0.0510
  533MOL0     H70336  10.593   4.815  10.144 -1.5780 -0.1773 -1.6484
  533MOL0     H70337  10.720   4.689  10.122  0.8567  1.5477  1.4132
  533MOL0     H70338   9.977   5.262  10.041  0.0739 -0.8615 -3.4978
  533MOL0     H70339   9.758   5.335  10.100  2.9621  0.2643  0.5193
  533MOL0     H70340   9.555   5.824  10.106 -0.7989  1.2253 -1.7094
  533MOL0     H70341   9.374   5.975  10.106 -1.4671 -0.3294 -0.5779
  533MOL0     H70342   7.751   6.566   9.865 -3.1998 -1.0280 -3.4327
  533MOL0     H70343   7.524   6.639   9.940 -0.5947 -0.4173 -2.3478
  533MOL0     H70344   7.250   7.046  10.179 -0.2663 -1.0390  1.7167
  533MOL0     H70345   7.009   7.046  10.242 -0.4302 -2.4263  0.2466
  533MOL0     H70346   6.709   6.936   9.955 -1.4920 -1.0017 -1.0325
  533MOL0     H70347   6.632   6.952  10.118 -0.8963 -3.6345  0.8132
  533MOL0     H70348   6.774   6.713  10.000  1.3564  1.4680 -1.0579
  533MOL0     H70349   6.764   6.729  10.176  0.2017 -0.1056  0.6244
  533MOL0     H70350   6.606   6.591  10.071  0.3723  0.1583  2.2966
  533MOL0     H70351   6.542   6.727   9.965  0.9635 -0.5799 -0.3867
  533MOL0     H70352   6.490   6.628  10.228  1.5208 -1.5556 -1.7352
  533MOL0     H70353   6.506   6.807  10.236  2.1275  1.9870 -1.3325
  533MOL0     H70354   6.146   6.741  10.023 -0.1133  3.1489  1.1133
  533MOL0     H70355   6.915   6.847   9.878 -1.4665  4.2968 -1.0764
  533MOL0     H70356   7.154   6.831   9.825 -0.9326  2.0617 -1.6572
  534MOL0     O70357   4.584   0.911   1.219  0.2446 -0.0005  0.6309
  534MOL0     C70358   4.687   0.883   1.277 -0.2857  0.1359 -0.0103
  534MOL0     O70359   4.761   0.768   1.252  0.7475 -0.4079 -0.2843
  534MOL0     C70360   4.709   0.685   1.154 -0.3267 -1.4401 -0.4511
  534MOL0     C70361   4.721   0.723   1.017 -0.0537  0.8016  1.0016
  534MOL0     C70362   4.687   0.625   0.922 -0.3763  0.0019 -0.1719
  534MOL0     C70363   4.627   0.499   0.954  0.0022  0.0486 -0.2376
  534MOL0     O70364   4.611   0.407   0.848  0.7158 -0.2790  0.1508
  534MOL0     C70365   4.495   0.320   0.874 -0.2642 -0.3022  0.1700
  534MOL0     C70366   4.420   0.333   0.736 -0.1505  0.5793  0.1727
  534MOL0     C70367   4.288   0.262   0.740  0.4449 -0.1906 -0.3550
  534MOL0     C70368   4.206   0.278   0.616  1.0615 -0.6859 -0.3964
  534MOL0     C70369   4.091   0.175   0.601  0.6078  0.9162  0.7729
  534MOL0     C70370   3.995   0.191   0.487  0.1044 -0.5083  2.0369
  534MOL0     C70371   3.871   0.103   0.503 -0.0686  0.9297  0.5198
  534MOL0     C70372   3.745   0.173   0.465  0.5354  0.3660 -0.2758
  534MOL0     N70373   3.726   0.214   0.322  0.6713  0.1736  0.2287
  534MOL0     C70374   3.611   0.186   0.246  0.5099 -0.3503 -0.6535
  534MOL0     C70375   3.630   0.240   0.117  0.3641 -0.0592 -0.8433
  534MOL0     C70376   3.542   0.232   0.002 -0.5179 -0.2369  1.0383
  534MOL0     C70377   3.413   0.295   0.039  0.5593  0.8006  0.9769
  534MOL0     C70378   3.321   0.340  -0.079 -0.7799  0.1511  0.5051
  534MOL0     C70379   3.192   0.403  -0.020  0.8227 -0.4703  0.4475
  534MOL0     O70380   3.122   0.489  -0.113  0.3334  0.4934 -0.5008
  534MOL0     C70381   2.989   0.525  -0.087  0.7200 -1.0434 -1.1273
  534MOL0     C70382   2.922   0.503   0.034 -0.2745  0.3548  0.0074
  534MOL0     C70383   2.784   0.521   0.056  0.6219 -1.0117 -0.4299
  534MOL0     C70384   2.715   0.578  -0.049 -0.0577  0.4299  0.2214
  534MOL0     C70385   2.576   0.600  -0.038 -0.7230 -0.1807  0.5367
  534MOL0     O70386   2.506   0.522   0.059  0.7668 -0.9495 -0.3148
  534MOL0     C70387   2.370   0.533   0.069  0.3090 -0.4504  0.0411
  534MOL0     C70388   2.282   0.474  -0.021  0.8754 -0.2004 -0.4862
  534MOL0     C70389   2.145   0.487  -0.006 -0.1394  0.8039 -0.6589
  534MOL0     C70390   2.094   0.562   0.107  0.9746 -0.4999 -0.1752
  534MOL0     O70391   1.952   0.572   0.111 -0.1571 -0.2042 -0.4529
  534MOL0     C70392   1.886   0.496   0.212 -0.3866  0.2970 -0.3410
  534MOL0     C70393   1.743   0.468   0.169 -1.0142  0.0048  0.4103
  534MOL0     C70394   1.684   0.350   0.242 -0.6620  0.5182 -1.1706
  534MOL0     C70395   1.536   0.360   0.221 -0.2045 -0.3290  0.2209
  534MOL0     C70396   1.459   0.288   0.328 -0.6729 -0.3846  0.0671
  534MOL0     C70397   1.307   0.280   0.294  0.1747  0.1455  0.7392
  534MOL0     C70398   1.223   0.201   0.390  0.0386 -0.3498  0.4866
  534MOL0     C70399   1.077   0.211   0.361  0.0851 -0.3095 -0.5744
  534MOL0    Cl70400   1.011   0.371   0.416  0.3094 -0.4936  0.1827
  534MOL0     C70401   2.182   0.643   0.176 -0.0250  0.0411  0.2880
  534MOL0     C70402   2.321   0.628   0.167 -0.7360  0.6048  0.4981
  534MOL0     O70403   2.518   0.682  -0.112 -0.1185  0.4833  0.5311
  534MOL0     C70404   2.785   0.612  -0.167  0.9719  0.1713 -0.3751
  534MOL0     C70405   2.916   0.585  -0.189  0.5699  0.0021  0.2184
  534MOL0     N70406   3.743   0.321   0.134 -0.3920  0.4008 -0.2695
  534MOL0     N70407   3.810   0.290   0.247  0.2673  0.4475 -0.1862
  534MOL0     C70408   4.617   0.475   1.093 -0.1490 -0.3549 -0.0824
  534MOL0     C70409   4.656   0.561   1.191 -0.1142  0.0375 -0.7415
  534MOL0     C70410   4.739   0.979   1.380  0.2240 -0.5918 -0.8555
  534MOL0     C70411   4.840   0.934   1.473  0.3094 -0.7520 -0.1049
  534MOL0     C70412   4.890   1.029   1.564 -0.9714 -0.1401  0.5324
  534MOL0     C70413   4.837   1.156   1.587 -0.4246 -0.6683 -0.7760
  534MOL0     O70414   4.882   1.250   1.675 -0.4045 -0.3541 -0.6503
  534MOL0     C70415   5.016   1.229   1.731  0.0198  0.6820  0.9782
  534MOL0     C70416   5.014   1.136   1.855 -0.3423  0.5605 -0.6511
  534MOL0     C70417   5.156   1.094   1.893  0.2443  0.2943  0.1322
  534MOL0     C70418   5.156   0.959   1.959 -0.6116  0.5059 -0.2882
  534MOL0     C70419   5.101   0.846   1.878 -0.0482 -0.4082 -1.1958
  534MOL0     C70420   5.057   0.742   1.827  0.0741 -0.5518  0.1993
  534MOL0     C70421   4.729   1.193   1.501  0.4147  0.7207  0.2881
  534MOL0     C70422   4.691   1.117   1.395 -0.3899 -0.2804 -0.5982
  534MOL0     H70423   4.768   0.820   0.999 -0.9165  1.2105  0.8831
  534MOL0     H70424   4.721   0.646   0.821 -1.5505 -0.7183 -0.7421
  534MOL0     H70425   4.425   0.356   0.950 -2.4793  0.4559 -2.0832
  534MOL0     H70426   4.527   0.221   0.906  2.9872  0.3182 -0.7908
  534MOL0     H70427   4.478   0.286   0.655 -0.6819  1.2625 -0.6213
  534MOL0     H70428   4.419   0.441   0.724  2.3816  1.1070  3.3515
  534MOL0     H70429   4.232   0.312   0.820 -2.5718  0.5700 -2.7068
  534MOL0     H70430   4.297   0.157   0.767 -3.0681  0.0459  2.5975
  534MOL0     H70431   4.158   0.376   0.621 -1.1484 -1.7681  1.6430
  534MOL0     H70432   4.269   0.266   0.527 -1.2007 -2.2860 -1.9172
  534MOL0     H70433   4.028   0.178   0.690  2.4912 -1.4900  2.3426
  534MOL0     H70434   4.142   0.078   0.598  0.7228  0.9821  0.5848
  534MOL0     H70435   4.049   0.183   0.392  1.2588  4.1646  2.0302
  534MOL0     H70436   3.970   0.298   0.490  1.6535 -0.0580  0.3379
  534MOL0     H70437   3.876   0.014   0.439 -2.5545  0.4391  0.8862
  534MOL0     H70438   3.848   0.077   0.607 -3.3604  1.3263  0.0026
  534MOL0     H70439   3.742   0.269   0.516 -1.3526  1.6666 -2.6087
  534MOL0     H70440   3.660   0.112   0.496 -0.3498  3.2297  3.5443
  534MOL0     H70441   3.533   0.120   0.283  0.3738  1.0795  1.8346
  534MOL0     H70442   3.525   0.130  -0.036 -2.5161 -0.3768  2.1598
  534MOL0     H70443   3.590   0.285  -0.081 -2.3819  0.9490  0.6517
  534MOL0     H70444   3.425   0.382   0.105  1.7724 -1.1676  3.5394
  534MOL0     H70445   3.364   0.221   0.104  0.5497  0.5993  0.7396
  534MOL0     H70446   3.363   0.403  -0.158  0.3241 -2.7552 -1.4382
  534MOL0     H70447   3.282   0.246  -0.119 -1.9940 -0.7543  3.5673
  534MOL0     H70448   3.225   0.467   0.063  0.4917  1.2681 -0.6938
  534MOL0     H70449   3.127   0.325   0.020  1.1254  1.0489  4.3352
  534MOL0     H70450   2.978   0.451   0.111 -0.6872 -1.5302 -0.9121
  534MOL0     H70451   2.729   0.492   0.145 -0.3553  1.2467 -0.2169
  534MOL0     H70452   2.323   0.422  -0.107  2.3862  2.3727 -1.4278
  534MOL0     H70453   2.077   0.424  -0.062 -2.4457  1.6612  1.0055
  534MOL0     H70454   1.894   0.548   0.308  0.9074  0.9279 -0.7643
  534MOL0     H70455   1.924   0.396   0.235  0.1959  1.2039  3.1934
  534MOL0     H70456   1.736   0.447   0.061  0.0273 -2.3772  0.7414
  534MOL0     H70457   1.688   0.559   0.197  1.1536  2.4714 -2.6443
  534MOL0     H70458   1.714   0.354   0.347  0.3973 -4.5388 -1.0089
  534MOL0     H70459   1.736   0.258   0.212  2.3895  1.4652  0.7705
  534MOL0     H70460   1.500   0.461   0.200 -1.3225 -0.6774  0.4458
  534MOL0     H70461   1.514   0.307   0.127  0.4763 -1.9659  0.9446
  534MOL0     H70462   1.477   0.348   0.418  3.1954  2.5729 -2.3955
  534MOL0     H70463   1.509   0.191   0.335 -0.0369 -0.1209 -0.7169
  534MOL0     H70464   1.301   0.253   0.188 -1.5277 -2.3204  1.3893
  534MOL0     H70465   1.275   0.385   0.290 -1.7367 -0.3914 -3.3949
  534MOL0     H70466   1.243   0.093   0.390 -0.5713 -0.5342 -2.3664
  534MOL0     H70467   1.253   0.234   0.489  1.3533 -1.0155  0.3425
  534MOL0     H70468   1.021   0.140   0.422  0.0940  0.8125  0.7705
  534MOL0     H70469   1.056   0.210   0.253  0.3098 -1.7905 -0.6251
  534MOL0     H70470   2.141   0.718   0.243 -0.8241 -0.7348  0.6853
  534MOL0     H70471   2.393   0.676   0.233  1.7980 -1.8944 -0.2051
  534MOL0     H70472   2.725   0.631  -0.256  1.4894  0.6119 -0.6329
  534MOL0     H70473   2.954   0.601  -0.289 -2.7492  0.5887 -1.0638
  534MOL0     H70474   4.584   0.376   1.121 -1.8413  0.1645 -0.1467
  534MOL0     H70475   4.643   0.539   1.297 -3.0048 -0.2089 -1.0791
  534MOL0     H70476   4.886   0.836   1.472  1.1976 -0.3418 -1.1394
  534MOL0     H70477   4.971   0.984   1.621  0.0959  1.1657  0.0940
  534MOL0     H70478   5.046   1.328   1.767 -2.0334  1.3260  1.0264
  534MOL0     H70479   5.091   1.201   1.657 -1.1863 -3.2639  1.0352
  534MOL0     H70480   4.968   1.189   1.939 -0.3135 -0.1354 -0.1872
  534MOL0     H70481   4.957   1.046   1.830  1.6755 -0.6308 -1.1750
  534MOL0     H70482   5.201   1.167   1.960  3.3671 -0.3260 -1.1071
  534MOL0     H70483   5.216   1.081   1.802  0.0702 -0.3521  0.1015
  534MOL0     H70484   5.249   0.925   2.005 -1.5308 -0.3916  0.9698
  534MOL0     H70485   5.082   0.975   2.038  0.0895  2.2150  0.0605
  534MOL0     H70486   5.004   0.671   1.767 -2.0235  1.5403 -0.5990
  534MOL0     H70487   4.676   1.287   1.515  0.0676  0.7839 -1.2283
  534MOL0     H70488   4.614   1.135   1.320 -0.2955  2.9101 -0.0724
  535MOL0     O70489   6.296   2.659   4.557  0.1341 -1.2114  0.1129
  535MOL0     C70490   6.253   2.717   4.654  1.4444 -0.1085 -0.4984
  535MOL0     O70491   6.188   2.660   4.761  0.6937 -0.4939 -0.5731
  535MOL0     C70492   6.192   2.535   4.806  0.4592  0.5803 -0.2189
  535MOL0     C70493   6.151   2.506   4.935 -0.0658 -0.2411  0.2537
  535MOL0     C70494   6.152   2.372   4.975  0.4669 -0.4831 -0.3436
  535MOL0     C70495   6.195   2.265   4.894  0.1581  0.9402  0.0534
  535MOL0     O70496   6.181   2.135   4.939  0.2883 -0.2500  0.8303
  535MOL0     C70497   6.217   2.033   4.839 -0.4028  0.7232  0.8594
  535MOL0     C70498   6.208   1.893   4.904 -0.2869  1.1894  0.1115
  535MOL0     C70499   6.061   1.849   4.906  0.1481 -0.1019 -0.0810
  535MOL0     C70500   6.037   1.695   4.930  0.2158  0.4758  0.4822
  535MOL0     C70501   5.892   1.665   4.917  0.4061 -0.4565 -0.6352
  535MOL0     C70502   5.868   1.529   4.971  0.4663 -0.8053 -0.0595
  535MOL0     C70503   5.719   1.503   4.965 -0.7793  0.3518 -1.2208
  535MOL0     C70504   5.688   1.380   5.052  0.7330  0.1917  0.0770
  535MOL0     N70505   5.545   1.362   5.033  0.1199 -0.9655  0.3619
  535MOL0     C70506   5.450   1.352   5.133 -0.0891 -0.0905  0.4944
  535MOL0     C70507   5.345   1.290   5.076 -0.2421  0.2853 -0.0449
  535MOL0     C70508   5.220   1.263   5.142  0.9500  0.4220 -0.5315
  535MOL0     C70509   5.191   1.116   5.181  0.0330  0.5835 -0.1937
  535MOL0     C70510   5.086   1.110   5.302 -0.0432 -0.2031  1.1512
  535MOL0     C70511   5.025   0.980   5.313 -0.5674  0.0532  0.0275
  535MOL0     O70512   4.943   0.940   5.202 -0.2726 -0.1118  0.4785
  535MOL0     C70513   4.904   0.807   5.187  0.1211 -0.2741  0.0895
  535MOL0     C70514   4.850   0.759   5.068  0.7362 -0.0589  0.2446
  535MOL0     C70515   4.808   0.628   5.046  0.1637  0.5225 -0.5167
  535MOL0     C70516   4.827   0.531   5.150 -0.3686  0.0862 -1.0118
  535MOL0     C70517   4.774   0.389   5.135  0.0596  0.1675 -0.6680
  535MOL0     O70518   4.741   0.355   5.009 -0.3029  0.7602  0.5890
  535MOL0     C70519   4.668   0.241   4.992 -0.2456  0.8865  1.5427
  535MOL0     C70520   4.550   0.210   5.055 -0.0835  0.5277 -0.6192
  535MOL0     C70521   4.460   0.105   5.008 -1.0398 -0.4438 -0.0492
  535MOL0     C70522   4.487   0.024   4.895 -0.3164  0.5065 -0.0998
  535MOL0     O70523   4.400  -0.078   4.867  0.1327  0.8314 -0.3903
  535MOL0     C70524   4.410  -0.150   4.741 -0.2792 -0.5337 -0.5009
  535MOL0     C70525   4.335  -0.277   4.759 -0.0962  0.6332  0.3711
  535MOL0     C70526   4.344  -0.354   4.632 -0.5434  1.0730 -0.2093
  535MOL0     C70527   4.259  -0.483   4.654 -0.4289 -0.6798  0.1486
  535MOL0     C70528   4.288  -0.601   4.564 -1.2506 -0.3751  0.1701
  535MOL0     C70529   4.167  -0.667   4.504  0.4673 -0.2236  0.9764
  535MOL0     C70530   4.090  -0.743   4.604 -0.7976  0.3311  0.6747
  535MOL0     C70531   3.965  -0.803   4.549 -0.2205  0.3971  0.4712
  535MOL0    Cl70532   3.958  -0.978   4.552  0.2806  0.2592  0.5188
  535MOL0     C70533   4.615   0.046   4.840 -1.0823  0.5954 -0.3306
  535MOL0     C70534   4.698   0.148   4.887 -0.2917 -0.4256 -0.4223
  535MOL0     O70535   4.750   0.328   5.236 -0.7701 -0.5423 -0.5295
  535MOL0     C70536   4.902   0.573   5.264  0.6197 -0.4751  0.1985
  535MOL0     C70537   4.931   0.709   5.284  0.3793 -0.3924 -0.7624
  535MOL0     N70538   5.370   1.268   4.941 -0.4474 -1.3141 -0.6379
  535MOL0     N70539   5.493   1.300   4.918 -0.1228  0.9725  0.2003
  535MOL0     C70540   6.244   2.305   4.772 -0.1843 -0.1598  0.2305
  535MOL0     C70541   6.249   2.434   4.733 -0.0515  0.1110 -0.0988
  535MOL0     C70542   6.261   2.865   4.645  0.0586 -0.2376 -0.6498
  535MOL0     C70543   6.327   2.927   4.538  0.1461  0.0718 -0.0510
  535MOL0     C70544   6.330   3.062   4.522  0.2322 -0.6702 -0.2317
  535MOL0     C70545   6.284   3.143   4.624  0.6928 -0.6201 -0.6001
  535MOL0     O70546   6.300   3.290   4.635  0.2914  0.1515  0.4826
  535MOL0     C70547   6.336   3.358   4.756 -0.0145 -1.1258 -0.2814
  535MOL0     C70548   6.438   3.461   4.704 -0.3935  0.0647 -0.6604
  535MOL0     C70549   6.564   3.387   4.661 -0.7236 -0.5599  0.3722
  535MOL0     C70550   6.685   3.484   4.655  0.5789 -0.2432 -0.1252
  535MOL0     C70551   6.804   3.427   4.604  0.6626  1.0745  0.0094
  535MOL0     C70552   6.908   3.371   4.573 -0.5712  0.1624 -0.1161
  535MOL0     C70553   6.228   3.078   4.734  0.0700 -0.3105 -0.0371
  535MOL0     C70554   6.215   2.942   4.746  0.3875  0.2553 -0.5309
  535MOL0     H70555   6.120   2.586   5.002 -3.0665 -1.1337  0.1133
  535MOL0     H70556   6.105   2.352   5.071 -0.3365 -0.2377 -0.6763
  535MOL0     H70557   6.322   2.045   4.811 -0.2027 -3.1194 -0.5829
  535MOL0     H70558   6.154   2.036   4.750  0.9969 -1.1869 -0.2646
  535MOL0     H70559   6.250   1.899   5.004 -1.3493  1.1828  0.5696
  535MOL0     H70560   6.268   1.811   4.861 -0.5507 -1.6019  4.4699
  535MOL0     H70561   6.006   1.882   4.818 -0.7926 -0.1049  0.4889
  535MOL0     H70562   6.021   1.909   4.988  2.2100 -0.3010  1.1310
  535MOL0     H70563   6.098   1.632   4.865  1.3025  2.0648 -0.0894
  535MOL0     H70564   6.068   1.678   5.034 -2.4421 -0.4532  1.2044
  535MOL0     H70565   5.862   1.674   4.812  3.3561 -1.5732 -1.6725
  535MOL0     H70566   5.831   1.737   4.973 -0.0045 -0.5284 -0.9839
  535MOL0     H70567   5.896   1.523   5.076 -1.2440 -0.2804  0.4504
  535MOL0     H70568   5.917   1.451   4.912 -0.4916 -2.0269  0.7352
  535MOL0     H70569   5.662   1.585   5.011  0.3729  0.8938 -0.7144
  535MOL0     H70570   5.693   1.496   4.859  3.1891  2.2310 -2.5074
  535MOL0     H70571   5.715   1.409   5.154  1.2660  0.9023 -0.2567
  535MOL0     H70572   5.733   1.290   5.009  1.2717  1.3249 -1.8459
  535MOL0     H70573   5.451   1.387   5.236 -2.2711 -2.5350  1.4463
  535MOL0     H70574   5.136   1.296   5.080  0.8117 -1.5824 -1.5175
  535MOL0     H70575   5.228   1.320   5.234  3.3904 -1.8180  0.7950
  535MOL0     H70576   5.284   1.064   5.208  0.6369  2.1057  0.8056
  535MOL0     H70577   5.153   1.061   5.095 -1.1484  2.7045 -1.0812
  535MOL0     H70578   5.132   1.128   5.399 -1.4201  1.6547  1.5188
  535MOL0     H70579   5.004   1.181   5.287  1.8214  2.7254  3.6902
  535MOL0     H70580   4.967   0.983   5.405  1.5703  2.3088  1.3976
  535MOL0     H70581   5.115   0.918   5.311 -0.3557  0.3099  1.3324
  535MOL0     H70582   4.836   0.834   4.991  0.7013 -0.3452 -0.0291
  535MOL0     H70583   4.751   0.605   4.957  0.9653  2.0793 -1.4703
  535MOL0     H70584   4.506   0.276   5.129  1.2328  0.0447  0.6501
  535MOL0     H70585   4.367   0.100   5.063 -0.5514  2.0778  1.1791
  535MOL0     H70586   4.512  -0.188   4.732  0.2021  0.0512  1.8274
  535MOL0     H70587   4.386  -0.079   4.662 -2.9255 -2.2589 -1.3753
  535MOL0     H70588   4.231  -0.265   4.792 -0.1080 -0.4531  0.7679
  535MOL0     H70589   4.383  -0.337   4.837 -1.5102 -0.4785  0.4243
  535MOL0     H70590   4.445  -0.396   4.620 -0.6108  0.6002  0.7650
  535MOL0     H70591   4.306  -0.291   4.551 -0.8007 -0.3129 -1.2020
  535MOL0     H70592   4.277  -0.518   4.756  1.6351  0.4749  0.2255
  535MOL0     H70593   4.154  -0.453   4.643 -1.6487 -4.9791 -2.1910
  535MOL0     H70594   4.346  -0.680   4.613  0.9643  0.7343 -0.5390
  535MOL0     H70595   4.341  -0.560   4.477 -0.0305 -0.0342  1.0515
  535MOL0     H70596   4.200  -0.733   4.423  0.7962  3.7341 -2.4675
  535MOL0     H70597   4.104  -0.593   4.452 -0.4241 -3.1355 -2.5011
  535MOL0     H70598   4.154  -0.827   4.633  0.2021  0.2184 -1.6611
  535MOL0     H70599   4.075  -0.688   4.697  2.9387  1.7209  0.6106
  535MOL0     H70600   3.940  -0.770   4.447 -0.4682 -0.9308  0.0835
  535MOL0     H70601   3.886  -0.760   4.611 -0.4550  1.1316 -0.3098
  535MOL0     H70602   4.648  -0.006   4.751 -2.5761  0.3132 -0.7520
  535MOL0     H70603   4.794   0.157   4.837  0.3048  2.5307  1.0196
  535MOL0     H70604   4.918   0.502   5.345 -2.5361  1.2471  2.5526
  535MOL0     H70605   4.985   0.726   5.377  1.9642 -0.6007 -1.6007
  535MOL0     H70606   6.291   2.229   4.710  0.1222 -1.4285  1.9188
  535MOL0     H70607   6.298   2.450   4.638 -1.3107  1.9571 -0.5020
  535MOL0     H70608   6.364   2.868   4.455  1.6264  2.2549 -1.0330
  535MOL0     H70609   6.382   3.109   4.439 -3.2571  2.0858 -1.1143
  535MOL0     H70610   6.363   3.287   4.835 -3.9390 -2.2956  0.2355
  535MOL0     H70611   6.251   3.416   4.793  0.4267  0.6306 -1.9163
  535MOL0     H70612   6.409   3.532   4.626  1.4331  2.9713  1.1361
  535MOL0     H70613   6.468   3.524   4.788 -2.0197 -0.4107  0.3232
  535MOL0     H70614   6.546   3.340   4.564 -1.5354 -0.6853  0.5761
  535MOL0     H70615   6.584   3.302   4.728 -2.1573  0.2455  1.9041
  535MOL0     H70616   6.655   3.570   4.594  0.1893  0.5335  1.1105
  535MOL0     H70617   6.700   3.523   4.756  0.3616 -3.1885  1.1515
  535MOL0     H70618   6.999   3.331   4.532 -0.9788 -0.2869 -0.5904
  535MOL0     H70619   6.191   3.142   4.813 -0.2499  0.5047 -0.8222
  535MOL0     H70620   6.160   2.896   4.827 -0.8522 -0.2130 -1.6129
  536MOL0     O70621   8.956   7.475   3.652  0.6261 -0.2422 -0.6165
  536MOL0     C70622   8.954   7.368   3.718 -1.0435 -0.3525 -0.1156
  536MOL0     O70623   9.069   7.298   3.769  0.4617 -0.4048 -0.0282
  536MOL0     C70624   9.197   7.339   3.745 -0.2348 -0.9391  0.6352
  536MOL0     C70625   9.237   7.428   3.644 -0.0279 -0.0244 -0.2474
  536MOL0     C70626   9.374   7.456   3.631  0.7555 -0.3505  0.1607
  536MOL0     C70627   9.471   7.391   3.710  0.9229 -0.2845  0.1160
  536MOL0     O70628   9.602   7.402   3.681 -0.8715 -0.4165  0.5156
  536MOL0     C70629   9.706   7.316   3.729 -0.1501 -0.7905  0.5884
  536MOL0     C70630   9.748   7.372   3.873 -0.7833  0.4951  0.8103
  536MOL0     C70631   9.809   7.509   3.852 -0.2920  0.5151 -0.4085
  536MOL0     C70632   9.959   7.520   3.792 -1.2399 -0.0043 -0.5700
  536MOL0     C70633   9.992   7.646   3.721  0.1237  0.3204  0.1665
  536MOL0     C70634   9.970   7.770   3.812 -1.1607  0.2788  0.6817
  536MOL0     C70635  10.055   7.882   3.751 -0.5105  0.6830 -0.5590
  536MOL0     C70636  10.208   7.867   3.780 -0.4020 -0.6718 -0.1483
  536MOL0     N70637  10.242   7.855   3.917  0.0292  0.1244  0.2867
  536MOL0     C70638  10.273   7.737   3.983 -0.3597  0.4890  0.3496
  536MOL0     C70639  10.274   7.767   4.111 -0.0891  0.2542 -0.7864
  536MOL0     C70640  10.319   7.676   4.217 -0.5146  0.7334 -0.7040
  536MOL0     C70641  10.279   7.721   4.353  0.0578  0.3563 -0.2710
  536MOL0     C70642  10.394   7.787   4.428 -0.0226  0.0785  0.0253
  536MOL0     C70643  10.466   7.683   4.522  0.2575 -0.3216  0.3787
  536MOL0     O70644  10.396   7.652   4.646 -0.3332  0.2776 -0.6833
  536MOL0     C70645  10.438   7.555   4.741  1.0665 -0.6136  0.4881
  536MOL0     C70646  10.556   7.480   4.735  0.6229 -0.2813  0.1535
  536MOL0     C70647  10.577   7.407   4.851  0.5951  0.4675 -0.4676
  536MOL0     C70648  10.487   7.392   4.968  0.2306 -0.5800  0.4023
  536MOL0     C70649  10.515   7.307   5.086 -0.0608  0.0376 -0.1436
  536MOL0     O70650  10.615   7.224   5.072 -1.1370  0.4523  0.5892
  536MOL0     C70651  10.659   7.158   5.177 -0.0635  0.0435 -0.1987
  536MOL0     C70652  10.594   7.050   5.233 -0.2010 -0.9726 -0.0746
  536MOL0     C70653  10.657   6.980   5.340 -0.0589 -0.2370 -0.0119
  536MOL0     C70654  10.776   7.020   5.401 -0.0754  0.3931  0.3705
  536MOL0     O70655  10.825   6.941   5.502 -0.4832 -0.3823 -0.0863
  536MOL0     C70656  10.863   7.025   5.616  0.0950  0.0444  0.4344
  536MOL0     C70657  10.907   6.939   5.733  0.1888 -0.0686 -0.4830
  536MOL0     C70658  10.802   6.835   5.782  1.2904  0.1241 -0.6120
  536MOL0     C70659  10.815   6.700   5.701  0.4565 -0.3798 -1.2089
  536MOL0     C70660  10.681   6.627   5.720  0.6920  0.5125 -0.0034
  536MOL0     C70661  10.568   6.687   5.634 -0.2384 -0.1802  0.1547
  536MOL0     C70662  10.427   6.651   5.681 -0.5113 -0.1317 -0.4411
  536MOL0     C70663  10.402   6.501   5.714 -0.3637 -0.2267  0.4198
  536MOL0    Cl70664  10.228   6.461   5.710  0.5040  0.4979 -0.7176
  536MOL0     C70665  10.844   7.124   5.333  0.2612 -0.1348 -0.0409
  536MOL0     C70666  10.784   7.191   5.227 -0.6252 -0.5259  0.3925
  536MOL0     O70667  10.432   7.301   5.177 -0.0114  0.2364  0.3248
  536MOL0     C70668  10.369   7.464   4.964  0.0316  0.4960 -0.4047
  536MOL0     C70669  10.336   7.543   4.846  0.6559  1.0325 -0.2086
  536MOL0     N70670  10.254   7.900   4.126  0.5730 -0.5564  0.3479
  536MOL0     N70671  10.243   7.954   4.008 -0.3058 -1.0433  0.2281
  536MOL0     C70672   9.425   7.300   3.805  0.3594  0.7394 -0.1840
  536MOL0     C70673   9.290   7.282   3.831 -0.0796 -1.0547  0.5741
  536MOL0     C70674   8.829   7.304   3.736  0.1745 -0.5073  0.0250
  536MOL0     C70675   8.820   7.183   3.809  0.4360  0.4319 -0.5426
  536MOL0     C70676   8.696   7.125   3.827 -0.3968  0.5049  0.0544
  536MOL0     C70677   8.584   7.175   3.770  0.8470 -0.1645  0.4785
  536MOL0     O70678   8.474   7.091   3.772  0.7276  0.4400 -0.6054
  536MOL0     C70679   8.344   7.150   3.789  0.3634  0.6231 -1.1251
  536MOL0     C70680   8.326   7.185   3.928 -0.4663 -0.1284  0.0798
  536MOL0     C70681   8.322   7.048   4.015 -0.2744 -0.0651  0.2283
  536MOL0     C70682   8.204   6.960   3.986  0.0717 -0.5309  0.0971
  536MOL0     C70683   8.077   7.037   4.001 -0.4762  0.3685 -0.6742
  536MOL0     C70684   7.972   7.097   4.012 -0.1592 -0.0271 -0.6397
  536MOL0     C70685   8.590   7.293   3.686  0.5211  0.0400  0.3088
  536MOL0     C70686   8.714   7.351   3.677  0.7066 -0.5471 -0.0936
  536MOL0     H70687   9.166   7.486   3.585 -1.1251 -0.2797  0.7696
  536MOL0     H70688   9.407   7.533   3.562  0.4646  0.0048  0.4182
  536MOL0     H70689   9.794   7.328   3.666  0.2511 -1.4930  1.0034
  536MOL0     H70690   9.668   7.214   3.723 -2.4923  0.1084 -3.1003
  536MOL0     H70691   9.819   7.303   3.918 -1.6397 -0.3408  0.9057
  536MOL0     H70692   9.661   7.388   3.937 -0.8479  1.9729  0.3970
  536MOL0     H70693   9.798   7.570   3.942 -0.6927  0.0598 -0.1477
  536MOL0     H70694   9.749   7.555   3.773  1.8667  1.8782 -1.3364
  536MOL0     H70695  10.021   7.507   3.882 -1.2299  1.4379 -0.3484
  536MOL0     H70696   9.966   7.439   3.719 -1.8698  0.3204 -0.9899
  536MOL0     H70697   9.920   7.658   3.640 -0.2505  0.5071  0.5271
  536MOL0     H70698  10.095   7.637   3.684 -0.4911 -2.0066 -1.1734
  536MOL0     H70699  10.003   7.754   3.915  1.3926  0.1242 -0.1012
  536MOL0     H70700   9.862   7.787   3.805 -0.9902  0.9369 -0.5324
  536MOL0     H70701  10.047   7.879   3.642 -1.3837 -1.5139 -0.4925
  536MOL0     H70702  10.016   7.977   3.789 -0.5501  1.4096 -2.3062
  536MOL0     H70703  10.248   7.958   3.736  0.5341 -2.1049 -2.4797
  536MOL0     H70704  10.259   7.784   3.729  2.1290 -0.7450  2.2837
  536MOL0     H70705  10.302   7.639   3.946 -0.2419 -0.3341  2.5083
  536MOL0     H70706  10.428   7.664   4.217 -0.5452  0.2946  0.4713
  536MOL0     H70707  10.266   7.580   4.210  0.0917  0.3980 -0.7513
  536MOL0     H70708  10.240   7.637   4.411  0.4177 -0.7020 -1.5100
  536MOL0     H70709  10.198   7.795   4.347 -0.9123 -0.5480  1.0747
  536MOL0     H70710  10.466   7.837   4.362 -1.9035  1.9097 -0.7441
  536MOL0     H70711  10.350   7.857   4.499  0.7391  0.0808  0.5050
  536MOL0     H70712  10.565   7.719   4.551 -1.1377  1.6921  3.1410
  536MOL0     H70713  10.480   7.597   4.455  1.8081  0.9054 -0.9477
  536MOL0     H70714  10.629   7.494   4.656 -1.2406 -2.2335 -2.1205
  536MOL0     H70715  10.674   7.361   4.869  0.3440 -0.9931 -2.4618
  536MOL0     H70716  10.498   7.019   5.192  0.0451  1.6349 -2.9831
  536MOL0     H70717  10.619   6.895   5.395  2.3757 -1.5988 -0.3018
  536MOL0     H70718  10.794   7.102   5.649  1.1241  0.2813  2.1594
  536MOL0     H70719  10.951   7.086   5.593  0.6336 -0.9154 -0.1493
  536MOL0     H70720  10.927   7.007   5.817 -0.1216 -0.1098 -0.3739
  536MOL0     H70721  10.997   6.885   5.702  0.1402  0.6149 -1.8898
  536MOL0     H70722  10.704   6.882   5.775  1.6910  0.8097 -2.2719
  536MOL0     H70723  10.815   6.807   5.887  1.1927 -1.4637 -0.9990
  536MOL0     H70724  10.831   6.729   5.597 -1.6007  0.6334 -1.3061
  536MOL0     H70725  10.901   6.647   5.743 -0.8770  0.0880  2.5274
  536MOL0     H70726  10.663   6.593   5.823  0.9201 -0.0311 -0.1396
  536MOL0     H70727  10.689   6.529   5.670  0.9881  0.9560 -0.8390
  536MOL0     H70728  10.575   6.651   5.531  3.4617  0.9708 -0.1532
  536MOL0     H70729  10.570   6.796   5.640  2.4360 -0.2384  2.9574
  536MOL0     H70730  10.397   6.706   5.771  2.4873  0.8950  0.0309
  536MOL0     H70731  10.347   6.675   5.611 -1.4834 -0.5496  0.4949
  536MOL0     H70732  10.459   6.465   5.800  0.6894 -0.3512 -0.3072
  536MOL0     H70733  10.441   6.448   5.626 -1.6998 -1.1400  0.3608
  536MOL0     H70734  10.946   7.130   5.369  0.5758 -1.3167 -0.6671
  536MOL0     H70735  10.836   7.267   5.170 -2.4731  0.2720 -0.3198
  536MOL0     H70736  10.300   7.449   5.047 -1.0372 -1.6948 -1.5950
  536MOL0     H70737  10.244   7.600   4.843  0.0877  0.4367  2.5759
  536MOL0     H70738   9.494   7.243   3.866 -0.3535 -2.0434 -1.7863
  536MOL0     H70739   9.244   7.220   3.906 -0.7843  0.8591  1.8016
  536MOL0     H70740   8.910   7.128   3.835  0.3924  0.3543 -0.5567
  536MOL0     H70741   8.683   7.032   3.881 -2.2652  0.4440 -0.4499
  536MOL0     H70742   8.274   7.077   3.747  0.4425 -1.1348  1.5614
  536MOL0     H70743   8.346   7.246   3.737 -1.8164  1.1422 -0.3552
  536MOL0     H70744   8.413   7.242   3.962 -1.7931  1.8331  0.3160
  536MOL0     H70745   8.240   7.250   3.946 -1.3900 -0.9770 -1.1091
  536MOL0     H70746   8.315   7.091   4.116  1.2846  1.2691 -0.1787
  536MOL0     H70747   8.422   7.003   4.005  0.8380  2.7588 -3.4627
  536MOL0     H70748   8.204   6.926   3.882 -1.3854 -0.5002  0.0531
  536MOL0     H70749   8.199   6.869   4.048 -0.8323 -1.3832 -1.1631
  536MOL0     H70750   7.871   7.131   4.024  0.7872  2.2674  2.3199
  536MOL0     H70751   8.504   7.330   3.631  1.8894  4.8621  0.9751
  536MOL0     H70752   8.713   7.440   3.615  0.1651  0.7792  1.7295
  537MOL0     O70753   9.214   3.690   5.783  0.2514 -0.0658 -0.3704
  537MOL0     C70754   9.277   3.743   5.692  0.7185  1.0347 -0.2253
  537MOL0     O70755   9.220   3.817   5.600 -0.4534 -0.4369 -0.3497
  537MOL0     C70756   9.080   3.829   5.596 -0.5505  0.3199  0.0327
  537MOL0     C70757   9.010   3.875   5.706 -0.7496  0.1845  0.2123
  537MOL0     C70758   8.872   3.875   5.700 -0.8435 -0.2486 -0.0866
  537MOL0     C70759   8.800   3.853   5.577  0.5384  0.2471 -0.0052
  537MOL0     O70760   8.669   3.877   5.576 -0.4830 -0.4499  0.3522
  537MOL0     C70761   8.598   3.812   5.473 -0.2581 -0.1551 -0.1237
  537MOL0     C70762   8.456   3.794   5.534 -0.3237  0.3892  0.3395
  537MOL0     C70763   8.468   3.711   5.658  0.3175  0.2447 -0.0766
  537MOL0     C70764   8.321   3.675   5.716  0.2225  0.4165  0.1263
  537MOL0     C70765   8.315   3.602   5.850 -0.0326 -0.2728  0.6849
  537MOL0     C70766   8.182   3.622   5.917 -0.1045 -0.2544 -0.3695
  537MOL0     C70767   8.190   3.593   6.064 -0.6346  0.0641  0.5329
  537MOL0     C70768   8.080   3.517   6.127  0.4856 -0.9670  0.1563
  537MOL0     N70769   7.947   3.592   6.114  0.3962 -0.5456 -0.3689
  537MOL0     C70770   7.859   3.570   6.008 -0.2923 -0.1953 -0.0213
  537MOL0     C70771   7.763   3.656   6.029  0.6144 -0.5323 -0.0766
  537MOL0     C70772   7.634   3.673   5.948 -0.7036  0.4832 -0.5383
  537MOL0     C70773   7.553   3.550   5.957  0.3282  0.7575 -0.9160
  537MOL0     C70774   7.413   3.577   5.884 -0.3633  0.4704 -0.6999
  537MOL0     C70775   7.302   3.479   5.925 -0.0566 -0.2016 -1.1518
  537MOL0     O70776   7.341   3.344   5.892 -0.4058 -0.5593 -0.2887
  537MOL0     C70777   7.238   3.253   5.923 -0.7433 -0.0962 -0.0003
  537MOL0     C70778   7.109   3.253   5.869  0.3420 -0.5453 -0.1941
  537MOL0     C70779   7.013   3.159   5.889  0.2507 -0.2789 -0.3409
  537MOL0     C70780   7.040   3.051   5.971  0.8419 -0.4242 -0.6011
  537MOL0     C70781   6.934   2.947   5.979  0.2941  0.6261 -0.0933
  537MOL0     O70782   6.802   2.983   5.940 -0.0538  0.0587  0.7782
  537MOL0     C70783   6.708   2.887   5.957  0.3068  0.4360 -0.4396
  537MOL0     C70784   6.658   2.872   6.087 -1.4291  0.5063 -0.0083
  537MOL0     C70785   6.573   2.770   6.121  0.0945 -0.3586 -0.0686
  537MOL0     C70786   6.519   2.677   6.029  0.3573  0.3347  0.6378
  537MOL0     O70787   6.429   2.587   6.081 -0.1722  0.0952 -0.3869
  537MOL0     C70788   6.397   2.478   6.003  0.2622  0.1371  0.3670
  537MOL0     C70789   6.300   2.385   6.077 -0.6330  0.5717  0.6104
  537MOL0     C70790   6.235   2.280   5.990  0.5308  0.5034 -0.4601
  537MOL0     C70791   6.116   2.234   6.082  0.6882 -0.4294 -0.3581
  537MOL0     C70792   6.030   2.121   6.028 -0.4662 -1.1412 -0.1904
  537MOL0     C70793   5.915   2.172   5.936 -0.7098 -0.6911 -0.3911
  537MOL0     C70794   5.848   2.059   5.868 -0.3166  0.3949 -0.0383
  537MOL0     C70795   5.944   1.975   5.776  0.0647 -0.0339 -0.0840
  537MOL0    Cl70796   5.887   1.871   5.647 -0.2212 -0.1903  0.2043
  537MOL0     C70797   6.554   2.705   5.891  1.1863 -0.2898 -0.4798
  537MOL0     C70798   6.652   2.803   5.858  0.1299  0.0733 -0.2579
  537MOL0     O70799   6.976   2.831   6.002 -0.0163 -0.1451 -0.3795
  537MOL0     C70800   7.163   3.055   6.035 -1.0523  0.3682 -1.3462
  537MOL0     C70801   7.265   3.149   6.016  0.5782 -0.7811 -0.0657
  537MOL0     N70802   7.780   3.725   6.146  0.1882 -0.7452 -0.1611
  537MOL0     N70803   7.891   3.683   6.193  0.1458  0.2330 -0.3181
  537MOL0     C70804   8.873   3.821   5.467 -0.2052 -0.0530  0.1512
  537MOL0     C70805   9.011   3.802   5.474  0.3215  0.1953  0.0807
  537MOL0     C70806   9.419   3.712   5.667 -0.2114 -0.1186  0.6007
  537MOL0     C70807   9.506   3.677   5.774 -0.6765  0.5318  0.0338
  537MOL0     C70808   9.636   3.663   5.757 -0.7201  0.6529  1.4763
  537MOL0     C70809   9.689   3.671   5.631  0.2509 -0.5587  0.0121
  537MOL0     O70810   9.826   3.645   5.628  0.0301  0.1794  0.1208
  537MOL0     C70811   9.900   3.670   5.504  0.6119 -0.2878 -0.2311
  537MOL0     C70812  10.048   3.625   5.521 -0.1458  0.1149 -0.8513
  537MOL0     C70813  10.129   3.674   5.402  0.0840  0.2911 -0.3077
  537MOL0     C70814  10.125   3.581   5.277 -0.8239 -0.3900 -0.1644
  537MOL0     C70815  10.229   3.627   5.177  0.6767  0.1286 -0.0309
  537MOL0     C70816  10.299   3.667   5.090 -0.2987  0.7537  0.2662
  537MOL0     C70817   9.611   3.702   5.526  0.1053 -0.4801 -0.1308
  537MOL0     C70818   9.468   3.720   5.537  0.3820 -0.1808  1.0554
  537MOL0     H70819   9.058   3.898   5.801 -1.1667 -2.5865  1.1964
  537MOL0     H70820   8.814   3.894   5.790  0.9652 -0.6394  1.2068
  537MOL0     H70821   8.640   3.711   5.460  4.3561  1.1832  2.1371
  537MOL0     H70822   8.586   3.868   5.380  1.1324  1.8316  0.8429
  537MOL0     H70823   8.397   3.739   5.460  1.1077  0.5572 -0.9692
  537MOL0     H70824   8.406   3.888   5.560  1.5090  1.2271  0.9641
  537MOL0     H70825   8.527   3.764   5.733 -0.0897 -0.2658  0.6214
  537MOL0     H70826   8.526   3.620   5.641 -0.9389 -0.4511 -0.8306
  537MOL0     H70827   8.272   3.773   5.721 -3.3738 -1.2467 -0.0263
  537MOL0     H70828   8.256   3.626   5.643 -1.1886 -0.6028  1.9836
  537MOL0     H70829   8.392   3.622   5.925 -0.6088 -1.0741  1.5131
  537MOL0     H70830   8.334   3.498   5.824  0.0134  0.0370 -0.5714
  537MOL0     H70831   8.116   3.553   5.865  0.8128  0.6339 -2.9009
  537MOL0     H70832   8.143   3.723   5.899 -1.5571 -1.0847 -2.1817
  537MOL0     H70833   8.281   3.539   6.091 -0.6407  1.0019  2.5702
  537MOL0     H70834   8.205   3.684   6.124  0.7836 -0.9422  1.7942
  537MOL0     H70835   8.102   3.497   6.232  4.1026  3.4764  0.5590
  537MOL0     H70836   8.086   3.421   6.076  3.7246  0.4103 -2.4137
  537MOL0     H70837   7.860   3.497   5.927 -0.3314  1.8688 -1.9904
  537MOL0     H70838   7.661   3.697   5.845  0.2665  1.4980 -0.0690
  537MOL0     H70839   7.571   3.758   5.977 -1.6651  0.1079 -1.4898
  537MOL0     H70840   7.529   3.534   6.063 -0.1521  3.2282 -0.5856
  537MOL0     H70841   7.593   3.456   5.917 -1.4686  0.0490 -1.1577
  537MOL0     H70842   7.396   3.684   5.895  2.2301  0.8887  0.1893
  537MOL0     H70843   7.429   3.559   5.778  3.6625 -4.6480  0.3558
  537MOL0     H70844   7.218   3.511   5.862  2.0492  2.1686 -2.9781
  537MOL0     H70845   7.280   3.486   6.032 -1.1915 -3.7356 -1.0195
  537MOL0     H70846   7.078   3.329   5.798  1.8588 -1.7255 -2.2593
  537MOL0     H70847   6.919   3.175   5.839  0.4032  0.1492 -0.5005
  537MOL0     H70848   6.690   2.939   6.167 -1.9942  0.5036  0.2242
  537MOL0     H70849   6.538   2.768   6.224  4.3484 -1.6857  1.5618
  537MOL0     H70850   6.482   2.413   5.982  0.7773  0.9581 -0.1230
  537MOL0     H70851   6.350   2.518   5.913 -3.8517  0.4493  2.4026
  537MOL0     H70852   6.224   2.452   6.118 -0.9557 -0.5674  1.9646
  537MOL0     H70853   6.352   2.331   6.157 -0.4706  1.9573  1.4802
  537MOL0     H70854   6.299   2.199   5.954 -0.8876  0.1694 -2.3705
  537MOL0     H70855   6.205   2.330   5.898 -0.2312  0.9155  0.0016
  537MOL0     H70856   6.143   2.199   6.182 -1.1848 -3.7479 -0.8967
  537MOL0     H70857   6.053   2.321   6.104  0.3762 -0.4914 -1.0039
  537MOL0     H70858   6.005   2.049   6.106  3.2223 -1.9913  0.4010
  537MOL0     H70859   6.106   2.064   5.975 -0.7368 -0.3095 -1.5230
  537MOL0     H70860   5.961   2.248   5.873  0.4129  1.6139  2.9399
  537MOL0     H70861   5.840   2.220   5.999 -1.8434  1.2448 -3.0552
  537MOL0     H70862   5.813   1.991   5.946 -0.6358 -0.4161 -0.8738
  537MOL0     H70863   5.763   2.094   5.809  0.7607 -1.7577 -3.1517
  537MOL0     H70864   6.005   1.918   5.847 -2.0720 -1.3435  0.7681
  537MOL0     H70865   6.006   2.051   5.726  0.7217 -0.1392  0.5501
  537MOL0     H70866   6.505   2.657   5.807 -1.6169 -1.2348  1.5576
  537MOL0     H70867   6.677   2.815   5.753 -2.0498  2.7615 -0.5848
  537MOL0     H70868   7.171   2.978   6.111 -1.0269  2.9254  1.3862
  537MOL0     H70869   7.364   3.143   6.061  1.8297  0.8233 -2.3697
  537MOL0     H70870   8.824   3.814   5.371  2.0071  1.2904 -1.1661
  537MOL0     H70871   9.058   3.751   5.390 -3.0325  0.7512 -2.3380
  537MOL0     H70872   9.461   3.661   5.872 -2.4305  3.9835 -0.0338
  537MOL0     H70873   9.708   3.642   5.836 -0.1745 -3.4246  0.1079
  537MOL0     H70874   9.897   3.777   5.483 -0.5847 -0.4606 -1.0714
  537MOL0     H70875   9.853   3.622   5.417  1.0082 -1.3865  0.1357
  537MOL0     H70876  10.084   3.676   5.611  1.6315  0.4957 -1.7279
  537MOL0     H70877  10.063   3.519   5.543  1.2049 -0.1500 -2.7976
  537MOL0     H70878  10.230   3.678   5.442 -0.6558  0.0544  1.6621
  537MOL0     H70879  10.104   3.778   5.378  2.3630  1.4386  1.8256
  537MOL0     H70880  10.151   3.479   5.307 -1.0281 -0.6002 -0.6976
  537MOL0     H70881  10.023   3.584   5.240 -0.9536  0.5002  0.2356
  537MOL0     H70882  10.367   3.722   5.028 -1.0934  2.3076  0.7046
  537MOL0     H70883   9.658   3.710   5.428 -0.6644  1.0308 -0.3967
  537MOL0     H70884   9.406   3.752   5.455  1.5192  1.4858  0.7863
  538MOL0     O70885   4.204   1.087   3.514  0.3287 -1.0244  0.1381
  538MOL0     C70886   4.208   1.194   3.455 -0.1496 -0.4687  0.6595
  538MOL0     O70887   4.188   1.214   3.322  0.2247 -0.1422  0.5362
  538MOL0     C70888   4.122   1.112   3.252  0.7023 -0.5987 -0.0806
  538MOL0     C70889   4.027   1.028   3.310 -0.2086  0.3057 -0.5028
  538MOL0     C70890   3.961   0.932   3.236 -0.5693  0.0237 -0.3880
  538MOL0     C70891   3.977   0.930   3.096 -0.6141  0.5401  0.0452
  538MOL0     O70892   3.892   0.857   3.021  0.4320  0.1238  0.2323
  538MOL0     C70893   3.955   0.728   2.988  0.8794 -1.0521  0.5175
  538MOL0     C70894   3.929   0.696   2.838 -0.6237 -0.0447 -0.1095
  538MOL0     C70895   3.941   0.814   2.750 -0.7334  0.2387 -0.3519
  538MOL0     C70896   3.883   0.784   2.609 -0.0845  0.3197 -0.0199
  538MOL0     C70897   3.859   0.910   2.528  0.9614  0.3609  0.3439
  538MOL0     C70898   3.731   0.907   2.443 -0.1375  0.0983  0.0437
  538MOL0     C70899   3.736   0.857   2.302  0.2842 -0.6622 -1.2855
  538MOL0     C70900   3.610   0.913   2.228 -0.6238  0.6326 -0.0239
  538MOL0     N70901   3.497   0.829   2.258  0.1982 -0.3654  0.4266
  538MOL0     C70902   3.480   0.687   2.254  0.3331  0.2594  0.6530
  538MOL0     C70903   3.386   0.664   2.349  0.3972 -0.2506  1.2107
  538MOL0     C70904   3.314   0.536   2.379  0.0876 -0.0583  0.9163
  538MOL0     C70905   3.265   0.536   2.535 -0.4549  0.2603 -0.4047
  538MOL0     C70906   3.213   0.397   2.578 -0.1429  1.0252  0.4742
  538MOL0     C70907   3.137   0.320   2.472 -0.6391  0.4813  0.4982
  538MOL0     O70908   3.047   0.409   2.399 -0.2887  0.7403  0.0890
  538MOL0     C70909   2.956   0.357   2.317 -0.3205  0.3959  0.6614
  538MOL0     C70910   2.969   0.248   2.225  0.6168  0.2924 -0.4289
  538MOL0     C70911   2.863   0.221   2.129  0.3721 -0.1966 -0.7918
  538MOL0     C70912   2.745   0.301   2.129 -0.1340  0.2331 -0.5815
  538MOL0     C70913   2.654   0.292   2.024 -0.8270  0.4468  1.1969
  538MOL0     O70914   2.525   0.320   2.057  0.6397 -0.1122  0.0990
  538MOL0     C70915   2.441   0.313   1.953  0.4465 -0.5641 -0.0920
  538MOL0     C70916   2.364   0.196   1.939 -0.1105  0.4600  0.1104
  538MOL0     C70917   2.274   0.168   1.833 -0.0858  0.5152  0.7481
  538MOL0     C70918   2.249   0.265   1.737  1.3097  1.2830 -0.1465
  538MOL0     O70919   2.163   0.230   1.633  0.2915  0.0457  0.4025
  538MOL0     C70920   2.123   0.318   1.528  0.6685 -0.1262  0.8000
  538MOL0     C70921   2.017   0.258   1.433 -0.2567  0.2368 -0.1898
  538MOL0     C70922   1.950   0.369   1.341 -0.0795  0.1164  0.2525
  538MOL0     C70923   1.853   0.311   1.243  0.8586  0.6397  0.4073
  538MOL0     C70924   1.729   0.262   1.322  0.2293  0.0285  0.1859
  538MOL0     C70925   1.601   0.228   1.232  0.9694  0.3375 -0.0261
  538MOL0     C70926   1.487   0.158   1.322 -0.3389  0.4143 -0.1046
  538MOL0     C70927   1.357   0.137   1.264  0.6063  1.4710 -0.1595
  538MOL0    Cl70928   1.229   0.133   1.374  0.4816  0.3029 -0.3504
  538MOL0     C70929   2.325   0.382   1.744 -0.5879 -0.0928 -0.1426
  538MOL0     C70930   2.422   0.402   1.847 -0.0830 -0.0997 -0.6137
  538MOL0     O70931   2.697   0.252   1.915 -0.1151 -0.0920  0.6335
  538MOL0     C70932   2.723   0.390   2.233  0.0541  0.1383 -0.2643
  538MOL0     C70933   2.833   0.422   2.314 -1.2264  0.0841 -0.8379
  538MOL0     N70934   3.350   0.781   2.404 -0.2138 -0.6576 -0.1539
  538MOL0     N70935   3.402   0.884   2.348  0.7411  0.1909  0.1500
  538MOL0     C70936   4.064   1.016   3.037 -0.6838 -0.0185 -0.6299
  538MOL0     C70937   4.134   1.102   3.114  0.0344  0.4086  0.0222
  538MOL0     C70938   4.249   1.319   3.534  0.2707 -0.7755 -0.5634
  538MOL0     C70939   4.279   1.300   3.672  0.2350 -0.5616 -0.2126
  538MOL0     C70940   4.302   1.412   3.746  0.0991 -0.8752  0.4873
  538MOL0     C70941   4.311   1.542   3.689 -0.3474  0.6721  0.2711
  538MOL0     O70942   4.340   1.646   3.776  0.1271 -0.4616 -0.1842
  538MOL0     C70943   4.430   1.749   3.728  1.0379 -0.1330  0.1935
  538MOL0     C70944   4.473   1.816   3.858 -0.1893  0.0504 -0.3042
  538MOL0     C70945   4.516   1.959   3.837 -0.5519 -0.4798 -0.2141
  538MOL0     C70946   4.662   1.970   3.804  1.1979  0.1834 -0.1664
  538MOL0     C70947   4.697   2.103   3.759  0.4507 -0.1921  0.7279
  538MOL0     C70948   4.727   2.209   3.718 -0.3405 -0.2423  0.5388
  538MOL0     C70949   4.303   1.556   3.546  0.7587  0.2914 -0.0132
  538MOL0     C70950   4.264   1.444   3.471 -0.2151 -0.3400  0.4707
  538MOL0     H70951   4.003   1.015   3.415  0.0682 -2.0613 -0.6623
  538MOL0     H70952   3.906   0.848   3.276  4.3880 -3.2940  0.4588
  538MOL0     H70953   3.916   0.654   3.058  0.3635  0.2194  1.6256
  538MOL0     H70954   4.062   0.749   3.001  0.9237 -2.1949  2.3997
  538MOL0     H70955   3.826   0.660   2.839 -0.3404 -0.8809  0.5222
  538MOL0     H70956   3.995   0.618   2.798  0.3034 -0.3022  1.8140
  538MOL0     H70957   4.049   0.826   2.737  0.4550 -4.4808  2.4766
  538MOL0     H70958   3.893   0.901   2.795 -0.4863 -0.9984  2.5454
  538MOL0     H70959   3.964   0.733   2.557  1.3992  2.4332  0.0848
  538MOL0     H70960   3.800   0.712   2.612 -0.6444  0.9602  0.3261
  538MOL0     H70961   3.942   0.928   2.460  3.4708  0.0755  3.0995
  538MOL0     H70962   3.842   0.993   2.597 -1.2046 -0.9299  1.4533
  538MOL0     H70963   3.680   1.003   2.443  1.7734  1.1583  0.4652
  538MOL0     H70964   3.654   0.848   2.494 -2.3401  1.5973 -1.3663
  538MOL0     H70965   3.822   0.908   2.258  1.8859  2.8826  4.7422
  538MOL0     H70966   3.748   0.749   2.290 -0.2533 -0.7089 -1.4719
  538MOL0     H70967   3.627   0.898   2.121 -1.7933  1.2513 -0.3019
  538MOL0     H70968   3.601   1.020   2.246  0.1999  1.0536 -1.8455
  538MOL0     H70969   3.532   0.618   2.188  0.2727  1.2007 -0.4153
  538MOL0     H70970   3.390   0.460   2.358 -1.3940 -0.8511 -2.3839
  538MOL0     H70971   3.231   0.515   2.310  0.8015 -0.4275  0.1430
  538MOL0     H70972   3.186   0.609   2.549 -0.3190  0.2797  0.3134
  538MOL0     H70973   3.346   0.572   2.601 -3.3315  2.3963  2.2524
  538MOL0     H70974   3.286   0.331   2.624  0.5168  2.2470  1.2232
  538MOL0     H70975   3.144   0.422   2.659  1.3912 -0.6201  2.3952
  538MOL0     H70976   3.084   0.232   2.507 -2.8466  1.3312 -0.5094
  538MOL0     H70977   3.214   0.293   2.399  0.2617 -0.1237  1.6401
  538MOL0     H70978   3.062   0.191   2.226 -0.4866 -1.6170 -1.3054
  538MOL0     H70979   2.885   0.150   2.050 -2.8134  0.0115 -2.0044
  538MOL0     H70980   2.386   0.116   2.009  0.6873  1.8692  1.5270
  538MOL0     H70981   2.234   0.069   1.816 -0.5862  1.2449 -3.2486
  538MOL0     H70982   2.200   0.369   1.470 -1.2780  0.7555 -1.1461
  538MOL0     H70983   2.072   0.394   1.589 -4.0280 -0.7609 -1.9086
  538MOL0     H70984   1.951   0.221   1.512  0.3934  2.1373  1.3181
  538MOL0     H70985   2.056   0.171   1.379  0.1794 -0.8423  1.7603
  538MOL0     H70986   2.024   0.414   1.274 -2.4158  3.5385 -0.2842
  538MOL0     H70987   1.892   0.442   1.399  0.3762  0.4913  0.2429
  538MOL0     H70988   1.839   0.388   1.167 -0.5084  0.7056  0.7006
  538MOL0     H70989   1.885   0.221   1.189  2.9820  1.1099  0.7952
  538MOL0     H70990   1.711   0.341   1.396 -1.5807 -0.3714  0.2287
  538MOL0     H70991   1.748   0.168   1.374  2.9881  0.2500 -0.2823
  538MOL0     H70992   1.636   0.159   1.155  1.1096 -3.2782  2.9603
  538MOL0     H70993   1.560   0.320   1.189 -0.0190 -0.5259 -1.0169
  538MOL0     H70994   1.515   0.060   1.362  0.2070  0.8201  0.5282
  538MOL0     H70995   1.477   0.220   1.412 -2.4326  0.4405 -0.3096
  538MOL0     H70996   1.343   0.047   1.204 -0.8246  0.8231  1.1127
  538MOL0     H70997   1.340   0.218   1.192 -0.4444  0.3545 -1.2256
  538MOL0     H70998   2.320   0.450   1.660  1.5414 -0.8181 -0.9094
  538MOL0     H70999   2.489   0.487   1.849  1.3660 -1.1506  2.3265
  538MOL0     H71000   2.637   0.455   2.238 -0.9616 -1.1082 -0.7288
  538MOL0     H71001   2.821   0.508   2.379  0.6334 -0.0972 -0.1981
  538MOL0     H71002   4.083   1.023   2.930 -1.6472  0.1746 -0.8000
  538MOL0     H71003   4.214   1.157   3.066  1.2739 -1.7100 -0.4405
  538MOL0     H71004   4.276   1.202   3.718  1.2923 -0.7270 -0.4675
  538MOL0     H71005   4.315   1.394   3.852 -0.3370 -1.3984  0.4580
  538MOL0     H71006   4.375   1.821   3.668 -0.0226  1.2668  2.6664
  538MOL0     H71007   4.517   1.716   3.671  1.5436  0.7480  0.4329
  538MOL0     H71008   4.388   1.835   3.925  3.2814  4.7207  3.4874
  538MOL0     H71009   4.538   1.748   3.915  1.4668  0.7810 -1.2359
  538MOL0     H71010   4.497   2.004   3.934  1.9983  1.6565 -0.6031
  538MOL0     H71011   4.446   2.002   3.764 -0.7923 -0.3453  0.0970
  538MOL0     H71012   4.732   1.933   3.879  3.4761 -0.1120 -2.3266
  538MOL0     H71013   4.678   1.900   3.722  1.4555  1.7453 -1.4837
  538MOL0     H71014   4.765   2.303   3.685 -1.2331 -0.0917 -0.0869
  538MOL0     H71015   4.318   1.646   3.487  0.1418  1.4371  1.5165
  538MOL0     H71016   4.240   1.461   3.366 -4.4460 -3.6994  0.6230
  539MOL0     O71017   5.715   9.889   0.094 -0.5192 -0.6670 -0.0947
  539MOL0     C71018   5.784   9.879  -0.007  0.3072  0.7943  0.4715
  539MOL0     O71019   5.735   9.872  -0.136 -0.5800  0.0046 -0.1358
  539MOL0     C71020   5.607   9.874  -0.154  0.9606  0.0566  0.3592
  539MOL0     C71021   5.511   9.786  -0.088 -0.4259 -0.6693  0.2796
  539MOL0     C71022   5.379   9.808  -0.115  0.6489 -0.8100 -1.0076
  539MOL0     C71023   5.332   9.907  -0.201 -0.4682 -0.4311  0.3005
  539MOL0     O71024   5.201   9.936  -0.226 -0.0164 -0.1848  0.0122
  539MOL0     C71025   5.130   9.949  -0.347  0.8604  0.1156  0.9261
  539MOL0     C71026   4.986  10.003  -0.342  0.4159  1.1979 -0.0346
  539MOL0     C71027   4.955  10.101  -0.225 -0.3352 -0.3871  0.8050
  539MOL0     C71028   4.923  10.019  -0.092  0.7918  0.3961 -0.4812
  539MOL0     C71029   4.830  10.100   0.006 -0.2962  0.1248 -0.3590
  539MOL0     C71030   4.689  10.116  -0.043  0.8819 -0.5485  1.0317
  539MOL0     C71031   4.597  10.201   0.038 -0.2262  1.0226 -0.8825
  539MOL0     C71032   4.567  10.161   0.184  0.2745 -0.7426  0.1712
  539MOL0     N71033   4.448  10.232   0.232  0.0021  0.5408 -0.2978
  539MOL0     C71034   4.319  10.229   0.177  0.5770 -0.8387 -0.2748
  539MOL0     C71035   4.258  10.342   0.213  0.0101 -0.0489 -0.5170
  539MOL0     C71036   4.119  10.391   0.193 -0.7096 -0.4651 -0.1509
  539MOL0     C71037   4.030  10.378   0.328 -1.0703 -1.6002  0.3786
  539MOL0     C71038   4.033  10.228   0.375 -0.1770 -0.8083  0.3500
  539MOL0     C71039   3.913  10.202   0.466 -0.0381  0.1984 -0.5956
  539MOL0     O71040   3.787  10.219   0.403  0.5692  0.5036  0.1094
  539MOL0     C71041   3.665  10.185   0.459  0.3204  0.0567  0.2529
  539MOL0     C71042   3.633  10.142   0.588  0.1171  0.9204  0.1108
  539MOL0     C71043   3.503  10.115   0.628 -0.2950  0.1788  0.4622
  539MOL0     C71044   3.396  10.115   0.538 -0.2593  0.6312  0.5881
  539MOL0     C71045   3.258  10.072   0.567 -0.4342 -0.2187  0.0294
  539MOL0     O71046   3.148  10.114   0.484  0.1628 -0.3044  0.5355
  539MOL0     C71047   3.029  10.060   0.522 -0.1426  0.1375 -0.2534
  539MOL0     C71048   2.976   9.951   0.464  0.4449 -0.5939 -0.7609
  539MOL0     C71049   2.850   9.895   0.497 -0.2571 -0.3172 -0.5944
  539MOL0     C71050   2.772   9.956   0.598  0.3640  0.2935  0.1717
  539MOL0     O71051   2.648   9.899   0.621  0.3701 -0.6354  0.6009
  539MOL0     C71052   2.559   9.954   0.721 -0.5162  0.8365  0.7175
  539MOL0     C71053   2.418   9.927   0.714 -0.3461 -0.8989  0.1046
  539MOL0     C71054   2.390   9.771   0.710  0.4484 -0.0274 -0.0601
  539MOL0     C71055   2.243   9.751   0.757 -0.0120 -0.1914  0.3469
  539MOL0     C71056   2.191   9.613   0.722 -0.6464  0.0008  0.4379
  539MOL0     C71057   2.042   9.598   0.752  0.3017 -0.2444 -0.3363
  539MOL0     C71058   1.996   9.478   0.681 -0.2792 -0.8610  0.1430
  539MOL0     C71059   1.883   9.407   0.748  0.5406  0.0882  1.4136
  539MOL0    Cl71060   1.911   9.350   0.915  0.0811  0.0037  0.0255
  539MOL0     C71061   2.834  10.061   0.669 -0.3050 -0.1170 -0.0717
  539MOL0     C71062   2.959  10.118   0.626  0.1586 -0.8001 -0.5514
  539MOL0     O71063   3.250  10.000   0.668  0.2082 -0.4931  0.2598
  539MOL0     C71064   3.426  10.166   0.406 -0.6499  0.4989 -0.5707
  539MOL0     C71065   3.559  10.204   0.370  1.1646  1.1205 -0.0360
  539MOL0     N71066   4.348  10.415   0.295  0.5751  0.0080  0.4986
  539MOL0     N71067   4.460  10.355   0.291 -0.2799 -0.0023  0.1024
  539MOL0     C71068   5.429   9.975  -0.274  1.1776 -1.1319  0.8570
  539MOL0     C71069   5.564   9.966  -0.244 -0.8139  0.0747  0.8467
  539MOL0     C71070   5.931   9.863   0.005  0.1010  0.2976  0.1721
  539MOL0     C71071   6.018   9.826  -0.098 -0.0406  0.1054  0.1873
  539MOL0     C71072   6.160   9.818  -0.092  0.4605  0.3577 -0.4599
  539MOL0     C71073   6.223   9.849   0.034 -0.3275 -0.1110 -0.3162
  539MOL0     O71074   6.359   9.853   0.060 -0.4776 -1.1794  0.3684
  539MOL0     C71075   6.446   9.795  -0.033 -0.1269 -0.2377  0.3971
  539MOL0     C71076   6.591   9.827   0.003 -0.4323  0.1497 -0.0011
  539MOL0     C71077   6.628   9.974   0.034 -0.0117 -0.3806 -0.3183
  539MOL0     C71078   6.769   9.982   0.096  0.8527 -0.0195  0.5761
  539MOL0     C71079   6.882   9.960   0.003  0.8238  0.1014  0.5187
  539MOL0     C71080   6.977   9.955  -0.067  0.2979 -0.2459  0.2771
  539MOL0     C71081   6.137   9.892   0.133 -0.1328  0.6141 -1.0142
  539MOL0     C71082   5.996   9.901   0.123  0.3750 -0.2637 -0.6215
  539MOL0     H71083   5.547   9.705  -0.026 -3.5896 -0.5253  2.5367
  539MOL0     H71084   5.308   9.754  -0.052  0.3222 -0.6461 -1.2277
  539MOL0     H71085   5.134   9.845  -0.382  1.5653  0.4204  0.0489
  539MOL0     H71086   5.184  10.013  -0.418  0.0851  1.4822  1.5398
  539MOL0     H71087   4.911   9.924  -0.346 -3.0489  4.2627 -1.3226
  539MOL0     H71088   4.966  10.056  -0.436 -0.1397 -1.9051 -1.7928
  539MOL0     H71089   4.873  10.170  -0.243  0.3595  0.3758  0.4807
  539MOL0     H71090   5.038  10.171  -0.209 -1.5368  1.3741 -0.2616
  539MOL0     H71091   4.879   9.919  -0.100  1.5838 -0.6351  4.5581
  539MOL0     H71092   5.014   9.990  -0.039 -1.6611 -1.0701  3.4062
  539MOL0     H71093   4.877  10.198   0.020  3.0621 -1.5177  0.9879
  539MOL0     H71094   4.823  10.058   0.107 -0.4114  0.3775 -0.2613
  539MOL0     H71095   4.646  10.016  -0.052  0.8091 -0.4601  0.3719
  539MOL0     H71096   4.696  10.161  -0.142  1.6535  2.9876  2.5286
  539MOL0     H71097   4.638  10.303   0.036  0.6810  0.6848  0.0673
  539MOL0     H71098   4.502  10.219  -0.014  0.3309  1.9563 -1.6110
  539MOL0     H71099   4.658  10.169   0.243 -0.6508  0.2915  1.5028
  539MOL0     H71100   4.538  10.055   0.178 -2.4064 -0.0456 -0.9856
  539MOL0     H71101   4.279  10.147   0.119  4.4453 -1.0244 -3.0692
  539MOL0     H71102   4.074  10.345   0.105 -0.7893  1.7854 -1.3535
  539MOL0     H71103   4.129  10.497   0.170 -0.4565 -0.9139 -2.2938
  539MOL0     H71104   3.934  10.418   0.295  1.9328  2.5142 -5.0351
  539MOL0     H71105   4.067  10.441   0.409 -1.9042  1.5579 -1.5068
  539MOL0     H71106   4.035  10.157   0.292  1.1718 -0.0470 -0.3086
  539MOL0     H71107   4.130  10.216   0.424 -0.1519 -3.0616 -0.1718
  539MOL0     H71108   3.914  10.272   0.550  0.6919 -0.6318  0.1057
  539MOL0     H71109   3.923  10.104   0.513  1.2687  0.8050  0.4565
  539MOL0     H71110   3.715  10.126   0.657 -1.1722 -2.4909  1.0871
  539MOL0     H71111   3.487  10.092   0.733 -0.1515 -0.6346  0.3082
  539MOL0     H71112   3.015   9.904   0.374 -3.0122  0.1193 -2.8165
  539MOL0     H71113   2.815   9.802   0.454 -4.1916  1.1970 -1.0543
  539MOL0     H71114   2.566  10.063   0.712 -1.4751  1.0071  1.7111
  539MOL0     H71115   2.607   9.929   0.816  2.6881  3.4289 -0.0492
  539MOL0     H71116   2.381   9.978   0.625  1.2430 -0.1057 -0.1436
  539MOL0     H71117   2.370   9.969   0.802  1.3498  0.5353  0.4022
  539MOL0     H71118   2.447   9.727   0.793 -0.9732  0.2014  1.0776
  539MOL0     H71119   2.399   9.719   0.614  0.8671  0.8520 -0.5068
  539MOL0     H71120   2.226   9.777   0.862  4.0029 -0.1918  1.1496
  539MOL0     H71121   2.185   9.826   0.703 -0.1136 -0.0562  0.6439
  539MOL0     H71122   2.243   9.537   0.781 -0.6241 -1.8283 -1.8059
  539MOL0     H71123   2.212   9.580   0.620 -1.0615  1.1926 -0.0452
  539MOL0     H71124   1.971   9.680   0.738 -0.8607 -1.4390 -1.7251
  539MOL0     H71125   2.043   9.572   0.859 -0.4977 -2.3191 -0.7951
  539MOL0     H71126   1.969   9.503   0.578  0.5306  1.7962  0.4782
  539MOL0     H71127   2.081   9.411   0.666  1.5121  0.7540  2.2999
  539MOL0     H71128   1.873   9.312   0.694  0.6335  1.1334 -0.5303
  539MOL0     H71129   1.786   9.455   0.738  0.5130  0.0503  1.4994
  539MOL0     H71130   2.783  10.121   0.744  0.8967 -0.5845  1.1594
  539MOL0     H71131   3.005  10.194   0.689  1.1850 -1.9679  0.1396
  539MOL0     H71132   3.356  10.181   0.324  1.1273  1.2685 -2.0270
  539MOL0     H71133   3.580  10.241   0.270 -1.6856  0.1451 -1.1147
  539MOL0     H71134   5.393  10.051  -0.342  1.4877 -0.4005  1.4913
  539MOL0     H71135   5.626  10.034  -0.302  1.7512 -2.8623 -0.1035
  539MOL0     H71136   5.966   9.801  -0.190 -2.6624  1.1166  1.2713
  539MOL0     H71137   6.208   9.774  -0.179 -1.7051 -2.2892 -0.4430
  539MOL0     H71138   6.434   9.837  -0.133 -1.9971 -0.2978  0.5697
  539MOL0     H71139   6.426   9.688  -0.034  2.8841 -0.8815 -0.3308
  539MOL0     H71140   6.629   9.762   0.082 -1.3514 -0.8954 -0.4050
  539MOL0     H71141   6.663   9.796  -0.074 -1.0256 -0.1624 -0.4318
  539MOL0     H71142   6.562  10.012   0.113  0.7551 -1.4381  0.8892
  539MOL0     H71143   6.624  10.026  -0.062 -0.3623  1.7523  0.7989
  539MOL0     H71144   6.763  10.085   0.131 -2.3705 -0.4554  1.6416
  539MOL0     H71145   6.781   9.908   0.175 -2.1517 -0.8681  0.3680
  539MOL0     H71146   7.062   9.947  -0.132  0.6535  2.2313  0.3421
  539MOL0     H71147   6.170   9.922   0.232 -0.6367 -1.4313 -0.1679
  539MOL0     H71148   5.930   9.937   0.202 -1.7773 -0.9493 -2.0123
  540MOL0     O71149   4.346  10.823  10.343  0.4559  0.4891  0.4836
  540MOL0     C71150   4.321  10.855  10.230  0.5315  0.0281  0.1453
  540MOL0     O71151   4.416  10.894  10.138  0.0886 -0.3462 -0.6469
  540MOL0     C71152   4.551  10.930  10.162  1.5034  0.6031 -0.5202
  540MOL0     C71153   4.627  10.912  10.279 -0.5269  0.1689 -0.0759
  540MOL0     C71154   4.765  10.950  10.272 -0.4928 -0.3457 -0.8413
  540MOL0     C71155   4.824  11.003  10.164 -0.1463 -0.5852  0.2216
  540MOL0     O71156   4.960  11.029  10.170  0.4474 -0.4798 -0.3560
  540MOL0     C71157   5.053  10.919  10.156 -0.5986  0.6678  0.5146
  540MOL0     C71158   5.054  10.861  10.015 -0.1049 -0.0575 -0.2257
  540MOL0     C71159   5.130  10.725  10.013 -0.0052 -0.2879  0.6094
  540MOL0     C71160   5.285  10.741  10.002  0.6537 -0.4907 -0.0974
  540MOL0     C71161   5.349  10.609   9.963 -0.2768 -1.1892  0.5561
  540MOL0     C71162   5.491  10.624   9.919 -0.9387  0.3555 -0.2511
  540MOL0     C71163   5.570  10.488   9.924  0.1957 -0.2505 -0.7815
  540MOL0     C71164   5.720  10.511   9.902  0.1098 -0.0216  0.8566
  540MOL0     N71165   5.786  10.380   9.923  0.0112 -0.1963  0.6632
  540MOL0     C71166   5.767  10.270   9.851  0.2159  0.7078 -0.3000
  540MOL0     C71167   5.870  10.192   9.887 -0.3202 -0.5512 -0.4325
  540MOL0     C71168   5.890  10.047   9.846 -1.1552  0.2007 -0.6014
  540MOL0     C71169   5.928  10.037   9.694  0.7031  0.6813 -0.4715
  540MOL0     C71170   6.072  10.062   9.672  0.1555  0.0285 -0.9289
  540MOL0     C71171   6.088  10.197   9.612 -0.7897  0.1459 -0.3053
  540MOL0     O71172   6.221  10.235   9.632 -0.7414 -0.3006 -0.2787
  540MOL0     C71173   6.322  10.197   9.546 -0.3295  0.8154  0.9717
  540MOL0     C71174   6.296  10.147   9.414 -0.0576 -0.8200  1.0322
  540MOL0     C71175   6.410  10.111   9.329  0.1887 -0.0304  0.0426
  540MOL0     C71176   6.537  10.106   9.388 -0.9849 -0.8959 -0.6072
  540MOL0     C71177   6.655  10.043   9.304 -0.2468 -0.2418  1.3644
  540MOL0     O71178   6.784  10.079   9.347 -0.3515  0.3384  0.4993
  540MOL0     C71179   6.883  10.067   9.251 -0.5589  0.3603 -0.0116
  540MOL0     C71180   6.932   9.946   9.208  0.1336  0.2544 -0.6146
  540MOL0     C71181   7.003   9.937   9.088 -0.3446  0.1012 -0.3754
  540MOL0     C71182   7.033  10.060   9.021 -0.1284  0.1113  1.0663
  540MOL0     O71183   7.081  10.079   8.889 -0.1304 -0.2794  0.0034
  540MOL0     C71184   7.085   9.976   8.792  0.7289  0.1781  0.5437
  540MOL0     C71185   7.219   9.937   8.738  0.4404 -0.2075  0.0409
  540MOL0     C71186   7.298   9.867   8.846 -0.1015 -0.1084  0.8259
  540MOL0     C71187   7.420   9.815   8.783 -0.0853  0.2470  0.3264
  540MOL0     C71188   7.550   9.833   8.870 -0.5941 -0.0559 -0.3976
  540MOL0     C71189   7.540   9.767   9.008  0.3609  0.1562  0.7077
  540MOL0     C71190   7.669   9.748   9.082 -0.2052  0.0176 -0.2436
  540MOL0     C71191   7.778   9.690   8.991  0.1948  0.2842  0.4049
  540MOL0    Cl71192   7.884   9.819   8.936  0.2748  0.0790 -0.0083
  540MOL0     C71193   6.994  10.183   9.074 -0.0283  0.3495 -0.0936
  540MOL0     C71194   6.916  10.184   9.187  0.7599 -0.3122  0.3874
  540MOL0     O71195   6.628   9.988   9.200  0.8189  0.4585 -0.1031
  540MOL0     C71196   6.551  10.146   9.527  0.2628  0.5256 -0.1774
  540MOL0     C71197   6.450  10.206   9.587  0.0272  0.1032 -1.0889
  540MOL0     N71198   5.944  10.254   9.981  0.5596  0.1584 -0.5110
  540MOL0     N71199   5.893  10.363  10.001 -0.2584  0.0920  0.3438
  540MOL0     C71200   4.745  11.037  10.056  0.3645  0.0732  0.5864
  540MOL0     C71201   4.614  11.001  10.055 -0.0890  0.3084  0.0183
  540MOL0     C71202   4.183  10.844  10.189  0.6821  0.6487  0.2563
  540MOL0     C71203   4.140  10.881  10.062 -0.6287 -0.6924 -0.2835
  540MOL0     C71204   4.007  10.892  10.025  0.3146 -0.1374 -0.5654
  540MOL0     C71205   3.909  10.872  10.124  0.5831  0.3587  0.8390
  540MOL0     O71206   3.779  10.905  10.106  0.7985  0.3033 -0.5664
  540MOL0     C71207   3.722  10.966   9.990  0.1802 -0.0332 -0.9469
  540MOL0     C71208   3.601  11.056  10.029  0.0836 -0.0394 -0.2565
  540MOL0     C71209   3.525  11.104   9.910  0.1435 -0.0847 -0.0036
  540MOL0     C71210   3.582  11.223   9.833  0.9019 -0.2273  0.1195
  540MOL0     C71211   3.660  11.183   9.713  0.9121  0.0039 -1.0592
  540MOL0     C71212   3.719  11.148   9.608  0.9944 -1.0539  0.6851
  540MOL0     C71213   3.945  10.818  10.252  0.1538 -0.5582  1.1565
  540MOL0     C71214   4.078  10.808  10.286 -0.6792  0.3979 -0.4269
  540MOL0     H71215   4.589  10.868  10.370 -0.4466  0.3242  0.0329
  540MOL0     H71216   4.816  10.919  10.363 -1.8752  0.8504  0.3807
  540MOL0     H71217   5.010  10.833  10.209  1.2188 -1.1146 -0.7434
  540MOL0     H71218   5.148  10.950  10.200  0.3908  1.7139 -2.1351
  540MOL0     H71219   5.092  10.927   9.936  0.9167 -0.6556 -0.2489
  540MOL0     H71220   4.948  10.848   9.991 -0.2862  2.7571 -1.2904
  540MOL0     H71221   5.080  10.661   9.939 -1.3153 -0.8790  1.9470
  540MOL0     H71222   5.113  10.682  10.112  2.9995  1.3929  1.9906
  540MOL0     H71223   5.304  10.817   9.927  0.2341  2.1904  2.3369
  540MOL0     H71224   5.330  10.780  10.094 -0.0293 -2.3528  1.0821
  540MOL0     H71225   5.288  10.581   9.876  0.5973  0.6204 -0.7099
  540MOL0     H71226   5.343  10.531  10.038  2.1346 -0.1210  1.9735
  540MOL0     H71227   5.548  10.693   9.982 -1.0568  0.2483 -0.0275
  540MOL0     H71228   5.487  10.664   9.817  2.3991 -3.2193 -2.0386
  540MOL0     H71229   5.564  10.454  10.027 -2.1517 -0.4444 -0.9424
  540MOL0     H71230   5.526  10.413   9.858  1.5641 -0.4086 -1.5728
  540MOL0     H71231   5.756  10.588   9.970 -1.7620  0.0132  1.8847
  540MOL0     H71232   5.730  10.552   9.800  0.7758 -0.0892  0.8899
  540MOL0     H71233   5.697  10.250   9.771 -0.7880  0.6920  0.5621
  540MOL0     H71234   5.801   9.987   9.867  0.5857 -2.7563 -1.0917
  540MOL0     H71235   5.964  10.002   9.914 -1.6870  0.2301  0.0072
  540MOL0     H71236   5.862  10.098   9.632 -1.0240  0.2328  0.8377
  540MOL0     H71237   5.891   9.938   9.667 -1.7942  1.2506  0.5072
  540MOL0     H71238   6.127  10.057   9.766  2.4881  1.4922 -2.1113
  540MOL0     H71239   6.115   9.985   9.607  1.5129 -1.0056  1.0970
  540MOL0     H71240   6.029  10.262   9.677 -1.4604 -0.6935 -0.0520
  540MOL0     H71241   6.054  10.186   9.508  0.8766 -3.2408 -0.6364
  540MOL0     H71242   6.194  10.141   9.380  0.9169  1.0904 -2.7527
  540MOL0     H71243   6.400  10.082   9.225 -0.4506 -0.4310  0.2077
  540MOL0     H71244   6.893   9.852   9.245 -2.6292  0.2231 -3.1724
  540MOL0     H71245   7.018   9.844   9.034 -1.5626  0.4427 -1.3664
  540MOL0     H71246   7.034  10.014   8.703 -1.4416 -0.6254  1.3838
  540MOL0     H71247   7.034   9.881   8.813  2.6065 -0.6601  1.5758
  540MOL0     H71248   7.261  10.036   8.716 -0.9994  0.0495 -1.7790
  540MOL0     H71249   7.208   9.886   8.642 -0.4952  0.5149 -0.2467
  540MOL0     H71250   7.244   9.787   8.897 -2.2784  1.2445  0.7573
  540MOL0     H71251   7.324   9.939   8.924  3.7113 -1.5563  1.0975
  540MOL0     H71252   7.413   9.709   8.757  0.0299 -0.5044  3.0262
  540MOL0     H71253   7.433   9.868   8.688  1.2613 -2.2689 -0.9764
  540MOL0     H71254   7.572   9.939   8.883  0.4419 -0.3943  0.8258
  540MOL0     H71255   7.632   9.791   8.812 -0.7848  3.0158 -3.2345
  540MOL0     H71256   7.488   9.672   8.992 -0.3496  0.9061 -1.7886
  540MOL0     H71257   7.474   9.823   9.076  0.3227  1.3178 -0.2726
  540MOL0     H71258   7.704   9.842   9.127 -0.1285 -0.2312  0.2196
  540MOL0     H71259   7.654   9.679   9.165  1.7458 -1.1155 -0.7595
  540MOL0     H71260   7.737   9.624   8.914 -0.0384 -1.8831  2.2725
  540MOL0     H71261   7.845   9.626   9.047  1.6979  2.5848  1.3773
  540MOL0     H71262   7.003  10.276   9.018 -1.5460  2.0257  2.2738
  540MOL0     H71263   6.869  10.278   9.216  0.4208 -0.1724 -0.5443
  540MOL0     H71264   6.648  10.157   9.573  0.0838  1.8428 -0.0501
  540MOL0     H71265   6.455  10.258   9.682 -4.8111  0.6446 -0.8570
  540MOL0     H71266   4.783  11.082   9.964  2.9275 -1.9776  0.5075
  540MOL0     H71267   4.545  11.021   9.973 -2.5945 -0.7983  1.7366
  540MOL0     H71268   4.212  10.902   9.984 -0.0704 -1.6273 -0.0405
  540MOL0     H71269   3.976  10.927   9.927 -1.0382 -1.0090 -0.4860
  540MOL0     H71270   3.701  10.894   9.910  0.2577  1.6175 -2.5345
  540MOL0     H71271   3.799  11.035   9.955  0.4556 -0.0456 -0.3644
  540MOL0     H71272   3.539  10.990  10.090  1.4316 -1.1482 -0.0328
  540MOL0     H71273   3.629  11.139  10.094 -3.9089  0.1835  1.5023
  540MOL0     H71274   3.437  11.142   9.963  1.6813  1.7326  1.3871
  540MOL0     H71275   3.487  11.029   9.840 -4.6085 -2.0535  4.0798
  540MOL0     H71276   3.502  11.293   9.808  0.3678 -0.3459  1.4029
  540MOL0     H71277   3.640  11.278   9.908  0.5232  1.3223 -0.6746
  540MOL0     H71278   3.775  11.124   9.521 -2.2426  0.3747 -2.0322
  540MOL0     H71279   3.861  10.796  10.317 -0.8594 -0.1710  0.0202
  540MOL0     H71280   4.113  10.785  10.387  2.0859  4.5204 -0.1938
  541MOL0     O71281   6.370   7.709   2.649  0.0089 -0.6924 -0.4763
  541MOL0     C71282   6.469   7.647   2.609 -0.4814  0.1640 -0.0337
  541MOL0     O71283   6.469   7.549   2.509  0.1174  0.1145  0.2524
  541MOL0     C71284   6.358   7.511   2.424 -0.1927 -0.4572  0.1279
  541MOL0     C71285   6.346   7.371   2.401  0.0146 -0.3081  0.9277
  541MOL0     C71286   6.238   7.330   2.318  0.4512  0.8811  0.0559
  541MOL0     C71287   6.137   7.410   2.279 -0.0764 -0.7451  0.2369
  541MOL0     O71288   6.035   7.368   2.200  0.1343 -0.0424  0.0422
  541MOL0     C71289   5.923   7.334   2.283  0.0571 -0.5299  0.0340
  541MOL0     C71290   5.812   7.299   2.185 -0.7336 -0.1259  0.1445
  541MOL0     C71291   5.697   7.239   2.279  0.4565  0.1220 -0.4762
  541MOL0     C71292   5.702   7.093   2.302 -0.6535  1.4326  0.8982
  541MOL0     C71293   5.564   7.030   2.341  1.1108  0.2098 -1.0284
  541MOL0     C71294   5.490   7.091   2.466  0.4242 -0.2291 -0.4549
  541MOL0     C71295   5.353   7.030   2.508  0.7640 -0.7190 -0.4319
  541MOL0     C71296   5.365   6.877   2.533  0.3044 -0.2095 -0.0535
  541MOL0     N71297   5.464   6.863   2.641 -0.1938 -0.5324  0.4493
  541MOL0     C71298   5.455   6.917   2.769 -0.1555 -0.6031  0.2018
  541MOL0     C71299   5.581   6.913   2.819 -1.0373  0.4108 -0.0274
  541MOL0     C71300   5.634   6.969   2.952  0.4684 -0.1164 -0.8083
  541MOL0     C71301   5.732   7.089   2.957 -0.1703 -0.0827  0.3798
  541MOL0     C71302   5.771   7.116   3.104 -0.1294 -0.5347  0.5394
  541MOL0     C71303   5.868   7.229   3.109 -0.7062 -0.4924 -0.1045
  541MOL0     O71304   5.884   7.268   3.246 -0.0821 -0.4340  0.5556
  541MOL0     C71305   5.792   7.335   3.325 -0.0177 -1.1006  1.1366
  541MOL0     C71306   5.673   7.390   3.282 -0.7234  0.4907  0.4171
  541MOL0     C71307   5.590   7.470   3.368 -0.1038 -0.2284 -0.5516
  541MOL0     C71308   5.626   7.491   3.504  1.2624 -0.1149  0.6584
  541MOL0     C71309   5.539   7.547   3.604  0.0922  0.6290 -0.3965
  541MOL0     O71310   5.568   7.522   3.734 -0.1751  0.1908 -0.1426
  541MOL0     C71311   5.481   7.550   3.837 -0.2723 -0.3433 -0.5621
  541MOL0     C71312   5.338   7.552   3.834  0.2393  0.6429  0.4636
  541MOL0     C71313   5.267   7.557   3.950 -0.1315 -0.0673 -0.4427
  541MOL0     C71314   5.325   7.550   4.079  0.4926  0.1593 -0.2240
  541MOL0     O71315   5.244   7.552   4.188  0.4972 -0.0158  0.0459
  541MOL0     C71316   5.246   7.431   4.279  0.2210  0.3212 -0.0223
  541MOL0     C71317   5.152   7.451   4.398 -0.2155 -0.3657  0.9544
  541MOL0     C71318   5.144   7.342   4.505 -0.6541 -0.4015  0.4370
  541MOL0     C71319   5.036   7.233   4.477  0.3687 -1.0232 -0.0092
  541MOL0     C71320   5.039   7.133   4.588 -0.0890 -0.3422  0.0516
  541MOL0     C71321   4.954   7.009   4.539 -0.1706 -0.0735  0.3580
  541MOL0     C71322   4.961   6.886   4.626 -0.4945  0.4411 -0.3783
  541MOL0     C71323   4.860   6.779   4.585 -0.1559 -0.9608 -1.0803
  541MOL0    Cl71324   4.876   6.752   4.403 -0.2228  0.3243 -0.1832
  541MOL0     C71325   5.464   7.545   4.086  0.2166 -0.3874 -0.1290
  541MOL0     C71326   5.547   7.543   3.966  0.5217  0.6537  0.9692
  541MOL0     O71327   5.442   7.609   3.565 -0.0302  0.5269  0.1649
  541MOL0     C71328   5.747   7.429   3.542  0.4574 -0.1362 -0.7886
  541MOL0     C71329   5.823   7.351   3.453 -0.8087  0.3963 -0.4761
  541MOL0     N71330   5.661   6.848   2.731  0.8507  0.1273 -0.7298
  541MOL0     N71331   5.591   6.812   2.629 -0.2792  0.5448  0.1915
  541MOL0     C71332   6.147   7.552   2.303 -0.0510  0.3583  0.1311
  541MOL0     C71333   6.253   7.595   2.378  0.2257 -0.5693 -0.2068
  541MOL0     C71334   6.600   7.675   2.688  0.0742 -1.1481 -0.5783
  541MOL0     C71335   6.591   7.731   2.814 -0.0956  0.1447 -0.6302
  541MOL0     C71336   6.700   7.776   2.882 -0.3927  0.2486  0.0249
  541MOL0     C71337   6.826   7.728   2.843  1.2661 -0.1248 -0.5429
  541MOL0     O71338   6.927   7.766   2.918 -0.5915 -0.1884  0.0481
  541MOL0     C71339   7.008   7.662   2.980  0.2450  0.0751  0.4509
  541MOL0     C71340   7.005   7.685   3.131 -0.1989  0.2626  0.5048
  541MOL0     C71341   7.118   7.607   3.204  0.1899  0.3966  0.7519
  541MOL0     C71342   7.088   7.587   3.360  0.0542  0.5414 -0.0544
  541MOL0     C71343   7.210   7.538   3.435 -0.3952 -0.1622  0.2021
  541MOL0     C71344   7.316   7.510   3.483 -0.4829 -0.3354 -0.4291
  541MOL0     C71345   6.837   7.655   2.723  0.0489  0.9428  0.1176
  541MOL0     C71346   6.723   7.639   2.643  0.7730  0.7487  0.7610
  541MOL0     H71347   6.425   7.300   2.427  0.5413  0.7299  2.2969
  541MOL0     H71348   6.238   7.225   2.289  0.6427  1.8763 -4.2488
  541MOL0     H71349   5.897   7.423   2.343  1.9182  0.3117 -0.3463
  541MOL0     H71350   5.948   7.248   2.346  3.2006 -0.5400 -1.0751
  541MOL0     H71351   5.847   7.219   2.119  2.8732  1.2475  0.1618
  541MOL0     H71352   5.779   7.371   2.110  0.7301 -0.1354 -0.5216
  541MOL0     H71353   5.606   7.247   2.219  0.8513 -1.7341 -1.4088
  541MOL0     H71354   5.687   7.294   2.373  2.5677 -2.3087  1.3203
  541MOL0     H71355   5.725   7.043   2.208 -0.3463  2.7103  0.2680
  541MOL0     H71356   5.781   7.059   2.370 -2.1486 -0.1564  1.9061
  541MOL0     H71357   5.578   6.924   2.364 -4.5827 -0.0830  3.3454
  541MOL0     H71358   5.499   7.033   2.253 -1.5531 -2.5806  0.6225
  541MOL0     H71359   5.465   7.190   2.427  1.1410 -0.8475 -2.5826
  541MOL0     H71360   5.552   7.096   2.556 -1.0470  0.2001  0.5714
  541MOL0     H71361   5.314   7.078   2.598 -0.6817 -0.3152 -1.2471
  541MOL0     H71362   5.290   7.050   2.421  1.2947  2.6429 -0.1953
  541MOL0     H71363   5.398   6.825   2.443 -1.8271  0.6132 -1.3873
  541MOL0     H71364   5.274   6.827   2.568 -0.4670  0.8319 -0.5284
  541MOL0     H71365   5.366   6.956   2.818 -0.5576 -2.2811  0.8927
  541MOL0     H71366   5.688   6.894   3.010  0.3508  1.2315  1.1739
  541MOL0     H71367   5.554   6.993   3.022  1.1709 -0.1752  0.0330
  541MOL0     H71368   5.684   7.179   2.915 -1.3304 -1.4951 -1.4899
  541MOL0     H71369   5.818   7.070   2.891  0.4512  0.1746  1.1045
  541MOL0     H71370   5.680   7.129   3.162 -1.4386 -0.9573 -1.3272
  541MOL0     H71371   5.825   7.032   3.148  1.1694  1.3886  2.8124
  541MOL0     H71372   5.823   7.314   3.056  1.6167 -0.7760 -2.7890
  541MOL0     H71373   5.968   7.194   3.083  0.1537  0.1240  2.1766
  541MOL0     H71374   5.650   7.382   3.177  0.1902  2.1046  0.0509
  541MOL0     H71375   5.493   7.497   3.327 -0.2258 -1.5124 -1.1698
  541MOL0     H71376   5.280   7.555   3.743  2.3891  1.1093 -0.9647
  541MOL0     H71377   5.159   7.564   3.942 -0.2402  3.6638  2.0338
  541MOL0     H71378   5.350   7.414   4.308 -0.8076 -2.9308  2.2645
  541MOL0     H71379   5.208   7.340   4.232 -1.6092  2.1784 -2.4143
  541MOL0     H71380   5.055   7.474   4.354  0.5818  1.9496  0.2562
  541MOL0     H71381   5.169   7.543   4.454  1.2053 -1.8176  3.0690
  541MOL0     H71382   5.122   7.388   4.602 -0.7549  2.1773 -0.7253
  541MOL0     H71383   5.245   7.299   4.504  0.0508  0.8276 -4.0947
  541MOL0     H71384   4.942   7.289   4.483  1.3937  0.8114 -0.2090
  541MOL0     H71385   5.046   7.189   4.378 -4.1222  1.5708 -1.9027
  541MOL0     H71386   5.000   7.181   4.679  0.1253  0.4064 -0.2488
  541MOL0     H71387   5.141   7.103   4.612 -0.0864 -0.2168  0.1970
  541MOL0     H71388   4.992   6.978   4.441  0.1726 -1.5022  0.9084
  541MOL0     H71389   4.853   7.050   4.533 -0.3325 -0.4377  0.5532
  541MOL0     H71390   5.061   6.840   4.629 -0.4510  0.4588 -1.2470
  541MOL0     H71391   4.942   6.915   4.729 -0.0777  0.1894 -0.2277
  541MOL0     H71392   4.759   6.804   4.617  0.3874 -1.0436  0.8483
  541MOL0     H71393   4.901   6.689   4.631  3.0291  0.4051 -1.0045
  541MOL0     H71394   5.528   7.553   4.173  0.2576 -0.9744 -0.1030
  541MOL0     H71395   5.655   7.541   3.974  0.5827 -1.2820  0.2375
  541MOL0     H71396   5.785   7.438   3.643  1.3012  0.9029 -1.1746
  541MOL0     H71397   5.915   7.304   3.486 -0.8834  1.1188  0.8697
  541MOL0     H71398   6.072   7.626   2.278 -1.3312 -0.5926  1.0224
  541MOL0     H71399   6.239   7.698   2.410  0.5630 -0.0897 -1.5460
  541MOL0     H71400   6.498   7.754   2.866  1.1254  0.0349  1.7191
  541MOL0     H71401   6.692   7.827   2.978  0.7615 -0.9158  0.7737
  541MOL0     H71402   7.109   7.670   2.939  0.9339 -0.4123  1.9660
  541MOL0     H71403   6.961   7.565   2.960  0.6895  0.2264 -1.4582
  541MOL0     H71404   7.008   7.791   3.157  0.7789  0.0373  1.3471
  541MOL0     H71405   6.907   7.648   3.163 -0.8975  2.5037  1.1390
  541MOL0     H71406   7.212   7.661   3.190  2.3995 -2.8648  1.7161
  541MOL0     H71407   7.131   7.512   3.152  2.4388  0.4920  1.0698
  541MOL0     H71408   7.053   7.685   3.394  2.0128  0.7584  1.5552
  541MOL0     H71409   7.005   7.517   3.371  0.0061  0.6421  0.2299
  541MOL0     H71410   7.419   7.512   3.513 -0.2331  0.0227 -1.2738
  541MOL0     H71411   6.939   7.622   2.704  0.4213  0.1326  3.0387
  541MOL0     H71412   6.724   7.579   2.552 -0.5582 -0.2314  1.3693
  542MOL0     O71413  11.220   7.125   7.013 -0.5116  0.7436 -0.7961
  542MOL0     C71414  11.263   7.105   7.126 -0.5953  0.7479  0.6152
  542MOL0     O71415  11.185   7.109   7.245  0.8951 -0.6537 -0.3616
  542MOL0     C71416  11.049   7.105   7.226  0.2295  0.9267  0.3005
  542MOL0     C71417  10.965   7.203   7.261  0.3547  0.3403  0.0497
  542MOL0     C71418  10.830   7.191   7.255 -1.0358  0.1630  0.8039
  542MOL0     C71419  10.772   7.066   7.214  0.2024 -0.3648  0.3969
  542MOL0     O71420  10.635   7.078   7.188  0.9564 -0.3570 -0.2728
  542MOL0     C71421  10.574   6.974   7.119  0.7461 -1.0232 -0.0959
  542MOL0     C71422  10.431   7.009   7.057  0.8706  0.6403  0.7260
  542MOL0     C71423  10.324   7.025   7.166 -0.2309 -0.0746  0.0878
  542MOL0     C71424  10.252   7.158   7.154  0.6237 -0.1895  0.9175
  542MOL0     C71425  10.145   7.165   7.263 -0.0653  0.0770 -0.8306
  542MOL0     C71426  10.101   7.310   7.299 -0.3254  1.8399 -0.2864
  542MOL0     C71427   9.980   7.297   7.385  0.2529 -1.2224 -0.9822
  542MOL0     C71428   9.929   7.434   7.437  0.1811  1.2433 -0.4782
  542MOL0     N71429  10.023   7.539   7.472 -0.0350  0.4848  0.0364
  542MOL0     C71430  10.110   7.527   7.576 -0.1246 -0.0741  0.2997
  542MOL0     C71431  10.176   7.646   7.572  0.1017  0.6105 -0.7020
  542MOL0     C71432  10.287   7.699   7.652  0.7964 -0.3373 -0.4283
  542MOL0     C71433  10.374   7.589   7.717 -0.0481  0.7816  0.0083
  542MOL0     C71434  10.475   7.652   7.813  0.5157  0.2192 -1.1226
  542MOL0     C71435  10.574   7.543   7.868  0.3893  0.0509  0.2213
  542MOL0     O71436  10.491   7.442   7.915 -0.4992  0.0911 -0.0074
  542MOL0     C71437  10.440   7.458   8.038  0.3188  0.4570 -0.6725
  542MOL0     C71438  10.306   7.443   8.055  0.8061  0.7287  0.2284
  542MOL0     C71439  10.238   7.472   8.172 -0.5078 -0.1872  0.4408
  542MOL0     C71440  10.307   7.504   8.285  0.9683  1.2360  0.1887
  542MOL0     C71441  10.240   7.531   8.407  0.5655 -0.3984 -0.2011
  542MOL0     O71442  10.311   7.573   8.509 -0.0925 -0.5583 -0.3714
  542MOL0     C71443  10.267   7.594   8.635 -0.1201 -0.8560 -0.4984
  542MOL0     C71444  10.360   7.656   8.712 -0.9860 -0.4922 -0.9064
  542MOL0     C71445  10.328   7.694   8.846 -0.6511 -0.1243  0.0869
  542MOL0     C71446  10.208   7.650   8.910  0.5459  0.0949  0.3041
  542MOL0     O71447  10.177   7.662   9.044 -0.3336  0.6744 -0.2185
  542MOL0     C71448  10.266   7.705   9.142 -0.0616  0.4646  0.0207
  542MOL0     C71449  10.210   7.724   9.279  0.2244 -0.7120 -0.0317
  542MOL0     C71450  10.126   7.606   9.348 -0.7976 -0.3773  0.1732
  542MOL0     C71451  10.024   7.658   9.442 -0.0336 -0.3257  0.0088
  542MOL0     C71452  10.069   7.777   9.534 -0.4130  0.2951 -0.1124
  542MOL0     C71453   9.980   7.787   9.654 -0.3028  0.7031 -0.2481
  542MOL0     C71454   9.873   7.873   9.616  0.2933  0.4296 -0.0769
  542MOL0     C71455   9.782   7.906   9.728  0.6714  0.5853 -0.5419
  542MOL0    Cl71456   9.708   7.778   9.820  0.0199 -0.2124 -0.5114
  542MOL0     C71457  10.118   7.575   8.828 -0.0447 -0.7223  0.2161
  542MOL0     C71458  10.147   7.540   8.692  0.5562 -0.2162 -0.2891
  542MOL0     O71459  10.120   7.508   8.405  0.6164  0.4201 -0.2901
  542MOL0     C71460  10.450   7.500   8.277 -0.3580  0.9128 -0.0291
  542MOL0     C71461  10.517   7.473   8.156  0.4246  0.1203  0.2088
  542MOL0     N71462  10.123   7.726   7.474  0.7262  0.5852  0.1777
  542MOL0     N71463  10.030   7.659   7.414 -0.1098  0.1250 -0.2595
  542MOL0     C71464  10.860   6.966   7.160  0.9071  0.2990 -0.8407
  542MOL0     C71465  10.998   6.975   7.182 -0.5441 -0.4109 -0.4705
  542MOL0     C71466  11.409   7.076   7.148  0.8698 -0.6254  0.1457
  542MOL0     C71467  11.449   7.046   7.271  0.4562  0.9678  0.1621
  542MOL0     C71468  11.586   7.012   7.295 -0.4840  0.1605  0.3165
  542MOL0     C71469  11.675   6.998   7.176  0.0275 -0.7670 -0.6092
  542MOL0     O71470  11.804   6.958   7.192 -0.2277  0.1392 -0.5606
  542MOL0     C71471  11.847   6.909   7.317 -0.7965 -0.0793 -0.7085
  542MOL0     C71472  12.001   6.883   7.305 -0.0004  0.5249 -1.0305
  542MOL0     C71473  12.088   7.006   7.295 -0.6441  0.4654  0.6002
  542MOL0     C71474  12.240   6.977   7.324  1.0508  0.6346 -0.1607
  542MOL0     C71475  12.321   6.892   7.232  1.6933 -0.5633 -0.2336
  542MOL0     C71476  12.390   6.825   7.160  0.1700 -0.7501  0.4276
  542MOL0     C71477  11.630   7.041   7.056  0.0024 -0.5953  0.9139
  542MOL0     C71478  11.497   7.083   7.035  1.0839 -0.2661 -0.7070
  542MOL0     H71479  11.009   7.297   7.293 -2.1825  0.1286  5.0647
  542MOL0     H71480  10.752   7.263   7.279 -1.5356 -0.3961  0.8957
  542MOL0     H71481  10.555   6.888   7.185 -0.7403  1.6435  3.2454
  542MOL0     H71482  10.632   6.956   7.028  0.6647  2.1263 -0.8715
  542MOL0     H71483  10.387   6.934   6.990 -0.3957  3.1329 -1.4175
  542MOL0     H71484  10.451   7.091   6.988 -0.1123  0.6132  0.3912
  542MOL0     H71485  10.371   7.017   7.264 -1.9695 -2.1798  0.8205
  542MOL0     H71486  10.247   6.948   7.165 -1.4627  0.7543  5.1239
  542MOL0     H71487  10.320   7.244   7.160  0.1500  0.8755 -4.2618
  542MOL0     H71488  10.211   7.166   7.053 -0.2133  0.1857  1.2720
  542MOL0     H71489  10.179   7.118   7.356  0.2317  2.4747  0.3478
  542MOL0     H71490  10.055   7.116   7.227 -0.1156  0.7403 -1.6319
  542MOL0     H71491  10.076   7.358   7.204 -2.2327 -1.3046 -1.5554
  542MOL0     H71492  10.177   7.365   7.355  0.9304  0.7103 -0.8258
  542MOL0     H71493   9.893   7.258   7.330 -1.1174  1.0908 -0.6122
  542MOL0     H71494  10.003   7.244   7.477  0.8796  1.1154  0.2904
  542MOL0     H71495   9.875   7.415   7.530  3.5680  0.2877  1.4639
  542MOL0     H71496   9.866   7.470   7.355 -1.4035  0.0928  0.1638
  542MOL0     H71497  10.131   7.445   7.644 -0.4752 -0.4679 -0.0600
  542MOL0     H71498  10.246   7.757   7.735  1.7722  0.5892 -0.5609
  542MOL0     H71499  10.342   7.778   7.599  2.3526 -2.1553 -1.6684
  542MOL0     H71500  10.425   7.533   7.638  0.9771  2.5925 -0.6522
  542MOL0     H71501  10.310   7.524   7.777  1.9494 -2.7272 -1.3707
  542MOL0     H71502  10.532   7.730   7.762  1.3326  0.6324  0.3679
  542MOL0     H71503  10.427   7.702   7.897 -4.4736 -2.5893 -1.8853
  542MOL0     H71504  10.649   7.574   7.941  0.1489  2.7401 -0.5636
  542MOL0     H71505  10.645   7.511   7.791  1.4989 -0.9309  1.6129
  542MOL0     H71506  10.245   7.421   7.968  1.7460  0.0982 -0.2945
  542MOL0     H71507  10.130   7.468   8.171 -0.4962 -1.1299 -1.3525
  542MOL0     H71508  10.458   7.684   8.674 -0.9622  1.2550  0.3449
  542MOL0     H71509  10.394   7.762   8.898 -0.3325  0.4215 -0.9915
  542MOL0     H71510  10.306   7.804   9.121 -1.0200  1.0974  1.0522
  542MOL0     H71511  10.341   7.627   9.157 -1.1203 -1.1418 -2.3823
  542MOL0     H71512  10.141   7.809   9.269 -0.2041 -0.7898  1.9616
  542MOL0     H71513  10.280   7.775   9.346 -0.5150 -1.8828  1.7046
  542MOL0     H71514  10.196   7.538   9.397  2.9370  2.8211 -0.2432
  542MOL0     H71515  10.077   7.553   9.266 -1.0011  1.8971 -1.2686
  542MOL0     H71516   9.941   7.691   9.379  1.7335 -0.1722 -2.3878
  542MOL0     H71517   9.980   7.573   9.495  0.8821  0.8325  2.8471
  542MOL0     H71518  10.079   7.869   9.476 -0.2703 -0.9500 -2.1855
  542MOL0     H71519  10.170   7.754   9.569 -0.8403  0.2863  1.1849
  542MOL0     H71520  10.021   7.817   9.750 -1.5446  1.0114  0.2049
  542MOL0     H71521   9.942   7.688   9.679 -1.8001  1.8376  2.3622
  542MOL0     H71522   9.901   7.956   9.551 -2.8615  1.6078 -0.1347
  542MOL0     H71523   9.803   7.829   9.544  2.3751 -3.3676  0.0078
  542MOL0     H71524   9.698   7.967   9.695 -0.7726  0.0804  1.9657
  542MOL0     H71525   9.837   7.969   9.798  0.7069  0.7128 -0.6845
  542MOL0     H71526  10.024   7.543   8.873 -1.2849  1.1871 -0.8926
  542MOL0     H71527  10.067   7.488   8.641 -0.2091  2.4896 -2.0733
  542MOL0     H71528  10.497   7.512   8.375  0.7234 -1.1752 -0.2345
  542MOL0     H71529  10.625   7.485   8.151  0.5314 -1.1913 -1.9444
  542MOL0     H71530  10.821   6.872   7.122 -3.1918  1.6223 -0.3977
  542MOL0     H71531  11.064   6.898   7.145 -0.0532  0.8548 -2.4032
  542MOL0     H71532  11.373   7.044   7.349 -0.4558 -0.8338 -0.7067
  542MOL0     H71533  11.615   6.998   7.398 -3.2947 -2.4235  0.9023
  542MOL0     H71534  11.809   6.808   7.334  2.5765 -0.8852  4.0783
  542MOL0     H71535  11.818   6.980   7.395 -4.8499  0.0294 -2.0834
  542MOL0     H71536  12.030   6.825   7.394 -1.9578 -3.5347 -2.7611
  542MOL0     H71537  12.025   6.825   7.216 -0.0103  0.5536 -1.0519
  542MOL0     H71538  12.049   7.083   7.361 -0.6571  1.1927 -0.2380
  542MOL0     H71539  12.089   7.045   7.192 -0.8128  1.9976  1.1497
  542MOL0     H71540  12.297   7.069   7.342 -0.3920  1.6261 -0.5319
  542MOL0     H71541  12.248   6.930   7.423  1.7546  1.3314  0.1274
  542MOL0     H71542  12.451   6.754   7.109 -1.0396  0.9025 -3.8023
  542MOL0     H71543  11.687   7.049   6.964 -1.4171  0.4328  0.0849
  542MOL0     H71544  11.461   7.112   6.937 -0.8784  1.7990  0.5105
  543MOL0     O71545   3.390  10.914   4.012  0.5024 -0.2493 -0.3059
  543MOL0     C71546   3.357  10.913   4.134  0.5555 -1.1522 -0.1373
  543MOL0     O71547   3.233  10.950   4.176 -0.7323 -0.3850 -1.0096
  543MOL0     C71548   3.130  10.948   4.088  0.0455 -0.3649 -0.3671
  543MOL0     C71549   3.101  10.854   3.990  0.3969  0.3964 -0.5237
  543MOL0     C71550   2.991  10.869   3.899  0.0565 -0.1202 -0.3973
  543MOL0     C71551   2.918  10.992   3.904 -0.2069 -0.1935  0.2830
  543MOL0     O71552   2.808  11.023   3.827  0.7802  0.8460  0.2654
  543MOL0     C71553   2.810  10.955   3.700 -0.3729 -0.3141  0.4611
  543MOL0     C71554   2.703  11.014   3.595 -0.4668  0.6728 -0.0538
  543MOL0     C71555   2.569  10.933   3.599  0.8195 -0.5464  0.1757
  543MOL0     C71556   2.451  10.995   3.518  0.0856  0.2143 -0.0089
  543MOL0     C71557   2.302  10.937   3.552 -0.3975  0.6546 -0.2850
  543MOL0     C71558   2.251  10.960   3.697 -0.7991 -0.3285  0.6114
  543MOL0     C71559   2.104  10.899   3.693  1.2080  1.3034  0.1855
  543MOL0     C71560   2.000  10.967   3.606  0.5483  0.2501 -0.3574
  543MOL0     N71561   1.962  11.094   3.663  0.1531  0.3817 -0.3663
  543MOL0     C71562   1.837  11.117   3.711  0.4248  0.7205  0.0973
  543MOL0     C71563   1.832  11.243   3.731 -0.9388  0.5743  0.3469
  543MOL0     C71564   1.712  11.313   3.771 -0.1606 -0.4957 -0.1420
  543MOL0     C71565   1.595  11.306   3.668  0.2881  0.5682  0.1456
  543MOL0     C71566   1.485  11.412   3.684 -0.3571  0.4632 -1.0142
  543MOL0     C71567   1.354  11.378   3.593  0.4100  0.4397 -0.0973
  543MOL0     O71568   1.246  11.351   3.683  0.2987  0.0340 -0.2637
  543MOL0     C71569   1.117  11.332   3.643 -0.7669  0.1757  0.3645
  543MOL0     C71570   1.087  11.347   3.506 -0.2804  0.8486  0.2672
  543MOL0     C71571   0.953  11.341   3.470 -0.4433 -0.5984  0.3321
  543MOL0     C71572   0.855  11.320   3.560  1.0451  0.1907  0.7124
  543MOL0     C71573   0.712  11.322   3.516 -0.0154 -0.2006 -0.0972
  543MOL0     O71574   0.618  11.388   3.602  0.5755 -0.1760 -0.5941
  543MOL0     C71575   0.474  11.386   3.576  0.1375  0.0849  0.1867
  543MOL0     C71576   0.378  11.386   3.683 -0.4590 -1.5996 -0.9135
  543MOL0     C71577   0.244  11.409   3.654  0.4246 -0.2446 -0.8023
  543MOL0     C71578   0.188  11.407   3.526 -1.2679 -0.0870  0.0950
  543MOL0     O71579   0.058  11.398   3.484 -0.7017  0.2113  0.4215
  543MOL0     C71580  -0.040  11.394   3.582  0.3013 -0.5815 -0.0887
  543MOL0     C71581  -0.053  11.252   3.638 -0.6729 -0.3718  0.6928
  543MOL0     C71582  -0.193  11.228   3.693 -0.2816  0.5569  0.2174
  543MOL0     C71583  -0.212  11.092   3.755 -0.8539 -0.4491 -0.0538
  543MOL0     C71584  -0.356  11.056   3.805  0.5669  0.1481 -0.3453
  543MOL0     C71585  -0.466  11.073   3.704  0.2686  0.9129 -0.2747
  543MOL0     C71586  -0.587  10.973   3.721  0.1688 -1.3124 -0.4206
  543MOL0     C71587  -0.711  11.005   3.645  0.2672 -0.7189 -0.1188
  543MOL0    Cl71588  -0.801  11.131   3.737  0.2137  0.2116  0.1380
  543MOL0     C71589   0.282  11.403   3.422 -0.2356  0.5055 -0.0364
  543MOL0     C71590   0.416  11.391   3.441  0.2024  0.5996 -0.2286
  543MOL0     O71591   0.700  11.264   3.410  0.1688 -0.7272 -0.4841
  543MOL0     C71592   0.885  11.301   3.698 -0.2224 -0.2151  0.4102
  543MOL0     C71593   1.016  11.292   3.739 -0.2982  0.1157  0.9403
  543MOL0     N71594   1.952  11.302   3.699  0.4729  0.8307 -0.3429
  543MOL0     N71595   2.036  11.214   3.663 -0.2288  0.7891 -0.4615
  543MOL0     C71596   2.935  11.075   4.011  0.4207 -0.6050  0.1396
  543MOL0     C71597   3.036  11.052   4.100  0.0817 -0.8306 -0.1956
  543MOL0     C71598   3.468  10.900   4.230  0.1258  0.4647 -1.0277
  543MOL0     C71599   3.566  10.806   4.216  0.1851  0.1805  0.1691
  543MOL0     C71600   3.667  10.799   4.309  0.2117 -0.1120  0.2855
  543MOL0     C71601   3.649  10.867   4.435 -0.4305  1.2373  0.2961
  543MOL0     O71602   3.726  10.813   4.530 -0.6291  0.1010 -0.8290
  543MOL0     C71603   3.673  10.802   4.663 -0.3787  0.6214 -0.2232
  543MOL0     C71604   3.735  10.900   4.756  0.4524  0.0917  0.1886
  543MOL0     C71605   3.870  10.854   4.809 -0.4136 -0.3819  0.4689
  543MOL0     C71606   3.907  10.936   4.932  0.2228 -0.0611 -0.5164
  543MOL0     C71607   4.014  10.878   5.006  0.1288  0.1431  0.0054
  543MOL0     C71608   4.130  10.834   5.038  0.3292 -0.1877  0.1182
  543MOL0     C71609   3.548  10.963   4.452  0.9457 -0.4213 -0.6991
  543MOL0     C71610   3.454  10.983   4.343 -0.2913  0.5152  0.5329
  543MOL0     H71611   3.167  10.770   3.973 -1.2913 -1.4490  1.5592
  543MOL0     H71612   2.983  10.786   3.830 -0.6766  0.2893 -0.8120
  543MOL0     H71613   2.789  10.848   3.709  0.5566 -0.8538 -2.6241
  543MOL0     H71614   2.908  10.966   3.652 -0.7226 -0.7252 -0.3490
  543MOL0     H71615   2.753  11.016   3.498 -1.4964  0.6409 -0.5993
  543MOL0     H71616   2.678  11.120   3.603 -1.3649  0.5278 -0.7351
  543MOL0     H71617   2.527  10.924   3.699  0.6138  0.8858  0.2446
  543MOL0     H71618   2.582  10.834   3.555  0.1434  0.3387 -2.1733
  543MOL0     H71619   2.447  11.102   3.540  0.3505  0.2184  0.0219
  543MOL0     H71620   2.466  10.999   3.410  0.7165  0.5064  0.0817
  543MOL0     H71621   2.309  10.833   3.519  0.6524  1.6493 -3.5715
  543MOL0     H71622   2.228  10.995   3.497  1.2376  4.2137  0.9818
  543MOL0     H71623   2.257  11.069   3.707  0.7660 -0.4995  2.2458
  543MOL0     H71624   2.323  10.917   3.767  0.9148 -1.9657 -2.0024
  543MOL0     H71625   2.101  10.793   3.668 -3.3319  0.6158  2.6100
  543MOL0     H71626   2.062  10.893   3.794  1.0124  0.7536  0.0717
  543MOL0     H71627   1.909  10.907   3.605 -1.1847  2.7310 -0.2963
  543MOL0     H71628   2.031  10.972   3.501 -1.3960 -1.0257 -1.0477
  543MOL0     H71629   1.761  11.041   3.725  1.9807 -0.8741  0.1829
  543MOL0     H71630   1.744  11.416   3.788  2.5556 -1.2027 -0.6205
  543MOL0     H71631   1.695  11.268   3.869  0.8109 -0.5045  0.0313
  543MOL0     H71632   1.548  11.208   3.675  0.1465  0.4595 -1.8711
  543MOL0     H71633   1.638  11.313   3.568  0.3329 -1.3657  0.0004
  543MOL0     H71634   1.456  11.412   3.789 -2.0747 -0.9633 -1.4411
  543MOL0     H71635   1.533  11.509   3.667  2.2000 -0.4333  0.5396
  543MOL0     H71636   1.374  11.290   3.531 -0.9756  0.5350 -0.7338
  543MOL0     H71637   1.333  11.462   3.525  0.2963  0.8178  0.3989
  543MOL0     H71638   1.158  11.376   3.429  0.4629  1.3233  1.1060
  543MOL0     H71639   0.930  11.359   3.366  2.7947  1.1702 -0.2183
  543MOL0     H71640   0.411  11.399   3.785 -1.2707  1.6559 -0.9480
  543MOL0     H71641   0.169  11.421   3.732 -0.0202  1.9484 -1.5115
  543MOL0     H71642  -0.130  11.423   3.527 -1.8960 -2.1813  2.3849
  543MOL0     H71643  -0.027  11.475   3.654  1.1925 -1.2521  0.5230
  543MOL0     H71644   0.019  11.235   3.718  2.1758  0.4347 -1.5505
  543MOL0     H71645  -0.038  11.170   3.567  0.1903 -0.1996  0.6659
  543MOL0     H71646  -0.267  11.237   3.612 -0.8373 -2.1041  0.3118
  543MOL0     H71647  -0.218  11.299   3.772 -2.2376 -0.1452  0.2775
  543MOL0     H71648  -0.184  11.015   3.683 -1.3805 -0.5870 -0.1177
  543MOL0     H71649  -0.141  11.086   3.838 -2.1584  1.0414  1.2463
  543MOL0     H71650  -0.388  11.122   3.887 -1.0292  1.1254 -1.6877
  543MOL0     H71651  -0.352  10.950   3.830  2.8754 -0.1057 -1.5272
  543MOL0     H71652  -0.415  11.056   3.609  2.5263  0.4156  0.9600
  543MOL0     H71653  -0.503  11.177   3.702 -0.1857  0.7508 -3.0027
  543MOL0     H71654  -0.545  10.879   3.684  2.3491 -1.3341  1.8200
  543MOL0     H71655  -0.612  10.969   3.828 -1.2624  0.6250 -0.6301
  543MOL0     H71656  -0.768  10.916   3.615 -2.7943  0.6287  1.2067
  543MOL0     H71657  -0.686  11.054   3.551 -1.6277  0.8195  0.1135
  543MOL0     H71658   0.247  11.393   3.320 -1.3105  0.0308  0.3709
  543MOL0     H71659   0.488  11.387   3.360  4.3298 -0.0832  3.0996
  543MOL0     H71660   0.806  11.289   3.771  1.1681 -3.6340  1.5422
  543MOL0     H71661   1.043  11.288   3.844  0.7906  3.2192  0.8800
  543MOL0     H71662   2.882  11.169   3.999 -2.2430 -2.0721 -0.4991
  543MOL0     H71663   3.074  11.118   4.178 -1.6283 -0.2769  0.2070
  543MOL0     H71664   3.575  10.744   4.127  0.0192  0.2238  0.1223
  543MOL0     H71665   3.740  10.722   4.286 -1.5229 -0.7375 -4.2482
  543MOL0     H71666   3.695  10.702   4.701 -1.6150  0.5623  0.3766
  543MOL0     H71667   3.564  10.808   4.656 -0.5917 -1.1819  0.9312
  543MOL0     H71668   3.750  10.998   4.709 -0.5799 -1.0837 -2.8625
  543MOL0     H71669   3.662  10.912   4.836  1.3911  2.1263  0.7957
  543MOL0     H71670   3.939  10.854   4.725 -5.2766 -0.3729 -4.0275
  543MOL0     H71671   3.854  10.751   4.841 -0.6220 -0.4931  0.0074
  543MOL0     H71672   3.929  11.037   4.893 -2.5524  0.4051 -1.0622
  543MOL0     H71673   3.821  10.934   5.000 -0.5929 -0.9597 -1.5390
  543MOL0     H71674   4.225  10.790   5.059  0.3384  0.7276  2.2190
  543MOL0     H71675   3.531  11.025   4.539  0.4182 -0.6037 -0.6681
  543MOL0     H71676   3.379  11.062   4.340  0.6436  1.3753 -1.1018
  544MOL0     O71677  10.215   4.702   5.530 -0.7037 -0.6066 -0.3320
  544MOL0     C71678  10.274   4.617   5.470  1.2217  0.6570  0.3891
  544MOL0     O71679  10.234   4.487   5.473 -0.7236 -0.5396 -0.9329
  544MOL0     C71680  10.099   4.468   5.473  0.1974  0.5501  1.0319
  544MOL0     C71681  10.028   4.445   5.593 -0.3526 -0.1107 -0.3724
  544MOL0     C71682   9.893   4.423   5.587 -0.5324 -0.2552 -0.4780
  544MOL0     C71683   9.824   4.404   5.469 -0.1053  0.3492  0.3226
  544MOL0     O71684   9.693   4.370   5.482  0.2694  0.1320  0.8974
  544MOL0     C71685   9.614   4.367   5.352  0.7811 -0.1722 -0.1511
  544MOL0     C71686   9.489   4.278   5.386 -0.4850  0.5845  0.0767
  544MOL0     C71687   9.389   4.299   5.279 -0.4140 -0.2491  0.2219
  544MOL0     C71688   9.278   4.206   5.320  0.5930  0.5538  0.4856
  544MOL0     C71689   9.139   4.252   5.280 -0.5749  0.7574  0.9882
  544MOL0     C71690   9.050   4.148   5.354 -0.5872 -0.1278 -0.2634
  544MOL0     C71691   8.896   4.155   5.332 -0.3116 -0.1454 -0.6525
  544MOL0     C71692   8.867   4.106   5.190 -0.2038 -0.2317  0.2948
  544MOL0     N71693   8.730   4.135   5.160 -0.3820 -0.5785  0.0078
  544MOL0     C71694   8.619   4.122   5.238  0.4139  0.2004  0.3235
  544MOL0     C71695   8.521   4.128   5.150 -0.3132  0.9896  0.2607
  544MOL0     C71696   8.380   4.096   5.182  0.0800  0.6615 -0.0132
  544MOL0     C71697   8.294   4.068   5.059 -0.1311  0.9450  0.8890
  544MOL0     C71698   8.161   3.992   5.085  0.3204 -0.3520  0.3981
  544MOL0     C71699   8.169   3.865   5.161 -0.2602  0.5702  1.1790
  544MOL0     O71700   8.137   3.884   5.302 -0.7835  0.1361 -0.0474
  544MOL0     C71701   8.011   3.849   5.337  0.3607  0.0326 -0.2205
  544MOL0     C71702   8.000   3.814   5.470 -0.3444 -0.0427 -0.0047
  544MOL0     C71703   7.876   3.767   5.516 -0.0601 -0.9663 -0.1816
  544MOL0     C71704   7.752   3.781   5.442 -0.4127  0.1703 -0.9739
  544MOL0     C71705   7.624   3.726   5.500  0.0090 -0.5815 -0.1152
  544MOL0     O71706   7.508   3.742   5.425  0.2476 -0.5181 -0.5285
  544MOL0     C71707   7.385   3.729   5.478 -0.1460  0.5224 -0.0843
  544MOL0     C71708   7.315   3.837   5.537 -0.3659 -0.1542  1.2068
  544MOL0     C71709   7.201   3.814   5.622  0.6656  0.2645 -0.9243
  544MOL0     C71710   7.156   3.682   5.632  0.6395 -0.2319  0.6049
  544MOL0     O71711   7.048   3.628   5.702 -0.1067 -0.0809 -0.9584
  544MOL0     C71712   6.923   3.696   5.713 -0.2204 -0.3402  0.1822
  544MOL0     C71713   6.827   3.594   5.779  0.3596 -0.2696 -1.4106
  544MOL0     C71714   6.794   3.485   5.681 -1.8670 -0.5454 -0.5520
  544MOL0     C71715   6.698   3.393   5.736  1.0024  0.0988  0.4121
  544MOL0     C71716   6.666   3.269   5.647 -0.1676  0.2202  0.0057
  544MOL0     C71717   6.544   3.190   5.686 -0.1604 -0.5668  0.3671
  544MOL0     C71718   6.535   3.067   5.592 -0.7839 -0.3142  0.3482
  544MOL0     C71719   6.396   3.002   5.609 -0.1068 -0.7740 -0.4198
  544MOL0    Cl71720   6.388   2.835   5.546  0.0911  0.2120 -0.2079
  544MOL0     C71721   7.219   3.578   5.564 -0.0119  0.4548  0.3260
  544MOL0     C71722   7.332   3.600   5.494  0.1740 -0.0255  0.2455
  544MOL0     O71723   7.632   3.671   5.609  0.2999  0.4372  0.8347
  544MOL0     C71724   7.766   3.820   5.306  0.2056  0.2699 -0.4718
  544MOL0     C71725   7.896   3.848   5.252 -0.2743 -0.4198  0.0391
  544MOL0     N71726   8.565   4.169   5.027 -0.1868 -0.6668  0.0520
  544MOL0     N71727   8.686   4.180   5.041 -0.5348 -0.2177 -0.4058
  544MOL0     C71728   9.898   4.407   5.350 -0.2748  0.6934 -0.7503
  544MOL0     C71729  10.029   4.445   5.356 -0.4136 -0.2362  0.7589
  544MOL0     C71730  10.407   4.639   5.416  0.6686 -0.3866  0.2190
  544MOL0     C71731  10.499   4.531   5.386  0.0788 -0.1517  0.0084
  544MOL0     C71732  10.631   4.569   5.342  0.5110 -0.0014  0.0660
  544MOL0     C71733  10.663   4.700   5.333 -0.6081 -0.7733  0.4291
  544MOL0     O71734  10.798   4.703   5.311  0.4994  0.1718  0.2194
  544MOL0     C71735  10.866   4.799   5.394  0.7399 -0.5949  0.0459
  544MOL0     C71736  10.946   4.907   5.311  0.4809  0.1802  0.3044
  544MOL0     C71737  11.058   4.838   5.226 -0.7366 -0.4010  0.7378
  544MOL0     C71738  11.159   4.936   5.163  0.1029 -0.4620 -0.5013
  544MOL0     C71739  11.252   4.981   5.259 -0.1742 -0.1541  0.2919
  544MOL0     C71740  11.330   5.022   5.345 -0.1108 -0.6175  0.2473
  544MOL0     C71741  10.576   4.800   5.355 -0.6241 -0.2345 -0.2214
  544MOL0     C71742  10.437   4.774   5.384  0.2388  0.4957 -0.3722
  544MOL0     H71743  10.080   4.465   5.686 -0.0688 -2.8664  0.1508
  544MOL0     H71744   9.829   4.430   5.675 -0.6328  0.2983 -0.5911
  544MOL0     H71745   9.666   4.315   5.271 -0.0910 -0.0859 -0.7757
  544MOL0     H71746   9.578   4.467   5.325 -1.3854 -1.5013 -2.6723
  544MOL0     H71747   9.448   4.322   5.477  2.4325 -3.0134  3.5247
  544MOL0     H71748   9.519   4.176   5.413 -1.3056  0.5857  1.0309
  544MOL0     H71749   9.414   4.260   5.180  0.3949  2.6699 -0.8236
  544MOL0     H71750   9.352   4.402   5.277 -0.6735 -0.1649  3.6787
  544MOL0     H71751   9.294   4.109   5.272  2.2155 -0.8802  3.6078
  544MOL0     H71752   9.283   4.189   5.428  0.7200 -2.9836  0.0343
  544MOL0     H71753   9.136   4.250   5.171  3.3979 -3.1842  0.6754
  544MOL0     H71754   9.116   4.353   5.315  0.7138  1.1996  0.6057
  544MOL0     H71755   9.060   4.163   5.462  0.5770 -0.5993 -0.2842
  544MOL0     H71756   9.087   4.049   5.323  3.6476  0.9455  0.6811
  544MOL0     H71757   8.846   4.095   5.408  0.3102 -0.4764 -0.4934
  544MOL0     H71758   8.867   4.261   5.335 -0.1790 -0.0974 -1.0460
  544MOL0     H71759   8.892   4.002   5.170  1.9172 -0.2161  2.3003
  544MOL0     H71760   8.931   4.169   5.128 -0.9580 -1.7682 -2.1538
  544MOL0     H71761   8.609   4.093   5.342 -1.5958 -0.2130  0.0590
  544MOL0     H71762   8.326   4.179   5.230  3.3687  1.5943  2.4787
  544MOL0     H71763   8.366   4.010   5.249 -0.0219 -0.0263 -0.9092
  544MOL0     H71764   8.355   4.002   4.996 -1.0608 -0.4495  1.3877
  544MOL0     H71765   8.276   4.166   5.014 -2.7056  0.5990  1.0191
  544MOL0     H71766   8.084   4.059   5.124 -1.3762 -1.4206 -1.0229
  544MOL0     H71767   8.122   3.966   4.987  0.2974 -0.6044  0.4736
  544MOL0     H71768   8.270   3.824   5.154 -0.9804 -1.1151 -0.7663
  544MOL0     H71769   8.100   3.788   5.122 -0.0974  1.0109 -0.0258
  544MOL0     H71770   8.085   3.806   5.536  1.0308 -0.3240 -1.7299
  544MOL0     H71771   7.871   3.717   5.612 -0.6601 -0.0175  0.2820
  544MOL0     H71772   7.344   3.940   5.519  1.2514 -0.1226  3.5013
  544MOL0     H71773   7.153   3.905   5.656 -0.0097 -0.8215  1.2176
  544MOL0     H71774   6.889   3.731   5.615  0.4284 -0.0259  0.0637
  544MOL0     H71775   6.933   3.781   5.781 -1.0319 -0.7967  0.8920
  544MOL0     H71776   6.730   3.640   5.802 -0.7975 -2.1655 -2.2694
  544MOL0     H71777   6.869   3.550   5.870  0.7782 -0.0904 -1.5165
  544MOL0     H71778   6.890   3.437   5.663 -0.3084 -0.2633  5.1735
  544MOL0     H71779   6.758   3.530   5.588 -2.4866 -1.1029 -0.5922
  544MOL0     H71780   6.735   3.351   5.830  0.8459  1.1418  0.9639
  544MOL0     H71781   6.608   3.446   5.770  1.0994 -0.3905  1.4750
  544MOL0     H71782   6.756   3.207   5.640 -1.3441 -1.4045 -3.0716
  544MOL0     H71783   6.658   3.304   5.543 -1.7945 -2.3346 -0.8226
  544MOL0     H71784   6.452   3.250   5.680  0.9128  1.0707 -0.6955
  544MOL0     H71785   6.552   3.148   5.786 -1.4455 -0.9083  0.3498
  544MOL0     H71786   6.554   3.097   5.488 -1.7372  0.4176  0.3711
  544MOL0     H71787   6.607   2.994   5.630 -0.8688  0.9189  3.1210
  544MOL0     H71788   6.324   3.069   5.562 -0.3295 -2.1549 -2.1359
  544MOL0     H71789   6.384   2.981   5.716 -0.4969 -1.0242 -0.5110
  544MOL0     H71790   7.188   3.474   5.566  2.1219 -0.2167  0.5784
  544MOL0     H71791   7.389   3.515   5.459 -0.5484 -0.9602  1.2604
  544MOL0     H71792   7.688   3.797   5.235 -1.7607 -0.9558  1.9330
  544MOL0     H71793   7.906   3.866   5.146  1.2055  0.4897  0.3009
  544MOL0     H71794   9.848   4.390   5.255 -3.5603  1.8166  0.6654
  544MOL0     H71795  10.081   4.450   5.261 -2.4302 -0.9604 -0.4425
  544MOL0     H71796  10.474   4.430   5.418 -0.6895  0.9335  3.1887
  544MOL0     H71797  10.709   4.494   5.336  1.2788  0.8459 -0.9332
  544MOL0     H71798  10.938   4.737   5.449 -2.8931 -3.0058  2.5131
  544MOL0     H71799  10.799   4.845   5.467 -0.2324 -2.4243  0.3450
  544MOL0     H71800  10.876   4.971   5.256  1.7541 -1.7059 -3.8956
  544MOL0     H71801  10.997   4.968   5.386  1.8035 -1.7284  1.0246
  544MOL0     H71802  11.010   4.778   5.148  2.9684 -1.5721 -0.8513
  544MOL0     H71803  11.096   4.764   5.298 -1.4364 -0.0549  1.4793
  544MOL0     H71804  11.210   4.884   5.082  2.6239 -0.4270  0.9634
  544MOL0     H71805  11.111   5.023   5.117  0.7290 -0.9070 -2.0580
  544MOL0     H71806  11.395   5.031   5.429 -0.1561 -0.2410  0.2438
  544MOL0     H71807  10.618   4.900   5.353  0.4782 -0.6790 -0.0909
  544MOL0     H71808  10.373   4.857   5.413 -1.2524  0.1850 -2.5452
  545MOL0     O71809   3.546   9.774   6.176  0.1403  0.3347  0.3059
  545MOL0     C71810   3.497   9.719   6.277 -0.7779  0.6460  0.1903
  545MOL0     O71811   3.566   9.719   6.396  0.4993 -0.2953 -0.5563
  545MOL0     C71812   3.699   9.712   6.412  0.1006 -0.5800 -0.1432
  545MOL0     C71813   3.783   9.649   6.321  0.0826 -0.7370 -0.4532
  545MOL0     C71814   3.920   9.640   6.344  0.1937  0.1131  0.4361
  545MOL0     C71815   3.988   9.707   6.446  0.0882 -0.2796 -0.6480
  545MOL0     O71816   4.124   9.711   6.438  0.8534  0.3182  0.6659
  545MOL0     C71817   4.206   9.768   6.537 -0.8112 -0.7077  0.2581
  545MOL0     C71818   4.350   9.742   6.491  0.2232 -0.5637  0.5013
  545MOL0     C71819   4.443   9.839   6.568  0.1135  0.0229  0.5552
  545MOL0     C71820   4.592   9.810   6.536  0.1859 -0.4578  0.2913
  545MOL0     C71821   4.633   9.881   6.401  1.0498 -0.0255 -0.8502
  545MOL0     C71822   4.788   9.891   6.383 -0.4013 -0.4198  0.1178
  545MOL0     C71823   4.846   9.750   6.382 -0.1863 -0.3873 -0.5158
  545MOL0     C71824   4.974   9.740   6.290  0.2251  0.1524 -0.4586
  545MOL0     N71825   5.078   9.794   6.365  0.5160 -0.0966  0.6620
  545MOL0     C71826   5.131   9.920   6.326 -0.2118  0.0688 -0.1667
  545MOL0     C71827   5.253   9.927   6.387  0.7892 -0.8781 -0.1403
  545MOL0     C71828   5.345  10.052   6.382  0.8702 -0.1750 -0.2286
  545MOL0     C71829   5.354  10.101   6.525 -0.1758  0.8302  0.5041
  545MOL0     C71830   5.223  10.141   6.587 -0.6009 -0.4672  1.5284
  545MOL0     C71831   5.242  10.205   6.724  0.6425  0.3727  0.4484
  545MOL0     O71832   5.145  10.286   6.781 -0.1967 -0.4994 -0.0269
  545MOL0     C71833   5.017  10.230   6.786  0.0229 -0.0697  0.9695
  545MOL0     C71834   4.984  10.111   6.861  0.2257 -0.9663 -0.2055
  545MOL0     C71835   4.859  10.059   6.855  1.1170 -0.5296  0.5006
  545MOL0     C71836   4.762  10.121   6.770  0.1703  0.0530  0.1535
  545MOL0     C71837   4.618  10.084   6.780  0.0050  0.2438 -0.1094
  545MOL0     O71838   4.529  10.174   6.742  0.9258  0.6923 -0.7154
  545MOL0     C71839   4.393  10.149   6.746  0.2530 -0.3992  0.0668
  545MOL0     C71840   4.321  10.075   6.846 -0.2555 -0.7416  1.0560
  545MOL0     C71841   4.180  10.054   6.821  0.5044 -0.7323 -0.7158
  545MOL0     C71842   4.117  10.123   6.718 -0.6714  0.4645  0.9988
  545MOL0     O71843   3.978  10.103   6.703 -0.0920  0.1937 -0.2493
  545MOL0     C71844   3.914  10.217   6.649 -1.0360 -0.6449 -0.3806
  545MOL0     C71845   3.765  10.200   6.681  0.4949 -0.0389  0.6839
  545MOL0     C71846   3.741  10.217   6.834 -0.5890  0.3475 -0.1474
  545MOL0     C71847   3.595  10.214   6.892  0.1542  0.7824  0.4165
  545MOL0     C71848   3.515  10.334   6.851 -0.2899 -0.2695 -1.1796
  545MOL0     C71849   3.378  10.318   6.921  0.1454 -0.1569  0.7485
  545MOL0     C71850   3.275  10.431   6.883 -0.5006  0.2353  0.4153
  545MOL0     C71851   3.154  10.426   6.967 -0.4524 -0.5779 -0.8132
  545MOL0    Cl71852   3.012  10.513   6.908  0.5493 -0.1092 -0.4920
  545MOL0     C71853   4.194  10.177   6.616 -0.2902 -0.4930  0.1678
  545MOL0     C71854   4.330  10.197   6.628 -0.8154 -0.3828  0.4422
  545MOL0     O71855   4.595   9.989   6.850  0.0433  0.0228  0.2955
  545MOL0     C71856   4.791  10.242   6.702  0.2325  0.3463  0.3361
  545MOL0     C71857   4.922  10.290   6.703  0.3317 -0.1133  0.6174
  545MOL0     N71858   5.270   9.809   6.460 -0.8182  0.1396  0.2847
  545MOL0     N71859   5.165   9.725   6.447 -0.1414 -0.8026 -0.1778
  545MOL0     C71860   3.906   9.780   6.536 -0.3181 -1.0062 -0.4544
  545MOL0     C71861   3.765   9.782   6.518 -0.3685 -0.7694 -0.7469
  545MOL0     C71862   3.375   9.637   6.260  0.1224 -0.1826 -0.3045
  545MOL0     C71863   3.290   9.653   6.149 -0.6387  0.7273 -0.0989
  545MOL0     C71864   3.176   9.579   6.130  0.3109 -0.9693 -0.4412
  545MOL0     C71865   3.138   9.500   6.232  0.2268 -0.2066 -0.2166
  545MOL0     O71866   3.026   9.418   6.231  0.3991 -0.0837  0.3727
  545MOL0     C71867   3.000   9.345   6.113  1.1156 -0.4541 -0.0282
  545MOL0     C71868   2.886   9.248   6.133 -0.2508  0.5914 -0.2268
  545MOL0     C71869   2.847   9.162   6.012 -0.6784  0.3755  0.4283
  545MOL0     C71870   2.921   9.028   5.995 -0.3213  0.4611  0.5720
  545MOL0     C71871   3.054   9.046   5.947 -0.0133 -0.1327  0.2397
  545MOL0     C71872   3.173   9.065   5.924  0.8141 -0.6421 -0.4287
  545MOL0     C71873   3.201   9.497   6.350 -0.7512 -0.9580 -0.3537
  545MOL0     C71874   3.325   9.564   6.369  0.3864  1.1367 -0.0589
  545MOL0     H71875   3.733   9.594   6.242  0.4091 -0.9886 -0.4861
  545MOL0     H71876   3.986   9.582   6.281  1.7062  1.9563  0.2308
  545MOL0     H71877   4.203   9.714   6.632  4.5476 -3.0804 -0.5411
  545MOL0     H71878   4.191   9.877   6.538 -0.3663 -0.6426  0.8454
  545MOL0     H71879   4.361   9.765   6.384  0.5384 -4.4424 -0.4557
  545MOL0     H71880   4.376   9.636   6.492  0.1488 -0.6681 -1.9696
  545MOL0     H71881   4.429   9.825   6.676 -0.5612 -2.3679  0.2194
  545MOL0     H71882   4.422   9.940   6.532  1.1012  0.4227  1.0768
  545MOL0     H71883   4.663   9.836   6.615  2.1238 -0.2831 -1.4033
  545MOL0     H71884   4.607   9.702   6.532 -1.5945 -0.7697  1.1333
  545MOL0     H71885   4.603   9.985   6.410  1.1951 -0.0515  0.0138
  545MOL0     H71886   4.577   9.832   6.321 -0.0568  0.2826 -0.2891
  545MOL0     H71887   4.845   9.958   6.449 -0.7740 -0.1643  0.1786
  545MOL0     H71888   4.801   9.931   6.282  1.0286  0.1099  0.4897
  545MOL0     H71889   4.859   9.717   6.486  1.2879  1.0601 -0.2074
  545MOL0     H71890   4.773   9.682   6.337 -0.6195 -0.3207  0.0721
  545MOL0     H71891   4.973   9.800   6.198  1.8267 -3.1169 -2.7927
  545MOL0     H71892   5.000   9.639   6.258  1.2904  1.2405 -3.3608
  545MOL0     H71893   5.095   9.991   6.252  0.6330 -0.4120 -1.0650
  545MOL0     H71894   5.296  10.132   6.325  1.2437  2.1797  2.5198
  545MOL0     H71895   5.447  10.036   6.345  0.3336  1.0995 -2.4751
  545MOL0     H71896   5.421  10.188   6.521  0.4944  0.3010 -1.5701
  545MOL0     H71897   5.400  10.029   6.594  0.3260  2.4862  1.9436
  545MOL0     H71898   5.186  10.222   6.524 -1.5576 -2.4718 -0.6638
  545MOL0     H71899   5.147  10.063   6.581  0.1309 -1.2136  1.7205
  545MOL0     H71900   5.337  10.260   6.732  0.7990  0.5228 -1.9160
  545MOL0     H71901   5.252  10.123   6.796  2.6632 -0.7299 -0.9726
  545MOL0     H71902   5.070  10.071   6.915 -0.0076 -0.8038  0.2981
  545MOL0     H71903   4.841   9.974   6.920  1.7948  0.5660  2.1623
  545MOL0     H71904   4.371  10.035   6.933  1.7610  0.1668  0.3816
  545MOL0     H71905   4.112  10.008   6.892  1.4342  1.0838  1.4837
  545MOL0     H71906   3.924  10.226   6.541  2.1597  0.9738 -0.0750
  545MOL0     H71907   3.963  10.307   6.687 -0.2950 -1.1431 -0.1304
  545MOL0     H71908   3.728  10.101   6.652 -2.2699  1.2649 -0.7283
  545MOL0     H71909   3.716  10.273   6.615 -2.2841 -2.6518 -0.3816
  545MOL0     H71910   3.786  10.304   6.882  1.0798 -0.5314 -0.0592
  545MOL0     H71911   3.791  10.125   6.867  0.4881  0.0304 -2.4921
  545MOL0     H71912   3.534  10.130   6.859 -0.7779  0.9281  1.7057
  545MOL0     H71913   3.604  10.218   7.001 -0.5091 -1.0036  0.5612
  545MOL0     H71914   3.511  10.345   6.742  0.6807  0.2363 -1.1813
  545MOL0     H71915   3.570  10.425   6.879  0.1869 -1.4793  2.2534
  545MOL0     H71916   3.374  10.323   7.030 -2.7301  2.3012  0.6542
  545MOL0     H71917   3.337  10.223   6.886  0.9151 -0.1636 -0.2075
  545MOL0     H71918   3.317  10.531   6.896  1.8640 -0.3772 -1.6192
  545MOL0     H71919   3.250  10.416   6.777  0.0482 -1.2330  0.4714
  545MOL0     H71920   3.185  10.455   7.068  0.0553 -0.1616 -1.0834
  545MOL0     H71921   3.131  10.319   6.971  1.0929 -0.9076 -0.3450
  545MOL0     H71922   4.156  10.207   6.519 -0.3515 -2.2776 -0.3970
  545MOL0     H71923   4.400  10.235   6.554  1.7921 -0.6501  2.6017
  545MOL0     H71924   4.719  10.299   6.645  0.3883  0.0504 -0.1627
  545MOL0     H71925   4.947  10.374   6.639  1.7247  0.7474  2.2233
  545MOL0     H71926   3.945   9.855   6.604  0.6352 -2.0770  0.2231
  545MOL0     H71927   3.711   9.860   6.570  0.3636 -0.2345 -0.7624
  545MOL0     H71928   3.324   9.715   6.066  0.3221  0.5620  0.1553
  545MOL0     H71929   3.119   9.576   6.038  1.7303 -2.2723 -1.3206
  545MOL0     H71930   3.094   9.311   6.068  2.2803 -1.3796  2.8763
  545MOL0     H71931   2.952   9.424   6.055  0.3692  1.7960  3.3465
  545MOL0     H71932   2.906   9.177   6.213 -4.6334 -0.3828  0.2695
  545MOL0     H71933   2.794   9.292   6.173 -3.3262 -2.6733 -3.0343
  545MOL0     H71934   2.845   9.216   5.917 -1.7350  0.5791  0.5456
  545MOL0     H71935   2.741   9.134   6.020 -0.2490 -2.7210 -2.3194
  545MOL0     H71936   2.932   8.992   6.097  1.0535  5.1069  2.3124
  545MOL0     H71937   2.857   8.963   5.934  2.6059 -1.5028 -0.6387
  545MOL0     H71938   3.280   9.074   5.918  0.8332  0.2627  0.8708
  545MOL0     H71939   3.169   9.428   6.428  1.7434 -3.0250 -1.0271
  545MOL0     H71940   3.386   9.551   6.458  2.6835 -0.6280 -1.7420
  546MOL0     O71941   4.405   5.639  10.314  0.1567 -0.5251 -0.0192
  546MOL0     C71942   4.364   5.723  10.232 -0.3174 -0.2907 -0.0769
  546MOL0     O71943   4.239   5.739  10.191  0.5694 -0.7301 -0.2255
  546MOL0     C71944   4.134   5.674  10.260  0.0833 -0.5671  0.2123
  546MOL0     C71945   4.061   5.577  10.189  0.5136 -0.5154  0.5968
  546MOL0     C71946   3.965   5.496  10.259 -0.5014 -0.7677 -1.1843
  546MOL0     C71947   3.943   5.502  10.397  0.5715  0.4356  0.8839
  546MOL0     O71948   3.857   5.422  10.469 -0.1744  0.3576  0.9506
  546MOL0     C71949   3.825   5.291  10.413  0.6435 -0.8332  0.0309
  546MOL0     C71950   3.718   5.225  10.503 -0.1941  0.3790 -0.1799
  546MOL0     C71951   3.593   5.319  10.510  1.0017  0.2855  0.5675
  546MOL0     C71952   3.475   5.236  10.573 -0.2913 -0.3598  0.3042
  546MOL0     C71953   3.352   5.317  10.596  0.8111 -0.5153 -1.2151
  546MOL0     C71954   3.233   5.222  10.638  0.0419 -0.4919  0.0712
  546MOL0     C71955   3.100   5.296  10.689  0.8918  0.1500 -0.3858
  546MOL0     C71956   2.984   5.200  10.677  0.1603 -0.0996  0.4213
  546MOL0     N71957   2.849   5.253  10.680 -0.8933  0.1843  0.0142
  546MOL0     C71958   2.813   5.345  10.775  0.3357  0.1786  0.3675
  546MOL0     C71959   2.699   5.397  10.734  0.8602 -0.5532  0.9820
  546MOL0     C71960   2.618   5.510  10.807 -0.2079 -0.0227  0.4653
  546MOL0     C71961   2.518   5.457  10.918 -0.1674 -0.7185  0.2410
  546MOL0     C71962   2.443   5.575  10.971  0.1253 -0.7425 -0.9190
  546MOL0     C71963   2.354   5.554  11.092  0.2760  0.2807 -0.1525
  546MOL0     O71964   2.263   5.449  11.055 -0.4172 -0.3010  0.0866
  546MOL0     C71965   2.179   5.469  10.946 -0.4635 -0.6912  0.1422
  546MOL0     C71966   2.116   5.359  10.894 -1.1566  0.3832  0.6732
  546MOL0     C71967   2.024   5.365  10.793 -0.5404  0.2110 -0.1547
  546MOL0     C71968   1.976   5.491  10.741  0.0665 -0.0094  0.7242
  546MOL0     C71969   1.883   5.495  10.631 -0.7666 -0.2294 -0.8011
  546MOL0     O71970   1.827   5.380  10.590  0.8766  0.3178 -1.0843
  546MOL0     C71971   1.720   5.397  10.503 -0.1025  0.1312  0.8096
  546MOL0     C71972   1.704   5.318  10.400  0.4729 -0.4087  0.8241
  546MOL0     C71973   1.578   5.333  10.326 -0.7311  0.8425 -0.8880
  546MOL0     C71974   1.488   5.434  10.357 -1.3665 -0.0620 -0.3834
  546MOL0     O71975   1.367   5.454  10.282  0.3701 -0.4752 -0.1229
  546MOL0     C71976   1.318   5.366  10.183 -0.2946  0.8842  0.3585
  546MOL0     C71977   1.230   5.256  10.239 -0.5220 -0.9303 -0.3339
  546MOL0     C71978   1.306   5.161  10.331 -0.9237 -0.2799  0.4427
  546MOL0     C71979   1.213   5.058  10.404 -0.2820  0.9392 -0.8519
  546MOL0     C71980   1.274   5.010  10.543  0.0775  0.2971 -0.2944
  546MOL0     C71981   1.173   4.914  10.610  0.5778 -0.4435  0.3292
  546MOL0     C71982   1.240   4.853  10.735  0.7490 -0.1092 -0.2715
  546MOL0     C71983   1.165   4.729  10.775 -0.5471 -0.7020  0.4628
  546MOL0    Cl71984   1.012   4.759  10.854  0.0286  0.2685  0.1958
  546MOL0     C71985   1.517   5.519  10.463 -0.6439 -0.2639 -0.5346
  546MOL0     C71986   1.623   5.486  10.547 -0.9599 -0.0880  0.5174
  546MOL0     O71987   1.877   5.605  10.582  0.1136  0.2321 -0.2047
  546MOL0     C71988   2.041   5.607  10.799  0.7690  0.6198 -0.6381
  546MOL0     C71989   2.140   5.597  10.893  0.6103  0.6133 -0.2664
  546MOL0     N71990   2.663   5.330  10.617  0.1532  0.5776 -1.0421
  546MOL0     N71991   2.760   5.245  10.584 -0.2117  0.7147  0.1870
  546MOL0     C71992   4.017   5.602  10.462  0.2020 -0.5826 -0.1877
  546MOL0     C71993   4.112   5.687  10.398  0.0502 -0.0548 -0.1570
  546MOL0     C71994   4.472   5.814  10.176  0.5988 -0.9744  0.0968
  546MOL0     C71995   4.596   5.828  10.251  0.5891 -0.8940 -0.5655
  546MOL0     C71996   4.697   5.911  10.207  0.0357  0.1775  0.3145
  546MOL0     C71997   4.677   5.986  10.094  0.2483 -0.7833 -0.4394
  546MOL0     O71998   4.779   6.063  10.048  1.0059 -0.1857 -0.9564
  546MOL0     C71999   4.867   5.987   9.968 -0.2655  0.6435  0.2088
  546MOL0     C72000   5.007   6.043   9.935 -0.1258 -0.2461  0.7365
  546MOL0     C72001   5.064   6.126  10.045 -0.3733  0.3625 -0.0884
  546MOL0     C72002   5.177   6.227   9.991  0.2335  0.6232  0.6494
  546MOL0     C72003   5.304   6.155   9.975 -0.1888  0.2699 -0.3238
  546MOL0     C72004   5.410   6.103   9.957  1.1509  0.4554  1.3322
  546MOL0     C72005   4.558   5.976  10.018 -0.3704  0.6819 -0.0194
  546MOL0     C72006   4.460   5.885  10.054  0.0545 -0.1834 -0.1946
  546MOL0     H72007   4.079   5.578  10.082  0.4189  2.9165  0.5081
  546MOL0     H72008   3.897   5.430  10.206 -1.0109 -1.4884  0.3204
  546MOL0     H72009   3.911   5.223  10.415  0.4667 -1.0670 -0.1909
  546MOL0     H72010   3.788   5.295  10.310 -1.4406  1.7609  0.7678
  546MOL0     H72011   3.758   5.227  10.605  2.5530  1.2537 -1.1800
  546MOL0     H72012   3.697   5.122  10.475  1.9138 -0.1478 -0.0462
  546MOL0     H72013   3.570   5.349  10.407  0.0061 -0.2783  0.6103
  546MOL0     H72014   3.609   5.412  10.565 -0.5873  0.3895  0.9214
  546MOL0     H72015   3.458   5.162  10.494  0.7645  3.6400 -4.1424
  546MOL0     H72016   3.507   5.186  10.665  0.0112 -1.5472 -0.4240
  546MOL0     H72017   3.314   5.379  10.515 -0.3758  0.5233  0.0708
  546MOL0     H72018   3.357   5.391  10.677  0.6219 -0.9517 -0.7985
  546MOL0     H72019   3.265   5.143  10.706 -2.0884 -1.9477 -0.4965
  546MOL0     H72020   3.218   5.180  10.538  0.1610 -2.2427  0.7676
  546MOL0     H72021   3.106   5.327  10.793 -3.5807  1.8177 -0.4111
  546MOL0     H72022   3.071   5.380  10.624 -0.2074  0.3479  0.3413
  546MOL0     H72023   2.982   5.123  10.754  0.0169 -1.4782 -0.9210
  546MOL0     H72024   2.992   5.155  10.578 -1.0431 -0.7863  0.6270
  546MOL0     H72025   2.870   5.382  10.859 -3.5943  1.9788  2.5127
  546MOL0     H72026   2.564   5.567  10.730  1.1494  1.6185  0.6509
  546MOL0     H72027   2.698   5.578  10.839  1.7883 -1.6072 -0.8800
  546MOL0     H72028   2.565   5.396  10.995 -0.7500 -0.0415  1.1599
  546MOL0     H72029   2.446   5.392  10.868 -1.2652 -0.3444  1.2575
  546MOL0     H72030   2.509   5.658  11.000 -1.9925 -0.0105  2.1853
  546MOL0     H72031   2.386   5.620  10.889  1.0967  0.9748 -0.6949
  546MOL0     H72032   2.298   5.644  11.121  1.4439  0.0833  3.1585
  546MOL0     H72033   2.410   5.538  11.184  0.6635  2.8757  0.1410
  546MOL0     H72034   2.152   5.262  10.926  1.2324  1.4851  1.5603
  546MOL0     H72035   1.992   5.267  10.759 -1.2410  0.0605  0.9191
  546MOL0     H72036   1.772   5.237  10.373  0.3229 -0.7009  1.2943
  546MOL0     H72037   1.552   5.261  10.250 -0.4952  0.8756 -1.0024
  546MOL0     H72038   1.401   5.323  10.127  0.1374  0.4354  1.3145
  546MOL0     H72039   1.247   5.413  10.114  0.6565 -2.1374 -2.9969
  546MOL0     H72040   1.198   5.198  10.151 -0.1044 -0.8397 -0.5493
  546MOL0     H72041   1.136   5.292  10.281 -2.0575 -1.0693 -3.3226
  546MOL0     H72042   1.360   5.212  10.411 -0.5320 -0.1743  0.1165
  546MOL0     H72043   1.378   5.108  10.268 -0.1395  1.1191  0.1175
  546MOL0     H72044   1.116   5.106  10.415 -0.8601 -0.2855 -0.4514
  546MOL0     H72045   1.196   4.984  10.325  0.9665  1.7066 -1.8780
  546MOL0     H72046   1.299   5.095  10.608  0.6894  0.7288 -1.0809
  546MOL0     H72047   1.370   4.963  10.519 -0.5095 -0.5792 -0.9870
  546MOL0     H72048   1.138   4.832  10.547  1.7070 -3.3224  3.1635
  546MOL0     H72049   1.083   4.974  10.625  0.9527  0.5877 -1.3091
  546MOL0     H72050   1.342   4.821  10.710  1.1769 -1.2442  2.5804
  546MOL0     H72051   1.251   4.926  10.816 -0.8385 -1.5794  1.3378
  546MOL0     H72052   1.231   4.669  10.838  0.8249  1.2546  0.9823
  546MOL0     H72053   1.147   4.670  10.684  0.8336 -0.0115 -0.2971
  546MOL0     H72054   1.441   5.596  10.478 -2.6084 -1.8455 -1.8138
  546MOL0     H72055   1.636   5.548  10.636  1.0052 -2.6849  2.2027
  546MOL0     H72056   2.019   5.704  10.754 -0.4302  1.1736  1.0694
  546MOL0     H72057   2.174   5.689  10.939 -0.1102  1.0719 -0.6226
  546MOL0     H72058   3.985   5.628  10.563 -0.8609  1.8577 -1.0572
  546MOL0     H72059   4.177   5.753  10.454  0.7180 -0.8445  0.0159
  546MOL0     H72060   4.617   5.781  10.347 -3.4304 -0.5302  0.6941
  546MOL0     H72061   4.791   5.922  10.260 -0.3854 -0.6176  1.2616
  546MOL0     H72062   4.814   5.981   9.873  1.0934  0.5656 -0.5729
  546MOL0     H72063   4.891   5.889  10.011  0.0462  0.4190 -0.4674
  546MOL0     H72064   5.075   5.970   9.889 -0.9486 -0.6174  0.0670
  546MOL0     H72065   4.984   6.113   9.853 -1.6479  0.0833  1.4126
  546MOL0     H72066   5.110   6.071  10.128 -2.0097 -0.0811  0.5683
  546MOL0     H72067   4.976   6.181  10.081 -2.5696 -2.5096 -0.7169
  546MOL0     H72068   5.153   6.276   9.896  1.5912 -2.4228 -1.4168
  546MOL0     H72069   5.193   6.300  10.071  1.5102  2.3705 -1.1012
  546MOL0     H72070   5.503   6.053   9.940 -0.7749 -2.5109 -1.5755
  546MOL0     H72071   4.544   6.041   9.932  1.9604  1.3752  0.0508
  546MOL0     H72072   4.366   5.875  10.000  0.3296  0.6020 -0.8388
  547MOL0     O72073   0.218  10.081  10.448 -0.4143 -0.6421 -0.5368
  547MOL0     C72074   0.277  10.157  10.366  0.3836  0.0970 -0.2670
  547MOL0     O72075   0.214  10.219  10.256  0.0886  0.1891  0.0015
  547MOL0     C72076   0.098  10.171  10.193 -0.2056 -0.1980  0.4161
  547MOL0     C72077   0.067  10.240  10.081  0.8973 -0.5632  0.4023
  547MOL0     C72078  -0.042  10.209   9.987 -0.0223  0.1534 -0.3212
  547MOL0     C72079  -0.129  10.103  10.026 -0.6619  0.1926 -0.1160
  547MOL0     O72080  -0.226  10.048   9.941  0.3053  0.0120 -0.1212
  547MOL0     C72081  -0.282  10.102   9.824 -0.5713 -0.1833 -0.2499
  547MOL0     C72082  -0.419  10.031   9.785  0.2768 -0.7523 -0.5926
  547MOL0     C72083  -0.538  10.101   9.858  0.8288  0.7989 -0.2443
  547MOL0     C72084  -0.657  10.006   9.842 -0.4855  0.0629 -0.3524
  547MOL0     C72085  -0.786  10.062   9.879  0.1437 -0.1063 -0.4125
  547MOL0     C72086  -0.809  10.064  10.025 -1.0547  0.6039 -0.4177
  547MOL0     C72087  -0.956  10.099  10.053  0.1760  0.3778  0.8687
  547MOL0     C72088  -1.041   9.976  10.074 -0.2794  0.9342 -0.4273
  547MOL0     N72089  -1.179  10.006  10.045 -0.1526 -0.0210 -0.4640
  547MOL0     C72090  -1.260   9.962   9.944 -0.2527  0.0924 -0.6200
  547MOL0     C72091  -1.384  10.009   9.965 -0.5715 -0.3209 -0.3304
  547MOL0     C72092  -1.505   9.990   9.885  0.4804  0.8486  0.7367
  547MOL0     C72093  -1.546   9.843   9.862 -0.7134 -0.1028 -0.5286
  547MOL0     C72094  -1.680   9.854   9.784 -0.6078  0.5434 -0.7450
  547MOL0     C72095  -1.776   9.739   9.813  0.1568 -0.1427 -0.1504
  547MOL0     O72096  -1.859   9.768   9.923  0.6223 -0.0490  0.4368
  547MOL0     C72097  -1.975   9.714   9.949  0.5819  0.2504  0.0065
  547MOL0     C72098  -2.041   9.784  10.049 -0.0870  0.1520  0.3833
  547MOL0     C72099  -2.168   9.746  10.094 -0.3137  0.2822  0.7711
  547MOL0     C72100  -2.238   9.644  10.026 -0.5742  0.5175  0.0959
  547MOL0     C72101  -2.376   9.604  10.078 -0.1157  0.5211  0.4742
  547MOL0     O72102  -2.426   9.475  10.048 -0.6977  0.4698 -0.2922
  547MOL0     C72103  -2.530   9.417  10.118  0.1311 -0.6919 -0.2771
  547MOL0     C72104  -2.653   9.483  10.150 -0.2630 -0.1515  0.3357
  547MOL0     C72105  -2.757   9.408  10.195  0.6187  0.8973 -0.1063
  547MOL0     C72106  -2.738   9.275  10.241 -0.1099  0.2738  0.9004
  547MOL0     O72107  -2.842   9.213  10.311 -0.4690 -0.4839 -0.1494
  547MOL0     C72108  -2.861   9.078  10.270  0.8113  0.5588 -0.3701
  547MOL0     C72109  -2.912   9.076  10.122 -0.5194 -0.1941 -0.0256
  547MOL0     C72110  -2.986   8.949  10.072  0.3534 -0.3357 -0.4175
  547MOL0     C72111  -3.121   8.923  10.151 -0.5945  0.8434  0.1135
  547MOL0     C72112  -3.180   8.787  10.122 -0.0301  0.4195  0.1029
  547MOL0     C72113  -3.234   8.774   9.978  0.7516  0.8790  0.0512
  547MOL0     C72114  -3.324   8.652   9.977 -0.4032 -0.9765 -0.3327
  547MOL0     C72115  -3.344   8.614   9.834 -0.3393  0.0636  0.1011
  547MOL0    Cl72116  -3.439   8.740   9.746 -0.1583 -0.5125  0.1888
  547MOL0     C72117  -2.619   9.208  10.218  0.4473  1.0648 -0.4470
  547MOL0     C72118  -2.526   9.279  10.148 -0.2636  0.8202  0.4423
  547MOL0     O72119  -2.439   9.691  10.128 -0.0290 -0.2207 -0.7561
  547MOL0     C72120  -2.173   9.578   9.923 -0.1829 -0.3351  0.7881
  547MOL0     C72121  -2.044   9.617   9.877 -0.5673  0.1452 -0.0397
  547MOL0     N72122  -1.373  10.084  10.080 -1.5077 -0.2796 -0.0387
  547MOL0     N72123  -1.250  10.076  10.132 -0.3475  0.8102 -0.2874
  547MOL0     C72124  -0.101  10.039  10.145 -0.6607  0.9068  0.4248
  547MOL0     C72125   0.012  10.070  10.230 -0.7538 -0.2384 -0.3188
  547MOL0     C72126   0.418  10.200  10.409  0.7852 -0.0263  0.0346
  547MOL0     C72127   0.496  10.254  10.306 -0.8377 -1.2777 -0.6480
  547MOL0     C72128   0.625  10.290  10.326  0.0071  0.5037 -0.3125
  547MOL0     C72129   0.685  10.263  10.455 -0.3485 -0.7118  0.6812
  547MOL0     O72130   0.820  10.286  10.491  0.0423 -0.0789  0.0036
  547MOL0     C72131   0.895  10.339  10.387 -0.0127 -0.0632 -0.3098
  547MOL0     C72132   1.033  10.391  10.440  0.3578 -0.4373  0.1349
  547MOL0     C72133   1.127  10.376  10.314 -0.3501  0.0573  0.7424
  547MOL0     C72134   1.275  10.420  10.341 -0.1512  0.4119  0.6370
  547MOL0     C72135   1.342  10.311  10.419  0.1934  0.3751 -0.3744
  547MOL0     C72136   1.382  10.226  10.488 -0.1478 -0.6987 -0.8366
  547MOL0     C72137   0.603  10.217  10.556  0.6885  0.1466 -0.2646
  547MOL0     C72138   0.477  10.170  10.532  0.3342  0.0674 -0.1258
  547MOL0     H72139   0.126  10.327  10.056 -0.4429  0.1654 -0.2907
  547MOL0     H72140  -0.054  10.270   9.897 -1.0317  0.9709  0.3532
  547MOL0     H72141  -0.214  10.098   9.739 -2.9944 -1.7414 -2.2743
  547MOL0     H72142  -0.311  10.206   9.844 -3.2503 -0.2255 -3.1089
  547MOL0     H72143  -0.419   9.925   9.812 -4.1350 -0.6384  0.5852
  547MOL0     H72144  -0.430  10.042   9.677 -1.0648 -0.5307 -0.4411
  547MOL0     H72145  -0.557  10.199   9.813 -1.4862  1.3034  1.6799
  547MOL0     H72146  -0.517  10.111   9.965 -1.5490  0.3183  0.3116
  547MOL0     H72147  -0.670   9.977   9.737  0.5309 -4.2116  0.5144
  547MOL0     H72148  -0.633   9.917   9.901 -0.1892  2.2925  3.1592
  547MOL0     H72149  -0.859   9.999   9.827  3.7186 -0.6502 -5.4992
  547MOL0     H72150  -0.799  10.165   9.845  3.0149  0.5336  0.1791
  547MOL0     H72151  -0.748  10.141  10.072 -0.9979  1.9950 -2.6582
  547MOL0     H72152  -0.790   9.965  10.068 -0.2074  1.0421  0.2457
  547MOL0     H72153  -0.974  10.173  10.132  0.1439  1.7304 -0.3637
  547MOL0     H72154  -0.995  10.150   9.964  0.2351  0.4179  0.8650
  547MOL0     H72155  -1.025   9.945  10.178  1.4650  1.9617 -0.3442
  547MOL0     H72156  -1.000   9.887  10.025 -1.9012 -1.8322  2.8043
  547MOL0     H72157  -1.225   9.898   9.864  2.8523  0.2949  0.4630
  547MOL0     H72158  -1.488  10.046   9.793 -1.0145  1.1294  0.6058
  547MOL0     H72159  -1.592  10.032   9.935  0.6423  3.6700 -1.1217
  547MOL0     H72160  -1.548   9.791   9.959  1.3739  1.4690  0.4460
  547MOL0     H72161  -1.479   9.789   9.795 -2.6735  0.4083 -3.0250
  547MOL0     H72162  -1.735   9.946   9.804 -2.0867 -0.1793 -1.3142
  547MOL0     H72163  -1.661   9.847   9.676  0.2534  0.9755 -0.6308
  547MOL0     H72164  -1.721   9.648   9.839  0.1037  0.1877  1.1677
  547MOL0     H72165  -1.831   9.718   9.721 -1.6607  0.5302  0.7537
  547MOL0     H72166  -1.986   9.865  10.096  0.4339 -0.9164  1.6816
  547MOL0     H72167  -2.216   9.783  10.184 -0.2635 -0.6861  1.2113
  547MOL0     H72168  -2.658   9.592  10.150 -0.2066 -0.0863 -2.0952
  547MOL0     H72169  -2.849   9.463  10.212 -1.8451 -2.9594  0.2578
  547MOL0     H72170  -2.942   9.045  10.335  1.1332  2.4535  1.0656
  547MOL0     H72171  -2.776   9.011  10.287  0.1780 -0.0624  0.4032
  547MOL0     H72172  -2.820   9.096  10.066  0.7355  0.8218  2.2885
  547MOL0     H72173  -2.976   9.164  10.109  1.7569  1.5330 -0.1090
  547MOL0     H72174  -2.917   8.863  10.070 -2.6322 -2.8896 -0.5640
  547MOL0     H72175  -3.018   8.966   9.969  1.1204  0.4578 -0.5373
  547MOL0     H72176  -3.107   8.920  10.260 -0.5344 -1.7670  0.0880
  547MOL0     H72177  -3.193   8.992  10.105 -0.6003  0.3041 -0.7044
  547MOL0     H72178  -3.257   8.758  10.195  0.7937 -1.7957  0.1727
  547MOL0     H72179  -3.105   8.711  10.144 -2.6688 -2.6623 -0.7529
  547MOL0     H72180  -3.150   8.761   9.908  2.9957 -1.0038  2.8842
  547MOL0     H72181  -3.293   8.860   9.946 -1.0809 -0.1142  0.6436
  547MOL0     H72182  -3.289   8.568  10.038  3.2731 -0.8739 -2.0659
  547MOL0     H72183  -3.422   8.683  10.016 -0.9747 -3.8910  0.7902
  547MOL0     H72184  -3.400   8.521   9.823 -0.1215  0.1788 -2.7446
  547MOL0     H72185  -3.245   8.599   9.789  0.3724  1.8143  0.9639
  547MOL0     H72186  -2.599   9.114  10.269  4.4244  0.7528 -2.1819
  547MOL0     H72187  -2.428   9.233  10.142  1.2041  3.8386 -0.9300
  547MOL0     H72188  -2.212   9.487   9.879  2.0306 -0.0990 -1.9878
  547MOL0     H72189  -1.988   9.559   9.804 -2.2939 -0.3439 -1.0376
  547MOL0     H72190  -0.166   9.959  10.178  0.1442  0.0359 -0.0512
  547MOL0     H72191   0.021   9.999  10.312  0.0085 -1.1713 -1.1890
  547MOL0     H72192   0.451  10.281  10.211 -0.7427 -0.5711 -0.5000
  547MOL0     H72193   0.687  10.333  10.248  1.6621  0.1666  0.7646
  547MOL0     H72194   0.849  10.430  10.346 -2.4472 -0.5674  1.0457
  547MOL0     H72195   0.903  10.264  10.309 -0.3096 -1.7914  1.2389
  547MOL0     H72196   1.028  10.496  10.471 -2.0133 -0.0337 -1.3518
  547MOL0     H72197   1.063  10.336  10.529  2.3340  2.7081  1.6114
  547MOL0     H72198   1.082  10.443  10.239  0.7256  0.5089  0.4841
  547MOL0     H72199   1.127  10.279  10.263  0.3635  1.6910 -2.6879
  547MOL0     H72200   1.327  10.435  10.246 -0.6542 -2.9208 -0.2891
  547MOL0     H72201   1.267  10.513  10.398 -1.9682  1.3060 -0.9484
  547MOL0     H72202   1.420  10.153  10.555  1.9559  0.9457 -0.1180
  547MOL0     H72203   0.637  10.189  10.655  2.0583  2.5789  0.0365
  547MOL0     H72204   0.430  10.113  10.612  1.0005  0.5856  0.6551
  548MOL0     O72205   4.283  10.791   0.697 -0.7459  0.5989 -0.5634
  548MOL0     C72206   4.385  10.836   0.647  0.2080  1.0301  0.1985
  548MOL0     O72207   4.377  10.906   0.525 -1.2068 -0.2081  0.3858
  548MOL0     C72208   4.255  10.940   0.479 -0.3415  0.2753 -0.5676
  548MOL0     C72209   4.190  10.875   0.374  0.0382  0.2865 -0.8396
  548MOL0     C72210   4.067  10.924   0.323 -0.8142  0.1979 -0.2079
  548MOL0     C72211   4.007  11.035   0.377 -0.5246  0.6760 -0.4656
  548MOL0     O72212   3.895  11.094   0.324 -0.2969 -0.3447 -0.7202
  548MOL0     C72213   3.876  11.114   0.182  0.1514  0.4642  0.8872
  548MOL0     C72214   3.779  10.997   0.140  0.4027  0.0448  0.3137
  548MOL0     C72215   3.726  11.010  -0.002 -1.0210 -0.5933  0.0497
  548MOL0     C72216   3.606  11.103  -0.008  0.5679  0.0784 -0.7388
  548MOL0     C72217   3.506  11.048  -0.124 -0.2132  0.6810 -0.2213
  548MOL0     C72218   3.386  11.136  -0.133  0.8971  0.1729  0.4691
  548MOL0     C72219   3.269  11.099  -0.231 -0.5136 -0.5425  0.2349
  548MOL0     C72220   3.174  11.215  -0.249  0.5627 -0.7666 -0.3215
  548MOL0     N72221   3.112  11.264  -0.123 -0.5755  0.3163 -0.0515
  548MOL0     C72222   2.977  11.277  -0.101  0.6647  0.1661 -0.1723
  548MOL0     C72223   2.949  11.377  -0.014 -0.1071  0.2466  0.9144
  548MOL0     C72224   2.811  11.414   0.041 -0.2820  0.6159 -0.6640
  548MOL0     C72225   2.704  11.336  -0.029 -0.0114 -0.7279  0.2567
  548MOL0     C72226   2.557  11.381  -0.012 -0.1637 -0.3747  0.5197
  548MOL0     C72227   2.521  11.403   0.134 -1.5218  0.4869 -0.8357
  548MOL0     O72228   2.397  11.470   0.127 -0.6346  0.6862  0.1133
  548MOL0     C72229   2.278  11.400   0.109  0.3439 -0.1019 -0.7056
  548MOL0     C72230   2.268  11.261   0.098  0.2403  0.7547  0.6260
  548MOL0     C72231   2.140  11.200   0.079  0.0440  0.0836  0.4438
  548MOL0     C72232   2.020  11.271   0.064  0.0626 -0.0773 -0.3159
  548MOL0     C72233   1.898  11.204   0.048 -0.3422  0.4368 -0.3260
  548MOL0     O72234   1.897  11.068   0.027  0.3275  0.6872  0.1122
  548MOL0     C72235   1.783  11.018  -0.026 -0.2436  0.0084 -0.2128
  548MOL0     C72236   1.759  10.998  -0.163  0.2702  1.0795  0.2558
  548MOL0     C72237   1.632  10.942  -0.204  0.2571 -0.6905  0.3414
  548MOL0     C72238   1.530  10.899  -0.115  0.0206 -0.5766 -0.7722
  548MOL0     O72239   1.406  10.859  -0.150 -0.2990  0.7496  0.0228
  548MOL0     C72240   1.357  10.895  -0.281  0.2682 -0.0181 -0.1157
  548MOL0     C72241   1.209  10.878  -0.272 -0.5135  0.2143  0.0133
  548MOL0     C72242   1.176  10.728  -0.263  0.8427  0.5596 -0.0457
  548MOL0     C72243   1.033  10.693  -0.291  0.8350  0.4918 -0.4500
  548MOL0     C72244   0.996  10.701  -0.442  0.1113 -0.6818  0.0987
  548MOL0     C72245   0.849  10.668  -0.459  0.1235 -0.0089  0.9119
  548MOL0     C72246   0.819  10.642  -0.608 -0.2536  1.1656 -0.6876
  548MOL0     C72247   0.761  10.501  -0.642  0.1761 -0.7486  0.1387
  548MOL0    Cl72248   0.612  10.469  -0.540 -0.0142 -0.3468  0.4909
  548MOL0     C72249   1.560  10.927   0.021 -0.6981 -0.2631 -0.6876
  548MOL0     C72250   1.683  10.984   0.063 -0.4793  0.1745 -0.7148
  548MOL0     O72251   1.798  11.274   0.055 -0.0613 -0.2780  0.6196
  548MOL0     C72252   2.036  11.407   0.061  1.0200  1.0956 -0.8675
  548MOL0     C72253   2.155  11.469   0.095 -0.4020 -0.7417 -0.0145
  548MOL0     N72254   3.079  11.416   0.019 -0.3372  0.0985  0.1927
  548MOL0     N72255   3.172  11.354  -0.050 -0.6594 -0.5894  0.4061
  548MOL0     C72256   4.075  11.109   0.471  0.2628 -1.4617  0.1217
  548MOL0     C72257   4.197  11.067   0.524  0.0087 -0.1676 -0.2553
  548MOL0     C72258   4.512  10.795   0.708  0.3059 -0.0379 -0.7754
  548MOL0     C72259   4.631  10.817   0.638  0.4016 -0.3683  0.2193
  548MOL0     C72260   4.753  10.793   0.696 -0.5010 -0.5862  0.2414
  548MOL0     C72261   4.774  10.749   0.821 -0.5946  0.3377  0.1015
  548MOL0     O72262   4.902  10.747   0.868  0.1175  0.1160  0.4289
  548MOL0     C72263   4.923  10.721   1.007  0.1268 -0.1147 -0.0703
  548MOL0     C72264   4.920  10.575   1.050 -0.2720  0.7252 -0.5519
  548MOL0     C72265   5.052  10.503   1.044  0.3985 -0.2915  0.8403
  548MOL0     C72266   5.118  10.507   0.910 -0.5875 -0.1331  0.3451
  548MOL0     C72267   5.216  10.398   0.890 -1.2976  0.0817  0.0056
  548MOL0     C72268   5.300  10.307   0.891  0.2626 -0.2351  0.4085
  548MOL0     C72269   4.655  10.719   0.895  0.1272 -0.5967  0.5709
  548MOL0     C72270   4.527  10.742   0.838 -0.3292  0.1217 -0.2079
  548MOL0     H72271   4.249  10.803   0.318  0.1390 -0.3937  0.1133
  548MOL0     H72272   4.033  10.892   0.225 -0.0119  1.5392 -0.9551
  548MOL0     H72273   3.971  11.128   0.129 -0.0823 -1.7000 -0.1885
  548MOL0     H72274   3.822  11.209   0.180 -1.3492 -0.3794  0.5037
  548MOL0     H72275   3.697  11.004   0.213 -0.1110 -1.7212 -0.0471
  548MOL0     H72276   3.812  10.897   0.168 -0.8540  0.2037  2.6627
  548MOL0     H72277   3.702  10.911  -0.042  1.6844 -0.8476 -1.2397
  548MOL0     H72278   3.803  11.036  -0.076  0.2811 -4.7076 -0.2790
  548MOL0     H72279   3.552  11.099   0.087  3.1730  1.6540  0.9336
  548MOL0     H72280   3.632  11.205  -0.038 -0.7789 -0.6673 -5.3200
  548MOL0     H72281   3.480  10.943  -0.107  1.1770  0.7721  3.2128
  548MOL0     H72282   3.551  11.054  -0.224 -1.6882  0.4074 -0.9331
  548MOL0     H72283   3.421  11.240  -0.139  2.1364 -0.2884 -0.8524
  548MOL0     H72284   3.320  11.114  -0.049 -4.5223  0.9480 -3.0649
  548MOL0     H72285   3.302  11.076  -0.333 -1.8493  0.8377 -0.5505
  548MOL0     H72286   3.211  11.015  -0.191 -0.8774 -1.3984 -1.9230
  548MOL0     H72287   3.085  11.191  -0.307 -0.3455  0.7964  0.3455
  548MOL0     H72288   3.227  11.300  -0.292  1.6005 -1.3769 -0.2759
  548MOL0     H72289   2.912  11.197  -0.135 -0.0518  0.2759  0.8831
  548MOL0     H72290   2.788  11.521   0.036 -3.4457  0.0222 -0.9653
  548MOL0     H72291   2.818  11.385   0.146 -1.3191 -0.1872 -0.7998
  548MOL0     H72292   2.698  11.234   0.011 -1.6698 -0.1379  1.6660
  548MOL0     H72293   2.723  11.345  -0.137  0.6514  1.3564  0.5075
  548MOL0     H72294   2.545  11.477  -0.062 -1.8624 -1.3531 -1.0867
  548MOL0     H72295   2.485  11.309  -0.051  1.9194 -1.7756 -0.9699
  548MOL0     H72296   2.596  11.466   0.182  0.3132 -1.9436 -0.3305
  548MOL0     H72297   2.500  11.310   0.188  0.3737  1.4195  1.7441
  548MOL0     H72298   2.358  11.201   0.099  1.3697  2.2551 -1.7918
  548MOL0     H72299   2.136  11.091   0.079 -1.2042  0.1128  0.3882
  548MOL0     H72300   1.829  11.033  -0.238 -0.4859  1.2881 -0.3765
  548MOL0     H72301   1.600  10.955  -0.308 -1.3530 -0.1673  0.8619
  548MOL0     H72302   1.389  10.841  -0.370  0.0357  1.4683 -1.1398
  548MOL0     H72303   1.376  11.001  -0.301  0.3631 -0.3294 -1.8165
  548MOL0     H72304   1.167  10.925  -0.361 -2.2358  1.3122  1.3611
  548MOL0     H72305   1.161  10.928  -0.188  0.2215  3.0858 -1.1780
  548MOL0     H72306   1.212  10.691  -0.167  1.3897  1.4181  0.0877
  548MOL0     H72307   1.234  10.669  -0.335  0.8892 -0.4686  0.8165
  548MOL0     H72308   1.020  10.590  -0.257 -2.7097  1.0326  0.2057
  548MOL0     H72309   0.964  10.752  -0.229 -0.8479 -0.0268 -1.7546
  548MOL0     H72310   1.068  10.635  -0.492  1.0112 -2.5511  3.5959
  548MOL0     H72311   1.009  10.808  -0.458  1.6206 -1.0623 -1.5587
  548MOL0     H72312   0.789  10.756  -0.432 -1.5265 -1.0350  0.7744
  548MOL0     H72313   0.823  10.574  -0.409  1.7101  0.1571  2.1285
  548MOL0     H72314   0.747  10.716  -0.647  0.2078  0.4775 -3.0210
  548MOL0     H72315   0.908  10.673  -0.663 -0.0450  0.5170 -0.7196
  548MOL0     H72316   0.836  10.421  -0.644  0.2784 -0.6824 -2.5929
  548MOL0     H72317   0.726  10.509  -0.746  1.1774  0.8423 -0.1054
  548MOL0     H72318   1.482  10.914   0.094  1.1292  0.8330  1.6002
  548MOL0     H72319   1.695  11.011   0.168 -3.4386  1.0463 -0.5151
  548MOL0     H72320   1.941  11.459   0.060 -0.1338 -0.6014  2.4394
  548MOL0     H72321   2.159  11.577   0.081 -1.0756 -1.0268 -2.9719
  548MOL0     H72322   4.015  11.195   0.499  0.0100 -0.8790 -2.0405
  548MOL0     H72323   4.255  11.113   0.603  2.0751 -3.7315  0.5066
  548MOL0     H72324   4.624  10.877   0.548  0.3291  1.6769  1.5353
  548MOL0     H72325   4.839  10.823   0.636 -1.5181 -0.8310 -1.4033
  548MOL0     H72326   4.852  10.775   1.070  0.3201  0.0731 -0.0123
  548MOL0     H72327   5.013  10.768   1.048 -1.7429  1.8274  2.0405
  548MOL0     H72328   4.871  10.561   1.147 -2.9434  1.8706 -1.6412
  548MOL0     H72329   4.862  10.519   0.977  0.9386  0.6471 -1.4828
  548MOL0     H72330   5.047  10.400   1.081 -0.4466 -0.7537 -0.5103
  548MOL0     H72331   5.115  10.546   1.123  0.3036  0.2362  0.6359
  548MOL0     H72332   5.043  10.492   0.832 -2.6238 -0.2198  2.2277
  548MOL0     H72333   5.173  10.598   0.885  0.9549 -0.4559  2.3036
  548MOL0     H72334   5.358  10.217   0.891 -1.8915 -1.6891  0.7873
  548MOL0     H72335   4.664  10.693   1.000  3.9260  1.7337  0.9853
  548MOL0     H72336   4.439  10.730   0.900 -0.6858 -0.9998 -0.9212
  549MOL0     O72337   8.233   6.734   6.946  0.2545 -0.6226 -0.4133
  549MOL0     C72338   8.325   6.799   6.989  1.0152 -0.3932  0.3097
  549MOL0     O72339   8.346   6.933   6.955  0.1043 -0.3631 -0.0779
  549MOL0     C72340   8.234   7.009   6.927 -0.6092 -0.9249 -1.2840
  549MOL0     C72341   8.258   7.123   6.844  0.1056  0.6011  0.0086
  549MOL0     C72342   8.154   7.207   6.807  0.3645 -0.3380  0.4168
  549MOL0     C72343   8.027   7.193   6.869 -0.2753 -0.0793 -0.1669
  549MOL0     O72344   7.940   7.293   6.820  0.4509 -0.9733 -0.1196
  549MOL0     C72345   7.806   7.293   6.866  0.0826 -0.5138  0.4964
  549MOL0     C72346   7.805   7.365   6.995  0.6835  0.5858 -0.0422
  549MOL0     C72347   7.670   7.419   7.045  0.2817 -0.0108  0.3821
  549MOL0     C72348   7.619   7.526   6.949 -0.3942 -0.1692 -0.5206
  549MOL0     C72349   7.471   7.575   6.987  0.0853  0.4185 -0.7285
  549MOL0     C72350   7.432   7.673   6.877  0.4244 -0.5415  0.1865
  549MOL0     C72351   7.277   7.714   6.904 -0.5287  0.3722 -0.1692
  549MOL0     C72352   7.273   7.813   7.020  0.0296  0.3595 -0.3804
  549MOL0     N72353   7.143   7.861   7.041  0.0197  0.2700 -0.5706
  549MOL0     C72354   7.056   7.916   6.953 -0.0004  0.8111  0.8147
  549MOL0     C72355   6.933   7.907   7.007  0.3290  0.0308  0.6689
  549MOL0     C72356   6.804   7.932   6.932  0.0019  0.9045  0.0387
  549MOL0     C72357   6.761   8.078   6.914  0.3218 -0.3204 -0.4783
  549MOL0     C72358   6.646   8.096   6.819  0.2326 -0.7388 -0.0978
  549MOL0     C72359   6.509   8.069   6.875  0.4281 -0.2304 -0.3290
  549MOL0     O72360   6.417   8.129   6.778 -0.2824 -0.0568 -0.3016
  549MOL0     C72361   6.287   8.137   6.811 -0.7968  1.0439  0.2608
  549MOL0     C72362   6.204   8.221   6.739  0.4585 -0.1050  0.4794
  549MOL0     C72363   6.064   8.229   6.770 -0.1157  0.0235 -1.3282
  549MOL0     C72364   6.011   8.159   6.885 -0.3061  0.5463  0.5928
  549MOL0     C72365   5.865   8.164   6.918 -0.3446 -0.4158  0.9662
  549MOL0     O72366   5.822   8.097   7.023  0.8855  0.1904 -0.6009
  549MOL0     C72367   5.693   8.111   7.077 -0.5775  0.2677  0.0201
  549MOL0     C72368   5.689   8.075   7.214 -0.6387  1.0028  0.2082
  549MOL0     C72369   5.559   8.087   7.267  0.2667 -0.7984 -0.0752
  549MOL0     C72370   5.448   8.107   7.191  0.1531  0.0427 -0.6643
  549MOL0     O72371   5.332   8.125   7.270 -0.0750 -0.0293 -0.1226
  549MOL0     C72372   5.207   8.150   7.198  0.2755  0.0679 -0.2576
  549MOL0     C72373   5.199   8.302   7.185  0.2644 -0.3255 -0.0258
  549MOL0     C72374   5.051   8.341   7.169  0.8958 -0.4486  0.9685
  549MOL0     C72375   5.026   8.494   7.178  0.3892 -0.0039 -0.8659
  549MOL0     C72376   4.880   8.537   7.154 -0.4833 -0.3229 -0.7556
  549MOL0     C72377   4.878   8.685   7.199  0.5939  0.6633 -0.7725
  549MOL0     C72378   4.729   8.738   7.196  0.4122 -1.0073 -0.0809
  549MOL0     C72379   4.706   8.853   7.295 -0.2438 -0.3522  0.7012
  549MOL0    Cl72380   4.762   8.805   7.463  0.7013  0.1687 -0.4896
  549MOL0     C72381   5.460   8.121   7.054 -0.1374  0.1243 -0.2437
  549MOL0     C72382   5.586   8.131   6.997 -0.6390  0.5739  0.3455
  549MOL0     O72383   5.804   8.245   6.839 -0.1264 -0.3742 -0.8982
  549MOL0     C72384   6.092   8.071   6.954 -0.1589  0.1400 -0.7481
  549MOL0     C72385   6.232   8.075   6.924  0.7621  0.0653  0.9895
  549MOL0     N72386   6.952   7.861   7.142 -0.1847 -0.4424 -0.3686
  549MOL0     N72387   7.074   7.846   7.157  0.4350  0.9288  0.2062
  549MOL0     C72388   8.005   7.089   6.958 -0.5202  0.0737  0.1474
  549MOL0     C72389   8.109   6.990   6.975  0.3159 -0.4977 -0.0069
  549MOL0     C72390   8.428   6.724   7.060 -0.5386 -0.6493  0.0301
  549MOL0     C72391   8.397   6.613   7.141 -0.0226  0.1453 -0.8012
  549MOL0     C72392   8.489   6.548   7.227 -1.0741 -0.1964  0.3148
  549MOL0     C72393   8.623   6.586   7.227  0.9426  0.7405 -1.8316
  549MOL0     O72394   8.725   6.532   7.294  0.0177 -0.2965  0.2170
  549MOL0     C72395   8.707   6.413   7.364  0.5689  0.4978  0.1522
  549MOL0     C72396   8.847   6.342   7.371  0.1270  0.0519  0.5019
  549MOL0     C72397   8.958   6.403   7.462  0.5070  0.7785 -0.7264
  549MOL0     C72398   9.030   6.514   7.382 -0.1517  0.4656 -0.2248
  549MOL0     C72399   9.141   6.578   7.456 -0.6158 -0.0743 -0.8166
  549MOL0     C72400   9.235   6.607   7.531  0.2020  0.7846 -0.0313
  549MOL0     C72401   8.653   6.692   7.144 -0.0622 -0.7722  1.5995
  549MOL0     C72402   8.561   6.769   7.065  0.4101 -0.4844 -0.0924
  549MOL0     H72403   8.355   7.120   6.796  0.4912  0.9957  0.7498
  549MOL0     H72404   8.178   7.289   6.740 -0.6148  0.0497  0.5279
  549MOL0     H72405   7.774   7.191   6.889 -1.6152 -0.9222 -2.9566
  549MOL0     H72406   7.743   7.325   6.782 -1.0705  0.5804  1.7148
  549MOL0     H72407   7.866   7.453   6.971  0.6712  0.5098 -0.3636
  549MOL0     H72408   7.852   7.307   7.074  2.7836  1.6990 -0.3973
  549MOL0     H72409   7.675   7.469   7.142 -2.3910 -0.6234  0.9233
  549MOL0     H72410   7.598   7.337   7.041  0.2214  0.0861 -1.2304
  549MOL0     H72411   7.692   7.608   6.952 -0.0966 -0.4521  1.1206
  549MOL0     H72412   7.611   7.500   6.843 -0.7555  3.5088 -1.5163
  549MOL0     H72413   7.475   7.615   7.089 -1.0164  0.7796 -0.8224
  549MOL0     H72414   7.402   7.492   6.970 -0.3055  0.3670  0.9007
  549MOL0     H72415   7.441   7.619   6.782  2.4820 -0.0475  0.0447
  549MOL0     H72416   7.501   7.758   6.872 -0.1484 -0.0973 -0.4651
  549MOL0     H72417   7.235   7.764   6.816 -0.4079  3.5103  1.4196
  549MOL0     H72418   7.215   7.627   6.927  0.4199 -0.2124  0.2757
  549MOL0     H72419   7.345   7.895   7.009 -0.5734  1.0063  0.3197
  549MOL0     H72420   7.299   7.762   7.114 -0.9517 -1.4736 -1.0500
  549MOL0     H72421   7.079   7.934   6.849 -0.3476  0.9505  0.7584
  549MOL0     H72422   6.735   7.872   6.991 -0.2478  0.3754 -0.7685
  549MOL0     H72423   6.806   7.892   6.830 -1.1850  2.1933 -0.5141
  549MOL0     H72424   6.842   8.137   6.869 -0.8399  1.1238 -0.7531
  549MOL0     H72425   6.753   8.122   7.014 -0.0421 -2.8620  0.6736
  549MOL0     H72426   6.652   8.195   6.774  2.4334 -0.0421  1.5310
  549MOL0     H72427   6.646   8.030   6.732 -4.1353 -0.5423 -0.4817
  549MOL0     H72428   6.489   8.121   6.970 -3.7129 -0.9420 -0.6372
  549MOL0     H72429   6.497   7.961   6.884 -2.7057 -0.3198 -3.6181
  549MOL0     H72430   6.235   8.301   6.673  2.8336 -1.7182 -0.5022
  549MOL0     H72431   6.004   8.302   6.716  1.4438  2.0068 -0.5259
  549MOL0     H72432   5.771   8.046   7.279 -1.8260 -1.3856  0.7482
  549MOL0     H72433   5.546   8.060   7.371  0.9393  1.7591  0.7500
  549MOL0     H72434   5.130   8.121   7.269  0.1884 -0.1481 -0.4385
  549MOL0     H72435   5.191   8.101   7.102 -1.8576 -0.0167  0.1109
  549MOL0     H72436   5.263   8.351   7.111  0.4013 -0.4411  0.0168
  549MOL0     H72437   5.241   8.349   7.274 -2.1589 -0.3330  1.2046
  549MOL0     H72438   4.982   8.292   7.239 -2.8941  0.7238 -1.6001
  549MOL0     H72439   5.029   8.316   7.064  2.0386 -1.0878  0.8724
  549MOL0     H72440   5.052   8.524   7.280  2.1327 -0.1854 -1.2214
  549MOL0     H72441   5.082   8.547   7.100  0.9194  2.5468  1.1361
  549MOL0     H72442   4.807   8.479   7.212 -0.0579 -0.2226 -0.1032
  549MOL0     H72443   4.839   8.537   7.052 -1.9370 -1.4920 -0.2184
  549MOL0     H72444   4.939   8.744   7.131  0.5467  3.5987  1.5332
  549MOL0     H72445   4.921   8.696   7.299  2.0109  2.1701 -1.5158
  549MOL0     H72446   4.726   8.774   7.093  3.1736  1.3451  0.5391
  549MOL0     H72447   4.655   8.658   7.207 -0.7296 -0.4711 -2.8824
  549MOL0     H72448   4.600   8.878   7.289 -0.1585  0.1930  1.3598
  549MOL0     H72449   4.769   8.935   7.260 -0.0239 -1.7314 -2.5270
  549MOL0     H72450   5.371   8.124   6.993  0.7212  1.2167 -1.4833
  549MOL0     H72451   5.607   8.149   6.892  2.1036 -1.8267  0.3783
  549MOL0     H72452   6.059   8.000   7.029  0.7736  3.6118  3.3156
  549MOL0     H72453   6.296   8.009   6.981  4.2532  1.0251 -1.4282
  549MOL0     H72454   7.905   7.082   7.000 -1.2242  1.2311 -1.2353
  549MOL0     H72455   8.077   6.905   7.034 -1.9232 -0.3420 -0.8931
  549MOL0     H72456   8.293   6.584   7.151  0.2142 -0.6106 -0.4566
  549MOL0     H72457   8.463   6.460   7.285  0.3727 -0.7378  0.1866
  549MOL0     H72458   8.643   6.345   7.307 -2.3124  0.3990  3.1889
  549MOL0     H72459   8.659   6.430   7.461 -0.1788 -0.8187  0.0381
  549MOL0     H72460   8.831   6.242   7.411 -1.6166  0.0184 -0.1909
  549MOL0     H72461   8.891   6.328   7.272 -0.5698  0.3077  0.1513
  549MOL0     H72462   9.027   6.325   7.496  1.2750  2.5375  2.0739
  549MOL0     H72463   8.911   6.458   7.544 -0.9961 -1.5304  0.0477
  549MOL0     H72464   9.071   6.464   7.294 -1.8608 -1.0680 -0.2114
  549MOL0     H72465   8.957   6.590   7.353  0.4607  1.5703  1.0082
  549MOL0     H72466   9.325   6.645   7.576  2.1490 -3.5837  0.3121
  549MOL0     H72467   8.752   6.737   7.151  0.5440 -1.2125 -2.0755
  549MOL0     H72468   8.583   6.866   7.021 -2.0075 -0.3339 -1.1066
  550MOL0     O72469   4.969   3.440  11.085 -0.0572  0.0499 -0.1459
  550MOL0     C72470   5.033   3.400  10.985  0.1724  0.4780 -0.3789
  550MOL0     O72471   4.980   3.361  10.873  0.4384  0.1156  0.7252
  550MOL0     C72472   4.842   3.368  10.858  0.6185  0.2438  0.6395
  550MOL0     C72473   4.811   3.420  10.729 -1.0129  1.0048  0.1392
  550MOL0     C72474   4.687   3.424  10.681 -1.0088  0.3835 -0.4320
  550MOL0     C72475   4.585   3.380  10.766  0.9451  0.1675 -0.0561
  550MOL0     O72476   4.453   3.380  10.713  0.2634 -0.1626  0.4718
  550MOL0     C72477   4.407   3.455  10.596  0.5355  0.5824  0.2488
  550MOL0     C72478   4.285   3.393  10.538 -0.2826 -0.7450  0.6239
  550MOL0     C72479   4.150   3.422  10.593  0.1164  0.5461 -0.5396
  550MOL0     C72480   4.040   3.398  10.481 -0.4887 -0.0803  0.8641
  550MOL0     C72481   3.900   3.446  10.516  0.4889  0.6225 -1.1529
  550MOL0     C72482   3.839   3.392  10.641 -0.8311 -0.3058  0.3557
  550MOL0     C72483   3.821   3.241  10.634 -0.0252  0.0100  0.1556
  550MOL0     C72484   3.787   3.190  10.775  0.1413  0.6472  0.2015
  550MOL0     N72485   3.677   3.265  10.841  0.7227 -0.1979 -0.0844
  550MOL0     C72486   3.688   3.358  10.942  0.6918  0.4056 -0.5508
  550MOL0     C72487   3.569   3.426  10.941  0.1961 -0.2281  0.4399
  550MOL0     C72488   3.545   3.555  11.024  1.2477  0.2477  0.2706
  550MOL0     C72489   3.509   3.514  11.160 -0.0653  0.1750  0.0923
  550MOL0     C72490   3.385   3.419  11.187 -0.2044 -0.0837  0.0589
  550MOL0     C72491   3.263   3.447  11.103  0.2311  0.4778 -0.3611
  550MOL0     O72492   3.215   3.567  11.155  0.1885 -0.0798 -0.0365
  550MOL0     C72493   3.121   3.634  11.077  0.0844  0.7367 -0.1550
  550MOL0     C72494   3.086   3.756  11.127 -1.5275 -0.1284 -0.3129
  550MOL0     C72495   2.992   3.838  11.067  0.7172  1.5896 -0.3622
  550MOL0     C72496   2.924   3.792  10.949 -0.7636  0.1553 -1.2436
  550MOL0     C72497   2.802   3.864  10.892  0.0170 -0.2620 -0.5582
  550MOL0     O72498   2.779   3.987  10.935  0.6087  0.5207 -0.1068
  550MOL0     C72499   2.680   4.068  10.886 -0.0304  0.4895 -0.1188
  550MOL0     C72500   2.551   4.058  10.937  0.9439  0.0844 -0.0950
  550MOL0     C72501   2.444   4.137  10.886  0.6870  0.1203 -0.1691
  550MOL0     C72502   2.466   4.233  10.796 -0.8069  0.2155 -0.1808
  550MOL0     O72503   2.356   4.290  10.737 -0.7302 -0.5786 -0.6505
  550MOL0     C72504   2.328   4.430  10.750 -0.1118  0.4348  0.1084
  550MOL0     C72505   2.261   4.469  10.619  0.0193  0.1421  0.2072
  550MOL0     C72506   2.165   4.591  10.648  0.2397  0.6294 -0.1230
  550MOL0     C72507   2.090   4.611  10.512  0.6818  0.2457  0.3109
  550MOL0     C72508   2.058   4.759  10.504 -1.3065  0.0420 -0.1159
  550MOL0     C72509   1.927   4.791  10.434 -0.3250 -0.6220 -0.4824
  550MOL0     C72510   1.893   4.946  10.422  0.5386 -0.6522  1.5595
  550MOL0     C72511   1.794   4.992  10.535  0.3384  0.0294  0.5791
  550MOL0    Cl72512   1.641   4.899  10.540 -0.2887  0.3219  0.3995
  550MOL0     C72513   2.595   4.250  10.740 -0.5788  0.7339  0.3167
  550MOL0     C72514   2.705   4.162  10.784  0.3375  0.2650 -0.3640
  550MOL0     O72515   2.741   3.803  10.800 -0.4536 -0.3681  0.0167
  550MOL0     C72516   2.976   3.679  10.886 -0.5312  0.1503  0.7302
  550MOL0     C72517   3.059   3.595  10.959 -0.2509 -0.2325 -0.3119
  550MOL0     N72518   3.487   3.367  10.846 -0.0519 -0.0269  0.1349
  550MOL0     N72519   3.545   3.258  10.803 -0.0711  0.1853  0.3761
  550MOL0     C72520   4.615   3.316  10.886  0.5807  1.3218  0.7638
  550MOL0     C72521   4.741   3.316  10.938  0.3369  0.2252 -0.7913
  550MOL0     C72522   5.177   3.394  11.011  0.6592 -0.4815 -0.7498
  550MOL0     C72523   5.264   3.375  10.899  0.4208  0.2554 -0.1374
  550MOL0     C72524   5.405   3.369  10.928  0.2033 -0.8976 -0.1934
  550MOL0     C72525   5.462   3.403  11.060 -0.2631  0.6738 -0.0207
  550MOL0     O72526   5.595   3.396  11.066 -0.7850 -0.7887 -0.2673
  550MOL0     C72527   5.658   3.294  11.132 -0.3199 -0.2183  0.3691
  550MOL0     C72528   5.812   3.302  11.134 -0.1178 -0.0159 -0.8925
  550MOL0     C72529   5.879   3.268  11.262  0.3121  0.6761 -0.1158
  550MOL0     C72530   5.854   3.124  11.314 -0.6163 -0.8389  0.5710
  550MOL0     C72531   5.724   3.110  11.383 -0.7169  0.3997 -0.0939
  550MOL0     C72532   5.622   3.096  11.451  0.8364  0.4933 -0.1948
  550MOL0     C72533   5.367   3.431  11.159  0.5108  0.8449  0.8740
  550MOL0     C72534   5.231   3.432  11.141  0.5338 -0.6427  0.9768
  550MOL0     H72535   4.899   3.443  10.670  0.9719 -0.4933  2.3058
  550MOL0     H72536   4.671   3.469  10.583  1.1052 -3.1700 -2.6237
  550MOL0     H72537   4.484   3.458  10.519  1.5763  0.4436  1.2633
  550MOL0     H72538   4.396   3.559  10.628  2.8101  1.0531 -0.3576
  550MOL0     H72539   4.293   3.284  10.542 -3.2287 -1.0260  0.9598
  550MOL0     H72540   4.283   3.428  10.434 -2.4834  1.0541  1.1967
  550MOL0     H72541   4.155   3.526  10.624 -3.8545  0.4131  1.0666
  550MOL0     H72542   4.128   3.355  10.676  1.1440 -2.9346 -2.8246
  550MOL0     H72543   4.067   3.450  10.389 -2.7023  0.7918  0.6589
  550MOL0     H72544   4.047   3.292  10.456  1.2113 -0.4765  2.7763
  550MOL0     H72545   3.829   3.414  10.439 -1.9691 -0.6470  1.4331
  550MOL0     H72546   3.899   3.556  10.512  1.2213  0.6299 -1.2582
  550MOL0     H72547   3.743   3.441  10.661  1.8567  5.7410  0.5820
  550MOL0     H72548   3.897   3.429  10.726 -1.4330  0.8531  0.2829
  550MOL0     H72549   3.743   3.216  10.561 -1.5152  2.9508  0.5755
  550MOL0     H72550   3.912   3.196  10.593  2.3572  2.8655  1.8753
  550MOL0     H72551   3.878   3.203  10.835  4.2020 -1.5454 -4.7740
  550MOL0     H72552   3.767   3.083  10.765  0.7432  0.7288 -2.3313
  550MOL0     H72553   3.773   3.391  11.000  0.0202  2.3281 -0.5687
  550MOL0     H72554   3.465   3.611  10.973  0.7872 -1.9863 -1.6137
  550MOL0     H72555   3.637   3.614  11.021  1.0675  0.5051 -0.7387
  550MOL0     H72556   3.497   3.605  11.218 -0.3386  1.4609 -1.8780
  550MOL0     H72557   3.597   3.471  11.209  0.8817  1.1383 -0.7022
  550MOL0     H72558   3.397   3.312  11.172 -0.8168  0.0672 -1.6800
  550MOL0     H72559   3.349   3.426  11.290  0.4297  2.2168  0.2007
  550MOL0     H72560   3.181   3.376  11.110 -0.6235  1.4180 -0.6247
  550MOL0     H72561   3.291   3.448  10.997 -1.8812  0.1515 -0.9593
  550MOL0     H72562   3.143   3.797  11.210 -1.0830 -4.4315  1.8101
  550MOL0     H72563   2.972   3.933  11.115 -1.4066  1.2307 -0.4336
  550MOL0     H72564   2.518   3.993  11.018  0.5903  0.5346  0.1327
  550MOL0     H72565   2.343   4.118  10.921  1.3026  0.8252  2.1842
  550MOL0     H72566   2.419   4.487  10.772  1.6737 -0.9223 -2.9831
  550MOL0     H72567   2.261   4.443  10.835 -2.2710 -4.9443 -0.3615
  550MOL0     H72568   2.213   4.374  10.594  2.5055 -1.8330  2.2969
  550MOL0     H72569   2.333   4.491  10.539 -0.5430  1.0563 -0.0571
  550MOL0     H72570   2.218   4.682  10.677 -1.2950  2.4620 -2.7221
  550MOL0     H72571   2.092   4.560  10.724 -1.9074 -0.3693 -2.4555
  550MOL0     H72572   2.145   4.585  10.422  0.9237 -1.1612  0.8381
  550MOL0     H72573   1.991   4.564  10.508  0.5225  0.6670 -2.4264
  550MOL0     H72574   2.144   4.816  10.468 -1.1318  0.3635  0.7669
  550MOL0     H72575   2.046   4.788  10.609  0.5338  0.3866  0.0361
  550MOL0     H72576   1.848   4.730  10.480  0.6793  0.7059  3.4023
  550MOL0     H72577   1.945   4.762  10.330  1.0141  0.8802 -0.7072
  550MOL0     H72578   1.987   5.002  10.421 -0.6419  1.5073  3.1770
  550MOL0     H72579   1.842   4.954  10.326 -0.9729 -0.9926  2.3186
  550MOL0     H72580   1.775   5.099  10.523  1.2167  0.8541  4.8559
  550MOL0     H72581   1.856   4.974  10.623  2.4966 -5.0035 -1.5223
  550MOL0     H72582   2.602   4.319  10.657  0.6983  1.3621  0.9120
  550MOL0     H72583   2.805   4.174  10.743  0.5664  1.6364  0.5285
  550MOL0     H72584   2.933   3.652  10.790 -2.0729 -0.3836  1.5233
  550MOL0     H72585   3.085   3.503  10.907 -0.5843 -0.2545 -0.4388
  550MOL0     H72586   4.535   3.279  10.950  0.9491  1.6712  1.4357
  550MOL0     H72587   4.742   3.281  11.040 -0.8896 -1.1213 -1.2103
  550MOL0     H72588   5.227   3.361  10.798  1.6250 -0.9194 -0.4439
  550MOL0     H72589   5.475   3.356  10.846  0.9815  1.6050  0.0022
  550MOL0     H72590   5.627   3.198  11.090  1.6395 -1.3221  1.3115
  550MOL0     H72591   5.625   3.308  11.236  1.4019 -1.3279  1.1023
  550MOL0     H72592   5.844   3.243  11.048 -1.6059 -4.4888  1.3425
  550MOL0     H72593   5.840   3.405  11.108  1.0743 -0.2770 -0.7397
  550MOL0     H72594   5.876   3.331  11.351  3.1119  0.7007  0.0386
  550MOL0     H72595   5.985   3.280  11.241  0.2537  0.3158 -0.6369
  550MOL0     H72596   5.853   3.058  11.226 -3.0640  0.0054 -0.1291
  550MOL0     H72597   5.933   3.090  11.381 -0.1426 -0.5383  0.1745
  550MOL0     H72598   5.547   3.083  11.526  1.2639  1.0603  0.3435
  550MOL0     H72599   5.415   3.462  11.251  1.7187  0.1384  0.5042
  550MOL0     H72600   5.159   3.470  11.212  0.6310  2.7196 -0.5591
  551MOL0     O72601   7.256   0.535   9.299  0.1884 -0.6678 -0.4851
  551MOL0     C72602   7.243   0.469   9.399 -1.1517 -0.1282 -0.6292
  551MOL0     O72603   7.329   0.376   9.442 -0.0685  0.1689  0.7118
  551MOL0     C72604   7.438   0.342   9.372 -0.1620 -0.1489 -0.4810
  551MOL0     C72605   7.527   0.430   9.308  0.0563 -0.3915 -0.0653
  551MOL0     C72606   7.630   0.380   9.234 -0.7842  0.1085 -0.3287
  551MOL0     C72607   7.659   0.236   9.227 -0.2790  0.5099 -0.0443
  551MOL0     O72608   7.766   0.189   9.155  0.2771 -0.0914 -0.2939
  551MOL0     C72609   7.830   0.273   9.056 -0.1633 -0.2502 -0.1032
  551MOL0     C72610   7.891   0.182   8.952 -0.6293  0.1394 -0.6583
  551MOL0     C72611   7.947   0.275   8.842  0.3806 -0.6040 -0.3088
  551MOL0     C72612   8.070   0.202   8.775 -0.0162  0.0882  0.6445
  551MOL0     C72613   8.125   0.281   8.657 -0.1200  0.5215  0.4373
  551MOL0     C72614   8.083   0.249   8.509  0.5132 -0.2589 -0.0016
  551MOL0     C72615   7.939   0.299   8.482  0.1025 -0.7728 -0.0040
  551MOL0     C72616   7.912   0.309   8.333  0.3296  0.1531  0.1174
  551MOL0     N72617   7.773   0.361   8.318  0.0430  0.1159 -0.3136
  551MOL0     C72618   7.662   0.283   8.348 -0.2692 -0.3319  0.2021
  551MOL0     C72619   7.551   0.359   8.338 -1.7249  0.0058  0.5513
  551MOL0     C72620   7.407   0.314   8.371  0.5928  1.3997 -0.6137
  551MOL0     C72621   7.302   0.413   8.332 -0.0720 -0.4913  0.9398
  551MOL0     C72622   7.310   0.524   8.436  0.1129 -0.0678 -0.0864
  551MOL0     C72623   7.207   0.631   8.391  0.1624 -0.1258 -0.7914
  551MOL0     O72624   7.073   0.578   8.415  0.5741 -0.4384 -0.2852
  551MOL0     C72625   6.963   0.654   8.411  0.3184 -1.2218 -0.6406
  551MOL0     C72626   6.955   0.799   8.419 -0.6871 -1.0077 -0.3333
  551MOL0     C72627   6.834   0.863   8.413  0.6321 -1.3139  0.6725
  551MOL0     C72628   6.704   0.800   8.413  0.7999  0.8477 -0.1396
  551MOL0     C72629   6.581   0.882   8.419 -0.2450 -0.5126  0.2127
  551MOL0     O72630   6.587   1.016   8.399  0.5069 -0.2172 -0.0128
  551MOL0     C72631   6.474   1.094   8.416  0.0902 -0.1290  1.2104
  551MOL0     C72632   6.458   1.197   8.325  0.2520 -0.0010  0.6841
  551MOL0     C72633   6.349   1.288   8.335 -0.4926  0.3837 -0.7284
  551MOL0     C72634   6.252   1.268   8.437 -0.0915  0.7531  0.1048
  551MOL0     O72635   6.154   1.345   8.462 -0.1780 -0.0012  0.1800
  551MOL0     C72636   6.148   1.477   8.411  0.2966  0.6056 -0.4472
  551MOL0     C72637   6.045   1.564   8.487 -0.4489  1.2507 -0.4330
  551MOL0     C72638   5.908   1.597   8.418  0.5979  0.1092  0.9157
  551MOL0     C72639   5.803   1.656   8.522  0.6186 -0.1698 -0.1544
  551MOL0     C72640   5.675   1.662   8.440 -0.5612 -0.0459  0.3367
  551MOL0     C72641   5.558   1.659   8.534 -0.2387  0.4901 -0.5831
  551MOL0     C72642   5.434   1.639   8.454  0.0972 -0.1237  1.1012
  551MOL0     C72643   5.318   1.713   8.504  0.7189  0.1624 -0.3329
  551MOL0    Cl72644   5.277   1.663   8.670  0.7333 -0.5525  0.0692
  551MOL0     C72645   6.265   1.159   8.523 -1.0606  0.8213  0.3155
  551MOL0     C72646   6.380   1.068   8.512  0.4600  0.1942  0.6166
  551MOL0     O72647   6.483   0.817   8.447  1.1135  0.2740 -0.6327
  551MOL0     C72648   6.712   0.656   8.411  0.1778 -0.3971  0.9843
  551MOL0     C72649   6.837   0.590   8.414  0.6862 -0.6328  1.1821
  551MOL0     N72650   7.596   0.484   8.307  0.3191 -0.2529 -0.5644
  551MOL0     N72651   7.730   0.487   8.295  0.8185 -0.4824  0.0669
  551MOL0     C72652   7.577   0.151   9.295  0.3072  0.3079 -0.2401
  551MOL0     C72653   7.472   0.206   9.374 -0.1811  0.2012 -0.2419
  551MOL0     C72654   7.126   0.478   9.492  0.0881  0.4099 -0.2494
  551MOL0     C72655   7.139   0.433   9.625 -0.6816 -0.4299 -0.8669
  551MOL0     C72656   7.039   0.473   9.715 -0.2266 -0.3399 -0.2714
  551MOL0     C72657   6.919   0.536   9.683  0.6457  0.0781  0.0546
  551MOL0     O72658   6.821   0.559   9.781  0.6855  0.2733 -0.4213
  551MOL0     C72659   6.823   0.505   9.916  0.0477 -0.5487  0.3650
  551MOL0     C72660   6.828   0.609  10.032 -0.1640 -0.0655 -0.0677
  551MOL0     C72661   6.923   0.719   9.992  0.9296 -0.5334  0.1442
  551MOL0     C72662   6.965   0.820  10.102  0.1196 -0.1119 -0.2821
  551MOL0     C72663   6.853   0.887  10.157  0.9474 -1.0518  0.4232
  551MOL0     C72664   6.780   0.973  10.214 -0.3828  0.6369 -0.8711
  551MOL0     C72665   6.899   0.569   9.550  0.4880  0.1615  0.2635
  551MOL0     C72666   7.003   0.543   9.456  0.6262 -0.6750 -0.4526
  551MOL0     H72667   7.520   0.535   9.332  1.0537 -0.4186  0.4036
  551MOL0     H72668   7.690   0.449   9.175 -2.8495 -0.4852 -3.3548
  551MOL0     H72669   7.905   0.335   9.106  3.2888 -3.1743 -1.2389
  551MOL0     H72670   7.759   0.342   9.008  1.0063 -0.5537 -2.4559
  551MOL0     H72671   7.813   0.120   8.905 -0.6197  1.0850 -1.9819
  551MOL0     H72672   7.972   0.135   9.008 -0.6022  0.2861 -0.5751
  551MOL0     H72673   7.973   0.374   8.881 -2.0707 -0.2639  0.5718
  551MOL0     H72674   7.873   0.287   8.763  3.9951  2.4313 -3.7007
  551MOL0     H72675   8.148   0.199   8.851  1.6855 -3.0007 -1.0374
  551MOL0     H72676   8.067   0.094   8.758  0.2997  0.2140 -0.2801
  551MOL0     H72677   8.234   0.273   8.659  0.2060  3.2684 -1.1589
  551MOL0     H72678   8.095   0.384   8.679  1.2030  0.9148  0.4629
  551MOL0     H72679   8.092   0.143   8.485 -1.7034 -0.2903 -0.8464
  551MOL0     H72680   8.151   0.309   8.448  0.6989 -1.5667 -1.1141
  551MOL0     H72681   7.867   0.234   8.533  0.4243 -0.2247  1.1960
  551MOL0     H72682   7.938   0.397   8.531  0.5697 -1.6879  1.9649
  551MOL0     H72683   7.920   0.211   8.287 -0.8128  1.0761 -2.2299
  551MOL0     H72684   7.985   0.379   8.293 -0.0506  1.0090  0.8633
  551MOL0     H72685   7.668   0.179   8.378  0.0751 -0.1326  0.8409
  551MOL0     H72686   7.390   0.284   8.474  0.9474  0.1079 -0.9123
  551MOL0     H72687   7.395   0.223   8.310  1.3028  0.4172  0.6683
  551MOL0     H72688   7.207   0.360   8.340 -0.7470 -0.0266 -2.5104
  551MOL0     H72689   7.321   0.446   8.230 -2.9153 -0.5154  0.3296
  551MOL0     H72690   7.282   0.493   8.537  0.3233  0.7000  0.2179
  551MOL0     H72691   7.408   0.573   8.444  1.2924 -2.5601  3.1373
  551MOL0     H72692   7.224   0.662   8.287  0.7461 -2.2181 -1.3724
  551MOL0     H72693   7.225   0.716   8.457  3.2018 -1.3380  0.1159
  551MOL0     H72694   7.045   0.853   8.446 -0.9968 -1.4191  1.7157
  551MOL0     H72695   6.825   0.971   8.411 -2.5455 -1.4946 -0.0675
  551MOL0     H72696   6.538   1.202   8.252  1.0140  2.5163  1.5881
  551MOL0     H72697   6.327   1.356   8.253 -1.0119 -0.0043 -0.9222
  551MOL0     H72698   6.125   1.470   8.304 -2.4200 -3.4169  0.1820
  551MOL0     H72699   6.249   1.518   8.420  0.0376  1.2379 -0.3030
  551MOL0     H72700   6.093   1.655   8.526  0.2860 -0.3331  2.6507
  551MOL0     H72701   6.015   1.515   8.580  2.3241 -1.2996 -0.7499
  551MOL0     H72702   5.874   1.500   8.381  3.5540 -0.4927 -0.5368
  551MOL0     H72703   5.913   1.663   8.330 -1.0242  2.0322  2.1795
  551MOL0     H72704   5.784   1.582   8.601  1.0159  0.1587  0.2485
  551MOL0     H72705   5.820   1.758   8.556 -0.7984  0.4681 -1.2592
  551MOL0     H72706   5.669   1.573   8.375 -1.2951 -2.3626  3.3460
  551MOL0     H72707   5.666   1.749   8.374  0.3585 -2.4794 -3.3154
  551MOL0     H72708   5.563   1.759   8.577 -2.8415  0.5313 -0.1723
  551MOL0     H72709   5.566   1.574   8.602 -0.1844  0.7302 -0.2876
  551MOL0     H72710   5.447   1.685   8.356 -3.4515 -2.5549 -0.7207
  551MOL0     H72711   5.421   1.532   8.440  1.5205  0.1176 -3.6874
  551MOL0     H72712   5.236   1.671   8.445  1.8342 -0.9354 -1.1448
  551MOL0     H72713   5.314   1.822   8.507 -2.2770  0.1222  1.6369
  551MOL0     H72714   6.180   1.164   8.589 -1.4057  2.8032 -0.2318
  551MOL0     H72715   6.386   0.989   8.586 -1.2676  1.0345  1.7085
  551MOL0     H72716   6.630   0.586   8.405  1.4091 -1.7498 -2.9029
  551MOL0     H72717   6.853   0.483   8.412 -0.3247 -0.8027  1.5474
  551MOL0     H72718   7.593   0.044   9.310  0.0794  0.0498 -1.7201
  551MOL0     H72719   7.414   0.133   9.430  0.9294  0.0909  0.7856
  551MOL0     H72720   7.229   0.396   9.672 -1.3588  3.7769  4.7624
  551MOL0     H72721   7.069   0.438   9.813  0.6765 -2.3577 -1.2155
  551MOL0     H72722   6.913   0.445   9.932 -0.5303 -1.0037  2.1989
  551MOL0     H72723   6.736   0.438   9.920 -0.1389 -0.4078 -0.9285
  551MOL0     H72724   6.732   0.655  10.058  1.2167  1.7691  2.1360
  551MOL0     H72725   6.866   0.559  10.122 -0.9781  1.5971  1.2445
  551MOL0     H72726   6.859   0.771   9.921 -1.0641 -0.4938  1.8609
  551MOL0     H72727   7.016   0.684   9.948  0.3096  0.3961 -2.0054
  551MOL0     H72728   7.006   0.763  10.186 -0.5371 -0.4330 -0.1791
  551MOL0     H72729   7.044   0.889  10.069  2.5170 -1.8095  1.4830
  551MOL0     H72730   6.713   1.040  10.266  0.4937 -0.5692  2.0154
  551MOL0     H72731   6.805   0.614   9.519  0.7852  0.9452  0.4694
  551MOL0     H72732   6.996   0.579   9.354  0.2485 -3.4399 -1.4806
  552MOL0     O72733   8.649   4.207   5.606 -0.6714  0.5023 -0.0163
  552MOL0     C72734   8.625   4.274   5.708  0.2164  0.3145  0.8981
  552MOL0     O72735   8.512   4.349   5.730 -0.0713 -0.7927  0.5555
  552MOL0     C72736   8.410   4.337   5.634  0.4152 -0.1725  0.7709
  552MOL0     C72737   8.354   4.211   5.598  1.0235  0.1074  0.8452
  552MOL0     C72738   8.255   4.205   5.494  0.0727  0.4832 -0.2347
  552MOL0     C72739   8.219   4.328   5.436 -0.1306 -0.7902 -0.0708
  552MOL0     O72740   8.126   4.330   5.334  0.0068 -0.2870  0.0877
  552MOL0     C72741   8.000   4.275   5.366  0.1043  0.4797  0.3268
  552MOL0     C72742   7.885   4.278   5.255  0.4815 -0.3275 -0.3135
  552MOL0     C72743   7.748   4.226   5.309  0.0339 -0.4849 -0.0703
  552MOL0     C72744   7.638   4.234   5.203 -0.3734 -0.7759  0.9096
  552MOL0     C72745   7.516   4.152   5.238  0.2639  0.7515 -0.2124
  552MOL0     C72746   7.407   4.173   5.132 -0.1481 -0.0233  0.8294
  552MOL0     C72747   7.288   4.078   5.161  0.1353 -0.7749  0.0603
  552MOL0     C72748   7.337   3.933   5.148 -0.2279 -0.6954  0.4884
  552MOL0     N72749   7.216   3.848   5.141  0.4402  0.0502  0.1692
  552MOL0     C72750   7.121   3.819   5.237  0.7221 -0.0156  0.6812
  552MOL0     C72751   7.042   3.732   5.172  0.2391 -0.0436 -0.1156
  552MOL0     C72752   6.909   3.696   5.235 -0.3988 -1.0744  0.2313
  552MOL0     C72753   6.852   3.569   5.176 -0.6205 -0.6347 -0.6133
  552MOL0     C72754   6.714   3.542   5.233 -0.2234  0.1787  0.4217
  552MOL0     C72755   6.684   3.391   5.225 -0.1214  0.6945  0.8241
  552MOL0     O72756   6.555   3.369   5.277  0.1374  0.2497  1.0033
  552MOL0     C72757   6.494   3.247   5.248 -0.1749  0.1234  0.4566
  552MOL0     C72758   6.548   3.135   5.175 -0.1456 -0.1176 -0.7236
  552MOL0     C72759   6.463   3.028   5.152 -1.4511  0.4412 -0.1658
  552MOL0     C72760   6.325   3.032   5.181  0.2955 -0.0573 -0.2061
  552MOL0     C72761   6.230   2.918   5.163 -0.6231  0.1898 -0.3906
  552MOL0     O72762   6.110   2.921   5.214 -0.6466 -0.8297 -0.4336
  552MOL0     C72763   6.025   2.825   5.194  0.0824 -1.0428 -0.6072
  552MOL0     C72764   5.921   2.866   5.110  0.3931  0.4274 -0.2497
  552MOL0     C72765   5.806   2.794   5.085  0.1038  0.1834  0.6065
  552MOL0     C72766   5.800   2.669   5.148 -0.1934  0.2433 -0.5143
  552MOL0     O72767   5.697   2.577   5.134  0.2234 -0.0531 -0.2235
  552MOL0     C72768   5.573   2.603   5.076 -0.6647  0.7862  1.1643
  552MOL0     C72769   5.473   2.488   5.101 -0.3980 -0.0507  0.4912
  552MOL0     C72770   5.361   2.493   4.999 -0.2299  0.0715  1.2074
  552MOL0     C72771   5.395   2.442   4.855 -0.4108  0.2894  0.6561
  552MOL0     C72772   5.267   2.437   4.775 -0.2548  0.0940 -0.8935
  552MOL0     C72773   5.280   2.358   4.652  0.0803 -0.1302 -0.5218
  552MOL0     C72774   5.301   2.207   4.690 -0.5180  0.2410 -0.2923
  552MOL0     C72775   5.357   2.122   4.574 -1.4879  0.5914  0.2748
  552MOL0    Cl72776   5.259   2.156   4.429  0.4634 -0.0038 -0.3320
  552MOL0     C72777   5.908   2.616   5.219  0.1813 -0.9723  0.1154
  552MOL0     C72778   6.012   2.700   5.254 -0.0159  0.1452 -0.1193
  552MOL0     O72779   6.281   2.813   5.109 -0.5052  1.5610 -0.6568
  552MOL0     C72780   6.272   3.147   5.236 -0.4022 -0.8207  0.1588
  552MOL0     C72781   6.355   3.252   5.264 -0.6713 -0.2392  1.2339
  552MOL0     N72782   7.090   3.699   5.049  0.3452  0.7468  0.3451
  552MOL0     N72783   7.193   3.776   5.027 -0.4318 -0.5357  0.0091
  552MOL0     C72784   8.267   4.448   5.478  0.2765 -0.8910 -0.2486
  552MOL0     C72785   8.371   4.456   5.569 -0.1547  0.6223  0.1465
  552MOL0     C72786   8.737   4.275   5.806 -0.2619  0.0977  0.4558
  552MOL0     C72787   8.870   4.220   5.785  0.1907  0.1886 -1.2095
  552MOL0     C72788   8.967   4.229   5.891  0.3099 -0.0808  0.9173
  552MOL0     C72789   8.925   4.305   6.011  0.8991  1.1810  0.1160
  552MOL0     O72790   9.018   4.300   6.109  0.4481 -0.5409  0.6593
  552MOL0     C72791   9.047   4.432   6.169  0.2487 -0.7359 -0.3923
  552MOL0     C72792   9.175   4.418   6.256 -0.6371  0.0126 -0.2690
  552MOL0     C72793   9.287   4.346   6.187  0.2485  0.5279 -1.1815
  552MOL0     C72794   9.410   4.321   6.287  0.7869 -0.2601 -0.3953
  552MOL0     C72795   9.530   4.299   6.212  0.2137 -1.1194 -0.6075
  552MOL0     C72796   9.620   4.293   6.131 -0.8937 -1.0267 -0.6033
  552MOL0     C72797   8.798   4.360   6.022 -0.0916 -0.2118 -0.7779
  552MOL0     C72798   8.702   4.343   5.923 -0.3399 -0.4630  0.2122
  552MOL0     H72799   8.384   4.117   5.641 -1.1416 -0.7607  0.6135
  552MOL0     H72800   8.202   4.118   5.455 -1.0388  1.3619 -0.7345
  552MOL0     H72801   7.971   4.321   5.460  2.2736 -0.3009  1.4351
  552MOL0     H72802   8.002   4.169   5.392  0.1056  0.5137  0.4650
  552MOL0     H72803   7.911   4.215   5.170  2.9896  0.2571 -0.0461
  552MOL0     H72804   7.873   4.382   5.224  0.5737 -1.1108 -3.2638
  552MOL0     H72805   7.717   4.284   5.397 -0.1786 -0.9965  0.1948
  552MOL0     H72806   7.760   4.120   5.334  2.4694 -0.1293  0.5744
  552MOL0     H72807   7.613   4.341   5.195 -2.5608 -1.2297  1.0191
  552MOL0     H72808   7.679   4.206   5.106  1.1691 -1.1375  1.6422
  552MOL0     H72809   7.481   4.160   5.342  0.6150  0.1620 -0.0429
  552MOL0     H72810   7.548   4.048   5.229  2.1372  1.2154  0.6240
  552MOL0     H72811   7.433   4.152   5.028 -1.1854 -0.0268  0.5512
  552MOL0     H72812   7.374   4.276   5.144  0.6448  0.5332 -1.2830
  552MOL0     H72813   7.245   4.102   5.259  2.1708  0.5936  0.6828
  552MOL0     H72814   7.211   4.098   5.085 -0.7697  1.2966  1.4116
  552MOL0     H72815   7.406   3.897   5.225 -0.0338 -0.8655  0.2400
  552MOL0     H72816   7.402   3.936   5.060 -1.4802  0.9988 -0.4343
  552MOL0     H72817   7.105   3.881   5.324  0.1530  0.4315  0.2626
  552MOL0     H72818   6.841   3.782   5.231 -1.4367 -1.7638  1.9260
  552MOL0     H72819   6.923   3.668   5.340  1.5575  0.5545  0.4748
  552MOL0     H72820   6.914   3.484   5.204 -1.0596 -0.8185 -0.1899
  552MOL0     H72821   6.835   3.575   5.068 -2.3209 -0.9540 -0.4007
  552MOL0     H72822   6.720   3.568   5.339 -0.6390  0.9240  0.2740
  552MOL0     H72823   6.637   3.603   5.185 -1.6166 -0.8492  1.2901
  552MOL0     H72824   6.755   3.334   5.285 -0.6057 -2.7202 -1.5463
  552MOL0     H72825   6.683   3.353   5.122  4.2428  1.9360  0.1119
  552MOL0     H72826   6.656   3.124   5.167 -0.1095  0.6151 -1.3598
  552MOL0     H72827   6.511   2.936   5.122  2.6622  1.5522  2.1038
  552MOL0     H72828   5.932   2.965   5.066  0.8874  1.6859  2.4645
  552MOL0     H72829   5.741   2.829   5.005  0.4351 -0.9020 -0.1699
  552MOL0     H72830   5.595   2.614   4.969 -1.8220 -0.6766  0.7385
  552MOL0     H72831   5.529   2.699   5.106 -1.3878  1.0408 -0.5819
  552MOL0     H72832   5.444   2.510   5.204  2.2457  1.5708  1.0006
  552MOL0     H72833   5.528   2.394   5.096  0.2932  0.1999  2.4563
  552MOL0     H72834   5.317   2.593   4.987  0.9986  0.2929 -5.7847
  552MOL0     H72835   5.281   2.432   5.041 -2.2647  1.6929 -0.0953
  552MOL0     H72836   5.466   2.509   4.805 -0.5349  0.0210  0.1164
  552MOL0     H72837   5.439   2.342   4.861 -1.0164  0.0725  1.6958
  552MOL0     H72838   5.240   2.541   4.757 -2.8414  0.0207  1.8757
  552MOL0     H72839   5.186   2.398   4.836  0.9494 -1.0807  0.0131
  552MOL0     H72840   5.366   2.393   4.593 -0.4337  0.3947 -0.9682
  552MOL0     H72841   5.193   2.356   4.585  1.2291  0.2122 -2.0997
  552MOL0     H72842   5.367   2.185   4.774 -0.9966  4.6153  1.4928
  552MOL0     H72843   5.205   2.159   4.713  0.0366 -0.5836  0.3535
  552MOL0     H72844   5.355   2.015   4.598 -0.7432 -0.2032 -2.7695
  552MOL0     H72845   5.465   2.129   4.554 -1.8135 -0.0833 -1.9880
  552MOL0     H72846   5.923   2.514   5.254  3.0475 -1.7882 -2.8328
  552MOL0     H72847   6.087   2.671   5.326  0.7751  3.1434  0.3922
  552MOL0     H72848   6.165   3.157   5.253 -0.1385  0.8678  1.0566
  552MOL0     H72849   6.316   3.346   5.302  1.6272  1.4458 -0.2659
  552MOL0     H72850   8.226   4.537   5.431 -3.1267 -2.8711 -1.3464
  552MOL0     H72851   8.401   4.557   5.594  0.0933  0.5178  0.2718
  552MOL0     H72852   8.888   4.174   5.688 -0.3688 -0.2336 -1.1206
  552MOL0     H72853   9.062   4.177   5.892 -0.2382 -1.2029 -0.3594
  552MOL0     H72854   8.963   4.472   6.226  0.2300  2.7051 -2.5357
  552MOL0     H72855   9.066   4.510   6.095 -2.9602  1.6387  1.0487
  552MOL0     H72856   9.210   4.514   6.295  2.3369 -1.3579  0.6860
  552MOL0     H72857   9.144   4.358   6.342  1.5254  0.3145  0.7882
  552MOL0     H72858   9.317   4.391   6.091  1.7110 -0.2251 -1.1100
  552MOL0     H72859   9.255   4.245   6.162  1.0321 -0.4135  1.3400
  552MOL0     H72860   9.426   4.408   6.351  1.4908  1.0717 -2.2842
  552MOL0     H72861   9.391   4.236   6.352  2.0678 -0.5893 -0.4263
  552MOL0     H72862   9.714   4.284   6.079 -0.4856  1.4314 -0.4467
  552MOL0     H72863   8.761   4.427   6.099 -1.1295 -0.1336 -1.3284
  552MOL0     H72864   8.603   4.383   5.940 -0.5336 -1.1217  0.6715
  553MOL0     O72865   2.614   0.498   2.620 -0.0287 -0.0203  0.1246
  553MOL0     C72866   2.564   0.591   2.683 -1.6789 -0.0508  0.1055
  553MOL0     O72867   2.444   0.648   2.661  0.0166 -0.5015  0.1978
  553MOL0     C72868   2.340   0.566   2.622 -0.5577 -0.2519 -0.8620
  553MOL0     C72869   2.217   0.628   2.584 -1.1570  0.0800  0.5125
  553MOL0     C72870   2.099   0.552   2.566 -2.2169  0.0679 -1.0439
  553MOL0     C72871   2.101   0.414   2.563 -0.4638  0.2533 -0.7474
  553MOL0     O72872   1.989   0.336   2.553 -0.0417  0.3214 -0.0732
  553MOL0     C72873   1.903   0.372   2.442  0.0894  0.1569 -0.6111
  553MOL0     C72874   1.769   0.319   2.495 -0.8121  0.5892 -0.4232
  553MOL0     C72875   1.661   0.350   2.388 -0.2235  0.2106  0.6123
  553MOL0     C72876   1.529   0.277   2.411 -0.2174 -0.6316  0.4677
  553MOL0     C72877   1.419   0.325   2.310  0.1327 -0.4957 -0.2500
  553MOL0     C72878   1.298   0.246   2.342  0.7681 -0.3445 -0.1884
  553MOL0     C72879   1.204   0.238   2.222 -0.0460  0.5432  0.2127
  553MOL0     C72880   1.057   0.208   2.263 -1.1876  0.0059 -0.1322
  553MOL0     N72881   0.989   0.206   2.130 -0.9391  1.5064 -0.3953
  553MOL0     C72882   0.952   0.310   2.050 -0.3437  0.7082 -1.1048
  553MOL0     C72883   0.907   0.265   1.931 -0.2396 -0.5109 -0.7019
  553MOL0     C72884   0.827   0.343   1.826 -0.4899  1.0325  0.0765
  553MOL0     C72885   0.921   0.453   1.768 -0.2775  0.5226 -0.5664
  553MOL0     C72886   1.044   0.393   1.691  0.1587 -0.2088 -0.4374
  553MOL0     C72887   1.169   0.478   1.704  0.5021  0.1441  0.1631
  553MOL0     O72888   1.201   0.500   1.841 -0.6334 -0.2298 -0.6181
  553MOL0     C72889   1.318   0.563   1.881  0.3037 -0.6577  1.2475
  553MOL0     C72890   1.424   0.605   1.798  0.3111 -0.6114 -0.3783
  553MOL0     C72891   1.539   0.669   1.853  0.5268 -0.8431  0.2009
  553MOL0     C72892   1.540   0.704   1.992 -0.4938  0.2830 -0.4826
  553MOL0     C72893   1.661   0.769   2.048 -0.8736  0.2250 -0.3181
  553MOL0     O72894   1.660   0.785   2.185  0.2948  0.0792 -0.0434
  553MOL0     C72895   1.768   0.825   2.249 -1.0327  0.4750 -0.3239
  553MOL0     C72896   1.777   0.951   2.307 -0.0265 -0.0193  0.7803
  553MOL0     C72897   1.894   0.992   2.368 -1.4710  0.5931  0.6279
  553MOL0     C72898   1.999   0.902   2.387  0.0686 -0.0465  0.5473
  553MOL0     O72899   2.116   0.939   2.439  0.2454 -0.1526 -0.4408
  553MOL0     C72900   2.242   0.913   2.369 -0.6999 -0.0310 -0.1104
  553MOL0     C72901   2.346   0.979   2.459 -0.4587 -0.1796  0.0201
  553MOL0     C72902   2.483   0.933   2.429 -0.7468  0.7260  0.2239
  553MOL0     C72903   2.593   1.002   2.513  0.3224 -0.6063  0.1090
  553MOL0     C72904   2.736   0.980   2.461 -1.0916 -0.2168 -0.4752
  553MOL0     C72905   2.839   1.028   2.561 -0.2038 -0.8659 -0.7904
  553MOL0     C72906   2.842   1.181   2.578 -0.7677 -0.0215 -0.1069
  553MOL0     C72907   2.934   1.218   2.689 -0.4135  0.7035  0.4759
  553MOL0    Cl72908   2.968   1.392   2.724 -0.2626 -0.1987 -0.5103
  553MOL0     C72909   1.991   0.774   2.333 -0.8813 -0.3512  0.0083
  553MOL0     C72910   1.873   0.729   2.266  0.2619 -0.1564  0.3509
  553MOL0     O72911   1.757   0.801   1.978  0.7238 -0.2663 -0.2642
  553MOL0     C72912   1.431   0.661   2.075  0.2345 -0.2084  0.0742
  553MOL0     C72913   1.322   0.597   2.016 -0.4889  1.2163  0.7453
  553MOL0     N72914   0.933   0.133   1.923  0.0512  0.2722  0.1332
  553MOL0     N72915   0.985   0.098   2.038 -0.0954 -0.6525  0.7734
  553MOL0     C72916   2.221   0.349   2.593 -0.0271  0.0123  0.3757
  553MOL0     C72917   2.336   0.425   2.627  0.3541 -1.0584  0.0530
  553MOL0     C72918   2.657   0.658   2.772  0.5943 -0.3960  0.4741
  553MOL0     C72919   2.618   0.744   2.872 -0.2100 -0.5502  0.1692
  553MOL0     C72920   2.712   0.808   2.960  0.0497 -0.0104 -0.5600
  553MOL0     C72921   2.850   0.790   2.948 -0.5399 -0.2109  0.1837
  553MOL0     O72922   2.927   0.861   3.035 -0.6600  0.3383 -0.4322
  553MOL0     C72923   3.070   0.867   3.006 -0.2759  0.4852  1.1714
  553MOL0     C72924   3.156   0.928   3.121  0.0966 -0.4407 -0.6129
  553MOL0     C72925   3.093   1.053   3.182  0.1213 -0.1563 -0.1758
  553MOL0     C72926   3.090   1.181   3.092 -0.6487 -1.0997 -0.7001
  553MOL0     C72927   3.026   1.284   3.178  0.2371  0.4523 -0.4133
  553MOL0     C72928   2.983   1.384   3.229  0.0788  0.5321  0.1208
  553MOL0     C72929   2.887   0.710   2.836 -0.4740 -0.1383  0.1161
  553MOL0     C72930   2.797   0.644   2.750  1.3405  0.8181 -0.0260
  553MOL0     H72931   2.214   0.734   2.563  0.3839  0.5677  2.4139
  553MOL0     H72932   2.003   0.599   2.553 -2.7129 -1.0390 -1.5375
  553MOL0     H72933   1.936   0.321   2.351 -1.0274  0.2829 -1.1076
  553MOL0     H72934   1.885   0.479   2.426 -1.1259  0.8523  4.0638
  553MOL0     H72935   1.737   0.372   2.586 -1.8720  2.5422 -1.8645
  553MOL0     H72936   1.764   0.210   2.502  0.9752  0.4317 -0.9624
  553MOL0     H72937   1.707   0.330   2.291 -0.3651 -1.0506  0.7894
  553MOL0     H72938   1.652   0.459   2.397  2.5696  0.4340  2.0023
  553MOL0     H72939   1.534   0.171   2.385 -0.8962 -0.3989 -0.7057
  553MOL0     H72940   1.503   0.289   2.516  1.6205  1.4486  0.7464
  553MOL0     H72941   1.445   0.327   2.204  0.9880  0.0613 -0.0399
  553MOL0     H72942   1.397   0.430   2.330 -0.6454 -0.3580 -1.7041
  553MOL0     H72943   1.249   0.305   2.420  0.4890  2.3301 -2.2637
  553MOL0     H72944   1.315   0.145   2.381  0.8745 -0.5457 -0.7518
  553MOL0     H72945   1.195   0.338   2.177 -1.3662  0.7087  0.7857
  553MOL0     H72946   1.245   0.172   2.145 -0.5385  0.4654  0.0141
  553MOL0     H72947   1.021   0.281   2.335  1.9103  0.2662  1.3221
  553MOL0     H72948   1.056   0.105   2.301  2.2973 -0.8566 -1.8179
  553MOL0     H72949   0.929   0.411   2.085 -1.2741  0.8742 -2.1652
  553MOL0     H72950   0.742   0.387   1.879 -1.3303 -1.6994  1.1466
  553MOL0     H72951   0.791   0.270   1.754  0.9803  0.6281 -0.2931
  553MOL0     H72952   0.939   0.518   1.854 -1.5773 -3.0361  2.6921
  553MOL0     H72953   0.864   0.516   1.699 -3.0056 -2.9133 -1.7482
  553MOL0     H72954   1.070   0.302   1.745 -0.3169  1.7401  3.4112
  553MOL0     H72955   1.018   0.375   1.587  0.0476 -0.2182 -0.4076
  553MOL0     H72956   1.169   0.570   1.646  0.5393 -1.1740 -2.0295
  553MOL0     H72957   1.250   0.414   1.667  0.5641  0.2614  0.0981
  553MOL0     H72958   1.435   0.587   1.692  2.6348 -0.2561 -0.2667
  553MOL0     H72959   1.625   0.691   1.791  2.3839 -3.0730  1.8500
  553MOL0     H72960   1.705   1.032   2.292  2.9011  2.5250 -0.7771
  553MOL0     H72961   1.908   1.093   2.404  1.6174  0.3277  0.3680
  553MOL0     H72962   2.246   0.951   2.267 -0.9614 -1.3458 -0.6290
  553MOL0     H72963   2.262   0.806   2.359 -3.0423 -0.6820  1.3469
  553MOL0     H72964   2.319   0.964   2.564 -1.7646 -1.1314 -0.4197
  553MOL0     H72965   2.349   1.086   2.436 -0.0181  0.0353  1.0432
  553MOL0     H72966   2.509   0.947   2.324 -1.9121  1.2537 -0.0052
  553MOL0     H72967   2.490   0.826   2.447 -0.1892  0.2681 -2.2868
  553MOL0     H72968   2.579   1.111   2.518  4.6364  0.2205 -1.1532
  553MOL0     H72969   2.593   0.964   2.615  2.5449  1.5939  1.0459
  553MOL0     H72970   2.739   1.036   2.367 -1.5800  0.6008 -0.0176
  553MOL0     H72971   2.757   0.876   2.435 -0.8674  0.7620 -5.0961
  553MOL0     H72972   2.943   1.003   2.536  0.2158  0.8537 -0.8969
  553MOL0     H72973   2.828   0.982   2.660  0.9917  0.7462  0.1451
  553MOL0     H72974   2.875   1.231   2.486 -1.7754 -0.2891 -0.6206
  553MOL0     H72975   2.739   1.205   2.605 -1.8540 -2.4810 -1.7187
  553MOL0     H72976   3.032   1.178   2.662 -1.6971 -2.8238  0.4998
  553MOL0     H72977   2.901   1.153   2.771  0.9752 -2.7708 -1.5000
  553MOL0     H72978   2.069   0.702   2.358 -0.4048 -0.5322 -1.8447
  553MOL0     H72979   1.858   0.625   2.237  2.1596  0.3157 -2.8790
  553MOL0     H72980   1.425   0.682   2.181 -4.8169 -1.6903  0.3300
  553MOL0     H72981   1.234   0.581   2.078 -0.8892  0.8063  0.0884
  553MOL0     H72982   2.223   0.240   2.595 -1.9454 -0.1455 -1.7472
  553MOL0     H72983   2.424   0.368   2.656  0.8519  0.7776  2.5007
  553MOL0     H72984   2.510   0.738   2.881 -0.1930 -0.9180  0.1465
  553MOL0     H72985   2.664   0.872   3.032 -2.7374 -0.1538 -2.1453
  553MOL0     H72986   3.095   0.926   2.917 -2.0381 -1.1516 -0.5082
  553MOL0     H72987   3.106   0.766   2.985  1.9511  1.5529 -0.6816
  553MOL0     H72988   3.164   0.863   3.208  1.9840  1.3087  0.6077
  553MOL0     H72989   3.262   0.934   3.095  0.5116 -4.2638 -0.3994
  553MOL0     H72990   3.145   1.074   3.276  0.6971 -1.3768 -0.1907
  553MOL0     H72991   2.990   1.023   3.200 -0.2050  1.9511  1.9118
  553MOL0     H72992   3.190   1.219   3.071 -1.9557  3.7254  0.6492
  553MOL0     H72993   3.033   1.179   2.999  0.6200  0.9888 -1.5783
  553MOL0     H72994   2.929   1.472   3.254 -0.3117  0.1949  0.4585
  553MOL0     H72995   2.990   0.689   2.812 -0.0167  0.3423  1.5487
  553MOL0     H72996   2.833   0.574   2.674 -1.2446  0.2693 -0.8227
  554MOL0     O72997   3.140   6.045   1.506 -0.0933 -0.0348 -0.6334
  554MOL0     C72998   3.220   6.087   1.591 -0.3360  0.3622  0.1565
  554MOL0     O72999   3.200   6.197   1.670 -0.3368  0.4957  0.1163
  554MOL0     C73000   3.077   6.272   1.671 -0.2437 -0.2661 -0.5469
  554MOL0     C73001   3.087   6.407   1.706 -0.1790  0.4055 -0.6832
  554MOL0     C73002   2.982   6.496   1.708  0.8157 -0.1424 -0.0034
  554MOL0     C73003   2.853   6.446   1.673 -0.0614 -0.2354  0.5648
  554MOL0     O73004   2.752   6.531   1.677  0.0805 -0.0128 -0.0154
  554MOL0     C73005   2.717   6.609   1.791 -0.6597 -0.1115  0.3673
  554MOL0     C73006   2.569   6.671   1.778 -0.3516 -0.4633  0.4851
  554MOL0     C73007   2.482   6.569   1.712 -0.0414  0.7096  0.7885
  554MOL0     C73008   2.346   6.626   1.704  0.5728 -0.3407 -0.4603
  554MOL0     C73009   2.249   6.536   1.622  0.7007  0.3216  0.1628
  554MOL0     C73010   2.110   6.599   1.626  0.1654  0.4236 -0.3387
  554MOL0     C73011   2.087   6.725   1.538 -0.3971  0.5236 -0.0492
  554MOL0     C73012   2.022   6.849   1.615 -0.6432  0.0709  0.4585
  554MOL0     N73013   2.075   6.877   1.746  0.6145  0.3758  0.2794
  554MOL0     C73014   2.152   6.983   1.784 -0.1550  0.1439 -0.5375
  554MOL0     C73015   2.129   6.995   1.921 -0.1005  0.3639  0.8556
  554MOL0     C73016   2.178   7.101   2.008 -0.2257 -0.5797 -0.2444
  554MOL0     C73017   2.104   7.239   1.995  0.1356  0.4541  0.6684
  554MOL0     C73018   1.974   7.235   2.070  0.9874 -0.1460  0.4503
  554MOL0     C73019   2.009   7.244   2.222 -0.3410 -0.0163  0.2708
  554MOL0     O73020   1.895   7.270   2.295  0.1741  0.4318  0.0963
  554MOL0     C73021   1.896   7.247   2.426 -0.1184 -0.2224 -0.9953
  554MOL0     C73022   1.767   7.277   2.481 -0.7274  0.1980  0.0373
  554MOL0     C73023   1.740   7.239   2.615  0.7563  0.1159  0.4096
  554MOL0     C73024   1.837   7.170   2.691  0.6849  0.5994  0.1497
  554MOL0     C73025   1.795   7.121   2.826 -0.6761  0.3512  0.7232
  554MOL0     O73026   1.685   7.166   2.891 -0.0782  0.3347 -0.0129
  554MOL0     C73027   1.657   7.120   3.014 -0.3731 -0.3131  0.7218
  554MOL0     C73028   1.615   7.220   3.103  0.5960 -0.0147  0.8363
  554MOL0     C73029   1.608   7.191   3.234 -0.5095 -0.6515 -0.1479
  554MOL0     C73030   1.617   7.056   3.287 -0.1227  0.7065  0.4111
  554MOL0     O73031   1.592   7.009   3.410  0.4552 -0.4062 -0.1812
  554MOL0     C73032   1.628   7.098   3.521 -0.2157 -0.2319 -0.2036
  554MOL0     C73033   1.623   7.021   3.655 -0.6601  0.1630  0.5613
  554MOL0     C73034   1.504   6.931   3.688  0.2962 -0.2218  0.2841
  554MOL0     C73035   1.373   7.018   3.689 -1.0199  0.1832  0.2544
  554MOL0     C73036   1.265   6.929   3.737  0.0350 -0.9456  0.1559
  554MOL0     C73037   1.129   7.000   3.728  0.5893  0.0698 -1.0470
  554MOL0     C73038   1.021   6.912   3.807 -0.3300  0.5447  1.0505
  554MOL0     C73039   0.876   6.947   3.783  0.3510  0.3079  0.4220
  554MOL0    Cl73040   0.754   6.857   3.880 -0.0712  0.4679 -0.2007
  554MOL0     C73041   1.635   6.957   3.189  0.1693  1.0483 -0.7398
  554MOL0     C73042   1.669   6.986   3.053  0.6732  0.0417  0.0521
  554MOL0     O73043   1.880   7.055   2.876 -1.1317 -0.1306 -0.2457
  554MOL0     C73044   1.967   7.149   2.639  0.5067  0.8308  0.7129
  554MOL0     C73045   1.996   7.190   2.511 -0.4393  0.0507  1.3759
  554MOL0     N73046   2.044   6.895   1.960  0.0003 -0.4514  0.4600
  554MOL0     N73047   2.009   6.826   1.859  0.0832 -0.5927 -0.4148
  554MOL0     C73048   2.834   6.307   1.641  0.9787 -0.5490 -0.5942
  554MOL0     C73049   2.949   6.227   1.627  0.8848 -0.5592 -0.7198
  554MOL0     C73050   3.351   6.016   1.607 -0.7265 -0.2199  0.7954
  554MOL0     C73051   3.385   5.893   1.547 -0.0589  0.1502  0.5306
  554MOL0     C73052   3.513   5.834   1.548 -0.2177 -0.4811  1.3189
  554MOL0     C73053   3.614   5.900   1.608 -0.0555 -0.0298 -0.6814
  554MOL0     O73054   3.727   5.826   1.620 -0.6932 -0.4264 -0.0686
  554MOL0     C73055   3.854   5.881   1.671  0.4264 -0.0580 -1.1294
  554MOL0     C73056   3.970   5.784   1.664 -0.4565  0.0566  0.6179
  554MOL0     C73057   3.940   5.654   1.735 -1.4448  0.2803 -0.1858
  554MOL0     C73058   4.067   5.562   1.709 -0.4391 -0.0263 -0.0158
  554MOL0     C73059   4.064   5.432   1.770  0.1262 -0.1433 -0.1290
  554MOL0     C73060   4.066   5.323   1.825  0.4138  0.2854  0.4006
  554MOL0     C73061   3.586   6.021   1.677 -0.6109  0.0434  0.0734
  554MOL0     C73062   3.455   6.078   1.670  0.3296 -0.4835 -0.5655
  554MOL0     H73063   3.177   6.439   1.757  1.3514 -4.3122  0.0697
  554MOL0     H73064   3.002   6.594   1.751  1.5083 -1.3558  2.6326
  554MOL0     H73065   2.785   6.695   1.791  0.4235 -0.7666 -3.4890
  554MOL0     H73066   2.735   6.543   1.876  0.0597  0.7852  0.9273
  554MOL0     H73067   2.567   6.757   1.711  1.3325  0.2716  1.3161
  554MOL0     H73068   2.544   6.696   1.882  0.3211  0.1169  0.5135
  554MOL0     H73069   2.483   6.475   1.769 -1.1864 -0.5810 -1.2150
  554MOL0     H73070   2.524   6.547   1.614  1.7195 -1.1696  1.8808
  554MOL0     H73071   2.306   6.631   1.805 -1.0000 -0.8820 -1.0226
  554MOL0     H73072   2.347   6.728   1.663  1.9346 -0.0811  0.1558
  554MOL0     H73073   2.238   6.437   1.665 -0.4160  0.5823  0.5124
  554MOL0     H73074   2.289   6.518   1.521  0.8831 -0.1561  0.3222
  554MOL0     H73075   2.086   6.624   1.730 -1.8386 -5.5986  1.0356
  554MOL0     H73076   2.032   6.525   1.603  0.8223 -1.8921  3.9504
  554MOL0     H73077   2.189   6.749   1.505 -0.1237 -0.9787 -0.3647
  554MOL0     H73078   2.015   6.710   1.458 -0.2892  1.8968 -0.4253
  554MOL0     H73079   1.914   6.836   1.618 -0.9667  0.7134 -3.3765
  554MOL0     H73080   2.043   6.933   1.547  0.5371 -0.9956 -0.5499
  554MOL0     H73081   2.211   7.046   1.719 -1.6087  3.0801  0.7963
  554MOL0     H73082   2.286   7.115   1.995 -0.6627  2.5094 -1.4835
  554MOL0     H73083   2.166   7.068   2.111 -1.2652  2.8389  0.8578
  554MOL0     H73084   2.085   7.264   1.890  1.5544 -0.0120  0.2770
  554MOL0     H73085   2.175   7.315   2.030  1.1703 -0.9637  1.7935
  554MOL0     H73086   1.913   7.324   2.053  0.7513  0.7135  4.6224
  554MOL0     H73087   1.916   7.147   2.043 -0.8546  2.1250 -3.9238
  554MOL0     H73088   2.089   7.313   2.249  1.9566 -1.4398 -2.2882
  554MOL0     H73089   2.050   7.147   2.254 -3.2461 -3.0613 -4.0175
  554MOL0     H73090   1.698   7.330   2.417  1.9104  1.1695 -2.2117
  554MOL0     H73091   1.651   7.261   2.672  2.2818 -1.1692  3.5017
  554MOL0     H73092   1.594   7.316   3.058 -4.2202 -0.6272  1.2820
  554MOL0     H73093   1.575   7.277   3.292  2.3850 -0.9459  2.2120
  554MOL0     H73094   1.561   7.184   3.529  1.1159  0.7589  0.6795
  554MOL0     H73095   1.729   7.136   3.505 -0.5170  1.0095  0.7393
  554MOL0     H73096   1.632   7.095   3.736  2.0619  0.1252  0.3976
  554MOL0     H73097   1.717   6.964   3.654 -0.3433  0.5694 -2.9854
  554MOL0     H73098   1.518   6.876   3.781  0.0969 -4.5739 -1.9968
  554MOL0     H73099   1.489   6.853   3.613 -0.0838 -2.0563  2.1905
  554MOL0     H73100   1.388   7.100   3.759 -0.9735  0.6022 -0.2380
  554MOL0     H73101   1.360   7.054   3.587  2.6584 -3.5699 -1.9077
  554MOL0     H73102   1.290   6.910   3.841  1.4036 -0.7266 -0.1205
  554MOL0     H73103   1.253   6.832   3.688  1.9355 -1.7641  1.2077
  554MOL0     H73104   1.094   6.990   3.625 -1.0067 -2.2827 -0.3504
  554MOL0     H73105   1.128   7.096   3.781  0.0670 -1.2143  1.4334
  554MOL0     H73106   1.044   6.812   3.768  4.4149  1.9253 -0.3456
  554MOL0     H73107   1.044   6.917   3.914 -0.1766 -0.1882  1.0606
  554MOL0     H73108   0.857   6.931   3.677 -1.5080  0.9344  0.6250
  554MOL0     H73109   0.854   7.054   3.795 -1.6876 -0.1802  1.4985
  554MOL0     H73110   1.642   6.856   3.228 -1.6947  1.8392  1.8875
  554MOL0     H73111   1.693   6.907   2.983 -0.4711  0.7452 -1.1695
  554MOL0     H73112   2.046   7.091   2.684  1.2387  1.6640  0.5352
  554MOL0     H73113   2.099   7.202   2.481 -0.9169  2.9842  0.5858
  554MOL0     H73114   2.740   6.276   1.597  0.7980  1.2089 -1.5301
  554MOL0     H73115   2.941   6.121   1.604  1.1286 -1.2012  1.8113
  554MOL0     H73116   3.310   5.834   1.496  0.3383 -1.5748  1.8464
  554MOL0     H73117   3.538   5.736   1.507 -0.1145 -0.4346  1.2716
  554MOL0     H73118   3.836   5.918   1.772  1.7632 -0.4008 -0.7544
  554MOL0     H73119   3.888   5.967   1.612  2.3207 -0.0266 -0.0551
  554MOL0     H73120   3.995   5.767   1.559 -0.2692 -2.4001  0.9966
  554MOL0     H73121   4.060   5.822   1.714  0.1809 -1.5114  0.7043
  554MOL0     H73122   3.849   5.604   1.701 -0.7385 -1.1344 -0.1074
  554MOL0     H73123   3.919   5.681   1.839 -3.7690 -2.2268  0.0946
  554MOL0     H73124   4.090   5.559   1.602 -3.7053 -2.0532 -0.8388
  554MOL0     H73125   4.145   5.617   1.762 -1.0916 -0.5963  1.6159
  554MOL0     H73126   4.080   5.222   1.858  0.2094 -0.1919 -0.9174
  554MOL0     H73127   3.654   6.075   1.743 -1.6649 -1.0952  2.1716
  554MOL0     H73128   3.451   6.173   1.723 -3.9996 -1.1379  0.6592
  555MOL0     O73129   5.038   2.786   9.174  0.3859  0.1797 -0.1399
  555MOL0     C73130   5.055   2.749   9.293 -0.2952  0.4556  0.0351
  555MOL0     O73131   4.970   2.771   9.396  0.3396  0.0679 -0.5263
  555MOL0     C73132   4.881   2.874   9.390  1.1088  0.2741 -0.1358
  555MOL0     C73133   4.745   2.858   9.435  0.4786 -0.1885 -0.4143
  555MOL0     C73134   4.652   2.963   9.413 -0.2202 -0.3233  0.0339
  555MOL0     C73135   4.694   3.085   9.374 -0.3511 -0.4434  0.4715
  555MOL0     O73136   4.589   3.172   9.354  0.4413 -0.1040  0.0652
  555MOL0     C73137   4.605   3.295   9.272  0.0538  0.8633 -0.0426
  555MOL0     C73138   4.474   3.370   9.243 -0.4366  0.4246  0.0936
  555MOL0     C73139   4.476   3.519   9.202  0.0978  0.4211  0.2299
  555MOL0     C73140   4.334   3.576   9.198  1.2525 -0.0934 -0.0925
  555MOL0     C73141   4.274   3.607   9.339  0.1052  0.9676  0.7440
  555MOL0     C73142   4.144   3.679   9.344  0.3873  0.6993  0.1242
  555MOL0     C73143   4.088   3.681   9.487 -0.3846 -0.2195 -0.3709
  555MOL0     C73144   3.928   3.696   9.500 -0.9433 -0.1380  0.0051
  555MOL0     N73145   3.892   3.830   9.450 -0.0894 -0.1095  0.6971
  555MOL0     C73146   3.936   3.958   9.493 -0.9407  0.4959 -0.2491
  555MOL0     C73147   3.899   4.047   9.400 -0.9919  0.5444 -0.8402
  555MOL0     C73148   3.947   4.186   9.396  0.1742 -0.2700 -0.4844
  555MOL0     C73149   3.848   4.278   9.473  0.0511 -0.2330  0.3010
  555MOL0     C73150   3.715   4.287   9.402 -0.5953  0.1353  0.0286
  555MOL0     C73151   3.721   4.351   9.263  0.0540  0.9097  0.0361
  555MOL0     O73152   3.605   4.431   9.235  0.6762  0.0931 -0.8000
  555MOL0     C73153   3.490   4.349   9.211  0.8165  0.0887  0.2780
  555MOL0     C73154   3.479   4.258   9.103 -0.4041 -0.2271 -0.7465
  555MOL0     C73155   3.365   4.194   9.064  0.0627  1.0067  1.1074
  555MOL0     C73156   3.240   4.231   9.114  0.6130 -0.8427  0.7248
  555MOL0     C73157   3.105   4.175   9.070  0.4655  0.1611  0.0331
  555MOL0     O73158   2.990   4.229   9.113  0.3607 -0.1912  0.2632
  555MOL0     C73159   2.877   4.168   9.070 -0.2788  0.2257  1.0278
  555MOL0     C73160   2.818   4.083   9.159  0.1186 -0.4137  0.0373
  555MOL0     C73161   2.692   4.028   9.118  0.6058  0.2099 -0.5997
  555MOL0     C73162   2.628   4.072   8.995 -0.2471  0.5298 -0.0111
  555MOL0     O73163   2.502   4.032   8.951 -0.0222 -0.2080 -0.9932
  555MOL0     C73164   2.455   3.905   8.999 -1.3352  0.2807  1.0563
  555MOL0     C73165   2.311   3.857   8.961 -0.4657  0.1416 -0.3392
  555MOL0     C73166   2.219   3.967   8.994 -0.5059  0.1568 -0.2712
  555MOL0     C73167   2.077   3.923   8.978  0.3763 -0.7530  0.3183
  555MOL0     C73168   2.024   3.819   9.075 -0.3725 -0.1159  0.5205
  555MOL0     C73169   1.872   3.832   9.104  0.0767  0.1268  0.1346
  555MOL0     C73170   1.847   3.935   9.205 -0.3678  0.7572  0.0326
  555MOL0     C73171   1.706   3.995   9.174 -0.4624  0.1681  0.2807
  555MOL0    Cl73172   1.576   3.879   9.157  0.2450 -0.3887  0.0161
  555MOL0     C73173   2.699   4.156   8.912  0.3006 -0.3913 -0.0734
  555MOL0     C73174   2.819   4.218   8.951  0.5977  0.3593 -0.6292
  555MOL0     O73175   3.123   4.072   8.997  0.3545  0.3036 -0.5422
  555MOL0     C73176   3.243   4.328   9.220  0.2350 -0.3285 -0.6579
  555MOL0     C73177   3.370   4.383   9.269 -0.6356  0.0795 -0.9682
  555MOL0     N73178   3.836   3.980   9.297 -0.1523  0.3917  0.4856
  555MOL0     N73179   3.838   3.851   9.324 -0.2496  0.4254 -0.1502
  555MOL0     C73180   4.825   3.104   9.332 -0.5515  0.5714  0.3137
  555MOL0     C73181   4.919   3.000   9.337 -0.0943 -1.3129 -0.0566
  555MOL0     C73182   5.172   2.675   9.338 -0.2735  0.3386 -0.1058
  555MOL0     C73183   5.261   2.606   9.246  0.2431 -0.2387  0.2968
  555MOL0     C73184   5.367   2.523   9.289  0.3133 -0.2091  0.5054
  555MOL0     C73185   5.395   2.514   9.427  0.2066  0.0972  0.1747
  555MOL0     O73186   5.475   2.423   9.489 -0.3784 -0.6563  0.3294
  555MOL0     C73187   5.549   2.333   9.409  0.4928  0.1197  0.4107
  555MOL0     C73188   5.474   2.210   9.348  0.6372 -0.4755 -0.0002
  555MOL0     C73189   5.345   2.158   9.424  0.1245 -0.0155 -0.1267
  555MOL0     C73190   5.402   2.098   9.554  0.6915 -0.2639 -0.5109
  555MOL0     C73191   5.284   2.051   9.636 -0.6664  0.3318 -0.1541
  555MOL0     C73192   5.201   1.987   9.701  0.8029 -0.6881 -0.0706
  555MOL0     C73193   5.316   2.583   9.520 -0.5517  0.2185  0.2345
  555MOL0     C73194   5.202   2.661   9.475 -0.3946 -0.3327  0.5252
  555MOL0     H73195   4.719   2.757   9.465  0.5240  0.1417  0.7824
  555MOL0     H73196   4.548   2.946   9.438  0.2338 -3.4327  0.1584
  555MOL0     H73197   4.643   3.271   9.173  0.9463  2.1021 -0.0381
  555MOL0     H73198   4.660   3.375   9.323 -0.7616  0.8839  0.8393
  555MOL0     H73199   4.414   3.360   9.334 -0.4699 -3.1568 -0.2026
  555MOL0     H73200   4.416   3.308   9.173 -2.1909  1.8297  0.2010
  555MOL0     H73201   4.517   3.539   9.102 -0.5778  1.0632  0.0681
  555MOL0     H73202   4.546   3.578   9.262  1.6864  1.6821 -2.6458
  555MOL0     H73203   4.326   3.668   9.139  2.0634 -0.3174 -0.5656
  555MOL0     H73204   4.271   3.497   9.157 -1.1529  0.6984  1.7907
  555MOL0     H73205   4.340   3.670   9.401  3.6945 -1.7929  0.0759
  555MOL0     H73206   4.259   3.510   9.386 -0.8406  0.2681 -0.9346
  555MOL0     H73207   4.069   3.625   9.284 -1.0683  2.2161  0.5134
  555MOL0     H73208   4.145   3.778   9.299 -3.4419  0.8782  0.0478
  555MOL0     H73209   4.109   3.603   9.561 -0.2056 -0.8785 -1.1046
  555MOL0     H73210   4.131   3.766   9.541  1.2928  1.0701 -3.4916
  555MOL0     H73211   3.904   3.682   9.605  1.0147  2.8180  0.9875
  555MOL0     H73212   3.875   3.624   9.437  1.0324 -1.2616 -0.4394
  555MOL0     H73213   4.006   3.979   9.573  1.8602  2.5874 -2.9654
  555MOL0     H73214   3.952   4.226   9.295 -1.0562  3.2511  0.6933
  555MOL0     H73215   4.045   4.195   9.444 -0.3278  1.3194  0.3249
  555MOL0     H73216   3.911   4.365   9.492  0.8141 -0.1680 -2.2442
  555MOL0     H73217   3.830   4.231   9.570 -0.6596 -4.0385 -1.5003
  555MOL0     H73218   3.655   4.199   9.379 -1.4458  0.6952  0.0329
  555MOL0     H73219   3.654   4.355   9.462  2.6185  4.2331 -0.8667
  555MOL0     H73220   3.753   4.274   9.192  2.2309  1.9158 -0.1297
  555MOL0     H73221   3.807   4.418   9.271  0.4009  0.7786 -2.0334
  555MOL0     H73222   3.570   4.233   9.049 -1.5732 -1.8527 -2.0622
  555MOL0     H73223   3.373   4.119   8.986  0.5844  2.3031 -0.1492
  555MOL0     H73224   2.860   4.068   9.258  1.4424  1.3160 -0.2124
  555MOL0     H73225   2.630   3.969   9.184 -2.3938 -2.6089 -5.3373
  555MOL0     H73226   2.456   3.910   9.108  4.5449  0.7873  1.3456
  555MOL0     H73227   2.538   3.838   8.972  0.1041  1.8492  1.3902
  555MOL0     H73228   2.284   3.768   9.019 -3.1471  1.0281 -0.0754
  555MOL0     H73229   2.296   3.826   8.858  0.9640 -1.1051 -0.2120
  555MOL0     H73230   2.240   4.036   8.912  0.1466 -0.0398 -0.2793
  555MOL0     H73231   2.227   4.010   9.095  0.6568 -1.9768  0.6032
  555MOL0     H73232   2.020   4.016   8.987 -3.0307 -2.6347 -0.2320
  555MOL0     H73233   2.061   3.897   8.873  0.5531  1.9468 -0.4641
  555MOL0     H73234   2.086   3.810   9.164  2.2433 -1.9253 -1.3353
  555MOL0     H73235   2.035   3.722   9.025  0.0936  0.0276  0.3447
  555MOL0     H73236   1.830   3.736   9.137 -1.5754  0.4396 -0.8871
  555MOL0     H73237   1.832   3.858   9.005  1.3677 -3.6877 -1.5693
  555MOL0     H73238   1.842   3.892   9.305 -0.0309 -1.7110 -0.9372
  555MOL0     H73239   1.925   4.010   9.209 -0.7447  1.1345  0.4180
  555MOL0     H73240   1.707   4.054   9.082 -2.1362  0.8409  0.6520
  555MOL0     H73241   1.671   4.074   9.241  1.6917  1.1178  0.3743
  555MOL0     H73242   2.666   4.193   8.816 -0.0457  0.3954  0.3391
  555MOL0     H73243   2.871   4.291   8.889  2.8280  0.3381  1.0801
  555MOL0     H73244   3.145   4.356   9.256 -0.0677  0.2589 -1.8826
  555MOL0     H73245   3.363   4.468   9.337  0.1835  2.3589 -3.5297
  555MOL0     H73246   4.857   3.202   9.298  0.2756  0.4484  0.7109
  555MOL0     H73247   5.024   3.016   9.319  0.6432 -0.6472  3.9149
  555MOL0     H73248   5.241   2.613   9.139  1.6464 -1.1310 -0.0498
  555MOL0     H73249   5.423   2.457   9.225 -1.5927 -2.4669  1.0494
  555MOL0     H73250   5.621   2.284   9.474  3.6882 -0.4454 -3.2296
  555MOL0     H73251   5.610   2.387   9.336  2.0710 -0.7544  1.0511
  555MOL0     H73252   5.450   2.233   9.244 -1.1478  0.3331  0.5492
  555MOL0     H73253   5.543   2.128   9.326 -1.1462 -1.8803 -0.6186
  555MOL0     H73254   5.292   2.084   9.363 -1.4245  0.5922  0.4317
  555MOL0     H73255   5.268   2.236   9.432  1.2878  1.3736 -1.8078
  555MOL0     H73256   5.479   2.021   9.542  2.2319  0.8155  1.6440
  555MOL0     H73257   5.454   2.170   9.618  1.6561 -1.8148  0.5212
  555MOL0     H73258   5.133   1.930   9.761  2.7499 -1.5051  1.4566
  555MOL0     H73259   5.328   2.568   9.627 -2.2748 -0.4047  0.3722
  555MOL0     H73260   5.125   2.693   9.544 -0.5600  2.1932 -0.7112
  556MOL0     O73261   0.369   4.574   5.632 -0.4970 -0.0394 -0.2786
  556MOL0     C73262   0.296   4.669   5.603  0.7499  0.4383  0.1194
  556MOL0     O73263   0.341   4.786   5.548 -0.7837  0.4114 -0.3147
  556MOL0     C73264   0.469   4.824   5.523 -0.6183 -0.9021  1.0266
  556MOL0     C73265   0.571   4.737   5.472 -0.7993  0.0406 -0.8230
  556MOL0     C73266   0.701   4.789   5.448 -0.1114 -0.2758  0.4710
  556MOL0     C73267   0.725   4.927   5.462 -0.3147  0.4815  0.7353
  556MOL0     O73268   0.854   4.968   5.441  0.0762  0.8246 -0.7805
  556MOL0     C73269   0.910   5.103   5.463 -0.2577  1.0741  0.1050
  556MOL0     C73270   1.057   5.092   5.462  0.1681 -0.2011 -0.1646
  556MOL0     C73271   1.116   4.974   5.545 -0.4328 -0.4228 -0.7685
  556MOL0     C73272   1.097   4.986   5.701  0.1970 -1.3628  0.3803
  556MOL0     C73273   1.038   4.865   5.775  0.2903 -0.2903  0.0053
  556MOL0     C73274   0.897   4.841   5.718  0.4244  0.0280  0.4223
  556MOL0     C73275   0.808   4.745   5.820  0.0107 -0.7638  0.6744
  556MOL0     C73276   0.810   4.604   5.774  0.5625  0.3562  0.6425
  556MOL0     N73277   0.753   4.515   5.868 -0.3345 -0.5448  0.6207
  556MOL0     C73278   0.623   4.471   5.853 -0.9135  0.4716  0.2196
  556MOL0     C73279   0.621   4.357   5.933  0.0122 -0.3685 -0.3130
  556MOL0     C73280   0.483   4.303   5.965  1.7426 -0.5489 -0.0396
  556MOL0     C73281   0.461   4.327   6.116  1.0370 -0.0715 -0.0932
  556MOL0     C73282   0.313   4.271   6.153  0.2248  0.1350  0.0619
  556MOL0     C73283   0.288   4.287   6.307  0.3773  0.1153 -0.6362
  556MOL0     O73284   0.228   4.417   6.329  0.0151  0.6998  0.0722
  556MOL0     C73285   0.086   4.436   6.323 -0.0362  0.0558 -0.8253
  556MOL0     C73286  -0.007   4.360   6.253  0.4714 -0.0550 -0.5546
  556MOL0     C73287  -0.145   4.396   6.233 -1.1487 -0.7219 -0.3907
  556MOL0     C73288  -0.182   4.515   6.294 -0.0784  0.2329 -0.8970
  556MOL0     C73289  -0.326   4.543   6.289 -0.5192 -1.4734  0.7039
  556MOL0     O73290  -0.362   4.650   6.364 -0.1429 -0.4602 -0.2358
  556MOL0     C73291  -0.492   4.678   6.369  0.3086  0.1693  0.0097
  556MOL0     C73292  -0.555   4.681   6.484  0.2634 -0.6551 -0.0649
  556MOL0     C73293  -0.686   4.728   6.489  0.0147 -0.1018 -1.1465
  556MOL0     C73294  -0.752   4.776   6.380 -0.2902 -0.5510 -0.4335
  556MOL0     O73295  -0.880   4.816   6.396 -0.7412 -0.4009 -0.3977
  556MOL0     C73296  -0.961   4.832   6.279 -0.2689 -0.2867  0.1730
  556MOL0     C73297  -1.097   4.853   6.348 -0.3215  0.4566 -0.2679
  556MOL0     C73298  -1.218   4.836   6.253  0.4820 -0.4749 -0.3429
  556MOL0     C73299  -1.206   4.931   6.128 -0.9486 -0.6300 -1.1504
  556MOL0     C73300  -1.337   4.968   6.060 -0.6453  0.1378 -0.4673
  556MOL0     C73301  -1.375   4.864   5.960  0.1053  0.2601 -0.4301
  556MOL0     C73302  -1.488   4.910   5.873  1.0177  0.0465  0.7194
  556MOL0     C73303  -1.553   4.812   5.758 -0.2610 -1.0276 -0.6876
  556MOL0    Cl73304  -1.558   4.643   5.819 -0.2463  0.0614 -0.0544
  556MOL0     C73305  -0.687   4.775   6.259  0.9454 -0.1326 -0.1880
  556MOL0     C73306  -0.558   4.720   6.255  0.4085 -0.6945  0.1959
  556MOL0     O73307  -0.401   4.465   6.229  0.2779 -0.5040 -0.7767
  556MOL0     C73308  -0.088   4.606   6.347 -0.8843  0.1519 -1.0678
  556MOL0     C73309   0.046   4.560   6.368  0.0178  0.6497 -0.5315
  556MOL0     N73310   0.747   4.343   6.002  0.1008  0.1119  0.4382
  556MOL0     N73311   0.831   4.433   5.944 -0.2689 -0.8724  0.0280
  556MOL0     C73312   0.627   5.014   5.509  0.3518 -0.5938  0.4500
  556MOL0     C73313   0.498   4.961   5.541 -0.0503  0.2877 -0.4304
  556MOL0     C73314   0.156   4.648   5.626 -0.1326  0.1695  0.0592
  556MOL0     C73315   0.068   4.757   5.599 -0.0919 -0.3059  1.1807
  556MOL0     C73316  -0.069   4.735   5.604 -0.1371  0.2171  0.2354
  556MOL0     C73317  -0.121   4.607   5.633 -0.7659 -0.6402 -0.4007
  556MOL0     O73318  -0.260   4.588   5.619  0.5411  0.0636  0.8032
  556MOL0     C73319  -0.315   4.534   5.738  0.0717  0.2137 -0.5935
  556MOL0     C73320  -0.459   4.560   5.744 -0.3565  0.1477  0.2292
  556MOL0     C73321  -0.527   4.508   5.873  0.9786 -0.4076  0.0633
  556MOL0     C73322  -0.626   4.603   5.935 -0.2939 -0.1495  0.6223
  556MOL0     C73323  -0.736   4.616   5.842 -0.0428 -1.4303  0.9897
  556MOL0     C73324  -0.831   4.623   5.769 -0.0157  0.4285  0.4424
  556MOL0     C73325  -0.038   4.503   5.671 -0.0837  0.2919 -0.2247
  556MOL0     C73326   0.101   4.521   5.651  0.7294 -0.8231 -0.7515
  556MOL0     H73327   0.558   4.632   5.449  1.3777 -0.2946 -0.7371
  556MOL0     H73328   0.779   4.725   5.407 -0.7421 -0.0237 -1.2353
  556MOL0     H73329   0.893   5.132   5.567  0.0249 -0.2837  0.5435
  556MOL0     H73330   0.861   5.170   5.391  0.7124  0.4581 -1.1591
  556MOL0     H73331   1.097   5.187   5.500 -1.9506  1.9264 -2.8518
  556MOL0     H73332   1.077   5.077   5.356 -0.0886 -0.4362 -0.1813
  556MOL0     H73333   1.224   4.977   5.527 -0.4321 -2.5443 -1.4513
  556MOL0     H73334   1.070   4.880   5.512 -0.9308 -0.2959 -0.4363
  556MOL0     H73335   1.192   5.021   5.743  0.9026 -1.5987 -0.9999
  556MOL0     H73336   1.028   5.068   5.725  1.5465 -0.3238  0.8516
  556MOL0     H73337   1.029   4.885   5.883 -0.1644 -2.4106  0.3986
  556MOL0     H73338   1.091   4.772   5.755 -0.4159 -0.6096 -0.4087
  556MOL0     H73339   0.909   4.798   5.619  3.3896  0.9891  0.2942
  556MOL0     H73340   0.846   4.938   5.714 -1.1172 -0.5723  2.8358
  556MOL0     H73341   0.849   4.757   5.921 -1.1195 -2.0377  1.3284
  556MOL0     H73342   0.704   4.779   5.809  0.3351  0.1192  0.2718
  556MOL0     H73343   0.913   4.578   5.746 -0.1941  0.0203 -2.0998
  556MOL0     H73344   0.760   4.602   5.676  1.1312 -0.5540  0.3613
  556MOL0     H73345   0.539   4.518   5.802 -0.7161 -0.0679 -0.6228
  556MOL0     H73346   0.472   4.196   5.949  0.2055 -0.6707  1.6051
  556MOL0     H73347   0.408   4.355   5.904 -0.8249 -0.3497  3.0354
  556MOL0     H73348   0.447   4.434   6.132 -0.2595 -0.1722 -0.4661
  556MOL0     H73349   0.541   4.283   6.176  1.7910  2.3294  0.7564
  556MOL0     H73350   0.239   4.333   6.102 -0.4230  2.5505  3.6614
  556MOL0     H73351   0.308   4.165   6.123  4.5968 -1.3883  3.6172
  556MOL0     H73352   0.378   4.274   6.368 -0.1719  1.0352  0.3969
  556MOL0     H73353   0.205   4.223   6.339 -0.1133  0.5147 -1.0847
  556MOL0     H73354   0.021   4.261   6.217  0.6006  0.4704 -1.9952
  556MOL0     H73355  -0.211   4.329   6.179 -5.4742  1.8566  1.1569
  556MOL0     H73356  -0.507   4.658   6.579 -2.7390 -0.6832  1.5903
  556MOL0     H73357  -0.727   4.729   6.589  2.8666  0.0161  0.1150
  556MOL0     H73358  -0.977   4.741   6.222 -1.7005  0.4689 -0.7084
  556MOL0     H73359  -0.919   4.911   6.216 -2.0614 -1.5989 -2.8903
  556MOL0     H73360  -1.099   4.955   6.386 -0.4267 -0.3268  1.9833
  556MOL0     H73361  -1.104   4.788   6.435  0.5600  0.9920  0.2149
  556MOL0     H73362  -1.313   4.866   6.297 -0.1760 -0.1682 -1.8867
  556MOL0     H73363  -1.216   4.730   6.226  3.3396 -1.1668  1.9787
  556MOL0     H73364  -1.162   5.021   6.171  1.2374 -1.7157 -1.0006
  556MOL0     H73365  -1.135   4.896   6.053  0.0777 -0.0790 -0.4552
  556MOL0     H73366  -1.321   5.066   6.014  2.0333  0.4546  0.8954
  556MOL0     H73367  -1.416   4.975   6.135 -0.4856 -1.0627 -0.1642
  556MOL0     H73368  -1.408   4.783   6.027  0.3169 -0.2371 -0.9188
  556MOL0     H73369  -1.297   4.834   5.889 -2.7089 -1.2581 -3.0951
  556MOL0     H73370  -1.571   4.921   5.943  0.1423 -1.2616 -0.0740
  556MOL0     H73371  -1.466   5.007   5.827 -0.5383  1.6689  3.1492
  556MOL0     H73372  -1.499   4.831   5.665 -0.8932  3.8876 -0.3347
  556MOL0     H73373  -1.658   4.832   5.734 -0.5082  0.7798  1.5382
  556MOL0     H73374  -0.728   4.804   6.163 -0.3030 -0.0136  0.3590
  556MOL0     H73375  -0.516   4.684   6.162 -1.4949  0.5363 -1.2032
  556MOL0     H73376  -0.105   4.708   6.380 -0.6240  1.0671 -3.5811
  556MOL0     H73377   0.117   4.631   6.409 -1.1884 -0.0021  3.0345
  556MOL0     H73378   0.649   5.120   5.515 -1.3459 -0.2427  0.9167
  556MOL0     H73379   0.419   5.026   5.576  1.7705  1.4927  1.6907
  556MOL0     H73380   0.097   4.856   5.567 -0.8138 -0.7607 -0.9763
  556MOL0     H73381  -0.130   4.819   5.574 -0.5760 -0.0789  0.2958
  556MOL0     H73382  -0.283   4.600   5.819 -4.9497  1.0962  1.0258
  556MOL0     H73383  -0.291   4.428   5.753 -0.4309 -0.1014 -1.8812
  556MOL0     H73384  -0.469   4.669   5.748  1.6523  0.3592  3.7907
  556MOL0     H73385  -0.505   4.516   5.655 -0.3081  0.2750  0.1419
  556MOL0     H73386  -0.457   4.476   5.952  1.5881 -2.0293 -1.0824
  556MOL0     H73387  -0.577   4.417   5.840 -1.8787  0.9641  0.3040
  556MOL0     H73388  -0.654   4.561   6.032 -0.9758  1.0787  0.9802
  556MOL0     H73389  -0.590   4.703   5.962  1.1468 -1.2073  2.8931
  556MOL0     H73390  -0.922   4.626   5.713  0.8797  0.7971 -1.0592
  556MOL0     H73391  -0.084   4.410   5.704  1.2509  0.9293  4.0230
  556MOL0     H73392   0.178   4.446   5.669  1.1236 -0.5623 -1.3060
  557MOL0     O73393   4.873   7.382   7.012 -0.2821 -0.6940 -0.4197
  557MOL0     C73394   4.868   7.390   6.897  0.2071 -0.2587  1.3391
  557MOL0     O73395   4.753   7.417   6.824  0.4653 -0.0173 -1.3506
  557MOL0     C73396   4.628   7.438   6.889  0.0119 -0.8382  0.1106
  557MOL0     C73397   4.605   7.533   6.998  0.1560  0.1171 -0.0364
  557MOL0     C73398   4.466   7.557   7.036  0.0744 -0.3223 -0.2575
  557MOL0     C73399   4.361   7.503   6.962 -0.7571 -0.0573  1.1712
  557MOL0     O73400   4.232   7.552   6.978  0.9944 -0.0715  0.4011
  557MOL0     C73401   4.113   7.475   6.952  0.0269 -0.2494 -0.7369
  557MOL0     C73402   4.099   7.341   7.019  1.0956  0.5262  0.0659
  557MOL0     C73403   3.947   7.293   7.008 -0.6593 -0.2406 -0.3246
  557MOL0     C73404   3.924   7.161   7.077  0.1637 -0.2546 -0.8444
  557MOL0     C73405   4.000   7.041   7.023  0.5140  0.4840  0.1751
  557MOL0     C73406   3.938   6.921   7.091 -0.5174 -0.3466 -0.2229
  557MOL0     C73407   4.016   6.795   7.043 -0.5790 -0.4504 -0.2030
  557MOL0     C73408   3.933   6.664   7.060 -0.0901  0.2322 -0.3009
  557MOL0     N73409   3.801   6.670   6.998 -0.2500  0.5741  0.7483
  557MOL0     C73410   3.786   6.701   6.865 -0.2856 -0.0599 -0.1636
  557MOL0     C73411   3.652   6.674   6.845  0.9030 -0.8887 -0.2766
  557MOL0     C73412   3.588   6.667   6.711  0.5648 -1.0737  0.3854
  557MOL0     C73413   3.447   6.719   6.721 -0.3486 -0.3183  0.3569
  557MOL0     C73414   3.385   6.697   6.585  1.0235  1.6159 -0.1380
  557MOL0     C73415   3.245   6.738   6.567 -0.1509  0.2038 -0.3049
  557MOL0     O73416   3.156   6.680   6.654  0.3484 -0.2072  0.3068
  557MOL0     C73417   3.021   6.729   6.659 -0.6351  0.1318 -0.8978
  557MOL0     C73418   2.943   6.668   6.754  0.1420  0.0845  0.9189
  557MOL0     C73419   2.815   6.715   6.780  0.3933 -0.3993  0.0204
  557MOL0     C73420   2.763   6.825   6.712  0.4026 -0.5742  0.2835
  557MOL0     C73421   2.636   6.881   6.747  0.6652  0.0522 -0.1443
  557MOL0     O73422   2.529   6.794   6.756  0.2099 -0.5303 -0.1947
  557MOL0     C73423   2.394   6.822   6.771 -0.4473  0.9450 -0.0925
  557MOL0     C73424   2.354   6.935   6.837  0.4823  0.1046  0.4299
  557MOL0     C73425   2.217   6.976   6.831  0.4054  0.8975  0.3408
  557MOL0     C73426   2.127   6.888   6.772  1.4354  0.6737 -0.2810
  557MOL0     O73427   1.990   6.933   6.760  0.4679  0.7130 -0.3707
  557MOL0     C73428   1.967   7.023   6.645  0.0805  0.5728 -0.6170
  557MOL0     C73429   1.831   7.096   6.663 -0.5977  0.7862  0.8338
  557MOL0     C73430   1.708   7.006   6.631 -0.8538  0.0491 -0.0390
  557MOL0     C73431   1.609   7.094   6.574  0.4416 -1.6489  0.8672
  557MOL0     C73432   1.479   7.028   6.543 -0.1183  0.3940 -0.0119
  557MOL0     C73433   1.375   7.134   6.506 -1.1978  0.9209  1.3001
  557MOL0     C73434   1.229   7.085   6.463 -0.7325  0.2352 -0.2286
  557MOL0     C73435   1.151   7.195   6.398  0.0860 -0.4217 -0.3463
  557MOL0    Cl73436   1.002   7.142   6.306  0.1341  0.0892 -0.4776
  557MOL0     C73437   2.157   6.758   6.730 -0.5259 -0.1286 -0.2192
  557MOL0     C73438   2.295   6.728   6.731  0.5450 -0.1500 -1.3657
  557MOL0     O73439   2.631   6.997   6.765 -0.5586 -0.0110 -0.1720
  557MOL0     C73440   2.844   6.889   6.603 -0.2466  0.2696 -0.2557
  557MOL0     C73441   2.976   6.845   6.596 -0.4088 -0.3133  0.1956
  557MOL0     N73442   3.592   6.633   6.969  0.2523  0.2931  0.4720
  557MOL0     N73443   3.685   6.634   7.053 -0.1791  0.6816 -0.0508
  557MOL0     C73444   4.384   7.419   6.858 -1.4339  0.5933  0.2531
  557MOL0     C73445   4.517   7.399   6.820  0.4679  0.5974 -0.0950
  557MOL0     C73446   4.990   7.397   6.814 -0.9060  0.2384 -0.8542
  557MOL0     C73447   5.107   7.448   6.878 -0.2626  1.0538 -0.0101
  557MOL0     C73448   5.222   7.474   6.793  0.5667  0.2365 -0.6780
  557MOL0     C73449   5.210   7.441   6.656 -0.4079  0.6931  0.8748
  557MOL0     O73450   5.300   7.507   6.574  0.1880  0.2277  0.0881
  557MOL0     C73451   5.346   7.424   6.470 -0.2909  0.4596 -0.5570
  557MOL0     C73452   5.435   7.308   6.528 -0.0364 -0.1542 -0.0770
  557MOL0     C73453   5.587   7.340   6.529 -0.3932 -0.5968  0.3974
  557MOL0     C73454   5.631   7.433   6.640 -0.0720 -0.0114 -1.0236
  557MOL0     C73455   5.617   7.373   6.776 -0.0435  0.1566 -0.0204
  557MOL0     C73456   5.614   7.307   6.874  0.3927  0.7623 -0.4830
  557MOL0     C73457   5.091   7.383   6.599  0.3820  0.4075  0.3352
  557MOL0     C73458   4.985   7.363   6.683  0.0524  0.0938  0.5673
  557MOL0     H73459   4.674   7.589   7.060 -1.0647 -0.0713  1.5739
  557MOL0     H73460   4.448   7.628   7.116 -2.6247 -1.8030  0.5800
  557MOL0     H73461   4.092   7.475   6.845 -0.6500 -0.3539 -0.6079
  557MOL0     H73462   4.032   7.535   6.995  2.9333  3.0795  0.6081
  557MOL0     H73463   4.129   7.360   7.122 -0.4492  2.8856  0.1493
  557MOL0     H73464   4.166   7.274   6.964 -0.0547  1.1555 -2.2674
  557MOL0     H73465   3.913   7.269   6.907 -3.1925  0.8489  0.1795
  557MOL0     H73466   3.879   7.369   7.048  2.4212  1.7930  1.4798
  557MOL0     H73467   3.941   7.173   7.184 -1.8996 -1.4113 -0.3254
  557MOL0     H73468   3.818   7.133   7.079 -0.1918  0.9311 -1.8401
  557MOL0     H73469   4.108   7.055   7.035  0.8913  2.2779 -3.6979
  557MOL0     H73470   3.991   7.020   6.916 -1.5651 -0.6126  0.5190
  557MOL0     H73471   3.833   6.910   7.063 -0.5135  1.2598 -0.9749
  557MOL0     H73472   3.946   6.932   7.200 -3.0295 -2.5937  0.3054
  557MOL0     H73473   4.028   6.807   6.935 -0.6241  3.8447  0.1120
  557MOL0     H73474   4.111   6.784   7.095  0.2936  0.7307 -1.5018
  557MOL0     H73475   3.930   6.635   7.166 -0.0927  0.6109 -0.1952
  557MOL0     H73476   3.993   6.588   7.010 -1.2750 -0.5158 -0.6282
  557MOL0     H73477   3.856   6.738   6.791  2.5233 -0.6894  1.9988
  557MOL0     H73478   3.588   6.562   6.680 -1.0093 -0.7834 -0.7346
  557MOL0     H73479   3.643   6.732   6.642  0.0601  2.2813  2.9366
  557MOL0     H73480   3.451   6.822   6.757  0.8648 -1.2825  3.2945
  557MOL0     H73481   3.391   6.653   6.789 -1.5220 -0.8246 -1.0616
  557MOL0     H73482   3.444   6.742   6.504  1.0700 -3.3709 -3.3072
  557MOL0     H73483   3.384   6.589   6.568 -3.0710  1.3874  0.5404
  557MOL0     H73484   3.211   6.725   6.464  0.1290 -0.4323 -0.3195
  557MOL0     H73485   3.251   6.845   6.591  0.9615 -0.2505  1.6865
  557MOL0     H73486   2.985   6.586   6.812  2.9421 -2.0087 -3.5494
  557MOL0     H73487   2.749   6.673   6.855  1.4643 -0.2652  1.0574
  557MOL0     H73488   2.418   6.994   6.902  0.6053  0.4664 -0.0148
  557MOL0     H73489   2.197   7.067   6.886  1.9861  1.6315 -0.2159
  557MOL0     H73490   1.970   6.955   6.559  2.8690 -2.0072  1.3213
  557MOL0     H73491   2.048   7.096   6.641  1.6465 -1.1311 -2.7296
  557MOL0     H73492   1.823   7.180   6.593 -1.4425  1.1065  1.3086
  557MOL0     H73493   1.823   7.147   6.759  1.6750  0.4632  1.2455
  557MOL0     H73494   1.660   6.950   6.712  0.0764 -2.3437 -1.0205
  557MOL0     H73495   1.726   6.929   6.555  1.6488  0.9753 -0.4841
  557MOL0     H73496   1.600   7.164   6.657  1.4800 -2.2868  1.5440
  557MOL0     H73497   1.642   7.149   6.485 -2.5807 -0.8799  0.1369
  557MOL0     H73498   1.447   6.959   6.621 -1.7723 -0.0079 -1.0068
  557MOL0     H73499   1.508   6.967   6.457  2.8649  1.8737 -0.2087
  557MOL0     H73500   1.420   7.193   6.425 -1.1984  2.2442  2.2337
  557MOL0     H73501   1.370   7.199   6.593 -0.5386  0.1419  1.9334
  557MOL0     H73502   1.253   7.007   6.389  1.8723  0.4124  0.3372
  557MOL0     H73503   1.178   7.035   6.546 -0.1240  0.3832  0.2405
  557MOL0     H73504   1.216   7.239   6.322 -0.6689 -0.7543 -1.2052
  557MOL0     H73505   1.117   7.269   6.470  0.2762 -0.6884  0.0235
  557MOL0     H73506   2.080   6.692   6.692 -0.2166 -0.0295 -1.0333
  557MOL0     H73507   2.327   6.629   6.700 -3.1324 -3.0126  2.7394
  557MOL0     H73508   2.832   6.983   6.550  0.7418  1.9331  2.2712
  557MOL0     H73509   3.040   6.896   6.525 -0.9485 -3.7234 -3.0965
  557MOL0     H73510   4.313   7.380   6.786 -0.1574  2.3249 -2.1117
  557MOL0     H73511   4.539   7.353   6.724  0.6149 -2.4673  1.2614
  557MOL0     H73512   5.111   7.478   6.982  2.6181  0.4288  0.1498
  557MOL0     H73513   5.316   7.509   6.834  0.9478 -0.2648 -1.1210
  557MOL0     H73514   5.409   7.480   6.400  1.9042 -0.9525  0.1904
  557MOL0     H73515   5.264   7.387   6.408  0.1413  0.2466 -1.0134
  557MOL0     H73516   5.398   7.274   6.625 -2.0151 -1.4321 -1.1914
  557MOL0     H73517   5.420   7.219   6.465  2.6152 -0.8722  0.1778
  557MOL0     H73518   5.613   7.393   6.436 -0.3978 -1.1567  0.0734
  557MOL0     H73519   5.644   7.246   6.529  1.0033  0.1816  2.3442
  557MOL0     H73520   5.739   7.445   6.623 -0.0267 -0.4167 -1.0299
  557MOL0     H73521   5.583   7.529   6.621  0.5595  0.5710  0.1926
  557MOL0     H73522   5.624   7.243   6.959 -2.3062  0.3158 -0.4134
  557MOL0     H73523   5.078   7.344   6.499 -0.7100 -1.0330  1.0125
  557MOL0     H73524   4.889   7.334   6.643 -2.6028  2.5275  4.4210
  558MOL0     O73525   0.297   6.558   1.798  0.3966  0.2117  0.4462
  558MOL0     C73526   0.185   6.605   1.817 -0.4261  0.0063 -0.4264
  558MOL0     O73527   0.097   6.661   1.722 -0.2886  0.2670  0.4509
  558MOL0     C73528   0.150   6.683   1.598 -0.2142 -1.1863  0.7069
  558MOL0     C73529   0.267   6.755   1.579 -0.3650 -0.9789 -0.5082
  558MOL0     C73530   0.310   6.774   1.449  0.2579 -0.3033  0.6056
  558MOL0     C73531   0.238   6.715   1.338 -0.1386  0.7919  0.7748
  558MOL0     O73532   0.280   6.712   1.200  0.1143  0.1357 -1.0743
  558MOL0     C73533   0.361   6.817   1.149  0.6223  0.3247 -0.2589
  558MOL0     C73534   0.412   6.788   1.006  0.2674  0.8815 -0.5354
  558MOL0     C73535   0.545   6.701   1.009  0.3602 -0.2421 -0.4926
  558MOL0     C73536   0.610   6.689   0.874  0.6690 -0.0975 -0.6138
  558MOL0     C73537   0.675   6.555   0.857  0.4940 -0.0037  0.2187
  558MOL0     C73538   0.806   6.533   0.941 -0.0144 -0.7739 -0.1418
  558MOL0     C73539   0.875   6.388   0.937  0.0212  0.0140 -0.4064
  558MOL0     C73540   0.861   6.297   1.076 -0.3099 -0.9325 -0.6543
  558MOL0     N73541   0.726   6.264   1.099 -0.2056 -0.9289  0.3521
  558MOL0     C73542   0.629   6.340   1.167 -0.7934  0.0278 -0.5511
  558MOL0     C73543   0.511   6.283   1.137  0.5310  0.2475 -0.7156
  558MOL0     C73544   0.379   6.336   1.182  0.6497  1.0010  0.7947
  558MOL0     C73545   0.264   6.245   1.147 -0.5304  0.0066 -0.3776
  558MOL0     C73546   0.135   6.334   1.160 -0.1137  0.3947 -0.1275
  558MOL0     C73547   0.024   6.237   1.182 -0.0771  0.4843 -0.1739
  558MOL0     O73548  -0.102   6.304   1.203  0.5453  0.4848 -0.7809
  558MOL0     C73549  -0.221   6.235   1.199 -1.0566 -0.3484 -0.2306
  558MOL0     C73550  -0.235   6.109   1.133  0.0433 -0.1990  0.0139
  558MOL0     C73551  -0.349   6.035   1.150  0.6105 -0.6730 -0.2862
  558MOL0     C73552  -0.449   6.087   1.230  0.2563 -0.1270  0.1971
  558MOL0     C73553  -0.574   6.014   1.252 -0.1583 -0.1536  0.7178
  558MOL0     O73554  -0.689   6.094   1.257 -0.1051 -0.1230 -0.0518
  558MOL0     C73555  -0.812   6.035   1.280  0.2879 -0.3423 -0.3715
  558MOL0     C73556  -0.912   6.076   1.197  1.1151  0.0725 -0.4439
  558MOL0     C73557  -1.048   6.031   1.214 -0.6226  0.5167  0.0166
  558MOL0     C73558  -1.078   5.925   1.302 -0.4964 -0.3250  0.6067
  558MOL0     O73559  -1.205   5.867   1.324 -0.3805  0.0385  0.5214
  558MOL0     C73560  -1.255   5.849   1.459 -0.4690  0.4762  0.6073
  558MOL0     C73561  -1.403   5.841   1.470  0.9492 -0.0514  0.3715
  558MOL0     C73562  -1.446   5.698   1.513  1.2042 -0.3663  0.2770
  558MOL0     C73563  -1.389   5.587   1.418  0.5836 -0.2126 -0.2753
  558MOL0     C73564  -1.423   5.602   1.270 -1.5237 -0.5204  0.1844
  558MOL0     C73565  -1.573   5.609   1.249 -0.5818  0.0482 -1.1528
  558MOL0     C73566  -1.604   5.596   1.101  0.0914  0.2575 -0.0496
  558MOL0     C73567  -1.723   5.673   1.030 -0.1360  0.4429 -0.6641
  558MOL0    Cl73568  -1.870   5.590   1.070 -0.1446 -0.0011 -0.1180
  558MOL0     C73569  -0.967   5.876   1.382 -0.7334 -0.0701 -0.0560
  558MOL0     C73570  -0.837   5.939   1.375 -0.5982 -0.5629  0.5159
  558MOL0     O73571  -0.574   5.890   1.256 -1.1178  0.5270  0.1173
  558MOL0     C73572  -0.439   6.218   1.283  0.3980  0.3115  0.1675
  558MOL0     C73573  -0.326   6.286   1.268  1.3655  0.5780  0.1255
  558MOL0     N73574   0.532   6.165   1.072  0.1976  0.4586  0.4913
  558MOL0     N73575   0.662   6.154   1.048  0.1649 -0.3536 -0.9221
  558MOL0     C73576   0.114   6.654   1.364  0.4896  0.5578  0.6760
  558MOL0     C73577   0.075   6.638   1.493  0.6134 -0.3355  0.2196
  558MOL0     C73578   0.128   6.581   1.950 -0.0371  0.2234  1.0913
  558MOL0     C73579   0.200   6.521   2.050 -0.5096 -0.2821 -0.1678
  558MOL0     C73580   0.160   6.530   2.185 -0.3712 -0.1757  0.3038
  558MOL0     C73581   0.032   6.588   2.214 -0.4523  0.5994 -0.8616
  558MOL0     O73582  -0.008   6.578   2.349  0.2582 -0.7678 -0.5129
  558MOL0     C73583  -0.124   6.642   2.409 -0.2029 -0.1688 -0.0872
  558MOL0     C73584  -0.118   6.798   2.409 -0.6778 -0.3771  0.5424
  558MOL0     C73585   0.001   6.844   2.489 -0.1495 -0.2482  0.4273
  558MOL0     C73586   0.023   6.991   2.478  0.9933 -0.0181 -0.1850
  558MOL0     C73587  -0.068   7.058   2.568 -0.3728  0.2892 -0.3992
  558MOL0     C73588  -0.141   7.114   2.641  0.4108  0.7667 -0.9057
  558MOL0     C73589  -0.055   6.627   2.108 -0.5167 -1.3365  0.1617
  558MOL0     C73590  -0.003   6.626   1.977  0.3595  0.1391 -0.9554
  558MOL0     H73591   0.313   6.802   1.666 -0.1079  0.1455 -1.2268
  558MOL0     H73592   0.405   6.827   1.445 -0.9188  1.8242 -0.7128
  558MOL0     H73593   0.451   6.835   1.208  2.2795 -0.3558 -2.4659
  558MOL0     H73594   0.309   6.912   1.134 -2.3598 -1.3545 -1.4536
  558MOL0     H73595   0.434   6.886   0.963 -3.4176  2.0803 -0.0138
  558MOL0     H73596   0.337   6.732   0.950 -0.7473  1.5309  0.1364
  558MOL0     H73597   0.512   6.600   1.035 -0.9296 -0.1810 -1.7852
  558MOL0     H73598   0.623   6.720   1.083 -1.3780 -1.6708  1.8092
  558MOL0     H73599   0.530   6.719   0.806  1.1533 -0.9116 -1.5760
  558MOL0     H73600   0.674   6.776   0.852 -1.2851  1.6576  0.3127
  558MOL0     H73601   0.698   6.551   0.750  0.2986  0.7822  0.1462
  558MOL0     H73602   0.601   6.478   0.881 -0.3961  0.3160 -1.4002
  558MOL0     H73603   0.781   6.544   1.047  1.1862  1.4686 -0.0310
  558MOL0     H73604   0.888   6.603   0.920 -0.0836 -1.5500 -3.6740
  558MOL0     H73605   0.832   6.328   0.856  0.8290  1.5920 -2.0897
  558MOL0     H73606   0.984   6.403   0.934  0.7303 -3.0381  2.9071
  558MOL0     H73607   0.907   6.362   1.152  2.6442 -1.9218 -1.4609
  558MOL0     H73608   0.931   6.215   1.057  0.6000 -0.3351 -0.0058
  558MOL0     H73609   0.645   6.430   1.225 -0.6412 -0.1683 -0.2898
  558MOL0     H73610   0.350   6.434   1.143 -2.7051 -1.1547 -2.8820
  558MOL0     H73611   0.374   6.340   1.291  0.7090 -0.8206  0.8908
  558MOL0     H73612   0.264   6.158   1.214 -2.3335 -1.8427 -2.6020
  558MOL0     H73613   0.265   6.192   1.051  1.8954  0.2690 -0.5536
  558MOL0     H73614   0.137   6.400   1.247 -1.2379  1.7624 -1.1020
  558MOL0     H73615   0.119   6.390   1.067  1.3267  1.1337  0.0400
  558MOL0     H73616   0.039   6.166   1.264  2.0550 -0.4343 -1.2903
  558MOL0     H73617   0.019   6.185   1.086 -1.8027 -0.0201  0.1529
  558MOL0     H73618  -0.157   6.073   1.066 -1.1247  0.9909 -2.1051
  558MOL0     H73619  -0.359   5.931   1.119 -0.8309 -0.9180  0.8856
  558MOL0     H73620  -0.891   6.156   1.128  0.0635  1.7261  1.0621
  558MOL0     H73621  -1.133   6.058   1.151  0.9110 -0.5406 -2.6982
  558MOL0     H73622  -1.222   5.938   1.513  1.2745  0.8032 -0.9152
  558MOL0     H73623  -1.203   5.767   1.510 -1.2920  1.4364  3.1484
  558MOL0     H73624  -1.445   5.876   1.375 -0.3099  1.3583  1.4015
  558MOL0     H73625  -1.425   5.916   1.546  0.2330 -1.2719  1.4030
  558MOL0     H73626  -1.555   5.689   1.518  0.9600  2.0139  0.8951
  558MOL0     H73627  -1.411   5.677   1.615 -1.3566  2.8011  2.0072
  558MOL0     H73628  -1.282   5.564   1.430 -0.0603 -2.9408  1.1788
  558MOL0     H73629  -1.433   5.492   1.450 -1.2485  0.5867 -0.3083
  558MOL0     H73630  -1.387   5.516   1.213 -1.9427  0.0238 -0.9339
  558MOL0     H73631  -1.379   5.690   1.222 -3.3679  0.9377  1.0310
  558MOL0     H73632  -1.623   5.699   1.287  1.3010  0.8398 -0.4411
  558MOL0     H73633  -1.606   5.517   1.299  1.3247  0.2877  0.6793
  558MOL0     H73634  -1.517   5.641   1.053  1.4375  2.1264  3.7755
  558MOL0     H73635  -1.612   5.488   1.082 -0.7601  0.4192 -0.7095
  558MOL0     H73636  -1.718   5.668   0.921  1.1240 -0.0863 -0.5928
  558MOL0     H73637  -1.702   5.773   1.069  2.5732 -0.3818  0.2470
  558MOL0     H73638  -0.978   5.794   1.452  2.4708 -0.3723  0.2552
  558MOL0     H73639  -0.746   5.933   1.435 -0.5325  3.0105  1.0168
  558MOL0     H73640  -0.526   6.253   1.339 -1.4848  0.3255 -2.5408
  558MOL0     H73641  -0.334   6.382   1.318 -4.1521 -0.5491  2.1309
  558MOL0     H73642   0.052   6.620   1.282 -0.3633  1.2399  1.0282
  558MOL0     H73643  -0.012   6.578   1.520  1.3982 -1.2061  0.8590
  558MOL0     H73644   0.298   6.483   2.022  1.1142  3.8303 -0.8853
  558MOL0     H73645   0.227   6.507   2.267 -1.0855  3.2763  2.0665
  558MOL0     H73646  -0.125   6.607   2.513 -0.7712  1.7024  0.5733
  558MOL0     H73647  -0.221   6.624   2.361 -0.3654  3.1544 -1.2400
  558MOL0     H73648  -0.109   6.836   2.307  3.3350  1.6608  1.4177
  558MOL0     H73649  -0.209   6.834   2.457  0.4741 -0.0630  2.6343
  558MOL0     H73650   0.084   6.785   2.449 -1.2373 -1.5821  0.0591
  558MOL0     H73651   0.002   6.808   2.592  1.0130 -1.3080  0.0635
  558MOL0     H73652   0.126   7.012   2.510  0.8913  1.0462 -0.5099
  558MOL0     H73653   0.011   7.016   2.372 -1.9926 -5.1515 -1.3858
  558MOL0     H73654  -0.198   7.176   2.707  1.7014  0.4642  0.5408
  558MOL0     H73655  -0.150   6.667   2.140 -0.0190 -0.1291  0.2105
  558MOL0     H73656  -0.071   6.659   1.900  0.8826  2.5791 -0.4668
  559MOL0     O73657   0.653   4.886   7.973 -0.2831  0.9707 -0.1045
  559MOL0     C73658   0.713   4.943   8.063  0.1298 -0.8207  0.0454
  559MOL0     O73659   0.651   5.016   8.162 -0.3479  0.0843 -0.0581
  559MOL0     C73660   0.516   5.012   8.172 -1.4416 -0.2250 -0.0796
  559MOL0     C73661   0.452   4.901   8.235 -0.4381 -0.8151 -0.5057
  559MOL0     C73662   0.313   4.905   8.260 -0.3925  0.8396  0.3853
  559MOL0     C73663   0.236   5.009   8.210  0.8110  0.1586 -0.6813
  559MOL0     O73664   0.102   5.024   8.208 -0.3863 -0.3124  0.1759
  559MOL0     C73665   0.023   4.911   8.234  0.8591 -0.4223 -0.6830
  559MOL0     C73666  -0.120   4.959   8.246  0.9961  1.1653  0.2868
  559MOL0     C73667  -0.212   4.837   8.266 -0.0020  0.5859  0.7789
  559MOL0     C73668  -0.359   4.872   8.269 -0.1846  0.6234  1.2570
  559MOL0     C73669  -0.454   4.748   8.295 -0.0499 -0.0826  0.0501
  559MOL0     C73670  -0.598   4.762   8.254  0.3586 -0.2973  0.6686
  559MOL0     C73671  -0.657   4.864   8.342 -0.0565 -0.2685  1.0262
  559MOL0     C73672  -0.799   4.901   8.304 -0.1816 -0.3159 -0.6321
  559MOL0     N73673  -0.902   4.799   8.311  0.6549  0.4315 -0.4036
  559MOL0     C73674  -0.954   4.723   8.208 -1.2527 -0.4205 -0.5531
  559MOL0     C73675  -1.030   4.631   8.260  0.8198  0.9834  0.4859
  559MOL0     C73676  -1.114   4.536   8.177 -0.4822  0.5684 -0.5231
  559MOL0     C73677  -1.260   4.540   8.228 -0.4383  0.2326 -0.1720
  559MOL0     C73678  -1.330   4.670   8.189 -0.2551  0.0500 -0.3236
  559MOL0     C73679  -1.479   4.666   8.225 -0.3292 -0.3529  0.4240
  559MOL0     O73680  -1.533   4.778   8.157  0.0517  0.8307  1.4765
  559MOL0     C73681  -1.632   4.845   8.218 -0.7706 -0.4456 -0.4826
  559MOL0     C73682  -1.638   4.978   8.184  0.2125  0.1601 -0.0591
  559MOL0     C73683  -1.757   5.043   8.224 -0.5685 -0.1041  0.8141
  559MOL0     C73684  -1.849   5.007   8.317 -0.0982  0.0085  0.3323
  559MOL0     C73685  -1.937   5.111   8.380  0.1932  1.0672  0.1972
  559MOL0     O73686  -1.930   5.236   8.338 -0.5457 -0.0708  0.0339
  559MOL0     C73687  -2.014   5.335   8.390 -0.0442 -0.9291  0.3951
  559MOL0     C73688  -2.088   5.331   8.509 -0.2179  0.2294  0.3643
  559MOL0     C73689  -2.179   5.426   8.552  0.5142  0.6029 -0.8309
  559MOL0     C73690  -2.207   5.535   8.466  0.3544 -0.1708  0.3329
  559MOL0     O73691  -2.313   5.627   8.487 -0.6192  0.2734 -0.8175
  559MOL0     C73692  -2.380   5.614   8.608  0.3092 -0.9209 -0.7050
  559MOL0     C73693  -2.477   5.740   8.617 -0.2446  1.2350  0.7382
  559MOL0     C73694  -2.590   5.730   8.519 -0.0765  0.8164 -0.0903
  559MOL0     C73695  -2.692   5.844   8.561  0.1427  0.0154 -0.2231
  559MOL0     C73696  -2.819   5.827   8.472  0.6385  0.5169  0.7038
  559MOL0     C73697  -2.794   5.898   8.340 -0.3837  0.3539 -0.5658
  559MOL0     C73698  -2.919   5.942   8.257 -0.1267 -0.1788 -0.2314
  559MOL0     C73699  -2.877   6.006   8.118  0.2826  0.8097 -0.9356
  559MOL0    Cl73700  -2.843   6.176   8.142 -0.2383 -0.3932 -0.3301
  559MOL0     C73701  -2.139   5.551   8.346 -0.0442  0.2594  0.4661
  559MOL0     C73702  -2.041   5.451   8.312 -0.4737  0.1082 -0.0518
  559MOL0     O73703  -2.021   5.053   8.451 -0.3252 -0.3460  0.1036
  559MOL0     C73704  -1.833   4.878   8.360 -0.1904 -0.4330 -0.9210
  559MOL0     C73705  -1.728   4.786   8.317  0.0180 -0.1508 -0.2199
  559MOL0     N73706  -1.041   4.664   8.388 -0.1399  0.2042  0.9297
  559MOL0     N73707  -0.957   4.749   8.426  0.5153 -0.3050 -1.4479
  559MOL0     C73708   0.305   5.117   8.145  0.7170 -0.8281  0.2950
  559MOL0     C73709   0.440   5.122   8.127 -0.4792  0.0725 -0.9651
  559MOL0     C73710   0.856   4.929   8.061 -0.0238  0.1710 -0.3172
  559MOL0     C73711   0.943   5.033   8.101 -0.6439  0.4607 -0.8974
  559MOL0     C73712   1.075   5.035   8.065  1.1787  0.4022 -0.7092
  559MOL0     C73713   1.141   4.925   8.006  0.5133  0.4368  0.0207
  559MOL0     O73714   1.264   4.910   7.960  0.0606 -0.2956  0.7594
  559MOL0     C73715   1.345   5.028   7.932  0.0776 -0.0454  0.3580
  559MOL0     C73716   1.442   5.061   8.055 -0.3638 -0.2420  0.4760
  559MOL0     C73717   1.531   5.188   8.033  0.1693  0.7684 -0.3107
  559MOL0     C73718   1.611   5.203   8.166 -0.2663 -0.3057 -0.1915
  559MOL0     C73719   1.742   5.135   8.175 -0.9387 -0.1424  0.5970
  559MOL0     C73720   1.857   5.093   8.190  0.9746  0.0580 -0.6401
  559MOL0     C73721   1.049   4.816   7.985 -0.2968  0.0155  0.3268
  559MOL0     C73722   0.911   4.816   8.003 -0.4882 -0.9195 -0.0662
  559MOL0     H73723   0.515   4.835   8.293 -2.2038 -3.0691 -1.0391
  559MOL0     H73724   0.266   4.821   8.311 -0.3404 -0.9795 -2.3580
  559MOL0     H73725   0.045   4.881   8.337  3.8080  1.4925 -0.6576
  559MOL0     H73726   0.043   4.834   8.159  0.3136 -1.8715  0.5904
  559MOL0     H73727  -0.140   5.016   8.155  4.2980  1.6035 -0.2988
  559MOL0     H73728  -0.133   5.023   8.334  3.3414  0.1390  1.4744
  559MOL0     H73729  -0.183   4.780   8.355  0.1693 -0.8702 -0.1681
  559MOL0     H73730  -0.197   4.758   8.192 -2.8161  0.1275  0.5904
  559MOL0     H73731  -0.367   4.953   8.342  1.0484 -0.4040  2.5757
  559MOL0     H73732  -0.394   4.911   8.173 -1.9541 -0.6610  1.3308
  559MOL0     H73733  -0.429   4.706   8.393 -0.5040 -1.1293 -0.2656
  559MOL0     H73734  -0.405   4.675   8.230 -0.1339  0.3453 -0.5030
  559MOL0     H73735  -0.662   4.673   8.247 -0.0166 -0.1406  1.8782
  559MOL0     H73736  -0.595   4.802   8.152  0.2009 -3.1812 -0.5800
  559MOL0     H73737  -0.665   4.818   8.441 -0.6789 -1.2860  0.5272
  559MOL0     H73738  -0.587   4.948   8.345 -0.7357  0.3559  0.1189
  559MOL0     H73739  -0.794   4.933   8.200 -2.6051  1.8727 -0.1641
  559MOL0     H73740  -0.822   4.987   8.367  1.9680  2.4879 -3.4032
  559MOL0     H73741  -0.929   4.749   8.106 -0.8743  2.6517  0.2479
  559MOL0     H73742  -1.082   4.433   8.195 -2.1669  0.1316  0.2702
  559MOL0     H73743  -1.122   4.558   8.070  1.1188  1.4817 -0.4809
  559MOL0     H73744  -1.267   4.527   8.337  0.0580  1.3903  0.0158
  559MOL0     H73745  -1.300   4.451   8.179  2.5935 -0.6783 -1.2228
  559MOL0     H73746  -1.294   4.758   8.245 -4.3983  0.4323  2.1942
  559MOL0     H73747  -1.312   4.693   8.084  4.0121  0.6460  0.3797
  559MOL0     H73748  -1.514   4.670   8.329 -3.1058  3.4336 -0.4526
  559MOL0     H73749  -1.530   4.577   8.187 -0.5072  0.2569 -0.8313
  559MOL0     H73750  -1.574   5.032   8.115 -4.1978  2.6932 -2.6210
  559MOL0     H73751  -1.764   5.142   8.179 -1.3835 -0.6269 -0.2270
  559MOL0     H73752  -2.072   5.245   8.574 -0.8149  0.5126  0.9078
  559MOL0     H73753  -2.235   5.409   8.643  1.6130 -4.6851 -0.8463
  559MOL0     H73754  -2.312   5.616   8.694 -2.3824 -0.3275  1.5230
  559MOL0     H73755  -2.439   5.522   8.613  1.9513 -1.9404  1.4312
  559MOL0     H73756  -2.426   5.835   8.601 -1.6279  2.5400  3.3473
  559MOL0     H73757  -2.523   5.735   8.716  0.3522 -1.8511  0.9527
  559MOL0     H73758  -2.634   5.630   8.527  2.6141 -0.6093 -1.5696
  559MOL0     H73759  -2.550   5.743   8.418 -3.5136 -0.5765 -1.7885
  559MOL0     H73760  -2.730   5.817   8.660 -0.8250 -1.3126 -0.9447
  559MOL0     H73761  -2.653   5.946   8.550 -1.9190  1.3131  3.0998
  559MOL0     H73762  -2.912   5.855   8.522 -0.0561 -1.7621  0.7976
  559MOL0     H73763  -2.832   5.720   8.454 -1.7714  1.2347 -2.9405
  559MOL0     H73764  -2.737   5.826   8.281  3.3923  1.6573  1.1736
  559MOL0     H73765  -2.719   5.976   8.350  0.9757 -1.1186  1.3534
  559MOL0     H73766  -2.960   5.848   8.218  1.0564 -0.1441 -1.6889
  559MOL0     H73767  -2.992   6.012   8.298 -0.2778 -0.3524 -0.2063
  559MOL0     H73768  -2.966   5.994   8.056 -0.0972  2.3352 -0.7105
  559MOL0     H73769  -2.800   5.948   8.065 -0.7977 -2.4323  0.7443
  559MOL0     H73770  -2.172   5.628   8.278  1.1904 -1.0505 -1.7167
  559MOL0     H73771  -1.990   5.456   8.216  0.2289  0.3698  0.3235
  559MOL0     H73772  -1.895   4.832   8.436  0.0422 -0.2584 -0.6197
  559MOL0     H73773  -1.745   4.683   8.346  1.8393 -0.2839  0.4761
  559MOL0     H73774   0.242   5.200   8.117  1.3965  0.2917  1.8955
  559MOL0     H73775   0.484   5.208   8.079 -2.8789  1.7000 -0.4162
  559MOL0     H73776   0.903   5.130   8.130  1.1044  0.8257  0.4298
  559MOL0     H73777   1.120   5.133   8.081 -0.4847  1.4609 -2.1799
  559MOL0     H73778   1.279   5.114   7.913  0.4671  0.7379  2.2636
  559MOL0     H73779   1.391   5.031   7.833  0.2396  2.0642  0.4427
  559MOL0     H73780   1.370   5.073   8.136 -1.0659 -0.4224 -0.1208
  559MOL0     H73781   1.502   4.969   8.062 -0.7026 -1.0508 -4.1981
  559MOL0     H73782   1.470   5.273   8.003  0.8966  0.9881 -1.2192
  559MOL0     H73783   1.602   5.170   7.952  1.3198  2.8351  0.1554
  559MOL0     H73784   1.641   5.306   8.186  1.1017 -1.0875  2.1274
  559MOL0     H73785   1.559   5.178   8.258  0.9559  4.1034  1.9763
  559MOL0     H73786   1.952   5.051   8.219 -0.1495 -0.0039  3.6160
  559MOL0     H73787   1.095   4.724   7.949 -1.0226  0.1505 -1.0118
  559MOL0     H73788   0.857   4.727   7.973 -2.7499  0.7534 -1.2927
  560MOL0     O73789   0.950  10.876   6.111 -0.1358  0.0261  0.0375
  560MOL0     C73790   1.018  10.791   6.055 -0.6756 -0.4381  0.2025
  560MOL0     O73791   0.985  10.663   6.033  0.2090 -0.1901 -0.0072
  560MOL0     C73792   0.892  10.598   6.114  0.3008 -0.1255  0.2635
  560MOL0     C73793   0.842  10.476   6.082 -0.0880  0.5769  0.3377
  560MOL0     C73794   0.745  10.411   6.157 -1.2345  0.3631  0.2093
  560MOL0     C73795   0.696  10.475   6.268  0.2213 -0.3659  0.2650
  560MOL0     O73796   0.590  10.434   6.346 -0.1709 -0.2144  0.1682
  560MOL0     C73797   0.513  10.316   6.310 -0.0644 -0.1813 -0.1427
  560MOL0     C73798   0.392  10.367   6.230 -0.6088  0.1175  0.6093
  560MOL0     C73799   0.424  10.390   6.076  0.5597 -0.1791 -0.0772
  560MOL0     C73800   0.300  10.433   5.997 -1.1924 -0.9272  0.5929
  560MOL0     C73801   0.321  10.439   5.843  0.0858 -0.3186  0.0670
  560MOL0     C73802   0.181  10.458   5.783  0.6329  0.3612  0.2619
  560MOL0     C73803   0.169  10.505   5.633  0.1768 -0.6568  0.3653
  560MOL0     C73804   0.166  10.660   5.612  0.3713  0.6156 -0.1804
  560MOL0     N73805   0.048  10.719   5.672  0.6271  0.2789 -0.3942
  560MOL0     C73806  -0.084  10.686   5.636  0.5869 -0.7021 -0.2665
  560MOL0     C73807  -0.157  10.768   5.715  0.1675  1.2959 -0.3577
  560MOL0     C73808  -0.309  10.785   5.683 -0.1457  0.0549  1.1377
  560MOL0     C73809  -0.343  10.924   5.626  0.2986 -0.3452  0.2960
  560MOL0     C73810  -0.489  10.946   5.587  0.2608  0.1623 -0.6077
  560MOL0     C73811  -0.565  11.049   5.666 -0.3978 -0.3067 -0.2060
  560MOL0     O73812  -0.689  11.065   5.595 -0.3853 -0.8049 -0.2934
  560MOL0     C73813  -0.801  10.989   5.618 -0.2267 -0.6136  0.4964
  560MOL0     C73814  -0.795  10.883   5.706 -0.0294  0.3368  0.3165
  560MOL0     C73815  -0.913  10.825   5.755  0.3431 -0.1197  0.8387
  560MOL0     C73816  -1.041  10.876   5.720 -0.4795 -0.2771 -1.1288
  560MOL0     C73817  -1.161  10.830   5.779  0.7128 -0.0111 -0.0704
  560MOL0     O73818  -1.280  10.829   5.698 -0.0885  0.1423 -0.2544
  560MOL0     C73819  -1.396  10.788   5.749 -0.4200 -0.1394 -0.0652
  560MOL0     C73820  -1.489  10.756   5.642 -0.3137  0.3173 -0.9467
  560MOL0     C73821  -1.621  10.710   5.680  0.0587  0.1178 -0.3345
  560MOL0     C73822  -1.653  10.690   5.817 -0.2132 -1.4492 -0.1038
  560MOL0     O73823  -1.762  10.632   5.863 -0.5964  0.6474 -0.6833
  560MOL0     C73824  -1.859  10.585   5.776  0.6049 -0.4222  0.2124
  560MOL0     C73825  -1.931  10.457   5.836  0.2020 -0.1624  0.1881
  560MOL0     C73826  -2.049  10.502   5.937 -0.3857  0.2438 -0.6378
  560MOL0     C73827  -1.995  10.591   6.049 -0.4249 -0.1389 -0.3316
  560MOL0     C73828  -2.104  10.609   6.157  0.3762  0.4762 -0.1708
  560MOL0     C73829  -2.043  10.663   6.276 -0.0679  0.1651 -0.2986
  560MOL0     C73830  -2.139  10.673   6.391 -0.5163 -0.2403 -0.3570
  560MOL0     C73831  -2.090  10.753   6.510 -0.1662 -0.5931 -0.3439
  560MOL0    Cl73832  -1.921  10.739   6.544 -0.1237  0.2247 -0.3505
  560MOL0     C73833  -1.565  10.729   5.915  0.2601  0.5564 -1.0415
  560MOL0     C73834  -1.435  10.770   5.883  0.3723 -0.4259  0.0694
  560MOL0     O73835  -1.148  10.796   5.893  0.1933  0.1651  0.0985
  560MOL0     C73836  -1.038  10.978   5.623  0.1429 -1.0334 -0.1299
  560MOL0     C73837  -0.924  11.033   5.569  0.4458 -0.4003  0.4111
  560MOL0     N73838  -0.072  10.842   5.795 -0.2960  0.0367  0.0335
  560MOL0     N73839   0.055  10.808   5.776 -0.2599  1.0476 -0.1336
  560MOL0     C73840   0.747  10.600   6.310 -0.5425 -0.0686 -0.1708
  560MOL0     C73841   0.852  10.653   6.234  0.1944 -0.0818 -0.7293
  560MOL0     C73842   1.150  10.827   5.994  0.2074 -0.2317 -0.0357
  560MOL0     C73843   1.223  10.740   5.927  0.1149  0.6128  0.2578
  560MOL0     C73844   1.351  10.776   5.881 -0.0158  0.0294 -0.1990
  560MOL0     C73845   1.409  10.897   5.920  0.1472 -0.0718 -1.0170
  560MOL0     O73846   1.536  10.947   5.887 -0.3885  1.0701 -0.5596
  560MOL0     C73847   1.624  10.850   5.830 -0.3445 -0.0326 -0.4072
  560MOL0     C73848   1.767  10.904   5.852 -0.5160 -0.0197  0.5044
  560MOL0     C73849   1.880  10.834   5.773  0.2539 -0.5112 -0.4985
  560MOL0     C73850   2.010  10.910   5.733 -0.1256  0.1848  0.3751
  560MOL0     C73851   1.980  11.029   5.654  0.5489  0.3727 -0.5536
  560MOL0     C73852   1.995  11.140   5.599 -0.2289  0.0371 -0.3944
  560MOL0     C73853   1.337  10.985   5.997  0.0935  0.8933  0.4316
  560MOL0     C73854   1.201  10.952   6.028 -0.5370  0.0045  0.3041
  560MOL0     H73855   0.872  10.419   5.995  2.0370  1.1304  0.6529
  560MOL0     H73856   0.712  10.319   6.110 -2.4865  1.8319 -1.9682
  560MOL0     H73857   0.482  10.266   6.402 -0.7023 -1.8405 -1.2277
  560MOL0     H73858   0.569  10.237   6.260 -0.0501  0.0243 -0.4553
  560MOL0     H73859   0.338  10.453   6.271 -3.8032  0.0056 -2.8072
  560MOL0     H73860   0.318  10.287   6.234 -4.8392  3.5734 -0.9600
  560MOL0     H73861   0.473  10.296   6.048 -0.0069  0.1051 -2.1989
  560MOL0     H73862   0.498  10.471   6.071 -0.2085  0.4678 -1.6188
  560MOL0     H73863   0.218  10.361   6.005 -0.6097 -1.4697  1.9416
  560MOL0     H73864   0.256  10.527   6.031 -1.2240 -1.1303  1.1221
  560MOL0     H73865   0.356  10.343   5.805 -3.4651 -2.3495  1.3498
  560MOL0     H73866   0.392  10.514   5.808  1.2226 -2.5054 -2.6620
  560MOL0     H73867   0.126  10.525   5.850  4.0330 -0.7282  4.5967
  560MOL0     H73868   0.126  10.364   5.784  0.7080  0.2611 -1.4865
  560MOL0     H73869   0.258  10.464   5.585  0.4114  0.2224  0.0357
  560MOL0     H73870   0.082  10.462   5.582 -0.0313 -0.9610  0.9686
  560MOL0     H73871   0.176  10.677   5.504  5.2512 -1.6425 -0.3441
  560MOL0     H73872   0.255  10.705   5.656 -0.4159  0.8336  1.2576
  560MOL0     H73873  -0.126  10.613   5.567 -1.3874 -2.4818  2.6075
  560MOL0     H73874  -0.366  10.769   5.775 -0.0220 -2.4416  0.8348
  560MOL0     H73875  -0.350  10.708   5.618  0.3129 -0.1093  1.0401
  560MOL0     H73876  -0.292  10.937   5.530 -1.3051  0.8286 -0.4566
  560MOL0     H73877  -0.312  11.001   5.697  3.4089 -0.6317 -0.6349
  560MOL0     H73878  -0.498  10.955   5.478 -2.7207 -2.2018 -0.6902
  560MOL0     H73879  -0.539  10.849   5.595  0.4637  0.1186  0.2002
  560MOL0     H73880  -0.514  11.143   5.643 -0.0876 -0.6816 -1.1160
  560MOL0     H73881  -0.570  11.039   5.774  0.0101 -1.7202 -0.2953
  560MOL0     H73882  -0.695  10.857   5.740  1.0164  0.6961 -2.2518
  560MOL0     H73883  -0.902  10.746   5.829  0.7416 -1.4620 -0.6015
  560MOL0     H73884  -1.446  10.760   5.543 -0.9884  0.9544 -1.2234
  560MOL0     H73885  -1.683  10.692   5.592 -2.8780  1.3014  1.3605
  560MOL0     H73886  -1.821  10.548   5.680 -0.7662 -0.0637 -0.5025
  560MOL0     H73887  -1.934  10.662   5.756 -0.8506 -1.9690 -0.6466
  560MOL0     H73888  -1.851  10.396   5.881  2.0541  1.0934 -1.2644
  560MOL0     H73889  -1.973  10.397   5.755  0.2367  0.2447 -0.1355
  560MOL0     H73890  -2.108  10.419   5.977 -1.7102 -0.8769 -4.5028
  560MOL0     H73891  -2.115  10.563   5.875  0.9157  1.3707 -0.9586
  560MOL0     H73892  -1.906  10.553   6.099  0.8843  2.5696 -0.4141
  560MOL0     H73893  -1.982  10.693   6.010 -1.4323 -0.3854 -1.3980
  560MOL0     H73894  -2.139  10.508   6.179  0.5233 -0.1185 -2.4089
  560MOL0     H73895  -2.188  10.667   6.117 -0.5536 -0.9182 -0.2972
  560MOL0     H73896  -2.000  10.759   6.245 -0.0972 -0.5460 -2.8001
  560MOL0     H73897  -1.960  10.602   6.312 -1.2290  0.3216  2.9658
  560MOL0     H73898  -2.229  10.725   6.359 -3.3751 -1.4689  4.7071
  560MOL0     H73899  -2.169  10.577   6.433 -0.2479  0.0029  0.4074
  560MOL0     H73900  -2.142  10.724   6.602 -0.0249  2.6098  0.8795
  560MOL0     H73901  -2.113  10.859   6.498  3.7153  0.5129  0.5951
  560MOL0     H73902  -1.603  10.724   6.017  1.9305  3.3609 -0.1813
  560MOL0     H73903  -1.382  10.794   5.975 -2.6721  1.0625  1.6231
  560MOL0     H73904  -1.133  11.024   5.598  0.9602 -0.8376 -3.2766
  560MOL0     H73905  -0.922  11.115   5.497 -0.1473 -0.2151  0.5930
  560MOL0     H73906   0.709  10.651   6.397  1.5887 -0.7395  1.2425
  560MOL0     H73907   0.888  10.747   6.275  0.2085  0.6458 -2.3443
  560MOL0     H73908   1.189  10.643   5.892  0.0651  0.2824  1.1817
  560MOL0     H73909   1.406  10.705   5.819  1.4164 -0.1176  1.1815
  560MOL0     H73910   1.621  10.833   5.722 -0.3558 -1.1258 -0.2470
  560MOL0     H73911   1.616  10.750   5.875  1.3431  0.5244  1.2692
  560MOL0     H73912   1.755  11.012   5.834 -2.5474 -0.0250  1.5559
  560MOL0     H73913   1.788  10.891   5.958 -0.2867 -3.2852  0.1640
  560MOL0     H73914   1.837  10.792   5.682  0.0495  0.1660 -0.7169
  560MOL0     H73915   1.908  10.747   5.834  0.1350  0.2292  0.6252
  560MOL0     H73916   2.071  10.950   5.815  1.3152  0.4451 -0.7908
  560MOL0     H73917   2.074  10.847   5.672  4.3957  4.2665  0.3022
  560MOL0     H73918   2.006  11.236   5.554  0.1664 -1.0804 -2.8802
  560MOL0     H73919   1.383  11.080   6.025  1.8040  0.4027 -0.5514
  560MOL0     H73920   1.142  11.022   6.086  1.0726  1.1818  0.5673
  561MOL0     O73921   6.586   5.220   6.433  0.3595 -0.6072  0.1900
  561MOL0     C73922   6.616   5.280   6.336  1.1122  0.0422 -0.2442
  561MOL0     O73923   6.548   5.269   6.215  0.1270 -0.1298  0.4005
  561MOL0     C73924   6.444   5.183   6.208 -0.5079 -0.0361 -0.4159
  561MOL0     C73925   6.352   5.209   6.104 -0.5853  0.1121 -0.9384
  561MOL0     C73926   6.252   5.124   6.068 -0.7180 -0.5186  0.7299
  561MOL0     C73927   6.228   5.003   6.144 -0.4055 -0.3162  0.2189
  561MOL0     O73928   6.125   4.913   6.110 -1.0548 -0.5038  0.2490
  561MOL0     C73929   5.998   4.965   6.097 -0.0302 -0.9760 -0.3166
  561MOL0     C73930   5.930   4.951   6.238 -0.0123 -0.6361 -0.8380
  561MOL0     C73931   5.778   4.988   6.243 -0.2631 -0.6429  0.3245
  561MOL0     C73932   5.687   4.881   6.173  0.2977  0.0031  0.1660
  561MOL0     C73933   5.545   4.936   6.175  0.6488  0.4913  0.0925
  561MOL0     C73934   5.455   4.832   6.125  0.0384  0.1098  0.2434
  561MOL0     C73935   5.313   4.826   6.189  0.0873 -0.7210  0.6694
  561MOL0     C73936   5.214   4.884   6.096 -0.5102 -0.1776  0.3238
  561MOL0     N73937   5.262   5.011   6.036  0.2842  1.1673 -0.0978
  561MOL0     C73938   5.276   5.117   6.116 -0.0779  0.1775  0.7840
  561MOL0     C73939   5.325   5.210   6.034 -0.0904  0.4622  0.2504
  561MOL0     C73940   5.363   5.349   6.069  0.6784 -0.0658  0.4684
  561MOL0     C73941   5.261   5.417   6.145  0.0779  0.4451  0.7237
  561MOL0     C73942   5.275   5.568   6.137  0.6627  0.0362  0.5416
  561MOL0     C73943   5.192   5.622   6.257 -0.3659 -0.5286  0.3339
  561MOL0     O73944   5.054   5.575   6.251  0.0929  0.4133  0.1588
  561MOL0     C73945   4.962   5.604   6.155  0.0088  0.1629 -0.8051
  561MOL0     C73946   4.846   5.526   6.129  0.5477 -0.3359  0.7004
  561MOL0     C73947   4.743   5.575   6.051  0.4789  0.6287  0.4622
  561MOL0     C73948   4.746   5.705   5.990  0.3818  0.1916 -0.1594
  561MOL0     C73949   4.637   5.753   5.909  0.5056  0.3870  0.5039
  561MOL0     O73950   4.544   5.658   5.858  0.2295  0.0432 -0.6577
  561MOL0     C73951   4.435   5.710   5.794 -0.1824 -0.4676 -0.6446
  561MOL0     C73952   4.458   5.755   5.664  1.0409 -0.8225 -0.9521
  561MOL0     C73953   4.347   5.789   5.587 -0.0305 -0.2372  0.6374
  561MOL0     C73954   4.213   5.793   5.636 -0.3190  0.8028 -0.2582
  561MOL0     O73955   4.102   5.833   5.563  0.1933  0.6339  0.0784
  561MOL0     C73956   4.125   5.876   5.430 -0.9637 -0.7441 -0.4532
  561MOL0     C73957   4.009   5.936   5.350  0.3278  0.7787  0.2954
  561MOL0     C73958   3.921   5.824   5.292  0.4745 -0.1848 -0.4116
  561MOL0     C73959   3.815   5.886   5.202 -0.1709 -0.2461  0.5919
  561MOL0     C73960   3.732   5.778   5.130  0.7238 -0.6541 -0.0503
  561MOL0     C73961   3.621   5.840   5.041  0.1451 -0.4114  0.0063
  561MOL0     C73962   3.521   5.737   4.982  0.1009 -0.7368 -0.0491
  561MOL0     C73963   3.414   5.825   4.915 -0.2056  0.5661  0.2290
  561MOL0    Cl73964   3.297   5.882   5.046 -0.3306 -0.0895  0.3332
  561MOL0     C73965   4.196   5.743   5.772 -0.0602 -0.8560 -0.0504
  561MOL0     C73966   4.309   5.708   5.849 -0.5269 -0.4440 -0.0418
  561MOL0     O73967   4.635   5.866   5.876 -0.2159 -0.1963  0.6610
  561MOL0     C73968   4.858   5.785   6.023 -0.4008 -0.4234 -0.9107
  561MOL0     C73969   4.964   5.731   6.100  0.5986 -0.1583  0.2251
  561MOL0     N73970   5.348   5.148   5.913  1.0216 -0.5467  0.6214
  561MOL0     N73971   5.306   5.024   5.913  0.3403 -0.4178  0.0695
  561MOL0     C73972   6.325   4.968   6.238 -0.4375  0.1373 -0.0420
  561MOL0     C73973   6.427   5.058   6.280 -0.2912 -0.1845 -0.1422
  561MOL0     C73974   6.702   5.389   6.351 -0.0631 -1.0462 -0.2010
  561MOL0     C73975   6.688   5.511   6.280 -0.6845  0.4319  0.3929
  561MOL0     C73976   6.762   5.631   6.307 -0.9266  0.3740 -0.0511
  561MOL0     C73977   6.861   5.626   6.407  0.7396  0.3342 -0.2002
  561MOL0     O73978   6.939   5.735   6.445  0.0195 -0.7269 -0.2938
  561MOL0     C73979   7.070   5.722   6.523  0.1483 -0.5350  0.0045
  561MOL0     C73980   7.160   5.811   6.452  0.3880  0.4219 -0.6909
  561MOL0     C73981   7.305   5.783   6.492  0.1728 -1.1375 -0.2763
  561MOL0     C73982   7.407   5.870   6.415  0.1644 -0.4723  0.1021
  561MOL0     C73983   7.539   5.802   6.425 -0.1026  0.3919  0.4793
  561MOL0     C73984   7.654   5.761   6.420 -0.2598  0.3010  0.8560
  561MOL0     C73985   6.871   5.507   6.484 -0.7619  0.2370  0.3906
  561MOL0     C73986   6.796   5.396   6.458 -0.5205  0.5929  0.6480
  561MOL0     H73987   6.369   5.299   6.046  0.1136 -0.5599 -1.7932
  561MOL0     H73988   6.207   5.152   5.974  3.8518 -1.2666 -1.9772
  561MOL0     H73989   5.943   4.914   6.017 -2.4247 -1.4182  1.5062
  561MOL0     H73990   5.984   5.070   6.067 -3.1599 -1.4112 -0.7401
  561MOL0     H73991   5.988   5.009   6.311  2.2518 -2.6548 -0.9111
  561MOL0     H73992   5.926   4.846   6.266  1.8267  0.3281  4.2319
  561MOL0     H73993   5.776   5.085   6.193 -0.0819 -1.5044 -1.4594
  561MOL0     H73994   5.754   4.993   6.349 -1.3564  1.3997  0.0343
  561MOL0     H73995   5.723   4.865   6.071 -3.7812  0.4405 -1.5372
  561MOL0     H73996   5.697   4.787   6.228 -3.6381 -1.2144 -0.8571
  561MOL0     H73997   5.535   5.024   6.112 -0.1942  0.0787 -0.3635
  561MOL0     H73998   5.529   4.964   6.279  2.5381  3.0300 -0.2018
  561MOL0     H73999   5.500   4.734   6.139 -1.0873 -0.3555  0.6947
  561MOL0     H74000   5.452   4.849   6.016 -0.1422 -0.7984  0.1020
  561MOL0     H74001   5.281   4.724   6.215 -1.9361 -0.1607  0.5637
  561MOL0     H74002   5.325   4.889   6.277  2.8980  0.3520 -0.3668
  561MOL0     H74003   5.118   4.894   6.148 -0.7577  1.9827 -0.4326
  561MOL0     H74004   5.202   4.820   6.008  1.9592  0.5546 -0.6364
  561MOL0     H74005   5.239   5.121   6.218  0.3707 -0.1199  0.9599
  561MOL0     H74006   5.398   5.401   5.980  2.6748 -1.4743  0.3684
  561MOL0     H74007   5.453   5.361   6.129 -0.0437  2.1219  1.2171
  561MOL0     H74008   5.276   5.402   6.252  1.6209  1.3215  0.6523
  561MOL0     H74009   5.162   5.387   6.108  1.3091 -2.7859 -0.3350
  561MOL0     H74010   5.370   5.621   6.150  1.8185 -1.4996 -1.1163
  561MOL0     H74011   5.230   5.599   6.042  1.3178  0.1952  0.2696
  561MOL0     H74012   5.188   5.731   6.246  0.8398 -0.5369 -0.2670
  561MOL0     H74013   5.233   5.599   6.356  0.6218  0.2543  0.1236
  561MOL0     H74014   4.826   5.431   6.178 -1.7115 -0.3285 -0.0828
  561MOL0     H74015   4.659   5.509   6.030 -0.9552  2.2970  0.6371
  561MOL0     H74016   4.562   5.745   5.635  1.1478 -1.7227 -0.3198
  561MOL0     H74017   4.365   5.820   5.485 -0.1141 -0.5240  0.5340
  561MOL0     H74018   4.155   5.787   5.375 -1.7925 -0.0118 -2.2026
  561MOL0     H74019   4.195   5.959   5.441 -0.4082 -1.3872  1.0167
  561MOL0     H74020   4.045   5.995   5.265 -1.8030 -1.0207 -2.0175
  561MOL0     H74021   3.940   5.990   5.415 -1.6452  1.3238 -2.0918
  561MOL0     H74022   3.882   5.757   5.370 -0.7195 -0.0583 -0.8886
  561MOL0     H74023   3.971   5.750   5.228 -0.6758 -2.2100  0.9267
  561MOL0     H74024   3.754   5.958   5.259  0.7542  0.0164  1.2752
  561MOL0     H74025   3.870   5.941   5.125  0.1353 -0.4089  0.6930
  561MOL0     H74026   3.689   5.715   5.208  0.7379  1.2571  1.5622
  561MOL0     H74027   3.797   5.710   5.074  1.4165 -1.2246  1.4022
  561MOL0     H74028   3.680   5.899   4.970  3.1446 -2.6800  0.3821
  561MOL0     H74029   3.568   5.915   5.100 -0.7999 -1.2756  0.2828
  561MOL0     H74030   3.577   5.671   4.914  1.2213  0.1183  0.0226
  561MOL0     H74031   3.456   5.679   5.049 -1.2301  2.1343  1.3356
  561MOL0     H74032   3.353   5.771   4.842  0.6481 -2.5955  1.6774
  561MOL0     H74033   3.460   5.907   4.859 -0.0786  0.3243 -0.0234
  561MOL0     H74034   4.099   5.717   5.811 -0.1343 -2.0665 -0.9919
  561MOL0     H74035   4.298   5.664   5.948 -0.6105  0.7144  0.4783
  561MOL0     H74036   4.860   5.888   5.989 -1.1162 -0.4665 -1.1177
  561MOL0     H74037   5.052   5.792   6.116  0.4377  0.2385 -0.3443
  561MOL0     H74038   6.331   4.866   6.276  2.2846  0.1133 -0.3119
  561MOL0     H74039   6.509   5.017   6.337  0.2923 -0.0263 -0.8498
  561MOL0     H74040   6.603   5.539   6.219  1.2130  0.1457 -2.5736
  561MOL0     H74041   6.733   5.723   6.258 -4.3236 -1.4194 -1.7232
  561MOL0     H74042   7.112   5.621   6.517  2.1289  0.3099 -2.5452
  561MOL0     H74043   7.041   5.752   6.624 -1.0315  0.4199 -0.5991
  561MOL0     H74044   7.160   5.789   6.345 -1.0689  1.5684 -0.9623
  561MOL0     H74045   7.133   5.917   6.447 -0.8026  0.0870 -1.8389
  561MOL0     H74046   7.328   5.677   6.478  1.6263 -0.9623  0.5892
  561MOL0     H74047   7.327   5.798   6.598  0.3721  0.4371 -0.5220
  561MOL0     H74048   7.374   5.879   6.311  0.2215 -0.0503  0.1206
  561MOL0     H74049   7.410   5.975   6.445 -0.1925 -0.7550  1.1771
  561MOL0     H74050   7.756   5.728   6.417 -1.5319 -4.2980 -0.6095
  561MOL0     H74051   6.940   5.502   6.568  1.2642  0.4198 -1.1898
  561MOL0     H74052   6.804   5.308   6.522 -1.2135  0.3089  0.3550
  562MOL0     O74053   7.354   3.489   7.152 -0.0826 -0.0925 -0.5313
  562MOL0     C74054   7.334   3.560   7.058 -0.0147 -1.1628  1.2369
  562MOL0     O74055   7.300   3.512   6.931 -0.0578 -0.1853 -0.4004
  562MOL0     C74056   7.271   3.380   6.913  0.7342  0.2019  0.4161
  562MOL0     C74057   7.189   3.310   7.000 -0.4285  0.2457 -0.1030
  562MOL0     C74058   7.176   3.169   6.973  0.8714  0.5300 -0.4374
  562MOL0     C74059   7.210   3.102   6.853  0.5960 -0.5762 -0.0672
  562MOL0     O74060   7.193   2.964   6.858  0.1016  0.2461  0.1473
  562MOL0     C74061   7.241   2.889   6.747 -0.3984 -0.3022 -0.4541
  562MOL0     C74062   7.144   2.888   6.618 -0.7368  0.4416 -0.4445
  562MOL0     C74063   7.220   2.815   6.506  0.5397 -0.6295  0.5463
  562MOL0     C74064   7.243   2.666   6.527 -0.2104 -0.2390  0.6878
  562MOL0     C74065   7.254   2.594   6.393  0.6496 -0.4589  0.1090
  562MOL0     C74066   7.127   2.592   6.283 -0.1426 -0.5921 -0.4415
  562MOL0     C74067   6.988   2.583   6.350  0.6690 -0.0902  0.0503
  562MOL0     C74068   6.870   2.601   6.252 -0.8810  0.9711  0.0168
  562MOL0     N74069   6.750   2.520   6.293  0.0485 -0.8504 -0.5998
  562MOL0     C74070   6.653   2.569   6.372  0.2284  0.1772  0.4576
  562MOL0     C74071   6.567   2.463   6.384  0.5290 -0.4437 -0.0731
  562MOL0     C74072   6.441   2.469   6.479 -0.0908 -0.4231  0.4210
  562MOL0     C74073   6.375   2.328   6.474  0.3355  0.7814  0.1343
  562MOL0     C74074   6.276   2.304   6.586  0.0788 -0.7203 -0.4541
  562MOL0     C74075   6.246   2.153   6.615  0.1897  0.4916 -0.0512
  562MOL0     O74076   6.179   2.138   6.736  0.4710 -0.4809  0.7101
  562MOL0     C74077   6.108   2.022   6.746 -0.5048  0.4660 -0.9248
  562MOL0     C74078   6.140   1.903   6.687  0.0547 -0.2266 -0.3929
  562MOL0     C74079   6.053   1.791   6.715  0.2084 -1.0208 -0.5593
  562MOL0     C74080   5.934   1.793   6.794 -0.4093 -0.5078  0.3818
  562MOL0     C74081   5.859   1.670   6.824  0.1735 -1.0010  0.0040
  562MOL0     O74082   5.931   1.557   6.829 -0.1826 -0.2484  0.7859
  562MOL0     C74083   5.888   1.442   6.882 -0.5230 -0.3844  0.6414
  562MOL0     C74084   5.779   1.375   6.821 -0.2706 -0.8165 -0.1470
  562MOL0     C74085   5.708   1.275   6.885 -0.4361  0.3669 -1.2622
  562MOL0     C74086   5.757   1.226   7.004 -0.6546  1.0766 -0.3273
  562MOL0     O74087   5.705   1.107   7.065  0.4410 -0.1899  0.0079
  562MOL0     C74088   5.587   1.057   7.010  0.4819  0.3400 -0.2808
  562MOL0     C74089   5.520   0.980   7.126  0.7587  1.2749  0.2447
  562MOL0     C74090   5.381   0.920   7.093  0.7304 -0.4627  0.1207
  562MOL0     C74091   5.316   0.882   7.228  0.9463  0.2587  0.4238
  562MOL0     C74092   5.191   0.804   7.213 -0.9288  0.1244  0.1341
  562MOL0     C74093   5.061   0.890   7.194 -0.1993 -0.2137 -0.3737
  562MOL0     C74094   5.015   0.937   7.332 -0.7568  0.0522 -0.1899
  562MOL0     C74095   4.910   1.043   7.338 -0.4698  0.3177  0.3148
  562MOL0    Cl74096   4.982   1.208   7.279 -0.4372 -0.3517  0.2517
  562MOL0     C74097   5.870   1.282   7.065 -1.0220 -1.1579 -0.4780
  562MOL0     C74098   5.925   1.396   7.008 -0.0865  0.1785 -0.1532
  562MOL0     O74099   5.738   1.677   6.838  0.5003 -0.4870 -0.7724
  562MOL0     C74100   5.906   1.919   6.857  0.3587 -0.0366  0.7080
  562MOL0     C74101   6.000   2.028   6.838 -0.3099 -0.4813 -0.0634
  562MOL0     N74102   6.610   2.368   6.296 -0.1536  0.2868 -0.6128
  562MOL0     N74103   6.726   2.394   6.251 -0.2041  0.0406 -0.2628
  562MOL0     C74104   7.265   3.190   6.764  0.0963  0.4586  0.1256
  562MOL0     C74105   7.300   3.321   6.792 -0.5720 -0.9750  0.9142
  562MOL0     C74106   7.333   3.715   7.069 -0.1843 -0.0735  0.7422
  562MOL0     C74107   7.289   3.786   6.961  1.3611 -0.4100 -0.6558
  562MOL0     C74108   7.308   3.921   6.959  0.4183 -0.0747 -0.7201
  562MOL0     C74109   7.362   3.995   7.071  0.8920 -0.3223 -0.0957
  562MOL0     O74110   7.356   4.136   7.068 -0.2725 -0.3186 -0.0827
  562MOL0     C74111   7.400   4.214   7.189  0.0368  0.3182 -0.5659
  562MOL0     C74112   7.396   4.362   7.159 -0.1945  0.7510  0.7168
  562MOL0     C74113   7.445   4.401   7.013 -0.2052  0.1504 -0.0621
  562MOL0     C74114   7.459   4.555   6.997 -0.4106  0.0553  0.2430
  562MOL0     C74115   7.564   4.601   7.079  0.7445 -0.4377  1.0662
  562MOL0     C74116   7.678   4.627   7.120  0.4114 -1.0562 -0.5949
  562MOL0     C74117   7.389   3.926   7.187 -0.2974  0.5048  0.3639
  562MOL0     C74118   7.383   3.785   7.185  0.0937 -0.3365  0.9446
  562MOL0     H74119   7.136   3.349   7.086  0.7046  0.8178  0.3559
  562MOL0     H74120   7.118   3.123   7.053  0.8897  0.5421 -0.4172
  562MOL0     H74121   7.254   2.787   6.784 -1.3780 -1.3513 -2.7557
  562MOL0     H74122   7.339   2.926   6.714 -1.5431  3.0066 -0.5644
  562MOL0     H74123   7.124   2.990   6.582 -1.1410 -0.1203 -1.8677
  562MOL0     H74124   7.047   2.844   6.641 -3.2845  3.3134 -4.4662
  562MOL0     H74125   7.320   2.855   6.488  0.5277 -0.5168  0.7292
  562MOL0     H74126   7.154   2.832   6.420 -1.0455  3.3922  2.2992
  562MOL0     H74127   7.329   2.643   6.591  1.1480 -1.3737 -1.4655
  562MOL0     H74128   7.166   2.606   6.577  0.4867 -2.1794 -0.4778
  562MOL0     H74129   7.269   2.488   6.417 -1.8215 -1.0203 -0.4821
  562MOL0     H74130   7.343   2.627   6.340  0.2707 -0.4025 -0.4944
  562MOL0     H74131   7.146   2.519   6.204 -2.0026  0.2008 -1.6851
  562MOL0     H74132   7.130   2.689   6.232 -1.8521 -1.5897 -2.6227
  562MOL0     H74133   6.983   2.489   6.406 -0.2896  0.0539  0.2190
  562MOL0     H74134   6.970   2.668   6.417 -0.8888 -1.7833  1.9117
  562MOL0     H74135   6.907   2.571   6.154 -0.2942  2.4742 -0.2298
  562MOL0     H74136   6.843   2.706   6.238 -0.5680  1.1032  0.3772
  562MOL0     H74137   6.665   2.666   6.420  0.0372  0.6049 -0.3560
  562MOL0     H74138   6.356   2.533   6.453  0.7447  0.1725 -0.9639
  562MOL0     H74139   6.484   2.495   6.575 -0.6566  1.5291  0.1796
  562MOL0     H74140   6.455   2.254   6.483  1.0043  1.5049  0.3110
  562MOL0     H74141   6.332   2.310   6.375  2.0354  1.3577 -0.7549
  562MOL0     H74142   6.313   2.359   6.673 -0.2335 -0.4401 -0.4958
  562MOL0     H74143   6.174   2.336   6.564 -1.0185 -1.2939  3.2216
  562MOL0     H74144   6.336   2.092   6.628 -0.2900 -0.2532 -0.1573
  562MOL0     H74145   6.178   2.120   6.535  0.7166  0.8383 -0.6495
  562MOL0     H74146   6.227   1.883   6.625 -0.5001 -0.5854 -1.0629
  562MOL0     H74147   6.084   1.701   6.662 -1.3106 -0.3766 -2.6991
  562MOL0     H74148   5.745   1.413   6.726  1.3499 -0.7334 -0.7269
  562MOL0     H74149   5.617   1.241   6.837 -1.3578  1.5373 -0.4097
  562MOL0     H74150   5.618   0.995   6.926  0.5843  0.1279 -0.0860
  562MOL0     H74151   5.519   1.135   6.974  0.3508  0.1036 -0.5428
  562MOL0     H74152   5.503   1.041   7.216 -0.8414 -0.1975  0.9973
  562MOL0     H74153   5.586   0.895   7.147  1.6115  0.7149 -3.8483
  562MOL0     H74154   5.390   0.836   7.023  0.9711  0.2616 -0.7389
  562MOL0     H74155   5.324   0.999   7.043 -3.2345  0.0813  4.8000
  562MOL0     H74156   5.387   0.815   7.278  2.7124  0.2553 -1.9371
  562MOL0     H74157   5.291   0.970   7.289 -2.2631  0.0527 -0.4205
  562MOL0     H74158   5.175   0.745   7.304  0.5365 -0.9871 -0.2984
  562MOL0     H74159   5.195   0.728   7.134  3.4282 -1.6443  1.7479
  562MOL0     H74160   4.988   0.832   7.139  1.0780  0.2404 -2.6791
  562MOL0     H74161   5.098   0.979   7.142  0.5548 -0.4138 -0.1905
  562MOL0     H74162   4.970   0.850   7.381  1.3781 -0.8386  0.3465
  562MOL0     H74163   5.113   0.955   7.379 -0.1779 -0.7097 -1.0647
  562MOL0     H74164   4.867   1.050   7.439 -1.1831 -1.2274  0.1465
  562MOL0     H74165   4.825   1.021   7.273 -0.0286  2.8221 -1.2639
  562MOL0     H74166   5.926   1.244   7.150  0.0125  0.2961 -0.4890
  562MOL0     H74167   6.006   1.450   7.058  0.3510 -1.1812  0.6648
  562MOL0     H74168   5.828   1.924   6.932  0.7015  1.5965  0.9907
  562MOL0     H74169   5.982   2.114   6.903  1.7523 -0.7727  0.9859
  562MOL0     H74170   7.302   3.146   6.672  0.7456  2.0407 -0.4048
  562MOL0     H74171   7.350   3.385   6.721 -1.1614  0.7026  1.9629
  562MOL0     H74172   7.257   3.744   6.866 -0.3520  0.7599 -0.6303
  562MOL0     H74173   7.274   3.977   6.873 -2.4832  2.0973  1.6339
  562MOL0     H74174   7.502   4.184   7.213 -0.6413 -2.2402 -0.6571
  562MOL0     H74175   7.330   4.196   7.272 -2.0447 -0.9052 -2.4865
  562MOL0     H74176   7.292   4.393   7.170 -0.7615 -0.3601 -1.1036
  562MOL0     H74177   7.448   4.421   7.235  0.5303  2.6642 -1.1759
  562MOL0     H74178   7.364   4.385   6.941  0.6472  1.8069 -1.4705
  562MOL0     H74179   7.537   4.348   6.985 -0.0153 -0.4684  1.6270
  562MOL0     H74180   7.505   4.577   6.900 -1.3989 -0.4884 -0.3798
  562MOL0     H74181   7.358   4.599   6.998 -1.4279 -1.9668 -1.8732
  562MOL0     H74182   7.777   4.653   7.150 -0.2533 -0.3864  1.1709
  562MOL0     H74183   7.412   3.985   7.276  1.5964 -2.2446  1.8381
  562MOL0     H74184   7.405   3.734   7.278 -2.2644  0.7951  2.2042
  563MOL0     O74185   7.459   7.937  10.776 -0.4442  0.2128 -0.2823
  563MOL0     C74186   7.471   7.831  10.844  0.2037 -0.3962  0.0803
  563MOL0     O74187   7.367   7.766  10.897 -0.1530 -0.4345  0.2100
  563MOL0     C74188   7.243   7.826  10.898 -1.3599 -0.3130  0.4158
  563MOL0     C74189   7.142   7.787  10.803 -0.6786  0.2959 -0.3539
  563MOL0     C74190   7.015   7.840  10.806 -0.3382 -0.2390  0.5822
  563MOL0     C74191   6.987   7.935  10.901 -0.0716 -0.3812 -0.2282
  563MOL0     O74192   6.860   8.000  10.910 -0.3474 -0.3240 -1.0864
  563MOL0     C74193   6.749   7.964  10.819 -0.6326 -0.4824  0.2870
  563MOL0     C74194   6.620   8.045  10.851 -0.5109  0.2020  0.7705
  563MOL0     C74195   6.495   7.993  10.784 -0.4867 -0.6814  0.2256
  563MOL0     C74196   6.406   7.902  10.870  0.3361 -0.8360  0.5053
  563MOL0     C74197   6.281   7.891  10.774 -0.1331 -0.2136 -0.1607
  563MOL0     C74198   6.160   7.830  10.846 -0.2436 -0.1375 -0.1980
  563MOL0     C74199   6.038   7.781  10.756  0.0299 -0.0107  0.2241
  563MOL0     C74200   6.005   7.878  10.647  0.2062  1.1077  0.1191
  563MOL0     N74201   5.899   7.821  10.567  0.5420 -0.3003  0.3492
  563MOL0     C74202   5.931   7.723  10.475  0.0101 -1.3963 -0.4018
  563MOL0     C74203   5.820   7.683  10.418  0.9803 -0.3087 -0.7188
  563MOL0     C74204   5.814   7.588  10.300  0.6619  0.0794  0.1267
  563MOL0     C74205   5.771   7.452  10.350 -0.3771  0.2751  0.0036
  563MOL0     C74206   5.746   7.350  10.239 -0.7239 -0.8139  0.4386
  563MOL0     C74207   5.607   7.367  10.167 -0.8000  0.1488  0.2346
  563MOL0     O74208   5.588   7.248  10.088 -0.5231  0.8367  0.4350
  563MOL0     C74209   5.461   7.199  10.082  0.1178  0.1059 -0.4827
  563MOL0     C74210   5.438   7.064  10.072  0.4925 -0.1489  0.3172
  563MOL0     C74211   5.306   7.009  10.062  0.3039 -0.0813  0.7223
  563MOL0     C74212   5.191   7.083  10.053 -0.3765  0.0578  1.1056
  563MOL0     C74213   5.047   7.025  10.031 -1.0313 -0.6535  0.3858
  563MOL0     O74214   4.943   7.085  10.090 -0.5083 -1.1245 -0.0837
  563MOL0     C74215   4.816   7.048  10.063  0.1831 -0.3392  0.0216
  563MOL0     C74216   4.758   6.922  10.101 -0.7296 -0.3363  0.7507
  563MOL0     C74217   4.624   6.882  10.073 -0.0264 -0.5263  0.1110
  563MOL0     C74218   4.544   6.982  10.010  0.1707 -0.0959  0.3222
  563MOL0     O74219   4.413   6.962   9.985 -0.3034  0.4198  1.2955
  563MOL0     C74220   4.372   6.830   9.963  0.2571  0.3886 -0.5184
  563MOL0     C74221   4.221   6.839   9.923  0.1225  0.9844  0.3564
  563MOL0     C74222   4.133   6.716   9.940  0.8678  0.0816 -0.0120
  563MOL0     C74223   4.175   6.610   9.836  0.0682  0.7416  0.2876
  563MOL0     C74224   4.072   6.493   9.840  0.1068 -0.2621  0.0563
  563MOL0     C74225   4.124   6.350   9.807  0.1286 -0.8470 -0.4617
  563MOL0     C74226   4.161   6.330   9.664 -0.2130  0.9947 -0.0073
  563MOL0     C74227   4.052   6.293   9.563  1.0139  0.3054 -0.0531
  563MOL0    Cl74228   4.121   6.276   9.404  0.2504  0.1391 -0.0252
  563MOL0     C74229   4.601   7.098   9.972 -0.1881 -0.5159 -0.9351
  563MOL0     C74230   4.731   7.133   9.987  0.8872  0.0268 -0.1354
  563MOL0     O74231   5.041   6.919   9.973  0.0648 -0.2501  0.7734
  563MOL0     C74232   5.209   7.227  10.065  0.1840  0.1736 -0.4798
  563MOL0     C74233   5.343   7.283  10.088 -0.0761  0.3149 -0.1269
  563MOL0     N74234   5.716   7.759  10.469  0.2516  0.1849 -0.3768
  563MOL0     N74235   5.760   7.833  10.560 -0.4782 -0.3096 -0.1264
  563MOL0     C74236   7.088   7.995  10.979  0.7806 -0.8527  0.0379
  563MOL0     C74237   7.213   7.938  10.980  0.1182 -0.3639 -0.7203
  563MOL0     C74238   7.596   7.766  10.862  0.1654 -0.3951  0.8246
  563MOL0     C74239   7.608   7.624  10.861 -0.5885 -0.5140  0.0796
  563MOL0     C74240   7.738   7.560  10.869  0.0117  0.0927  0.3390
  563MOL0     C74241   7.849   7.645  10.891 -0.6481  0.2570  0.0952
  563MOL0     O74242   7.966   7.570  10.908 -0.3663 -0.6653 -0.5272
  563MOL0     C74243   8.083   7.628  10.851 -0.3259 -0.1379  0.4346
  563MOL0     C74244   8.062   7.635  10.700  1.3110 -0.4397  0.9169
  563MOL0     C74245   8.193   7.656  10.626 -0.5476 -0.1531  0.4472
  563MOL0     C74246   8.283   7.535  10.618 -0.1104  0.7826  0.7252
  563MOL0     C74247   8.382   7.545  10.516 -0.3417  0.0256  1.1320
  563MOL0     C74248   8.463   7.555  10.432  0.2165  0.0789 -0.2468
  563MOL0     C74249   7.836   7.785  10.903 -0.6967  0.7396  0.7134
  563MOL0     C74250   7.708   7.845  10.882  0.1383 -0.4097 -0.1417
  563MOL0     H74251   7.162   7.703  10.737 -1.0050 -3.0937  3.4532
  563MOL0     H74252   6.932   7.795  10.753 -0.8066 -0.0445  1.1402
  563MOL0     H74253   6.729   7.857  10.827  1.4541 -1.3643 -3.7550
  563MOL0     H74254   6.780   7.987  10.717 -2.9696 -1.0018 -0.5920
  563MOL0     H74255   6.650   8.142  10.809  1.1482 -0.4483  0.3702
  563MOL0     H74256   6.598   8.061  10.957 -1.4391 -0.0279  0.6218
  563MOL0     H74257   6.531   7.939  10.695  3.3670 -1.0907  1.8306
  563MOL0     H74258   6.442   8.082  10.750  0.4914  0.5056  1.6767
  563MOL0     H74259   6.464   7.811  10.888 -0.7960 -1.6504  0.1706
  563MOL0     H74260   6.392   7.946  10.969  0.8404 -0.0642  0.2477
  563MOL0     H74261   6.317   7.832  10.689 -0.6149 -1.4191  0.4432
  563MOL0     H74262   6.248   7.991  10.746  1.5136  0.8038  1.2671
  563MOL0     H74263   6.116   7.912  10.903 -0.9571  0.3097 -1.3453
  563MOL0     H74264   6.184   7.744  10.908  0.6305  0.5515  0.4430
  563MOL0     H74265   6.054   7.678  10.725 -0.8928 -0.6692  1.7839
  563MOL0     H74266   5.949   7.775  10.820 -0.9064  1.3024 -0.8714
  563MOL0     H74267   6.093   7.898  10.585  0.7286  1.8715  1.0837
  563MOL0     H74268   5.967   7.973  10.688 -0.9637  0.4643  0.5735
  563MOL0     H74269   6.028   7.695  10.436  0.5779  0.5463 -0.4616
  563MOL0     H74270   5.919   7.581  10.271  1.5521  2.5522  2.3027
  563MOL0     H74271   5.761   7.626  10.212  2.9947 -0.8836 -1.8217
  563MOL0     H74272   5.673   7.469  10.395 -1.0571  0.1188 -1.3556
  563MOL0     H74273   5.833   7.405  10.426 -0.0629  0.2479 -0.2651
  563MOL0     H74274   5.824   7.352  10.162 -0.1610 -2.7063  0.9052
  563MOL0     H74275   5.748   7.247  10.274  1.1988 -2.4786 -3.8347
  563MOL0     H74276   5.605   7.457  10.105 -0.2643  0.1733  0.2463
  563MOL0     H74277   5.535   7.386  10.248  0.2650  1.2266  0.9568
  563MOL0     H74278   5.509   6.983  10.083 -0.1343 -0.7908 -0.2270
  563MOL0     H74279   5.301   6.901  10.069  0.7411 -0.3922 -2.3399
  563MOL0     H74280   4.824   6.858  10.158  0.6910  2.7451  2.8745
  563MOL0     H74281   4.594   6.783  10.105  1.0679 -0.1119  2.6048
  563MOL0     H74282   4.378   6.782  10.061 -1.7106  1.2867  0.1022
  563MOL0     H74283   4.435   6.784   9.887  1.6927  1.0410  0.2390
  563MOL0     H74284   4.197   6.865   9.820  0.6309 -2.7515 -0.8349
  563MOL0     H74285   4.181   6.914   9.992  2.9843  1.5099  1.5988
  563MOL0     H74286   4.031   6.748   9.917  0.5487 -0.8778  0.0178
  563MOL0     H74287   4.135   6.677  10.042 -4.6528 -0.5732  0.1448
  563MOL0     H74288   4.177   6.641   9.731 -0.2250  1.6133  0.5316
  563MOL0     H74289   4.273   6.563   9.854  0.0313  0.6484  0.2440
  563MOL0     H74290   3.991   6.520   9.772 -0.2816  2.6115  1.4952
  563MOL0     H74291   4.025   6.492   9.939 -1.0968  1.0533 -0.4710
  563MOL0     H74292   4.052   6.275   9.841  0.3266 -2.1580 -2.7928
  563MOL0     H74293   4.213   6.313   9.859 -1.2963 -3.2910  0.4336
  563MOL0     H74294   4.218   6.422   9.647  2.6809 -0.6200  0.3375
  563MOL0     H74295   4.233   6.248   9.657 -2.0061 -0.5960 -0.5880
  563MOL0     H74296   3.969   6.363   9.556 -0.1470 -1.1393 -1.4110
  563MOL0     H74297   4.008   6.196   9.589  3.2869 -0.4361  1.3890
  563MOL0     H74298   4.549   7.187   9.937  1.7498  1.0147 -0.0623
  563MOL0     H74299   4.772   7.228   9.953  0.4411 -1.0831 -4.2614
  563MOL0     H74300   5.122   7.293  10.072  0.7379  0.7636  4.1536
  563MOL0     H74301   5.359   7.390  10.087 -0.8857  0.4380  0.0217
  563MOL0     H74302   7.068   8.082  11.040  4.7885  1.7163 -1.8330
  563MOL0     H74303   7.288   7.959  11.056 -0.5203 -1.4419  0.2399
  563MOL0     H74304   7.525   7.555  10.855  0.3210 -1.5208 -2.8372
  563MOL0     H74305   7.757   7.454  10.851 -0.3197  0.3801 -2.0007
  563MOL0     H74306   8.153   7.549  10.879  1.4531  0.5956 -1.6522
  563MOL0     H74307   8.113   7.727  10.887  2.6752 -1.6406  2.5026
  563MOL0     H74308   8.016   7.546  10.655  0.5893 -0.1956  1.1537
  563MOL0     H74309   7.992   7.716  10.682  0.2568 -0.9517  2.4469
  563MOL0     H74310   8.256   7.738  10.661 -1.7634  1.2223 -0.4730
  563MOL0     H74311   8.171   7.686  10.523 -1.4497 -0.1753  0.6196
  563MOL0     H74312   8.341   7.521  10.710  2.2471 -2.2051 -1.0374
  563MOL0     H74313   8.225   7.443  10.615  0.7850  0.1862  1.0074
  563MOL0     H74314   8.533   7.568  10.352  1.2063 -1.3987  0.3481
  563MOL0     H74315   7.917   7.855  10.918 -1.3972  2.6753 -3.2508
  563MOL0     H74316   7.694   7.953  10.885 -0.3520 -0.4755 -0.0032
  564MOL0     O74317   3.235   5.210   0.937  0.2696  0.6977  0.3237
  564MOL0     C74318   3.303   5.296   0.874 -0.3063  0.7451  0.2812
  564MOL0     O74319   3.257   5.394   0.791  0.3315  0.2495 -0.3739
  564MOL0     C74320   3.124   5.423   0.787  1.1823 -0.3613  0.1620
  564MOL0     C74321   3.060   5.432   0.668 -0.1384  0.2771 -0.0021
  564MOL0     C74322   2.925   5.458   0.657  0.8575  0.6871 -0.2205
  564MOL0     C74323   2.844   5.469   0.770  0.3120 -0.2265  0.6271
  564MOL0     O74324   2.707   5.490   0.757  0.3720 -0.1601  0.0113
  564MOL0     C74325   2.620   5.455   0.867 -0.2871 -0.5454 -0.0381
  564MOL0     C74326   2.477   5.418   0.825 -0.1802 -0.5521  0.1676
  564MOL0     C74327   2.391   5.533   0.770 -1.1093  0.8785 -1.1220
  564MOL0     C74328   2.319   5.595   0.885 -0.0231 -0.5243  0.4099
  564MOL0     C74329   2.237   5.713   0.832 -1.1044  0.3284  0.0478
  564MOL0     C74330   2.198   5.807   0.943 -0.0790  0.6244 -0.1917
  564MOL0     C74331   2.094   5.904   0.886  0.3028 -0.2515 -0.2101
  564MOL0     C74332   2.097   6.032   0.968 -0.7673 -0.1307 -0.0872
  564MOL0     N74333   1.973   6.042   1.045 -0.3578 -0.2186  1.1453
  564MOL0     C74334   1.934   5.951   1.141  0.8758  0.4004  0.1432
  564MOL0     C74335   1.806   5.980   1.171 -0.0397  0.7235  0.1381
  564MOL0     C74336   1.720   5.918   1.271  0.0891  0.8445 -0.6297
  564MOL0     C74337   1.655   5.790   1.215 -0.3949 -0.0380  0.8858
  564MOL0     C74338   1.558   5.746   1.324  0.1214  0.3083 -0.3489
  564MOL0     C74339   1.512   5.605   1.316 -0.0238  0.4136 -0.1141
  564MOL0     O74340   1.417   5.596   1.203  0.0430  0.4484 -0.0626
  564MOL0     C74341   1.449   5.510   1.102  0.6813  0.6133  0.5395
  564MOL0     C74342   1.350   5.482   1.000  0.1563  1.0232 -0.0215
  564MOL0     C74343   1.379   5.412   0.879  0.4745 -0.4591 -0.4822
  564MOL0     C74344   1.505   5.351   0.860  0.2333  0.1225 -0.2625
  564MOL0     C74345   1.525   5.268   0.737  0.4347  0.4081  0.4417
  564MOL0     O74346   1.546   5.135   0.751  0.0973 -0.3864  0.2631
  564MOL0     C74347   1.637   5.076   0.667 -0.8213  0.6858  0.1098
  564MOL0     C74348   1.734   5.148   0.594  0.2246  0.1290 -0.2000
  564MOL0     C74349   1.811   5.078   0.499  0.2845 -0.2652 -0.2770
  564MOL0     C74350   1.788   4.948   0.456 -0.5331 -0.3606 -0.1740
  564MOL0     O74351   1.857   4.920   0.342 -0.1571 -0.3965 -0.2761
  564MOL0     C74352   1.818   4.797   0.276  0.4413 -0.3378  0.5186
  564MOL0     C74353   1.913   4.697   0.335 -0.5077 -0.1151 -0.9023
  564MOL0     C74354   2.059   4.734   0.362 -0.6762 -0.1307  0.0375
  564MOL0     C74355   2.131   4.757   0.232 -0.7170 -0.3790  0.9172
  564MOL0     C74356   2.284   4.739   0.223 -0.4912 -0.8106 -1.0072
  564MOL0     C74357   2.353   4.864   0.283  0.3270  0.2397  0.9916
  564MOL0     C74358   2.500   4.884   0.250  1.0135 -0.2922  1.0225
  564MOL0     C74359   2.588   4.765   0.292 -0.2661  0.0807 -0.2150
  564MOL0    Cl74360   2.746   4.799   0.219 -0.0728  0.0342 -0.0211
  564MOL0     C74361   1.691   4.880   0.535 -0.3889 -0.2683  0.0482
  564MOL0     C74362   1.627   4.934   0.642  0.0378 -0.0921  0.6263
  564MOL0     O74363   1.502   5.319   0.625 -0.1185  0.9045  0.2608
  564MOL0     C74364   1.597   5.370   0.955 -0.9262 -0.5544  0.5518
  564MOL0     C74365   1.579   5.451   1.075  0.6659 -0.2770  0.2477
  564MOL0     N74366   1.772   6.090   1.092 -0.2708  0.7855 -0.6556
  564MOL0     N74367   1.873   6.115   1.012  0.3547  0.7669 -0.7953
  564MOL0     C74368   2.903   5.464   0.898 -0.6407  0.1819 -1.1925
  564MOL0     C74369   3.040   5.440   0.904  0.0242  0.9186 -0.4329
  564MOL0     C74370   3.447   5.272   0.893  0.1054  0.0039  0.2125
  564MOL0     C74371   3.534   5.353   0.825  0.0119 -0.6736 -0.3501
  564MOL0     C74372   3.676   5.343   0.857  0.2177  0.2634  0.3879
  564MOL0     C74373   3.727   5.259   0.949  0.1065 -0.4849 -0.3107
  564MOL0     O74374   3.862   5.263   0.961  0.0707 -0.0093  0.0368
  564MOL0     C74375   3.927   5.159   1.036  0.3332  0.0122  0.0667
  564MOL0     C74376   4.071   5.180   0.997 -0.1690 -0.6627  0.1865
  564MOL0     C74377   4.154   5.045   1.006  0.0515  0.6025  0.6985
  564MOL0     C74378   4.312   5.058   1.003 -0.3824  0.4069 -0.2172
  564MOL0     C74379   4.368   5.146   0.899  0.0221  0.0578  0.0280
  564MOL0     C74380   4.409   5.215   0.814  0.2462  0.6256  0.0686
  564MOL0     C74381   3.639   5.174   1.010  0.5830 -0.5795 -1.2435
  564MOL0     C74382   3.500   5.176   0.985 -0.5748 -0.1734  0.4582
  564MOL0     H74383   3.121   5.424   0.579 -0.1560  0.3246 -0.0182
  564MOL0     H74384   2.891   5.472   0.555  3.4384  1.3295 -1.0646
  564MOL0     H74385   2.622   5.531   0.946 -1.1656 -0.2638 -0.2761
  564MOL0     H74386   2.665   5.368   0.917 -0.5815 -0.3907  0.5097
  564MOL0     H74387   2.422   5.376   0.910 -0.4734  0.3180  0.4215
  564MOL0     H74388   2.491   5.339   0.751 -1.7530 -1.1667  0.4901
  564MOL0     H74389   2.311   5.498   0.704 -0.4487 -2.9218 -0.1677
  564MOL0     H74390   2.445   5.596   0.699  0.2350  2.7266  1.4102
  564MOL0     H74391   2.251   5.529   0.938 -0.7875 -0.6496 -0.6920
  564MOL0     H74392   2.398   5.628   0.953 -0.8933  0.0691  1.1552
  564MOL0     H74393   2.151   5.670   0.780 -0.4207 -0.1529 -0.7074
  564MOL0     H74394   2.290   5.769   0.755 -0.4677  0.3877  0.5203
  564MOL0     H74395   2.287   5.866   0.968  2.5920 -3.0829 -0.2175
  564MOL0     H74396   2.161   5.751   1.030  1.3135 -0.3203 -0.1872
  564MOL0     H74397   2.115   5.932   0.782 -0.6466 -2.6138 -1.1162
  564MOL0     H74398   1.995   5.857   0.874  0.9345 -1.3245 -1.5624
  564MOL0     H74399   2.108   6.120   0.904 -0.9038 -0.9787 -1.2963
  564MOL0     H74400   2.180   6.032   1.040 -0.6246  0.3665 -0.2469
  564MOL0     H74401   2.001   5.876   1.182  0.0828  0.2907  1.2942
  564MOL0     H74402   1.641   5.991   1.294 -1.2710 -0.3512 -1.2879
  564MOL0     H74403   1.782   5.904   1.360 -0.4105 -1.1887 -0.5346
  564MOL0     H74404   1.737   5.717   1.212  0.0890  0.5313 -0.8776
  564MOL0     H74405   1.607   5.803   1.118 -0.1780  1.2873  0.9329
  564MOL0     H74406   1.618   5.754   1.415 -0.2362 -0.1045 -0.0689
  564MOL0     H74407   1.475   5.818   1.328 -2.1974 -2.2571  1.0156
  564MOL0     H74408   1.460   5.582   1.409  0.5560 -2.6745 -0.4662
  564MOL0     H74409   1.602   5.545   1.326 -1.0534 -0.8713  1.8983
  564MOL0     H74410   1.249   5.521   1.011 -0.1146  0.5375 -0.6772
  564MOL0     H74411   1.315   5.387   0.795 -1.1839 -0.2090  0.6399
  564MOL0     H74412   1.760   5.251   0.614 -4.2689  1.4456 -0.1282
  564MOL0     H74413   1.885   5.137   0.448  1.5031  0.0313  1.7248
  564MOL0     H74414   1.837   4.807   0.168 -0.5643 -1.8195  0.1875
  564MOL0     H74415   1.712   4.781   0.292 -0.2824  3.4572  0.4571
  564MOL0     H74416   1.918   4.618   0.260 -2.4887 -0.5717 -0.6069
  564MOL0     H74417   1.886   4.660   0.434  0.7187 -2.0417 -1.2406
  564MOL0     H74418   2.104   4.647   0.409  0.8700 -0.3049 -1.6819
  564MOL0     H74419   2.066   4.824   0.424 -0.3818 -0.1937  0.0940
  564MOL0     H74420   2.094   4.690   0.153  1.9709  1.6357 -2.3283
  564MOL0     H74421   2.107   4.858   0.197 -2.1403 -1.0543 -0.1482
  564MOL0     H74422   2.312   4.728   0.117  0.1931  0.2205 -0.9409
  564MOL0     H74423   2.316   4.642   0.264  1.3186  0.3148  0.3724
  564MOL0     H74424   2.357   4.849   0.392  0.4929 -2.9864  0.6509
  564MOL0     H74425   2.306   4.958   0.252 -0.1995  0.8888  3.5153
  564MOL0     H74426   2.520   4.895   0.143  1.6557  2.1256  1.3308
  564MOL0     H74427   2.533   4.975   0.302  2.6927  0.5888 -1.3700
  564MOL0     H74428   2.547   4.668   0.262 -1.8600  0.0956  1.6699
  564MOL0     H74429   2.596   4.754   0.401 -0.1061  0.0741 -0.2276
  564MOL0     H74430   1.679   4.776   0.509  0.7783 -0.7438  1.2970
  564MOL0     H74431   1.558   4.873   0.700  1.1122 -0.2979  1.7251
  564MOL0     H74432   1.691   5.317   0.946 -0.3123  0.5157  0.4937
  564MOL0     H74433   1.667   5.457   1.139 -0.1713  2.3939  1.2896
  564MOL0     H74434   2.848   5.473   0.991 -1.2193  0.1103 -1.5252
  564MOL0     H74435   3.085   5.417   1.000 -0.4458  1.2516 -0.1291
  564MOL0     H74436   3.501   5.439   0.766 -0.1059  0.6988  1.6156
  564MOL0     H74437   3.738   5.419   0.812 -3.2502  2.7617 -0.5816
  564MOL0     H74438   3.897   5.059   1.002 -1.3157  0.2886  0.5936
  564MOL0     H74439   3.913   5.164   1.144 -0.6168  0.0008 -0.0482
  564MOL0     H74440   4.072   5.217   0.894 -0.2319 -0.1854  0.3548
  564MOL0     H74441   4.103   5.262   1.061 -2.8625  1.3792 -0.8975
  564MOL0     H74442   4.129   4.987   0.917 -0.8571  0.6950  0.8815
  564MOL0     H74443   4.129   4.981   1.091  3.4029 -2.8293 -0.6077
  564MOL0     H74444   4.346   5.090   1.102  1.5662  0.3723 -0.8476
  564MOL0     H74445   4.340   4.955   0.980  0.9441  1.2156 -2.5543
  564MOL0     H74446   4.441   5.282   0.736  1.3631  1.5782  1.2947
  564MOL0     H74447   3.674   5.103   1.085  0.6032  2.2501  1.6099
  564MOL0     H74448   3.426   5.114   1.034  0.7230 -1.3176  1.0569
  565MOL0     O74449   9.469   0.810   6.788 -0.8028  0.3956 -0.4140
  565MOL0     C74450   9.419   0.805   6.671  0.5592  0.0285  0.3173
  565MOL0     O74451   9.297   0.747   6.634 -0.2801 -0.3156  0.5601
  565MOL0     C74452   9.218   0.704   6.737 -0.3511  0.3869 -0.4079
  565MOL0     C74453   9.168   0.575   6.733  0.1895 -0.4134 -0.0024
  565MOL0     C74454   9.088   0.514   6.837  0.9719 -0.3226 -0.7335
  565MOL0     C74455   9.058   0.594   6.946 -0.7679  0.4473  0.5854
  565MOL0     O74456   9.012   0.543   7.065  1.1897  0.2754 -0.7090
  565MOL0     C74457   8.901   0.448   7.065 -0.3357 -0.5235 -1.0539
  565MOL0     C74458   8.819   0.464   7.190 -0.6039  0.0852  0.2302
  565MOL0     C74459   8.731   0.334   7.212 -0.4905  0.2305  0.9328
  565MOL0     C74460   8.615   0.339   7.304 -0.2083  0.6187 -0.3165
  565MOL0     C74461   8.506   0.239   7.274 -0.5076  1.1289 -0.7293
  565MOL0     C74462   8.379   0.279   7.352  0.1051 -0.5797  0.1314
  565MOL0     C74463   8.287   0.167   7.351 -0.5042 -0.0520  1.1568
  565MOL0     C74464   8.156   0.212   7.408  0.6429  0.2908 -0.7687
  565MOL0     N74465   8.064   0.106   7.410  0.1981  0.2248  0.3506
  565MOL0     C74466   8.007   0.044   7.519 -0.1003  0.3829  0.1750
  565MOL0     C74467   7.949  -0.069   7.466 -0.5097 -0.0871  0.3934
  565MOL0     C74468   7.860  -0.170   7.542  1.8321  0.6122 -1.1854
  565MOL0     C74469   7.710  -0.150   7.520 -1.2914 -0.3378  0.2340
  565MOL0     C74470   7.662  -0.018   7.586  0.4225  0.4453 -0.1751
  565MOL0     C74471   7.515   0.018   7.546 -0.1123  0.4816 -0.9064
  565MOL0     O74472   7.422  -0.044   7.640  0.1805  0.2136  0.1236
  565MOL0     C74473   7.287  -0.039   7.630  0.2858 -0.2392  0.1823
  565MOL0     C74474   7.225   0.032   7.521  0.8580  0.4170  0.5944
  565MOL0     C74475   7.084   0.027   7.507 -0.3298 -0.4461 -0.6947
  565MOL0     C74476   7.005  -0.038   7.604 -0.4364 -0.7162  0.3509
  565MOL0     C74477   6.850  -0.043   7.599 -0.0294 -0.7183  0.5976
  565MOL0     O74478   6.797  -0.058   7.722 -0.0171  0.7109 -0.1290
  565MOL0     C74479   6.668  -0.026   7.745  0.6049  0.0706  1.0505
  565MOL0     C74480   6.594   0.084   7.690 -0.3339  0.0222  0.4594
  565MOL0     C74481   6.454   0.100   7.727  0.7777 -0.1312  0.1367
  565MOL0     C74482   6.388   0.007   7.810 -0.1901  0.2370  0.5930
  565MOL0     O74483   6.254   0.006   7.853 -0.2723 -0.3254  0.0072
  565MOL0     C74484   6.173   0.106   7.798  0.5523 -0.4167 -0.2617
  565MOL0     C74485   6.124   0.077   7.656 -0.3228 -0.4412  0.2715
  565MOL0     C74486   6.078   0.213   7.596  0.4167 -1.0138 -0.5359
  565MOL0     C74487   6.054   0.205   7.446 -0.3372  0.0651 -0.2311
  565MOL0     C74488   6.021   0.340   7.382 -0.1980 -0.6839 -0.3936
  565MOL0     C74489   5.914   0.314   7.273 -0.1192 -0.6813 -0.3333
  565MOL0     C74490   5.915   0.424   7.163  0.2731 -1.2416  0.2992
  565MOL0     C74491   5.824   0.398   7.045  0.4992 -0.0289 -0.2040
  565MOL0    Cl74492   5.653   0.409   7.094  0.1909  0.1061  0.2279
  565MOL0     C74493   6.467  -0.102   7.863  0.0610 -0.0852 -0.1780
  565MOL0     C74494   6.606  -0.114   7.837 -0.4749 -0.2543  0.0832
  565MOL0     O74495   6.792  -0.010   7.496 -0.6964  0.2195  0.4941
  565MOL0     C74496   7.071  -0.100   7.709  0.5754  0.6075 -0.2728
  565MOL0     C74497   7.212  -0.106   7.724  1.1914  0.2032 -0.2959
  565MOL0     N74498   7.957  -0.062   7.325 -0.2109  0.0454  0.2416
  565MOL0     N74499   8.035   0.038   7.291 -0.0170 -0.4138  0.1409
  565MOL0     C74500   9.099   0.728   6.946 -0.4901 -0.5934  0.6646
  565MOL0     C74501   9.177   0.786   6.848  0.1020  0.1080 -0.0317
  565MOL0     C74502   9.484   0.867   6.561 -0.6447  0.5525 -0.3089
  565MOL0     C74503   9.426   0.895   6.441 -0.5570  0.8654  0.2513
  565MOL0     C74504   9.498   0.959   6.332 -0.1489  0.2988 -0.5548
  565MOL0     C74505   9.634   0.995   6.354 -0.5854  0.5589 -0.4924
  565MOL0     O74506   9.717   1.058   6.264  0.3203  0.2138 -0.2613
  565MOL0     C74507   9.674   1.067   6.128 -0.8214  0.5571  0.8688
  565MOL0     C74508   9.788   1.126   6.048  0.5897  0.0121 -0.2296
  565MOL0     C74509   9.851   1.250   6.109  0.0710 -0.8252  0.0152
  565MOL0     C74510   9.960   1.303   6.014  0.8220 -0.5069 -0.0716
  565MOL0     C74511  10.013   1.423   6.082  0.4089  0.1058  0.0618
  565MOL0     C74512  10.087   1.511   6.125 -0.2406 -0.4588 -0.1330
  565MOL0     C74513   9.696   0.972   6.481 -0.3869 -1.5034  0.2653
  565MOL0     C74514   9.613   0.912   6.583 -0.1476 -0.2784 -0.7680
  565MOL0     H74515   9.176   0.517   6.641  1.5137  1.5206 -1.1929
  565MOL0     H74516   9.053   0.412   6.852 -0.2689  0.4828  2.5599
  565MOL0     H74517   8.926   0.342   7.053 -2.5837 -1.0366 -1.7216
  565MOL0     H74518   8.838   0.471   6.978 -0.4763 -1.7214 -1.2983
  565MOL0     H74519   8.751   0.550   7.191 -1.8726 -0.8799  1.5074
  565MOL0     H74520   8.891   0.474   7.272 -0.2303  1.2241 -0.2179
  565MOL0     H74521   8.817   0.284   7.255  0.7489  3.1778  2.1801
  565MOL0     H74522   8.697   0.306   7.112  0.4463  2.7458 -0.1784
  565MOL0     H74523   8.646   0.302   7.402 -3.4934  0.3487  0.7559
  565MOL0     H74524   8.570   0.438   7.320  0.6500  1.2386 -1.6283
  565MOL0     H74525   8.546   0.139   7.294  1.3293  1.0842 -3.9248
  565MOL0     H74526   8.473   0.240   7.170 -1.4488  0.5562 -0.4399
  565MOL0     H74527   8.339   0.370   7.305 -1.5153 -0.6648  1.2240
  565MOL0     H74528   8.405   0.310   7.454 -1.5756  2.8719 -0.3289
  565MOL0     H74529   8.273   0.133   7.248 -0.9779 -0.7388  1.4406
  565MOL0     H74530   8.326   0.078   7.402  0.1448 -0.2185  0.3862
  565MOL0     H74531   8.117   0.292   7.346 -1.3002  0.8245  1.0405
  565MOL0     H74532   8.173   0.249   7.510  2.1342  3.0548 -1.9022
  565MOL0     H74533   8.011   0.084   7.620  1.4167  2.5472 -0.6658
  565MOL0     H74534   7.880  -0.164   7.650  0.4490  1.9350 -0.9752
  565MOL0     H74535   7.886  -0.270   7.505 -2.7769 -0.6350 -1.6211
  565MOL0     H74536   7.652  -0.230   7.565  2.3102 -1.4490  3.4990
  565MOL0     H74537   7.697  -0.144   7.411 -0.7007 -0.9507  0.1245
  565MOL0     H74538   7.678  -0.026   7.694  0.3583 -1.5389 -0.2675
  565MOL0     H74539   7.721   0.064   7.544 -0.9964  1.0688 -1.0135
  565MOL0     H74540   7.483  -0.017   7.448 -0.9587  2.0335 -1.2211
  565MOL0     H74541   7.505   0.127   7.542 -0.9735  0.4304 -0.3366
  565MOL0     H74542   7.276   0.067   7.432 -1.0617 -0.5187 -0.9352
  565MOL0     H74543   7.029   0.060   7.419  1.7928  0.0109 -1.9108
  565MOL0     H74544   6.637   0.153   7.619 -1.6243 -0.9897 -1.4014
  565MOL0     H74545   6.398   0.177   7.674  3.3100  2.4243  0.8774
  565MOL0     H74546   6.216   0.205   7.814  0.7143 -0.9206  2.9954
  565MOL0     H74547   6.084   0.108   7.861  0.0788 -1.1502 -0.8816
  565MOL0     H74548   6.043   0.005   7.647 -1.2168  0.7452 -1.7413
  565MOL0     H74549   6.209   0.037   7.600  0.2249  1.0373 -0.0095
  565MOL0     H74550   6.160   0.283   7.615 -0.0696 -0.8146  1.0521
  565MOL0     H74551   5.990   0.251   7.649 -0.4199 -1.2978 -1.6875
  565MOL0     H74552   6.135   0.160   7.388  0.9462  0.1649  1.4203
  565MOL0     H74553   5.963   0.146   7.432 -0.1283 -0.4703  0.5989
  565MOL0     H74554   6.115   0.391   7.357  0.7332  0.1267  3.8766
  565MOL0     H74555   5.982   0.400   7.465 -0.6819 -0.3147 -0.8829
  565MOL0     H74556   5.817   0.297   7.320  0.8539 -0.1454  2.0374
  565MOL0     H74557   5.946   0.234   7.205  1.9607  1.6440 -2.3082
  565MOL0     H74558   5.888   0.515   7.217  0.7534 -1.1525  0.3923
  565MOL0     H74559   6.015   0.448   7.125 -0.5492  1.7707 -0.1994
  565MOL0     H74560   5.842   0.297   7.007 -4.8943 -2.5902  2.9219
  565MOL0     H74561   5.849   0.467   6.965  1.6791  1.9675  1.7616
  565MOL0     H74562   6.419  -0.177   7.924 -2.5579  1.0996 -0.6093
  565MOL0     H74563   6.660  -0.200   7.875  1.4865  0.6279 -0.5733
  565MOL0     H74564   7.004  -0.156   7.774 -2.4935  0.6567 -3.1558
  565MOL0     H74565   7.257  -0.172   7.797  1.5639 -1.3555 -1.8676
  565MOL0     H74566   9.078   0.786   7.035 -2.8029  1.9227 -1.3466
  565MOL0     H74567   9.202   0.891   6.836  0.9344 -0.2148 -1.4374
  565MOL0     H74568   9.325   0.866   6.415 -0.6442  3.0321 -2.3381
  565MOL0     H74569   9.445   0.993   6.244 -1.4051  4.0245  1.4237
  565MOL0     H74570   9.584   1.129   6.122  0.7307  2.8060 -3.4900
  565MOL0     H74571   9.646   0.971   6.084  1.1166 -0.8014  2.4182
  565MOL0     H74572   9.845   1.036   6.023 -1.7541 -1.2670 -1.3169
  565MOL0     H74573   9.746   1.169   5.956  0.4500  0.7890  0.1933
  565MOL0     H74574   9.887   1.235   6.211 -1.2799  1.0654  0.8204
  565MOL0     H74575   9.768   1.318   6.129 -1.3432 -2.3700 -0.3137
  565MOL0     H74576  10.037   1.229   5.993 -1.9113 -3.3386 -0.9776
  565MOL0     H74577   9.909   1.332   5.921 -0.8079 -0.6851  0.7197
  565MOL0     H74578  10.152   1.586   6.165  0.9820 -1.5639  0.0007
  565MOL0     H74579   9.798   1.003   6.500 -0.2703  0.5708 -2.9641
  565MOL0     H74580   9.663   0.887   6.677 -2.1322  3.0222  1.3580
  566MOL0     O74581   4.927   6.462  10.150 -0.3238  0.0523 -0.1389
  566MOL0     C74582   4.879   6.548  10.230 -0.9543 -0.6055 -0.5180
  566MOL0     O74583   4.952   6.646  10.293 -0.7295  0.6814 -0.0855
  566MOL0     C74584   5.086   6.611  10.306 -0.4432  1.2714 -0.7493
  566MOL0     C74585   5.172   6.649  10.209  0.9333 -0.1463  0.7474
  566MOL0     C74586   5.305   6.597  10.199  0.3346 -0.1628  0.2122
  566MOL0     C74587   5.352   6.502  10.290 -0.2766  0.6413 -0.3699
  566MOL0     O74588   5.484   6.462  10.274 -0.5982 -0.3483 -0.1192
  566MOL0     C74589   5.485   6.326  10.292 -0.4639  0.4158  0.9123
  566MOL0     C74590   5.606   6.282  10.226 -1.1173  0.1962  0.0303
  566MOL0     C74591   5.635   6.132  10.251  0.6624 -0.4398 -0.8926
  566MOL0     C74592   5.788   6.113  10.244 -1.0616  0.7297  1.1007
  566MOL0     C74593   5.820   5.981  10.297 -1.3538  1.0948 -0.3143
  566MOL0     C74594   5.969   5.928  10.284 -0.0905 -0.4486  0.5268
  566MOL0     C74595   6.051   6.026  10.369 -0.4459 -0.9406  0.6792
  566MOL0     C74596   6.201   5.994  10.361 -0.0773  0.1886 -0.3788
  566MOL0     N74597   6.243   5.856  10.401 -0.0835  0.7890  0.2752
  566MOL0     C74598   6.196   5.782  10.515  0.3875 -0.1365  0.3640
  566MOL0     C74599   6.245   5.659  10.490  0.1373 -1.0449 -0.3951
  566MOL0     C74600   6.225   5.540  10.581 -0.8604  0.1033 -0.0895
  566MOL0     C74601   6.106   5.455  10.550  0.3634 -0.7957 -0.2561
  566MOL0     C74602   5.969   5.530  10.546  0.9657  0.3971  0.3066
  566MOL0     C74603   5.906   5.584  10.674  1.1559 -0.8580 -0.1734
  566MOL0     O74604   5.890   5.729  10.669  0.5270  0.0743  0.4520
  566MOL0     C74605   5.761   5.772  10.633 -1.1803 -0.6113 -0.3815
  566MOL0     C74606   5.730   5.901  10.674  0.1598  0.0069  0.2701
  566MOL0     C74607   5.605   5.958  10.648 -0.5807  0.0078 -1.0185
  566MOL0     C74608   5.516   5.895  10.557 -0.5461 -0.8198  0.2579
  566MOL0     C74609   5.391   5.972  10.511 -0.7142  0.2992 -0.6270
  566MOL0     O74610   5.334   6.067  10.593  0.2399 -0.7966  0.6797
  566MOL0     C74611   5.219   6.133  10.562  0.0533  0.9065 -0.9988
  566MOL0     C74612   5.149   6.184  10.672 -0.4929 -0.2193 -0.3904
  566MOL0     C74613   5.038   6.256  10.654 -0.3021  0.3808  0.7236
  566MOL0     C74614   4.978   6.251  10.523 -0.0436 -0.4342 -1.3810
  566MOL0     O74615   4.847   6.283  10.518 -0.0017 -0.3456  0.2510
  566MOL0     C74616   4.766   6.209  10.431  0.2311 -0.3913  0.7598
  566MOL0     C74617   4.622   6.237  10.469 -0.2492 -0.6834 -0.1537
  566MOL0     C74618   4.524   6.156  10.382  0.9986  0.9713 -0.3394
  566MOL0     C74619   4.382   6.190  10.433 -0.5295  0.1332  1.1552
  566MOL0     C74620   4.287   6.106  10.350  0.2290  0.2919 -0.5068
  566MOL0     C74621   4.135   6.163  10.348 -0.7302 -0.9756  0.1902
  566MOL0     C74622   4.037   6.056  10.300 -0.0755  0.1844  0.3978
  566MOL0     C74623   3.896   6.110  10.283  0.0981 -0.1934  0.0200
  566MOL0    Cl74624   3.883   6.215  10.153 -0.2518  0.1820  0.4568
  566MOL0     C74625   5.049   6.223  10.416 -0.7133 -0.8047 -0.1976
  566MOL0     C74626   5.178   6.166  10.432 -0.3088 -0.6658  0.0799
  566MOL0     O74627   5.339   5.933  10.404  0.4949 -0.0891 -0.1001
  566MOL0     C74628   5.542   5.763  10.525  0.0253  0.4016  0.5681
  566MOL0     C74629   5.666   5.697  10.559  0.9642  0.5864  0.0883
  566MOL0     N74630   6.321   5.658  10.371 -0.3945 -0.2952  0.7204
  566MOL0     N74631   6.328   5.777  10.322  0.0115 -0.5496  0.1713
  566MOL0     C74632   5.271   6.478  10.404  0.7259 -0.5788  0.3801
  566MOL0     C74633   5.139   6.535  10.414  0.3442  0.9275 -0.4422
  566MOL0     C74634   4.727   6.550  10.254 -1.1015 -0.1933  0.0446
  566MOL0     C74635   4.635   6.482  10.175 -0.6447 -0.2756 -0.1567
  566MOL0     C74636   4.500   6.487  10.200  0.3718 -0.2841  0.7883
  566MOL0     C74637   4.452   6.566  10.310 -0.3504  0.0348  0.2427
  566MOL0     O74638   4.313   6.568  10.324  0.1987  0.3792  0.7467
  566MOL0     C74639   4.268   6.672  10.412  0.2944  0.5087  0.2039
  566MOL0     C74640   4.116   6.677  10.426  0.0706 -0.2297  0.4186
  566MOL0     C74641   4.066   6.595  10.544  0.7874  0.3463 -1.3411
  566MOL0     C74642   3.914   6.603  10.572  0.4454  0.4843  0.2908
  566MOL0     C74643   3.857   6.739  10.583  0.5730  0.1507  0.0380
  566MOL0     C74644   3.802   6.849  10.611  0.5542  0.6773  0.1402
  566MOL0     C74645   4.547   6.630  10.386  0.1264 -0.3688 -0.0557
  566MOL0     C74646   4.682   6.639  10.350 -0.4358  1.0475 -0.2650
  566MOL0     H74647   5.137   6.717  10.132  0.9689 -1.6606 -0.6576
  566MOL0     H74648   5.367   6.631  10.117 -0.0956 -1.1659 -0.5495
  566MOL0     H74649   5.401   6.279  10.239  1.1520 -1.6064  0.0018
  566MOL0     H74650   5.491   6.290  10.395 -0.2433 -1.6099  0.2318
  566MOL0     H74651   5.691   6.342  10.259 -1.0935  0.7808 -1.0346
  566MOL0     H74652   5.609   6.304  10.118  2.5186 -2.0479 -0.4866
  566MOL0     H74653   5.596   6.072  10.168  2.5133 -1.9541 -0.7266
  566MOL0     H74654   5.600   6.101  10.350  2.5160 -0.0719 -0.0977
  566MOL0     H74655   5.830   6.131  10.144  0.1815  0.3430  1.5291
  566MOL0     H74656   5.834   6.189  10.308  1.6335 -1.1986  1.6582
  566MOL0     H74657   5.767   5.903  10.244 -1.3741  1.0264 -0.1939
  566MOL0     H74658   5.799   5.975  10.405 -2.3340  2.4804 -0.4006
  566MOL0     H74659   5.985   5.920  10.176  0.2760 -2.3221  0.6761
  566MOL0     H74660   5.981   5.825  10.320 -0.6915 -1.2546 -1.3808
  566MOL0     H74661   6.021   6.128  10.342 -2.7222 -1.7929 -0.2942
  566MOL0     H74662   6.021   6.019  10.474 -2.3287  5.1068  0.9275
  566MOL0     H74663   6.253   6.058  10.433 -3.0645  3.1750 -0.6193
  566MOL0     H74664   6.237   5.999  10.258  1.0886 -3.6592 -0.2849
  566MOL0     H74665   6.140   5.804  10.605  0.1964  0.9413 -0.0039
  566MOL0     H74666   6.222   5.564  10.688 -0.3159  0.0210 -0.0550
  566MOL0     H74667   6.310   5.475  10.560 -0.6349  0.5334 -0.5126
  566MOL0     H74668   6.108   5.373  10.623  2.2206 -1.1377 -0.6446
  566MOL0     H74669   6.128   5.405  10.455  0.4736 -3.9752  1.2966
  566MOL0     H74670   5.976   5.617  10.480 -0.7133 -0.1411 -0.6504
  566MOL0     H74671   5.893   5.470  10.495 -0.6088  1.4393  1.3050
  566MOL0     H74672   5.979   5.561  10.752  1.2395 -1.4257 -0.4180
  566MOL0     H74673   5.814   5.530  10.701  1.1786 -0.1799  1.3871
  566MOL0     H74674   5.804   5.951  10.735  2.8779  0.7140 -3.2583
  566MOL0     H74675   5.567   6.053  10.685  1.1664  1.3897 -2.5714
  566MOL0     H74676   5.192   6.173  10.771 -4.7201  0.3094  1.7175
  566MOL0     H74677   4.992   6.312  10.735  0.9352 -0.0124  1.7208
  566MOL0     H74678   4.778   6.100  10.443  0.7552 -0.2961  1.1590
  566MOL0     H74679   4.781   6.247  10.330  2.0244  1.6462  1.7133
  566MOL0     H74680   4.606   6.344  10.454  1.8494 -0.3741 -0.4624
  566MOL0     H74681   4.608   6.221  10.576  0.1137  1.6593  0.2796
  566MOL0     H74682   4.541   6.050  10.405 -1.5647  0.1293 -1.8863
  566MOL0     H74683   4.535   6.166  10.274 -1.0854  0.7098 -0.6080
  566MOL0     H74684   4.370   6.168  10.539  2.7574 -1.2732  1.3592
  566MOL0     H74685   4.371   6.295  10.406  0.7414 -0.6284 -3.1673
  566MOL0     H74686   4.287   6.005  10.391  1.3331  1.0154  1.3850
  566MOL0     H74687   4.319   6.101  10.245  2.8776 -2.4559  0.3099
  566MOL0     H74688   4.121   6.245  10.278 -1.7600 -1.1654  0.1562
  566MOL0     H74689   4.120   6.203  10.449  0.1325  1.9477 -0.7416
  566MOL0     H74690   4.080   6.005  10.214  3.5272 -1.3744  2.8555
  566MOL0     H74691   4.028   5.979  10.378 -1.1770  0.0985  0.2053
  566MOL0     H74692   3.861   6.163  10.372 -2.0156  1.0341 -1.4521
  566MOL0     H74693   3.811   6.042  10.276 -1.6992  1.6342  2.2572
  566MOL0     H74694   5.009   6.238  10.316  0.4675 -0.7962 -0.6931
  566MOL0     H74695   5.237   6.134  10.347 -0.9280  0.1511 -0.6735
  566MOL0     H74696   5.467   5.706  10.471  1.2302 -1.8455  1.1505
  566MOL0     H74697   5.677   5.594  10.529  1.2267  0.5888  0.1775
  566MOL0     H74698   5.325   6.422  10.481  0.8729 -0.4134  0.3989
  566MOL0     H74699   5.078   6.509  10.500  1.0381 -3.2185 -0.9955
  566MOL0     H74700   4.673   6.421  10.093  1.0848  0.8970 -0.2734
  566MOL0     H74701   4.429   6.440  10.133 -0.1161  2.7267 -0.9457
  566MOL0     H74702   4.288   6.774  10.378 -0.1656  0.7798  0.7291
  566MOL0     H74703   4.318   6.654  10.508  1.6976  4.0996  0.3090
  566MOL0     H74704   4.084   6.780  10.443  2.2044  0.0895  3.2951
  566MOL0     H74705   4.062   6.630  10.343  2.4997  0.7306 -1.8231
  566MOL0     H74706   4.112   6.639  10.633  0.8668  1.8892 -2.0996
  566MOL0     H74707   4.100   6.493  10.527  2.2996  0.7518 -0.8551
  566MOL0     H74708   3.848   6.545  10.507  3.1389  3.0564 -5.3969
  566MOL0     H74709   3.901   6.570  10.676  1.0166 -2.1329 -0.3919
  566MOL0     H74710   3.748   6.939  10.634  0.5145  0.3640  1.3238
  566MOL0     H74711   4.515   6.693  10.469 -3.1174  1.4401 -2.4255
  566MOL0     H74712   4.759   6.681  10.414  0.1137 -2.1728  1.3410
  567MOL0     O74713   0.082   3.925   2.881 -0.2966 -1.2626 -0.2548
  567MOL0     C74714   0.175   3.846   2.864 -0.5880 -0.6412  0.6130
  567MOL0     O74715   0.165   3.710   2.820 -0.1760 -0.3068  0.8257
  567MOL0     C74716   0.041   3.649   2.843  0.5416 -0.4525  0.8928
  567MOL0     C74717   0.033   3.562   2.952  0.0080  0.6432 -0.9047
  567MOL0     C74718  -0.095   3.494   2.983  0.1694 -0.1724 -0.4809
  567MOL0     C74719  -0.203   3.512   2.889  0.3876  0.2525 -0.0214
  567MOL0     O74720  -0.320   3.443   2.899 -0.3462  0.0777 -1.2921
  567MOL0     C74721  -0.383   3.455   3.028  0.2050 -0.4885 -0.4359
  567MOL0     C74722  -0.528   3.498   3.002  0.6714 -0.5200  0.5301
  567MOL0     C74723  -0.633   3.469   3.116  0.9894  0.6551 -0.2857
  567MOL0     C74724  -0.783   3.504   3.087 -0.8930 -0.2820  1.0392
  567MOL0     C74725  -0.875   3.430   3.190 -0.0201  0.2983 -0.0712
  567MOL0     C74726  -0.881   3.507   3.319  0.2291  0.1678 -0.6334
  567MOL0     C74727  -0.974   3.426   3.414 -0.2434 -0.1868  0.6876
  567MOL0     C74728  -0.966   3.480   3.555 -0.2446  0.2158 -0.1913
  567MOL0     N74729  -1.070   3.418   3.651  0.5087  0.1114  0.8832
  567MOL0     C74730  -1.119   3.297   3.662  0.3765 -0.4139  0.1168
  567MOL0     C74731  -1.227   3.304   3.743 -0.2185  0.1028 -0.3037
  567MOL0     C74732  -1.316   3.185   3.779 -0.1721 -0.7754 -0.0142
  567MOL0     C74733  -1.453   3.228   3.845 -0.8235  0.5113 -0.1221
  567MOL0     C74734  -1.516   3.106   3.907 -0.0597 -0.2119  0.2964
  567MOL0     C74735  -1.654   3.146   3.925  0.2817  0.4258  0.0243
  567MOL0     O74736  -1.737   3.035   3.957 -0.4205 -0.6400  0.0817
  567MOL0     C74737  -1.866   3.079   3.988  0.1363 -0.2397 -0.1964
  567MOL0     C74738  -1.920   3.047   4.113  0.9872 -0.7533 -0.2375
  567MOL0     C74739  -2.060   3.071   4.140 -0.3913 -0.4047 -0.0857
  567MOL0     C74740  -2.130   3.148   4.047 -0.2600 -0.1118  0.4986
  567MOL0     C74741  -2.269   3.195   4.066 -0.2959 -0.0759 -0.8544
  567MOL0     O74742  -2.326   3.270   3.976 -0.1880  0.2446  0.3620
  567MOL0     C74743  -2.444   3.327   4.008  0.4456  0.0649 -0.4160
  567MOL0     C74744  -2.568   3.253   3.988  0.2057  0.9173 -0.7261
  567MOL0     C74745  -2.687   3.316   3.999  0.6536  0.9572  0.8249
  567MOL0     C74746  -2.692   3.455   4.013  1.0207  0.4562 -0.1150
  567MOL0     O74747  -2.812   3.515   4.006  0.2224  0.4758 -0.5744
  567MOL0     C74748  -2.831   3.614   4.109  0.2182 -0.0673 -0.4892
  567MOL0     C74749  -2.985   3.611   4.133 -0.6218 -0.6269  0.1544
  567MOL0     C74750  -3.053   3.721   4.042 -0.1208  0.5449  1.1251
  567MOL0     C74751  -3.207   3.726   4.048 -0.1633 -1.5932  1.7606
  567MOL0     C74752  -3.265   3.618   3.960  0.2316  0.5932  0.8741
  567MOL0     C74753  -3.402   3.565   4.020  0.1486  0.2335  0.4954
  567MOL0     C74754  -3.497   3.500   3.903  0.2450 -0.1635 -0.2170
  567MOL0     C74755  -3.603   3.419   3.960  0.1454 -0.1402  0.3246
  567MOL0    Cl74756  -3.686   3.316   3.847 -0.3306 -0.0039 -0.6486
  567MOL0     C74757  -2.573   3.530   4.021  0.5800 -0.4845 -0.6483
  567MOL0     C74758  -2.451   3.470   4.025  1.0200  0.3565  0.2222
  567MOL0     O74759  -2.313   3.156   4.177 -0.1637 -0.2065  1.3227
  567MOL0     C74760  -2.076   3.178   3.917  0.2676  0.9324  0.2232
  567MOL0     C74761  -1.945   3.138   3.887  0.1290 -0.6922 -0.5698
  567MOL0     N74762  -1.228   3.429   3.793  0.7598  0.0634  1.0431
  567MOL0     N74763  -1.142   3.497   3.727  0.5413 -0.5514  0.1870
  567MOL0     C74764  -0.184   3.590   2.775  1.0316 -1.0833  0.8002
  567MOL0     C74765  -0.069   3.671   2.752  0.2523 -0.2458  0.2614
  567MOL0     C74766   0.305   3.902   2.875 -0.0248  0.2090 -0.3338
  567MOL0     C74767   0.341   4.016   2.944 -0.3513  0.1708 -0.1123
  567MOL0     C74768   0.470   4.071   2.952 -0.7449 -0.6155 -0.4593
  567MOL0     C74769   0.578   3.992   2.911 -0.5686 -0.5923 -0.0475
  567MOL0     O74770   0.702   4.043   2.906  0.6492 -0.2850 -0.1949
  567MOL0     C74771   0.751   4.105   3.031 -0.3105  0.4027 -0.1381
  567MOL0     C74772   0.909   4.135   3.015  0.1384 -0.1580  0.7287
  567MOL0     C74773   0.931   4.245   2.903 -0.5697  0.3872 -0.0623
  567MOL0     C74774   1.081   4.282   2.875 -0.2316 -0.2791 -0.4925
  567MOL0     C74775   1.150   4.352   2.984  0.1754 -0.7283  0.3863
  567MOL0     C74776   1.210   4.447   3.038 -0.2130  0.0803 -0.4062
  567MOL0     C74777   0.550   3.874   2.838  0.2777  1.1869 -0.3494
  567MOL0     C74778   0.417   3.834   2.814  0.2552  1.5665 -0.1424
  567MOL0     H74779   0.116   3.541   3.018 -0.8249  1.7840  0.5623
  567MOL0     H74780  -0.113   3.418   3.057  3.6273 -0.1215  0.5656
  567MOL0     H74781  -0.341   3.529   3.096  1.9813 -1.7989 -0.0151
  567MOL0     H74782  -0.386   3.358   3.080 -0.3664  0.5405  1.5507
  567MOL0     H74783  -0.559   3.451   2.909  0.6308  1.5202 -0.5461
  567MOL0     H74784  -0.525   3.602   2.969  1.6913 -0.5011  0.6509
  567MOL0     H74785  -0.606   3.538   3.197  1.1614 -0.0780  0.2920
  567MOL0     H74786  -0.623   3.366   3.152  0.9258  0.7019 -0.1303
  567MOL0     H74787  -0.798   3.612   3.086  0.8498 -0.0234  0.4922
  567MOL0     H74788  -0.812   3.470   2.987  2.8350  1.7418 -0.8939
  567MOL0     H74789  -0.838   3.327   3.202  0.3557  0.4389  0.0089
  567MOL0     H74790  -0.976   3.429   3.149  0.8082  2.9915 -2.5984
  567MOL0     H74791  -0.923   3.606   3.297 -0.1465 -0.5502 -3.5208
  567MOL0     H74792  -0.780   3.525   3.356  0.4749 -1.2049 -0.5922
  567MOL0     H74793  -1.077   3.431   3.377  0.5331 -1.9733 -2.0584
  567MOL0     H74794  -0.932   3.325   3.422  0.3161  0.1787  3.2174
  567MOL0     H74795  -0.975   3.589   3.553  0.2885  0.2658  0.0636
  567MOL0     H74796  -0.866   3.450   3.587  0.4001  0.6539 -1.6894
  567MOL0     H74797  -1.084   3.211   3.606 -1.8614 -0.9476 -0.5741
  567MOL0     H74798  -1.258   3.114   3.839  1.4452 -0.5696 -1.2562
  567MOL0     H74799  -1.350   3.141   3.685  0.6486 -1.8742  0.1887
  567MOL0     H74800  -1.504   3.281   3.764 -0.0017 -1.5285 -2.1041
  567MOL0     H74801  -1.458   3.314   3.912 -2.9816  1.5263 -1.4897
  567MOL0     H74802  -1.525   3.017   3.843 -3.0901 -1.5828  2.3874
  567MOL0     H74803  -1.470   3.088   4.004  0.7133  1.6940  0.3314
  567MOL0     H74804  -1.684   3.190   3.830 -1.3438 -3.7574 -1.6323
  567MOL0     H74805  -1.667   3.234   3.990 -2.1152  1.3557 -1.5789
  567MOL0     H74806  -1.862   2.988   4.184  0.8238 -0.5461  0.0694
  567MOL0     H74807  -2.100   3.060   4.240  2.4034 -0.7701  1.0988
  567MOL0     H74808  -2.553   3.152   3.949  3.7300  1.7825 -2.0386
  567MOL0     H74809  -2.788   3.278   3.998  1.0152 -0.0436  0.2161
  567MOL0     H74810  -2.790   3.713   4.087 -0.8368  0.6766  0.7483
  567MOL0     H74811  -2.777   3.582   4.198 -0.2088  1.6116  0.4180
  567MOL0     H74812  -2.991   3.654   4.233  1.2296 -0.0211  0.0440
  567MOL0     H74813  -3.018   3.508   4.117  4.2686 -2.5407  0.7136
  567MOL0     H74814  -3.027   3.717   3.936  2.9356  1.3724  1.7409
  567MOL0     H74815  -3.012   3.815   4.081  1.5946  0.9124 -1.3617
  567MOL0     H74816  -3.246   3.707   4.149 -1.8030 -4.6984  0.6853
  567MOL0     H74817  -3.247   3.815   3.999  0.8168 -1.7572  0.6241
  567MOL0     H74818  -3.182   3.547   3.957  1.3973  1.8588  1.7513
  567MOL0     H74819  -3.288   3.652   3.858  0.2950  2.0320  1.3185
  567MOL0     H74820  -3.462   3.648   4.060 -0.4019  1.5077 -2.7060
  567MOL0     H74821  -3.374   3.491   4.095 -0.6334 -0.8474 -0.2456
  567MOL0     H74822  -3.546   3.575   3.840 -0.6560  0.5643  1.3080
  567MOL0     H74823  -3.420   3.450   3.843  0.6940  1.9578 -1.5261
  567MOL0     H74824  -3.672   3.480   4.020  1.2079  1.1512  0.2749
  567MOL0     H74825  -3.562   3.354   4.037 -2.7734 -2.8573 -0.2098
  567MOL0     H74826  -2.564   3.637   4.032  3.4827 -0.8397  1.5852
  567MOL0     H74827  -2.365   3.536   4.026  0.5605  0.9672  0.9772
  567MOL0     H74828  -2.137   3.223   3.840  1.1778 -0.2684 -1.2439
  567MOL0     H74829  -1.918   3.146   3.782 -0.9193  2.7641 -0.6986
  567MOL0     H74830  -0.267   3.593   2.706  1.1233 -0.8200  0.7002
  567MOL0     H74831  -0.062   3.738   2.666 -0.4264 -1.2932 -0.6444
  567MOL0     H74832   0.273   4.073   3.007  1.2307  1.7508  0.2348
  567MOL0     H74833   0.483   4.160   3.013 -2.9278  0.5722 -1.6090
  567MOL0     H74834   0.730   4.043   3.119 -0.9669 -0.3232 -0.7882
  567MOL0     H74835   0.703   4.198   3.063  1.0601 -0.2217  4.4938
  567MOL0     H74836   0.957   4.160   3.110 -0.3600 -0.5807  1.0969
  567MOL0     H74837   0.971   4.050   2.985  1.8419  0.9309  1.0107
  567MOL0     H74838   0.865   4.331   2.918  1.4973  1.5757  3.7768
  567MOL0     H74839   0.895   4.201   2.810 -2.4445  0.3103  0.6623
  567MOL0     H74840   1.130   4.186   2.857 -2.0456 -0.7804 -3.4066
  567MOL0     H74841   1.090   4.336   2.780 -1.4784 -0.8009 -0.9286
  567MOL0     H74842   1.263   4.525   3.087  1.0758 -0.6283 -0.6111
  567MOL0     H74843   0.634   3.825   2.791 -1.4736  1.2122 -3.8182
  567MOL0     H74844   0.410   3.737   2.767  0.1857  0.8359  1.3459
  568MOL0     O74845   8.467   6.259   2.336  0.1264 -0.0882 -0.0706
  568MOL0     C74846   8.362   6.293   2.288 -0.0687 -0.7823 -0.2037
  568MOL0     O74847   8.355   6.380   2.175 -0.0925 -0.7700  0.2443
  568MOL0     C74848   8.473   6.412   2.110 -0.1866 -1.0193  0.2596
  568MOL0     C74849   8.477   6.369   1.978  0.4949  1.0343  0.4846
  568MOL0     C74850   8.589   6.385   1.902  0.6346 -0.8798  0.4279
  568MOL0     C74851   8.702   6.444   1.963  0.3424  0.0061  0.1040
  568MOL0     O74852   8.819   6.471   1.888  0.3497  0.3841 -0.3985
  568MOL0     C74853   8.802   6.561   1.780 -0.5098  0.7344  0.4243
  568MOL0     C74854   8.802   6.709   1.819 -0.4051  0.1338 -0.7786
  568MOL0     C74855   8.922   6.755   1.905 -0.8194  0.1015 -0.3809
  568MOL0     C74856   9.073   6.715   1.848  0.7452  0.0870 -0.7402
  568MOL0     C74857   9.113   6.779   1.708  0.0549 -0.8907 -0.2227
  568MOL0     C74858   9.272   6.771   1.677  0.1089 -0.8932  0.3813
  568MOL0     C74859   9.318   6.836   1.554  0.1067 -0.1736  0.6466
  568MOL0     C74860   9.463   6.788   1.538 -0.4384 -0.9003  0.4349
  568MOL0     N74861   9.525   6.843   1.414 -0.2922 -0.6198  0.1913
  568MOL0     C74862   9.659   6.882   1.390 -0.2392 -0.4513 -0.4530
  568MOL0     C74863   9.658   6.927   1.267 -0.4755  0.3524  0.2165
  568MOL0     C74864   9.779   6.954   1.175  0.4792  0.1189  0.1989
  568MOL0     C74865   9.882   6.841   1.193 -0.1439  0.2330  0.3075
  568MOL0     C74866   9.831   6.701   1.157 -0.3390 -1.1785 -0.8141
  568MOL0     C74867   9.741   6.698   1.037  0.2392  0.3066 -0.5735
  568MOL0     O74868   9.711   6.554   1.021 -0.3765 -0.5508 -0.4490
  568MOL0     C74869   9.597   6.500   1.071  0.1525  0.5786  0.6052
  568MOL0     C74870   9.558   6.385   1.009  0.2678  0.3874  0.6230
  568MOL0     C74871   9.437   6.324   1.039 -0.1088 -0.3331 -1.4237
  568MOL0     C74872   9.348   6.378   1.137 -0.1510 -0.0673 -0.4178
  568MOL0     C74873   9.216   6.315   1.183 -0.5517 -0.0913  0.9701
  568MOL0     O74874   9.156   6.229   1.096 -0.2604 -0.1401 -0.3534
  568MOL0     C74875   9.028   6.195   1.128 -0.1816 -0.6234  0.0939
  568MOL0     C74876   8.998   6.059   1.122  0.0520 -0.0165  0.0340
  568MOL0     C74877   8.876   6.006   1.151 -0.2004 -0.2759 -0.0908
  568MOL0     C74878   8.774   6.100   1.190 -0.2567 -0.5584 -0.5858
  568MOL0     O74879   8.656   6.059   1.242 -0.9630 -0.1953  0.1906
  568MOL0     C74880   8.540   6.103   1.170  0.1783 -0.2676  0.8528
  568MOL0     C74881   8.478   5.983   1.110 -0.8029 -0.0996 -0.7621
  568MOL0     C74882   8.368   6.022   1.015  0.5683  0.8184 -0.3683
  568MOL0     C74883   8.235   5.971   1.075 -1.3502 -0.5372  0.1428
  568MOL0     C74884   8.111   5.993   0.983  1.3010  0.3478  0.2040
  568MOL0     C74885   8.062   6.138   0.995  0.6784 -0.0078  0.7106
  568MOL0     C74886   7.973   6.178   0.871  0.3902  0.5158  0.4854
  568MOL0     C74887   8.012   6.296   0.796 -0.3690 -0.4675  0.2345
  568MOL0    Cl74888   7.863   6.348   0.699 -0.5758 -0.2509 -0.2621
  568MOL0     C74889   8.800   6.240   1.194 -0.1759 -0.3015  0.7077
  568MOL0     C74890   8.926   6.285   1.160  0.0452  0.2793 -0.9093
  568MOL0     O74891   9.169   6.354   1.291  0.1342  0.0854 -0.2437
  568MOL0     C74892   9.393   6.491   1.201 -0.4096  0.7001 -0.3506
  568MOL0     C74893   9.517   6.552   1.173  0.9031  0.6080  0.2158
  568MOL0     N74894   9.530   6.918   1.211  0.1499 -0.0217  0.1079
  568MOL0     N74895   9.454   6.867   1.297 -0.2245  0.6734 -0.8503
  568MOL0     C74896   8.702   6.487   2.097  0.1571  0.1942 -0.9112
  568MOL0     C74897   8.590   6.469   2.175  1.5383 -0.2585  0.1238
  568MOL0     C74898   8.233   6.249   2.340 -1.0383 -0.5182 -0.0023
  568MOL0     C74899   8.235   6.147   2.436 -0.2164  0.0424 -0.4394
  568MOL0     C74900   8.119   6.087   2.483  0.0128  0.8503  0.2674
  568MOL0     C74901   7.994   6.127   2.429  0.4990 -0.2419  0.0706
  568MOL0     O74902   7.873   6.070   2.455  0.0573 -0.3224  0.8765
  568MOL0     C74903   7.858   5.936   2.496  0.0632  0.0713 -0.4097
  568MOL0     C74904   7.705   5.922   2.511 -0.1946 -0.4062 -0.9617
  568MOL0     C74905   7.652   5.783   2.582  0.2529 -0.2830  0.1479
  568MOL0     C74906   7.686   5.760   2.731 -0.6561 -0.0039 -0.0367
  568MOL0     C74907   7.648   5.865   2.821  0.2275 -0.8196  1.0633
  568MOL0     C74908   7.629   5.948   2.901  0.1664  0.4813  0.1912
  568MOL0     C74909   7.991   6.243   2.353 -0.8871 -0.6791  0.3202
  568MOL0     C74910   8.112   6.304   2.310 -0.1435 -0.0551 -0.5140
  568MOL0     H74911   8.393   6.330   1.922  1.6348  3.5491 -3.2957
  568MOL0     H74912   8.584   6.367   1.795  0.9959 -0.5904  0.3606
  568MOL0     H74913   8.708   6.548   1.725  0.7986  0.0798 -1.7981
  568MOL0     H74914   8.877   6.547   1.702 -1.4261  3.5108 -1.1140
  568MOL0     H74915   8.709   6.739   1.869 -0.3839  0.2785 -0.8271
  568MOL0     H74916   8.802   6.774   1.732  0.3235  2.8086  1.0879
  568MOL0     H74917   8.905   6.719   2.007 -2.8719  0.2528 -0.6164
  568MOL0     H74918   8.912   6.864   1.899  2.1854  0.4594 -0.6553
  568MOL0     H74919   9.142   6.754   1.923 -1.6657 -0.4624  1.9176
  568MOL0     H74920   9.074   6.606   1.852  4.2173  0.0395  0.8609
  568MOL0     H74921   9.073   6.880   1.716  1.1024 -0.5595  1.2164
  568MOL0     H74922   9.054   6.728   1.632  0.2430 -0.1602 -0.8711
  568MOL0     H74923   9.278   6.662   1.668 -4.6642 -1.2473 -2.3008
  568MOL0     H74924   9.328   6.799   1.766  1.7619 -1.6235 -0.3781
  568MOL0     H74925   9.262   6.799   1.467 -1.0823  0.4041  1.1440
  568MOL0     H74926   9.310   6.945   1.558 -3.5714 -0.1527 -1.8093
  568MOL0     H74927   9.478   6.680   1.547 -0.7980 -0.8012  2.6118
  568MOL0     H74928   9.522   6.835   1.617 -0.0538 -0.2786 -0.2046
  568MOL0     H74929   9.747   6.878   1.454  1.3819  1.3996 -2.4422
  568MOL0     H74930   9.820   7.052   1.200 -1.3732  0.4899  2.0618
  568MOL0     H74931   9.745   6.966   1.071 -1.4156  0.3755  0.8058
  568MOL0     H74932   9.926   6.827   1.292 -1.2103  0.2989  0.8025
  568MOL0     H74933   9.966   6.867   1.128 -0.0816  0.6001  0.5315
  568MOL0     H74934   9.922   6.642   1.145 -0.5121 -1.2545 -1.7629
  568MOL0     H74935   9.777   6.661   1.243  0.4279  0.3088  0.4276
  568MOL0     H74936   9.795   6.736   0.950  0.1606  1.5831 -0.0901
  568MOL0     H74937   9.649   6.751   1.064 -0.9147 -2.7263  2.1493
  568MOL0     H74938   9.611   6.344   0.924 -3.1322  1.8568 -2.4695
  568MOL0     H74939   9.403   6.239   0.981 -0.8059 -2.1295  1.4233
  568MOL0     H74940   9.077   5.986   1.103 -0.5167 -0.9119  1.0119
  568MOL0     H74941   8.863   5.899   1.141  1.0538 -0.3630 -1.0287
  568MOL0     H74942   8.567   6.180   1.097 -3.2388  1.7128  1.4545
  568MOL0     H74943   8.468   6.150   1.238 -1.0519  0.4054 -0.8521
  568MOL0     H74944   8.435   5.917   1.186 -2.1781  1.9813  0.3626
  568MOL0     H74945   8.562   5.935   1.060  0.1950  0.5725  0.2285
  568MOL0     H74946   8.379   5.972   0.919  0.6604  0.6754 -0.2858
  568MOL0     H74947   8.366   6.130   1.000  1.0398  0.4591 -3.8520
  568MOL0     H74948   8.263   5.866   1.080 -0.0010 -0.1691  0.8643
  568MOL0     H74949   8.223   6.027   1.169 -3.6118 -0.3194 -0.2110
  568MOL0     H74950   8.034   5.925   1.019  0.2324 -0.3352 -3.0468
  568MOL0     H74951   8.144   5.975   0.880  3.4097 -0.3824  0.9452
  568MOL0     H74952   8.149   6.204   0.993 -0.3427  1.5002  2.7247
  568MOL0     H74953   8.012   6.154   1.091  1.7387  0.7327  1.1632
  568MOL0     H74954   7.961   6.096   0.799  0.1677  0.9595  0.0098
  568MOL0     H74955   7.871   6.189   0.908  0.0089 -0.2800 -0.2813
  568MOL0     H74956   8.094   6.294   0.723  1.7016  0.2645  2.4449
  568MOL0     H74957   8.035   6.369   0.874 -2.3077  1.9337 -1.2851
  568MOL0     H74958   8.716   6.307   1.207  0.0422  0.3062 -0.7366
  568MOL0     H74959   8.946   6.391   1.148  2.5869  0.2755  2.0104
  568MOL0     H74960   9.333   6.549   1.271 -0.1402  1.3014 -0.6141
  568MOL0     H74961   9.543   6.646   1.221  0.9281  0.7151 -0.0057
  568MOL0     H74962   8.799   6.521   2.132 -1.0799  0.5506  2.6307
  568MOL0     H74963   8.580   6.498   2.279 -0.8777  0.9225 -0.3884
  568MOL0     H74964   8.330   6.114   2.476 -0.7973  0.1774  1.1030
  568MOL0     H74965   8.128   6.005   2.554 -1.3084 -0.3181 -0.8563
  568MOL0     H74966   7.901   5.909   2.592 -1.9563  1.9223  1.1209
  568MOL0     H74967   7.902   5.867   2.424  1.3526 -0.7783  1.1294
  568MOL0     H74968   7.678   6.000   2.582  1.5590 -1.0711  0.4930
  568MOL0     H74969   7.652   5.940   2.417 -1.5239 -1.3062 -0.4235
  568MOL0     H74970   7.678   5.690   2.532 -1.4428 -1.2379  0.9119
  568MOL0     H74971   7.542   5.781   2.581  0.2195  0.5899  0.8358
  568MOL0     H74972   7.635   5.669   2.761 -0.6651 -1.0289 -2.8619
  568MOL0     H74973   7.795   5.756   2.743 -0.3184  3.1954 -0.9342
  568MOL0     H74974   7.622   6.016   2.983  1.8918  0.1629  0.6400
  568MOL0     H74975   7.894   6.279   2.322 -1.0700 -2.8412 -2.0211
  568MOL0     H74976   8.096   6.393   2.249  0.1305 -0.3080 -0.9628
  569MOL0     O74977   1.882   1.910   3.002  0.0191 -0.7744 -0.7884
  569MOL0     C74978   1.974   1.827   3.027 -0.5554 -0.3938  0.6991
  569MOL0     O74979   1.961   1.689   3.007  0.4394 -0.8436 -0.6334
  569MOL0     C74980   1.838   1.645   2.976 -0.3174  0.7211 -0.5267
  569MOL0     C74981   1.828   1.587   2.852  0.2856  0.9474  0.2430
  569MOL0     C74982   1.705   1.544   2.808 -0.4238  0.9559  0.1361
  569MOL0     C74983   1.592   1.545   2.893 -0.5300 -0.2006  0.0961
  569MOL0     O74984   1.465   1.510   2.878 -1.4044 -0.5173 -0.3482
  569MOL0     C74985   1.434   1.458   2.746  0.5605 -0.3879  0.5474
  569MOL0     C74986   1.285   1.440   2.731 -0.1441 -0.1159  0.2708
  569MOL0     C74987   1.221   1.326   2.806 -0.7767 -0.0191 -0.0870
  569MOL0     C74988   1.080   1.299   2.753  0.4203 -0.1315 -0.4943
  569MOL0     C74989   1.044   1.148   2.780  0.1435 -1.0714  0.7032
  569MOL0     C74990   0.908   1.129   2.720  0.4091 -0.0184 -0.0429
  569MOL0     C74991   0.873   0.979   2.737  0.0191 -0.1199  0.8814
  569MOL0     C74992   0.730   0.962   2.676 -0.5558  0.3372  0.0536
  569MOL0     N74993   0.658   0.834   2.699 -0.3631  0.2310  0.0182
  569MOL0     C74994   0.706   0.721   2.775  0.4029 -0.1850  0.0542
  569MOL0     C74995   0.611   0.626   2.774  0.1395  0.5901 -0.0926
  569MOL0     C74996   0.604   0.497   2.845 -0.8444 -0.3971 -0.2858
  569MOL0     C74997   0.465   0.452   2.898 -0.0610 -0.7981  0.4576
  569MOL0     C74998   0.419   0.538   3.030 -0.9878  0.2330  0.3521
  569MOL0     C74999   0.321   0.657   3.000 -0.2042  0.1842  0.9322
  569MOL0     O75000   0.189   0.609   2.962 -0.8306 -0.0265  1.2828
  569MOL0     C75001   0.095   0.706   2.919 -0.4881  0.4247  0.3613
  569MOL0     C75002   0.128   0.819   2.840 -0.0458 -0.8272 -0.5871
  569MOL0     C75003   0.026   0.906   2.801 -0.9226 -0.7072  0.1601
  569MOL0     C75004  -0.103   0.885   2.843  0.4669 -1.1157 -0.2582
  569MOL0     C75005  -0.213   0.983   2.812 -0.8298  0.0158 -0.6266
  569MOL0     O75006  -0.313   0.995   2.903  0.0536  0.1882 -0.3210
  569MOL0     C75007  -0.431   1.061   2.890  0.3925  0.3609 -0.4906
  569MOL0     C75008  -0.466   1.153   2.798  0.3468 -0.3116 -0.4380
  569MOL0     C75009  -0.596   1.216   2.804  0.0445  0.0921 -0.7382
  569MOL0     C75010  -0.690   1.178   2.897  0.5665  0.3618  0.0568
  569MOL0     O75011  -0.808   1.232   2.910 -0.3987  0.6678 -0.8025
  569MOL0     C75012  -0.882   1.253   2.796 -0.8396 -0.3796  0.7220
  569MOL0     C75013  -1.020   1.307   2.841 -0.1093  0.7098  0.8756
  569MOL0     C75014  -1.100   1.193   2.915  0.7814  0.0511 -1.0706
  569MOL0     C75015  -1.223   1.261   2.978  0.4413  0.9831 -0.8560
  569MOL0     C75016  -1.312   1.152   3.042 -0.4465 -0.1710 -0.0164
  569MOL0     C75017  -1.376   1.209   3.173 -0.1108 -0.3538  0.8123
  569MOL0     C75018  -1.490   1.304   3.134 -0.7667 -0.1151 -0.0216
  569MOL0     C75019  -1.465   1.448   3.181 -0.2393 -0.5028 -0.5506
  569MOL0    Cl75020  -1.498   1.445   3.360  0.2148 -0.2120  0.0902
  569MOL0     C75021  -0.650   1.086   2.993  0.4214 -0.2536 -0.6029
  569MOL0     C75022  -0.521   1.023   2.989  0.3765 -0.6794  0.9208
  569MOL0     O75023  -0.192   1.057   2.715  0.4958 -0.0361  0.2392
  569MOL0     C75024  -0.133   0.770   2.912 -0.2399  0.1076 -0.3847
  569MOL0     C75025  -0.037   0.675   2.955 -0.2445 -0.1633  0.3862
  569MOL0     N75026   0.504   0.683   2.708 -0.2655 -0.0891 -0.2895
  569MOL0     N75027   0.525   0.804   2.661 -0.0983 -0.0019 -0.0575
  569MOL0     C75028   1.608   1.609   3.019 -0.2272  0.5238 -0.4426
  569MOL0     C75029   1.736   1.642   3.066  0.4644  0.2136 -0.7140
  569MOL0     C75030   2.110   1.880   3.060 -0.1729  0.0949 -0.9205
  569MOL0     C75031   2.211   1.793   3.101  0.1094  0.7527  0.9434
  569MOL0     C75032   2.338   1.820   3.142 -0.1902 -0.9117 -0.3892
  569MOL0     C75033   2.374   1.957   3.121 -0.4119 -0.6572 -0.4990
  569MOL0     O75034   2.503   1.990   3.164  0.9783  1.0854 -0.2405
  569MOL0     C75035   2.538   2.127   3.202  0.0324  0.5548  0.3069
  569MOL0     C75036   2.682   2.151   3.249  0.6067  0.4618 -0.3953
  569MOL0     C75037   2.723   2.083   3.388 -0.1892  0.4338 -0.1586
  569MOL0     C75038   2.859   2.109   3.449  0.8130 -0.1634  0.3346
  569MOL0     C75039   2.984   2.045   3.386  0.1479  0.6357  0.7268
  569MOL0     C75040   3.080   2.008   3.322  0.0026  0.4466  0.2169
  569MOL0     C75041   2.282   2.059   3.081 -0.1477  0.9279 -0.5665
  569MOL0     C75042   2.152   2.015   3.065  0.6589  0.4198 -0.3541
  569MOL0     H75043   1.905   1.579   2.776 -3.1742  0.0315 -3.4985
  569MOL0     H75044   1.697   1.513   2.704 -0.2293 -0.1285  0.4359
  569MOL0     H75045   1.471   1.361   2.711  0.1879 -0.6098  0.7595
  569MOL0     H75046   1.471   1.535   2.677 -1.1430  0.0532  0.0819
  569MOL0     H75047   1.262   1.419   2.626 -1.0204 -1.7818  0.7625
  569MOL0     H75048   1.226   1.529   2.754 -2.8221 -0.9067 -2.7256
  569MOL0     H75049   1.221   1.342   2.914 -0.5906  0.7306 -0.1924
  569MOL0     H75050   1.280   1.237   2.783 -1.3246 -0.3008 -0.4381
  569MOL0     H75051   1.013   1.367   2.805 -1.6523 -0.2967 -2.7482
  569MOL0     H75052   1.066   1.321   2.647 -3.7340  0.1295 -0.0430
  569MOL0     H75053   1.050   1.121   2.886  0.6184 -2.3316  0.3705
  569MOL0     H75054   1.106   1.081   2.721  1.1463  1.0287 -0.7776
  569MOL0     H75055   0.903   1.159   2.615  0.8201 -1.6936 -0.5689
  569MOL0     H75056   0.844   1.204   2.769  1.8172  1.4064 -0.2953
  569MOL0     H75057   0.936   0.919   2.671 -1.1738 -2.1234  1.4866
  569MOL0     H75058   0.866   0.948   2.841 -2.0516  0.9014  1.1006
  569MOL0     H75059   0.745   0.959   2.568  0.1069 -0.2764  0.1543
  569MOL0     H75060   0.664   1.044   2.706 -2.0139 -1.4880  2.1625
  569MOL0     H75061   0.803   0.707   2.819  0.4880 -0.0370 -0.0842
  569MOL0     H75062   0.674   0.501   2.929 -1.4180  2.9847  0.1731
  569MOL0     H75063   0.633   0.423   2.771  1.1156  0.3436 -0.3255
  569MOL0     H75064   0.482   0.355   2.947 -1.4545 -2.0795 -1.4462
  569MOL0     H75065   0.396   0.434   2.816 -0.3767  0.7251  0.3778
  569MOL0     H75066   0.374   0.462   3.095 -1.4673 -0.1612 -0.4108
  569MOL0     H75067   0.506   0.578   3.081 -0.4053  0.4767 -0.7857
  569MOL0     H75068   0.363   0.717   2.919  1.3328 -0.1199  1.4763
  569MOL0     H75069   0.308   0.715   3.092 -3.8528 -0.2857  0.8520
  569MOL0     H75070   0.225   0.847   2.802  0.1189 -1.3974 -0.5999
  569MOL0     H75071   0.048   0.997   2.747 -0.7732 -0.7984  0.0667
  569MOL0     H75072  -0.394   1.189   2.725  2.2047 -0.0686  1.4366
  569MOL0     H75073  -0.621   1.296   2.735 -2.1330  0.6341  0.5749
  569MOL0     H75074  -0.885   1.160   2.738  3.0886 -1.2350  1.6037
  569MOL0     H75075  -0.828   1.331   2.741 -3.4754 -1.2784 -3.6916
  569MOL0     H75076  -1.077   1.339   2.754 -0.2567  1.3307  1.1972
  569MOL0     H75077  -1.004   1.392   2.908 -0.6761  0.7143  1.0086
  569MOL0     H75078  -1.036   1.149   2.992  3.3850  2.7832 -1.5164
  569MOL0     H75079  -1.125   1.119   2.837  1.1132 -0.0727 -1.0589
  569MOL0     H75080  -1.179   1.311   3.065  2.1470 -4.3343  1.8015
  569MOL0     H75081  -1.280   1.333   2.919 -3.8735 -1.6228 -0.3029
  569MOL0     H75082  -1.259   1.064   3.079 -0.1557  0.2071  0.4628
  569MOL0     H75083  -1.385   1.112   2.970  0.9030 -0.5923 -1.1934
  569MOL0     H75084  -1.307   1.268   3.234 -1.4825 -1.0183  3.1523
  569MOL0     H75085  -1.412   1.130   3.240  1.6522 -0.0664  2.1784
  569MOL0     H75086  -1.504   1.297   3.026 -0.7924 -2.9340  0.1052
  569MOL0     H75087  -1.587   1.263   3.165 -2.1659  1.2231 -2.2745
  569MOL0     H75088  -1.549   1.509   3.147 -0.1209  1.2234  1.9677
  569MOL0     H75089  -1.363   1.483   3.166  0.6403 -0.6622  3.7779
  569MOL0     H75090  -0.729   1.073   3.066  1.0664  0.1172  0.1787
  569MOL0     H75091  -0.492   0.943   3.056  1.9424 -0.3204  0.7198
  569MOL0     H75092  -0.233   0.733   2.931  0.8417 -1.6042  2.9930
  569MOL0     H75093  -0.061   0.584   3.009  0.2865 -0.5144  0.0413
  569MOL0     H75094   1.518   1.624   3.078  1.1221  3.5559  1.1181
  569MOL0     H75095   1.745   1.671   3.170  0.5408 -1.8550 -0.0924
  569MOL0     H75096   2.194   1.687   3.094  1.7284  0.4691  0.8968
  569MOL0     H75097   2.408   1.747   3.182  0.7310 -0.5388 -1.2797
  569MOL0     H75098   2.467   2.171   3.273 -0.1026 -0.4793  0.8323
  569MOL0     H75099   2.523   2.184   3.111 -2.7887  0.7349  0.7774
  569MOL0     H75100   2.749   2.109   3.172 -0.9067 -1.4227 -0.7702
  569MOL0     H75101   2.699   2.259   3.248  0.0969  0.6689 -4.5193
  569MOL0     H75102   2.703   1.976   3.384 -0.9202  0.6107 -2.1757
  569MOL0     H75103   2.649   2.119   3.460 -2.5046 -4.1074  0.0681
  569MOL0     H75104   2.879   2.217   3.449 -2.2193  0.5648 -2.3715
  569MOL0     H75105   2.864   2.072   3.551  0.8787  0.5555  0.6015
  569MOL0     H75106   3.174   1.973   3.286 -0.3403 -1.3250  0.9193
  569MOL0     H75107   2.309   2.163   3.069 -1.0940  1.1828 -0.5010
  569MOL0     H75108   2.071   2.083   3.042  0.1054 -0.8263 -2.3645
  570MOL0     O75109   2.593   8.584   0.225 -0.4945 -0.2919 -0.0564
  570MOL0     C75110   2.660   8.485   0.194 -0.6561 -0.0178 -0.8962
  570MOL0     O75111   2.624   8.356   0.206  0.3794 -0.2942  0.3058
  570MOL0     C75112   2.510   8.320   0.272  0.5780 -1.2534  0.6734
  570MOL0     C75113   2.393   8.389   0.237 -0.8659 -0.1330  0.0376
  570MOL0     C75114   2.278   8.367   0.308  0.0267  0.7903 -0.5416
  570MOL0     C75115   2.282   8.280   0.424  0.9091 -0.5000  0.2328
  570MOL0     O75116   2.166   8.265   0.480  0.8623 -0.8163  0.0419
  570MOL0     C75117   2.147   8.170   0.575 -0.3163 -0.3758 -0.5488
  570MOL0     C75118   1.999   8.139   0.598  0.0592 -0.0991 -0.8151
  570MOL0     C75119   1.969   8.110   0.743 -0.1058 -0.3444  0.2262
  570MOL0     C75120   1.819   8.092   0.769  0.2476 -0.0740  0.5578
  570MOL0     C75121   1.766   8.116   0.907 -0.4223 -0.7873  0.6738
  570MOL0     C75122   1.612   8.104   0.911 -0.1438  0.5757 -0.0698
  570MOL0     C75123   1.548   8.075   1.056  0.4920  1.6072 -0.9437
  570MOL0     C75124   1.531   8.203   1.130 -0.0011  1.2107 -0.4409
  570MOL0     N75125   1.455   8.180   1.244 -0.1576 -0.0850 -0.1639
  570MOL0     C75126   1.478   8.097   1.355  0.5260  0.2704 -0.0644
  570MOL0     C75127   1.371   8.105   1.440 -0.1111  0.0375  0.8737
  570MOL0     C75128   1.367   8.040   1.577  0.5737 -0.0765  0.2879
  570MOL0     C75129   1.224   8.052   1.640  0.2891 -0.0906 -0.9296
  570MOL0     C75130   1.228   8.032   1.796 -0.3328 -0.4570 -0.3235
  570MOL0     C75131   1.106   8.082   1.873 -0.1015 -0.1807 -0.0634
  570MOL0     O75132   0.995   7.997   1.848 -0.5208  0.2679  0.6463
  570MOL0     C75133   0.904   7.993   1.952 -0.5021  0.4379  0.6269
  570MOL0     C75134   0.829   7.878   1.961 -0.1550  0.6473  0.2019
  570MOL0     C75135   0.713   7.873   2.043 -0.6141  0.2682 -0.1575
  570MOL0     C75136   0.674   7.978   2.126 -0.6620 -0.1296 -0.9579
  570MOL0     C75137   0.547   7.967   2.184 -0.0812 -0.6922  0.1615
  570MOL0     O75138   0.460   8.077   2.185 -0.4876  0.1539  0.3352
  570MOL0     C75139   0.332   8.075   2.236 -0.0304 -0.4832 -0.5109
  570MOL0     C75140   0.247   8.173   2.182 -0.5468  0.0134  0.2726
  570MOL0     C75141   0.110   8.164   2.202 -0.6799 -0.7248  1.1022
  570MOL0     C75142   0.057   8.073   2.287  0.8004 -0.5136  0.0632
  570MOL0     O75143  -0.081   8.066   2.307 -0.6729 -0.7763  0.2102
  570MOL0     C75144  -0.135   8.088   2.434 -0.2963  0.0706  0.0584
  570MOL0     C75145  -0.281   8.060   2.426 -0.9451 -0.3080  0.3607
  570MOL0     C75146  -0.323   7.924   2.352 -0.2357 -0.3064 -0.4721
  570MOL0     C75147  -0.474   7.914   2.374  0.0076 -0.2429 -0.7045
  570MOL0     C75148  -0.534   7.774   2.370 -0.4494  0.6430  0.0765
  570MOL0     C75149  -0.681   7.758   2.318 -0.1302  0.2025 -1.7048
  570MOL0     C75150  -0.714   7.629   2.253  0.4146  0.0149  0.2411
  570MOL0     C75151  -0.864   7.608   2.227 -0.2606  0.3270  0.4267
  570MOL0    Cl75152  -0.947   7.573   2.386  0.2928 -0.7508  0.0281
  570MOL0     C75153   0.144   7.986   2.359 -0.1104 -0.3734 -0.6682
  570MOL0     C75154   0.282   7.998   2.341 -1.3577  0.0945 -0.2203
  570MOL0     O75155   0.513   7.850   2.215  0.4898  0.1481  0.2594
  570MOL0     C75156   0.757   8.098   2.131  0.3929  0.5606 -0.0545
  570MOL0     C75157   0.865   8.099   2.040  0.3730 -0.4722 -0.3638
  570MOL0     N75158   1.281   8.200   1.387 -0.5127 -0.0583 -0.8033
  570MOL0     N75159   1.336   8.235   1.274 -0.9215  0.4284  0.2824
  570MOL0     C75160   2.405   8.215   0.464 -0.0875 -0.4786  1.0098
  570MOL0     C75161   2.518   8.236   0.381 -0.1490 -0.3846 -0.6253
  570MOL0     C75162   2.794   8.510   0.138  0.7965  0.5956  0.1012
  570MOL0     C75163   2.893   8.408   0.147  0.1893  0.5159 -0.2127
  570MOL0     C75164   3.012   8.423   0.082  0.4190 -0.1136  0.5472
  570MOL0     C75165   3.044   8.548   0.023 -0.7042  0.0967 -0.4982
  570MOL0     O75166   3.166   8.571  -0.035 -0.6986 -0.0487 -0.3229
  570MOL0     C75167   3.272   8.469  -0.045 -0.5913 -0.1118 -0.1367
  570MOL0     C75168   3.418   8.531  -0.087 -0.0720  0.7406 -0.1852
  570MOL0     C75169   3.415   8.615  -0.216 -0.0824  0.2521  0.0112
  570MOL0     C75170   3.377   8.526  -0.334  0.6821  0.4181  0.5221
  570MOL0     C75171   3.230   8.523  -0.351 -0.0565  0.5115 -0.1901
  570MOL0     C75172   3.109   8.513  -0.359  0.9405  0.4172 -0.0063
  570MOL0     C75173   2.960   8.656   0.033  0.2110 -0.5261 -0.2717
  570MOL0     C75174   2.830   8.636   0.087  0.0232 -0.1530 -0.2448
  570MOL0     H75175   2.396   8.451   0.148 -0.1785 -0.9260 -0.5162
  570MOL0     H75176   2.181   8.392   0.267 -0.2521 -0.5906 -0.7829
  570MOL0     H75177   2.192   8.199   0.670  0.2734 -2.4783 -0.1443
  570MOL0     H75178   2.193   8.077   0.540 -1.5930 -1.2895  0.1299
  570MOL0     H75179   1.966   8.054   0.538  0.9257  0.7855 -2.6432
  570MOL0     H75180   1.941   8.223   0.559 -0.6575 -0.6124 -0.8779
  570MOL0     H75181   2.002   8.205   0.787 -0.5760 -0.4248  0.7749
  570MOL0     H75182   2.032   8.034   0.791  0.5150  0.9959  1.6177
  570MOL0     H75183   1.761   8.160   0.706 -0.0005  0.2916  1.1637
  570MOL0     H75184   1.793   7.989   0.745  4.8097 -1.5234  0.7933
  570MOL0     H75185   1.785   8.219   0.938 -4.0607  1.3847 -3.2421
  570MOL0     H75186   1.819   8.055   0.981 -0.8109 -1.7499  0.1890
  570MOL0     H75187   1.590   8.013   0.855  2.5781  0.4606 -1.1245
  570MOL0     H75188   1.573   8.184   0.848 -2.4076 -0.7694 -0.4645
  570MOL0     H75189   1.451   8.026   1.056  0.9051  0.7195  0.4415
  570MOL0     H75190   1.621   8.008   1.102  0.0955  1.5806 -0.3363
  570MOL0     H75191   1.473   8.272   1.069  0.1598  1.1800 -0.6293
  570MOL0     H75192   1.623   8.260   1.146  0.4586  0.7825 -1.4562
  570MOL0     H75193   1.553   8.023   1.379 -2.8563 -3.3434  0.4941
  570MOL0     H75194   1.447   8.081   1.639 -0.1925  1.2546  0.4332
  570MOL0     H75195   1.378   7.933   1.562  1.1505  0.0542 -0.2779
  570MOL0     H75196   1.148   7.982   1.602  1.0114 -0.9536 -0.8354
  570MOL0     H75197   1.188   8.153   1.622  4.2575  1.4488 -1.1884
  570MOL0     H75198   1.242   7.923   1.806 -0.2727 -0.6485 -2.1608
  570MOL0     H75199   1.317   8.082   1.834 -1.3050  2.4757 -1.6886
  570MOL0     H75200   1.081   8.182   1.836 -1.8421 -1.0564 -1.4245
  570MOL0     H75201   1.130   8.080   1.980 -3.5710 -0.7677  0.8169
  570MOL0     H75202   0.856   7.791   1.903 -2.6579  0.2486 -0.4618
  570MOL0     H75203   0.647   7.788   2.030 -0.5181  0.2281 -0.3819
  570MOL0     H75204   0.313   8.223   2.113  1.3970  0.7226  2.5233
  570MOL0     H75205   0.029   8.208   2.144  1.7297  0.1698 -1.8542
  570MOL0     H75206  -0.120   8.192   2.466 -0.0893  0.2691 -0.6593
  570MOL0     H75207  -0.090   8.024   2.510  1.5349 -0.6420 -1.5531
  570MOL0     H75208  -0.327   8.142   2.370 -1.2968  0.6414  1.9899
  570MOL0     H75209  -0.316   8.048   2.529 -1.7056  2.6020  0.5379
  570MOL0     H75210  -0.261   7.854   2.409 -2.4559 -1.1088  1.0916
  570MOL0     H75211  -0.300   7.918   2.245 -2.8462 -3.6545 -0.9877
  570MOL0     H75212  -0.506   7.955   2.471  2.6647 -1.9465  1.0505
  570MOL0     H75213  -0.519   7.980   2.300 -0.3723  0.3775  0.0628
  570MOL0     H75214  -0.511   7.728   2.466  3.1038  1.0965 -0.4103
  570MOL0     H75215  -0.482   7.706   2.302 -2.4735 -2.7623  1.6586
  570MOL0     H75216  -0.706   7.847   2.259 -0.0730  2.1810  1.0324
  570MOL0     H75217  -0.747   7.763   2.405  2.7939 -0.8403  0.7771
  570MOL0     H75218  -0.664   7.636   2.156 -1.0657 -0.5067 -0.6074
  570MOL0     H75219  -0.669   7.546   2.308  2.1427  1.4522  1.0934
  570MOL0     H75220  -0.875   7.517   2.169  2.3764 -0.8944  1.7013
  570MOL0     H75221  -0.903   7.697   2.175 -0.7777  0.0575  0.3471
  570MOL0     H75222   0.121   7.925   2.446  1.6409  1.2477  1.0416
  570MOL0     H75223   0.353   7.935   2.394 -2.3394 -1.0413 -0.2254
  570MOL0     H75224   0.730   8.176   2.202  1.3328 -0.1252  1.1104
  570MOL0     H75225   0.922   8.191   2.031 -2.0237  1.1097 -0.1930
  570MOL0     H75226   2.413   8.152   0.552 -0.6682 -1.8672  0.1150
  570MOL0     H75227   2.606   8.182   0.414  0.4021 -0.0175 -1.4778
  570MOL0     H75228   2.873   8.310   0.190 -1.0002  1.3308  1.1935
  570MOL0     H75229   3.079   8.339   0.066 -1.7741 -1.4329 -2.8251
  570MOL0     H75230   3.235   8.385  -0.105 -3.3019 -1.0007  2.4939
  570MOL0     H75231   3.282   8.417   0.051 -1.3414 -2.6536 -1.3466
  570MOL0     H75232   3.458   8.598  -0.011 -0.0641 -0.6428  1.0777
  570MOL0     H75233   3.490   8.451  -0.103  0.4806  0.9037  1.3557
  570MOL0     H75234   3.512   8.655  -0.246  0.9204 -3.6892 -2.8958
  570MOL0     H75235   3.338   8.691  -0.196 -2.1762 -2.3331  2.7024
  570MOL0     H75236   3.417   8.569  -0.426  0.3145  2.3052  1.2098
  570MOL0     H75237   3.415   8.424  -0.322  1.2823  0.4388 -0.9359
  570MOL0     H75238   3.003   8.503  -0.369  1.1526 -0.3000 -2.0570
  570MOL0     H75239   3.002   8.749  -0.005  1.7768 -0.5489  1.2726
  570MOL0     H75240   2.766   8.723   0.088 -0.5101 -0.5405  0.1383
  571MOL0     O75241   2.870   9.748   7.571 -0.1706  0.0784 -0.6793
  571MOL0     C75242   2.872   9.687   7.677  0.2034 -0.5288 -0.8185
  571MOL0     O75243   2.773   9.702   7.786 -0.5546 -0.2492 -0.0588
  571MOL0     C75244   2.666   9.782   7.768  0.0445  0.2263 -0.0998
  571MOL0     C75245   2.661   9.916   7.717 -0.0180 -0.2379  0.0034
  571MOL0     C75246   2.542   9.988   7.702  0.6254  0.3673 -0.8709
  571MOL0     C75247   2.426   9.919   7.741  0.5477 -0.6262  0.3996
  571MOL0     O75248   2.299   9.981   7.737 -0.3494 -0.1591 -0.1952
  571MOL0     C75249   2.265  10.068   7.623  0.1423  1.0034  0.8278
  571MOL0     C75250   2.167  10.011   7.526  0.1832  0.5646 -1.3452
  571MOL0     C75251   2.021   9.993   7.589 -0.1023 -0.2495  0.2062
  571MOL0     C75252   1.962  10.125   7.621 -0.8351 -0.5157 -0.3599
  571MOL0     C75253   1.812  10.128   7.626  0.4416  0.3804 -0.3449
  571MOL0     C75254   1.762  10.261   7.691  1.2280  0.1411 -0.2964
  571MOL0     C75255   1.607  10.277   7.687  0.1340 -0.6486 -0.5771
  571MOL0     C75256   1.558  10.375   7.803 -0.3422 -0.1435  0.6635
  571MOL0     N75257   1.416  10.375   7.804  0.3517  0.2418  0.3840
  571MOL0     C75258   1.334  10.426   7.703  0.3391  0.4518  0.7333
  571MOL0     C75259   1.206  10.436   7.756  0.8937  0.2610  0.0669
  571MOL0     C75260   1.082  10.495   7.698  0.3184  0.2728  0.6531
  571MOL0     C75261   1.060  10.468   7.550  0.6831  0.2087  0.2333
  571MOL0     C75262   0.927  10.507   7.493 -0.1449  0.1057  0.5031
  571MOL0     C75263   0.922  10.658   7.497  0.6941 -0.7688  0.2591
  571MOL0     O75264   0.876  10.724   7.376 -0.0427 -0.5469 -0.1252
  571MOL0     C75265   0.983  10.736   7.276  0.6366  0.0832  0.0037
  571MOL0     C75266   1.054  10.629   7.221 -0.1393 -0.2594 -0.8050
  571MOL0     C75267   1.161  10.651   7.128  0.4508  0.1954  0.1225
  571MOL0     C75268   1.195  10.776   7.088  0.7572  0.1628  0.6385
  571MOL0     C75269   1.307  10.801   7.000 -1.0106 -0.3550  0.3821
  571MOL0     O75270   1.344  10.698   6.912  0.4038  0.0341  0.5689
  571MOL0     C75271   1.455  10.715   6.844 -0.5434  0.4054  0.0856
  571MOL0     C75272   1.558  10.624   6.871  0.0552 -0.4832 -0.3120
  571MOL0     C75273   1.678  10.633   6.814  0.0860 -0.8313  0.2061
  571MOL0     C75274   1.713  10.744   6.741 -1.2064  0.1494  0.8823
  571MOL0     O75275   1.847  10.741   6.707 -0.4395  0.4641 -0.4292
  571MOL0     C75276   1.908  10.868   6.668 -1.2509  0.0057 -0.8448
  571MOL0     C75277   2.062  10.854   6.650  0.1090  0.1613 -0.4335
  571MOL0     C75278   2.137  10.987   6.647 -0.0665 -1.2157 -0.0845
  571MOL0     C75279   2.122  11.053   6.511  0.2946 -0.6470  0.2754
  571MOL0     C75280   2.175  10.966   6.393  0.1438  0.9059  0.5779
  571MOL0     C75281   2.228  11.049   6.274  0.3393  0.1074 -0.7351
  571MOL0     C75282   2.355  11.137   6.307  0.6653  0.4787  0.1007
  571MOL0     C75283   2.413  11.195   6.178 -0.9022  0.2766 -0.1583
  571MOL0    Cl75284   2.535  11.069   6.122  0.4494  0.5280 -0.3855
  571MOL0     C75285   1.622  10.850   6.714  0.1759 -0.1405  0.1966
  571MOL0     C75286   1.488  10.828   6.761  0.4159  0.2669 -1.1738
  571MOL0     O75287   1.378  10.904   7.017 -0.2140 -0.4348  0.0851
  571MOL0     C75288   1.120  10.883   7.143  0.1725  0.2493  0.0763
  571MOL0     C75289   1.016  10.867   7.242  1.3255  0.7808  1.0348
  571MOL0     N75290   1.210  10.382   7.881 -0.2728 -0.6750  0.3308
  571MOL0     N75291   1.336  10.353   7.909 -0.8283  0.0606 -0.9317
  571MOL0     C75292   2.426   9.793   7.789 -0.7798  0.9659 -0.0781
  571MOL0     C75293   2.547   9.723   7.797  0.4379 -0.2657 -0.3098
  571MOL0     C75294   2.978   9.590   7.707 -0.8573  0.0245 -0.0259
  571MOL0     C75295   2.958   9.486   7.805  0.1691 -0.4984  0.2647
  571MOL0     C75296   3.065   9.401   7.829 -0.7924  0.1638 -0.0489
  571MOL0     C75297   3.192   9.413   7.769 -0.3782  0.5804  0.2574
  571MOL0     O75298   3.286   9.333   7.818 -0.9808  0.9395  0.6874
  571MOL0     C75299   3.418   9.392   7.833 -0.3014  0.3552  0.2004
  571MOL0     C75300   3.507   9.349   7.723  0.6564  0.1520  0.0398
  571MOL0     C75301   3.643   9.415   7.725 -0.2953  0.0682  0.6030
  571MOL0     C75302   3.732   9.374   7.604  0.1471 -0.9614 -0.5647
  571MOL0     C75303   3.869   9.403   7.634 -1.1363  0.5742 -0.2344
  571MOL0     C75304   3.982   9.433   7.638  0.5915  0.0911 -0.4296
  571MOL0     C75305   3.193   9.502   7.670  0.0150 -1.5625 -0.1927
  571MOL0     C75306   3.097   9.595   7.632 -0.6069  0.5122 -0.0150
  571MOL0     H75307   2.757   9.960   7.692 -0.9306  1.2479 -1.1208
  571MOL0     H75308   2.545  10.092   7.672  0.4292  1.3092  2.0257
  571MOL0     H75309   2.349  10.087   7.555 -0.2374  2.3551  0.7085
  571MOL0     H75310   2.229  10.165   7.658 -0.0179  1.9972 -1.8446
  571MOL0     H75311   2.198   9.918   7.478 -2.4202 -0.3641 -1.3395
  571MOL0     H75312   2.156  10.085   7.446 -1.9820 -1.3890 -2.9845
  571MOL0     H75313   2.026   9.926   7.675  1.4024 -0.2241  0.1594
  571MOL0     H75314   1.960   9.943   7.513  0.1319  2.0377 -1.5920
  571MOL0     H75315   1.997  10.155   7.720 -1.5370  0.7161 -0.4571
  571MOL0     H75316   2.003  10.189   7.542  2.9337 -1.4151  0.6717
  571MOL0     H75317   1.768  10.041   7.677 -1.8029  2.5281  1.7008
  571MOL0     H75318   1.782  10.128   7.521  0.7355  2.5074 -0.4546
  571MOL0     H75319   1.812  10.349   7.648  0.3687  0.7953  0.0040
  571MOL0     H75320   1.785  10.266   7.798 -1.7479  1.0868  0.4018
  571MOL0     H75321   1.569  10.324   7.595 -1.6335  2.0971  1.4042
  571MOL0     H75322   1.554  10.183   7.703 -3.9373  1.4898 -0.1607
  571MOL0     H75323   1.594  10.475   7.778 -1.3837 -0.0342 -0.5089
  571MOL0     H75324   1.609  10.332   7.889  0.7138  1.1761  0.7340
  571MOL0     H75325   1.363  10.453   7.602 -1.6669 -2.3338 -0.7159
  571MOL0     H75326   1.083  10.604   7.707 -1.7106  0.2872  1.2435
  571MOL0     H75327   0.994  10.476   7.759  0.0028  0.0957  0.1523
  571MOL0     H75328   1.063  10.359   7.541 -0.7867  0.1030  0.7275
  571MOL0     H75329   1.145  10.498   7.487  1.8382 -2.7006  0.2318
  571MOL0     H75330   0.922  10.468   7.391 -2.0189  3.0739 -0.6994
  571MOL0     H75331   0.844  10.459   7.546  2.2504 -3.5207  1.2579
  571MOL0     H75332   1.011  10.708   7.536 -0.6972  1.0961  1.1924
  571MOL0     H75333   0.861  10.673   7.586  2.0603 -3.0018  1.6917
  571MOL0     H75334   1.040  10.522   7.234 -2.4704  0.0851 -0.0915
  571MOL0     H75335   1.214  10.566   7.085 -2.3862 -1.8564  0.3915
  571MOL0     H75336   1.539  10.536   6.932  0.4820 -1.3413 -1.3946
  571MOL0     H75337   1.756  10.558   6.807 -0.8891 -1.8414 -0.0586
  571MOL0     H75338   1.890  10.946   6.742  3.9938  2.6624 -1.8951
  571MOL0     H75339   1.874  10.907   6.571 -0.0161 -0.5704 -1.5317
  571MOL0     H75340   2.076  10.781   6.570 -0.8719 -2.4315  1.5965
  571MOL0     H75341   2.098  10.790   6.732 -0.1364  1.9016  1.1062
  571MOL0     H75342   2.244  10.973   6.661 -0.0870  0.0047  1.6900
  571MOL0     H75343   2.104  11.048   6.732  1.2287  2.7951 -2.2205
  571MOL0     H75344   2.019  11.085   6.495 -0.8188 -3.1210  1.9110
  571MOL0     H75345   2.178  11.147   6.508 -1.9327  0.7283 -0.5303
  571MOL0     H75346   2.087  10.910   6.360  0.1309  0.6796  0.9907
  571MOL0     H75347   2.252  10.897   6.428 -0.5313  1.1173  2.6089
  571MOL0     H75348   2.147  11.113   6.238 -0.9599 -0.5058  0.9373
  571MOL0     H75349   2.266  10.975   6.203  2.0605  0.0738  0.1664
  571MOL0     H75350   2.321  11.226   6.361 -3.0806 -0.4794 -0.3685
  571MOL0     H75351   2.434  11.093   6.369  2.0734  2.3932 -0.2358
  571MOL0     H75352   2.477  11.281   6.198 -1.4219  1.5033 -3.1452
  571MOL0     H75353   2.339  11.225   6.103 -1.3429  0.2344  0.2491
  571MOL0     H75354   1.652  10.933   6.652 -0.7728 -0.3885 -0.6125
  571MOL0     H75355   1.400  10.890   6.748 -0.5993 -0.6318  0.9467
  571MOL0     H75356   1.149  10.981   7.107  1.8810  0.2735  1.3485
  571MOL0     H75357   0.949  10.943   7.283 -0.0945 -0.3106  0.8488
  571MOL0     H75358   2.334   9.745   7.821 -0.1787  0.6041  1.1531
  571MOL0     H75359   2.545   9.623   7.840  2.6822  1.1622  3.5931
  571MOL0     H75360   2.866   9.490   7.863 -0.6521  0.9738 -1.0425
  571MOL0     H75361   3.056   9.329   7.910 -0.0617  2.8518  2.6071
  571MOL0     H75362   3.458   9.357   7.929  1.2841 -2.9517 -1.5037
  571MOL0     H75363   3.409   9.501   7.829 -3.8540  0.1146 -1.6267
  571MOL0     H75364   3.523   9.240   7.725 -1.0287 -0.1813 -1.8502
  571MOL0     H75365   3.459   9.359   7.625 -0.3979  2.4066  0.7314
  571MOL0     H75366   3.697   9.375   7.812  1.5929  0.8593 -0.1536
  571MOL0     H75367   3.633   9.523   7.734 -0.1881  0.1150  0.1565
  571MOL0     H75368   3.733   9.267   7.584  3.5927 -1.5817  2.0327
  571MOL0     H75369   3.706   9.432   7.514  1.3222 -1.8333 -1.4977
  571MOL0     H75370   4.085   9.453   7.659  0.3009  1.7244 -0.4527
  571MOL0     H75371   3.279   9.508   7.605 -0.4709  0.3437 -0.7105
  571MOL0     H75372   3.111   9.674   7.558 -2.2740  1.5302  0.7077
  572MOL0     O75373   7.663  10.420   0.946  1.0158 -0.3478  0.2860
  572MOL0     C75374   7.645  10.431   0.823 -0.0336  0.0606  0.4823
  572MOL0     O75375   7.524  10.425   0.751 -1.1397  0.4123  0.2965
  572MOL0     C75376   7.406  10.404   0.812 -0.6077 -0.1458  0.0171
  572MOL0     C75377   7.373  10.346   0.934  0.2543  0.4470 -0.1465
  572MOL0     C75378   7.246  10.348   0.987 -1.0291 -0.6977 -1.0080
  572MOL0     C75379   7.138  10.391   0.912  0.0999 -0.6818 -0.5976
  572MOL0     O75380   7.012  10.403   0.958  0.5352  0.1607 -0.2469
  572MOL0     C75381   6.985  10.453   1.096  0.6865  0.6126 -0.1388
  572MOL0     C75382   6.982  10.610   1.073  0.1007 -0.3693 -0.0819
  572MOL0     C75383   6.863  10.665   0.986  0.6342 -0.2727  0.2861
  572MOL0     C75384   6.735  10.588   1.003 -0.1347 -0.4185  0.7091
  572MOL0     C75385   6.619  10.636   0.923  0.2061  0.1504  0.5224
  572MOL0     C75386   6.570  10.771   0.979  0.2763 -0.4757 -0.7026
  572MOL0     C75387   6.450  10.825   0.897 -0.6640  0.9654 -0.6467
  572MOL0     C75388   6.370  10.942   0.961  1.3780 -0.4258  0.4926
  572MOL0     N75389   6.311  10.912   1.090  0.1640  0.5834 -0.1255
  572MOL0     C75390   6.225  10.802   1.110 -0.4715  0.2937  0.7437
  572MOL0     C75391   6.227  10.776   1.242  0.3580 -0.0166  0.6822
  572MOL0     C75392   6.161  10.659   1.315 -0.3488  0.1031  0.6026
  572MOL0     C75393   6.006  10.670   1.294 -0.6161  1.4398  0.8036
  572MOL0     C75394   5.942  10.548   1.357 -0.1483 -0.1867  0.4969
  572MOL0     C75395   5.787  10.569   1.370 -0.5140 -0.3629  0.3196
  572MOL0     O75396   5.737  10.488   1.475  0.9283  0.9175 -0.9363
  572MOL0     C75397   5.602  10.485   1.478 -0.1917 -0.3851 -0.2899
  572MOL0     C75398   5.500  10.538   1.393 -0.1782 -0.4196  0.6589
  572MOL0     C75399   5.364  10.527   1.425  0.1983 -0.8893 -0.4101
  572MOL0     C75400   5.326  10.473   1.553  0.2070 -0.3769  1.1972
  572MOL0     C75401   5.180  10.458   1.581  0.1197 -0.2163  0.7328
  572MOL0     O75402   5.099  10.505   1.486  0.4361 -1.2801 -0.0258
  572MOL0     C75403   4.968  10.457   1.492  0.5845  0.3729  0.1659
  572MOL0     C75404   4.874  10.480   1.592 -1.4866  0.1249 -0.5333
  572MOL0     C75405   4.741  10.434   1.592 -0.2768  0.8841 -0.1768
  572MOL0     C75406   4.697  10.372   1.480  0.2530 -0.0357  0.1860
  572MOL0     O75407   4.567  10.337   1.466  0.0471 -0.2426  0.2120
  572MOL0     C75408   4.461  10.375   1.558  0.3235  0.5816  0.1276
  572MOL0     C75409   4.345  10.326   1.475  0.7348  0.5321  0.0491
  572MOL0     C75410   4.227  10.361   1.564 -0.2497 -1.1618 -0.4780
  572MOL0     C75411   4.207  10.304   1.708 -1.0095 -0.2311  0.7346
  572MOL0     C75412   4.186  10.147   1.705  0.0947  1.0861 -0.4580
  572MOL0     C75413   4.113  10.109   1.829  0.1803 -0.0916  0.0909
  572MOL0     C75414   4.179  10.141   1.959 -0.0952  0.0823 -0.0854
  572MOL0     C75415   4.117  10.080   2.075  0.5606  0.2706 -0.6859
  572MOL0    Cl75416   4.193   9.918   2.094  0.2027 -0.4605  0.2915
  572MOL0     C75417   4.784  10.352   1.363  0.0937  0.7673 -0.4425
  572MOL0     C75418   4.922  10.382   1.378 -0.6956 -0.5231 -1.0205
  572MOL0     O75419   5.142  10.414   1.696 -0.7359 -0.7470  0.1769
  572MOL0     C75420   5.427  10.431   1.638 -0.4811 -0.6081  0.5731
  572MOL0     C75421   5.566  10.433   1.598  1.2364 -0.1388  0.0054
  572MOL0     N75422   6.324  10.855   1.294 -0.4163  0.1133  0.3987
  572MOL0     N75423   6.375  10.940   1.208 -0.1791 -0.0584 -0.2221
  572MOL0     C75424   7.168  10.441   0.789  0.0409  0.8073 -0.1989
  572MOL0     C75425   7.298  10.440   0.736  0.3711 -0.6192 -0.1547
  572MOL0     C75426   7.761  10.458   0.736  0.8927 -0.1962 -0.5055
  572MOL0     C75427   7.737  10.494   0.602 -0.2669 -0.8439  0.0695
  572MOL0     C75428   7.845  10.494   0.520 -1.2883 -0.4055  1.3547
  572MOL0     C75429   7.976  10.476   0.555  0.3545  0.6148 -0.8002
  572MOL0     O75430   8.084  10.502   0.471  0.1125  0.9615 -0.5010
  572MOL0     C75431   8.048  10.565   0.344 -0.5912  0.1259 -0.7958
  572MOL0     C75432   8.173  10.614   0.262 -0.1590  0.4824  0.1701
  572MOL0     C75433   8.256  10.500   0.219 -0.5338  0.8897  0.9193
  572MOL0     C75434   8.352  10.528   0.108 -0.8681 -0.0797 -0.9721
  572MOL0     C75435   8.401  10.668   0.099  0.4131  0.2629 -0.1640
  572MOL0     C75436   8.446  10.777   0.086 -0.6658  0.5059  0.0457
  572MOL0     C75437   7.997  10.462   0.694 -1.1326 -1.1352  0.5637
  572MOL0     C75438   7.896  10.449   0.780 -0.9469  0.3776 -0.1882
  572MOL0     H75439   7.457  10.312   0.994 -0.2491 -1.7132 -0.5625
  572MOL0     H75440   7.222  10.300   1.082 -0.1784  0.4169 -0.2113
  572MOL0     H75441   7.050  10.417   1.177 -0.8216 -0.2862  0.7220
  572MOL0     H75442   6.885  10.425   1.131  1.3592  0.4098  1.7244
  572MOL0     H75443   7.075  10.647   1.028  0.0981  0.1545  0.3315
  572MOL0     H75444   6.968  10.655   1.172 -3.5229  0.0435 -0.6707
  572MOL0     H75445   6.891  10.659   0.880 -1.4264 -2.7747 -0.2163
  572MOL0     H75446   6.855  10.773   1.003 -0.5927 -0.0267 -1.5747
  572MOL0     H75447   6.764  10.490   0.966  0.6211 -0.1622  0.6003
  572MOL0     H75448   6.707  10.575   1.108  3.3697  1.5614  2.0770
  572MOL0     H75449   6.536  10.567   0.944 -2.5465  2.9448 -0.4496
  572MOL0     H75450   6.648  10.644   0.818 -1.6774 -0.8156 -0.1223
  572MOL0     H75451   6.656  10.838   0.970 -1.5429  1.8398 -1.9422
  572MOL0     H75452   6.543  10.750   1.083  3.0766 -1.4868 -0.0858
  572MOL0     H75453   6.487  10.865   0.802  0.9506  3.2976  0.8764
  572MOL0     H75454   6.376  10.748   0.872 -1.2623  1.7794 -1.4186
  572MOL0     H75455   6.290  10.980   0.896  1.6587  2.9230  1.9091
  572MOL0     H75456   6.428  11.034   0.968  1.8490 -0.5235 -1.4391
  572MOL0     H75457   6.165  10.744   1.040 -0.6244  1.8265 -0.4471
  572MOL0     H75458   6.189  10.676   1.419  0.6301 -1.5064  0.6328
  572MOL0     H75459   6.203  10.561   1.293  1.6830  0.2933  3.1590
  572MOL0     H75460   5.978  10.660   1.189 -3.3770 -0.5111  1.6054
  572MOL0     H75461   5.961  10.760   1.338 -2.2897  0.3493  1.4336
  572MOL0     H75462   5.968  10.463   1.293 -2.0275  0.1648 -0.8278
  572MOL0     H75463   5.976  10.529   1.459  1.3229 -0.4690 -0.0309
  572MOL0     H75464   5.737  10.545   1.276 -1.0710  0.2788  0.4450
  572MOL0     H75465   5.757  10.673   1.386  0.2326 -0.3594  1.8784
  572MOL0     H75466   5.519  10.608   1.312  0.4534  0.9421  1.9356
  572MOL0     H75467   5.289  10.569   1.359 -0.5479 -1.1210  0.2722
  572MOL0     H75468   4.916  10.530   1.679 -1.6819 -0.1154 -0.2989
  572MOL0     H75469   4.671  10.448   1.674 -1.6090 -0.8351 -0.9447
  572MOL0     H75470   4.456  10.480   1.588 -0.3060  0.2270  1.3414
  572MOL0     H75471   4.467  10.313   1.649 -2.9289 -2.0658 -1.2562
  572MOL0     H75472   4.344  10.220   1.450 -3.6087  0.3166  0.2972
  572MOL0     H75473   4.354  10.387   1.384  3.4118 -1.6603 -1.2979
  572MOL0     H75474   4.131  10.331   1.519 -0.3659 -3.3272  1.0802
  572MOL0     H75475   4.235  10.468   1.584  3.9377 -1.7661  2.3454
  572MOL0     H75476   4.293  10.324   1.772  1.4286 -1.1207 -2.0107
  572MOL0     H75477   4.114  10.342   1.751 -1.9711 -2.2549  0.5651
  572MOL0     H75478   4.282  10.096   1.692 -0.9084 -0.2733 -3.5452
  572MOL0     H75479   4.120  10.107   1.627 -1.7020 -0.7867  1.8959
  572MOL0     H75480   4.082  10.004   1.827 -0.4767  0.0902  0.3806
  572MOL0     H75481   4.017  10.161   1.821 -0.6284 -1.7205 -1.8711
  572MOL0     H75482   4.285  10.115   1.965  0.3159  1.0230 -2.2257
  572MOL0     H75483   4.169  10.250   1.972  0.8459  0.4796 -2.2867
  572MOL0     H75484   4.011  10.057   2.059  1.0566 -2.8648 -0.1431
  572MOL0     H75485   4.129  10.136   2.168 -1.0923 -1.4798  0.6765
  572MOL0     H75486   4.747  10.300   1.275  2.8915 -0.7700 -0.8469
  572MOL0     H75487   4.998  10.348   1.308  1.0821  1.6667 -0.2563
  572MOL0     H75488   5.403  10.378   1.730 -0.3833  1.6919  2.0106
  572MOL0     H75489   5.633  10.393   1.674 -0.8771 -0.9596  1.5503
  572MOL0     H75490   7.084  10.492   0.743  1.7478  4.4070  0.3447
  572MOL0     H75491   7.322  10.476   0.637  0.7529  0.9352  0.4695
  572MOL0     H75492   7.641  10.496   0.551  0.1032  0.6603 -0.6264
  572MOL0     H75493   7.822  10.505   0.414  0.6764  0.4809  0.9765
  572MOL0     H75494   7.994  10.657   0.365 -0.1066  0.2618 -0.1254
  572MOL0     H75495   7.991  10.504   0.272 -0.6383  1.6116 -2.0620
  572MOL0     H75496   8.136  10.669   0.176  0.7446  2.3568  0.9081
  572MOL0     H75497   8.236  10.677   0.326 -0.4080 -1.1059  2.0833
  572MOL0     H75498   8.195  10.411   0.203 -0.9896  1.0814  1.5336
  572MOL0     H75499   8.317  10.466   0.303  1.6999 -0.8394 -1.2604
  572MOL0     H75500   8.436  10.459   0.126 -0.2402  1.4646  2.9986
  572MOL0     H75501   8.311  10.510   0.008  0.0390 -0.1771 -1.3453
  572MOL0     H75502   8.495  10.872   0.089  1.4441 -0.5486  1.5907
  572MOL0     H75503   8.102  10.467   0.720 -0.3795  0.6898 -2.3567
  572MOL0     H75504   7.917  10.414   0.881 -0.5786 -0.9575 -0.7064
  573MOL0     O75505   5.688   2.913  10.677  0.0052 -0.1867  0.1117
  573MOL0     C75506   5.723   2.819  10.597  0.2714  0.2787 -0.0958
  573MOL0     O75507   5.624   2.747  10.527 -0.0480 -0.3239 -0.3459
  573MOL0     C75508   5.493   2.749  10.581  0.0012 -0.9116  0.1714
  573MOL0     C75509   5.460   2.760  10.719 -0.6239 -0.5607 -0.6737
  573MOL0     C75510   5.329   2.793  10.754 -0.1334 -0.0481 -1.0598
  573MOL0     C75511   5.230   2.807  10.655  0.0229 -0.6244  0.8124
  573MOL0     O75512   5.096   2.856  10.663 -0.0143 -0.7224  0.0116
  573MOL0     C75513   5.070   2.907  10.793  0.0065 -0.3007 -0.0268
  573MOL0     C75514   4.941   2.993  10.794  0.7460  0.3730 -0.3673
  573MOL0     C75515   4.811   2.927  10.742 -0.2109  0.4107  0.8622
  573MOL0     C75516   4.684   3.019  10.767  0.3138 -0.5195  0.1922
  573MOL0     C75517   4.572   2.949  10.695 -0.7626 -0.5620  0.2596
  573MOL0     C75518   4.439   3.010  10.735 -0.1833  0.0481 -0.0961
  573MOL0     C75519   4.318   2.924  10.686  0.3033 -0.3692 -0.8234
  573MOL0     C75520   4.182   2.998  10.701  0.8752 -0.8024 -0.1381
  573MOL0     N75521   4.064   2.931  10.651 -0.0556  0.0432  0.4898
  573MOL0     C75522   3.977   2.876  10.739 -0.1296 -0.0498  0.6949
  573MOL0     C75523   3.864   2.857  10.661  0.7371 -0.1087  0.7805
  573MOL0     C75524   3.741   2.790  10.717 -0.2591  0.1783  0.8721
  573MOL0     C75525   3.625   2.800  10.620  0.0075  0.0839  0.2839
  573MOL0     C75526   3.558   2.937  10.586 -0.0004  0.7382 -0.9091
  573MOL0     C75527   3.568   2.979  10.433 -0.2477  0.5185 -0.9103
  573MOL0     O75528   3.481   3.090  10.420 -0.7499  0.4068  0.6917
  573MOL0     C75529   3.347   3.068  10.429 -1.1067 -0.3182  0.3870
  573MOL0     C75530   3.265   3.136  10.522  0.2696 -0.0553  0.0406
  573MOL0     C75531   3.125   3.106  10.531 -0.8736 -0.3147  0.4564
  573MOL0     C75532   3.063   3.042  10.422 -0.6055  0.4292  0.1947
  573MOL0     C75533   2.911   3.028  10.415  0.1611 -0.0374  0.7650
  573MOL0     O75534   2.840   3.057  10.531 -0.3473  0.1580 -0.8226
  573MOL0     C75535   2.703   3.038  10.539  0.3608 -0.7877 -0.1807
  573MOL0     C75536   2.657   2.963  10.639 -0.5870  0.4533 -0.6074
  573MOL0     C75537   2.512   2.944  10.649 -0.6801 -0.3718  0.6036
  573MOL0     C75538   2.418   2.999  10.556 -0.0560  0.8420 -0.0510
  573MOL0     O75539   2.290   2.947  10.571  0.1424 -0.5068 -0.0854
  573MOL0     C75540   2.187   3.040  10.531 -1.4599  0.4754 -0.9491
  573MOL0     C75541   2.051   3.006  10.596  1.0316  0.4307  0.2871
  573MOL0     C75542   1.937   3.090  10.537  0.8103 -0.0982 -0.6184
  573MOL0     C75543   1.805   3.059  10.608  0.0856  0.0655  0.0992
  573MOL0     C75544   1.698   3.157  10.561 -0.2891  0.1224 -0.3333
  573MOL0     C75545   1.632   3.109  10.437  0.2410  0.2074 -0.0507
  573MOL0     C75546   1.495   3.186  10.419 -0.2146 -1.0472  0.4312
  573MOL0     C75547   1.414   3.155  10.287  0.1640 -1.6683  0.0433
  573MOL0    Cl75548   1.259   3.236  10.296 -0.4197 -0.0117 -0.0290
  573MOL0     C75549   2.471   3.070  10.447  0.3078 -0.3291 -0.5321
  573MOL0     C75550   2.613   3.099  10.451  0.0198 -0.8617  0.2899
  573MOL0     O75551   2.860   3.002  10.311  0.1721 -0.0604  0.0435
  573MOL0     C75552   3.144   2.970  10.332 -1.1023  0.1396  0.0571
  573MOL0     C75553   3.287   2.975  10.344  0.5582 -0.6407  0.2391
  573MOL0     N75554   3.887   2.909  10.532  0.0681 -0.8473 -0.3584
  573MOL0     N75555   4.007   2.947  10.530 -0.6484  0.4372  0.2731
  573MOL0     C75556   5.259   2.785  10.525 -0.8942 -0.0817 -0.5273
  573MOL0     C75557   5.388   2.749  10.489  1.1446 -1.1551 -0.3348
  573MOL0     C75558   5.862   2.793  10.572 -0.8878  0.1769  0.3550
  573MOL0     C75559   5.899   2.696  10.470  1.1431  0.5989 -0.6396
  573MOL0     C75560   6.036   2.666  10.442  0.1246  0.2391 -0.5897
  573MOL0     C75561   6.136   2.721  10.516 -0.0002 -0.0151 -0.3749
  573MOL0     O75562   6.271   2.697  10.503 -0.0617  0.2885 -0.2936
  573MOL0     C75563   6.312   2.638  10.368  0.0702 -0.7410  0.2822
  573MOL0     C75564   6.460   2.618  10.351 -0.2321  0.1692 -0.7711
  573MOL0     C75565   6.522   2.549  10.478  0.6851  0.8450 -0.0554
  573MOL0     C75566   6.459   2.411  10.509 -0.0185  0.2331  0.4253
  573MOL0     C75567   6.532   2.345  10.620  0.5801  0.1885  0.2888
  573MOL0     C75568   6.586   2.315  10.724  0.2299  0.5124  0.7860
  573MOL0     C75569   6.099   2.816  10.607 -1.3527 -0.5151 -0.1274
  573MOL0     C75570   5.968   2.858  10.635 -0.1724  0.2911 -0.1183
  573MOL0     H75571   5.547   2.767  10.783 -0.8479  0.0933 -0.4299
  573MOL0     H75572   5.285   2.796  10.853 -2.2760 -1.5548 -1.8929
  573MOL0     H75573   5.152   2.973  10.823 -1.0683  2.2678 -2.3585
  573MOL0     H75574   5.057   2.822  10.861  3.2450 -0.0216  1.1512
  573MOL0     H75575   4.953   3.073  10.720 -2.0570  0.9196 -0.3764
  573MOL0     H75576   4.928   3.017  10.900  0.2040 -1.4309  0.0076
  573MOL0     H75577   4.798   2.835  10.799 -2.7824 -0.3846 -0.8242
  573MOL0     H75578   4.824   2.907  10.635  0.5991 -2.3384  1.3909
  573MOL0     H75579   4.670   3.030  10.875  0.5537 -0.0600  0.1785
  573MOL0     H75580   4.698   3.121  10.730 -2.5256  0.4338  1.4185
  573MOL0     H75581   4.582   2.844  10.722  2.4232 -0.6560 -0.9323
  573MOL0     H75582   4.582   2.972  10.588 -2.5899  3.4816  0.7472
  573MOL0     H75583   4.433   3.096  10.667 -2.4332 -0.6481 -0.8696
  573MOL0     H75584   4.421   3.032  10.840 -0.0633 -2.7626  0.5892
  573MOL0     H75585   4.329   2.919  10.577  1.7453 -0.8436 -0.6785
  573MOL0     H75586   4.311   2.823  10.727 -4.4042 -0.6530 -1.8441
  573MOL0     H75587   4.182   3.089  10.641 -0.3934 -0.4776  0.3211
  573MOL0     H75588   4.170   3.023  10.807 -1.3665  0.5141 -0.6628
  573MOL0     H75589   3.994   2.832  10.836  1.0415  0.9543  0.9625
  573MOL0     H75590   3.714   2.838  10.812  0.3364 -0.0218  1.1432
  573MOL0     H75591   3.744   2.682  10.732 -3.6358  0.2105  2.6825
  573MOL0     H75592   3.542   2.746  10.666 -1.7840  0.0650 -2.6993
  573MOL0     H75593   3.646   2.734  10.535 -0.4529 -0.4302  0.5601
  573MOL0     H75594   3.452   2.920  10.608  0.2269  1.6316  1.0774
  573MOL0     H75595   3.589   3.008  10.662  0.5029 -0.2736 -0.1370
  573MOL0     H75596   3.530   2.894  10.375 -0.5581  2.2064 -3.3127
  573MOL0     H75597   3.670   2.999  10.401 -0.2264  1.1968 -0.4338
  573MOL0     H75598   3.318   3.211  10.580  1.5919  0.5084 -1.7910
  573MOL0     H75599   3.071   3.160  10.608 -3.8669 -1.8309 -0.4503
  573MOL0     H75600   2.724   2.914  10.710 -1.0012 -2.1391 -1.9013
  573MOL0     H75601   2.469   2.876  10.722 -2.4642  0.0203 -0.0440
  573MOL0     H75602   2.171   3.027  10.423 -0.1036  1.5319 -1.2980
  573MOL0     H75603   2.211   3.145  10.547  0.1095  0.2450 -1.6802
  573MOL0     H75604   2.067   3.029  10.702  3.2861 -3.4627  0.9952
  573MOL0     H75605   2.028   2.900  10.583  1.9274  0.3401 -0.6544
  573MOL0     H75606   1.928   3.062  10.432 -0.1924  0.2387 -0.6305
  573MOL0     H75607   1.958   3.196  10.554  1.0492 -0.6329  3.6344
  573MOL0     H75608   1.779   2.955  10.588  0.3486  0.6142 -4.0038
  573MOL0     H75609   1.813   3.075  10.716 -1.4818  3.6527 -0.1505
  573MOL0     H75610   1.725   3.260  10.540 -4.0011  1.5918  1.1625
  573MOL0     H75611   1.627   3.174  10.643 -1.4735  3.4009 -1.8589
  573MOL0     H75612   1.622   3.000  10.443 -1.2913  0.0154 -3.4349
  573MOL0     H75613   1.705   3.131  10.358  0.7151  0.6418  0.5047
  573MOL0     H75614   1.427   3.172  10.504 -4.8666  1.6952 -2.4008
  573MOL0     H75615   1.522   3.292  10.421 -0.4144 -1.0006  1.4569
  573MOL0     H75616   1.400   3.047  10.301  3.2165 -2.0743  0.6198
  573MOL0     H75617   1.470   3.182  10.198  0.3631  2.4109  1.2029
  573MOL0     H75618   2.405   3.099  10.365 -1.3441 -1.9028  0.1734
  573MOL0     H75619   2.646   3.166  10.372 -0.7561  0.9599  1.4539
  573MOL0     H75620   3.109   2.928  10.238  0.0079  0.0035 -0.3209
  573MOL0     H75621   3.353   2.937  10.267  0.6208  0.5773 -0.3374
  573MOL0     H75622   5.183   2.801  10.449 -0.1437  1.1323 -1.0562
  573MOL0     H75623   5.406   2.722  10.386  1.8328 -0.7552 -0.3214
  573MOL0     H75624   5.820   2.643  10.418 -0.6810  0.2726  2.2400
  573MOL0     H75625   6.055   2.592  10.365  0.9254  0.6997 -0.8508
  573MOL0     H75626   6.271   2.706  10.291 -1.7618 -0.5054  1.3946
  573MOL0     H75627   6.266   2.543  10.339 -1.0013 -0.9858  2.5288
  573MOL0     H75628   6.488   2.556  10.265  2.2177 -0.4390  0.3897
  573MOL0     H75629   6.509   2.715  10.342  0.1878 -0.0756 -1.1482
  573MOL0     H75630   6.512   2.612  10.567  0.4565 -1.2333  1.4635
  573MOL0     H75631   6.629   2.548  10.458  0.9835 -0.6034  1.4329
  573MOL0     H75632   6.353   2.427  10.532 -1.5962 -3.3247 -3.1436
  573MOL0     H75633   6.461   2.353  10.416  0.2165 -3.1143  2.3904
  573MOL0     H75634   6.650   2.293  10.807 -0.8526  0.0246  1.5075
  573MOL0     H75635   6.179   2.873  10.653 -2.3132  0.9017 -0.1504
  573MOL0     H75636   5.951   2.944  10.698  0.8887  0.0041  0.5819
  574MOL0     O75637   8.302   2.455   0.071  0.7188  0.2065 -0.2942
  574MOL0     C75638   8.263   2.482  -0.043 -0.4957  0.9552 -0.3917
  574MOL0     O75639   8.147   2.535  -0.078 -0.2740 -1.1919  0.0911
  574MOL0     C75640   8.067   2.590   0.019 -0.5702 -0.0970 -0.5649
  574MOL0     C75641   8.091   2.698   0.108  0.4366  0.4539 -0.7542
  574MOL0     C75642   8.001   2.743   0.211  1.0065 -0.1571 -0.0144
  574MOL0     C75643   7.876   2.681   0.208 -0.0097  0.3250  0.8074
  574MOL0     O75644   7.767   2.726   0.278 -1.3358 -0.8674  0.0618
  574MOL0     C75645   7.774   2.703   0.414 -0.2749  0.2177 -0.8041
  574MOL0     C75646   7.663   2.786   0.489  0.5640  0.4728  0.1679
  574MOL0     C75647   7.522   2.722   0.471  0.9352 -0.2600  0.0485
  574MOL0     C75648   7.440   2.823   0.535  0.7108 -0.0573  0.1673
  574MOL0     C75649   7.303   2.754   0.565  0.7789 -0.0727 -0.4510
  574MOL0     C75650   7.202   2.844   0.637 -0.9698  0.5763  1.1739
  574MOL0     C75651   7.070   2.769   0.662  0.1070 -0.0315 -0.0790
  574MOL0     C75652   6.976   2.864   0.739 -0.8127  0.0792 -0.4534
  574MOL0     N75653   6.841   2.835   0.715 -0.1253 -0.5412 -0.3769
  574MOL0     C75654   6.752   2.919   0.660  0.0378  0.0890  0.7313
  574MOL0     C75655   6.638   2.849   0.668 -0.2716  0.2136 -0.4806
  574MOL0     C75656   6.510   2.893   0.595 -0.3230 -0.4473 -1.3702
  574MOL0     C75657   6.399   2.898   0.703  0.1578  0.6087 -1.1977
  574MOL0     C75658   6.256   2.926   0.646 -0.3686  0.5924  0.1079
  574MOL0     C75659   6.186   2.803   0.581  0.0605  1.0823  0.1211
  574MOL0     O75660   6.113   2.828   0.463  0.2180  0.0962  1.0772
  574MOL0     C75661   5.976   2.852   0.464  0.2700  0.1114  0.3809
  574MOL0     C75662   5.921   2.910   0.574  0.8534 -0.5700  0.0424
  574MOL0     C75663   5.786   2.958   0.570 -0.4133 -0.9477  0.5026
  574MOL0     C75664   5.701   2.930   0.468 -0.4836 -0.2254  0.2887
  574MOL0     C75665   5.551   2.959   0.485  0.6547 -0.3485 -0.4641
  574MOL0     O75666   5.503   3.003   0.609 -0.1743  0.2379 -0.8441
  574MOL0     C75667   5.385   3.067   0.624 -0.2181  0.0753  0.4173
  574MOL0     C75668   5.325   3.043   0.747 -0.2451 -0.2218 -0.7528
  574MOL0     C75669   5.211   3.111   0.793 -0.0822  0.5197 -0.5322
  574MOL0     C75670   5.143   3.186   0.702 -0.2096  0.0470  0.3624
  574MOL0     O75671   5.016   3.239   0.724 -0.2111  0.3192  0.0323
  574MOL0     C75672   4.945   3.152   0.820  0.4142 -0.3064  0.7770
  574MOL0     C75673   4.796   3.163   0.812  0.9075  0.5012  0.7380
  574MOL0     C75674   4.727   3.067   0.912  0.2133 -0.6878  0.6919
  574MOL0     C75675   4.578   3.097   0.941  0.4839  0.9189  0.0669
  574MOL0     C75676   4.495   3.152   0.827  1.7227 -0.4521  0.6390
  574MOL0     C75677   4.475   3.303   0.838  1.0393  1.2494 -0.0947
  574MOL0     C75678   4.377   3.369   0.737  0.3641  0.4693  0.6565
  574MOL0     C75679   4.326   3.501   0.789 -0.9757  0.4708 -0.2199
  574MOL0    Cl75680   4.178   3.540   0.698  0.2698  0.4663 -0.2632
  574MOL0     C75681   5.197   3.203   0.570 -0.9383  0.0339 -0.3656
  574MOL0     C75682   5.324   3.147   0.536 -0.0161 -0.4196  0.2690
  574MOL0     O75683   5.480   2.938   0.392  0.3307 -0.4775  0.2017
  574MOL0     C75684   5.760   2.868   0.353  0.3033 -0.2849 -0.8286
  574MOL0     C75685   5.891   2.820   0.357  0.5688  0.1266  0.8665
  574MOL0     N75686   6.649   2.735   0.744 -0.4582 -0.6983 -0.3983
  574MOL0     N75687   6.772   2.731   0.778  0.0270 -0.1565 -0.1091
  574MOL0     C75688   7.848   2.579   0.117 -0.4858  1.7447  0.1157
  574MOL0     C75689   7.946   2.529   0.025  0.2219 -0.3983 -0.1291
  574MOL0     C75690   8.358   2.442  -0.155  0.4988  0.1091  0.5448
  574MOL0     C75691   8.494   2.415  -0.123 -0.5462  0.4517  0.2846
  574MOL0     C75692   8.581   2.391  -0.231 -1.3202 -0.4646  0.5703
  574MOL0     C75693   8.546   2.393  -0.363  1.0230  0.7998  0.2627
  574MOL0     O75694   8.650   2.380  -0.457 -0.2966 -0.3434  0.1443
  574MOL0     C75695   8.624   2.407  -0.597  0.9443  0.7029  0.5694
  574MOL0     C75696   8.738   2.356  -0.685  0.0905 -0.4871  0.1186
  574MOL0     C75697   8.864   2.421  -0.648  0.8223  0.6108 -0.2890
  574MOL0     C75698   8.976   2.402  -0.749  0.6034 -0.0731  0.1692
  574MOL0     C75699   9.099   2.466  -0.708  0.0269 -0.5896 -0.3202
  574MOL0     C75700   9.198   2.518  -0.658 -0.7721  0.9564  0.4840
  574MOL0     C75701   8.412   2.434  -0.398  0.9621  0.1214 -0.7147
  574MOL0     C75702   8.326   2.467  -0.294 -0.2945  0.0961  0.8977
  574MOL0     H75703   8.192   2.738   0.099  0.9659 -0.9706 -1.4170
  574MOL0     H75704   8.013   2.824   0.283 -0.5160  1.1629 -1.1569
  574MOL0     H75705   7.874   2.724   0.452 -1.3148  0.2369  2.2033
  574MOL0     H75706   7.771   2.594   0.426  5.3181 -0.5095 -3.2362
  574MOL0     H75707   7.672   2.890   0.455  1.0690 -0.0400 -1.3177
  574MOL0     H75708   7.675   2.763   0.595  0.8451 -0.2124 -0.0087
  574MOL0     H75709   7.521   2.627   0.525 -2.3570 -0.8758 -0.9072
  574MOL0     H75710   7.492   2.701   0.368  3.4593 -0.4678 -0.7163
  574MOL0     H75711   7.481   2.852   0.632  0.9673 -4.0301  1.4016
  574MOL0     H75712   7.431   2.902   0.460 -3.3757  1.5264  2.0177
  574MOL0     H75713   7.322   2.664   0.624  0.3722  1.3282  1.9267
  574MOL0     H75714   7.259   2.719   0.471 -0.4948 -2.8328  1.0575
  574MOL0     H75715   7.174   2.930   0.575 -0.6019  1.0509  1.6536
  574MOL0     H75716   7.245   2.872   0.734  0.8963 -2.8501  1.4944
  574MOL0     H75717   7.027   2.743   0.565 -0.6422  1.0617 -0.0567
  574MOL0     H75718   7.101   2.683   0.723  1.1891  0.3426 -0.0849
  574MOL0     H75719   7.000   2.967   0.713  4.7196 -0.8297 -0.0866
  574MOL0     H75720   6.991   2.860   0.848  0.2138 -2.3349 -0.6229
  574MOL0     H75721   6.761   3.012   0.603  1.5382 -0.7373 -0.4559
  574MOL0     H75722   6.471   2.829   0.514  0.5234 -0.1718 -2.0045
  574MOL0     H75723   6.505   2.997   0.563 -0.4518 -0.5140 -1.5734
  574MOL0     H75724   6.418   2.982   0.771 -0.0377  0.5582 -1.0808
  574MOL0     H75725   6.395   2.802   0.754  1.5590  1.1513  0.0008
  574MOL0     H75726   6.187   2.954   0.726 -0.7663 -0.1230  0.0218
  574MOL0     H75727   6.270   3.004   0.571  0.6273 -1.4875 -2.0116
  574MOL0     H75728   6.138   2.751   0.665  1.0266 -0.0807 -0.0255
  574MOL0     H75729   6.260   2.729   0.549 -2.0764 -1.2624  0.3216
  574MOL0     H75730   5.986   2.947   0.653  2.4941 -0.2288 -1.3907
  574MOL0     H75731   5.737   3.008   0.653 -1.5362 -1.5428  0.2278
  574MOL0     H75732   5.384   2.982   0.815 -0.6805  0.9432  0.7088
  574MOL0     H75733   5.187   3.095   0.898  0.5901 -2.4495 -0.7298
  574MOL0     H75734   4.981   3.187   0.917  0.1205 -0.1367  0.8261
  574MOL0     H75735   4.967   3.045   0.813 -1.8826 -0.7237 -1.3880
  574MOL0     H75736   4.758   3.158   0.709  0.4270  3.2408  0.7022
  574MOL0     H75737   4.778   3.265   0.846  0.8190  1.3517 -1.6632
  574MOL0     H75738   4.773   3.087   1.009 -0.6090  1.1672  0.7493
  574MOL0     H75739   4.737   2.964   0.876 -0.0084 -0.3122 -0.4891
  574MOL0     H75740   4.532   3.002   0.969  1.8188  0.4126  0.6282
  574MOL0     H75741   4.571   3.163   1.028 -0.8464 -0.1941  0.8307
  574MOL0     H75742   4.395   3.107   0.828  2.5209 -2.3043  0.9646
  574MOL0     H75743   4.535   3.120   0.730 -0.0764  0.7676 -0.5695
  574MOL0     H75744   4.569   3.357   0.834  2.4111 -1.0469 -2.8179
  574MOL0     H75745   4.441   3.329   0.938  1.0172  1.8515 -0.2548
  574MOL0     H75746   4.422   3.381   0.638 -1.5386  0.2821 -0.2672
  574MOL0     H75747   4.283   3.314   0.730 -0.2013  1.5961 -1.7654
  574MOL0     H75748   4.406   3.573   0.772 -2.2585  2.5719  1.8970
  574MOL0     H75749   4.319   3.505   0.898  0.1972  1.2622 -0.1657
  574MOL0     H75750   5.157   3.271   0.496  0.1010  3.4750  1.9697
  574MOL0     H75751   5.373   3.171   0.443  0.1999  0.8738  0.7008
  574MOL0     H75752   5.710   2.842   0.260 -1.0359 -2.1177  0.3250
  574MOL0     H75753   5.920   2.757   0.273  1.1792 -1.8386  2.4688
  574MOL0     H75754   7.744   2.547   0.116  0.1412 -0.4273  0.3542
  574MOL0     H75755   7.921   2.443  -0.036 -0.0342 -1.2731  1.1602
  574MOL0     H75756   8.519   2.422  -0.018  0.6033  2.1194 -0.0611
  574MOL0     H75757   8.685   2.364  -0.213 -1.3535  0.1389  1.7590
  574MOL0     H75758   8.615   2.516  -0.606  1.3843  0.6317 -1.1819
  574MOL0     H75759   8.525   2.368  -0.620  1.3104  1.3878 -2.6174
  574MOL0     H75760   8.757   2.250  -0.667  1.8326  0.0161  1.4438
  574MOL0     H75761   8.704   2.380  -0.787  1.2558  1.7533  0.2125
  574MOL0     H75762   8.898   2.389  -0.549 -1.0216 -2.1634 -0.4548
  574MOL0     H75763   8.834   2.526  -0.647 -0.6359  0.2445 -1.7034
  574MOL0     H75764   9.000   2.296  -0.741  1.4042  0.1760  1.4711
  574MOL0     H75765   8.935   2.438  -0.844  1.2720 -1.0656 -0.5090
  574MOL0     H75766   9.280   2.569  -0.611  0.4854  0.5024 -1.1177
  574MOL0     H75767   8.376   2.430  -0.500  4.3671  0.0674 -2.0543
  574MOL0     H75768   8.225   2.497  -0.322 -0.5937 -0.4974  1.3291
  575MOL0     O75769  11.222   3.983   6.243 -0.4160 -0.4075  0.8798
  575MOL0     C75770  11.285   4.008   6.346 -0.2783  0.2156 -1.6395
  575MOL0     O75771  11.241   4.071   6.458 -0.1536  0.3803  0.4891
  575MOL0     C75772  11.111   4.107   6.462  0.1086  0.2435  0.6337
  575MOL0     C75773  11.078   4.227   6.511 -0.2987 -0.6204 -0.4672
  575MOL0     C75774  10.942   4.260   6.512  0.0506  0.1617  0.8948
  575MOL0     C75775  10.839   4.177   6.477 -0.5608 -0.5637 -0.8578
  575MOL0     O75776  10.714   4.229   6.476  0.3860  0.3315 -0.0023
  575MOL0     C75777  10.706   4.336   6.379  1.3781 -1.0413  0.0003
  575MOL0     C75778  10.559   4.402   6.381  0.5823  0.6093  0.0063
  575MOL0     C75779  10.443   4.308   6.331  0.1377 -0.4090 -1.5176
  575MOL0     C75780  10.402   4.195   6.422  0.0952 -0.8232 -0.2518
  575MOL0     C75781  10.332   4.080   6.353 -0.6057  0.5094 -0.6681
  575MOL0     C75782  10.196   4.125   6.303  0.4974  0.2875  0.4619
  575MOL0     C75783  10.111   4.017   6.243  0.8350 -0.4086 -0.5095
  575MOL0     C75784  10.055   3.912   6.343 -0.2744 -0.1288 -0.3668
  575MOL0     N75785   9.973   3.810   6.266 -0.3868 -0.6762 -0.2273
  575MOL0     C75786  10.023   3.690   6.223 -0.7306 -1.2119 -0.3157
  575MOL0     C75787   9.914   3.624   6.159 -0.5979 -0.1061 -0.3178
  575MOL0     C75788   9.935   3.496   6.078  0.2523 -0.3995  0.6357
  575MOL0     C75789   9.994   3.516   5.935  0.0897  0.0066 -0.6970
  575MOL0     C75790  10.140   3.572   5.929  0.3355 -0.0015 -0.4649
  575MOL0     C75791  10.260   3.504   6.005  0.7292  0.3178 -0.4612
  575MOL0     O75792  10.369   3.596   6.010  0.5805 -0.2985  0.0662
  575MOL0     C75793  10.452   3.609   5.899  0.5198  1.1758 -0.3730
  575MOL0     C75794  10.501   3.738   5.897  0.0813 -0.6058  0.1762
  575MOL0     C75795  10.605   3.765   5.799  0.5038  0.5579 -0.3099
  575MOL0     C75796  10.665   3.663   5.731 -0.3812  0.2656  0.0008
  575MOL0     C75797  10.778   3.692   5.647 -0.4296  1.0079  0.4457
  575MOL0     O75798  10.826   3.590   5.561 -0.3306  1.0421 -0.3986
  575MOL0     C75799  10.957   3.606   5.511  1.2961 -0.4221  0.7001
  575MOL0     C75800  11.067   3.601   5.602  0.1288  0.4248  0.2591
  575MOL0     C75801  11.194   3.631   5.551 -0.4219  0.8861  0.2885
  575MOL0     C75802  11.222   3.675   5.420 -0.2536 -0.4616 -0.0359
  575MOL0     O75803  11.340   3.730   5.371 -0.8138 -0.0392  0.0296
  575MOL0     C75804  11.445   3.740   5.468 -0.4167  0.2864  0.2482
  575MOL0     C75805  11.554   3.800   5.398 -0.1092 -0.3412  0.2141
  575MOL0     C75806  11.685   3.801   5.464  0.6800 -0.0232  0.6226
  575MOL0     C75807  11.797   3.855   5.370 -0.1306  0.2953 -0.3078
  575MOL0     C75808  11.926   3.848   5.441 -0.0168  0.1270  0.2011
  575MOL0     C75809  12.031   3.908   5.341  0.9908 -0.9769  0.1514
  575MOL0     C75810  12.170   3.908   5.402 -0.5111 -1.4641  0.2951
  575MOL0     C75811  12.268   3.977   5.301  0.1284 -0.4360  0.0017
  575MOL0    Cl75812  12.438   3.958   5.343 -0.3375 -0.2309 -0.2051
  575MOL0     C75813  11.111   3.696   5.342  0.6339  0.6582 -0.4673
  575MOL0     C75814  10.982   3.663   5.392  0.7304 -0.1745  0.3202
  575MOL0     O75815  10.829   3.801   5.657  0.4330 -0.1319 -0.0116
  575MOL0     C75816  10.611   3.530   5.739  0.0180 -0.1249 -0.4240
  575MOL0     C75817  10.505   3.507   5.822  0.3696 -0.1676 -0.0261
  575MOL0     N75818   9.807   3.713   6.170  0.4438 -0.1954  0.9851
  575MOL0     N75819   9.844   3.820   6.239 -0.6800  0.3528  0.7631
  575MOL0     C75820  10.870   4.054   6.438 -1.0404  0.7999  0.3926
  575MOL0     C75821  11.010   4.008   6.433  0.2629 -1.1072  0.2818
  575MOL0     C75822  11.424   3.970   6.358 -0.6221  1.0655 -0.1617
  575MOL0     C75823  11.495   3.976   6.482 -0.1845 -0.0778  0.0811
  575MOL0     C75824  11.619   3.925   6.487 -0.1682  0.5261  0.4411
  575MOL0     C75825  11.696   3.879   6.372  0.2664  0.3077 -0.5094
  575MOL0     O75826  11.830   3.836   6.388  0.1107 -0.7925 -0.6277
  575MOL0     C75827  11.910   3.824   6.275 -0.4119  0.2836  0.8936
  575MOL0     C75828  12.051   3.882   6.306  0.2114  0.4206 -0.4703
  575MOL0     C75829  12.047   4.031   6.320 -0.2525 -1.0950 -0.4056
  575MOL0     C75830  12.183   4.094   6.331 -0.6792 -0.0682  0.0860
  575MOL0     C75831  12.172   4.242   6.335  0.0156  0.0718 -0.2686
  575MOL0     C75832  12.159   4.360   6.319 -0.3754 -0.3064 -0.1183
  575MOL0     C75833  11.630   3.889   6.251 -0.4559 -0.4885  0.8778
  575MOL0     C75834  11.496   3.933   6.242 -0.1854  0.0449  0.9990
  575MOL0     H75835  11.153   4.301   6.538 -1.9229 -0.1627  3.3231
  575MOL0     H75836  10.914   4.361   6.541 -0.2488  0.7314 -1.2499
  575MOL0     H75837  10.731   4.297   6.280  1.2434 -2.8304  0.6228
  575MOL0     H75838  10.769   4.420   6.410 -2.1794  1.2988  1.4507
  575MOL0     H75839  10.560   4.491   6.318  1.5040  1.6406  1.4264
  575MOL0     H75840  10.541   4.437   6.482  1.8144  0.2713  0.3698
  575MOL0     H75841  10.475   4.266   6.236 -1.8919  0.4057 -2.6140
  575MOL0     H75842  10.350   4.365   6.328  0.4853  0.4286  0.8696
  575MOL0     H75843  10.490   4.152   6.472  0.0019 -1.4333 -0.6049
  575MOL0     H75844  10.331   4.219   6.502  0.2213 -2.7992  0.5255
  575MOL0     H75845  10.321   4.010   6.437  1.7471  1.2218  0.3076
  575MOL0     H75846  10.384   4.024   6.275 -0.0198 -1.5108  1.0723
  575MOL0     H75847  10.218   4.196   6.223  1.9909 -0.0551  0.5397
  575MOL0     H75848  10.144   4.184   6.378 -0.5885 -0.3511  0.2363
  575MOL0     H75849  10.022   4.070   6.208  1.1981  0.7116  0.1866
  575MOL0     H75850  10.156   3.966   6.157 -2.6380 -2.3217 -1.3688
  575MOL0     H75851  10.003   3.966   6.423  1.4221  0.4973  0.3471
  575MOL0     H75852  10.135   3.861   6.398  0.7544  2.1419  0.3510
  575MOL0     H75853  10.128   3.664   6.227 -1.1130 -2.8222  1.9216
  575MOL0     H75854   9.838   3.446   6.072  0.0679 -0.3775  2.7229
  575MOL0     H75855   9.990   3.422   6.137 -2.1289 -2.2297  0.7255
  575MOL0     H75856   9.937   3.591   5.880 -0.0348  1.6629  1.5564
  575MOL0     H75857   9.997   3.429   5.869  2.7933  1.3173 -2.4854
  575MOL0     H75858  10.171   3.593   5.826 -1.6149  1.8571 -0.7511
  575MOL0     H75859  10.137   3.675   5.967 -1.1249  0.5215 -1.8917
  575MOL0     H75860  10.285   3.407   5.961  0.2952  0.3636 -0.8266
  575MOL0     H75861  10.220   3.479   6.104  0.9189 -2.6275 -1.0499
  575MOL0     H75862  10.459   3.823   5.950 -0.9997 -0.7177 -0.4604
  575MOL0     H75863  10.621   3.872   5.805 -2.6171  1.0344  1.5357
  575MOL0     H75864  11.057   3.584   5.708  0.5551  0.8911  0.3775
  575MOL0     H75865  11.277   3.619   5.620 -0.2535 -1.3345 -0.2031
  575MOL0     H75866  11.484   3.645   5.506  0.9781  0.8769  0.3579
  575MOL0     H75867  11.411   3.806   5.548 -0.4137 -0.4237  0.8520
  575MOL0     H75868  11.518   3.899   5.372 -0.2195 -1.4356 -4.8338
  575MOL0     H75869  11.568   3.740   5.307  2.2612 -2.0199  1.5440
  575MOL0     H75870  11.703   3.703   5.509 -0.9112 -1.0639 -0.8648
  575MOL0     H75871  11.679   3.872   5.547 -4.4551  1.5844 -0.7798
  575MOL0     H75872  11.812   3.782   5.290  0.2448  0.0084  0.0184
  575MOL0     H75873  11.779   3.957   5.336 -0.1094  1.6438  3.3108
  575MOL0     H75874  11.941   3.741   5.459 -2.6329 -0.1234  1.3798
  575MOL0     H75875  11.915   3.900   5.536 -0.2679 -0.9334  0.7616
  575MOL0     H75876  12.009   4.014   5.325  1.0392 -1.0263 -0.2563
  575MOL0     H75877  12.035   3.851   5.248  0.6088 -0.5705 -0.1179
  575MOL0     H75878  12.173   3.972   5.491 -1.4182 -0.3973 -0.4055
  575MOL0     H75879  12.200   3.805   5.421 -0.4114 -1.4465  0.2325
  575MOL0     H75880  12.262   4.086   5.309  1.0371 -0.2961 -1.1017
  575MOL0     H75881  12.250   3.953   5.196  2.6001  2.2396 -1.1486
  575MOL0     H75882  11.134   3.736   5.243  2.0869 -1.3450 -0.9966
  575MOL0     H75883  10.897   3.695   5.333 -0.2289 -2.0728  0.6075
  575MOL0     H75884  10.663   3.450   5.687  0.1530 -0.4588  0.2147
  575MOL0     H75885  10.477   3.403   5.834  0.1279 -0.0971  0.0408
  575MOL0     H75886  10.799   3.976   6.411 -0.2871 -0.4403  1.8127
  575MOL0     H75887  11.042   3.910   6.400  3.2457 -0.2625  0.3187
  575MOL0     H75888  11.455   3.989   6.582 -2.7744 -3.2482 -0.3661
  575MOL0     H75889  11.661   3.954   6.582  0.8933  3.8377 -0.8913
  575MOL0     H75890  11.867   3.882   6.193 -0.8070  0.0717  0.9493
  575MOL0     H75891  11.918   3.721   6.240  0.5885  0.8407 -0.6589
  575MOL0     H75892  12.076   3.833   6.401 -0.3171 -0.2465 -0.6727
  575MOL0     H75893  12.120   3.846   6.229 -2.9761 -1.0669 -2.8538
  575MOL0     H75894  11.996   4.046   6.415 -2.9097  0.8170 -1.9979
  575MOL0     H75895  11.975   4.076   6.250  0.3717 -1.7171 -1.4779
  575MOL0     H75896  12.250   4.054   6.409  0.4392  0.6179 -0.4930
  575MOL0     H75897  12.223   4.058   6.236 -0.3857 -2.6197  1.0815
  575MOL0     H75898  12.144   4.466   6.316  0.3610  0.1848  4.9808
  575MOL0     H75899  11.689   3.872   6.162 -0.2099 -3.3371  1.5114
  575MOL0     H75900  11.457   3.942   6.142 -0.5538 -0.6174  1.0837
  576MOL0     O75901   2.218   5.230   0.343  0.6651 -0.1082 -0.0663
  576MOL0     C75902   2.216   5.296   0.235  0.2231 -0.2985  0.0592
  576MOL0     O75903   2.283   5.409   0.209 -0.7877  0.1814  0.2724
  576MOL0     C75904   2.411   5.411   0.251  0.5471  1.3619  0.2879
  576MOL0     C75905   2.496   5.355   0.156 -0.1842 -0.5599 -0.5693
  576MOL0     C75906   2.633   5.369   0.175 -0.7066  0.1908 -0.6608
  576MOL0     C75907   2.689   5.415   0.289 -0.1612 -0.5952 -1.2620
  576MOL0     O75908   2.825   5.406   0.310 -0.6437  0.1382  0.4912
  576MOL0     C75909   2.922   5.447   0.219 -0.7641 -0.3296 -0.3703
  576MOL0     C75910   3.058   5.369   0.229  0.9016 -0.7700 -0.3105
  576MOL0     C75911   3.048   5.231   0.164 -0.7730 -0.7693  0.5861
  576MOL0     C75912   3.176   5.156   0.209 -0.2343  0.5649 -0.2894
  576MOL0     C75913   3.197   5.017   0.150 -0.4404  0.0353  0.5003
  576MOL0     C75914   3.348   4.974   0.138 -0.4923 -0.4870 -0.0235
  576MOL0     C75915   3.408   4.991   0.285  0.0721  0.5344  0.3277
  576MOL0     C75916   3.551   4.947   0.301  0.1805 -1.0853  0.1711
  576MOL0     N75917   3.652   5.014   0.223  0.5661 -0.0589  0.3167
  576MOL0     C75918   3.631   5.136   0.177 -0.2587  0.4250  0.3478
  576MOL0     C75919   3.746   5.166   0.114 -0.0933  0.1254 -0.2626
  576MOL0     C75920   3.771   5.305   0.052 -0.7778  0.4406 -0.3504
  576MOL0     C75921   3.736   5.310  -0.097 -0.1220 -0.6066 -0.6810
  576MOL0     C75922   3.712   5.456  -0.141  0.2802 -0.7525  0.7115
  576MOL0     C75923   3.590   5.527  -0.076  0.2416 -0.4893  0.0983
  576MOL0     O75924   3.481   5.427  -0.065  0.0872  0.3758 -0.1301
  576MOL0     C75925   3.352   5.474  -0.076  0.0104 -0.7689  0.3273
  576MOL0     C75926   3.251   5.387  -0.104 -0.0144 -0.8209  0.4136
  576MOL0     C75927   3.120   5.431  -0.128 -0.1060 -0.0227 -0.8514
  576MOL0     C75928   3.090   5.568  -0.114  0.1554  0.2081  0.6231
  576MOL0     C75929   2.948   5.614  -0.113  0.1478  0.7766  0.5298
  576MOL0     O75930   2.911   5.714  -0.023 -0.6273  0.0439  0.2239
  576MOL0     C75931   2.777   5.767  -0.023 -1.1881 -0.0646  0.9212
  576MOL0     C75932   2.667   5.695   0.016 -0.1610  0.3135  1.0877
  576MOL0     C75933   2.544   5.750   0.022  0.4634 -1.1204 -0.3619
  576MOL0     C75934   2.524   5.891   0.007  0.0501  0.3287 -0.6733
  576MOL0     O75935   2.409   5.964   0.028 -0.6232  0.4190  0.4888
  576MOL0     C75936   2.288   5.894   0.085  0.5368 -0.4032 -0.4543
  576MOL0     C75937   2.184   5.863  -0.033 -0.0274  0.2870  0.1824
  576MOL0     C75938   2.084   5.755  -0.003  0.2828  0.2123  0.2149
  576MOL0     C75939   1.989   5.719  -0.117  0.2544  0.4247  0.6639
  576MOL0     C75940   1.887   5.610  -0.076  0.0604  0.5214 -0.1156
  576MOL0     C75941   1.765   5.594  -0.165 -1.0355 -0.3604  0.6670
  576MOL0     C75942   1.681   5.484  -0.140 -0.2338  0.6707 -0.2132
  576MOL0     C75943   1.558   5.481  -0.234 -0.3279  0.3852  0.3832
  576MOL0    Cl75944   1.613   5.457  -0.404 -0.0293 -0.0123  0.4022
  576MOL0     C75945   2.640   5.960  -0.036 -0.0400 -0.2129 -0.3530
  576MOL0     C75946   2.763   5.902  -0.047 -0.7719 -0.3106  0.1842
  576MOL0     O75947   2.863   5.543  -0.178 -0.4554 -0.5668 -0.2894
  576MOL0     C75948   3.197   5.661  -0.096 -0.4880 -0.0846  0.5641
  576MOL0     C75949   3.323   5.615  -0.066 -0.7176  0.1618 -0.1238
  576MOL0     N75950   3.832   5.055   0.128 -0.6147 -0.3540 -0.0991
  576MOL0     N75951   3.775   4.961   0.188 -0.2865 -0.3304  0.1281
  576MOL0     C75952   2.595   5.459   0.385  0.8650  0.6099 -0.4409
  576MOL0     C75953   2.453   5.455   0.371  0.3821 -0.1227 -0.4930
  576MOL0     C75954   2.117   5.248   0.122 -0.1335  0.2135  0.3216
  576MOL0     C75955   2.124   5.294  -0.006  1.0107  0.2460  0.1850
  576MOL0     C75956   2.036   5.250  -0.098 -0.2853 -0.1696 -0.1474
  576MOL0     C75957   1.945   5.147  -0.072  0.2494 -0.6911 -0.0239
  576MOL0     O75958   1.870   5.092  -0.173 -0.4781 -0.9472 -0.2887
  576MOL0     C75959   1.863   5.133  -0.314 -0.9478 -0.1668  1.0238
  576MOL0     C75960   1.782   5.051  -0.411  0.5790  0.6866  0.5063
  576MOL0     C75961   1.633   5.072  -0.374 -0.1749 -1.4875  0.0879
  576MOL0     C75962   1.550   5.020  -0.486 -0.2823 -0.4183  0.2874
  576MOL0     C75963   1.563   4.870  -0.474 -0.0631 -0.4759  0.2484
  576MOL0     C75964   1.569   4.751  -0.438  0.8421  0.7510  0.4371
  576MOL0     C75965   1.936   5.099   0.055  0.0608 -0.3634  0.1368
  576MOL0     C75966   2.027   5.145   0.153  0.6648  0.1788 -0.4630
  576MOL0     H75967   2.470   5.322   0.056  2.9217 -1.2808 -1.2640
  576MOL0     H75968   2.701   5.321   0.107  1.6576  2.7385 -0.2724
  576MOL0     H75969   2.938   5.555   0.233  1.4212 -0.6078 -0.4239
  576MOL0     H75970   2.888   5.448   0.115  2.8864  0.0813 -1.6951
  576MOL0     H75971   3.087   5.370   0.335  1.4283 -0.9528 -0.4497
  576MOL0     H75972   3.130   5.427   0.172  0.4703 -0.3320 -0.4131
  576MOL0     H75973   3.039   5.241   0.056 -2.5394 -1.7277  0.6070
  576MOL0     H75974   2.960   5.177   0.202 -0.3269 -2.3111 -0.4791
  576MOL0     H75975   3.250   5.223   0.163 -0.1795 -1.2424 -3.0809
  576MOL0     H75976   3.184   5.152   0.318 -1.3826  1.2220 -0.1572
  576MOL0     H75977   3.156   5.023   0.049  5.1265 -0.7659 -2.2209
  576MOL0     H75978   3.143   4.942   0.208  0.0177 -1.1343 -0.5486
  576MOL0     H75979   3.403   5.037   0.067  0.8006  1.3117  2.4181
  576MOL0     H75980   3.356   4.871   0.101 -3.0781 -0.2590 -1.4656
  576MOL0     H75981   3.400   5.091   0.327  1.8902 -0.6517  3.9050
  576MOL0     H75982   3.341   4.933   0.350 -3.2041  2.7710 -0.8021
  576MOL0     H75983   3.556   4.843   0.266  1.0621  0.5576 -5.6940
  576MOL0     H75984   3.570   4.944   0.408  2.3194  2.6421  0.0452
  576MOL0     H75985   3.541   5.198   0.177 -0.2083  0.5852 -1.8726
  576MOL0     H75986   3.874   5.328   0.083 -0.4736  2.7770 -2.7704
  576MOL0     H75987   3.703   5.369   0.108 -0.9960 -0.0266 -0.0741
  576MOL0     H75988   3.641   5.258  -0.116  0.0935 -2.0174  1.7122
  576MOL0     H75989   3.822   5.271  -0.152  1.8659  2.9940 -0.4261
  576MOL0     H75990   3.799   5.521  -0.131 -2.4013  3.1238  1.0014
  576MOL0     H75991   3.706   5.465  -0.249  0.5467 -1.5695  0.6221
  576MOL0     H75992   3.569   5.616  -0.136 -1.7648 -1.0745 -0.1698
  576MOL0     H75993   3.622   5.557   0.024  1.8379 -3.3375  0.5624
  576MOL0     H75994   3.264   5.280  -0.099 -0.2051 -0.8244  0.8673
  576MOL0     H75995   3.034   5.365  -0.131  0.8060 -1.2638 -0.6161
  576MOL0     H75996   2.679   5.587   0.014  1.0211  0.4013 -2.5082
  576MOL0     H75997   2.462   5.684   0.049 -1.2666 -0.0413 -2.5963
  576MOL0     H75998   2.248   5.955   0.167 -0.6931  0.0934 -1.3891
  576MOL0     H75999   2.315   5.802   0.136  0.7259 -0.2711 -0.3135
  576MOL0     H76000   2.224   5.834  -0.130 -0.5768  2.1290 -0.6301
  576MOL0     H76001   2.137   5.956  -0.065 -2.9230 -1.2916 -0.5195
  576MOL0     H76002   2.022   5.794   0.078  0.6424 -0.2239  0.7056
  576MOL0     H76003   2.131   5.661   0.028 -1.8674 -1.7139 -1.8835
  576MOL0     H76004   1.932   5.811  -0.133 -1.6142 -0.3820  2.2533
  576MOL0     H76005   2.052   5.682  -0.198 -0.8054 -2.2091  0.9465
  576MOL0     H76006   1.859   5.625   0.029  2.4624  0.6834  0.5555
  576MOL0     H76007   1.948   5.520  -0.084 -1.8896 -0.8075 -0.7969
  576MOL0     H76008   1.798   5.586  -0.269 -2.7157 -2.2960  0.2124
  576MOL0     H76009   1.694   5.677  -0.161 -2.2262 -1.3789  3.7977
  576MOL0     H76010   1.732   5.387  -0.143 -2.3168 -0.4459 -0.8273
  576MOL0     H76011   1.647   5.489  -0.036 -0.7246 -1.1816 -0.2566
  576MOL0     H76012   1.501   5.574  -0.240  0.1226  0.6363 -0.0672
  576MOL0     H76013   1.488   5.404  -0.199 -1.8649  1.6146  0.1520
  576MOL0     H76014   2.643   6.067  -0.052  2.4836 -0.1807 -0.0524
  576MOL0     H76015   2.848   5.966  -0.067 -1.3629  0.0881 -1.1712
  576MOL0     H76016   3.171   5.766  -0.089 -1.5022 -0.2051 -0.9285
  576MOL0     H76017   3.393   5.690  -0.032 -0.6159 -0.2870  0.6733
  576MOL0     H76018   2.630   5.487   0.484 -0.2574  2.9983 -0.6363
  576MOL0     H76019   2.386   5.487   0.450 -0.5931 -2.5319 -0.2523
  576MOL0     H76020   2.189   5.378  -0.028  2.0216  0.1429  2.4847
  576MOL0     H76021   2.049   5.291  -0.198  0.8070 -0.3376 -0.0948
  576MOL0     H76022   1.968   5.140  -0.341 -0.5910  3.1204  2.7092
  576MOL0     H76023   1.815   5.230  -0.332 -2.0512 -0.5250  1.8561
  576MOL0     H76024   1.800   5.092  -0.511  0.3788  1.9793  0.9929
  576MOL0     H76025   1.803   4.943  -0.415  5.3252  1.4384 -0.8088
  576MOL0     H76026   1.613   5.179  -0.368  3.2733 -0.6504 -0.7989
  576MOL0     H76027   1.606   5.030  -0.277 -0.9334 -2.1180 -0.3883
  576MOL0     H76028   1.445   5.050  -0.472  0.6255  2.3893  1.8742
  576MOL0     H76029   1.593   5.052  -0.581 -1.9555  1.3834  0.0571
  576MOL0     H76030   1.590   4.649  -0.412  1.6162  1.0314  0.9487
  576MOL0     H76031   1.874   5.016   0.086  1.3021 -0.8179  1.5438
  576MOL0     H76032   2.021   5.102   0.253  2.3013  0.4520 -0.2268
  577MOL0     O76033   5.941   0.908   4.917 -0.0902 -0.2256  0.9371
  577MOL0     C76034   5.928   0.811   4.836 -0.2944  0.1329 -0.4590
  577MOL0     O76035   6.013   0.707   4.817 -0.3456  0.2181 -0.0589
  577MOL0     C76036   6.101   0.695   4.915  0.1685 -0.6761 -0.1083
  577MOL0     C76037   6.069   0.661   5.050 -0.0512 -0.0335 -0.0436
  577MOL0     C76038   6.169   0.641   5.142  0.3868  1.3897  0.4809
  577MOL0     C76039   6.297   0.642   5.108  0.1906 -0.0915 -0.5636
  577MOL0     O76040   6.391   0.602   5.203  0.6326 -0.2151  0.0489
  577MOL0     C76041   6.516   0.661   5.198  0.6335  0.2446  0.4860
  577MOL0     C76042   6.603   0.613   5.315 -0.7020  0.9325  0.2689
  577MOL0     C76043   6.531   0.651   5.442  1.2658 -0.1426  0.2490
  577MOL0     C76044   6.605   0.623   5.570 -0.1160  0.0052 -0.6887
  577MOL0     C76045   6.539   0.681   5.697  0.1064 -1.2217 -0.1378
  577MOL0     C76046   6.416   0.597   5.754 -0.5690  0.1616  0.3306
  577MOL0     C76047   6.354   0.663   5.872  0.0578 -0.4630  0.3785
  577MOL0     C76048   6.273   0.566   5.955 -0.0267  0.1787 -0.6509
  577MOL0     N76049   6.203   0.632   6.072 -0.8438 -0.1653  0.8747
  577MOL0     C76050   6.135   0.755   6.064 -0.6266 -0.5097 -0.2975
  577MOL0     C76051   6.058   0.761   6.174 -0.0370  0.9303 -0.5615
  577MOL0     C76052   5.955   0.855   6.209 -1.3086  1.1257  0.0101
  577MOL0     C76053   5.984   0.979   6.133 -1.0567  0.3383 -0.0166
  577MOL0     C76054   5.902   1.098   6.188  0.5233  0.4208 -0.0098
  577MOL0     C76055   5.749   1.085   6.176  0.0053  0.2728  0.1406
  577MOL0     O76056   5.676   1.211   6.179  0.1304 -0.2540  0.4575
  577MOL0     C76057   5.559   1.207   6.112  0.0892 -0.1129  0.5892
  577MOL0     C76058   5.546   1.279   5.995 -0.1462  0.3966 -0.1822
  577MOL0     C76059   5.421   1.291   5.929 -0.2700  0.4193 -0.4988
  577MOL0     C76060   5.300   1.236   5.975  0.7329 -0.9449  0.2028
  577MOL0     C76061   5.171   1.238   5.901 -0.0149  0.3249  0.0650
  577MOL0     O76062   5.181   1.264   5.768 -0.2285  0.7237 -0.7921
  577MOL0     C76063   5.060   1.262   5.696  0.0528 -0.5554  1.4275
  577MOL0     C76064   5.044   1.365   5.596 -0.2112  0.2383 -0.1852
  577MOL0     C76065   4.931   1.365   5.514 -0.6426  0.3460  0.7314
  577MOL0     C76066   4.835   1.267   5.518  0.2754 -0.3134  0.3615
  577MOL0     O76067   4.727   1.267   5.426  0.3637 -0.1293  0.0201
  577MOL0     C76068   4.665   1.142   5.386  0.5365  0.7534 -0.3161
  577MOL0     C76069   4.546   1.170   5.297  0.3395  0.0165  0.4618
  577MOL0     C76070   4.474   1.039   5.257  0.4517  1.3202 -0.5139
  577MOL0     C76071   4.335   1.062   5.196 -0.8517  0.3853 -0.2535
  577MOL0     C76072   4.257   0.931   5.157 -0.8287  0.2172  0.1249
  577MOL0     C76073   4.123   0.962   5.091  0.5560 -0.0693  0.9523
  577MOL0     C76074   4.062   0.823   5.059 -0.3944  0.2038 -0.1576
  577MOL0     C76075   3.985   0.830   4.922  0.0360  0.5448 -1.0186
  577MOL0    Cl76076   4.097   0.848   4.798  0.1633 -0.0601 -0.4538
  577MOL0     C76077   4.854   1.160   5.615  0.3357 -0.3301 -0.6962
  577MOL0     C76078   4.956   1.166   5.704  0.1894 -0.4874  0.6583
  577MOL0     O76079   5.064   1.213   5.961 -0.0682  0.5601  0.2801
  577MOL0     C76080   5.311   1.167   6.095  0.4649  0.7376 -0.5199
  577MOL0     C76081   5.437   1.150   6.158  0.8957 -0.0415  0.4733
  577MOL0     N76082   6.065   0.634   6.238 -0.5795  0.0044 -0.5829
  577MOL0     N76083   6.152   0.561   6.174  0.9632  0.1250  0.1530
  577MOL0     C76084   6.338   0.686   4.980  0.8789 -0.8809  0.9275
  577MOL0     C76085   6.235   0.717   4.882  0.5195  0.1875 -0.1608
  577MOL0     C76086   5.795   0.818   4.772  0.9896  0.6342 -0.7750
  577MOL0     C76087   5.703   0.925   4.788  0.4806 -0.0343  0.6203
  577MOL0     C76088   5.587   0.929   4.705  0.9583 -0.0891 -0.1376
  577MOL0     C76089   5.546   0.819   4.639 -0.3014  0.6557 -0.2263
  577MOL0     O76090   5.436   0.827   4.554 -0.3666  0.7951  0.4731
  577MOL0     C76091   5.334   0.747   4.608  0.3900 -0.1083 -0.1787
  577MOL0     C76092   5.225   0.831   4.680 -0.4134  0.6219 -0.0749
  577MOL0     C76093   5.093   0.869   4.608 -0.4418  0.3803  0.8828
  577MOL0     C76094   4.996   0.913   4.716 -0.1070 -0.7114  0.2163
  577MOL0     C76095   5.027   1.039   4.783  0.4678  0.7329 -1.3416
  577MOL0     C76096   5.056   1.135   4.847  0.1601  0.3082 -0.1188
  577MOL0     C76097   5.637   0.712   4.614 -0.5969 -0.4032  0.3817
  577MOL0     C76098   5.757   0.716   4.686  0.0093  0.8681  0.6347
  577MOL0     H76099   5.966   0.645   5.079 -1.0020 -1.6748 -3.7978
  577MOL0     H76100   6.144   0.618   5.245  0.4720  2.2622  0.7043
  577MOL0     H76101   6.503   0.769   5.196  0.7253  0.2931  1.7016
  577MOL0     H76102   6.564   0.641   5.102 -1.3826  0.9013 -0.6968
  577MOL0     H76103   6.704   0.656   5.309 -0.3499  0.1384  0.3348
  577MOL0     H76104   6.621   0.506   5.322 -0.1212  1.0996  1.4413
  577MOL0     H76105   6.425   0.629   5.452  1.2474  0.3186  1.2060
  577MOL0     H76106   6.527   0.760   5.435  2.1304 -0.1342 -0.3837
  577MOL0     H76107   6.613   0.515   5.583  0.7910  0.3515  2.3942
  577MOL0     H76108   6.704   0.668   5.563 -0.1458  0.4766  1.3278
  577MOL0     H76109   6.503   0.784   5.693 -1.3333 -1.7480 -1.6781
  577MOL0     H76110   6.616   0.686   5.775  0.2986  1.0421 -0.4179
  577MOL0     H76111   6.452   0.502   5.795 -0.8852  0.8796  2.3924
  577MOL0     H76112   6.339   0.573   5.679  0.6518  0.3566 -1.0308
  577MOL0     H76113   6.433   0.692   5.942  0.1540 -0.4259  0.2530
  577MOL0     H76114   6.307   0.757   5.844  2.2906  1.2581  2.0559
  577MOL0     H76115   6.336   0.484   5.991  1.7671  1.6530 -0.2974
  577MOL0     H76116   6.200   0.515   5.890  0.9050 -1.3733 -0.5374
  577MOL0     H76117   6.120   0.825   5.982 -3.5493 -1.0418 -0.3205
  577MOL0     H76118   5.959   0.861   6.318  2.0664 -2.8754  0.3675
  577MOL0     H76119   5.857   0.815   6.179 -1.6656  1.5223  0.6242
  577MOL0     H76120   5.954   0.963   6.029 -2.8551 -3.9333  0.9344
  577MOL0     H76121   6.092   0.994   6.129 -0.5179 -2.6804  0.5301
  577MOL0     H76122   5.923   1.115   6.294  3.3121  1.0864 -0.5995
  577MOL0     H76123   5.932   1.185   6.129  1.6175 -0.2810 -0.5211
  577MOL0     H76124   5.716   1.009   6.248 -1.7132 -0.8270 -1.6781
  577MOL0     H76125   5.727   1.039   6.079 -1.7239  3.8406 -1.3469
  577MOL0     H76126   5.628   1.328   5.944  0.8730 -0.1799  0.8570
  577MOL0     H76127   5.426   1.332   5.829 -1.8782  0.0953 -0.7399
  577MOL0     H76128   5.128   1.429   5.570 -0.0446 -0.6985 -2.1413
  577MOL0     H76129   4.918   1.437   5.434 -2.5411 -3.2298 -2.4695
  577MOL0     H76130   4.632   1.079   5.469  0.2987  2.1276  0.6591
  577MOL0     H76131   4.731   1.083   5.322 -1.7803 -1.1743 -1.0887
  577MOL0     H76132   4.563   1.216   5.199 -0.4158 -0.7782 -0.0586
  577MOL0     H76133   4.490   1.248   5.350 -1.1316 -1.6218  1.4018
  577MOL0     H76134   4.448   0.975   5.343  1.8158 -0.8065 -1.5967
  577MOL0     H76135   4.543   0.985   5.191 -0.4121  0.3400 -0.6458
  577MOL0     H76136   4.269   1.122   5.260 -0.3012  0.0995  0.5997
  577MOL0     H76137   4.348   1.122   5.106  0.6998  0.9673  0.3358
  577MOL0     H76138   4.227   0.879   5.249 -1.1404  0.7708  0.3450
  577MOL0     H76139   4.324   0.870   5.096 -1.7867 -4.6294  3.3259
  577MOL0     H76140   4.134   1.019   4.998 -1.0592 -2.0678 -0.5537
  577MOL0     H76141   4.051   1.015   5.155 -0.9152  0.9581 -1.3861
  577MOL0     H76142   4.134   0.741   5.044 -0.1128  0.3989  0.1263
  577MOL0     H76143   4.004   0.795   5.147 -0.8266  0.5513 -0.3298
  577MOL0     H76144   3.914   0.913   4.932 -0.4609 -0.1429  2.1885
  577MOL0     H76145   3.930   0.737   4.902  1.7385 -0.2390 -2.3942
  577MOL0     H76146   4.784   1.076   5.623  0.6147 -0.4560  0.6993
  577MOL0     H76147   4.964   1.085   5.775  0.8718 -2.7425 -1.8241
  577MOL0     H76148   5.223   1.119   6.135 -0.9247  0.7323 -3.3040
  577MOL0     H76149   5.433   1.097   6.252 -1.1290 -0.0296  0.4527
  577MOL0     H76150   6.442   0.712   4.963  1.2979 -1.5346  2.3573
  577MOL0     H76151   6.262   0.741   4.779 -1.7667  0.0056 -0.8424
  577MOL0     H76152   5.732   1.009   4.850 -2.2210  1.8492 -0.4604
  577MOL0     H76153   5.521   1.014   4.687 -1.1626 -1.9067 -1.4142
  577MOL0     H76154   5.373   0.668   4.672  0.9285  0.5996  0.3808
  577MOL0     H76155   5.286   0.682   4.534  3.7019 -1.4814 -1.2728
  577MOL0     H76156   5.210   0.777   4.774 -1.2275 -0.4472 -0.7910
  577MOL0     H76157   5.262   0.931   4.704 -2.2571  1.2311  0.3640
  577MOL0     H76158   5.049   0.792   4.544 -0.9732  2.2552 -1.1432
  577MOL0     H76159   5.113   0.961   4.552  0.7206 -1.3426 -1.7336
  577MOL0     H76160   4.902   0.932   4.662  0.6011  1.7080 -0.2653
  577MOL0     H76161   4.987   0.843   4.800 -0.2047 -0.0835  0.7369
  577MOL0     H76162   5.072   1.223   4.906 -0.8442  1.6052 -1.6844
  577MOL0     H76163   5.608   0.637   4.541 -1.8635 -0.7589  1.2160
  577MOL0     H76164   5.819   0.631   4.659  1.8593  2.5597 -0.6698
  578MOL0     O76165   0.298  10.908   0.572  1.4391 -0.2362 -0.0861
  578MOL0     C76166   0.312  10.926   0.448  0.7232 -0.0098  0.6444
  578MOL0     O76167   0.217  10.949   0.357  0.5301 -0.0867 -0.3315
  578MOL0     C76168   0.080  10.927   0.394 -0.4361 -0.5538 -0.4456
  578MOL0     C76169   0.032  10.808   0.447  0.7974  0.5673 -0.8005
  578MOL0     C76170  -0.099  10.775   0.462  0.5719  1.0110 -0.2126
  578MOL0     C76171  -0.193  10.872   0.435  0.1700  1.2852  0.2568
  578MOL0     O76172  -0.327  10.841   0.456 -0.5862 -0.2928 -0.0540
  578MOL0     C76173  -0.412  10.946   0.512  0.0422 -0.1997  0.2051
  578MOL0     C76174  -0.549  10.883   0.536  0.1106 -0.0097 -0.2712
  578MOL0     C76175  -0.643  10.878   0.416 -1.1061  0.2625  0.0115
  578MOL0     C76176  -0.770  10.801   0.461 -0.2425 -0.7486 -0.1695
  578MOL0     C76177  -0.870  10.794   0.337  1.0681 -1.0202 -0.4443
  578MOL0     C76178  -0.949  10.927   0.330 -0.2850  0.2350  0.5640
  578MOL0     C76179  -1.076  10.920   0.243 -1.4218 -0.0266 -0.1096
  578MOL0     C76180  -1.124  11.057   0.191  0.5094  0.5789  0.0744
  578MOL0     N76181  -1.254  11.036   0.118  0.2492  0.3351  0.2295
  578MOL0     C76182  -1.343  10.936   0.141 -0.1825  0.6403 -0.8932
  578MOL0     C76183  -1.430  10.939   0.045 -0.6064 -0.1537  0.1639
  578MOL0     C76184  -1.544  10.845   0.026  0.1332 -0.2955  0.3127
  578MOL0     C76185  -1.614  10.830  -0.112  0.2443  0.8666 -0.8441
  578MOL0     C76186  -1.715  10.714  -0.098  0.6542 -0.6462 -0.8506
  578MOL0     C76187  -1.793  10.682  -0.226  0.4876 -0.4101  0.3976
  578MOL0     O76188  -1.916  10.610  -0.209  0.1088 -0.6644  1.0261
  578MOL0     C76189  -1.997  10.587  -0.320 -0.1890 -0.0781  0.8998
  578MOL0     C76190  -2.118  10.528  -0.289  1.3046 -0.0138  0.7897
  578MOL0     C76191  -2.199  10.481  -0.396 -0.3034 -0.1449 -0.3895
  578MOL0     C76192  -2.178  10.513  -0.528  0.2793  0.3641  0.2918
  578MOL0     C76193  -2.279  10.475  -0.633  0.0581 -0.0149 -0.7113
  578MOL0     O76194  -2.411  10.472  -0.590  0.4916  0.9352 -0.5751
  578MOL0     C76195  -2.501  10.476  -0.694 -0.0277  0.7317  0.0262
  578MOL0     C76196  -2.587  10.362  -0.712 -0.7401 -0.7538  0.4037
  578MOL0     C76197  -2.664  10.351  -0.829  0.1426  0.3272 -0.3084
  578MOL0     C76198  -2.664  10.458  -0.918  0.0569 -0.8997 -0.6007
  578MOL0     O76199  -2.756  10.475  -1.018 -0.7008  0.6762 -0.1308
  578MOL0     C76200  -2.891  10.492  -0.972 -0.6328  0.8358  0.0719
  578MOL0     C76201  -2.971  10.541  -1.091  0.3526  0.9427  0.2812
  578MOL0     C76202  -3.013  10.437  -1.189  1.0051 -0.0948  0.1121
  578MOL0     C76203  -3.126  10.478  -1.291  0.6092 -0.5594 -0.4098
  578MOL0     C76204  -3.173  10.350  -1.350 -0.7469  0.5681 -1.0231
  578MOL0     C76205  -3.283  10.363  -1.451  0.3856  0.4238  0.1047
  578MOL0     C76206  -3.242  10.340  -1.596 -0.0092  0.8816  0.3483
  578MOL0     C76207  -3.148  10.446  -1.654  0.2231 -1.3796 -0.0001
  578MOL0    Cl76208  -3.193  10.619  -1.650  0.0138 -0.4646 -0.1153
  578MOL0     C76209  -2.595  10.578  -0.884  1.1666  0.3663 -1.1411
  578MOL0     C76210  -2.508  10.591  -0.776 -0.4123  0.6700 -0.0940
  578MOL0     O76211  -2.232  10.450  -0.745 -0.4411 -0.6572 -0.1493
  578MOL0     C76212  -2.056  10.574  -0.558  0.1024 -0.0837  0.7412
  578MOL0     C76213  -1.967  10.607  -0.450  0.1003  1.1680  0.9115
  578MOL0     N76214  -1.395  11.044  -0.044  0.8559 -0.7275  0.0425
  578MOL0     N76215  -1.283  11.105   0.005 -0.3390  0.3202  0.3300
  578MOL0     C76216  -0.154  10.995   0.381  0.3174 -0.0273  0.5304
  578MOL0     C76217  -0.015  11.015   0.357  0.8813  0.0358  1.2211
  578MOL0     C76218   0.451  10.943   0.411  0.1844  0.7004 -0.7260
  578MOL0     C76219   0.487  10.987   0.284  0.2323 -0.6777 -0.6020
  578MOL0     C76220   0.619  10.991   0.244  0.9903  0.1776 -0.3987
  578MOL0     C76221   0.728  10.962   0.326  0.0846  0.6149  0.4355
  578MOL0     O76222   0.862  10.957   0.297 -0.5360 -0.1497 -0.0991
  578MOL0     C76223   0.919  11.009   0.168  0.3277 -0.1611  0.4985
  578MOL0     C76224   1.060  11.058   0.165 -1.1792  0.1084  1.0825
  578MOL0     C76225   1.100  11.130   0.035 -0.4443  0.8514 -0.0593
  578MOL0     C76226   1.250  11.146   0.014  0.3236  0.3215 -0.2702
  578MOL0     C76227   1.281  11.203  -0.109 -0.0994 -0.6456  0.5296
  578MOL0     C76228   1.324  11.266  -0.208 -0.6689  0.3627  0.1470
  578MOL0     C76229   0.693  10.913   0.452 -0.1845  0.8762 -0.4897
  578MOL0     C76230   0.558  10.901   0.492 -0.5279  0.4683 -0.4097
  578MOL0     H76231   0.108  10.734   0.469  0.0444  0.2142  0.8449
  578MOL0     H76232  -0.131  10.681   0.506  0.5640  1.0881 -0.0523
  578MOL0     H76233  -0.412  11.028   0.439  0.7570 -1.2012 -0.9736
  578MOL0     H76234  -0.370  10.998   0.599 -2.4692  1.5033  0.4924
  578MOL0     H76235  -0.603  10.927   0.621 -0.2057  1.6730 -1.3114
  578MOL0     H76236  -0.537  10.780   0.573 -0.2407 -0.4275 -1.2922
  578MOL0     H76237  -0.601  10.838   0.323 -1.3303  2.3836 -1.0697
  578MOL0     H76238  -0.673  10.981   0.394 -1.2499 -0.3258 -2.9229
  578MOL0     H76239  -0.754  10.702   0.506  1.1893  0.6205  2.6178
  578MOL0     H76240  -0.814  10.852   0.547  0.8285  0.5538 -0.3715
  578MOL0     H76241  -0.931  10.703   0.337  1.6900 -1.4872 -2.0765
  578MOL0     H76242  -0.802  10.794   0.251  2.9144  1.7922  0.8569
  578MOL0     H76243  -0.875  11.003   0.304  0.0378 -0.3492 -0.2919
  578MOL0     H76244  -0.969  10.939   0.436  6.2663 -0.8672  2.4025
  578MOL0     H76245  -1.063  10.847   0.162  0.6919 -2.0383  1.8601
  578MOL0     H76246  -1.154  10.887   0.312  0.0426  1.3382  2.3407
  578MOL0     H76247  -1.049  11.104   0.127  0.9918  0.5722  0.6213
  578MOL0     H76248  -1.125  11.127   0.276  4.9212  0.8071  0.1398
  578MOL0     H76249  -1.346  10.859   0.218 -3.8837  0.3585 -1.0964
  578MOL0     H76250  -1.627  10.876   0.090  0.4640 -0.0748  0.6393
  578MOL0     H76251  -1.499  10.747   0.046  0.7529 -0.3406 -1.2171
  578MOL0     H76252  -1.540  10.799  -0.187  0.3362 -0.9062 -0.0854
  578MOL0     H76253  -1.672  10.915  -0.149 -0.1608  1.6034  1.3755
  578MOL0     H76254  -1.667  10.624  -0.058  0.2962  0.1507  1.5298
  578MOL0     H76255  -1.785  10.748  -0.022  1.7478 -1.1383  0.4121
  578MOL0     H76256  -1.735  10.619  -0.293 -0.8597  0.1259 -1.3472
  578MOL0     H76257  -1.822  10.772  -0.281 -1.4935 -0.6019  1.0476
  578MOL0     H76258  -2.131  10.500  -0.185  2.8620 -1.2060  0.7020
  578MOL0     H76259  -2.284  10.420  -0.367 -0.2607  0.0661  0.1929
  578MOL0     H76260  -2.582  10.280  -0.641 -1.5816  0.8450  2.3926
  578MOL0     H76261  -2.718  10.259  -0.848 -3.1816  2.2571 -0.9369
  578MOL0     H76262  -2.892  10.556  -0.884 -0.9481 -1.1663  1.5849
  578MOL0     H76263  -2.941  10.400  -0.942  0.4379  0.1202 -0.2790
  578MOL0     H76264  -2.932  10.630  -1.141 -1.1782  1.1996 -0.4949
  578MOL0     H76265  -3.060  10.565  -1.033  1.9346 -0.0168  3.3511
  578MOL0     H76266  -3.038  10.342  -1.139  0.9721  0.6165  1.5041
  578MOL0     H76267  -2.928  10.401  -1.247 -0.6217 -1.8181 -1.3466
  578MOL0     H76268  -3.206  10.532  -1.240  0.0788 -0.8428 -0.9236
  578MOL0     H76269  -3.082  10.550  -1.360  0.1435  0.3788  0.2549
  578MOL0     H76270  -3.200  10.280  -1.271 -0.7918 -2.1980 -3.3276
  578MOL0     H76271  -3.085  10.302  -1.393  1.4896 -0.7291  4.2114
  578MOL0     H76272  -3.323  10.465  -1.444  2.2964  1.2212 -0.1351
  578MOL0     H76273  -3.352  10.280  -1.430  2.0543 -0.1734  4.2063
  578MOL0     H76274  -3.194  10.242  -1.600 -3.5897 -1.0909  1.4114
  578MOL0     H76275  -3.333  10.321  -1.653  0.8713  0.1412 -0.8406
  578MOL0     H76276  -3.133  10.424  -1.760 -0.7406 -2.0728 -0.0022
  578MOL0     H76277  -3.055  10.428  -1.600 -1.2202  1.9418  4.1001
  578MOL0     H76278  -2.606  10.669  -0.943  3.0133  0.4568 -1.4130
  578MOL0     H76279  -2.442  10.675  -0.758  1.0666 -0.6786  0.9971
  578MOL0     H76280  -2.023  10.600  -0.658  3.9780 -1.3228  1.5381
  578MOL0     H76281  -1.875  10.657  -0.477  2.3519 -3.1307 -0.2988
  578MOL0     H76282  -0.224  11.075   0.359  3.5244  2.7727 -0.4420
  578MOL0     H76283   0.023  11.102   0.306  1.6768 -0.1618  1.4643
  578MOL0     H76284   0.413  11.034   0.221 -0.6069  2.1257  2.1917
  578MOL0     H76285   0.638  11.004   0.138  0.0439 -1.2737 -0.7672
  578MOL0     H76286   0.864  11.096   0.130  1.6177  0.4603  0.0035
  578MOL0     H76287   0.913  10.934   0.089 -0.1146 -0.4862  0.8308
  578MOL0     H76288   1.076  11.126   0.249 -0.2229  2.3547 -0.8037
  578MOL0     H76289   1.116  10.966   0.184 -1.0240  0.8495  5.1875
  578MOL0     H76290   1.042  11.223   0.035 -0.6636  0.7176  0.3884
  578MOL0     H76291   1.068  11.060  -0.043  0.4516  2.6029 -2.1068
  578MOL0     H76292   1.291  11.209   0.093 -2.9642  1.3720  0.7358
  578MOL0     H76293   1.305  11.052   0.023  1.2960  0.9605  0.7959
  578MOL0     H76294   1.372  11.309  -0.293  3.9015 -3.2948  0.5040
  578MOL0     H76295   0.761  10.867   0.523 -0.0721  1.8604  0.0622
  578MOL0     H76296   0.543  10.862   0.593 -2.0378  1.4090 -0.2367
  579MOL0     O76297   2.255   5.959   3.376  0.5502  0.1025  0.3433
  579MOL0     C76298   2.316   5.856   3.385  0.0259  0.2929  0.5319
  579MOL0     O76299   2.301   5.748   3.299  0.8536  0.1085  0.9046
  579MOL0     C76300   2.178   5.712   3.249  0.7289 -0.3805 -0.9525
  579MOL0     C76301   2.054   5.754   3.311  0.0061 -0.4830 -0.1598
  579MOL0     C76302   1.933   5.701   3.265 -1.1266 -0.2637 -0.3324
  579MOL0     C76303   1.936   5.595   3.168 -0.7355 -0.5812  0.2313
  579MOL0     O76304   1.833   5.540   3.103 -0.1365 -0.2643 -0.0588
  579MOL0     C76305   1.740   5.494   3.191 -0.3812  0.1293  0.6765
  579MOL0     C76306   1.649   5.407   3.110 -1.2747  0.0656  0.0983
  579MOL0     C76307   1.561   5.321   3.206  0.3253  0.6620 -0.2986
  579MOL0     C76308   1.446   5.246   3.121 -0.6448  0.6990 -0.5335
  579MOL0     C76309   1.357   5.166   3.225 -0.0052 -0.3106  0.7476
  579MOL0     C76310   1.256   5.082   3.158 -0.8605 -0.5555 -0.7445
  579MOL0     C76311   1.162   5.008   3.248  0.0284 -0.0330  0.4543
  579MOL0     C76312   1.039   4.963   3.174  0.5641  0.1962  0.2731
  579MOL0     N76313   0.944   4.913   3.275 -0.7177 -0.4038 -0.1968
  579MOL0     C76314   0.809   4.941   3.274 -0.1889  0.0011 -0.5864
  579MOL0     C76315   0.759   4.848   3.347 -0.3652 -0.6912 -0.6497
  579MOL0     C76316   0.607   4.852   3.372  0.0083 -0.1383  0.4253
  579MOL0     C76317   0.561   4.801   3.506 -0.4744  0.0623  0.5889
  579MOL0     C76318   0.603   4.906   3.615  0.3786 -0.6238  0.3413
  579MOL0     C76319   0.500   4.909   3.718 -0.7152 -0.5685 -0.3970
  579MOL0     O76320   0.545   5.006   3.819  0.5399 -0.0220  0.1207
  579MOL0     C76321   0.460   5.066   3.905  0.4213 -0.7438 -0.2636
  579MOL0     C76322   0.515   5.145   4.015  0.3149 -0.2604  0.3754
  579MOL0     C76323   0.435   5.226   4.095  1.3691 -0.8566 -0.6523
  579MOL0     C76324   0.290   5.221   4.086  0.1925  0.9779  0.1737
  579MOL0     C76325   0.207   5.298   4.189 -0.4131 -0.3297 -0.7767
  579MOL0     O76326   0.084   5.264   4.222  0.5436 -0.7765  0.2664
  579MOL0     C76327   0.007   5.329   4.322  0.9242  0.3601 -0.2206
  579MOL0     C76328   0.054   5.403   4.431 -0.5746 -0.2193  0.1567
  579MOL0     C76329  -0.031   5.481   4.509 -0.1658  0.0563 -0.0551
  579MOL0     C76330  -0.167   5.469   4.497 -1.3696 -0.2767 -0.1162
  579MOL0     O76331  -0.245   5.555   4.568 -0.3497 -0.4256  0.0548
  579MOL0     C76332  -0.365   5.600   4.515 -0.5478 -0.6305  0.3351
  579MOL0     C76333  -0.351   5.690   4.390  0.3976  0.8442  0.6477
  579MOL0     C76334  -0.487   5.769   4.378 -0.2441  0.1079  0.2223
  579MOL0     C76335  -0.612   5.683   4.351 -0.8455  0.2362  0.6081
  579MOL0     C76336  -0.734   5.749   4.281 -0.8687 -0.0881  0.1786
  579MOL0     C76337  -0.807   5.840   4.385  0.0415  0.0094  0.2492
  579MOL0     C76338  -0.931   5.904   4.320  0.0637 -1.1158  0.1773
  579MOL0     C76339  -1.017   5.975   4.422  0.9990 -0.0910  0.2614
  579MOL0    Cl76340  -1.179   6.000   4.347 -0.0162  0.2727 -0.0541
  579MOL0     C76341  -0.213   5.376   4.398  0.4527 -0.6005 -0.4559
  579MOL0     C76342  -0.129   5.304   4.309 -0.4593  0.4289 -0.2885
  579MOL0     O76343   0.258   5.408   4.216  0.5976 -0.0704 -0.1735
  579MOL0     C76344   0.234   5.144   3.982  0.5063 -0.0980 -0.4064
  579MOL0     C76345   0.319   5.071   3.892  0.5122  0.3100 -0.2292
  579MOL0     N76346   0.857   4.772   3.398 -0.4110  0.6067 -0.2623
  579MOL0     N76347   0.977   4.805   3.355  0.8644  0.0165  0.7124
  579MOL0     C76348   2.057   5.553   3.124  0.0526  0.9327  0.2522
  579MOL0     C76349   2.175   5.611   3.153 -1.1587  0.3142 -0.3366
  579MOL0     C76350   2.423   5.837   3.489 -0.0732  0.0732 -0.3538
  579MOL0     C76351   2.424   5.913   3.603 -0.4793 -0.7517 -0.1342
  579MOL0     C76352   2.536   5.911   3.686 -0.2626 -0.5653  0.1840
  579MOL0     C76353   2.649   5.835   3.657  0.4443 -0.4383 -0.2482
  579MOL0     O76354   2.767   5.832   3.732  0.1903  0.2116 -0.4477
  579MOL0     C76355   2.770   5.900   3.855  0.0586 -0.1477  0.0902
  579MOL0     C76356   2.788   6.051   3.828 -0.0415  0.2034 -0.1034
  579MOL0     C76357   2.744   6.146   3.943 -0.2707  0.0872 -0.1944
  579MOL0     C76358   2.834   6.149   4.072 -0.1929 -0.0529 -0.4424
  579MOL0     C76359   2.954   6.223   4.046  0.0516  0.1301  0.5961
  579MOL0     C76360   3.056   6.288   4.028 -0.6133 -0.7915 -0.1019
  579MOL0     C76361   2.642   5.753   3.540  0.3522 -1.1657 -0.8319
  579MOL0     C76362   2.526   5.752   3.462  0.2885  0.3188  0.7365
  579MOL0     H76363   2.055   5.824   3.394  0.9656  1.2123 -1.5218
  579MOL0     H76364   1.843   5.733   3.318 -1.7700 -2.6063  0.1130
  579MOL0     H76365   1.672   5.566   3.238 -3.1818 -1.4503 -0.7190
  579MOL0     H76366   1.793   5.431   3.263  3.1863 -1.3657 -2.8735
  579MOL0     H76367   1.711   5.338   3.053 -1.1753 -0.2555  0.5903
  579MOL0     H76368   1.590   5.469   3.042  2.6145  1.3044 -2.4737
  579MOL0     H76369   1.504   5.399   3.257 -0.2602  2.3149 -3.2573
  579MOL0     H76370   1.612   5.248   3.270 -0.5022 -0.5997 -1.0217
  579MOL0     H76371   1.396   5.316   3.054  2.2441  0.3673 -3.3399
  579MOL0     H76372   1.501   5.182   3.050  1.1204  1.5345  0.0375
  579MOL0     H76373   1.300   5.231   3.292 -0.5072 -1.1972  1.2014
  579MOL0     H76374   1.423   5.111   3.293  1.6372  1.3249  0.5525
  579MOL0     H76375   1.315   5.020   3.091  0.1861  0.4793 -0.8153
  579MOL0     H76376   1.205   5.151   3.091 -0.2420  1.6192  0.8971
  579MOL0     H76377   1.210   4.921   3.294  0.4818  0.6570  1.3049
  579MOL0     H76378   1.127   5.075   3.327 -0.7434  1.6439 -1.2258
  579MOL0     H76379   1.065   4.883   3.105  3.4909  2.6161 -1.6963
  579MOL0     H76380   0.991   5.042   3.115 -1.6988 -3.8199 -3.9099
  579MOL0     H76381   0.767   5.024   3.218 -2.8744 -1.6913 -1.3163
  579MOL0     H76382   0.563   4.787   3.295 -1.5689 -0.2437  1.3825
  579MOL0     H76383   0.570   4.953   3.354 -1.0975 -0.7098 -0.6597
  579MOL0     H76384   0.615   4.708   3.529  2.7588  1.1741 -1.7801
  579MOL0     H76385   0.454   4.781   3.494 -0.2623  0.0255 -1.5505
  579MOL0     H76386   0.703   4.894   3.658  1.2578  0.3848 -1.3112
  579MOL0     H76387   0.586   5.008   3.581 -0.5853 -1.1003 -0.6684
  579MOL0     H76388   0.491   4.809   3.762  0.4786 -0.6101 -0.2086
  579MOL0     H76389   0.413   4.940   3.659 -1.5257 -1.1787  0.4548
  579MOL0     H76390   0.620   5.173   4.017  0.0421  0.9243  3.8721
  579MOL0     H76391   0.481   5.282   4.174  1.6216 -2.1837  0.1710
  579MOL0     H76392   0.161   5.419   4.432 -0.3076 -1.7181 -0.6691
  579MOL0     H76393   0.024   5.562   4.557 -0.2423 -0.1444  0.3779
  579MOL0     H76394  -0.411   5.660   4.595 -2.7162  1.3512 -2.2063
  579MOL0     H76395  -0.431   5.513   4.506 -0.7804 -0.4964  0.7016
  579MOL0     H76396  -0.326   5.630   4.302 -1.0512 -1.2815  1.5870
  579MOL0     H76397  -0.268   5.761   4.403  3.2564 -2.1833  0.3864
  579MOL0     H76398  -0.481   5.840   4.294  1.7047 -0.4978 -0.2020
  579MOL0     H76399  -0.497   5.831   4.468 -0.7898  0.6586 -0.2095
  579MOL0     H76400  -0.586   5.588   4.305 -2.9646  0.5001 -1.3119
  579MOL0     H76401  -0.646   5.646   4.448  0.6355  0.2281  1.1364
  579MOL0     H76402  -0.801   5.665   4.262 -0.5881 -0.0760 -0.9336
  579MOL0     H76403  -0.708   5.815   4.197 -1.9118  0.4584  0.2663
  579MOL0     H76404  -0.740   5.923   4.408  0.2478  0.0227 -0.3568
  579MOL0     H76405  -0.832   5.775   4.469  0.4435  0.3659  0.6467
  579MOL0     H76406  -0.904   5.973   4.240 -0.0086  0.3837  1.3808
  579MOL0     H76407  -0.988   5.814   4.293  0.6928 -1.3923 -0.2464
  579MOL0     H76408  -0.993   6.076   4.457 -3.8886  2.5472 -2.8594
  579MOL0     H76409  -1.025   5.908   4.508  0.2930  0.0256  0.2920
  579MOL0     H76410  -0.321   5.371   4.391  0.4582 -1.6980  0.0647
  579MOL0     H76411  -0.154   5.233   4.231 -1.3610  2.4023 -1.8898
  579MOL0     H76412   0.125   5.147   3.982  0.4896  2.7423 -2.4767
  579MOL0     H76413   0.267   5.009   3.820 -1.2820  1.5401 -0.0646
  579MOL0     H76414   2.052   5.487   3.038 -0.4941 -0.6713  1.4681
  579MOL0     H76415   2.265   5.587   3.098 -2.5831 -2.1637 -1.7929
  579MOL0     H76416   2.337   5.972   3.631 -0.3007  0.0906 -1.2717
  579MOL0     H76417   2.526   5.973   3.775 -0.3407  1.7369 -1.3267
  579MOL0     H76418   2.850   5.868   3.923 -0.1277  1.0246  0.8924
  579MOL0     H76419   2.678   5.867   3.903 -1.0699  0.4023 -1.6215
  579MOL0     H76420   2.894   6.068   3.806 -0.3140 -0.6069 -2.3038
  579MOL0     H76421   2.730   6.079   3.739  0.2955 -0.0055 -0.3902
  579MOL0     H76422   2.637   6.125   3.958  0.4279 -4.2505  0.0633
  579MOL0     H76423   2.744   6.246   3.898 -1.4094  0.5515  0.7805
  579MOL0     H76424   2.770   6.208   4.138  0.8338 -0.0047  0.5335
  579MOL0     H76425   2.853   6.049   4.110 -1.1512 -0.0390  0.0784
  579MOL0     H76426   3.138   6.350   3.998  0.2106 -2.4291 -1.4280
  579MOL0     H76427   2.734   5.705   3.509  2.0726  3.1907 -3.4758
  579MOL0     H76428   2.532   5.689   3.374  3.3158  1.3154  0.1155
  580MOL0     O76429  10.852   2.023   6.926 -0.1945  0.3760  0.1829
  580MOL0     C76430  10.868   1.907   6.883 -0.1744 -0.1246  0.0734
  580MOL0     O76431  10.777   1.824   6.828  0.6361 -0.0193  0.5910
  580MOL0     C76432  10.653   1.856   6.780 -0.1251  0.3968  0.2012
  580MOL0     C76433  10.629   1.982   6.716  0.2196 -0.6696  0.3662
  580MOL0     C76434  10.506   2.006   6.648 -1.2406  0.0038  0.1866
  580MOL0     C76435  10.401   1.913   6.665  0.1778 -0.5927  1.1964
  580MOL0     O76436  10.273   1.925   6.612 -0.0438 -0.3871  0.2810
  580MOL0     C76437  10.201   2.033   6.673  0.4696 -0.3475 -0.5704
  580MOL0     C76438  10.186   2.016   6.821  0.0259  1.1221  0.4869
  580MOL0     C76439  10.074   1.924   6.851  0.3726 -0.9457 -0.0022
  580MOL0     C76440  10.041   1.929   7.004  0.8858 -0.4299  0.4753
  580MOL0     C76441   9.966   2.056   7.054 -0.0112 -0.7662  0.2650
  580MOL0     C76442   9.965   2.070   7.216 -0.1798 -0.5736 -0.3133
  580MOL0     C76443   9.906   2.211   7.258  0.0191 -0.8534  0.3703
  580MOL0     C76444   9.990   2.331   7.217 -0.0846  0.1049  1.1582
  580MOL0     N76445   9.932   2.446   7.284 -0.5820  0.6714  0.3072
  580MOL0     C76446   9.805   2.501   7.264 -1.1495  1.5941  0.7139
  580MOL0     C76447   9.787   2.574   7.378 -0.9337  0.5561  0.4350
  580MOL0     C76448   9.660   2.659   7.391  0.7075 -0.5617 -0.1516
  580MOL0     C76449   9.554   2.568   7.458 -0.8879 -0.5682  0.1223
  580MOL0     C76450   9.414   2.630   7.480  1.2382 -0.2276  0.0580
  580MOL0     C76451   9.284   2.536   7.472  0.6391  0.1590  0.6000
  580MOL0     O76452   9.243   2.519   7.330 -0.6377 -0.1569 -0.5028
  580MOL0     C76453   9.143   2.433   7.303 -0.1446 -0.0028  0.6998
  580MOL0     C76454   9.055   2.371   7.390 -0.3484 -1.2314 -0.7303
  580MOL0     C76455   8.973   2.271   7.347  0.6964  0.7838  0.5006
  580MOL0     C76456   8.970   2.229   7.209 -0.0995  0.9705  0.1681
  580MOL0     C76457   8.879   2.122   7.166 -0.8769  1.2573  0.3897
  580MOL0     O76458   8.821   2.045   7.259  0.2625  0.1686 -0.2778
  580MOL0     C76459   8.732   1.946   7.232 -0.4194  0.1842  0.5751
  580MOL0     C76460   8.755   1.834   7.143  0.8342  0.7976  0.3449
  580MOL0     C76461   8.637   1.753   7.109  0.1468  0.2831  1.0432
  580MOL0     C76462   8.522   1.766   7.184  0.1315  0.2462 -0.1182
  580MOL0     O76463   8.409   1.690   7.161 -0.1453  0.0310 -0.1329
  580MOL0     C76464   8.431   1.547   7.180  0.2493  0.4534 -0.4906
  580MOL0     C76465   8.310   1.468   7.211 -0.3158  0.3674 -1.1420
  580MOL0     C76466   8.200   1.529   7.300 -0.6346  1.0519  0.3269
  580MOL0     C76467   8.109   1.409   7.339 -0.5283  0.0044 -0.7783
  580MOL0     C76468   7.992   1.467   7.424  1.8926  0.6501  0.2654
  580MOL0     C76469   7.895   1.559   7.340  0.1435 -0.6544 -0.2882
  580MOL0     C76470   7.807   1.499   7.234  0.5377  0.2537 -0.6661
  580MOL0     C76471   7.703   1.396   7.287  0.7239  0.4873  0.1505
  580MOL0    Cl76472   7.610   1.327   7.148  0.2914 -0.3551  0.2901
  580MOL0     C76473   8.508   1.873   7.273 -0.5392 -0.0640  0.1880
  580MOL0     C76474   8.612   1.966   7.292  0.5385  0.4387 -0.7146
  580MOL0     O76475   8.880   2.102   7.045  0.1936 -0.3876  0.2566
  580MOL0     C76476   9.066   2.290   7.125 -0.2503  0.2042 -0.4266
  580MOL0     C76477   9.154   2.393   7.168  0.6053 -0.0604  0.4006
  580MOL0     N76478   9.897   2.557   7.461  0.4951 -0.3131 -1.1408
  580MOL0     N76479   9.977   2.486   7.409 -0.2511  0.4214  0.1568
  580MOL0     C76480  10.423   1.784   6.723 -0.9458 -0.0894 -0.1792
  580MOL0     C76481  10.548   1.752   6.779  1.2944  0.2589  0.2945
  580MOL0     C76482  11.001   1.844   6.911  0.6350  0.7828 -0.0323
  580MOL0     C76483  11.016   1.703   6.908 -0.2824  0.7187  0.0682
  580MOL0     C76484  11.137   1.638   6.940 -0.4474  0.1628 -0.5427
  580MOL0     C76485  11.247   1.718   6.977 -0.0345  0.3673 -0.0834
  580MOL0     O76486  11.362   1.648   6.992 -0.4151  1.2017  0.7759
  580MOL0     C76487  11.478   1.709   7.053 -0.2373  0.8842  1.2757
  580MOL0     C76488  11.581   1.605   7.069 -0.5126  0.6186 -0.2113
  580MOL0     C76489  11.702   1.607   6.967 -0.2451 -0.3952 -0.7615
  580MOL0     C76490  11.715   1.478   6.887 -0.3677 -0.5618 -0.4077
  580MOL0     C76491  11.617   1.496   6.785 -0.8132 -0.0529  0.3064
  580MOL0     C76492  11.525   1.501   6.705 -1.1289  1.0481  0.5995
  580MOL0     C76493  11.234   1.860   6.985  0.7728 -0.7214 -0.0390
  580MOL0     C76494  11.109   1.920   6.955 -0.5812  0.2261 -0.2885
  580MOL0     H76495  10.689   2.071   6.726  1.5238 -1.4238 -0.5309
  580MOL0     H76496  10.496   2.093   6.584  0.2006 -2.9322 -4.4794
  580MOL0     H76497  10.102   2.032   6.625  0.2821  2.4404 -0.3963
  580MOL0     H76498  10.232   2.135   6.650 -0.2937  0.3089  1.1666
  580MOL0     H76499  10.174   2.115   6.867 -2.5023  1.8826 -1.5477
  580MOL0     H76500  10.274   1.972   6.868  1.5469  0.6523 -2.5609
  580MOL0     H76501  10.092   1.820   6.824  3.1836 -0.5459  0.0157
  580MOL0     H76502   9.974   1.960   6.823  1.5074  1.9906 -0.7273
  580MOL0     H76503   9.981   1.843   7.034 -1.2905  0.3260 -1.3757
  580MOL0     H76504  10.133   1.931   7.063  1.1724  1.8302  0.0678
  580MOL0     H76505   9.865   2.050   7.012  1.6216  1.3168 -4.8168
  580MOL0     H76506  10.001   2.147   7.004 -0.1660 -0.8832 -0.0611
  580MOL0     H76507  10.071   2.069   7.243  0.8000  2.5930 -3.3277
  580MOL0     H76508   9.910   1.983   7.254 -2.2397  0.8702  0.1586
  580MOL0     H76509   9.802   2.217   7.226 -1.2615  0.2876  4.1751
  580MOL0     H76510   9.883   2.211   7.365 -1.0342  2.5490  0.2358
  580MOL0     H76511   9.973   2.345   7.110  0.5508  0.3446  1.0845
  580MOL0     H76512  10.094   2.310   7.242  0.9339  4.3727  1.3301
  580MOL0     H76513   9.734   2.496   7.182 -1.4691  0.8475  1.0280
  580MOL0     H76514   9.622   2.676   7.289 -1.8009 -2.8428  0.2867
  580MOL0     H76515   9.679   2.757   7.434 -0.2537  1.5702 -4.0884
  580MOL0     H76516   9.594   2.546   7.558 -1.5782 -1.8853  0.1252
  580MOL0     H76517   9.531   2.477   7.402  1.2211 -1.4938  0.6777
  580MOL0     H76518   9.411   2.692   7.570  3.3920 -0.9905  0.7261
  580MOL0     H76519   9.406   2.695   7.392 -1.6944  0.7005  0.9141
  580MOL0     H76520   9.201   2.585   7.524 -0.6352  0.5915 -1.7140
  580MOL0     H76521   9.308   2.438   7.515  0.7191 -1.6048 -3.0973
  580MOL0     H76522   9.036   2.404   7.491  0.2036 -1.1925 -0.6396
  580MOL0     H76523   8.901   2.233   7.418 -1.4545 -0.7943 -2.2866
  580MOL0     H76524   8.855   1.829   7.101  1.0427  0.0773  0.9126
  580MOL0     H76525   8.637   1.677   7.032 -1.6561 -0.3898  1.6514
  580MOL0     H76526   8.495   1.550   7.269 -0.5614 -1.2680  0.1989
  580MOL0     H76527   8.494   1.512   7.097  1.2123 -0.1126  0.4515
  580MOL0     H76528   8.357   1.378   7.252  1.2491  1.6767  0.0792
  580MOL0     H76529   8.266   1.449   7.113 -1.5592  0.1439 -0.5640
  580MOL0     H76530   8.148   1.610   7.248  1.7102  0.9885 -2.3804
  580MOL0     H76531   8.242   1.575   7.390 -3.2618  1.1450  1.5840
  580MOL0     H76532   8.063   1.371   7.248 -0.5870  0.2727 -0.8613
  580MOL0     H76533   8.162   1.334   7.399  0.6706  0.4643 -1.2391
  580MOL0     H76534   8.023   1.524   7.512  1.3950  1.6593 -0.1963
  580MOL0     H76535   7.944   1.380   7.469  2.2457 -0.0924 -0.7593
  580MOL0     H76536   7.952   1.643   7.301  1.1639 -0.3394  1.7408
  580MOL0     H76537   7.827   1.601   7.415 -1.2040 -0.8914 -1.3233
  580MOL0     H76538   7.753   1.590   7.204 -0.2829 -0.7829 -2.4725
  580MOL0     H76539   7.869   1.457   7.155 -0.8538 -1.8363 -0.7233
  580MOL0     H76540   7.619   1.434   7.344 -0.5483 -2.6460  0.5855
  580MOL0     H76541   7.746   1.313   7.345 -3.7868 -1.3724  1.2323
  580MOL0     H76542   8.421   1.887   7.336 -0.4368  0.6704  0.1795
  580MOL0     H76543   8.586   2.050   7.356  0.9824 -0.2300  0.3679
  580MOL0     H76544   9.079   2.277   7.018  0.2289  0.4067 -0.3945
  580MOL0     H76545   9.216   2.443   7.094 -1.2172 -1.7757 -2.4458
  580MOL0     H76546  10.346   1.709   6.736  0.0054 -1.1347 -0.4834
  580MOL0     H76547  10.570   1.651   6.812 -0.5890 -1.1565 -2.4279
  580MOL0     H76548  10.939   1.640   6.864  0.4464 -0.8104  0.9019
  580MOL0     H76549  11.155   1.531   6.929  1.0358  0.2001  1.0366
  580MOL0     H76550  11.446   1.739   7.153  0.6121 -2.2332  2.6020
  580MOL0     H76551  11.512   1.788   6.985 -1.7023 -0.7072 -1.5084
  580MOL0     H76552  11.623   1.607   7.170  0.2565 -2.0652 -0.3930
  580MOL0     H76553  11.536   1.505   7.076 -0.8655  0.8512  5.7682
  580MOL0     H76554  11.787   1.615   7.035 -0.4462 -2.4116 -0.2073
  580MOL0     H76555  11.699   1.700   6.909  1.1995  0.0872 -0.1067
  580MOL0     H76556  11.820   1.476   6.854  0.2893 -0.1908  1.5389
  580MOL0     H76557  11.702   1.396   6.958 -1.3407 -1.4631 -1.5914
  580MOL0     H76558  11.442   1.523   6.641 -0.2048 -0.4620 -1.2002
  580MOL0     H76559  11.318   1.929   6.991  0.3930 -0.3272  1.0666
  580MOL0     H76560  11.100   2.028   6.961 -3.8276  0.0047  0.3201
  581MOL0     O76561  10.200   3.765  10.930 -0.5796  0.3407  0.7256
  581MOL0     C76562  10.297   3.841  10.941 -0.5212  0.5251 -0.2148
  581MOL0     O76563  10.319   3.951  10.869 -0.3115 -0.4966  0.2697
  581MOL0     C76564  10.205   3.999  10.803  1.7391 -0.2833 -0.1406
  581MOL0     C76565  10.096   4.032  10.891  0.2434  0.2857 -0.6965
  581MOL0     C76566   9.979   4.086  10.833 -0.1900  0.7904 -0.7989
  581MOL0     C76567   9.975   4.115  10.700 -0.5960  0.0127 -0.1622
  581MOL0     O76568   9.870   4.173  10.628 -0.6212  0.0903  0.4837
  581MOL0     C76569   9.737   4.210  10.674  1.1254  0.0665 -1.1175
  581MOL0     C76570   9.660   4.090  10.717  0.1643  0.4496 -0.0562
  581MOL0     C76571   9.539   4.119  10.794  0.0388 -0.0342 -0.2933
  581MOL0     C76572   9.430   4.000  10.779 -0.7394 -0.0860 -0.6610
  581MOL0     C76573   9.361   3.981  10.644 -0.3754  0.7278 -0.1881
  581MOL0     C76574   9.291   3.850  10.645  0.1896  0.2435  0.1712
  581MOL0     C76575   9.206   3.847  10.515  0.3606  0.4325 -0.5495
  581MOL0     C76576   9.135   3.715  10.506 -0.2013  0.0488 -0.1789
  581MOL0     N76577   9.103   3.674  10.367  0.1323  0.4386  0.6237
  581MOL0     C76578   8.989   3.616  10.325  0.0409  0.0872 -0.2206
  581MOL0     C76579   8.989   3.619  10.194 -0.0136 -1.2197  0.5572
  581MOL0     C76580   8.878   3.572  10.103  0.4591  0.4626  0.0350
  581MOL0     C76581   8.777   3.675  10.072 -0.2696 -0.2090 -0.4856
  581MOL0     C76582   8.659   3.622   9.998  0.4430 -0.0421  0.1634
  581MOL0     C76583   8.560   3.744   9.975 -0.0775 -0.0173 -0.2722
  581MOL0     O76584   8.611   3.854   9.890 -0.1407  0.7913 -0.7081
  581MOL0     C76585   8.602   3.824   9.751 -0.1395  0.4360  0.3307
  581MOL0     C76586   8.724   3.803   9.680  0.0399  0.1690  0.4773
  581MOL0     C76587   8.728   3.751   9.558  1.0533  0.2387  0.9547
  581MOL0     C76588   8.609   3.729   9.492 -0.1678 -0.1990  1.3101
  581MOL0     C76589   8.604   3.688   9.347 -1.1196  0.6138 -0.0882
  581MOL0     O76590   8.490   3.708   9.273  0.3512 -0.1823  0.2990
  581MOL0     C76591   8.502   3.721   9.143  0.2490 -0.3021  0.4896
  581MOL0     C76592   8.414   3.660   9.052  0.0908 -0.4407  1.2126
  581MOL0     C76593   8.438   3.662   8.911  0.6785 -0.7312 -0.5846
  581MOL0     C76594   8.552   3.711   8.862 -0.2996 -1.2237  0.4033
  581MOL0     O76595   8.596   3.684   8.734 -0.1246  0.6475 -0.4685
  581MOL0     C76596   8.727   3.720   8.686  0.0699 -0.1930 -0.1862
  581MOL0     C76597   8.744   3.677   8.535  0.4602 -0.3389  0.4494
  581MOL0     C76598   8.644   3.741   8.437  0.2513  0.0237 -0.7351
  581MOL0     C76599   8.687   3.727   8.293  0.2251 -0.0382 -0.1042
  581MOL0     C76600   8.597   3.806   8.212  0.1385  0.2912 -0.0237
  581MOL0     C76601   8.465   3.735   8.174 -0.5960  0.3224  0.5507
  581MOL0     C76602   8.402   3.808   8.054 -0.2613  0.4632  0.0396
  581MOL0     C76603   8.352   3.955   8.074 -0.6479 -0.1041  0.0317
  581MOL0    Cl76604   8.216   3.969   8.183  0.0462  0.2575  0.1380
  581MOL0     C76605   8.636   3.786   8.954 -0.0147 -0.6436 -0.1212
  581MOL0     C76606   8.604   3.794   9.089  0.2507  0.3223 -0.1339
  581MOL0     O76607   8.705   3.637   9.300 -0.0554 -0.3338 -1.1156
  581MOL0     C76608   8.489   3.762   9.551  0.5456  0.2368 -0.6536
  581MOL0     C76609   8.486   3.809   9.687  0.1890  0.9335  0.3236
  581MOL0     N76610   9.100   3.696  10.155  0.1159  0.0404 -0.4150
  581MOL0     N76611   9.179   3.710  10.255 -0.0641 -0.2235 -0.7726
  581MOL0     C76612  10.088   4.092  10.615  0.5360  0.4555  0.3351
  581MOL0     C76613  10.201   4.028  10.669 -0.1773 -0.3605  0.0600
  581MOL0     C76614  10.413   3.791  11.023 -0.2314 -0.1461  0.8523
  581MOL0     C76615  10.532   3.862  11.020 -0.8977  0.9758 -0.2478
  581MOL0     C76616  10.653   3.826  11.089 -0.4061 -0.3582  1.1393
  581MOL0     C76617  10.647   3.710  11.165  0.0893  0.8732  0.3634
  581MOL0     O76618  10.740   3.652  11.248  0.1653  0.0241 -0.8047
  581MOL0     C76619  10.855   3.726  11.281  0.4842 -0.8958 -0.1409
  581MOL0     C76620  10.845   3.853  11.369  0.4118 -0.7996 -0.4654
  581MOL0     C76621  10.983   3.893  11.425 -0.6028  0.1657  0.5130
  581MOL0     C76622  11.080   3.940  11.315  0.6010  0.1953  0.0976
  581MOL0     C76623  11.172   3.837  11.262  0.1082 -0.1118  0.3908
  581MOL0     C76624  11.228   3.746  11.211 -0.1108 -0.5366  0.3283
  581MOL0     C76625  10.524   3.646  11.174  1.0095 -0.4618 -0.6320
  581MOL0     C76626  10.408   3.682  11.106  0.4545  0.1918  0.1300
  581MOL0     H76627  10.102   4.014  10.998  2.1597 -2.6381 -1.1884
  581MOL0     H76628   9.906   4.109  10.910  3.1824 -2.6709  4.0302
  581MOL0     H76629   9.674   4.256  10.597 -0.0523 -0.1326 -0.2969
  581MOL0     H76630   9.754   4.270  10.765  1.2698 -1.3537 -0.1764
  581MOL0     H76631   9.729   4.017  10.759  0.3345 -1.4229 -3.2526
  581MOL0     H76632   9.620   4.039  10.629 -2.4659 -0.3798  1.5215
  581MOL0     H76633   9.489   4.214  10.775  1.1847  0.4636 -0.9437
  581MOL0     H76634   9.572   4.132  10.897 -1.9877  0.8083  0.2884
  581MOL0     H76635   9.480   3.904  10.798 -0.1681 -0.0090 -1.6963
  581MOL0     H76636   9.361   4.009  10.864 -0.0639 -1.0428  0.0172
  581MOL0     H76637   9.432   3.991  10.562 -0.4791  0.8351 -0.2663
  581MOL0     H76638   9.283   4.056  10.627 -1.6180 -0.2871  0.7989
  581MOL0     H76639   9.229   3.829  10.733 -0.3398  0.8266 -0.0603
  581MOL0     H76640   9.370   3.775  10.647 -2.2512 -2.5458  2.6961
  581MOL0     H76641   9.134   3.928  10.525 -0.9494 -0.8805  1.6438
  581MOL0     H76642   9.282   3.852  10.437  1.2124 -0.2244  0.2058
  581MOL0     H76643   9.036   3.724  10.550 -0.0157 -0.2601  0.3047
  581MOL0     H76644   9.197   3.640  10.555 -1.9181  0.3603  2.6586
  581MOL0     H76645   8.904   3.584  10.384 -0.7928 -1.1112 -1.9866
  581MOL0     H76646   8.829   3.480  10.136 -1.2532  1.5205  0.5719
  581MOL0     H76647   8.909   3.554  10.000 -1.9897 -1.0853 -0.4999
  581MOL0     H76648   8.820   3.768  10.036 -0.6245  0.9323  1.8400
  581MOL0     H76649   8.732   3.702  10.168 -0.3268  0.1169 -0.6046
  581MOL0     H76650   8.691   3.581   9.902  1.0137  0.4489  0.1412
  581MOL0     H76651   8.592   3.554  10.052  1.5795 -0.7498  0.7118
  581MOL0     H76652   8.530   3.787  10.072  1.1600  1.8781 -0.6682
  581MOL0     H76653   8.478   3.686   9.930  1.1739 -4.7728  2.8153
  581MOL0     H76654   8.811   3.819   9.743  0.4910 -0.4689  0.0306
  581MOL0     H76655   8.820   3.729   9.506 -0.2286  0.5456 -1.5991
  581MOL0     H76656   8.316   3.622   9.081 -0.1880  1.1465  2.4791
  581MOL0     H76657   8.370   3.615   8.841  0.4164 -1.2220 -0.0105
  581MOL0     H76658   8.802   3.655   8.734 -0.9166 -2.4662 -1.5625
  581MOL0     H76659   8.736   3.825   8.715 -0.6851 -0.0128 -0.5895
  581MOL0     H76660   8.741   3.568   8.529  0.9125 -0.3296 -0.0388
  581MOL0     H76661   8.839   3.716   8.497 -0.1856  0.2703 -0.5954
  581MOL0     H76662   8.635   3.846   8.468 -3.0691 -0.5276  0.6674
  581MOL0     H76663   8.543   3.700   8.450 -0.2961  1.3933 -0.4063
  581MOL0     H76664   8.790   3.761   8.280  0.7843 -0.1858  3.0771
  581MOL0     H76665   8.688   3.621   8.265  1.3572  0.5653 -2.6709
  581MOL0     H76666   8.656   3.842   8.127 -0.9374 -0.8410 -1.3154
  581MOL0     H76667   8.570   3.898   8.266 -1.8748 -0.8080  0.9624
  581MOL0     H76668   8.393   3.738   8.256 -0.7134  1.1453  0.4220
  581MOL0     H76669   8.478   3.631   8.143  0.9375  1.0867 -1.5556
  581MOL0     H76670   8.459   3.794   7.962  0.1291  0.6627  0.2468
  581MOL0     H76671   8.314   3.747   8.034  1.2620 -1.5586 -0.8507
  581MOL0     H76672   8.320   3.999   7.979  0.4223  1.0641  0.1755
  581MOL0     H76673   8.438   4.015   8.105 -0.1636  0.3036 -1.9364
  581MOL0     H76674   8.722   3.844   8.922  1.2323 -2.6072 -0.4691
  581MOL0     H76675   8.681   3.844   9.146  3.8956 -2.6747 -1.9490
  581MOL0     H76676   8.394   3.734   9.506 -0.7395 -1.7871  2.9287
  581MOL0     H76677   8.393   3.839   9.733 -1.5176  0.4496 -2.6029
  581MOL0     H76678  10.084   4.112  10.508  1.9645 -3.0124 -0.5030
  581MOL0     H76679  10.279   3.995  10.601 -1.5000  0.8524 -2.1887
  581MOL0     H76680  10.543   3.950  10.957  1.8675  0.3228 -0.7851
  581MOL0     H76681  10.753   3.855  11.057  0.1736 -4.8175 -2.0689
  581MOL0     H76682  10.909   3.736  11.187  0.6112 -4.0503 -0.5250
  581MOL0     H76683  10.920   3.665  11.345  0.7273  0.8397  1.3673
  581MOL0     H76684  10.796   3.935  11.315 -0.2539 -1.1473 -0.3958
  581MOL0     H76685  10.777   3.825  11.450 -1.4035 -2.4239 -2.4431
  581MOL0     H76686  11.021   3.807  11.480 -3.8799 -1.4767  0.4499
  581MOL0     H76687  10.971   3.971  11.500 -1.6246 -1.3716  2.0283
  581MOL0     H76688  11.028   3.985  11.230  0.5644 -1.0928 -0.6003
  581MOL0     H76689  11.135   4.022  11.361 -0.5741  0.7147  0.5930
  581MOL0     H76690  11.293   3.669  11.175  0.3103 -1.8092  3.5034
  581MOL0     H76691  10.531   3.566  11.247 -2.9110 -0.1996  0.2670
  581MOL0     H76692  10.312   3.631  11.112  0.2733  0.6297  1.2698
  582MOL0     O76693   8.398   4.122   1.863  0.1014 -0.1981 -0.4188
  582MOL0     C76694   8.473   4.026   1.832  0.0664  0.7333 -0.1256
  582MOL0     O76695   8.426   3.902   1.790  0.4465  0.1074 -0.9136
  582MOL0     C76696   8.295   3.885   1.747  0.7076 -0.6326 -0.3097
  582MOL0     C76697   8.279   3.905   1.614 -0.3253  0.9297 -0.0073
  582MOL0     C76698   8.154   3.902   1.551  0.2646 -0.1282  0.5291
  582MOL0     C76699   8.040   3.884   1.639  0.8173 -0.2569 -0.0489
  582MOL0     O76700   7.905   3.893   1.599 -0.0715  0.4840  0.2090
  582MOL0     C76701   7.881   3.819   1.475  0.0594 -0.3946  0.5714
  582MOL0     C76702   7.745   3.747   1.496 -0.9234 -0.0563 -0.4292
  582MOL0     C76703   7.773   3.613   1.572  0.6196 -0.2414 -0.2344
  582MOL0     C76704   7.640   3.540   1.586  0.6991 -0.2152  0.4780
  582MOL0     C76705   7.629   3.408   1.649 -0.2692 -0.5098 -1.1674
  582MOL0     C76706   7.673   3.312   1.549 -0.0763  0.8623 -0.9758
  582MOL0     C76707   7.733   3.185   1.621  0.6231  0.0363  0.7857
  582MOL0     C76708   7.869   3.212   1.700 -0.1332 -0.3691 -0.1070
  582MOL0     N76709   7.948   3.087   1.690 -0.0069  0.5062 -0.4126
  582MOL0     C76710   7.983   3.005   1.798 -0.1111 -0.4136  0.2216
  582MOL0     C76711   8.072   2.916   1.742  0.3587 -0.9680 -0.8804
  582MOL0     C76712   8.133   2.800   1.806 -0.2148  0.1245 -0.0767
  582MOL0     C76713   8.279   2.825   1.846  0.0652  0.0106  0.2435
  582MOL0     C76714   8.328   2.697   1.920  0.3512  0.0831 -0.1235
  582MOL0     C76715   8.469   2.713   1.974  0.4444 -0.8983 -0.0561
  582MOL0     O76716   8.517   2.601   2.050 -0.2320 -0.1037  0.4281
  582MOL0     C76717   8.634   2.613   2.119  1.1521 -0.3300  0.0260
  582MOL0     C76718   8.680   2.497   2.178 -0.4267  0.3326 -0.2813
  582MOL0     C76719   8.796   2.485   2.245  0.7857  0.3766  0.1826
  582MOL0     C76720   8.877   2.594   2.253 -0.0663  0.4824 -0.5342
  582MOL0     C76721   8.996   2.579   2.334 -0.6215  0.0919  0.8293
  582MOL0     O76722   9.055   2.704   2.356 -0.1259  0.1315 -0.6475
  582MOL0     C76723   9.154   2.708   2.452  0.7074  0.3049  0.1205
  582MOL0     C76724   9.122   2.719   2.586  0.0029  1.0876  0.6987
  582MOL0     C76725   9.222   2.713   2.681 -0.2448  0.0019  0.7178
  582MOL0     C76726   9.353   2.733   2.646 -0.4723  1.0004 -0.4818
  582MOL0     O76727   9.455   2.745   2.740 -0.1710 -0.1173 -0.9639
  582MOL0     C76728   9.518   2.875   2.747 -0.7583 -0.8479  0.7124
  582MOL0     C76729   9.633   2.871   2.858  0.1040  0.7941  0.0298
  582MOL0     C76730   9.706   3.007   2.869  0.3104 -0.0896 -0.5602
  582MOL0     C76731   9.836   3.003   2.958  0.5131 -1.0900  0.5579
  582MOL0     C76732   9.820   2.954   3.087  0.0872 -0.2530 -0.8060
  582MOL0     C76733   9.949   2.964   3.173 -0.8756 -0.1764  1.0064
  582MOL0     C76734   9.940   2.893   3.304  0.5829 -0.5894 -0.3988
  582MOL0     C76735  10.084   2.862   3.356 -0.2724 -0.9635  0.2638
  582MOL0    Cl76736  10.166   3.019   3.398 -0.3221 -0.0388  0.1444
  582MOL0     C76737   9.390   2.705   2.516 -0.1181 -0.0627  0.2363
  582MOL0     C76738   9.289   2.688   2.418  1.1544  0.0256  0.6335
  582MOL0     O76739   9.038   2.470   2.369  0.1244 -0.0227 -0.3087
  582MOL0     C76740   8.840   2.713   2.190  0.2215  0.2000 -0.8571
  582MOL0     C76741   8.719   2.727   2.125 -0.5102  0.4192  0.2378
  582MOL0     N76742   8.088   2.947   1.607  0.3129 -0.5015  0.8923
  582MOL0     N76743   8.008   3.041   1.575  0.0085 -0.5577  0.4124
  582MOL0     C76744   8.059   3.868   1.775  0.5862  0.8229 -0.7228
  582MOL0     C76745   8.183   3.878   1.830  0.5818 -0.0559 -0.4017
  582MOL0     C76746   8.611   4.035   1.862 -0.4058 -0.2942 -0.1776
  582MOL0     C76747   8.676   4.145   1.924  0.1993 -0.2434  0.5969
  582MOL0     C76748   8.808   4.131   1.968 -0.6538  0.5278 -0.4247
  582MOL0     C76749   8.878   4.009   1.959 -0.3888  0.3019  0.5254
  582MOL0     O76750   9.004   3.991   2.020  0.5840 -0.2808  0.6630
  582MOL0     C76751   9.027   3.857   2.070  0.4157 -0.3509 -0.4808
  582MOL0     C76752   9.122   3.845   2.196 -0.4670 -0.1214 -0.8795
  582MOL0     C76753   9.081   3.720   2.275  0.6105  0.1927  1.1122
  582MOL0     C76754   9.126   3.708   2.411 -0.0860 -0.1807  0.3280
  582MOL0     C76755   9.268   3.702   2.432 -0.1418 -0.5171  0.2315
  582MOL0     C76756   9.388   3.683   2.437  0.1358 -0.8579  0.6065
  582MOL0     C76757   8.819   3.916   1.875 -0.6239  0.5387 -0.5717
  582MOL0     C76758   8.692   3.933   1.819  0.0178  1.0674  0.2074
  582MOL0     H76759   8.363   3.936   1.554  1.2585 -0.3064  1.4795
  582MOL0     H76760   8.152   3.922   1.444 -1.0839 -0.2133  0.5221
  582MOL0     H76761   7.957   3.741   1.464  1.5562  0.4254  3.8027
  582MOL0     H76762   7.869   3.887   1.390 -0.2100 -1.3500 -0.1733
  582MOL0     H76763   7.710   3.726   1.395  0.2807 -0.5227 -0.7627
  582MOL0     H76764   7.674   3.813   1.548  1.1135  2.8621 -1.0747
  582MOL0     H76765   7.805   3.636   1.674 -1.5258 -2.6892  1.1108
  582MOL0     H76766   7.842   3.550   1.515  0.6101  1.1573 -1.8422
  582MOL0     H76767   7.578   3.607   1.646  0.7336  0.9928 -0.7707
  582MOL0     H76768   7.588   3.542   1.490 -1.9974  0.1122  1.8444
  582MOL0     H76769   7.529   3.384   1.687 -0.4253 -0.1718 -1.3638
  582MOL0     H76770   7.695   3.409   1.737 -1.6468 -1.4553 -0.0832
  582MOL0     H76771   7.756   3.347   1.485 -0.2086 -0.4539 -1.9006
  582MOL0     H76772   7.595   3.288   1.476  0.8003  0.8364 -1.9291
  582MOL0     H76773   7.654   3.143   1.684 -1.6511  1.7514 -0.7439
  582MOL0     H76774   7.753   3.107   1.547 -1.4206  0.0247  0.1913
  582MOL0     H76775   7.844   3.244   1.802 -3.3645  1.5032 -1.3258
  582MOL0     H76776   7.924   3.294   1.653 -1.5089  0.7398  0.1450
  582MOL0     H76777   7.951   2.997   1.902 -1.3464 -3.5385 -0.2905
  582MOL0     H76778   8.126   2.708   1.748 -3.4433 -0.2597  0.7308
  582MOL0     H76779   8.086   2.778   1.903  4.3187 -1.1543  2.1430
  582MOL0     H76780   8.281   2.910   1.915 -1.4555 -0.6249  1.1227
  582MOL0     H76781   8.335   2.850   1.755  1.0904 -1.7925  0.3217
  582MOL0     H76782   8.255   2.685   2.000 -1.3401  0.0188 -1.6143
  582MOL0     H76783   8.329   2.599   1.872  1.7448 -0.8021  1.6172
  582MOL0     H76784   8.469   2.795   2.047  1.5499 -1.3959  0.5311
  582MOL0     H76785   8.531   2.739   1.887  1.7033  0.9503  1.2996
  582MOL0     H76786   8.639   2.401   2.148  3.9350 -1.4050 -1.5654
  582MOL0     H76787   8.827   2.389   2.286  2.7867 -0.0593 -2.1514
  582MOL0     H76788   9.022   2.722   2.627  0.8088  1.2160  2.7856
  582MOL0     H76789   9.193   2.715   2.786 -0.2097  4.3443  0.8165
  582MOL0     H76790   9.436   2.942   2.775 -2.5792 -2.1900 -1.0783
  582MOL0     H76791   9.552   2.898   2.645 -4.3973 -2.0748 -0.9554
  582MOL0     H76792   9.714   2.799   2.843 -1.9001 -2.2668  2.5779
  582MOL0     H76793   9.590   2.836   2.952  0.8524  1.5295  0.6639
  582MOL0     H76794   9.639   3.077   2.920  0.7673 -1.2364  1.7031
  582MOL0     H76795   9.717   3.051   2.769  1.5023  1.0839  0.0542
  582MOL0     H76796   9.907   2.938   2.905 -0.7544  0.1609 -2.9680
  582MOL0     H76797   9.879   3.103   2.958 -1.0245 -0.3551 -1.7024
  582MOL0     H76798   9.785   2.850   3.088 -0.2862 -0.1415  0.9516
  582MOL0     H76799   9.740   3.013   3.133  1.4241  1.1592 -0.1998
  582MOL0     H76800   9.957   3.070   3.200  2.2117  0.2337 -1.0529
  582MOL0     H76801  10.041   2.950   3.116 -0.7807 -0.3603  1.2049
  582MOL0     H76802   9.888   2.949   3.383 -2.0685 -2.7187 -0.4951
  582MOL0     H76803   9.877   2.804   3.300 -1.5731  0.7217  1.8209
  582MOL0     H76804  10.144   2.817   3.277 -0.6331  0.4485 -0.8631
  582MOL0     H76805  10.077   2.795   3.442 -0.3813 -2.4063 -0.8502
  582MOL0     H76806   9.493   2.695   2.481 -0.1240 -3.3081  0.8146
  582MOL0     H76807   9.312   2.658   2.316  2.1757 -0.3156  0.9582
  582MOL0     H76808   8.904   2.800   2.199  1.3660 -0.8360  2.7285
  582MOL0     H76809   8.687   2.824   2.090 -0.3121  0.2445 -0.4417
  582MOL0     H76810   7.973   3.853   1.840 -1.7655 -1.4292 -4.0029
  582MOL0     H76811   8.198   3.884   1.937  1.1759  0.5102 -0.5083
  582MOL0     H76812   8.598   4.217   1.945 -1.9995 -2.7295  1.4591
  582MOL0     H76813   8.847   4.207   2.035 -0.5346 -1.4892  1.9291
  582MOL0     H76814   9.076   3.798   1.992 -0.1540 -3.7980  1.5688
  582MOL0     H76815   8.930   3.814   2.096  0.0673 -0.8875 -2.4946
  582MOL0     H76816   9.221   3.831   2.151  0.4334 -1.2857  1.3176
  582MOL0     H76817   9.112   3.936   2.255 -2.2059  1.0957 -2.9067
  582MOL0     H76818   9.110   3.624   2.231  1.6029 -0.3053  2.7620
  582MOL0     H76819   8.972   3.733   2.270  0.5954 -0.3086 -1.6420
  582MOL0     H76820   9.088   3.798   2.460 -2.8299 -0.6483 -0.7399
  582MOL0     H76821   9.079   3.626   2.465  0.8981 -1.0555 -0.1030
  582MOL0     H76822   9.493   3.663   2.435  0.3165  0.0109 -1.8402
  582MOL0     H76823   8.863   3.819   1.851  1.7225  0.9725  1.6419
  582MOL0     H76824   8.657   3.851   1.757  2.8836 -1.0769  1.2349
  583MOL0     O76825  10.033   2.285  10.145  0.3298  0.1119 -0.1502
  583MOL0     C76826   9.950   2.202  10.113 -1.0306 -0.2309 -0.3670
  583MOL0     O76827   9.972   2.083  10.059  0.1485 -0.6454  0.1206
  583MOL0     C76828  10.100   2.035  10.027 -0.8276 -0.4466 -0.6861
  583MOL0     C76829  10.218   2.049  10.108  0.3131  0.1264  1.2333
  583MOL0     C76830  10.339   1.991  10.064  0.3158 -0.3292 -0.4820
  583MOL0     C76831  10.345   1.921   9.946  0.1390  0.1511 -0.2134
  583MOL0     O76832  10.461   1.857   9.895  0.3570  0.1520  0.1736
  583MOL0     C76833  10.520   1.941   9.798 -0.4781 -0.6394 -0.3462
  583MOL0     C76834  10.668   1.906   9.787  0.4269  0.9635 -0.8607
  583MOL0     C76835  10.738   2.008   9.700 -0.3248  0.0454  0.3153
  583MOL0     C76836  10.886   1.975   9.671  0.1154 -0.3842 -0.6720
  583MOL0     C76837  10.952   2.083   9.565 -0.7371  0.5122 -0.6512
  583MOL0     C76838  11.083   2.045   9.508 -0.5149  1.1791 -0.3630
  583MOL0     C76839  11.145   2.152   9.424  0.5296 -0.3624  0.1690
  583MOL0     C76840  11.215   2.272   9.491 -0.0838  0.2432  0.9049
  583MOL0     N76841  11.281   2.358   9.385 -0.2672  0.1197 -0.9888
  583MOL0     C76842  11.255   2.359   9.252 -0.1316 -0.6932  0.5462
  583MOL0     C76843  11.348   2.443   9.202 -1.2940  0.4808  1.0775
  583MOL0     C76844  11.375   2.496   9.054 -0.5957  0.0419  0.0074
  583MOL0     C76845  11.242   2.490   8.976 -0.0170 -0.2022  0.2927
  583MOL0     C76846  11.236   2.616   8.888 -0.5985 -0.5004 -0.3538
  583MOL0     C76847  11.124   2.622   8.796 -0.0938  0.7126  1.4977
  583MOL0     O76848  10.994   2.633   8.865 -0.0981 -0.2661 -0.0959
  583MOL0     C76849  10.887   2.557   8.836  0.7641  0.0688 -0.0354
  583MOL0     C76850  10.819   2.505   8.943  0.6205  0.9010  0.9733
  583MOL0     C76851  10.709   2.424   8.914 -0.1597  0.4952  0.0358
  583MOL0     C76852  10.652   2.415   8.786 -0.6368 -0.0069  0.3548
  583MOL0     C76853  10.522   2.347   8.754  0.4789 -0.0897 -0.3272
  583MOL0     O76854  10.463   2.381   8.629 -0.5843  0.6548 -0.1893
  583MOL0     C76855  10.344   2.326   8.591 -0.4226  0.4833 -0.6294
  583MOL0     C76856  10.326   2.311   8.451  0.1892 -0.0118 -0.4986
  583MOL0     C76857  10.202   2.270   8.396  0.1704 -0.4907 -0.4141
  583MOL0     C76858  10.106   2.218   8.476  0.5206  0.4565  0.5604
  583MOL0     O76859   9.988   2.173   8.417  0.3653 -0.0489  0.4188
  583MOL0     C76860   9.869   2.234   8.466 -0.8201 -0.7413  0.5621
  583MOL0     C76861   9.755   2.159   8.397  0.1467  0.7119  0.2813
  583MOL0     C76862   9.621   2.226   8.409  0.8497 -0.2399 -0.5158
  583MOL0     C76863   9.525   2.174   8.307  0.6787 -0.4941  1.1583
  583MOL0     C76864   9.378   2.222   8.333 -0.5585  0.0387  0.3331
  583MOL0     C76865   9.273   2.152   8.244  0.5228 -0.1574 -1.0859
  583MOL0     C76866   9.146   2.226   8.263  0.1341  0.0584  0.2539
  583MOL0     C76867   9.031   2.164   8.185 -0.2800  0.5579 -0.8137
  583MOL0    Cl76868   8.878   2.206   8.260  0.2315 -0.1139 -0.0833
  583MOL0     C76869  10.123   2.227   8.618 -0.0527 -0.1593 -0.3114
  583MOL0     C76870  10.237   2.290   8.674  0.9376  0.9502 -0.7837
  583MOL0     O76871  10.485   2.260   8.827 -0.4447 -0.3159  0.4461
  583MOL0     C76872  10.719   2.476   8.680 -0.4582 -0.1636  0.0933
  583MOL0     C76873  10.837   2.541   8.703 -0.8188 -1.0295 -0.1959
  583MOL0     N76874  11.437   2.467   9.301 -1.1807 -0.3653 -0.1717
  583MOL0     N76875  11.405   2.412   9.407 -0.1053 -0.0167  0.1148
  583MOL0     C76876  10.230   1.912   9.863 -0.8398  0.4746 -0.5342
  583MOL0     C76877  10.113   1.960   9.914  0.1304 -0.3249 -0.0316
  583MOL0     C76878   9.812   2.235  10.159 -0.0243  0.6385  1.4564
  583MOL0     C76879   9.705   2.164  10.104  0.4603 -0.4277  0.2570
  583MOL0     C76880   9.573   2.189  10.137  0.2313  0.1147  0.4193
  583MOL0     C76881   9.545   2.282  10.244 -0.0738  0.1894 -0.4974
  583MOL0     O76882   9.420   2.331  10.282 -0.4441  0.0531  0.7710
  583MOL0     C76883   9.379   2.370  10.416  0.2064 -0.8226  0.4789
  583MOL0     C76884   9.317   2.246  10.486 -0.9392  0.3270  0.0011
  583MOL0     C76885   9.194   2.197  10.418 -0.0162 -0.1308 -0.4605
  583MOL0     C76886   9.120   2.089  10.495  0.0671  1.2186  0.7977
  583MOL0     C76887   8.984   2.065  10.444 -0.6677 -0.5745 -0.2985
  583MOL0     C76888   8.868   2.055  10.421  0.7950  0.6698  0.1793
  583MOL0     C76889   9.656   2.345  10.303 -0.9181 -0.2027 -0.1401
  583MOL0     C76890   9.787   2.329  10.259  0.4292  0.3953  0.7565
  583MOL0     H76891  10.226   2.115  10.193  0.7302 -0.0757  1.3524
  583MOL0     H76892  10.424   2.007  10.130 -0.8517 -0.2943  1.0724
  583MOL0     H76893  10.508   2.048   9.817  0.5078 -0.7030  0.7455
  583MOL0     H76894  10.475   1.912   9.703 -0.7660 -0.6861 -0.1974
  583MOL0     H76895  10.668   1.801   9.757 -1.4520 -0.1962  2.7124
  583MOL0     H76896  10.717   1.901   9.884 -1.7852 -4.3779  0.3109
  583MOL0     H76897  10.738   2.107   9.745  0.5969  0.4712 -0.5781
  583MOL0     H76898  10.679   2.004   9.608  1.0417 -3.6045 -0.5787
  583MOL0     H76899  10.947   1.975   9.763 -0.8847  0.2408  0.0099
  583MOL0     H76900  10.895   1.876   9.626  0.5122 -1.6785  2.0481
  583MOL0     H76901  10.968   2.172   9.626  3.4601 -0.4391 -0.0691
  583MOL0     H76902  10.881   2.103   9.484  0.8385  1.0807 -1.9522
  583MOL0     H76903  11.081   1.956   9.444  1.2042  2.8526 -2.9102
  583MOL0     H76904  11.148   2.010   9.589  0.1996 -0.0464 -1.4319
  583MOL0     H76905  11.207   2.099   9.351  0.3491  0.6068 -0.7147
  583MOL0     H76906  11.070   2.190   9.354  1.0214 -0.0485 -0.1945
  583MOL0     H76907  11.300   2.235   9.549 -0.2774  2.3303  2.6307
  583MOL0     H76908  11.138   2.329   9.544  0.0137  0.8028  0.4528
  583MOL0     H76909  11.175   2.316   9.192  1.7788 -2.9420 -0.5503
  583MOL0     H76910  11.445   2.442   8.990 -1.1752 -0.4870 -0.1854
  583MOL0     H76911  11.412   2.599   9.062 -2.1700  0.6330  0.0018
  583MOL0     H76912  11.160   2.488   9.048  2.1679 -3.1415  3.0132
  583MOL0     H76913  11.241   2.401   8.912  2.9183 -1.7733  2.1760
  583MOL0     H76914  11.208   2.693   8.959 -0.7990  0.3007 -1.2818
  583MOL0     H76915  11.336   2.639   8.849 -1.1405  0.6334 -1.0935
  583MOL0     H76916  11.128   2.529   8.738  2.0773  1.8995 -0.4462
  583MOL0     H76917  11.139   2.702   8.723  0.2467 -0.4496  0.2374
  583MOL0     H76918  10.865   2.523   9.039  3.5965 -0.7911 -0.0133
  583MOL0     H76919  10.641   2.382   8.987  1.1803 -0.2499  0.8888
  583MOL0     H76920  10.416   2.336   8.395 -0.6228 -1.8992 -2.7990
  583MOL0     H76921  10.178   2.277   8.290 -0.4280 -2.9967 -0.5234
  583MOL0     H76922   9.873   2.342   8.454  0.6450 -0.8692 -0.4445
  583MOL0     H76923   9.860   2.218   8.574 -2.0981 -1.1062  0.4248
  583MOL0     H76924   9.758   2.061   8.447  0.5248  0.7420  0.3222
  583MOL0     H76925   9.778   2.138   8.293  3.9442 -2.7016  1.5481
  583MOL0     H76926   9.638   2.333   8.395  1.5420 -0.3278 -0.4263
  583MOL0     H76927   9.593   2.202   8.512  1.6053 -3.9262 -1.0139
  583MOL0     H76928   9.554   2.205   8.207 -1.1433  2.0417  1.3256
  583MOL0     H76929   9.536   2.065   8.317 -0.8587 -0.9368 -1.1994
  583MOL0     H76930   9.374   2.331   8.326  1.1127  0.0411 -1.2771
  583MOL0     H76931   9.348   2.203   8.437 -0.2063  2.7288  1.0054
  583MOL0     H76932   9.265   2.050   8.281  0.5170  0.0221 -0.5830
  583MOL0     H76933   9.283   2.160   8.135 -0.8040  4.0431 -1.0944
  583MOL0     H76934   9.125   2.217   8.370 -0.3490 -0.3929  0.1237
  583MOL0     H76935   9.154   2.333   8.242 -0.8049  0.2971  1.0224
  583MOL0     H76936   9.031   2.058   8.210 -0.4627  0.8097  0.2899
  583MOL0     H76937   9.043   2.170   8.076 -1.1717  0.0374 -0.9495
  583MOL0     H76938  10.050   2.183   8.684  3.5467 -1.7714  2.9778
  583MOL0     H76939  10.223   2.304   8.780  0.6084 -0.3551 -0.6393
  583MOL0     H76940  10.686   2.485   8.577  0.1138  2.5325  0.0701
  583MOL0     H76941  10.890   2.591   8.622 -0.6657 -1.5997 -0.4551
  583MOL0     H76942  10.227   1.850   9.775  1.6883 -0.2107 -0.2112
  583MOL0     H76943  10.030   1.952   9.844  2.9100  1.0833 -3.8657
  583MOL0     H76944   9.740   2.081  10.043 -0.5909 -0.7983  0.1385
  583MOL0     H76945   9.491   2.128  10.100 -1.8053  3.0146 -0.2038
  583MOL0     H76946   9.303   2.447  10.395  0.6769  0.4282  2.9521
  583MOL0     H76947   9.452   2.399  10.492  0.1104  0.7921  0.0003
  583MOL0     H76948   9.387   2.163  10.477  0.4111  1.4176 -0.0385
  583MOL0     H76949   9.303   2.263  10.593 -1.8351  0.1119 -0.0744
  583MOL0     H76950   9.215   2.162  10.316 -3.8300  0.9009 -1.7729
  583MOL0     H76951   9.134   2.287  10.398  2.1749  2.7861  4.1982
  583MOL0     H76952   9.180   1.999  10.476  0.6472  1.8528 -0.4213
  583MOL0     H76953   9.115   2.098  10.604 -0.8740 -2.7753  1.2406
  583MOL0     H76954   8.765   2.031  10.409  1.4207 -1.0351 -2.7460
  583MOL0     H76955   9.637   2.413  10.386 -1.9349 -0.9082  0.2318
  583MOL0     H76956   9.869   2.380  10.309  3.2565 -1.9278 -1.1706
  584MOL0     O76957   4.111   3.689  10.990 -0.1870  0.2214  0.4820
  584MOL0     C76958   4.160   3.754  10.897 -0.3636 -0.4725  0.3156
  584MOL0     O76959   4.089   3.818  10.804 -0.8800 -0.2209 -0.0113
  584MOL0     C76960   3.956   3.835  10.803 -0.0349  0.6476 -0.0191
  584MOL0     C76961   3.898   3.959  10.833 -0.1552  0.3901 -0.1586
  584MOL0     C76962   3.761   3.978  10.825  0.0293 -0.5100  0.4303
  584MOL0     C76963   3.681   3.865  10.812  0.5766  0.2779 -0.2498
  584MOL0     O76964   3.546   3.870  10.842  0.3713 -0.3959 -0.3737
  584MOL0     C76965   3.457   3.843  10.735  0.0905 -0.3867  0.6725
  584MOL0     C76966   3.325   3.811  10.804 -1.1381 -0.1386  1.2867
  584MOL0     C76967   3.223   3.818  10.689  0.2350  0.0792  0.3382
  584MOL0     C76968   3.213   3.941  10.597 -1.1049  0.6742 -0.5067
  584MOL0     C76969   3.067   3.970  10.564 -0.3135 -0.0419  0.6367
  584MOL0     C76970   2.998   3.866  10.468  0.2529  0.8413  0.4855
  584MOL0     C76971   2.848   3.846  10.469 -0.0237  0.0543 -0.3452
  584MOL0     C76972   2.770   3.977  10.477 -0.0026  0.3302 -0.6387
  584MOL0     N76973   2.631   3.945  10.438  0.1323  0.0187  0.2445
  584MOL0     C76974   2.533   3.903  10.527  0.2270  0.5238  0.1041
  584MOL0     C76975   2.423   3.883  10.452  0.5067 -0.7256  0.0523
  584MOL0     C76976   2.289   3.828  10.486  0.6180  0.3211 -0.2506
  584MOL0     C76977   2.237   3.930  10.597 -0.4558  0.0449 -0.5218
  584MOL0     C76978   2.203   4.065  10.535  0.3635  0.3376  0.2131
  584MOL0     C76979   2.100   4.044  10.423  0.0484 -0.5964 -0.1907
  584MOL0     O76980   1.974   3.979  10.452  0.1019 -0.2542  0.3710
  584MOL0     C76981   1.895   4.039  10.546  0.0444  0.3645  0.7862
  584MOL0     C76982   1.814   3.956  10.615 -0.4404  0.0236 -0.2334
  584MOL0     C76983   1.719   4.002  10.715 -0.0363 -0.4413  0.0965
  584MOL0     C76984   1.709   4.135  10.749  0.2132 -0.2620  0.0502
  584MOL0     C76985   1.605   4.184  10.851  0.0691 -0.0648  0.5976
  584MOL0     O76986   1.614   4.317  10.869 -0.3664 -0.3476 -0.0015
  584MOL0     C76987   1.521   4.373  10.951 -0.5382  0.0830 -0.1915
  584MOL0     C76988   1.566   4.420  11.080 -0.5563  0.5765  0.4568
  584MOL0     C76989   1.489   4.504  11.160  0.5567  0.0712 -0.2568
  584MOL0     C76990   1.358   4.535  11.117  0.1527 -0.2445 -0.7001
  584MOL0     O76991   1.268   4.620  11.176  0.4265 -0.0595 -0.3920
  584MOL0     C76992   1.315   4.707  11.279 -0.5527 -0.2483  0.7807
  584MOL0     C76993   1.401   4.820  11.204 -0.3748  0.9637 -0.3093
  584MOL0     C76994   1.422   4.945  11.289  0.1605  0.5220  0.4431
  584MOL0     C76995   1.522   4.908  11.407 -0.2517  0.6764  0.6885
  584MOL0     C76996   1.516   5.019  11.524  0.6764 -0.3579  0.9116
  584MOL0     C76997   1.403   4.981  11.620 -0.5210 -0.5988  0.3273
  584MOL0     C76998   1.353   5.100  11.712 -0.7124  0.4073 -1.1005
  584MOL0     C76999   1.299   5.225  11.643 -0.2302  0.3229 -0.7451
  584MOL0    Cl77000   1.190   5.174  11.518  0.0843 -0.0639 -0.2262
  584MOL0     C77001   1.309   4.468  11.008  0.2539  0.7588  0.6660
  584MOL0     C77002   1.393   4.397  10.913 -0.0256  0.6901 -0.7601
  584MOL0     O77003   1.514   4.117  10.896  0.4424  0.7137 -0.0306
  584MOL0     C77004   1.798   4.222  10.688  0.1857  0.2310 -0.8563
  584MOL0     C77005   1.891   4.180  10.585  0.7268  0.2506 -0.2183
  584MOL0     N77006   2.456   3.920  10.320 -0.4333  0.1070  0.3589
  584MOL0     N77007   2.572   3.965  10.318  0.7688 -1.6067  0.3035
  584MOL0     C77008   3.734   3.742  10.779  0.1280 -0.8388 -0.5052
  584MOL0     C77009   3.870   3.734  10.768 -0.0958  0.3154  0.2728
  584MOL0     C77010   4.309   3.783  10.887 -0.1992  0.3851  0.2285
  584MOL0     C77011   4.382   3.760  11.002  0.3068 -0.7676  0.8000
  584MOL0     C77012   4.532   3.772  11.001 -0.5871  0.8902  0.2123
  584MOL0     C77013   4.606   3.820  10.894 -0.3108  0.7691 -0.3216
  584MOL0     O77014   4.743   3.826  10.905 -0.6034  0.3851 -0.5461
  584MOL0     C77015   4.826   3.880  10.808 -0.3280 -0.7515  0.3795
  584MOL0     C77016   4.964   3.810  10.826  0.0583  0.3679 -0.4997
  584MOL0     C77017   5.051   3.815  10.704 -0.0573  0.1764  0.7880
  584MOL0     C77018   5.196   3.763  10.710 -0.6726 -0.4232 -1.1575
  584MOL0     C77019   5.244   3.753  10.571 -0.3776  0.4887 -0.3315
  584MOL0     C77020   5.282   3.748  10.454 -0.1568  0.4068  0.0851
  584MOL0     C77021   4.529   3.860  10.780 -0.1916  0.5323  0.9338
  584MOL0     C77022   4.388   3.832  10.778 -0.4649  0.4384  0.6164
  584MOL0     H77023   3.972   4.038  10.843  4.2411 -2.9190 -2.4491
  584MOL0     H77024   3.722   4.077  10.845  2.3636  1.1589 -2.4495
  584MOL0     H77025   3.491   3.759  10.673  1.2536  0.0041  0.7598
  584MOL0     H77026   3.446   3.932  10.674 -0.3804 -1.1257 -0.3425
  584MOL0     H77027   3.318   3.876  10.892 -1.0673 -0.3406  1.4429
  584MOL0     H77028   3.324   3.705  10.832  2.5606 -1.6438 -3.2031
  584MOL0     H77029   3.125   3.790  10.728 -1.2019  2.8992 -0.9557
  584MOL0     H77030   3.243   3.741  10.614 -1.4520  2.4579 -2.7724
  584MOL0     H77031   3.255   4.025  10.655 -1.1251 -0.5923  1.4224
  584MOL0     H77032   3.286   3.939  10.515 -0.5495  3.8833 -0.2441
  584MOL0     H77033   3.053   4.066  10.514 -0.4805 -0.9039 -1.0264
  584MOL0     H77034   3.011   3.972  10.658  1.2213  0.5702  1.5878
  584MOL0     H77035   3.040   3.768  10.492  0.3347  1.2004  1.8863
  584MOL0     H77036   3.034   3.902  10.371  1.6705  2.7043  1.6212
  584MOL0     H77037   2.808   3.792  10.383 -1.9660 -1.0295  1.1586
  584MOL0     H77038   2.822   3.778  10.551  0.8718  1.1142  0.8559
  584MOL0     H77039   2.811   4.045  10.403  0.5631  0.7827  0.0771
  584MOL0     H77040   2.776   4.018  10.578 -0.3714 -0.0569 -0.4553
  584MOL0     H77041   2.548   3.881  10.633  0.3423  3.3934  0.7506
  584MOL0     H77042   2.308   3.730  10.532  3.2554 -0.3408 -2.5195
  584MOL0     H77043   2.225   3.812  10.398  0.0790 -0.4776  0.2629
  584MOL0     H77044   2.321   3.943  10.666 -0.5295  2.2743 -0.7918
  584MOL0     H77045   2.147   3.895  10.648 -1.7882  3.1415 -0.5668
  584MOL0     H77046   2.151   4.130  10.606  0.6338  1.1241 -0.2948
  584MOL0     H77047   2.297   4.114  10.509  0.7343 -1.5633 -2.5023
  584MOL0     H77048   2.140   3.992  10.336  0.8437 -0.9461  0.3724
  584MOL0     H77049   2.074   4.142  10.381  0.0827 -1.6315 -2.8187
  584MOL0     H77050   1.814   3.848  10.612 -2.9761 -0.2602  3.2579
  584MOL0     H77051   1.641   3.944  10.762 -0.1657 -0.7039 -0.4374
  584MOL0     H77052   1.661   4.391  11.124 -0.6733 -0.2110  0.2096
  584MOL0     H77053   1.525   4.541  11.255 -3.8115 -4.0967  3.5379
  584MOL0     H77054   1.379   4.666  11.358 -0.2300  0.1792  0.7434
  584MOL0     H77055   1.224   4.746  11.326  0.0736  0.5617  1.3457
  584MOL0     H77056   1.338   4.854  11.121 -1.4944  3.6288  1.5087
  584MOL0     H77057   1.501   4.789  11.175 -0.2631 -3.4786  3.5410
  584MOL0     H77058   1.323   4.961  11.334 -0.0329  1.9884 -0.4600
  584MOL0     H77059   1.458   5.027  11.226 -0.6782 -0.8600 -1.9571
  584MOL0     H77060   1.494   4.810  11.446 -3.8399 -0.5577 -4.0117
  584MOL0     H77061   1.622   4.913  11.365 -0.7935  1.0655 -0.5933
  584MOL0     H77062   1.514   5.111  11.464  2.9503  0.0558  1.3722
  584MOL0     H77063   1.615   5.017  11.570  0.3038 -1.8522  1.7072
  584MOL0     H77064   1.439   4.903  11.687 -1.5539 -1.6856 -0.3375
  584MOL0     H77065   1.319   4.944  11.559  1.4577 -1.3173 -2.1245
  584MOL0     H77066   1.277   5.060  11.779  0.2343  0.3795 -0.0231
  584MOL0     H77067   1.433   5.140  11.775 -1.0241 -2.8582  1.6674
  584MOL0     H77068   1.377   5.286  11.597 -0.2648 -0.1095 -1.3988
  584MOL0     H77069   1.242   5.283  11.716  0.2802  0.1379 -0.1893
  584MOL0     H77070   1.207   4.490  10.975  0.0562 -0.1531  0.6523
  584MOL0     H77071   1.350   4.355  10.823 -2.5678  1.9567 -0.2217
  584MOL0     H77072   1.815   4.328  10.708 -1.0890  1.5113 -5.2941
  584MOL0     H77073   1.950   4.261  10.541 -0.5266  0.1823 -2.1554
  584MOL0     H77074   3.661   3.664  10.762 -1.3175  1.0304 -4.1761
  584MOL0     H77075   3.914   3.638  10.744 -0.0558  0.3419  0.2406
  584MOL0     H77076   4.337   3.727  11.095 -2.4099 -0.8838 -0.4454
  584MOL0     H77077   4.596   3.752  11.087 -1.8736  2.4275  1.5972
  584MOL0     H77078   4.841   3.987  10.823 -1.6733 -0.4005 -0.6542
  584MOL0     H77079   4.787   3.857  10.709  0.6297  1.0864 -0.4771
  584MOL0     H77080   5.023   3.851  10.908  1.4183 -2.2833 -0.0183
  584MOL0     H77081   4.946   3.707  10.859 -2.0708  1.4764  2.1566
  584MOL0     H77082   5.043   3.918  10.667 -1.6319  0.3959  1.6673
  584MOL0     H77083   4.997   3.751  10.634  0.5344  0.4074  0.1070
  584MOL0     H77084   5.261   3.831  10.765 -0.2905 -1.2620 -0.5402
  584MOL0     H77085   5.194   3.663  10.754  0.2488 -0.2549 -0.7150
  584MOL0     H77086   5.316   3.732  10.353 -0.2328 -3.7437  0.5372
  584MOL0     H77087   4.562   3.898  10.683 -0.3560 -1.2581  0.1220
  584MOL0     H77088   4.333   3.849  10.686  1.7338 -0.3176 -0.9065
  585MOL0     O77089   8.032   9.428   2.813  0.1446  0.1472 -0.2146
  585MOL0     C77090   8.072   9.374   2.711 -0.2306  0.1424  0.5056
  585MOL0     O77091   8.045   9.249   2.661  0.0464  0.1006 -0.9435
  585MOL0     C77092   7.954   9.174   2.740 -0.0959 -0.7231  0.1488
  585MOL0     C77093   7.825   9.228   2.784 -0.0767 -0.5051  0.0696
  585MOL0     C77094   7.732   9.141   2.846  0.3059 -0.1295  0.7005
  585MOL0     C77095   7.769   9.012   2.888  0.0406 -0.4309 -0.8918
  585MOL0     O77096   7.690   8.926   2.956 -0.3226 -0.2454  0.1708
  585MOL0     C77097   7.555   8.953   2.998 -0.3095 -0.3275 -0.0706
  585MOL0     C77098   7.461   8.916   2.886  0.2951  0.9202  0.9259
  585MOL0     C77099   7.316   8.919   2.937  0.1656 -0.8745  0.6114
  585MOL0     C77100   7.218   8.860   2.831  1.0281  0.1441 -0.2278
  585MOL0     C77101   7.083   8.862   2.905 -0.1521  0.0580  0.0510
  585MOL0     C77102   6.971   8.848   2.804 -0.3063 -0.2567 -0.4516
  585MOL0     C77103   6.839   8.842   2.864  0.1192  0.4339 -0.7059
  585MOL0     C77104   6.733   8.861   2.768 -0.1660  0.5824  1.0716
  585MOL0     N77105   6.596   8.858   2.827  0.4622  0.1338 -0.3533
  585MOL0     C77106   6.533   8.956   2.895 -0.3578 -0.0025 -0.8439
  585MOL0     C77107   6.403   8.936   2.870 -0.4121 -0.7663 -0.0272
  585MOL0     C77108   6.292   9.024   2.912  0.9264  0.1563  0.4118
  585MOL0     C77109   6.280   9.150   2.829 -0.4698  0.6570 -0.0431
  585MOL0     C77110   6.224   9.120   2.695 -0.5473  0.2251 -0.2786
  585MOL0     C77111   6.212   9.236   2.592 -1.1469  0.4117 -0.0352
  585MOL0     O77112   6.134   9.333   2.672 -0.3347 -0.8105  0.0583
  585MOL0     C77113   6.007   9.363   2.633  0.7705 -0.1508 -0.0268
  585MOL0     C77114   5.947   9.358   2.499  0.1642  0.3717 -0.7239
  585MOL0     C77115   5.825   9.407   2.486  0.7962 -0.7488  0.0415
  585MOL0     C77116   5.744   9.449   2.592  0.6224  0.2825  0.1976
  585MOL0     C77117   5.608   9.495   2.562  0.2242  0.9153  0.4202
  585MOL0     O77118   5.580   9.517   2.422  0.0365  0.7691 -0.0748
  585MOL0     C77119   5.452   9.478   2.376 -0.0465 -0.4082 -0.6229
  585MOL0     C77120   5.404   9.549   2.272 -0.2838 -0.2091  0.8010
  585MOL0     C77121   5.279   9.520   2.203 -0.4599  0.7565 -0.4977
  585MOL0     C77122   5.203   9.411   2.249  0.4477  0.1074  0.1050
  585MOL0     O77123   5.084   9.367   2.190  0.0593  0.4016  0.0140
  585MOL0     C77124   5.036   9.408   2.062  0.8389 -0.8293  0.5541
  585MOL0     C77125   4.894   9.349   2.042  0.3105 -0.3865  0.4497
  585MOL0     C77126   4.783   9.380   2.140 -0.7833 -0.2110 -0.5135
  585MOL0     C77127   4.774   9.523   2.168  0.1319 -0.5303  0.8708
  585MOL0     C77128   4.639   9.559   2.227  0.2914  0.4407 -0.4681
  585MOL0     C77129   4.622   9.712   2.257  0.3383 -0.5855  0.6082
  585MOL0     C77130   4.568   9.788   2.129 -0.4569  0.7216  0.4038
  585MOL0     C77131   4.552   9.930   2.144  0.0699 -0.4828 -1.2026
  585MOL0    Cl77132   4.685   9.995   2.217  0.0551  0.3427 -0.2998
  585MOL0     C77133   5.249   9.344   2.368 -0.1408  0.3915 -0.6966
  585MOL0     C77134   5.375   9.364   2.424 -0.5187 -0.4404  0.4217
  585MOL0     O77135   5.515   9.480   2.642 -0.5846  0.3314  0.7208
  585MOL0     C77136   5.800   9.461   2.719  0.1170 -0.4705  0.1670
  585MOL0     C77137   5.932   9.417   2.737  0.3544  0.3177  0.1264
  585MOL0     N77138   6.389   8.822   2.791  0.3376 -0.6117  0.9105
  585MOL0     N77139   6.507   8.772   2.770  0.7998  0.2564  0.0451
  585MOL0     C77140   7.896   8.964   2.852 -0.6543 -0.2805  0.4576
  585MOL0     C77141   7.988   9.045   2.778 -0.6208 -0.7974 -0.1632
  585MOL0     C77142   8.177   9.451   2.640  0.1922 -0.3034  0.0654
  585MOL0     C77143   8.211   9.414   2.510 -0.4467 -1.0680  0.9253
  585MOL0     C77144   8.302   9.493   2.434  1.2165 -0.5855 -0.3027
  585MOL0     C77145   8.353   9.607   2.501 -0.3180 -0.1115  0.2291
  585MOL0     O77146   8.439   9.684   2.427 -0.6757  0.1658  0.0424
  585MOL0     C77147   8.530   9.778   2.494  0.3673 -0.9814 -0.0243
  585MOL0     C77148   8.601   9.862   2.386 -0.1282  0.0487 -0.1239
  585MOL0     C77149   8.695   9.763   2.308  0.0779  0.5404  1.8542
  585MOL0     C77150   8.772   9.834   2.196  0.2142 -0.5827 -0.2790
  585MOL0     C77151   8.692   9.892   2.091 -0.3228  0.0702  1.0196
  585MOL0     C77152   8.627   9.913   1.987  0.2480 -0.7779 -0.3557
  585MOL0     C77153   8.324   9.643   2.635  0.2301  0.2226  0.0549
  585MOL0     C77154   8.245   9.549   2.713  0.1620 -0.7075  0.3597
  585MOL0     H77155   7.787   9.321   2.742 -0.4504 -0.5095  0.3976
  585MOL0     H77156   7.633   9.176   2.873 -0.6882 -0.8765 -1.7203
  585MOL0     H77157   7.538   9.057   3.026  0.2997  0.0899 -1.1922
  585MOL0     H77158   7.538   8.901   3.093 -0.7491  3.7421  2.3222
  585MOL0     H77159   7.495   8.814   2.865  3.4048  2.1180 -0.3673
  585MOL0     H77160   7.473   8.981   2.799 -3.5856 -0.0964 -0.5845
  585MOL0     H77161   7.286   9.023   2.955  2.5484 -0.0057 -0.0349
  585MOL0     H77162   7.311   8.859   3.028 -1.9949 -0.1733  1.0116
  585MOL0     H77163   7.212   8.929   2.747 -0.6170 -1.6445 -1.6807
  585MOL0     H77164   7.228   8.754   2.803 -2.9576 -0.9308  1.6596
  585MOL0     H77165   7.072   8.960   2.953 -1.5081 -0.5655  1.0967
  585MOL0     H77166   7.079   8.789   2.986  1.5245 -0.7727 -0.5812
  585MOL0     H77167   6.978   8.750   2.754 -0.7214 -0.1622 -0.7076
  585MOL0     H77168   6.966   8.921   2.723  0.0914 -0.1055 -0.3385
  585MOL0     H77169   6.817   8.743   2.905  2.8651  0.3747  0.8535
  585MOL0     H77170   6.829   8.916   2.944  0.3512 -0.2761 -0.0169
  585MOL0     H77171   6.747   8.794   2.682 -0.3336 -0.6566  1.9748
  585MOL0     H77172   6.744   8.965   2.737  0.1622 -0.0455 -1.0635
  585MOL0     H77173   6.582   9.040   2.943 -1.2707 -0.4685  0.9842
  585MOL0     H77174   6.312   9.047   3.017  2.9642 -3.8908  1.1315
  585MOL0     H77175   6.200   8.964   2.906 -0.2093  1.7213  1.3810
  585MOL0     H77176   6.385   9.182   2.822 -0.0560 -0.5912  0.1965
  585MOL0     H77177   6.218   9.231   2.871 -0.6643  0.3000  0.3682
  585MOL0     H77178   6.273   9.032   2.652  2.0833  1.5230 -0.1145
  585MOL0     H77179   6.118   9.102   2.717 -0.8041  1.1078 -0.7499
  585MOL0     H77180   6.140   9.193   2.522 -3.2461  3.8512 -0.2352
  585MOL0     H77181   6.305   9.277   2.552 -1.0213  0.8064  0.6337
  585MOL0     H77182   6.004   9.313   2.419  2.1458 -1.5060  1.5831
  585MOL0     H77183   5.782   9.398   2.387  0.7901  0.3583 -0.0707
  585MOL0     H77184   5.464   9.629   2.230 -1.5826 -0.5969 -1.9858
  585MOL0     H77185   5.262   9.579   2.114 -0.9343  1.4517  0.0398
  585MOL0     H77186   5.098   9.373   1.979  1.5379  0.6097  0.4518
  585MOL0     H77187   5.029   9.517   2.059  1.8396 -0.6730  2.2861
  585MOL0     H77188   4.897   9.240   2.045 -4.0029 -0.6915  0.9651
  585MOL0     H77189   4.849   9.375   1.946 -2.6279 -0.0039  1.8018
  585MOL0     H77190   4.802   9.327   2.234 -1.5916  1.6971  0.7752
  585MOL0     H77191   4.690   9.339   2.098 -1.5045  3.1255 -2.4787
  585MOL0     H77192   4.858   9.556   2.230 -0.6651 -1.2477  2.3787
  585MOL0     H77193   4.782   9.571   2.070  2.7199 -1.0801  0.7519
  585MOL0     H77194   4.625   9.510   2.324  2.1275  0.1882 -0.2946
  585MOL0     H77195   4.563   9.520   2.159 -2.0521  3.7942 -0.0061
  585MOL0     H77196   4.721   9.753   2.279 -0.8787  1.3803  2.8161
  585MOL0     H77197   4.558   9.727   2.344 -0.8778  0.0246 -0.3727
  585MOL0     H77198   4.642   9.776   2.050 -0.3564  2.4604  0.1953
  585MOL0     H77199   4.470   9.749   2.100  1.0356 -2.3024 -0.9609
  585MOL0     H77200   4.471   9.943   2.217  0.4858  2.2565 -1.1389
  585MOL0     H77201   4.537   9.976   2.046  1.8112  1.1000 -0.7859
  585MOL0     H77202   5.177   9.269   2.399 -1.8663  2.8869  1.8494
  585MOL0     H77203   5.419   9.300   2.500  1.8274 -0.7222 -1.0582
  585MOL0     H77204   5.748   9.503   2.805  1.7506  0.7044  0.6381
  585MOL0     H77205   5.983   9.401   2.831 -1.8102  0.1543  1.3342
  585MOL0     H77206   7.931   8.865   2.879 -0.7737 -2.1085 -4.9067
  585MOL0     H77207   8.088   9.012   2.751 -0.4394  0.4004 -1.0123
  585MOL0     H77208   8.161   9.333   2.459  0.6209 -0.6502 -0.8725
  585MOL0     H77209   8.328   9.472   2.331  4.2259  0.5925  0.1017
  585MOL0     H77210   8.607   9.741   2.563  0.5849  0.6515  0.6557
  585MOL0     H77211   8.464   9.850   2.543  1.4623 -1.2305  1.9247
  585MOL0     H77212   8.538   9.913   2.313 -0.4913  0.7384  0.6570
  585MOL0     H77213   8.655   9.939   2.441  1.7256 -0.8857 -0.5656
  585MOL0     H77214   8.645   9.677   2.261  1.7488  0.1094  0.7974
  585MOL0     H77215   8.764   9.720   2.381  0.0112 -2.0265  0.5202
  585MOL0     H77216   8.855   9.893   2.235  0.4646 -2.1309  1.7287
  585MOL0     H77217   8.827   9.750   2.152  0.0505  0.0003 -1.6495
  585MOL0     H77218   8.547   9.936   1.920  1.0608  0.1519 -1.0299
  585MOL0     H77219   8.384   9.715   2.690  3.9269 -3.8360  2.0094
  585MOL0     H77220   8.240   9.560   2.821 -0.4677  1.3328  0.1577
  586MOL0     O77221   1.584  10.429   5.568 -0.6995  0.0126 -0.6011
  586MOL0     C77222   1.697  10.415   5.615 -0.0804  0.0972 -0.4116
  586MOL0     O77223   1.726  10.361   5.731 -0.3874  0.2625 -0.6144
  586MOL0     C77224   1.620  10.330   5.813  0.6597 -0.1811  0.7443
  586MOL0     C77225   1.597  10.190   5.830 -0.5309 -0.4475 -0.1402
  586MOL0     C77226   1.484  10.156   5.902  1.0386 -0.0407 -0.1825
  586MOL0     C77227   1.412  10.250   5.975  0.0741  0.2984  0.9239
  586MOL0     O77228   1.311  10.203   6.062  0.2573 -0.1572  0.3595
  586MOL0     C77229   1.339  10.213   6.196  0.7298 -0.8461 -0.6226
  586MOL0     C77230   1.271  10.334   6.254 -0.2820 -0.0922 -0.2652
  586MOL0     C77231   1.118  10.346   6.232 -0.3259 -0.4525 -0.0612
  586MOL0     C77232   1.025  10.249   6.310 -0.3559  0.2241  0.7671
  586MOL0     C77233   1.004  10.119   6.225  0.1066  0.0526  0.2850
  586MOL0     C77234   0.893  10.036   6.294  0.0574 -0.6414  0.4712
  586MOL0     C77235   0.879   9.895   6.233 -0.4700 -0.5370  1.0580
  586MOL0     C77236   0.784   9.804   6.306 -0.5257 -0.1649  0.3288
  586MOL0     N77237   0.643   9.847   6.291 -0.1373  0.4703  0.3648
  586MOL0     C77238   0.586   9.867   6.165 -0.8476  0.4372 -0.1526
  586MOL0     C77239   0.479   9.941   6.203  0.0184  0.9734 -0.0354
  586MOL0     C77240   0.371   9.975   6.110 -0.1114  0.8089  0.4028
  586MOL0     C77241   0.240   9.892   6.144  0.2941  0.9116  0.0889
  586MOL0     C77242   0.261   9.742   6.111 -0.8459 -0.5073  0.0036
  586MOL0     C77243   0.129   9.671   6.096 -0.3746  1.6619  0.4942
  586MOL0     O77244   0.146   9.536   6.058 -0.9079 -0.5884  0.3368
  586MOL0     C77245   0.032   9.456   6.048 -0.1689  0.9601  0.1736
  586MOL0     C77246  -0.103   9.498   6.078  0.0509  0.6630  0.2501
  586MOL0     C77247  -0.211   9.408   6.069 -0.2213 -0.2831 -0.0177
  586MOL0     C77248  -0.186   9.266   6.037  0.9749 -1.1158  0.5419
  586MOL0     C77249  -0.297   9.172   6.030  0.0109  0.1140  0.4301
  586MOL0     O77250  -0.421   9.211   6.072 -0.0697  0.3448  0.1436
  586MOL0     C77251  -0.531   9.142   6.034  0.0607  0.2273  0.6502
  586MOL0     C77252  -0.540   9.023   5.951 -0.0870 -0.7697 -0.5385
  586MOL0     C77253  -0.664   8.969   5.934 -0.2954 -0.0237 -0.7352
  586MOL0     C77254  -0.779   9.021   5.989 -0.5728  0.5870  0.2260
  586MOL0     O77255  -0.886   8.947   5.952  0.0749  0.0805  0.2696
  586MOL0     C77256  -1.017   8.995   5.990 -0.0676 -0.0688  0.0532
  586MOL0     C77257  -1.058   8.966   6.147  0.0602  0.7343  0.5000
  586MOL0     C77258  -1.193   9.016   6.192  0.4893 -0.3347 -0.1329
  586MOL0     C77259  -1.229   9.010   6.343 -0.2808 -0.2556  0.4114
  586MOL0     C77260  -1.370   9.056   6.397  0.5067 -0.0539  0.1821
  586MOL0     C77261  -1.374   9.102   6.548 -0.7644 -0.6230 -0.3803
  586MOL0     C77262  -1.456   9.225   6.580  0.1814  0.2965 -0.5156
  586MOL0     C77263  -1.607   9.202   6.594 -0.1495 -0.3776 -0.1877
  586MOL0    Cl77264  -1.660   9.068   6.711 -0.0281 -0.2938  0.3298
  586MOL0     C77265  -0.770   9.149   6.053  0.0652 -0.9046 -0.2712
  586MOL0     C77266  -0.650   9.199   6.078 -0.5583 -0.1815  0.4447
  586MOL0     O77267  -0.268   9.059   5.996 -0.4109  0.2969  0.2020
  586MOL0     C77268  -0.053   9.238   5.995 -0.4071  1.0573  0.5474
  586MOL0     C77269   0.051   9.327   5.996 -0.3539  0.3819 -0.0611
  586MOL0     N77270   0.484   9.973   6.341 -0.0594 -0.5472 -1.2149
  586MOL0     N77271   0.588   9.916   6.393 -0.5375 -0.4867  0.1917
  586MOL0     C77272   1.431  10.385   5.940  0.0614 -0.8366 -0.4937
  586MOL0     C77273   1.530  10.430   5.854  0.1922  0.1642  0.3584
  586MOL0     C77274   1.813  10.472   5.543  0.3648 -0.4187 -0.8056
  586MOL0     C77275   1.937  10.502   5.616  0.8164  0.2543  0.2959
  586MOL0     C77276   2.039  10.572   5.561 -0.0766  0.1874  0.0931
  586MOL0     C77277   2.032  10.619   5.431  0.4774  0.6878  0.2420
  586MOL0     O77278   2.150  10.671   5.381 -0.3510  0.1159  0.6508
  586MOL0     C77279   2.165  10.727   5.252  0.2929  0.8822 -0.8798
  586MOL0     C77280   2.316  10.762   5.230 -0.6480 -0.3134 -1.4471
  586MOL0     C77281   2.383  10.847   5.350  0.3996 -0.1767 -0.0709
  586MOL0     C77282   2.529  10.865   5.324  0.2388  0.0737  1.2400
  586MOL0     C77283   2.565  10.974   5.228 -0.3418  0.2442 -0.4678
  586MOL0     C77284   2.617  11.042   5.144  0.2650 -0.2911  0.4342
  586MOL0     C77285   1.923  10.587   5.356 -0.2427  0.5311  1.2419
  586MOL0     C77286   1.819  10.515   5.409  0.3914  0.2046  0.7343
  586MOL0     H77287   1.666  10.118   5.786 -0.6872 -1.1195  0.7002
  586MOL0     H77288   1.456  10.052   5.914  1.3050 -0.1035 -0.1067
  586MOL0     H77289   1.447  10.232   6.197  0.3502  1.6463 -0.0145
  586MOL0     H77290   1.322  10.122   6.254  0.5845  0.0763  0.8268
  586MOL0     H77291   1.317  10.423   6.210 -0.6615  0.1694 -0.1396
  586MOL0     H77292   1.283  10.347   6.362 -4.3769 -0.5734  0.4094
  586MOL0     H77293   1.099  10.333   6.125 -1.0527 -0.1772  0.0297
  586MOL0     H77294   1.096  10.447   6.268 -1.1945  0.1541 -2.1157
  586MOL0     H77295   1.069  10.228   6.408 -0.8191  0.9797  1.1406
  586MOL0     H77296   0.926  10.290   6.330 -1.8366 -3.0246  0.7408
  586MOL0     H77297   1.095  10.060   6.209  0.1115 -0.2375  1.2942
  586MOL0     H77298   0.960  10.149   6.130 -3.3290 -1.2592  1.2919
  586MOL0     H77299   0.803  10.097   6.279 -0.0367 -0.8434  0.1978
  586MOL0     H77300   0.906  10.019   6.401 -0.7440 -4.2353  0.1125
  586MOL0     H77301   0.845   9.896   6.129  2.3409 -2.8893 -0.0016
  586MOL0     H77302   0.976   9.846   6.224 -0.2176 -0.2841  2.2311
  586MOL0     H77303   0.811   9.789   6.411 -1.7717 -1.6713  0.4703
  586MOL0     H77304   0.795   9.699   6.276 -0.8274 -0.1921  0.3083
  586MOL0     H77305   0.610   9.824   6.068 -1.9254  4.4205 -2.3974
  586MOL0     H77306   0.405   9.956   6.007  0.6730 -0.9156  0.9307
  586MOL0     H77307   0.356  10.080   6.135  0.2833  0.3090  2.9692
  586MOL0     H77308   0.147   9.931   6.103 -1.3005 -2.0328  0.6349
  586MOL0     H77309   0.230   9.891   6.253 -0.8573 -1.2976  0.0301
  586MOL0     H77310   0.323   9.724   6.023  0.5668 -1.9630  1.2227
  586MOL0     H77311   0.304   9.685   6.194 -1.9837 -1.1947  0.1385
  586MOL0     H77312   0.081   9.719   6.010 -1.4223  3.0958  1.8095
  586MOL0     H77313   0.069   9.681   6.188  2.7587 -0.7129  3.0534
  586MOL0     H77314  -0.125   9.596   6.119 -0.1178  2.2951 -3.3983
  586MOL0     H77315  -0.312   9.433   6.099 -0.0888  0.4329 -0.1438
  586MOL0     H77316  -0.458   8.961   5.916 -1.3539 -2.5670 -0.4420
  586MOL0     H77317  -0.673   8.878   5.877  0.8718  0.6621 -2.0713
  586MOL0     H77318  -1.075   8.930   5.925  0.3165 -1.1226  0.7381
  586MOL0     H77319  -1.042   9.100   5.973  2.6491  0.5162 -0.8448
  586MOL0     H77320  -0.978   9.017   6.203  0.6433 -0.9512  1.2574
  586MOL0     H77321  -1.043   8.861   6.175 -0.3828  0.1221 -1.4539
  586MOL0     H77322  -1.265   8.959   6.133  0.9431  0.5753 -1.6131
  586MOL0     H77323  -1.214   9.118   6.157 -2.4785 -0.7682  0.1414
  586MOL0     H77324  -1.231   8.904   6.373  1.0883 -0.1276  0.9843
  586MOL0     H77325  -1.152   9.063   6.399 -1.1231  1.6720 -0.1895
  586MOL0     H77326  -1.440   8.972   6.404  1.1209 -0.4593  1.6803
  586MOL0     H77327  -1.411   9.135   6.332 -1.0209 -0.0845  1.0569
  586MOL0     H77328  -1.266   9.114   6.562 -0.2541 -3.4980 -1.2325
  586MOL0     H77329  -1.401   9.016   6.610  4.9752 -3.8299 -1.6042
  586MOL0     H77330  -1.425   9.256   6.680  0.0224 -2.2524  0.4157
  586MOL0     H77331  -1.422   9.305   6.514  1.0183 -0.9841 -1.7027
  586MOL0     H77332  -1.635   9.169   6.493  0.3314 -2.4502  0.3061
  586MOL0     H77333  -1.662   9.294   6.614 -1.1718 -0.7498 -1.1722
  586MOL0     H77334  -0.867   9.196   6.069 -0.0758 -1.8056  1.9287
  586MOL0     H77335  -0.638   9.278   6.151  4.0014 -0.5417  0.3848
  586MOL0     H77336  -0.033   9.134   5.974  0.3204  1.5002 -1.1172
  586MOL0     H77337   0.153   9.293   5.979  0.8087  2.8626  1.3533
  586MOL0     H77338   1.383  10.467   5.992  1.7868  1.6254 -2.4943
  586MOL0     H77339   1.536  10.535   5.828  2.9323 -0.2638 -1.0349
  586MOL0     H77340   1.948  10.471   5.720 -1.5826 -0.4011  0.4099
  586MOL0     H77341   2.129  10.594   5.617 -0.9268  2.9903  0.4961
  586MOL0     H77342   2.102  10.814   5.232 -1.5109 -0.5083 -1.4618
  586MOL0     H77343   2.137  10.645   5.186  4.3011 -1.2734 -0.2799
  586MOL0     H77344   2.361  10.663   5.235  2.1446  0.9535  1.7665
  586MOL0     H77345   2.341  10.798   5.129  1.6931 -1.8171 -1.4597
  586MOL0     H77346   2.373  10.798   5.446  1.1258 -2.6786 -1.1870
  586MOL0     H77347   2.333  10.944   5.360  0.6899 -0.0744  0.4109
  586MOL0     H77348   2.574  10.879   5.423  0.3813  1.1830  1.0362
  586MOL0     H77349   2.572  10.769   5.294 -0.7331 -0.5915  1.9141
  586MOL0     H77350   2.677  11.097   5.075 -0.3958  0.2855  0.3029
  586MOL0     H77351   1.920  10.621   5.253 -1.4317  1.4809  1.5679
  586MOL0     H77352   1.736  10.488   5.345 -1.9059 -0.1562  3.6581
  587MOL0     O77353   6.133   2.955   1.402 -0.2202  0.5885  0.3038
  587MOL0     C77354   6.173   3.021   1.497 -0.4966 -0.1584  0.1970
  587MOL0     O77355   6.093   3.094   1.580  0.4133 -0.2960 -0.2715
  587MOL0     C77356   5.961   3.110   1.548 -0.2391  0.8224  0.9638
  587MOL0     C77357   5.868   3.086   1.646  0.3995  0.7780  0.4563
  587MOL0     C77358   5.726   3.104   1.624 -0.1003  0.3702 -0.4359
  587MOL0     C77359   5.678   3.146   1.501 -0.8680 -0.1703  0.2483
  587MOL0     O77360   5.545   3.162   1.456 -0.2879  0.5978  0.4746
  587MOL0     C77361   5.438   3.113   1.547  0.1656  0.4724  0.1751
  587MOL0     C77362   5.345   3.007   1.498 -0.5889  0.0665 -1.2882
  587MOL0     C77363   5.425   2.880   1.448 -0.3277 -0.7410  0.0641
  587MOL0     C77364   5.520   2.824   1.547  0.1546 -0.1528 -0.0720
  587MOL0     C77365   5.631   2.748   1.487 -0.1531 -0.3153  0.2292
  587MOL0     C77366   5.591   2.601   1.474 -0.2042 -0.4885 -0.4783
  587MOL0     C77367   5.687   2.541   1.373 -0.2609  0.2300 -0.4864
  587MOL0     C77368   5.835   2.530   1.430 -0.0341 -0.2999 -0.0009
  587MOL0     N77369   5.916   2.460   1.335 -0.0886  0.2046 -0.5660
  587MOL0     C77370   6.048   2.474   1.325 -0.3756 -0.8955 -0.2855
  587MOL0     C77371   6.094   2.391   1.226 -0.4074 -0.5352  0.1296
  587MOL0     C77372   6.225   2.373   1.170 -0.5901 -0.1246  0.7564
  587MOL0     C77373   6.317   2.391   1.300 -0.1308 -0.2118  0.1672
  587MOL0     C77374   6.451   2.316   1.287 -0.1900  0.0934 -0.3207
  587MOL0     C77375   6.554   2.391   1.194 -0.4848  1.0831  0.7179
  587MOL0     O77376   6.600   2.499   1.264  0.6228  0.0874  0.0347
  587MOL0     C77377   6.733   2.521   1.249 -0.0041 -0.4237  0.6076
  587MOL0     C77378   6.780   2.597   1.133  0.1532  0.2443 -0.3884
  587MOL0     C77379   6.913   2.633   1.119  0.4534 -0.6650 -0.0696
  587MOL0     C77380   7.010   2.606   1.218 -0.2081  0.5154 -0.2844
  587MOL0     C77381   7.147   2.644   1.202  0.4613  0.3847 -0.5234
  587MOL0     O77382   7.194   2.614   1.078  0.0933 -0.7445  0.5608
  587MOL0     C77383   7.338   2.628   1.049 -0.4094  0.1190  0.4217
  587MOL0     C77384   7.434   2.624   1.156  0.3699 -0.4216  0.8490
  587MOL0     C77385   7.565   2.646   1.127 -0.1054 -0.2326 -1.2688
  587MOL0     C77386   7.614   2.655   0.993  0.8466  0.2613  0.2646
  587MOL0     O77387   7.745   2.679   0.967 -0.4283 -0.2324 -0.5069
  587MOL0     C77388   7.822   2.565   0.922 -1.2401  0.0196 -0.5565
  587MOL0     C77389   7.945   2.622   0.861 -0.1418  0.9826  0.4200
  587MOL0     C77390   8.028   2.517   0.794 -0.2132  0.2922  0.5742
  587MOL0     C77391   8.138   2.585   0.712  0.9173 -0.3509  0.5636
  587MOL0     C77392   8.226   2.480   0.651  0.5753 -0.6158  0.3849
  587MOL0     C77393   8.311   2.555   0.550  0.2442 -0.3013 -0.3203
  587MOL0     C77394   8.381   2.458   0.449 -0.9132  0.1171 -0.4760
  587MOL0     C77395   8.516   2.519   0.379  0.0526 -0.1018 -0.0529
  587MOL0    Cl77396   8.588   2.403   0.253 -0.3293 -0.1473 -0.2206
  587MOL0     C77397   7.518   2.670   0.889  0.1142 -0.6419  0.9799
  587MOL0     C77398   7.375   2.657   0.919 -0.3636 -0.7530 -0.7152
  587MOL0     O77399   7.210   2.691   1.297  0.7816  0.5961 -0.3562
  587MOL0     C77400   6.967   2.541   1.329  1.2750 -0.8419 -0.5407
  587MOL0     C77401   6.830   2.490   1.344  0.0400  0.2682 -1.2994
  587MOL0     N77402   5.982   2.317   1.179 -0.4616  1.2905  0.3033
  587MOL0     N77403   5.874   2.356   1.249 -0.1901  0.3619 -0.0540
  587MOL0     C77404   5.776   3.177   1.400 -0.0876 -0.1046 -0.6913
  587MOL0     C77405   5.915   3.156   1.421 -0.1350 -0.5984 -0.2433
  587MOL0     C77406   6.323   3.027   1.527 -0.0127 -0.6493 -0.4729
  587MOL0     C77407   6.371   3.109   1.628  0.7725  0.2440 -0.2339
  587MOL0     C77408   6.503   3.119   1.659  0.0850  0.7346  0.0882
  587MOL0     C77409   6.594   3.049   1.581 -0.1823 -0.5464 -0.4608
  587MOL0     O77410   6.725   3.062   1.613  0.5280 -0.1140  0.0722
  587MOL0     C77411   6.825   2.974   1.561 -1.1356 -0.4092  0.5975
  587MOL0     C77412   6.881   3.043   1.428 -0.0572  0.3695 -0.0785
  587MOL0     C77413   6.958   2.940   1.340 -0.0615  0.2438  0.2371
  587MOL0     C77414   6.988   2.984   1.201 -0.1938  0.0396  0.6814
  587MOL0     C77415   6.861   2.991   1.121 -0.7693 -0.4008 -1.0321
  587MOL0     C77416   6.759   3.006   1.060 -0.2428 -0.4445  0.6860
  587MOL0     C77417   6.546   2.961   1.480 -0.1569  0.8729  0.3942
  587MOL0     C77418   6.414   2.950   1.451  0.8174  0.6411 -0.8439
  587MOL0     H77419   5.904   3.068   1.746  1.5170  0.9145  0.0923
  587MOL0     H77420   5.678   3.083   1.719  0.3061  2.5828  0.3185
  587MOL0     H77421   5.376   3.203   1.555  3.1955  2.8061 -0.9130
  587MOL0     H77422   5.475   3.082   1.646 -2.2555 -0.7469  0.7740
  587MOL0     H77423   5.297   3.057   1.414  0.7194 -0.6275 -2.4841
  587MOL0     H77424   5.281   2.975   1.581  1.1223  1.6735  0.7499
  587MOL0     H77425   5.486   2.932   1.374 -2.4822  0.6127 -0.8553
  587MOL0     H77426   5.364   2.804   1.399 -1.6064  1.7501 -2.4590
  587MOL0     H77427   5.557   2.905   1.611 -2.3230  1.7055 -0.8686
  587MOL0     H77428   5.466   2.754   1.611  0.9722  1.3277  2.3620
  587MOL0     H77429   5.712   2.750   1.560 -1.4773 -0.5297  1.7573
  587MOL0     H77430   5.653   2.800   1.393 -4.7729 -0.8171 -1.4009
  587MOL0     H77431   5.491   2.593   1.433  0.0331 -2.2793 -0.7610
  587MOL0     H77432   5.603   2.550   1.570 -2.1331  0.8789  0.5422
  587MOL0     H77433   5.646   2.445   1.340 -2.0866  0.9005 -0.2804
  587MOL0     H77434   5.696   2.604   1.284 -1.4663  0.4918 -0.4410
  587MOL0     H77435   5.836   2.468   1.520  1.7317 -1.6547 -0.8928
  587MOL0     H77436   5.872   2.631   1.453 -0.9898  0.5616 -2.0059
  587MOL0     H77437   6.110   2.552   1.370  0.7251 -0.5830 -2.2188
  587MOL0     H77438   6.253   2.453   1.101 -0.5629 -0.7992 -0.0225
  587MOL0     H77439   6.233   2.269   1.139  0.9914 -0.2316  1.4737
  587MOL0     H77440   6.272   2.345   1.388 -0.8114  0.5186  0.2121
  587MOL0     H77441   6.330   2.498   1.317 -1.4349  0.2903 -1.6838
  587MOL0     H77442   6.488   2.296   1.387  0.1608  1.1705 -0.2199
  587MOL0     H77443   6.416   2.218   1.252 -0.2922  0.0538 -0.1060
  587MOL0     H77444   6.524   2.425   1.094  2.0762  2.1523  0.2466
  587MOL0     H77445   6.632   2.318   1.168 -1.7368 -0.7457  1.8627
  587MOL0     H77446   6.702   2.624   1.062 -0.0128  1.4708  0.2508
  587MOL0     H77447   6.945   2.685   1.029 -0.1466  1.0689  0.6824
  587MOL0     H77448   7.403   2.603   1.258 -1.8116  0.2813  0.3859
  587MOL0     H77449   7.639   2.649   1.206  0.9221  0.1229 -2.2125
  587MOL0     H77450   7.775   2.499   0.848 -0.5405 -1.7509  0.5047
  587MOL0     H77451   7.847   2.491   0.999  0.0273 -0.6312 -1.5542
  587MOL0     H77452   8.008   2.667   0.939 -0.2813 -1.1685  1.8457
  587MOL0     H77453   7.934   2.703   0.788 -1.2548  1.2304  0.8435
  587MOL0     H77454   7.968   2.460   0.723 -0.0877 -1.4150  1.7588
  587MOL0     H77455   8.069   2.451   0.871  2.9672  1.1621 -0.2255
  587MOL0     H77456   8.105   2.649   0.630 -0.4713 -4.1964 -2.2124
  587MOL0     H77457   8.196   2.645   0.783  1.5872 -0.0652 -0.2074
  587MOL0     H77458   8.162   2.400   0.612 -0.1965  0.5692 -0.8933
  587MOL0     H77459   8.290   2.449   0.734  0.8955  1.2959  0.9034
  587MOL0     H77460   8.381   2.614   0.609 -0.4951 -0.9054  1.2092
  587MOL0     H77461   8.245   2.623   0.495 -2.3527 -3.0239 -0.8783
  587MOL0     H77462   8.393   2.370   0.514 -2.4379 -0.0246 -0.3595
  587MOL0     H77463   8.300   2.429   0.382 -1.8687  1.5780 -0.0112
  587MOL0     H77464   8.585   2.540   0.461 -2.7803  2.3359  1.9329
  587MOL0     H77465   8.503   2.615   0.329  2.5919  0.0592 -0.5360
  587MOL0     H77466   7.535   2.700   0.786  0.0351 -0.4789  1.0146
  587MOL0     H77467   7.287   2.668   0.855 -2.3294  0.2616  1.9643
  587MOL0     H77468   7.032   2.513   1.411 -0.0745 -3.1014 -0.1529
  587MOL0     H77469   6.803   2.427   1.429  2.0801  3.2560  1.8377
  587MOL0     H77470   5.739   3.195   1.300 -1.8616 -4.6766 -1.0980
  587MOL0     H77471   5.989   3.160   1.341  1.5138 -1.3112  1.1706
  587MOL0     H77472   6.295   3.168   1.679 -0.2863 -1.9689  0.8838
  587MOL0     H77473   6.535   3.194   1.731  1.4407  0.6166 -0.3525
  587MOL0     H77474   6.781   2.876   1.540 -0.8261 -0.2582 -0.8876
  587MOL0     H77475   6.911   2.952   1.625 -1.6488 -3.2205  0.4341
  587MOL0     H77476   6.806   3.090   1.364  0.6340 -0.7943 -1.8378
  587MOL0     H77477   6.936   3.133   1.456  1.0163  0.0742 -1.1349
  587MOL0     H77478   6.897   2.850   1.334  1.1421 -0.6570  0.9645
  587MOL0     H77479   7.049   2.931   1.400 -0.7127 -0.2556  1.1704
  587MOL0     H77480   7.037   3.081   1.217  0.7723  0.4305 -3.5219
  587MOL0     H77481   7.056   2.922   1.144 -1.3872 -1.5481  0.9175
  587MOL0     H77482   6.677   3.033   0.996  2.3785  1.7179 -2.0576
  587MOL0     H77483   6.620   2.904   1.425 -0.6160 -0.1983  0.8626
  587MOL0     H77484   6.373   2.881   1.378  0.5960 -0.9274  0.6887
  588MOL0     O77485  11.007   2.907   3.562 -0.4099 -0.8856 -0.0470
  588MOL0     C77486  11.057   2.799   3.590  0.2676 -0.5524 -0.1172
  588MOL0     O77487  11.004   2.706   3.674 -0.0535  0.1208  0.0377
  588MOL0     C77488  10.894   2.721   3.751 -0.1028 -0.2950  0.7089
  588MOL0     C77489  10.872   2.841   3.817  0.1956 -0.0773  0.0283
  588MOL0     C77490  10.759   2.868   3.887 -0.0732 -0.2260  0.3339
  588MOL0     C77491  10.669   2.761   3.912 -1.0784 -0.8450 -0.1957
  588MOL0     O77492  10.558   2.793   3.993 -0.5858  0.2226  0.1157
  588MOL0     C77493  10.475   2.682   4.036 -0.0135  0.1183  0.0167
  588MOL0     C77494  10.366   2.740   4.133 -0.0984  0.7968 -0.3122
  588MOL0     C77495  10.252   2.621   4.167 -0.0537 -0.3792  0.2234
  588MOL0     C77496  10.123   2.669   4.231 -0.1786  0.4852  0.3827
  588MOL0     C77497  10.049   2.550   4.287  0.1460  0.1019  0.4270
  588MOL0     C77498   9.918   2.587   4.362 -0.5280  0.0952  0.1517
  588MOL0     C77499   9.852   2.462   4.433  0.2494 -1.1804  0.7335
  588MOL0     C77500   9.741   2.499   4.532  0.5350 -0.6159  0.1487
  588MOL0     N77501   9.622   2.562   4.471  0.2416  0.6590  0.7566
  588MOL0     C77502   9.527   2.503   4.385  0.1672  0.0417 -1.1013
  588MOL0     C77503   9.442   2.602   4.353  0.6743 -0.0233  0.2254
  588MOL0     C77504   9.323   2.589   4.258 -0.9976 -0.3553  0.0519
  588MOL0     C77505   9.208   2.682   4.298  0.5588 -0.1841  0.3641
  588MOL0     C77506   9.103   2.662   4.191 -0.0011  0.0675 -0.9274
  588MOL0     C77507   9.005   2.776   4.187 -0.8032  0.0987 -0.3179
  588MOL0     O77508   8.895   2.728   4.258  0.0184  0.7851  0.0013
  588MOL0     C77509   8.794   2.808   4.301 -0.5216  0.9720 -0.4363
  588MOL0     C77510   8.777   2.940   4.261  0.2799  0.1049  1.0591
  588MOL0     C77511   8.663   3.017   4.298  0.4206  0.4935 -0.7072
  588MOL0     C77512   8.559   2.945   4.365 -0.1395  0.6823  0.3032
  588MOL0     C77513   8.423   3.006   4.374 -0.0221 -0.5827  0.9637
  588MOL0     O77514   8.313   2.933   4.401 -0.3642 -0.4058 -0.2591
  588MOL0     C77515   8.219   2.977   4.491 -0.0094  0.1324  0.5384
  588MOL0     C77516   8.254   3.037   4.613 -0.5441  0.2899 -0.1126
  588MOL0     C77517   8.153   3.081   4.705  0.6935  0.4668 -0.5133
  588MOL0     C77518   8.015   3.053   4.679 -0.0108 -0.8656 -0.6488
  588MOL0     O77519   7.927   3.110   4.768  0.3516 -0.4904  0.2588
  588MOL0     C77520   7.812   3.170   4.716 -0.2647  0.5008 -0.5538
  588MOL0     C77521   7.708   3.063   4.710  0.5198 -0.4577 -0.3280
  588MOL0     C77522   7.661   3.036   4.858  0.0734 -0.9647 -0.1817
  588MOL0     C77523   7.549   2.942   4.864 -0.6570 -0.9355 -0.1300
  588MOL0     C77524   7.529   2.907   5.013  0.5630  1.0363 -0.2523
  588MOL0     C77525   7.398   2.818   5.008 -0.1765  0.0640  0.0343
  588MOL0     C77526   7.388   2.750   5.147 -0.5069 -0.5651 -0.5502
  588MOL0     C77527   7.307   2.634   5.152  0.3878  0.3583 -0.0327
  588MOL0    Cl77528   7.135   2.633   5.086  0.8162  0.1315 -0.1605
  588MOL0     C77529   7.983   3.000   4.552  1.3095  0.4639  0.0853
  588MOL0     C77530   8.083   2.962   4.465  0.5611 -0.7422 -0.3014
  588MOL0     O77531   8.417   3.132   4.360  0.5430  0.7651 -0.6423
  588MOL0     C77532   8.576   2.813   4.420 -0.2712 -0.0162 -0.8871
  588MOL0     C77533   8.696   2.743   4.385 -0.1169  0.5699  0.4938
  588MOL0     N77534   9.496   2.720   4.403 -0.7485 -0.6647  0.7444
  588MOL0     N77535   9.605   2.693   4.470  0.1495 -0.1574 -0.5572
  588MOL0     C77536  10.699   2.636   3.848  0.6658  0.9871  0.0262
  588MOL0     C77537  10.807   2.616   3.775 -0.6751 -0.1549 -0.5375
  588MOL0     C77538  11.183   2.775   3.521 -0.7902 -0.7209  0.1378
  588MOL0     C77539  11.243   2.881   3.432  0.5417  0.3507 -0.3028
  588MOL0     C77540  11.347   2.846   3.342 -0.6395 -0.4809 -0.0485
  588MOL0     C77541  11.410   2.725   3.352 -0.2671  0.2611  0.4933
  588MOL0     O77542  11.516   2.687   3.271 -0.1118  0.1761 -0.0725
  588MOL0     C77543  11.573   2.778   3.176 -0.0556  0.7496 -0.6690
  588MOL0     C77544  11.666   2.697   3.083 -0.9197  0.0075 -0.4154
  588MOL0     C77545  11.780   2.635   3.167 -0.8315  0.0956  0.4394
  588MOL0     C77546  11.754   2.500   3.240  0.4178 -0.0108 -0.9678
  588MOL0     C77547  11.881   2.469   3.295 -0.5208 -0.0229 -0.0096
  588MOL0     C77548  11.991   2.435   3.340 -0.1295  0.0819  0.2068
  588MOL0     C77549  11.361   2.624   3.433 -0.7427 -0.0619 -0.3008
  588MOL0     C77550  11.243   2.653   3.508  0.0760 -0.3303 -1.0159
  588MOL0     H77551  10.944   2.922   3.806  1.1751 -0.4594  2.7015
  588MOL0     H77552  10.741   2.970   3.921  0.4546  0.3912 -1.1502
  588MOL0     H77553  10.532   2.602   4.084 -2.5629 -1.1803  1.0540
  588MOL0     H77554  10.431   2.633   3.948  2.0765 -0.9328 -0.5063
  588MOL0     H77555  10.308   2.811   4.074 -1.7062 -0.5872 -0.4798
  588MOL0     H77556  10.411   2.780   4.225 -0.8195 -0.6043  0.6905
  588MOL0     H77557  10.305   2.552   4.233  0.4936  0.3718  0.5685
  588MOL0     H77558  10.226   2.573   4.071  1.3411  0.3690 -0.5503
  588MOL0     H77559  10.135   2.753   4.301  0.2915  0.1662  0.6916
  588MOL0     H77560  10.058   2.705   4.150  0.7318 -1.3930 -1.2758
  588MOL0     H77561  10.112   2.492   4.355 -1.3772 -1.9089  0.2205
  588MOL0     H77562  10.033   2.477   4.207 -1.7968 -1.9164  2.5118
  588MOL0     H77563   9.851   2.626   4.285 -2.7261 -1.6719  1.0210
  588MOL0     H77564   9.949   2.660   4.437  2.8503 -0.0358 -0.9407
  588MOL0     H77565   9.813   2.400   4.352  0.3646  2.9118 -2.8588
  588MOL0     H77566   9.936   2.411   4.480  2.5232  1.4020 -0.2680
  588MOL0     H77567   9.784   2.560   4.612 -0.6731 -1.6211  1.6168
  588MOL0     H77568   9.705   2.407   4.580  2.5013 -2.6917 -2.0577
  588MOL0     H77569   9.530   2.400   4.352 -0.7346 -0.2276 -0.3929
  588MOL0     H77570   9.294   2.484   4.262  1.1194 -0.9567  1.5638
  588MOL0     H77571   9.359   2.609   4.156  0.3271 -3.6151 -0.2243
  588MOL0     H77572   9.244   2.785   4.296 -0.8530  0.4278  2.8656
  588MOL0     H77573   9.167   2.651   4.395 -0.2307  0.5698  0.2776
  588MOL0     H77574   9.157   2.666   4.095  0.2345  0.9354 -0.7648
  588MOL0     H77575   9.050   2.567   4.200 -1.0087  0.6093 -1.0270
  588MOL0     H77576   8.980   2.795   4.083 -1.0052  0.7388 -0.1610
  588MOL0     H77577   9.063   2.862   4.224  2.0284 -1.8532  0.0605
  588MOL0     H77578   8.842   2.981   4.184 -0.1295  0.3397  0.8360
  588MOL0     H77579   8.651   3.113   4.248  0.7788  0.8676 -0.0920
  588MOL0     H77580   8.357   3.070   4.628 -0.6487  0.4480  0.2627
  588MOL0     H77581   8.179   3.141   4.792 -0.3173  0.4533 -0.1882
  588MOL0     H77582   7.841   3.219   4.623  0.2198  3.1471  0.9156
  588MOL0     H77583   7.796   3.254   4.784 -1.0548  1.0646 -1.4193
  588MOL0     H77584   7.745   2.972   4.661  0.5210 -0.4947 -0.2576
  588MOL0     H77585   7.624   3.090   4.644  0.2563  0.1394  0.2342
  588MOL0     H77586   7.639   3.134   4.902  0.7680 -0.0149 -1.8328
  588MOL0     H77587   7.749   3.000   4.911  1.9085 -0.0928 -2.4782
  588MOL0     H77588   7.464   2.988   4.813 -0.2476 -1.8152 -1.6806
  588MOL0     H77589   7.575   2.857   4.799  0.5529 -0.4434 -0.3250
  588MOL0     H77590   7.511   2.998   5.072 -0.0961 -0.4200  1.9003
  588MOL0     H77591   7.618   2.854   5.047 -1.1406 -1.8606  0.0097
  588MOL0     H77592   7.413   2.736   4.938 -2.2063 -0.1361 -0.2064
  588MOL0     H77593   7.316   2.881   4.974  0.8792  2.6367  1.9051
  588MOL0     H77594   7.491   2.731   5.177 -0.3028  0.1300 -0.7864
  588MOL0     H77595   7.346   2.826   5.214  1.4862  0.5282 -0.4634
  588MOL0     H77596   7.291   2.597   5.253 -1.0014 -0.0552 -0.3842
  588MOL0     H77597   7.370   2.556   5.107 -0.6403 -0.0115 -0.8948
  588MOL0     H77598   7.883   3.002   4.509  0.4854 -2.6445  1.5867
  588MOL0     H77599   8.053   2.932   4.365 -1.0737  0.3806 -0.1759
  588MOL0     H77600   8.512   2.772   4.497 -1.3040  0.2161 -1.5955
  588MOL0     H77601   8.723   2.641   4.410 -0.8982  0.3360  0.3953
  588MOL0     H77602  10.632   2.550   3.847  0.3868  1.1570  1.4243
  588MOL0     H77603  10.829   2.522   3.725  0.3463 -0.0387 -0.3317
  588MOL0     H77604  11.218   2.986   3.424 -1.1550  0.0471  0.5571
  588MOL0     H77605  11.397   2.923   3.283  0.0777 -0.1110  1.0201
  588MOL0     H77606  11.637   2.852   3.226 -2.1931  2.9031 -0.9405
  588MOL0     H77607  11.486   2.812   3.120 -0.7682 -2.0086 -1.3542
  588MOL0     H77608  11.602   2.619   3.040  0.2136 -3.1268  3.0308
  588MOL0     H77609  11.709   2.746   2.996 -3.0994  2.6799 -0.1336
  588MOL0     H77610  11.814   2.711   3.238  1.0229 -0.5832  0.3172
  588MOL0     H77611  11.865   2.617   3.101  0.8282 -5.0164  3.4111
  588MOL0     H77612  11.678   2.514   3.317  0.9281 -1.6021 -0.1095
  588MOL0     H77613  11.706   2.425   3.177  0.6308 -0.7316 -0.2904
  588MOL0     H77614  12.077   2.413   3.399  0.7341  2.2084 -0.1849
  588MOL0     H77615  11.408   2.526   3.431  0.6656  0.5809 -1.9376
  588MOL0     H77616  11.195   2.569   3.557  0.2702 -1.1918 -2.2621
  589MOL0     O77617   4.983   4.601  11.196 -1.1085  1.0770  0.0562
  589MOL0     C77618   4.968   4.681  11.104 -0.2204  0.0190 -0.2337
  589MOL0     O77619   5.036   4.688  10.988  0.6225 -0.2455  0.2546
  589MOL0     C77620   5.142   4.604  10.960  0.0108 -0.1575  0.0319
  589MOL0     C77621   5.277   4.645  10.957  0.3389 -0.4766  0.8065
  589MOL0     C77622   5.377   4.564  10.902 -0.0056 -0.7467  0.1994
  589MOL0     C77623   5.349   4.435  10.877  0.5361  0.8188 -0.7162
  589MOL0     O77624   5.445   4.344  10.841 -0.0674  0.0166  0.0612
  589MOL0     C77625   5.516   4.284  10.945 -0.4300 -0.4919 -0.7452
  589MOL0     C77626   5.655   4.276  10.895  0.2273  0.2470  0.5981
  589MOL0     C77627   5.739   4.177  10.975  0.7887  0.7353  0.5512
  589MOL0     C77628   5.876   4.150  10.910 -0.9374  0.0466  1.0029
  589MOL0     C77629   5.935   4.030  10.993  0.4839  0.4883 -0.9778
  589MOL0     C77630   6.086   4.019  10.962  0.2162 -0.3601 -0.3525
  589MOL0     C77631   6.150   3.897  11.020 -0.4073 -0.4976  0.6185
  589MOL0     C77632   6.193   3.808  10.907  0.3745  0.1490  0.5700
  589MOL0     N77633   6.300   3.715  10.953  0.5006 -0.5101 -0.2233
  589MOL0     C77634   6.436   3.748  10.958 -0.0794 -1.1271 -0.0564
  589MOL0     C77635   6.498   3.632  10.993 -0.2284 -0.5058  0.1934
  589MOL0     C77636   6.645   3.601  10.998 -0.5488  0.0852  0.0356
  589MOL0     C77637   6.692   3.627  11.135  0.4728 -0.6075 -0.1883
  589MOL0     C77638   6.847   3.606  11.144 -0.1335 -0.3121  0.4230
  589MOL0     C77639   6.911   3.623  11.288 -0.3683 -0.6219 -0.1763
  589MOL0     O77640   7.043   3.568  11.274 -0.6871  0.4519  1.0037
  589MOL0     C77641   7.117   3.558  11.391 -0.0213  0.1870  0.3990
  589MOL0     C77642   7.103   3.634  11.507 -0.0502  0.5715  0.5418
  589MOL0     C77643   7.182   3.608  11.620  0.5985  0.2708 -0.7901
  589MOL0     C77644   7.284   3.518  11.614  0.4192  1.1006 -0.4219
  589MOL0     C77645   7.367   3.498  11.736 -0.5323  0.2649 -0.8457
  589MOL0     O77646   7.454   3.393  11.736 -0.2495 -0.5885  0.1205
  589MOL0     C77647   7.527   3.359  11.849  0.3535 -1.3696 -0.3920
  589MOL0     C77648   7.660   3.404  11.870  0.4129 -0.5457  0.9836
  589MOL0     C77649   7.737   3.362  11.981  0.0063 -0.6259 -0.4647
  589MOL0     C77650   7.697   3.267  12.067  0.2590  0.2803 -0.7773
  589MOL0     O77651   7.790   3.219  12.163 -0.0717  0.4350  0.4615
  589MOL0     C77652   7.757   3.121  12.260  0.3109  1.2354 -0.5111
  589MOL0     C77653   7.879   3.083  12.348  0.7451  0.7299  0.8846
  589MOL0     C77654   7.841   3.014  12.476 -0.2633  0.0772  0.2699
  589MOL0     C77655   7.951   2.962  12.571 -0.4347 -0.4502  0.3241
  589MOL0     C77656   7.964   2.809  12.556  1.1984  0.1978  0.0496
  589MOL0     C77657   8.110   2.770  12.582  0.4503 -0.2378  0.2419
  589MOL0     C77658   8.125   2.616  12.575 -0.8687  0.0065  0.2954
  589MOL0     C77659   8.268   2.571  12.620 -0.3300  0.1433  0.4642
  589MOL0    Cl77660   8.358   2.660  12.747  0.3853 -0.6218  0.2044
  589MOL0     C77661   7.558   3.226  12.041 -1.0126 -0.0433 -0.0132
  589MOL0     C77662   7.473   3.273  11.945 -0.3286  1.3880  0.1166
  589MOL0     O77663   7.342   3.562  11.837  0.0878  0.1273 -0.0203
  589MOL0     C77664   7.301   3.444  11.496  0.1484 -0.2002 -0.0239
  589MOL0     C77665   7.215   3.461  11.388 -0.3715 -0.0704 -0.3171
  589MOL0     N77666   6.400   3.532  10.997  0.5307 -0.0055 -0.5741
  589MOL0     N77667   6.283   3.584  10.978  0.0211  0.3424 -0.5428
  589MOL0     C77668   5.222   4.381  10.896  0.0018  0.3790 -0.5577
  589MOL0     C77669   5.119   4.468  10.941  0.3299  0.4618 -0.6655
  589MOL0     C77670   4.861   4.790  11.109  0.1585  0.4099 -0.6212
  589MOL0     C77671   4.787   4.811  11.228 -0.8880  0.2445  0.6653
  589MOL0     C77672   4.693   4.915  11.239  0.2458 -0.0723  0.2207
  589MOL0     C77673   4.663   4.997  11.133 -0.2465 -0.1028 -0.3464
  589MOL0     O77674   4.560   5.087  11.152 -0.1291  0.6161  0.0452
  589MOL0     C77675   4.482   5.113  11.032 -0.5569 -0.2883  0.1139
  589MOL0     C77676   4.343   5.170  11.076  0.0183  0.1844  0.2787
  589MOL0     C77677   4.232   5.191  10.967  0.0123  0.8562 -0.0516
  589MOL0     C77678   4.096   5.218  11.037 -0.5330 -0.1951  0.2672
  589MOL0     C77679   4.045   5.100  11.114  0.7111 -0.3094 -1.0658
  589MOL0     C77680   4.009   5.005  11.181  0.5015  1.3569  0.1446
  589MOL0     C77681   4.728   4.973  11.007 -0.3148  0.4333 -0.7518
  589MOL0     C77682   4.827   4.870  10.995  0.5750 -0.0355 -0.3317
  589MOL0     H77683   5.296   4.751  10.968  1.0935 -0.3475 -1.3266
  589MOL0     H77684   5.476   4.607  10.899 -0.9910  1.7355  0.3168
  589MOL0     H77685   5.471   4.190  10.979 -1.4330 -0.5452 -2.1272
  589MOL0     H77686   5.519   4.349  11.033  1.0533 -0.2906 -0.9314
  589MOL0     H77687   5.694   4.378  10.901 -0.0914  0.3340  1.4648
  589MOL0     H77688   5.651   4.248  10.789  0.5712 -1.9507  1.1095
  589MOL0     H77689   5.693   4.080  10.995 -1.3565  1.1278 -1.9506
  589MOL0     H77690   5.760   4.223  11.072 -2.1932 -2.0956  2.7564
  589MOL0     H77691   5.878   4.136  10.801  0.9146  4.3904  0.2444
  589MOL0     H77692   5.935   4.241  10.924 -0.2499  0.0378 -1.3182
  589MOL0     H77693   5.889   3.933  10.971  1.8048 -0.5788  0.7561
  589MOL0     H77694   5.923   4.045  11.100  2.1044  1.3432 -0.8980
  589MOL0     H77695   6.142   4.107  10.995 -0.1576 -0.5674  0.9088
  589MOL0     H77696   6.096   4.027  10.854 -4.6086  3.8863 -0.8235
  589MOL0     H77697   6.228   3.923  11.091  0.0592 -0.4848  0.1052
  589MOL0     H77698   6.079   3.842  11.083  0.8098 -0.9067  1.6758
  589MOL0     H77699   6.240   3.857  10.822  0.7002 -2.3271 -0.7726
  589MOL0     H77700   6.115   3.741  10.870  0.0653 -0.1176  1.6770
  589MOL0     H77701   6.489   3.841  10.942  1.9456 -2.3252 -0.7851
  589MOL0     H77702   6.696   3.663  10.924 -1.3163  0.0337 -0.5630
  589MOL0     H77703   6.661   3.498  10.964 -3.2146 -0.9830  1.6762
  589MOL0     H77704   6.653   3.565  11.217  1.1497 -0.8805 -0.0655
  589MOL0     H77705   6.667   3.731  11.157  0.1914 -0.4022 -1.3994
  589MOL0     H77706   6.854   3.504  11.105 -1.3518  0.1708 -1.1598
  589MOL0     H77707   6.903   3.683  11.090 -0.6605  0.0142  0.3321
  589MOL0     H77708   6.851   3.552  11.346 -1.3034  1.3798  1.4287
  589MOL0     H77709   6.903   3.723  11.330  0.7110 -0.3276 -0.6507
  589MOL0     H77710   7.019   3.702  11.519  0.7675  1.5627  0.7889
  589MOL0     H77711   7.156   3.655  11.714 -1.3791  0.1624 -1.2373
  589MOL0     H77712   7.709   3.472  11.800 -1.7307  3.4908  3.0162
  589MOL0     H77713   7.830   3.417  11.994 -0.4724 -0.0312  0.5972
  589MOL0     H77714   7.714   3.033  12.212 -0.9108  2.5587 -1.9868
  589MOL0     H77715   7.676   3.163  12.320 -1.3591 -3.9843  1.4120
  589MOL0     H77716   7.935   3.170  12.382  0.7893  1.2807 -0.5240
  589MOL0     H77717   7.940   3.019  12.284  2.0227  1.8508  0.9382
  589MOL0     H77718   7.773   2.936  12.441  0.8043 -0.0430 -1.6565
  589MOL0     H77719   7.793   3.096  12.530 -0.3457  0.5870 -0.5699
  589MOL0     H77720   8.043   3.015  12.546  1.3213 -3.8891 -1.1215
  589MOL0     H77721   7.926   2.983  12.675  0.3934 -0.7476  0.5874
  589MOL0     H77722   7.920   2.781  12.460 -2.9745 -1.8818  2.2992
  589MOL0     H77723   7.896   2.768  12.631  2.0176 -1.0882  0.1212
  589MOL0     H77724   8.142   2.801  12.681  0.8448  3.0688 -0.8073
  589MOL0     H77725   8.164   2.814  12.498 -0.2347  0.3782  0.1133
  589MOL0     H77726   8.066   2.561  12.650  1.0944 -1.5913  0.7673
  589MOL0     H77727   8.111   2.594  12.469 -0.4924  0.4688  0.1497
  589MOL0     H77728   8.331   2.576  12.530 -2.9219  2.4845 -1.4184
  589MOL0     H77729   8.261   2.468  12.657 -0.4255 -0.3498 -0.8649
  589MOL0     H77730   7.518   3.159  12.116  1.0381  0.4654  1.6430
  589MOL0     H77731   7.370   3.239  11.939 -0.3204  1.3152  0.3919
  589MOL0     H77732   7.378   3.368  11.498 -1.1509 -1.5792 -0.4319
  589MOL0     H77733   7.240   3.420  11.291 -2.7419 -0.4573 -0.8134
  589MOL0     H77734   5.202   4.277  10.875 -0.2719  0.0891  1.0217
  589MOL0     H77735   5.020   4.425  10.936  0.9746 -0.9223 -3.8355
  589MOL0     H77736   4.813   4.748  11.313  1.7174  0.7427  0.3283
  589MOL0     H77737   4.658   4.937  11.339  0.3683 -0.7442  0.4148
  589MOL0     H77738   4.469   5.023  10.972  0.9833  0.2060 -1.0170
  589MOL0     H77739   4.536   5.181  10.965 -2.7864  0.3558 -1.1128
  589MOL0     H77740   4.302   5.095  11.145  0.4589 -0.9206 -0.6217
  589MOL0     H77741   4.370   5.263  11.125  1.9388  0.1009 -0.5435
  589MOL0     H77742   4.230   5.095  10.915 -0.5366  2.4905 -3.3183
  589MOL0     H77743   4.258   5.273  10.899 -0.3074 -0.5191 -1.9187
  589MOL0     H77744   4.095   5.314  11.089 -0.2677 -0.1111  0.1220
  589MOL0     H77745   4.025   5.237  10.955  1.4063  1.6284 -1.0979
  589MOL0     H77746   3.961   4.935  11.246  0.0398  0.5914 -0.9838
  589MOL0     H77747   4.696   5.039  10.927 -0.1290 -2.0415 -2.9702
  589MOL0     H77748   4.895   4.858  10.912 -0.0674 -0.1666 -0.8415
  590MOL0     O77749   4.541   3.606   6.351  0.3394 -0.4576 -0.2641
  590MOL0     C77750   4.632   3.692   6.357  0.2451 -0.0530  1.1735
  590MOL0     O77751   4.621   3.827   6.329  0.8051  0.7267  0.0660
  590MOL0     C77752   4.497   3.876   6.319 -0.6828  0.0266  0.4198
  590MOL0     C77753   4.426   3.896   6.203  0.6647 -0.8334  0.1766
  590MOL0     C77754   4.297   3.950   6.205  0.3438  0.1998 -0.0841
  590MOL0     C77755   4.245   4.007   6.322  0.4392 -1.1396  0.6125
  590MOL0     O77756   4.131   4.080   6.297 -0.0166 -0.1427  0.4007
  590MOL0     C77757   4.106   4.197   6.375 -0.8526  0.0594 -0.4833
  590MOL0     C77758   3.958   4.235   6.392 -0.6056  0.1661 -0.9871
  590MOL0     C77759   3.886   4.165   6.514  0.5175 -0.3160 -0.0059
  590MOL0     C77760   3.752   4.237   6.548 -0.5980 -0.4283  0.0562
  590MOL0     C77761   3.676   4.148   6.638  0.5623 -0.1178  0.1904
  590MOL0     C77762   3.560   4.217   6.702 -0.1882  0.4231  0.4774
  590MOL0     C77763   3.469   4.104   6.753 -0.3073 -0.6191  0.0630
  590MOL0     C77764   3.345   4.148   6.837  0.1477  0.3736 -0.3956
  590MOL0     N77765   3.248   4.231   6.769 -0.4885 -0.9837 -0.2470
  590MOL0     C77766   3.123   4.192   6.722  0.2993  0.1516  0.4287
  590MOL0     C77767   3.076   4.307   6.668 -0.4094 -0.1197  0.0260
  590MOL0     C77768   2.945   4.300   6.607  0.2090  0.9468  0.5413
  590MOL0     C77769   2.910   4.411   6.515  0.5147 -0.1846 -0.7350
  590MOL0     C77770   2.775   4.380   6.432  0.0899  0.2935 -0.1687
  590MOL0     C77771   2.736   4.505   6.356  0.5205 -0.2408  0.5849
  590MOL0     O77772   2.701   4.613   6.446  0.7131 -0.1031  0.7191
  590MOL0     C77773   2.570   4.663   6.468 -0.5836 -0.1878 -0.5579
  590MOL0     C77774   2.451   4.601   6.445  0.0512 -0.1553  0.0892
  590MOL0     C77775   2.327   4.654   6.482  0.4935 -0.4345 -0.0797
  590MOL0     C77776   2.315   4.783   6.537 -0.3090  0.4999  1.0403
  590MOL0     C77777   2.184   4.837   6.573 -0.2919 -0.4023 -0.7694
  590MOL0     O77778   2.080   4.784   6.507  0.3033 -0.1361 -0.4704
  590MOL0     C77779   1.949   4.818   6.523  0.9726 -0.1005 -0.0400
  590MOL0     C77780   1.895   4.855   6.640  0.7091  0.0496 -0.0883
  590MOL0     C77781   1.755   4.890   6.645 -0.0491  0.0052 -0.4058
  590MOL0     C77782   1.681   4.894   6.526 -0.7455  0.4439 -0.1097
  590MOL0     O77783   1.549   4.938   6.526  0.3440 -0.0652 -0.6047
  590MOL0     C77784   1.467   4.859   6.618 -0.2078  0.6407 -0.0088
  590MOL0     C77785   1.377   4.773   6.539 -0.0992  0.4349 -0.4829
  590MOL0     C77786   1.295   4.688   6.641 -1.4150 -0.6048 -0.0332
  590MOL0     C77787   1.193   4.605   6.567 -0.5386  0.0422 -0.3106
  590MOL0     C77788   1.252   4.487   6.480  0.0819 -0.5841 -0.3468
  590MOL0     C77789   1.141   4.392   6.440  0.1189  0.1977 -0.3800
  590MOL0     C77790   1.183   4.279   6.350  0.0606  1.2343 -0.3669
  590MOL0     C77791   1.174   4.311   6.200  0.1151  0.3696  0.0108
  590MOL0    Cl77792   1.326   4.247   6.106  0.2842  0.3726  0.2324
  590MOL0     C77793   1.744   4.860   6.407  1.0581 -0.1277 -0.3937
  590MOL0     C77794   1.873   4.822   6.405 -0.0613  0.4582  0.0687
  590MOL0     O77795   2.184   4.934   6.648  0.6854  0.3178  0.7905
  590MOL0     C77796   2.434   4.846   6.563 -0.5926  0.2876 -1.2827
  590MOL0     C77797   2.561   4.790   6.528 -0.3900 -0.5367 -0.7882
  590MOL0     N77798   3.163   4.410   6.697 -0.1652  0.4904  0.7983
  590MOL0     N77799   3.270   4.362   6.753  0.8372 -0.2222  0.3832
  590MOL0     C77800   4.322   4.001   6.443  0.3121 -0.4951 -0.2253
  590MOL0     C77801   4.442   3.935   6.431 -0.8103  0.3532 -0.8418
  590MOL0     C77802   4.766   3.637   6.378  0.2978 -0.7654  0.2497
  590MOL0     C77803   4.882   3.715   6.348 -0.2379 -0.4670 -0.6503
  590MOL0     C77804   5.014   3.661   6.349  0.2670  0.4698 -0.4465
  590MOL0     C77805   5.030   3.525   6.406 -1.3636 -0.0435  1.0794
  590MOL0     O77806   5.154   3.458   6.411 -0.4402 -0.5465  0.6053
  590MOL0     C77807   5.263   3.518   6.340  0.2909  0.0292  0.2760
  590MOL0     C77808   5.378   3.425   6.321 -0.9965 -0.2213 -0.3947
  590MOL0     C77809   5.331   3.319   6.228 -0.0406  0.7735  1.0472
  590MOL0     C77810   5.457   3.227   6.230 -0.3963 -0.7686  0.2891
  590MOL0     C77811   5.435   3.103   6.159 -0.0625  0.9377 -0.6857
  590MOL0     C77812   5.438   2.994   6.102 -0.2525  0.4045 -0.4100
  590MOL0     C77813   4.921   3.459   6.448 -0.3873  0.2015 -0.2267
  590MOL0     C77814   4.792   3.508   6.432  0.0192 -0.1773  0.5962
  590MOL0     H77815   4.467   3.850   6.113 -0.3535 -2.5249  0.5363
  590MOL0     H77816   4.235   3.945   6.117 -1.5834 -1.4914  1.2670
  590MOL0     H77817   4.153   4.277   6.317 -0.0477  1.4041  1.8865
  590MOL0     H77818   4.150   4.192   6.475  0.3195  1.2932 -0.9051
  590MOL0     H77819   3.908   4.210   6.299  1.2209 -0.8935 -1.7475
  590MOL0     H77820   3.940   4.341   6.413  1.9677  0.1856  1.7924
  590MOL0     H77821   3.950   4.178   6.601  1.0847 -0.6810 -0.3653
  590MOL0     H77822   3.874   4.059   6.490  1.1601 -0.5777  0.7817
  590MOL0     H77823   3.774   4.333   6.594  0.3019 -0.6336  0.0903
  590MOL0     H77824   3.696   4.260   6.456 -2.5184 -0.1704  1.2414
  590MOL0     H77825   3.740   4.104   6.716 -0.8792 -1.7162  0.5497
  590MOL0     H77826   3.637   4.064   6.579 -0.6972  1.0531 -0.7009
  590MOL0     H77827   3.511   4.281   6.627 -3.0419 -1.9228  0.1711
  590MOL0     H77828   3.596   4.273   6.789 -0.1831  1.1881 -0.0084
  590MOL0     H77829   3.445   4.044   6.665 -0.1805  0.0390 -0.4237
  590MOL0     H77830   3.521   4.039   6.824 -3.2210  0.2078  3.2420
  590MOL0     H77831   3.382   4.205   6.923 -1.6647  0.4748  0.3683
  590MOL0     H77832   3.290   4.057   6.864  0.4210  0.5322  0.7529
  590MOL0     H77833   3.071   4.098   6.706  0.3943 -0.2662  2.3997
  590MOL0     H77834   2.873   4.278   6.686 -2.1059 -2.8480 -2.2623
  590MOL0     H77835   2.939   4.204   6.553  1.1311 -0.4767  2.8211
  590MOL0     H77836   3.003   4.432   6.462  1.6963  2.3871  2.1146
  590MOL0     H77837   2.901   4.500   6.577  1.2311  1.3122 -2.6727
  590MOL0     H77838   2.785   4.294   6.365 -3.4610 -1.3246  1.1586
  590MOL0     H77839   2.691   4.356   6.497 -2.7771  2.4215 -2.7573
  590MOL0     H77840   2.652   4.482   6.289  0.1051  1.0365  0.6301
  590MOL0     H77841   2.821   4.536   6.294 -0.0675  1.0940  0.4077
  590MOL0     H77842   2.450   4.521   6.373  1.9496  2.0593 -2.6463
  590MOL0     H77843   2.251   4.583   6.451  0.2273 -0.6269  0.9888
  590MOL0     H77844   1.958   4.858   6.729  1.0439  1.4270 -0.3483
  590MOL0     H77845   1.706   4.922   6.736 -0.9170  1.8603 -1.4795
  590MOL0     H77846   1.399   4.927   6.671 -1.9898 -0.2032 -1.1154
  590MOL0     H77847   1.521   4.799   6.693  2.1558  1.4845 -0.9312
  590MOL0     H77848   1.442   4.712   6.476  0.9128  1.2557 -0.2536
  590MOL0     H77849   1.309   4.829   6.474 -0.4124 -0.1116 -0.6385
  590MOL0     H77850   1.243   4.765   6.699 -2.7702 -1.7893  0.3912
  590MOL0     H77851   1.357   4.633   6.712 -1.7187  0.6002  1.2154
  590MOL0     H77852   1.126   4.561   6.642 -0.7682 -0.5741 -0.8686
  590MOL0     H77853   1.135   4.674   6.505 -1.6946 -0.0388  0.6408
  590MOL0     H77854   1.336   4.433   6.525  1.3654  2.6468  1.5622
  590MOL0     H77855   1.289   4.526   6.385  1.5706 -0.9152  0.0735
  590MOL0     H77856   1.070   4.456   6.387 -0.4665  0.8252  1.0924
  590MOL0     H77857   1.102   4.355   6.535  0.8770  0.0298 -0.1250
  590MOL0     H77858   1.290   4.262   6.369  0.1260 -0.4907 -2.0263
  590MOL0     H77859   1.126   4.187   6.368  1.0165  0.4900 -0.9952
  590MOL0     H77860   1.175   4.420   6.188  1.3107  0.2577 -1.2629
  590MOL0     H77861   1.082   4.275   6.152 -2.0937  1.8639  2.7854
  590MOL0     H77862   1.681   4.841   6.320 -2.9255 -2.7141  2.7294
  590MOL0     H77863   1.920   4.804   6.309  0.2159  0.9073  0.1151
  590MOL0     H77864   2.438   4.948   6.602 -2.2250 -0.4331  0.9615
  590MOL0     H77865   2.636   4.853   6.574 -2.6729  0.8272  1.3590
  590MOL0     H77866   4.293   4.044   6.539  1.9078 -0.5007  0.2900
  590MOL0     H77867   4.495   3.942   6.526 -0.4017  1.3056 -1.1243
  590MOL0     H77868   4.868   3.818   6.317 -1.7634  0.3186  2.2274
  590MOL0     H77869   5.094   3.734   6.340  1.5611 -0.5820  1.6848
  590MOL0     H77870   5.294   3.596   6.411  2.2916 -2.8799  2.8455
  590MOL0     H77871   5.226   3.562   6.247 -0.1433 -0.7490  0.0706
  590MOL0     H77872   5.466   3.479   6.285 -2.0428  2.1536  0.3935
  590MOL0     H77873   5.400   3.383   6.419 -0.2654 -2.1509 -1.3308
  590MOL0     H77874   5.318   3.364   6.129  2.3171 -0.9044 -0.1206
  590MOL0     H77875   5.237   3.269   6.252 -0.8729 -0.7478 -4.1586
  590MOL0     H77876   5.536   3.280   6.175 -2.7381  2.5401 -0.2039
  590MOL0     H77877   5.490   3.208   6.332 -3.0896  2.3855  1.9271
  590MOL0     H77878   5.443   2.905   6.042 -0.8445  0.2426 -0.2246
  590MOL0     H77879   4.943   3.360   6.486 -0.2730 -0.8436 -2.7782
  590MOL0     H77880   4.700   3.453   6.451  0.4893 -1.0117  0.5406
  591MOL0     O77881   2.131  10.442   0.836  0.0245 -0.1122  0.3201
  591MOL0     C77882   2.221  10.378   0.883 -0.1628  0.2418  0.4514
  591MOL0     O77883   2.196  10.264   0.968 -0.7326 -0.3531 -0.5105
  591MOL0     C77884   2.094  10.176   0.948  0.5401 -0.6054  0.6320
  591MOL0     C77885   2.052  10.096   1.050  0.0044 -1.0576 -0.1978
  591MOL0     C77886   1.952  10.001   1.030  0.2663  0.8143  0.3221
  591MOL0     C77887   1.919   9.961   0.903  0.1451 -0.0874  1.0750
  591MOL0     O77888   1.851   9.850   0.871  0.4352 -0.0041  0.3513
  591MOL0     C77889   1.761   9.799   0.973  0.7005  0.2777 -0.4526
  591MOL0     C77890   1.678   9.674   0.934  0.6828 -0.5668  0.0326
  591MOL0     C77891   1.587   9.627   1.045  0.1512  0.2548  0.0771
  591MOL0     C77892   1.648   9.573   1.176  0.0269  0.6204 -0.4515
  591MOL0     C77893   1.561   9.502   1.265  0.7147  0.5342 -0.1384
  591MOL0     C77894   1.537   9.351   1.216  0.0533  0.3581  0.1085
  591MOL0     C77895   1.386   9.314   1.254 -0.0599 -0.5506  0.3863
  591MOL0     C77896   1.358   9.171   1.203  0.7110 -0.7008  1.0444
  591MOL0     N77897   1.216   9.152   1.212 -0.1440  0.1721 -0.4684
  591MOL0     C77898   1.147   9.124   1.330 -0.1020  0.5292  0.8349
  591MOL0     C77899   1.024   9.143   1.306  0.8684 -0.7248  0.8076
  591MOL0     C77900   0.906   9.146   1.403  0.2959 -0.2598  0.2431
  591MOL0     C77901   0.773   9.210   1.350 -0.1502 -0.0307  1.0967
  591MOL0     C77902   0.680   9.192   1.465  1.1428  0.0645  0.1001
  591MOL0     C77903   0.540   9.214   1.407  0.8088  0.3937 -0.9132
  591MOL0     O77904   0.450   9.201   1.524 -0.4606 -0.1787  0.7231
  591MOL0     C77905   0.316   9.244   1.499 -1.3684  0.3570  0.8583
  591MOL0     C77906   0.231   9.236   1.605 -0.0236  0.1536 -0.2589
  591MOL0     C77907   0.087   9.260   1.593  0.5469  0.3328 -0.2186
  591MOL0     C77908   0.034   9.293   1.468 -0.1386  0.3141 -0.1125
  591MOL0     C77909  -0.105   9.294   1.452  0.2423 -0.5824 -1.0218
  591MOL0     O77910  -0.180   9.233   1.549 -0.1248  0.5993  0.0512
  591MOL0     C77911  -0.314   9.203   1.533  0.0199  0.0661  0.3506
  591MOL0     C77912  -0.394   9.244   1.637  0.1983  0.2002 -0.2880
  591MOL0     C77913  -0.536   9.229   1.636 -0.4562  0.8343  0.4691
  591MOL0     C77914  -0.596   9.158   1.524  0.6086  0.1231 -0.0201
  591MOL0     O77915  -0.730   9.146   1.518  0.5756 -0.3640  0.9161
  591MOL0     C77916  -0.790   9.026   1.480  0.3033 -0.9633  0.2151
  591MOL0     C77917  -0.926   9.020   1.556 -0.4134 -0.2307 -0.0161
  591MOL0     C77918  -0.918   8.908   1.662  0.6490  0.0663  0.6695
  591MOL0     C77919  -1.050   8.911   1.741 -0.1459 -0.7045  0.7639
  591MOL0     C77920  -1.066   8.814   1.851  0.2282  0.5414 -0.1978
  591MOL0     C77921  -1.213   8.801   1.880  0.2735  0.5219  0.4626
  591MOL0     C77922  -1.249   8.695   1.984  1.3187  0.8380 -0.7508
  591MOL0     C77923  -1.397   8.699   1.995  0.1027 -0.4504  0.4114
  591MOL0    Cl77924  -1.436   8.601   2.138 -0.3274 -0.3993 -0.2128
  591MOL0     C77925  -0.511   9.132   1.415  0.4306  0.3511  0.0619
  591MOL0     C77926  -0.369   9.144   1.420 -0.7181  0.6218 -0.2735
  591MOL0     O77927  -0.150   9.327   1.347 -0.6129  0.0517  0.2130
  591MOL0     C77928   0.120   9.304   1.358  0.6577  0.4540  0.1711
  591MOL0     C77929   0.260   9.281   1.371  0.7622  0.3481 -0.4111
  591MOL0     N77930   1.013   9.176   1.173  0.2199  0.3359  0.0067
  591MOL0     N77931   1.127   9.173   1.117 -0.0482  0.2904 -0.0263
  591MOL0     C77932   1.966  10.037   0.791 -0.5747  0.0840  0.4747
  591MOL0     C77933   2.051  10.148   0.813 -0.0529  0.1005 -1.5219
  591MOL0     C77934   2.354  10.439   0.876  1.3825  0.2479 -0.5018
  591MOL0     C77935   2.452  10.387   0.965  0.3093 -0.5297 -0.3894
  591MOL0     C77936   2.582  10.443   0.971  0.4671 -0.1764  0.2860
  591MOL0     C77937   2.610  10.548   0.885 -0.5825  0.0483  0.6462
  591MOL0     O77938   2.725  10.630   0.880 -0.7145 -0.3483 -0.1530
  591MOL0     C77939   2.842  10.574   0.944  0.0021  0.9164 -0.9243
  591MOL0     C77940   2.964  10.619   0.883 -0.2721 -0.1717  0.1714
  591MOL0     C77941   2.983  10.542   0.754 -0.1738 -0.3252 -0.2082
  591MOL0     C77942   2.932  10.621   0.633  0.1250  0.3817  0.1615
  591MOL0     C77943   2.918  10.537   0.518 -0.3940 -0.4489 -0.3248
  591MOL0     C77944   2.889  10.476   0.419  0.3718 -0.2287 -0.3513
  591MOL0     C77945   2.517  10.601   0.800  0.2529 -0.0137 -0.0612
  591MOL0     C77946   2.390  10.544   0.790 -0.1587 -0.0310 -0.0397
  591MOL0     H77947   2.078  10.112   1.155  1.1161  0.9912 -0.7244
  591MOL0     H77948   1.912   9.943   1.113 -1.3084 -2.3499 -2.4134
  591MOL0     H77949   1.692   9.878   1.006  2.5957  0.8960  2.4248
  591MOL0     H77950   1.827   9.773   1.057 -0.7140  0.7319  0.8536
  591MOL0     H77951   1.753   9.601   0.904  0.1312  0.2921 -3.8698
  591MOL0     H77952   1.613   9.699   0.850 -0.8000 -0.3527  1.1946
  591MOL0     H77953   1.526   9.546   1.003 -0.0646  1.8914 -3.0019
  591MOL0     H77954   1.527   9.715   1.066  0.3053  0.2967  0.3514
  591MOL0     H77955   1.727   9.507   1.139 -1.0821 -0.7878 -0.4088
  591MOL0     H77956   1.700   9.648   1.236  1.4466 -1.8547  1.6273
  591MOL0     H77957   1.468   9.559   1.264  2.5271  3.6831 -0.3261
  591MOL0     H77958   1.598   9.494   1.368  1.9853  4.5278 -0.1256
  591MOL0     H77959   1.608   9.283   1.263 -0.9180  0.9161  2.5702
  591MOL0     H77960   1.552   9.343   1.108 -1.0704  2.4421 -0.2599
  591MOL0     H77961   1.378   9.319   1.363  1.1017  0.5820  0.4415
  591MOL0     H77962   1.321   9.390   1.209  0.8549  1.1453  1.7868
  591MOL0     H77963   1.397   9.107   1.282  1.8584 -0.2214  0.8925
  591MOL0     H77964   1.403   9.142   1.107 -2.4182 -0.9890 -0.4781
  591MOL0     H77965   1.191   9.107   1.428 -0.6720 -2.2812  0.6897
  591MOL0     H77966   0.935   9.212   1.485  4.0547 -0.4259 -0.7978
  591MOL0     H77967   0.892   9.042   1.433 -2.6875 -0.0629 -0.1547
  591MOL0     H77968   0.737   9.172   1.254 -0.0482  1.2344  0.5429
  591MOL0     H77969   0.790   9.314   1.320 -1.8814 -0.2428 -0.8055
  591MOL0     H77970   0.683   9.088   1.499 -3.3134 -0.8926 -1.7220
  591MOL0     H77971   0.686   9.270   1.542 -1.7932  0.4592  0.0746
  591MOL0     H77972   0.517   9.139   1.330 -0.8835  0.4720 -0.5234
  591MOL0     H77973   0.536   9.314   1.364  0.5938  0.5113 -0.6188
  591MOL0     H77974   0.274   9.215   1.703 -2.3259  1.0846  1.0444
  591MOL0     H77975   0.038   9.249   1.689 -0.8846 -0.3135 -0.9888
  591MOL0     H77976  -0.340   9.296   1.716  1.0510 -0.7672 -0.2223
  591MOL0     H77977  -0.597   9.262   1.719  2.0345 -1.3627  3.4435
  591MOL0     H77978  -0.733   8.934   1.497 -2.7885 -3.6324 -2.6108
  591MOL0     H77979  -0.813   9.037   1.374  0.8203  2.7285  0.3603
  591MOL0     H77980  -1.006   8.996   1.485 -0.5030 -2.3154  0.7158
  591MOL0     H77981  -0.946   9.119   1.597 -0.0509 -0.2451  0.2018
  591MOL0     H77982  -0.836   8.933   1.729  0.0481  0.6068  1.2105
  591MOL0     H77983  -0.909   8.810   1.613  1.6042  0.6814 -0.4398
  591MOL0     H77984  -1.063   9.012   1.782 -3.2133 -1.0852  0.9211
  591MOL0     H77985  -1.132   8.907   1.669 -0.0250  2.1770  0.3603
  591MOL0     H77986  -1.015   8.842   1.944 -0.5978 -1.0458  0.7684
  591MOL0     H77987  -1.033   8.714   1.819 -3.1481  0.1453 -2.9996
  591MOL0     H77988  -1.261   8.787   1.782  2.5195 -1.3258 -0.4829
  591MOL0     H77989  -1.246   8.892   1.931  1.4996  1.2214  0.0553
  591MOL0     H77990  -1.216   8.598   1.946 -1.6295 -0.3167 -0.6408
  591MOL0     H77991  -1.205   8.713   2.083 -0.5695 -1.0458  0.5359
  591MOL0     H77992  -1.442   8.656   1.905 -1.3288 -0.7396  1.2401
  591MOL0     H77993  -1.435   8.801   2.006  1.5603  0.0729  0.9085
  591MOL0     H77994  -0.560   9.093   1.326 -3.0335  1.2752  1.3785
  591MOL0     H77995  -0.323   9.106   1.329 -3.7188  2.1611 -2.6540
  591MOL0     H77996   0.082   9.313   1.257  0.6262  0.6117  0.1969
  591MOL0     H77997   0.312   9.298   1.278  0.3255 -0.6021 -0.8432
  591MOL0     H77998   1.933  10.018   0.690 -0.8797 -2.1634  0.9484
  591MOL0     H77999   2.090  10.199   0.726 -0.5410  1.0876 -1.1907
  591MOL0     H78000   2.430  10.310   1.038  4.5330 -1.6948 -0.1241
  591MOL0     H78001   2.647  10.408   1.051  1.7957 -0.8703 -1.0670
  591MOL0     H78002   2.829  10.466   0.940  0.3707  0.7603  0.9881
  591MOL0     H78003   2.839  10.606   1.049 -1.5601  0.5257 -0.8245
  591MOL0     H78004   2.957  10.728   0.874 -1.5071  0.2710  4.2921
  591MOL0     H78005   3.045  10.591   0.951 -0.5974 -1.0522  0.2134
  591MOL0     H78006   2.940  10.441   0.755  0.0310 -0.4416 -1.5030
  591MOL0     H78007   3.089  10.535   0.728 -0.7247 -1.5246 -2.4396
  591MOL0     H78008   2.829  10.654   0.652  0.4317  0.1983  2.4068
  591MOL0     H78009   2.993  10.708   0.605 -1.3011  1.2828 -0.2630
  591MOL0     H78010   2.847  10.419   0.339 -0.2304 -1.2392  0.6519
  591MOL0     H78011   2.528  10.684   0.731 -3.9434  0.4791 -0.3910
  591MOL0     H78012   2.308  10.565   0.722  0.1242 -0.7845 -0.6203
  592MOL0     O78013  10.933   5.562   7.185  0.0269 -0.5120 -0.8490
  592MOL0     C78014  10.879   5.479   7.266 -0.4445 -1.2011  0.2539
  592MOL0     O78015  10.756   5.437   7.272 -0.2990 -0.4953  0.4478
  592MOL0     C78016  10.667   5.491   7.176 -0.2889  0.2127 -0.2312
  592MOL0     C78017  10.670   5.472   7.037  0.2011  0.0625  0.7675
  592MOL0     C78018  10.580   5.546   6.956 -0.3463 -0.0637  0.8076
  592MOL0     C78019  10.492   5.633   7.004 -0.1410  0.4354  0.5978
  592MOL0     O78020  10.398   5.688   6.923  0.0158 -1.4977  0.2880
  592MOL0     C78021  10.314   5.611   6.840 -0.4040  0.2219  0.5118
  592MOL0     C78022  10.217   5.701   6.772  0.2018  0.8354 -0.1505
  592MOL0     C78023  10.076   5.685   6.835 -0.2891  0.4853 -0.2125
  592MOL0     C78024   9.977   5.758   6.745  0.4156 -0.0439  0.8470
  592MOL0     C78025   9.945   5.675   6.620  0.1609  0.2275  0.1053
  592MOL0     C78026   9.812   5.729   6.556  0.5754 -0.5268 -0.4667
  592MOL0     C78027   9.821   5.877   6.510  0.0864 -0.0960  0.8015
  592MOL0     C78028   9.717   5.908   6.405 -0.7404 -1.2157  0.6907
  592MOL0     N78029   9.579   5.881   6.452  0.3397 -0.5324  0.2228
  592MOL0     C78030   9.483   5.971   6.498  0.7750  0.0346 -1.4646
  592MOL0     C78031   9.373   5.894   6.521  1.3159 -0.4195  1.1470
  592MOL0     C78032   9.234   5.918   6.570 -0.3479 -0.5114 -0.5717
  592MOL0     C78033   9.228   6.004   6.694  0.1783 -0.7546  0.1582
  592MOL0     C78034   9.103   6.100   6.698  0.0760 -0.3915 -0.4509
  592MOL0     C78035   8.973   6.026   6.723 -0.3507  1.1720  0.0369
  592MOL0     O78036   8.979   5.966   6.856 -0.6090  0.6187  0.1601
  592MOL0     C78037   8.856   5.992   6.915 -0.0662 -0.2255 -0.0589
  592MOL0     C78038   8.736   5.966   6.857  0.6802 -0.5546 -0.0177
  592MOL0     C78039   8.615   5.994   6.926 -0.2725 -0.1832 -0.5808
  592MOL0     C78040   8.620   6.069   7.045 -0.0217  0.8039  0.5288
  592MOL0     C78041   8.500   6.124   7.100 -0.5193 -0.0100 -0.0640
  592MOL0     O78042   8.387   6.124   7.020  0.1497  0.0705  0.7353
  592MOL0     C78043   8.277   6.182   7.074  0.1486 -0.1610 -0.3578
  592MOL0     C78044   8.224   6.289   6.998 -1.0929 -0.2137 -0.0764
  592MOL0     C78045   8.120   6.358   7.050  0.1655 -0.4116  0.1957
  592MOL0     C78046   8.060   6.326   7.173 -0.2211  0.1284 -0.0722
  592MOL0     O78047   7.971   6.415   7.215  0.1556 -0.6583 -0.7346
  592MOL0     C78048   7.845   6.344   7.258  0.1446  0.1896  0.8704
  592MOL0     C78049   7.729   6.450   7.268  0.5324  0.2964 -0.1259
  592MOL0     C78050   7.743   6.535   7.396 -0.3908  0.1849  0.1749
  592MOL0     C78051   7.633   6.640   7.421  0.1250 -0.9950 -0.1968
  592MOL0     C78052   7.627   6.741   7.307 -0.0094  0.1684 -0.2221
  592MOL0     C78053   7.515   6.848   7.333  0.0174 -0.3801 -0.7524
  592MOL0     C78054   7.494   6.913   7.199  0.6981 -0.2281 -0.1947
  592MOL0     C78055   7.393   7.031   7.203 -0.2688 -0.8904 -0.1349
  592MOL0    Cl78056   7.331   7.064   7.045 -0.2789 -0.3081 -0.6133
  592MOL0     C78057   8.106   6.218   7.244 -0.0642  0.4433 -0.6560
  592MOL0     C78058   8.213   6.144   7.198 -0.2195  0.5540  0.4055
  592MOL0     O78059   8.512   6.173   7.214  0.1752 -0.8756  0.1555
  592MOL0     C78060   8.739   6.096   7.101  0.3995 -0.6602 -0.8688
  592MOL0     C78061   8.860   6.059   7.040  0.1347  0.2549  0.5327
  592MOL0     N78062   9.397   5.769   6.466 -0.0111  0.8815 -0.2142
  592MOL0     N78063   9.510   5.766   6.430 -0.3389 -0.5546 -0.1201
  592MOL0     C78064  10.488   5.647   7.142 -0.2836 -0.3786 -0.3167
  592MOL0     C78065  10.570   5.584   7.228  0.3051 -0.4107 -0.6641
  592MOL0     C78066  10.976   5.438   7.371 -0.1352 -0.0272  0.1897
  592MOL0     C78067  10.936   5.421   7.499  0.0590 -0.8457 -0.3452
  592MOL0     C78068  11.035   5.381   7.594  0.2000 -0.3199 -0.3726
  592MOL0     C78069  11.167   5.359   7.553  0.5900  0.1058 -0.5722
  592MOL0     O78070  11.279   5.330   7.628 -0.0656  0.4777  0.4340
  592MOL0     C78071  11.273   5.288   7.763  0.2548  0.3316 -0.7710
  592MOL0     C78072  11.268   5.140   7.778 -0.6681  0.9743 -0.8199
  592MOL0     C78073  11.387   5.065   7.706  0.2850 -0.7367  0.2184
  592MOL0     C78074  11.356   4.915   7.698 -0.2170  0.3511 -1.0158
  592MOL0     C78075  11.429   4.849   7.590 -0.0805 -0.4515 -0.0363
  592MOL0     C78076  11.486   4.797   7.493 -0.2446 -0.2770 -0.0988
  592MOL0     C78077  11.198   5.369   7.419 -0.4026 -0.6649 -0.2806
  592MOL0     C78078  11.100   5.408   7.328 -0.8499 -0.5101 -0.2580
  592MOL0     H78079  10.724   5.393   6.986 -0.9093 -0.3722  0.2240
  592MOL0     H78080  10.564   5.522   6.852 -1.2243  0.9525  0.6903
  592MOL0     H78081  10.256   5.535   6.893 -0.3964  0.1611  0.4349
  592MOL0     H78082  10.370   5.566   6.757 -0.5346  0.2603  0.4001
  592MOL0     H78083  10.214   5.674   6.666 -1.0921  0.2693  0.0196
  592MOL0     H78084  10.252   5.802   6.794 -0.6972  1.2305 -0.4937
  592MOL0     H78085  10.078   5.734   6.933 -1.6916 -1.2630  0.7542
  592MOL0     H78086  10.046   5.581   6.854  0.6558  0.3548  0.6609
  592MOL0     H78087   9.888   5.784   6.801  0.8066 -0.0764  1.4897
  592MOL0     H78088  10.014   5.859   6.723 -1.6474  1.0277  2.0117
  592MOL0     H78089   9.932   5.571   6.653 -0.1413  0.6435  1.3642
  592MOL0     H78090  10.019   5.669   6.540 -0.5404  2.7305 -0.8476
  592MOL0     H78091   9.736   5.725   6.635 -1.5179 -0.3576 -2.3640
  592MOL0     H78092   9.771   5.663   6.479 -3.5243  1.4087 -0.2463
  592MOL0     H78093   9.798   5.950   6.589 -1.6793  0.0351  0.2192
  592MOL0     H78094   9.918   5.899   6.464 -0.9266 -1.2926 -2.1463
  592MOL0     H78095   9.740   5.842   6.321 -2.0156 -0.3618 -0.3592
  592MOL0     H78096   9.741   6.008   6.368  2.1321 -1.9072  0.4593
  592MOL0     H78097   9.487   6.077   6.519 -2.2935  0.5289 -2.9516
  592MOL0     H78098   9.201   5.814   6.579 -0.7510 -0.3567 -0.1859
  592MOL0     H78099   9.171   5.964   6.494 -0.1504 -0.7323 -0.8682
  592MOL0     H78100   9.319   6.065   6.692 -0.4127  0.3353 -4.3606
  592MOL0     H78101   9.236   5.943   6.785  4.3045  2.5326  2.3556
  592MOL0     H78102   9.120   6.171   6.780  0.8293 -4.1324  2.9861
  592MOL0     H78103   9.095   6.157   6.606 -2.6676 -0.1558 -0.1534
  592MOL0     H78104   8.954   5.937   6.663  0.1693 -0.1544  1.7382
  592MOL0     H78105   8.890   6.097   6.716 -2.9954 -1.8110 -1.5310
  592MOL0     H78106   8.726   5.926   6.756  3.0158 -0.5737 -0.2809
  592MOL0     H78107   8.521   5.970   6.878 -0.9271 -3.1041  1.8299
  592MOL0     H78108   8.283   6.316   6.911  1.2855 -0.4167  1.3804
  592MOL0     H78109   8.085   6.441   6.989 -2.6258 -1.1858  0.5934
  592MOL0     H78110   7.856   6.294   7.354 -0.2876 -0.2967  0.6716
  592MOL0     H78111   7.810   6.268   7.188 -1.3771 -0.6292  2.4483
  592MOL0     H78112   7.633   6.401   7.285  0.9281  0.5770  3.8355
  592MOL0     H78113   7.716   6.500   7.171 -0.4979  0.8946  0.3168
  592MOL0     H78114   7.838   6.588   7.380 -0.1869 -0.6099 -1.3280
  592MOL0     H78115   7.753   6.476   7.488  0.5613  0.2647  0.1304
  592MOL0     H78116   7.540   6.583   7.435  1.4908 -3.1197  0.6108
  592MOL0     H78117   7.648   6.704   7.508 -1.4149  0.7504 -1.1136
  592MOL0     H78118   7.617   6.685   7.213 -0.0351 -2.0817  1.0552
  592MOL0     H78119   7.725   6.790   7.305  0.1304 -0.0814 -2.6574
  592MOL0     H78120   7.557   6.920   7.404 -1.5911 -0.9909  0.8796
  592MOL0     H78121   7.425   6.803   7.375  1.2914 -0.9582  1.5072
  592MOL0     H78122   7.587   6.951   7.157  0.1656 -0.9954 -2.1830
  592MOL0     H78123   7.462   6.834   7.131 -2.0339  0.2126  0.4717
  592MOL0     H78124   7.427   7.121   7.256  1.0051 -2.6199  2.1726
  592MOL0     H78125   7.308   6.997   7.264 -2.2877 -1.0970 -2.8792
  592MOL0     H78126   8.076   6.188   7.344 -0.8869  0.6904 -0.8228
  592MOL0     H78127   8.261   6.072   7.263 -2.6909  0.1443  1.9271
  592MOL0     H78128   8.758   6.156   7.189  0.3156  0.9575 -1.9077
  592MOL0     H78129   8.958   6.079   7.082  1.3838 -0.6990 -1.6946
  592MOL0     H78130  10.424   5.719   7.193  1.8123 -1.5072  4.3924
  592MOL0     H78131  10.561   5.594   7.336 -1.0619 -0.0469 -0.8009
  592MOL0     H78132  10.834   5.432   7.535  0.8020 -0.4393  1.8285
  592MOL0     H78133  11.009   5.377   7.700  1.5535  4.2854  0.3505
  592MOL0     H78134  11.183   5.330   7.810  0.8235  1.4807 -0.6713
  592MOL0     H78135  11.362   5.334   7.807  0.8820  0.6274 -2.2966
  592MOL0     H78136  11.278   5.110   7.883  4.4924 -3.2415 -2.0274
  592MOL0     H78137  11.177   5.086   7.753 -0.0028 -0.5678 -0.0916
  592MOL0     H78138  11.477   5.094   7.761  1.1907  0.6446 -1.8477
  592MOL0     H78139  11.399   5.111   7.607  0.3396  1.0308  1.0078
  592MOL0     H78140  11.388   4.871   7.793  1.6277  2.9275 -0.3668
  592MOL0     H78141  11.247   4.909   7.689 -0.3454  2.2755 -1.1096
  592MOL0     H78142  11.543   4.744   7.420  1.7293  3.5903 -1.6551
  592MOL0     H78143  11.301   5.352   7.391 -0.0307 -0.1902  0.7618
  592MOL0     H78144  11.125   5.412   7.223  0.3174  2.8443  0.0473
  593MOL0     O78145  10.671   2.669   3.283  0.0963 -0.2780  0.1317
  593MOL0     C78146  10.770   2.623   3.333 -0.3289 -0.8193  0.1497
  593MOL0     O78147  10.769   2.566   3.462  0.7167  0.2981  0.2383
  593MOL0     C78148  10.647   2.530   3.505 -0.1675 -0.1110 -0.0877
  593MOL0     C78149  10.617   2.394   3.515  0.5503 -0.2596 -0.5282
  593MOL0     C78150  10.489   2.351   3.568 -0.4392  0.3628  0.7081
  593MOL0     C78151  10.395   2.445   3.605  0.5838 -0.4531 -0.7927
  593MOL0     O78152  10.263   2.410   3.643  0.6355 -0.2771  0.6635
  593MOL0     C78153  10.246   2.313   3.745  0.4163  0.0860 -0.9268
  593MOL0     C78154  10.097   2.300   3.784 -0.3688 -0.3334  1.0037
  593MOL0     C78155   9.984   2.272   3.678 -0.0986 -0.6141  0.4689
  593MOL0     C78156   9.853   2.239   3.747 -0.3825 -0.5818 -0.5673
  593MOL0     C78157   9.746   2.267   3.652  0.3241 -0.0657 -0.3518
  593MOL0     C78158   9.726   2.161   3.555  0.1568  0.7206  0.3229
  593MOL0     C78159   9.602   2.205   3.469  0.4148  0.0571  0.3130
  593MOL0     C78160   9.558   2.077   3.399 -0.2881 -0.1464  1.0778
  593MOL0     N78161   9.487   1.992   3.492  0.4326  0.5914 -0.5011
  593MOL0     C78162   9.358   2.008   3.520 -0.8710  0.1903 -0.6483
  593MOL0     C78163   9.324   1.905   3.607 -0.1826  0.3397  0.4620
  593MOL0     C78164   9.187   1.886   3.676  1.0814  0.4597 -0.3519
  593MOL0     C78165   9.081   1.828   3.572  0.1743 -0.3947 -0.3384
  593MOL0     C78166   8.942   1.802   3.641  0.4348 -0.1242  0.2262
  593MOL0     C78167   8.836   1.759   3.533  0.5170 -0.4084 -0.0969
  593MOL0     O78168   8.803   1.872   3.443  0.1541 -0.7425  0.0007
  593MOL0     C78169   8.669   1.881   3.397 -0.5702  0.4688  1.3570
  593MOL0     C78170   8.604   1.757   3.376 -0.6320  0.1022  0.4042
  593MOL0     C78171   8.478   1.762   3.323  0.8456  0.1236 -0.7523
  593MOL0     C78172   8.408   1.880   3.298 -1.2968 -0.1656 -0.1561
  593MOL0     C78173   8.265   1.885   3.246  0.1416  0.2829 -0.7096
  593MOL0     O78174   8.219   1.765   3.230 -0.0763  0.1797  0.0239
  593MOL0     C78175   8.085   1.743   3.197  0.1837  1.1154 -0.4115
  593MOL0     C78176   8.060   1.614   3.129 -0.3427  0.4058 -0.0400
  593MOL0     C78177   7.931   1.571   3.112  1.1975  0.2726 -0.1279
  593MOL0     C78178   7.825   1.645   3.153  0.0620  0.2182  0.2072
  593MOL0     O78179   7.704   1.588   3.158  1.1817 -0.5260  0.0753
  593MOL0     C78180   7.633   1.605   3.284  0.4626  0.3655  1.2765
  593MOL0     C78181   7.527   1.493   3.284  0.3839  0.3276 -0.0052
  593MOL0     C78182   7.422   1.536   3.390 -0.4307 -0.3141  0.1731
  593MOL0     C78183   7.298   1.461   3.370 -0.0156  0.0730  0.8816
  593MOL0     C78184   7.195   1.511   3.479  0.1563  0.1740  1.3375
  593MOL0     C78185   7.082   1.417   3.491  1.4112  0.0619  0.3187
  593MOL0     C78186   6.969   1.494   3.568  0.6121  0.0761 -0.6399
  593MOL0     C78187   6.905   1.607   3.500 -0.2987 -0.5112  0.4405
  593MOL0    Cl78188   6.749   1.625   3.580  0.0326  0.1039 -0.0373
  593MOL0     C78189   7.843   1.771   3.213  0.4104  0.6172 -0.2091
  593MOL0     C78190   7.976   1.826   3.232 -0.3451 -0.3948  0.5807
  593MOL0     O78191   8.211   1.994   3.231  0.0929 -0.1218 -0.3908
  593MOL0     C78192   8.481   2.004   3.321  0.6840  0.3779 -0.4281
  593MOL0     C78193   8.618   2.002   3.359  0.6337  0.4370  0.1518
  593MOL0     N78194   9.432   1.834   3.627  0.1851  0.7359 -0.3938
  593MOL0     N78195   9.532   1.873   3.556  0.3890  0.4179 -0.1045
  593MOL0     C78196  10.437   2.582   3.607 -0.1060 -0.7521  0.6730
  593MOL0     C78197  10.557   2.616   3.557 -0.9184  0.2000 -0.0207
  593MOL0     C78198  10.890   2.600   3.249 -0.5279  0.0498 -1.0003
  593MOL0     C78199  10.978   2.484   3.261 -0.5364 -0.2867 -0.0529
  593MOL0     C78200  11.096   2.480   3.191 -0.1358 -0.3181 -0.5562
  593MOL0     C78201  11.125   2.576   3.098 -0.4541  0.7668  0.1677
  593MOL0     O78202  11.232   2.582   3.011 -0.1787  0.1681 -0.5889
  593MOL0     C78203  11.324   2.478   2.995  0.6119 -0.0742 -0.9235
  593MOL0     C78204  11.408   2.500   2.877 -0.1615 -1.0133  0.3762
  593MOL0     C78205  11.495   2.385   2.839 -0.1923 -0.4787 -0.3543
  593MOL0     C78206  11.584   2.430   2.716  0.3563  0.6994  0.2778
  593MOL0     C78207  11.667   2.313   2.671  0.5285 -0.2245 -0.2267
  593MOL0     C78208  11.743   2.226   2.634 -0.7262  0.6292 -0.2177
  593MOL0     C78209  11.032   2.675   3.072  0.0878 -1.2608  0.2188
  593MOL0     C78210  10.915   2.688   3.145  0.5622  0.5257  0.0771
  593MOL0     H78211  10.691   2.323   3.480  3.1478  1.4971  1.0151
  593MOL0     H78212  10.460   2.247   3.559 -3.7838  1.1096  1.4522
  593MOL0     H78213  10.314   2.331   3.828 -1.0132 -0.1575  0.3398
  593MOL0     H78214  10.266   2.213   3.707  0.0410 -0.3544  0.0090
  593MOL0     H78215  10.074   2.399   3.825 -1.4178  0.1546 -0.6647
  593MOL0     H78216  10.095   2.238   3.874  2.5296 -1.3779  0.4657
  593MOL0     H78217  10.008   2.196   3.603  1.0706  1.1441 -1.0146
  593MOL0     H78218   9.974   2.364   3.620  0.1918  0.6571  2.3438
  593MOL0     H78219   9.863   2.134   3.774  1.0709  0.0678  1.6125
  593MOL0     H78220   9.848   2.305   3.834  3.0422  3.5722 -3.0902
  593MOL0     H78221   9.761   2.367   3.610  0.4671 -0.7288 -1.9344
  593MOL0     H78222   9.659   2.265   3.719  0.8841 -1.6267  0.3733
  593MOL0     H78223   9.712   2.063   3.601 -0.7013 -0.3448 -2.0559
  593MOL0     H78224   9.816   2.164   3.492  0.2478  1.2205  0.4706
  593MOL0     H78225   9.517   2.236   3.531  1.5389  1.3807  1.2408
  593MOL0     H78226   9.632   2.289   3.407 -0.5709 -1.0409 -1.7669
  593MOL0     H78227   9.640   2.026   3.348 -2.2860  0.3916 -3.1222
  593MOL0     H78228   9.483   2.096   3.321 -0.6863 -1.2787  1.1780
  593MOL0     H78229   9.288   2.083   3.485 -1.2940 -0.5326 -1.3699
  593MOL0     H78230   9.151   1.980   3.718 -2.0990 -0.7494 -0.1260
  593MOL0     H78231   9.204   1.821   3.762  2.7878  1.4794  0.1464
  593MOL0     H78232   9.123   1.730   3.548  2.7382  0.4894  0.2033
  593MOL0     H78233   9.074   1.890   3.482 -1.3093 -0.8264 -0.5552
  593MOL0     H78234   8.960   1.715   3.705  1.1098 -0.8582 -0.9273
  593MOL0     H78235   8.910   1.885   3.705  1.8474  1.1424 -0.6745
  593MOL0     H78236   8.749   1.718   3.586 -0.1420  0.9040 -0.1204
  593MOL0     H78237   8.877   1.681   3.469  1.0157 -0.2799  0.0617
  593MOL0     H78238   8.651   1.663   3.401 -1.7772 -0.8184 -0.7458
  593MOL0     H78239   8.431   1.672   3.284  3.6845 -1.1869 -1.4736
  593MOL0     H78240   8.137   1.538   3.121 -0.7393 -0.0418  0.2670
  593MOL0     H78241   7.909   1.471   3.077  1.5679  0.2453 -0.2837
  593MOL0     H78242   7.578   1.698   3.265  0.4642  0.2057  0.4395
  593MOL0     H78243   7.689   1.601   3.377  0.1109  1.3851  1.5421
  593MOL0     H78244   7.563   1.391   3.302 -0.8732 -0.0254  0.6869
  593MOL0     H78245   7.482   1.493   3.184 -0.3272  2.7158  0.2482
  593MOL0     H78246   7.402   1.643   3.379 -2.9970 -0.6135  1.2689
  593MOL0     H78247   7.458   1.526   3.493  2.7777 -0.5776 -0.8670
  593MOL0     H78248   7.248   1.459   3.273  1.6643  0.4053 -0.0353
  593MOL0     H78249   7.339   1.360   3.383  3.3787  1.1870 -0.1077
  593MOL0     H78250   7.166   1.611   3.443 -0.0706 -0.6926 -1.0424
  593MOL0     H78251   7.244   1.523   3.576  1.1047  0.3969  0.8465
  593MOL0     H78252   7.112   1.331   3.552  1.3153  0.1801  0.5374
  593MOL0     H78253   7.045   1.380   3.395 -1.1610  1.5652  0.6305
  593MOL0     H78254   6.890   1.420   3.588 -0.6769  1.0412 -1.9419
  593MOL0     H78255   7.017   1.502   3.665 -0.3127  1.6012 -0.2706
  593MOL0     H78256   6.886   1.596   3.392  1.4497  2.6052 -0.3028
  593MOL0     H78257   6.972   1.693   3.506 -1.0907  0.3177 -1.6082
  593MOL0     H78258   7.754   1.816   3.256  0.2054 -2.5702  3.2020
  593MOL0     H78259   7.999   1.924   3.272  1.2709 -0.4642 -0.0888
  593MOL0     H78260   8.439   2.101   3.295 -0.0276 -0.3055 -1.9769
  593MOL0     H78261   8.673   2.089   3.393 -1.0975  0.9031  2.0079
  593MOL0     H78262  10.368   2.659   3.641 -0.1534 -0.7864  0.6537
  593MOL0     H78263  10.590   2.717   3.533  0.0591 -0.9288 -4.0534
  593MOL0     H78264  10.952   2.402   3.327 -2.1637  2.1189  2.5189
  593MOL0     H78265  11.166   2.401   3.216 -1.2594 -0.6339  1.9270
  593MOL0     H78266  11.271   2.382   2.993  2.5317 -1.2320  0.2579
  593MOL0     H78267  11.391   2.473   3.082 -2.7031 -2.4309  1.7807
  593MOL0     H78268  11.334   2.519   2.799  1.4669  0.3839 -0.8916
  593MOL0     H78269  11.471   2.589   2.876 -2.3645  0.6754 -2.4946
  593MOL0     H78270  11.425   2.303   2.819  1.8132 -2.7984  1.4885
  593MOL0     H78271  11.550   2.344   2.924 -3.6008 -5.9350 -0.2707
  593MOL0     H78272  11.520   2.457   2.631  1.8306  2.1203 -0.4380
  593MOL0     H78273  11.654   2.506   2.752  1.3489 -0.1720  0.2466
  593MOL0     H78274  11.821   2.169   2.587  0.9389  0.9872  1.9495
  593MOL0     H78275  11.055   2.732   2.983  1.3964 -1.6522  0.2875
  593MOL0     H78276  10.850   2.773   3.126 -0.7681  0.3178  3.1793
  594MOL0     O78277   0.423   8.653  10.707  0.6232 -0.3418  0.9544
  594MOL0     C78278   0.520   8.732  10.698 -0.3677  0.8231 -0.1817
  594MOL0     O78279   0.523   8.862  10.687  0.3250 -0.6029  0.3056
  594MOL0     C78280   0.399   8.926  10.697  0.4309 -0.1740  0.8149
  594MOL0     C78281   0.336   8.950  10.809 -0.2779  0.1730  0.4887
  594MOL0     C78282   0.208   9.006  10.811  0.4228  1.0060  1.0031
  594MOL0     C78283   0.144   9.047  10.693 -0.0369 -0.1919 -0.0759
  594MOL0     O78284   0.029   9.120  10.690  0.5550 -0.3094 -0.5478
  594MOL0     C78285  -0.049   9.133  10.813  1.3575 -0.5440 -0.4869
  594MOL0     C78286  -0.180   9.198  10.766 -0.0429  0.1206 -0.2885
  594MOL0     C78287  -0.157   9.336  10.694  0.2535  0.5183  0.2037
  594MOL0     C78288  -0.285   9.408  10.663 -0.0763  0.0516 -0.3275
  594MOL0     C78289  -0.380   9.349  10.560 -0.7455  0.1771 -0.8203
  594MOL0     C78290  -0.492   9.446  10.541  0.2402 -0.3188 -0.0752
  594MOL0     C78291  -0.576   9.401  10.422 -0.4957  0.6593  0.4621
  594MOL0     C78292  -0.723   9.391  10.457  0.3327 -0.8529 -0.5930
  594MOL0     N78293  -0.792   9.524  10.457  0.3374  0.6827  0.6321
  594MOL0     C78294  -0.791   9.616  10.552  0.0141  0.0318 -0.1849
  594MOL0     C78295  -0.870   9.715  10.507  0.0945  0.1280  0.0248
  594MOL0     C78296  -0.889   9.851  10.574 -0.9744  0.2741 -0.4078
  594MOL0     C78297  -0.764   9.946  10.585  0.0531 -0.3854  0.5233
  594MOL0     C78298  -0.729   9.998  10.448  0.0536  0.9923 -0.4844
  594MOL0     C78299  -0.605  10.093  10.443 -0.3330 -0.3752  0.0862
  594MOL0     O78300  -0.486  10.039  10.512  0.0926  0.4915 -0.6265
  594MOL0     C78301  -0.370  10.109  10.525 -0.4143 -0.3945  1.0786
  594MOL0     C78302  -0.259  10.035  10.560  0.5340 -0.0316 -0.3715
  594MOL0     C78303  -0.149  10.113  10.610 -0.3497 -0.3287  0.0913
  594MOL0     C78304  -0.139  10.244  10.612  0.0711  0.2379  0.5399
  594MOL0     C78305  -0.021  10.318  10.659 -0.6658 -0.1521  0.1100
  594MOL0     O78306  -0.015  10.449  10.643 -0.5507  0.0713  0.3766
  594MOL0     C78307   0.105  10.519  10.650 -1.0931 -0.8376 -0.2556
  594MOL0     C78308   0.102  10.659  10.683 -0.0368  0.7442 -0.0477
  594MOL0     C78309   0.216  10.737  10.681  0.1338  0.2520  0.3664
  594MOL0     C78310   0.340  10.679  10.646  0.8991  0.1751  0.0353
  594MOL0     O78311   0.456  10.744  10.635  0.5302 -0.5930  0.0599
  594MOL0     C78312   0.440  10.886  10.601 -0.2671  0.3291 -0.2505
  594MOL0     C78313   0.581  10.950  10.603  0.3575  0.1909  0.2133
  594MOL0     C78314   0.668  10.892  10.492  0.9120 -0.7230  0.6972
  594MOL0     C78315   0.814  10.946  10.487  1.2699 -0.2561  0.2268
  594MOL0     C78316   0.897  10.849  10.400  0.3439  0.5329 -0.0776
  594MOL0     C78317   1.048  10.879  10.411  0.4917  0.3540  0.7265
  594MOL0     C78318   1.124  10.775  10.321  0.0489  0.1446  0.1259
  594MOL0     C78319   1.270  10.796  10.345 -0.3145  0.4292  0.4365
  594MOL0    Cl78320   1.370  10.719  10.224 -0.2451 -0.2154 -0.0773
  594MOL0     C78321   0.344  10.542  10.614 -0.7138  0.8515  0.1944
  594MOL0     C78322   0.228  10.463  10.608  0.6554 -0.3154 -0.3124
  594MOL0     O78323   0.058  10.256  10.721  0.1255  0.1100  0.0472
  594MOL0     C78324  -0.251  10.322  10.564  0.5410  0.8406  0.2982
  594MOL0     C78325  -0.360  10.256  10.520  0.2776  0.2083  0.4533
  594MOL0     N78326  -0.916   9.678  10.381 -0.6673  0.4692 -0.1233
  594MOL0     N78327  -0.863   9.565  10.353 -0.1867  0.0741  0.3212
  594MOL0     C78328   0.214   9.031  10.575 -0.1560 -0.0685 -0.2043
  594MOL0     C78329   0.338   8.963  10.576  0.8470  0.0815 -0.4004
  594MOL0     C78330   0.652   8.670  10.704 -0.2238 -0.8730  0.6368
  594MOL0     C78331   0.772   8.745  10.681  0.4001 -0.2302  0.9413
  594MOL0     C78332   0.897   8.668  10.682  0.3101  0.7163 -0.6606
  594MOL0     C78333   0.910   8.536  10.712  0.5294 -0.1591 -0.1156
  594MOL0     O78334   1.033   8.481  10.704  0.3431 -0.0798 -0.3204
  594MOL0     C78335   1.051   8.335  10.706 -0.1170  1.7051 -0.4726
  594MOL0     C78336   0.993   8.276  10.580 -0.7414 -0.2414 -0.0790
  594MOL0     C78337   1.057   8.337  10.449 -0.6808 -0.4543  0.5582
  594MOL0     C78338   1.212   8.340  10.440 -0.5148  0.8901  0.1791
  594MOL0     C78339   1.235   8.428  10.321  0.4795  0.4006 -0.4301
  594MOL0     C78340   1.256   8.510  10.233 -0.2249  0.3879 -0.3047
  594MOL0     C78341   0.790   8.469  10.743 -0.1272 -0.4079 -0.0085
  594MOL0     C78342   0.666   8.531  10.740  0.0707 -1.3480 -0.2887
  594MOL0     H78343   0.386   8.915  10.899 -1.3142 -2.6042  0.0642
  594MOL0     H78344   0.166   9.017  10.911  0.5665 -1.3005  1.3726
  594MOL0     H78345   0.002   9.190  10.892  0.9719 -0.9953  0.0981
  594MOL0     H78346  -0.070   9.039  10.864 -2.8991  0.8321  0.7347
  594MOL0     H78347  -0.238   9.215  10.857  2.8424  3.8919  1.1304
  594MOL0     H78348  -0.225   9.122  10.702  0.2920  0.5176 -1.0108
  594MOL0     H78349  -0.100   9.319  10.602 -0.4490  0.1785 -0.1818
  594MOL0     H78350  -0.106   9.409  10.757  5.6513 -1.4567 -1.3232
  594MOL0     H78351  -0.335   9.425  10.760 -0.3947 -0.4600 -0.3946
  594MOL0     H78352  -0.257   9.501  10.614  0.2840  1.1275  1.7715
  594MOL0     H78353  -0.415   9.251  10.591 -1.4288  0.9680  1.0171
  594MOL0     H78354  -0.330   9.334  10.464  4.1210 -2.8577  1.7743
  594MOL0     H78355  -0.456   9.547  10.518  1.0396 -0.8504 -1.2557
  594MOL0     H78356  -0.559   9.450  10.627  0.1478  2.2718 -0.1983
  594MOL0     H78357  -0.560   9.464  10.334 -2.1843 -0.9908 -1.1376
  594MOL0     H78358  -0.536   9.307  10.381  1.2789  1.7237 -0.3573
  594MOL0     H78359  -0.728   9.347  10.557  1.3994  0.5050  0.0873
  594MOL0     H78360  -0.759   9.324  10.378  1.2592 -2.1979  0.0930
  594MOL0     H78361  -0.728   9.620  10.641  1.7865  0.2514 -1.3943
  594MOL0     H78362  -0.905   9.831  10.680 -2.3932  2.3296 -0.1549
  594MOL0     H78363  -0.982   9.897  10.538 -0.4153  1.4869 -0.3631
  594MOL0     H78364  -0.680   9.894  10.632 -1.1882  0.0717  3.4596
  594MOL0     H78365  -0.791  10.027  10.654  0.4219  1.0696 -0.9808
  594MOL0     H78366  -0.712   9.913  10.382 -0.7816  0.2416  0.2439
  594MOL0     H78367  -0.811  10.059  10.407 -0.0247 -0.5254 -2.7372
  594MOL0     H78368  -0.633  10.189  10.486 -3.2026  0.2025 -2.7130
  594MOL0     H78369  -0.580  10.111  10.338  4.0869  0.8115  1.1345
  594MOL0     H78370  -0.246   9.927  10.566 -1.8304 -0.3570 -0.2629
  594MOL0     H78371  -0.072  10.056  10.662  0.3879 -0.2124 -0.8432
  594MOL0     H78372  -0.000  10.686  10.707 -0.8211 -0.3850 -1.9505
  594MOL0     H78373   0.208  10.839  10.717 -0.2661  0.7663 -1.0841
  594MOL0     H78374   0.388  10.936  10.684 -0.1213 -0.8925  0.6060
  594MOL0     H78375   0.390  10.902  10.505 -0.6702  0.7010  0.0168
  594MOL0     H78376   0.614  10.940  10.707  0.1447 -0.4352  0.2208
  594MOL0     H78377   0.587  11.059  10.592  1.5155 -0.0400 -2.0182
  594MOL0     H78378   0.623  10.927  10.399  3.2602 -0.0759 -0.2690
  594MOL0     H78379   0.667  10.783  10.500  1.4643 -0.7081  1.0556
  594MOL0     H78380   0.815  11.048  10.447  0.8679 -0.0043  0.8482
  594MOL0     H78381   0.856  10.944  10.588  2.4773 -0.4640 -0.2610
  594MOL0     H78382   0.866  10.853  10.295  2.6272 -2.7079 -1.0305
  594MOL0     H78383   0.894  10.747  10.439  1.8696  1.0102  1.4209
  594MOL0     H78384   1.075  10.854  10.514  1.8751  1.4128  0.6414
  594MOL0     H78385   1.066  10.984  10.390 -0.9368  0.9750  2.3765
  594MOL0     H78386   1.083  10.675  10.337 -0.1962  0.3354  0.7175
  594MOL0     H78387   1.104  10.788  10.214  0.9929  0.1181 -0.0546
  594MOL0     H78388   1.282  10.759  10.447 -1.7862 -1.8553 -0.1368
  594MOL0     H78389   1.296  10.902  10.344  0.0497  0.3394 -0.0859
  594MOL0     H78390   0.438  10.499  10.579 -0.4206  2.0092 -0.4851
  594MOL0     H78391   0.231  10.362  10.568 -0.8790 -1.0924  1.3777
  594MOL0     H78392  -0.265  10.430  10.564 -1.5914  0.6188 -0.5649
  594MOL0     H78393  -0.452  10.298  10.480  0.1352 -1.5876 -1.2485
  594MOL0     H78394   0.165   9.069  10.486 -0.8150  0.8396  0.5311
  594MOL0     H78395   0.385   8.954  10.479 -0.3457 -2.5941 -0.8213
  594MOL0     H78396   0.765   8.850  10.654 -0.3779 -0.3174  0.7662
  594MOL0     H78397   0.991   8.714  10.652  1.9461 -2.5363 -0.8806
  594MOL0     H78398   1.007   8.290  10.795 -0.7318  2.1982 -0.5179
  594MOL0     H78399   1.156   8.307  10.709 -0.1536  1.0773 -2.9523
  594MOL0     H78400   0.993   8.166  10.584 -0.4898 -0.3058 -1.3067
  594MOL0     H78401   0.888   8.301  10.563 -0.5253  1.1078  0.4461
  594MOL0     H78402   1.033   8.443  10.463  3.7570  0.8987 -0.2206
  594MOL0     H78403   1.011   8.291  10.361  0.5073  1.5622 -1.2480
  594MOL0     H78404   1.259   8.385  10.529 -0.6257 -1.3385  1.4445
  594MOL0     H78405   1.245   8.236  10.439  3.0175  1.8710  0.2664
  594MOL0     H78406   1.284   8.580  10.157  1.9646  0.5254  0.5491
  594MOL0     H78407   0.788   8.366  10.778  0.0589 -0.1973  0.6404
  594MOL0     H78408   0.581   8.469  10.764 -2.8203  2.7750  1.2769
  595MOL0     O78409   7.749   5.377  10.570  0.5206  0.1942 -0.3169
  595MOL0     C78410   7.839   5.358  10.492  1.0070 -0.5107  0.4395
  595MOL0     O78411   7.819   5.348  10.355  0.7038 -0.1768  0.2914
  595MOL0     C78412   7.705   5.298  10.311  0.3331  0.0949  0.1093
  595MOL0     C78413   7.652   5.170  10.349  0.3941  0.7936 -1.1700
  595MOL0     C78414   7.540   5.115  10.286  0.5946 -0.2319 -0.0625
  595MOL0     C78415   7.481   5.184  10.180  0.5116  0.2186 -0.0199
  595MOL0     O78416   7.365   5.150  10.103  0.5060  0.2649 -0.1349
  595MOL0     C78417   7.264   5.083  10.169  0.1354  0.3684  0.1301
  595MOL0     C78418   7.125   5.091  10.095 -0.8317  0.5792  0.1657
  595MOL0     C78419   7.005   5.033  10.167  0.2613 -1.1793  0.1239
  595MOL0     C78420   7.012   4.888  10.218  0.0809 -0.0898  0.6426
  595MOL0     C78421   6.886   4.861  10.309  0.5887  0.7035  0.6400
  595MOL0     C78422   6.905   4.753  10.410  0.2252  0.2302  0.9272
  595MOL0     C78423   6.777   4.715  10.497  0.8668  1.1102 -0.4393
  595MOL0     C78424   6.825   4.658  10.634  0.6653 -0.2102 -0.5455
  595MOL0     N78425   6.712   4.608  10.709 -0.3391 -0.4123 -0.7465
  595MOL0     C78426   6.655   4.481  10.703  0.2251 -0.5543 -0.1740
  595MOL0     C78427   6.546   4.488  10.787  0.5869 -0.0094  0.3918
  595MOL0     C78428   6.439   4.391  10.817  0.0730  0.1525 -0.4839
  595MOL0     C78429   6.303   4.447  10.780  0.0077  0.2864  0.0661
  595MOL0     C78430   6.195   4.335  10.772  0.0791  0.2568 -0.7537
  595MOL0     C78431   6.069   4.391  10.714 -0.6818 -0.3923  0.4406
  595MOL0     O78432   6.030   4.479  10.813 -0.1109  0.3962 -0.3413
  595MOL0     C78433   5.924   4.569  10.794  0.6691  0.6008 -0.4918
  595MOL0     C78434   5.843   4.574  10.676 -0.4309  0.2249 -0.9244
  595MOL0     C78435   5.740   4.674  10.673 -0.2593 -0.4443  0.4457
  595MOL0     C78436   5.708   4.748  10.786  0.0375  0.0185 -0.8292
  595MOL0     C78437   5.586   4.842  10.788 -0.8718  0.9870  0.8577
  595MOL0     O78438   5.501   4.845  10.670 -0.2229  0.6160 -0.6304
  595MOL0     C78439   5.371   4.891  10.694 -1.1883 -0.0048 -0.1467
  595MOL0     C78440   5.267   4.805  10.668  0.4674 -0.8789  1.0036
  595MOL0     C78441   5.132   4.854  10.676  0.1376 -0.0843 -0.0793
  595MOL0     C78442   5.103   4.985  10.725  0.4184 -0.1772 -0.1542
  595MOL0     O78443   4.978   5.043  10.737 -0.0676  0.9348 -0.1830
  595MOL0     C78444   4.865   4.995  10.659 -0.0770  0.3357  0.1395
  595MOL0     C78445   4.789   5.102  10.588  0.1163  0.4640 -0.3619
  595MOL0     C78446   4.761   5.231  10.678  0.6940  0.0051 -1.1179
  595MOL0     C78447   4.665   5.319  10.594  0.2310 -0.1708  0.1193
  595MOL0     C78448   4.521   5.284  10.630 -0.1939 -0.2200  0.3103
  595MOL0     C78449   4.418   5.365  10.543  0.3180  1.0798  0.1743
  595MOL0     C78450   4.276   5.320  10.575  0.1647 -1.1139 -0.5569
  595MOL0     C78451   4.211   5.210  10.493 -0.7229  0.4624  0.5645
  595MOL0    Cl78452   4.100   5.110  10.594  0.2733 -0.1827 -0.0673
  595MOL0     C78453   5.215   5.063  10.753 -0.1421  0.0283  0.2450
  595MOL0     C78454   5.344   5.021  10.739 -0.1869  0.4907 -0.3780
  595MOL0     O78455   5.558   4.898  10.893  0.5735  0.7484  0.3874
  595MOL0     C78456   5.781   4.724  10.904  0.5188 -0.2540  0.0623
  595MOL0     C78457   5.891   4.633  10.908  0.0508 -0.9855  0.6620
  595MOL0     N78458   6.535   4.623  10.826 -0.7375 -0.1252 -0.2952
  595MOL0     N78459   6.640   4.694  10.792 -0.2715  0.0693 -0.1853
  595MOL0     C78460   7.536   5.311  10.142 -0.6483  0.4707  0.5806
  595MOL0     C78461   7.656   5.357  10.199 -0.2337 -0.1347  0.4440
  595MOL0     C78462   7.980   5.382  10.533  0.2443  0.0679 -0.5572
  595MOL0     C78463   8.071   5.426  10.435  1.0201 -0.9029  0.1871
  595MOL0     C78464   8.208   5.451  10.466  0.1200  0.2974 -0.1820
  595MOL0     C78465   8.250   5.424  10.603  0.3357  0.7795  0.7738
  595MOL0     O78466   8.393   5.435  10.629  0.0021 -0.3317 -0.0067
  595MOL0     C78467   8.434   5.412  10.761 -0.8260  0.3850 -1.2397
  595MOL0     C78468   8.574   5.466  10.779 -0.8746 -0.0100 -0.2969
  595MOL0     C78469   8.671   5.404  10.685  0.6912 -0.2749 -0.1793
  595MOL0     C78470   8.817   5.431  10.716 -0.3227 -0.7034 -0.0540
  595MOL0     C78471   8.845   5.572  10.716  0.0730 -0.4501  0.7960
  595MOL0     C78472   8.840   5.694  10.709  0.1014  0.1909  0.1016
  595MOL0     C78473   8.158   5.388  10.695 -0.1288 -0.1410  0.1672
  595MOL0     C78474   8.026   5.368  10.660  0.4758  0.8317 -0.3307
  595MOL0     H78475   7.686   5.120  10.439 -1.3280  0.4062 -0.6939
  595MOL0     H78476   7.509   5.012  10.300  0.4502 -0.2051 -0.1913
  595MOL0     H78477   7.249   5.111  10.274 -3.3956 -0.3709 -0.0527
  595MOL0     H78478   7.298   4.981  10.191  0.0955  0.3692  0.2017
  595MOL0     H78479   7.137   5.045   9.996 -1.8589 -0.0806  0.3404
  595MOL0     H78480   7.110   5.199  10.085  1.3343  1.0951  1.6826
  595MOL0     H78481   6.923   5.043  10.095  1.0162 -0.2933 -0.6376
  595MOL0     H78482   6.983   5.100  10.250  0.1677  3.7356 -3.4154
  595MOL0     H78483   7.037   4.821  10.135  1.0085  0.2661  0.6219
  595MOL0     H78484   7.094   4.872  10.288 -0.4882 -0.8610  1.1395
  595MOL0     H78485   6.800   4.833  10.248  1.4668 -1.1930  0.2200
  595MOL0     H78486   6.867   4.944  10.379 -1.7588 -0.9057  2.0518
  595MOL0     H78487   6.992   4.762  10.476  1.6744 -2.4230 -0.4920
  595MOL0     H78488   6.934   4.664  10.353 -0.2859  0.5129  0.2060
  595MOL0     H78489   6.701   4.793  10.514 -0.6865 -0.5338  0.5556
  595MOL0     H78490   6.728   4.633  10.445 -1.8103  1.3602  1.4693
  595MOL0     H78491   6.872   4.737  10.693 -1.9852  0.0710  1.4125
  595MOL0     H78492   6.891   4.572  10.625 -0.4288 -1.3322  1.3577
  595MOL0     H78493   6.684   4.401  10.635 -0.5882 -0.5751 -0.4994
  595MOL0     H78494   6.453   4.372  10.923  0.7793  0.1894 -0.5653
  595MOL0     H78495   6.456   4.297  10.763  2.2337  0.2622 -0.0700
  595MOL0     H78496   6.313   4.504  10.687  0.7818 -1.4625 -0.9782
  595MOL0     H78497   6.272   4.522  10.854 -1.3572  1.1309 -1.2743
  595MOL0     H78498   6.238   4.257  10.709  0.7881  0.8962 -1.0868
  595MOL0     H78499   6.166   4.295  10.870  0.8212  2.4164  0.4113
  595MOL0     H78500   6.004   4.305  10.697  0.4418 -1.9675  3.4427
  595MOL0     H78501   6.087   4.449  10.623  0.0549  0.3492  1.0406
  595MOL0     H78502   5.864   4.518  10.585 -2.0885  1.1923 -1.9738
  595MOL0     H78503   5.680   4.679  10.583  1.2996  1.4056 -0.5550
  595MOL0     H78504   5.296   4.700  10.660 -0.3384 -1.1600  1.5985
  595MOL0     H78505   5.039   4.800  10.659 -1.8882  2.7795  1.1944
  595MOL0     H78506   4.787   4.960  10.727 -1.1462  1.4360 -0.4702
  595MOL0     H78507   4.897   4.918  10.588  0.6769 -1.6569  2.5210
  595MOL0     H78508   4.688   5.067  10.568  0.3244  0.7405 -2.0585
  595MOL0     H78509   4.838   5.114  10.490  3.5613  2.2684  1.3838
  595MOL0     H78510   4.854   5.283  10.704 -0.9892  2.2885  0.7627
  595MOL0     H78511   4.711   5.201  10.771 -0.2683  1.5419 -1.1051
  595MOL0     H78512   4.694   5.422  10.614  2.8383 -1.2125  2.5292
  595MOL0     H78513   4.666   5.305  10.486 -0.9870  5.0197 -0.7910
  595MOL0     H78514   4.514   5.297  10.738  0.0043  0.5766  0.2328
  595MOL0     H78515   4.514   5.175  10.618 -1.3684 -0.0698 -0.5758
  595MOL0     H78516   4.437   5.353  10.436 -1.2962 -0.2338 -0.0034
  595MOL0     H78517   4.430   5.472  10.564 -1.6661  1.3815  0.0258
  595MOL0     H78518   4.270   5.286  10.679 -1.7006  0.9232  0.0639
  595MOL0     H78519   4.212   5.408  10.564  1.4439  0.6510  3.8137
  595MOL0     H78520   4.290   5.146  10.453 -2.6660 -1.8551  0.1371
  595MOL0     H78521   4.146   5.242  10.410 -0.2546  1.3811  0.5503
  595MOL0     H78522   5.185   5.157  10.799 -3.6870 -1.2212  0.8002
  595MOL0     H78523   5.423   5.093  10.758  0.4865  0.1909 -1.8897
  595MOL0     H78524   5.750   4.781  10.990 -0.8347  0.2032 -0.6964
  595MOL0     H78525   5.941   4.621  11.003 -2.8598 -0.9132  2.3127
  595MOL0     H78526   7.486   5.361  10.059 -3.3526 -1.0476  1.1752
  595MOL0     H78527   7.714   5.443  10.168  0.7197 -0.5129  1.1269
  595MOL0     H78528   8.037   5.460  10.338 -1.8165 -1.4764  0.8998
  595MOL0     H78529   8.287   5.475  10.396  2.0253 -1.1253  1.3612
  595MOL0     H78530   8.457   5.306  10.775  1.0875  0.5991 -2.3408
  595MOL0     H78531   8.359   5.457  10.827 -0.3337  1.8866 -1.6584
  595MOL0     H78532   8.579   5.575  10.769  1.9692  0.0808  1.2335
  595MOL0     H78533   8.608   5.439  10.879 -0.6794 -1.6902 -0.7992
  595MOL0     H78534   8.651   5.437  10.582  1.7414  1.3749  0.1107
  595MOL0     H78535   8.664   5.295  10.681  1.1965 -0.2789 -1.9205
  595MOL0     H78536   8.836   5.380  10.811  2.3350  0.9357  0.3810
  595MOL0     H78537   8.872   5.385  10.634  0.3445  1.3168 -0.7980
  595MOL0     H78538   8.837   5.799  10.690  0.1552 -0.1863 -2.3247
  595MOL0     H78539   8.169   5.377  10.803 -4.4585  0.0886  0.7772
  595MOL0     H78540   7.953   5.352  10.739  0.4213 -0.1373 -0.5670
  596MOL0     O78541   6.884  10.195   3.216  0.4946 -0.2673  0.3161
  596MOL0     C78542   6.820  10.231   3.114 -0.2976 -0.2286 -0.5982
  596MOL0     O78543   6.864  10.229   2.987  0.8827 -0.6748 -0.0656
  596MOL0     C78544   6.996  10.221   2.959 -0.0435  0.4859  1.1004
  596MOL0     C78545   7.055  10.315   2.864 -1.0267  0.5892 -0.1031
  596MOL0     C78546   7.198  10.315   2.827 -0.0002  0.4397 -0.1321
  596MOL0     C78547   7.269  10.205   2.881  0.7269  0.0691  0.2898
  596MOL0     O78548   7.400  10.188   2.837  0.2154  0.2019 -0.1783
  596MOL0     C78549   7.483  10.294   2.870 -0.8643  0.5929 -0.6647
  596MOL0     C78550   7.627  10.242   2.848  0.3945 -1.8052 -0.0648
  596MOL0     C78551   7.731  10.350   2.866 -0.5458 -0.4190  0.0838
  596MOL0     C78552   7.869  10.301   2.910  0.0695  0.2096 -0.2216
  596MOL0     C78553   7.944  10.427   2.933 -0.3851  0.1978  0.0850
  596MOL0     C78554   8.089  10.397   2.907  0.6336 -0.4870  0.2702
  596MOL0     C78555   8.175  10.524   2.941  1.3626  1.1352 -0.2523
  596MOL0     C78556   8.316  10.489   2.914  0.2996 -0.0503  0.5120
  596MOL0     N78557   8.405  10.610   2.890 -0.4066  0.4162 -0.3910
  596MOL0     C78558   8.456  10.697   2.988  0.6483 -0.2097  0.4134
  596MOL0     C78559   8.568  10.751   2.937 -0.3675 -0.7250  0.6811
  596MOL0     C78560   8.643  10.856   3.006 -0.3741  0.3273 -0.4035
  596MOL0     C78561   8.786  10.806   3.019 -0.4711 -0.0884  0.7801
  596MOL0     C78562   8.857  10.889   3.128  0.2742  0.5497  0.0005
  596MOL0     C78563   9.008  10.856   3.126 -0.2528  0.1062 -0.0259
  596MOL0     O78564   9.073  10.892   3.007  0.0655  0.0055  0.6101
  596MOL0     C78565   9.208  10.896   2.993  0.2581  0.4497  0.1097
  596MOL0     C78566   9.302  10.901   3.096 -0.1407  0.7545  1.4255
  596MOL0     C78567   9.447  10.909   3.070 -0.2781  0.6888  0.3330
  596MOL0     C78568   9.490  10.905   2.935  0.2661 -0.9443  0.4327
  596MOL0     C78569   9.636  10.920   2.898 -0.0101  1.6662  0.1525
  596MOL0     O78570   9.723  10.934   2.997 -0.5877 -0.2100 -0.6781
  596MOL0     C78571   9.857  10.929   2.967  0.0687  0.5031 -0.2106
  596MOL0     C78572   9.934  11.038   3.005 -0.4040 -0.0301  0.8941
  596MOL0     C78573  10.075  11.051   2.976  0.2605 -0.2479 -0.0394
  596MOL0     C78574  10.134  10.941   2.940 -0.6100  0.6468 -0.0572
  596MOL0     O78575  10.272  10.935   2.935 -0.5562 -0.3501  0.0356
  596MOL0     C78576  10.348  10.941   3.059 -0.3716  0.0656  0.0091
  596MOL0     C78577  10.431  10.814   3.068 -0.7482 -0.1697 -0.8198
  596MOL0     C78578  10.506  10.819   3.201  1.1136 -0.4468 -0.3966
  596MOL0     C78579  10.586  10.695   3.234 -0.0969 -0.9060  0.8987
  596MOL0     C78580  10.726  10.732   3.281 -1.0261  0.7187 -0.0395
  596MOL0     C78581  10.821  10.615   3.318  0.0469 -0.3276 -0.8161
  596MOL0     C78582  10.963  10.678   3.353  0.7509  0.2401  0.3726
  596MOL0     C78583  11.066  10.558   3.359 -0.3837 -0.2495  0.7525
  596MOL0    Cl78584  11.166  10.536   3.212  0.0699  0.1175  0.6978
  596MOL0     C78585  10.062  10.830   2.902 -0.6748 -0.9180  1.1947
  596MOL0     C78586   9.925  10.825   2.922  0.2628  0.2160  0.6730
  596MOL0     O78587   9.665  10.907   2.783  0.3754  0.7448  0.5659
  596MOL0     C78588   9.389  10.903   2.833  0.5437 -0.7394 -0.3882
  596MOL0     C78589   9.255  10.900   2.861  1.0879  0.8992 -0.1598
  596MOL0     N78590   8.597  10.705   2.810 -0.2675 -0.1698  0.3130
  596MOL0     N78591   8.500  10.620   2.790  0.3230  0.0874 -0.1058
  596MOL0     C78592   7.208  10.108   2.973 -0.1720  0.2054  0.5778
  596MOL0     C78593   7.071  10.112   2.995  0.2268 -0.0701 -0.5225
  596MOL0     C78594   6.680  10.275   3.151  0.2386  1.0345  0.8324
  596MOL0     C78595   6.611  10.363   3.066  0.1388 -0.1746  0.3323
  596MOL0     C78596   6.486  10.408   3.101  0.1357  0.3181  0.4011
  596MOL0     C78597   6.434  10.383   3.229  0.1999 -0.4882 -0.5038
  596MOL0     O78598   6.300  10.441   3.244  0.6966  0.2251 -0.0453
  596MOL0     C78599   6.271  10.511   3.364 -0.5099  0.4047  0.3065
  596MOL0     C78600   6.125  10.542   3.367 -0.2115  0.0349  0.2455
  596MOL0     C78601   6.095  10.686   3.434  0.2849  0.3283 -0.4635
  596MOL0     C78602   5.940  10.706   3.478 -0.9707 -0.3067  0.5421
  596MOL0     C78603   5.914  10.682   3.621  0.7294 -0.0453  0.4129
  596MOL0     C78604   5.854  10.655   3.729  0.5280  0.2623  0.6774
  596MOL0     C78605   6.501  10.301   3.323 -0.5329 -0.4153 -0.0598
  596MOL0     C78606   6.622  10.250   3.280  0.5414  0.5209  0.2260
  596MOL0     H78607   7.000  10.394   2.814  2.8774  2.6677 -1.6292
  596MOL0     H78608   7.240  10.390   2.761  0.5468 -0.4332 -0.8035
  596MOL0     H78609   7.475  10.324   2.974  1.5615 -1.0739  0.0808
  596MOL0     H78610   7.474  10.387   2.814 -3.1659  0.8224 -0.0210
  596MOL0     H78611   7.635  10.184   2.756 -1.7218 -3.7609  0.8865
  596MOL0     H78612   7.648  10.170   2.928  2.0229 -0.9408  0.3307
  596MOL0     H78613   7.698  10.428   2.935 -2.0294 -0.2526 -0.7795
  596MOL0     H78614   7.746  10.402   2.771  4.0154  2.3957  2.0079
  596MOL0     H78615   7.872  10.241   3.001 -3.6208  2.0079  1.3433
  596MOL0     H78616   7.903  10.244   2.823  0.3772  0.2564 -0.1300
  596MOL0     H78617   7.928  10.447   3.039  0.6108 -0.1685  0.3151
  596MOL0     H78618   7.916  10.505   2.861  1.8700 -0.4761 -1.6415
  596MOL0     H78619   8.108  10.372   2.802  4.1914 -0.2025  0.7071
  596MOL0     H78620   8.130  10.310   2.960  2.8842 -0.6532 -1.5682
  596MOL0     H78621   8.145  10.609   2.879 -1.8626 -0.1819 -0.7362
  596MOL0     H78622   8.159  10.545   3.047 -1.3826 -0.4618 -0.2495
  596MOL0     H78623   8.335  10.421   2.830 -0.0549  0.4691  0.0050
  596MOL0     H78624   8.347  10.449   3.011  0.9140  0.8415  0.6918
  596MOL0     H78625   8.407  10.705   3.085  1.4674  1.9385  0.6966
  596MOL0     H78626   8.591  10.881   3.099  0.0302 -3.5982  1.0599
  596MOL0     H78627   8.652  10.949   2.950 -3.8650  0.7356 -0.4866
  596MOL0     H78628   8.834  10.832   2.924 -1.9165 -1.8132 -0.4764
  596MOL0     H78629   8.791  10.698   3.028  1.5652 -0.1057 -0.0133
  596MOL0     H78630   8.844  10.997   3.124 -2.6815  0.2744  0.1287
  596MOL0     H78631   8.819  10.865   3.227  0.7170 -0.6673 -0.1023
  596MOL0     H78632   9.038  10.755   3.154  0.5234  0.4923  0.5874
  596MOL0     H78633   9.050  10.927   3.199 -3.0147  2.0155 -0.1165
  596MOL0     H78634   9.275  10.910   3.201 -1.3223  1.6125  1.0520
  596MOL0     H78635   9.516  10.908   3.154 -0.6958 -1.1280  0.7106
  596MOL0     H78636   9.876  11.120   3.048 -0.9855 -0.5071  1.0330
  596MOL0     H78637  10.127  11.138   3.014  0.1440 -2.0281  4.8428
  596MOL0     H78638  10.279  10.946   3.143 -0.2650  0.8259  0.0610
  596MOL0     H78639  10.412  11.029   3.069 -1.5082  0.6491  3.0759
  596MOL0     H78640  10.504  10.809   2.987  1.3942  1.0546  0.8819
  596MOL0     H78641  10.361  10.731   3.056 -1.7714  0.0682  2.4802
  596MOL0     H78642  10.439  10.841   3.285  1.9284  1.8928 -0.2788
  596MOL0     H78643  10.571  10.907   3.198  0.8365 -0.1867  0.5556
  596MOL0     H78644  10.534  10.644   3.316  2.2886  0.7410  3.6317
  596MOL0     H78645  10.600  10.626   3.150 -0.5828  0.2236 -0.1359
  596MOL0     H78646  10.713  10.800   3.366  0.2586 -1.2439  1.8254
  596MOL0     H78647  10.778  10.782   3.199 -0.9560  2.5747  1.0591
  596MOL0     H78648  10.833  10.544   3.235 -0.1966  0.1840 -1.3009
  596MOL0     H78649  10.797  10.557   3.407  1.5391  0.3738  0.0949
  596MOL0     H78650  10.997  10.756   3.283 -1.0840  2.7211  2.0807
  596MOL0     H78651  10.953  10.723   3.452  1.0069 -0.2816  0.6406
  596MOL0     H78652  11.022  10.464   3.394 -0.4047  0.5073  2.8636
  596MOL0     H78653  11.138  10.559   3.441  0.0960 -3.4689  0.5139
  596MOL0     H78654  10.104  10.735   2.871 -2.1184 -1.3090  0.3164
  596MOL0     H78655   9.867  10.736   2.897 -0.6805  1.3611 -1.5677
  596MOL0     H78656   9.437  10.891   2.737  1.4905  0.8699 -0.1609
  596MOL0     H78657   9.178  10.905   2.784 -0.0104 -2.3503  0.5501
  596MOL0     H78658   7.288  10.044   3.007  0.9586  1.4644  0.4044
  596MOL0     H78659   7.013  10.039   3.051 -1.9848  0.7929 -1.5455
  596MOL0     H78660   6.641  10.404   2.970  0.8092 -0.0151  0.6051
  596MOL0     H78661   6.426  10.469   3.035 -1.1928  0.6202  1.8215
  596MOL0     H78662   6.339  10.595   3.376 -1.7464  2.0392 -2.8421
  596MOL0     H78663   6.290  10.447   3.450  0.9246 -0.3297 -0.5153
  596MOL0     H78664   6.067  10.529   3.275 -0.9358  0.4164  0.6348
  596MOL0     H78665   6.085  10.469   3.438 -4.0319  0.8121 -0.8645
  596MOL0     H78666   6.126  10.770   3.371  2.0742 -0.4156 -0.6379
  596MOL0     H78667   6.152  10.671   3.526 -1.7800 -1.3416  0.6424
  596MOL0     H78668   5.919  10.812   3.458 -3.6646 -0.3755  2.5585
  596MOL0     H78669   5.882  10.639   3.415 -0.7686  1.2471 -1.4125
  596MOL0     H78670   5.801  10.627   3.818 -2.4884  1.5333 -0.5860
  596MOL0     H78671   6.464  10.289   3.425  0.2003 -0.0948  0.2486
  596MOL0     H78672   6.676  10.178   3.340  0.5219 -0.3604 -0.7646
  597MOL0     O78673   7.575   2.133   0.408  0.2924  0.2066 -0.3783
  597MOL0     C78674   7.662   2.213   0.389 -0.8065  0.0443  0.0973
  597MOL0     O78675   7.649   2.349   0.391  0.5469  0.1302 -1.0058
  597MOL0     C78676   7.522   2.394   0.429  0.0020 -0.6308  0.3332
  597MOL0     C78677   7.479   2.390   0.557 -0.4295 -0.2502  1.5398
  597MOL0     C78678   7.343   2.413   0.588 -0.0852  0.2695 -0.2106
  597MOL0     C78679   7.244   2.431   0.489  0.3140 -0.5438  1.3356
  597MOL0     O78680   7.115   2.421   0.531  0.0052  0.2652 -0.7791
  597MOL0     C78681   7.014   2.445   0.429  0.4182 -0.3886 -0.4740
  597MOL0     C78682   6.870   2.466   0.484  1.2100  0.0128 -0.2044
  597MOL0     C78683   6.765   2.491   0.361 -1.3419  0.9463  0.1238
  597MOL0     C78684   6.669   2.609   0.382  0.9244  0.2042 -0.5640
  597MOL0     C78685   6.574   2.650   0.268  0.4279  0.6702 -0.6377
  597MOL0     C78686   6.637   2.670   0.137 -1.0287  0.1603  0.1339
  597MOL0     C78687   6.546   2.721   0.023  0.6590 -0.3261 -0.1414
  597MOL0     C78688   6.454   2.835   0.066 -0.1960  0.3360  1.2836
  597MOL0     N78689   6.381   2.896  -0.042  0.8608 -0.0968 -0.5065
  597MOL0     C78690   6.422   2.932  -0.163 -0.4627  0.4559 -0.1845
  597MOL0     C78691   6.308   2.971  -0.230  0.0167  0.4168  0.3425
  597MOL0     C78692   6.292   2.993  -0.371 -0.5546 -0.6606 -0.2931
  597MOL0     C78693   6.301   3.148  -0.398  0.2411 -0.5775  0.3522
  597MOL0     C78694   6.266   3.179  -0.542  0.0241 -0.0618  0.1739
  597MOL0     C78695   6.233   3.322  -0.565  0.1482 -0.0032  0.4669
  597MOL0     O78696   6.179   3.334  -0.696  0.3070  0.0558  0.0149
  597MOL0     C78697   6.044   3.301  -0.725 -0.1714  0.2755 -1.1920
  597MOL0     C78698   5.947   3.293  -0.624 -0.2093 -0.1092 -0.1906
  597MOL0     C78699   5.813   3.284  -0.657 -0.6324 -0.8092 -0.8152
  597MOL0     C78700   5.771   3.267  -0.791 -0.2571  0.6199  0.2592
  597MOL0     C78701   5.631   3.227  -0.821 -0.1301  0.1455  0.8226
  597MOL0     O78702   5.536   3.257  -0.727  0.0802  0.2126  0.3621
  597MOL0     C78703   5.406   3.255  -0.771 -0.7554  0.1188  0.0386
  597MOL0     C78704   5.339   3.373  -0.791 -0.6417  0.0103 -0.7726
  597MOL0     C78705   5.210   3.372  -0.829  0.6115 -0.7743  0.8463
  597MOL0     C78706   5.128   3.259  -0.855  0.3452 -0.7738 -0.8595
  597MOL0     O78707   5.004   3.272  -0.911 -0.0592 -0.2421 -0.5248
  597MOL0     C78708   4.906   3.170  -0.907  0.6067 -0.2803  0.4168
  597MOL0     C78709   4.789   3.229  -0.987  0.4804 -0.3991 -0.4082
  597MOL0     C78710   4.679   3.120  -1.015 -0.6292  0.1418 -0.7844
  597MOL0     C78711   4.550   3.199  -1.029  0.0737  0.4721 -0.3499
  597MOL0     C78712   4.429   3.111  -1.075  0.2489  0.1481 -0.3077
  597MOL0     C78713   4.305   3.185  -1.117  0.6117 -0.4003 -0.0026
  597MOL0     C78714   4.201   3.091  -1.181 -0.5118 -0.1195 -0.3046
  597MOL0     C78715   4.257   2.983  -1.280  0.2876  0.1176 -0.3587
  597MOL0    Cl78716   4.350   3.071  -1.410  0.0827 -0.2523  0.1864
  597MOL0     C78717   5.201   3.143  -0.852 -0.3755  0.6809  0.3415
  597MOL0     C78718   5.339   3.140  -0.812 -0.1040  0.1390 -0.3934
  597MOL0     O78719   5.613   3.165  -0.935  0.1639  0.4506 -0.6757
  597MOL0     C78720   5.869   3.273  -0.895 -0.4080 -0.2792 -0.1747
  597MOL0     C78721   6.010   3.289  -0.854 -0.0514  0.1328  0.4373
  597MOL0     N78722   6.198   2.959  -0.146  0.0317  0.5484  1.0617
  597MOL0     N78723   6.248   2.924  -0.036  0.3819 -0.6609  0.3094
  597MOL0     C78724   7.291   2.421   0.354 -0.2394 -0.6573  0.0481
  597MOL0     C78725   7.428   2.400   0.322  0.4049 -1.0146  0.0348
  597MOL0     C78726   7.791   2.169   0.334 -0.0134 -0.5163 -0.4119
  597MOL0     C78727   7.840   2.048   0.363  0.8740  0.0507 -0.9192
  597MOL0     C78728   7.956   1.993   0.301 -0.8712 -0.1180 -0.3697
  597MOL0     C78729   8.035   2.085   0.221  1.9768  0.2110  0.2810
  597MOL0     O78730   8.151   2.033   0.180  0.9339  1.1696  0.3687
  597MOL0     C78731   8.258   2.131   0.173  0.6772 -0.0983  0.2343
  597MOL0     C78732   8.384   2.058   0.139 -0.1393 -0.2362  0.0877
  597MOL0     C78733   8.392   1.986   0.001  0.7195 -0.2769  0.3097
  597MOL0     C78734   8.513   1.901  -0.025  0.0323  0.3123  0.0345
  597MOL0     C78735   8.638   1.978  -0.016 -1.1743  0.1571  0.5074
  597MOL0     C78736   8.743   2.041  -0.017  0.0933  0.2478 -0.0437
  597MOL0     C78737   7.997   2.219   0.203  0.4436 -0.2529  0.3027
  597MOL0     C78738   7.875   2.262   0.266 -0.3471  0.4981  0.4530
  597MOL0     H78739   7.560   2.386   0.628 -0.0542  0.5648  1.1669
  597MOL0     H78740   7.306   2.405   0.690 -1.7215 -0.0870 -0.8093
  597MOL0     H78741   7.008   2.361   0.359 -1.9050 -0.9426  0.2904
  597MOL0     H78742   7.048   2.531   0.372  1.3710  0.1694  0.8776
  597MOL0     H78743   6.873   2.559   0.541 -0.0470  1.0773 -1.7932
  597MOL0     H78744   6.849   2.373   0.537  2.2040 -1.8431 -2.8394
  597MOL0     H78745   6.704   2.401   0.353 -0.5185  0.3588  0.3300
  597MOL0     H78746   6.830   2.500   0.274 -0.6138 -1.3759  0.3578
  597MOL0     H78747   6.607   2.584   0.469  2.5063 -0.4838  0.4331
  597MOL0     H78748   6.735   2.693   0.407  0.0951  0.4160  1.0946
  597MOL0     H78749   6.524   2.744   0.293 -2.1329 -0.6697 -0.4338
  597MOL0     H78750   6.496   2.576   0.250 -0.4971  1.1520  1.1829
  597MOL0     H78751   6.679   2.574   0.106 -0.4476  0.6820 -0.7266
  597MOL0     H78752   6.729   2.730   0.138  0.6724 -2.3149  0.9959
  597MOL0     H78753   6.604   2.749  -0.065 -0.1810 -1.4530 -1.0897
  597MOL0     H78754   6.488   2.632  -0.000  3.1361 -2.1390  0.1849
  597MOL0     H78755   6.521   2.911   0.108 -0.4700  2.0255 -1.1323
  597MOL0     H78756   6.385   2.801   0.143 -0.0475  0.5273  1.5045
  597MOL0     H78757   6.524   2.912  -0.195  0.6996 -1.1430  3.8965
  597MOL0     H78758   6.197   2.961  -0.414 -0.2986  0.8848 -2.1631
  597MOL0     H78759   6.374   2.945  -0.425 -1.2568  0.4067 -2.4039
  597MOL0     H78760   6.400   3.196  -0.402 -0.6806  1.3439 -1.8089
  597MOL0     H78761   6.256   3.212  -0.321  1.3197 -0.1231  0.6332
  597MOL0     H78762   6.352   3.154  -0.604  1.6543  0.9017  1.9486
  597MOL0     H78763   6.177   3.120  -0.566 -0.5699  1.0543 -0.4668
  597MOL0     H78764   6.330   3.370  -0.577  0.6677 -1.6289 -3.8855
  597MOL0     H78765   6.167   3.370  -0.491 -1.0404 -0.3248 -0.3463
  597MOL0     H78766   5.967   3.316  -0.520  0.2598  2.3713 -0.7677
  597MOL0     H78767   5.735   3.290  -0.581 -1.2228 -2.3629 -1.2802
  597MOL0     H78768   5.387   3.466  -0.761 -0.9872 -0.2146  0.5586
  597MOL0     H78769   5.155   3.465  -0.837 -0.8645 -1.4966  1.9450
  597MOL0     H78770   4.872   3.127  -0.812 -1.7434  2.0396  0.7548
  597MOL0     H78771   4.948   3.084  -0.960  1.0451  1.2565 -1.8431
  597MOL0     H78772   4.826   3.275  -1.079 -1.3076 -2.5360 -2.2985
  597MOL0     H78773   4.749   3.314  -0.930  0.1472 -1.9636  1.8141
  597MOL0     H78774   4.669   3.051  -0.931 -2.3879 -0.7530 -1.6671
  597MOL0     H78775   4.700   3.064  -1.107  1.0420 -1.1921  0.3652
  597MOL0     H78776   4.525   3.257  -0.940 -0.0241 -1.2366  0.8035
  597MOL0     H78777   4.552   3.281  -1.100 -1.0441 -0.0732 -1.0306
  597MOL0     H78778   4.406   3.055  -0.984  1.9412  4.0623  2.8186
  597MOL0     H78779   4.469   3.043  -1.151 -1.3842  0.1152 -1.1761
  597MOL0     H78780   4.319   3.279  -1.170 -2.3314  0.7360  1.0226
  597MOL0     H78781   4.256   3.224  -1.027 -3.3868 -0.8770 -1.7617
  597MOL0     H78782   4.167   3.027  -1.100  1.0566  1.3330  1.6086
  597MOL0     H78783   4.117   3.135  -1.236 -2.5029 -0.8032  2.0528
  597MOL0     H78784   4.180   2.924  -1.331 -0.2511 -0.9956  1.6301
  597MOL0     H78785   4.309   2.905  -1.224 -1.2760  0.3365  1.5236
  597MOL0     H78786   5.143   3.058  -0.889  1.4547 -0.5150  0.0998
  597MOL0     H78787   5.391   3.046  -0.802 -0.0186  0.4281  2.7531
  597MOL0     H78788   5.849   3.261  -1.001 -0.7189 -1.4390 -0.0027
  597MOL0     H78789   6.086   3.298  -0.931  3.6208 -1.7242  3.4976
  597MOL0     H78790   7.215   2.417   0.276  0.2752 -0.0708 -0.4959
  597MOL0     H78791   7.458   2.397   0.218  1.3503  3.3564 -0.0006
  597MOL0     H78792   7.784   1.982   0.429  1.0095  3.2167  2.7728
  597MOL0     H78793   7.996   1.896   0.328 -2.1406 -0.5473  0.0757
  597MOL0     H78794   8.272   2.174   0.272  1.1084  1.5684 -0.5043
  597MOL0     H78795   8.239   2.216   0.106  1.3681 -1.7039 -2.1137
  597MOL0     H78796   8.469   2.125   0.154  1.5307 -1.1062 -4.0283
  597MOL0     H78797   8.398   1.975   0.208  0.7017 -2.6814 -2.8065
  597MOL0     H78798   8.388   2.060  -0.079  2.8367  1.5464  1.7495
  597MOL0     H78799   8.310   1.914  -0.008  0.4313  0.1338 -0.4534
  597MOL0     H78800   8.513   1.826   0.054  1.1475 -0.5128 -0.7253
  597MOL0     H78801   8.503   1.857  -0.124 -1.4352 -0.9665  0.7041
  597MOL0     H78802   8.838   2.090  -0.011  0.5493 -0.3752 -1.7648
  597MOL0     H78803   8.061   2.278   0.139  0.2898 -1.5635 -1.1099
  597MOL0     H78804   7.845   2.365   0.250  1.7836  0.8375 -2.0634
  598MOL0     O78805   9.278   2.949   7.979  0.0979 -0.5168 -0.9558
  598MOL0     C78806   9.239   2.846   8.043  0.3753 -0.3925 -0.2366
  598MOL0     O78807   9.304   2.797   8.154 -0.5145 -0.5009  0.4879
  598MOL0     C78808   9.409   2.878   8.203  0.3801 -0.1678  0.3005
  598MOL0     C78809   9.524   2.820   8.247 -0.3515 -0.0934  1.1203
  598MOL0     C78810   9.625   2.893   8.307 -0.5082 -0.3105 -0.1514
  598MOL0     C78811   9.604   3.033   8.333  0.3607  0.2827  0.0455
  598MOL0     O78812   9.712   3.098   8.390 -0.3189 -0.2505 -0.9422
  598MOL0     C78813   9.695   3.239   8.425  0.0334 -0.8266 -0.2206
  598MOL0     C78814   9.825   3.299   8.443  0.4943  0.3372  0.6758
  598MOL0     C78815   9.919   3.221   8.541 -0.8104  0.8636  0.1386
  598MOL0     C78816  10.018   3.321   8.597 -0.5655  0.6017 -0.8001
  598MOL0     C78817  10.113   3.256   8.701 -0.2245  0.1932  0.2114
  598MOL0     C78818  10.204   3.158   8.630 -0.2235  0.1258 -0.1242
  598MOL0     C78819  10.312   3.121   8.728  0.4322 -0.7722  0.4339
  598MOL0     C78820  10.416   3.223   8.728 -0.2806 -0.9109  0.7873
  598MOL0     N78821  10.538   3.157   8.685 -1.1867  0.3066  0.0120
  598MOL0     C78822  10.618   3.087   8.770  0.0159  0.9499  0.4039
  598MOL0     C78823  10.737   3.069   8.714 -0.0827 -0.6513 -0.0417
  598MOL0     C78824  10.848   2.980   8.764  0.9753 -0.4116  0.1970
  598MOL0     C78825  10.967   3.064   8.800  0.2551 -0.5049 -0.0227
  598MOL0     C78826  11.099   2.986   8.804 -0.7960  0.5271  0.0021
  598MOL0     C78827  11.213   3.070   8.851 -0.5719  0.1604 -0.7807
  598MOL0     O78828  11.239   3.171   8.751  0.6918 -0.6231 -0.1092
  598MOL0     C78829  11.261   3.296   8.812  0.4283 -0.0256 -0.0561
  598MOL0     C78830  11.151   3.377   8.845 -1.3599  0.3156  0.0939
  598MOL0     C78831  11.168   3.497   8.900 -0.4109 -0.7130 -0.6739
  598MOL0     C78832  11.305   3.551   8.924 -0.1101  1.5453  0.0448
  598MOL0     C78833  11.344   3.676   9.001 -1.0526 -0.4724 -0.5476
  598MOL0     O78834  11.458   3.668   9.077 -0.1789 -0.1676 -0.2503
  598MOL0     C78835  11.500   3.768   9.156 -1.0009 -0.0031  0.0092
  598MOL0     C78836  11.476   3.904   9.125  0.7969  0.2367  0.3408
  598MOL0     C78837  11.524   3.999   9.202  0.2714  0.5379  0.2043
  598MOL0     C78838  11.606   3.971   9.308  0.9235  0.1032  0.3124
  598MOL0     O78839  11.641   4.085   9.367 -0.5778  0.5832  0.2089
  598MOL0     C78840  11.774   4.110   9.407 -0.0216  1.1676  0.4292
  598MOL0     C78841  11.816   4.258   9.438 -1.4787  0.7121 -0.0673
  598MOL0     C78842  11.695   4.354   9.413 -0.9601  0.2485 -0.7995
  598MOL0     C78843  11.741   4.505   9.431  0.3717  0.2177  0.1508
  598MOL0     C78844  11.861   4.532   9.526 -0.0828 -0.9012 -0.2123
  598MOL0     C78845  11.895   4.687   9.530 -0.9958  0.2048 -0.3591
  598MOL0     C78846  12.001   4.732   9.429 -1.0040 -0.9281 -0.0588
  598MOL0     C78847  12.049   4.877   9.474 -0.6591 -0.9708 -0.1566
  598MOL0    Cl78848  11.932   5.007   9.423  0.0310  0.0271  0.2621
  598MOL0     C78849  11.639   3.844   9.342  0.1148  0.3091 -0.5228
  598MOL0     C78850  11.579   3.744   9.265 -0.5970 -0.3422 -0.3478
  598MOL0     O78851  11.272   3.773   8.987 -0.5880  0.1925 -0.9199
  598MOL0     C78852  11.412   3.470   8.886  0.3518  0.4886  0.8841
  598MOL0     C78853  11.393   3.349   8.827  0.6868 -0.2294  0.1895
  598MOL0     N78854  10.724   3.122   8.590  0.1903 -0.4521  0.3875
  598MOL0     N78855  10.602   3.173   8.567 -0.1445  0.1082 -0.2181
  598MOL0     C78856   9.477   3.090   8.307  0.2345  0.2153 -0.2157
  598MOL0     C78857   9.378   3.010   8.251  0.1540  0.2121  0.3609
  598MOL0     C78858   9.127   2.765   7.998 -0.8967 -0.9217 -0.0632
  598MOL0     C78859   9.099   2.646   8.061  0.8519  0.1381  0.6122
  598MOL0     C78860   8.983   2.576   8.031  0.6436  1.0981  0.1859
  598MOL0     C78861   8.900   2.617   7.923 -0.5370  0.7052 -0.3637
  598MOL0     O78862   8.778   2.556   7.882 -0.5431  0.3249  0.6100
  598MOL0     C78863   8.698   2.489   7.989  0.3393 -0.2140 -0.4702
  598MOL0     C78864   8.540   2.485   7.978  0.0012  0.5835  0.3920
  598MOL0     C78865   8.504   2.389   7.860 -0.2407 -0.4361  0.1812
  598MOL0     C78866   8.365   2.428   7.809  0.3024  0.3756  0.6672
  598MOL0     C78867   8.343   2.342   7.687  0.2850 -0.3374  0.0203
  598MOL0     C78868   8.313   2.283   7.586  0.1059  0.3867  0.2918
  598MOL0     C78869   8.940   2.730   7.849  0.2303  0.5750  0.4082
  598MOL0     C78870   9.050   2.807   7.889  0.4548  0.3931 -0.0184
  598MOL0     H78871   9.529   2.714   8.229 -0.9184  0.2645 -1.6082
  598MOL0     H78872   9.724   2.855   8.329  1.1577  4.0888  1.0563
  598MOL0     H78873   9.639   3.242   8.519  1.0926  1.1397  0.4163
  598MOL0     H78874   9.642   3.289   8.344 -2.1100 -0.4730  1.3248
  598MOL0     H78875   9.810   3.406   8.460  1.0759  0.5141  0.1225
  598MOL0     H78876   9.872   3.281   8.346  2.5974 -1.8735  2.0285
  598MOL0     H78877   9.966   3.133   8.494 -0.3008  0.6870  0.9605
  598MOL0     H78878   9.864   3.180   8.626 -0.3965  0.9322  0.4457
  598MOL0     H78879  10.085   3.371   8.527  0.4320 -1.6634 -1.5431
  598MOL0     H78880   9.975   3.403   8.656 -1.0142 -1.6344  2.1886
  598MOL0     H78881  10.044   3.216   8.775 -0.5843  2.6867  1.3192
  598MOL0     H78882  10.177   3.336   8.741 -0.9845  1.1590 -0.4435
  598MOL0     H78883  10.247   3.204   8.541 -1.0149  1.5090  0.1758
  598MOL0     H78884  10.148   3.067   8.607 -3.8553  2.0227  0.3906
  598MOL0     H78885  10.284   3.131   8.834  0.1231  0.9169  0.2251
  598MOL0     H78886  10.344   3.020   8.702 -0.7044 -1.7957  2.7321
  598MOL0     H78887  10.440   3.266   8.826  3.8765 -2.1032  0.4995
  598MOL0     H78888  10.389   3.304   8.660  2.6118 -0.5460 -0.0784
  598MOL0     H78889  10.589   3.050   8.867 -1.8015 -1.3820 -0.9203
  598MOL0     H78890  10.879   2.909   8.687  2.2986 -0.3475  0.6471
  598MOL0     H78891  10.813   2.914   8.844 -1.3789  1.9789  1.2938
  598MOL0     H78892  10.967   3.107   8.901  2.5849  3.6214 -1.5058
  598MOL0     H78893  10.995   3.147   8.733 -1.1124 -0.5963 -0.7330
  598MOL0     H78894  11.094   2.896   8.867 -2.3625  0.1701 -0.5910
  598MOL0     H78895  11.115   2.948   8.702 -0.7050  0.8228 -0.0949
  598MOL0     H78896  11.306   3.016   8.867  2.3931  4.6661 -1.1548
  598MOL0     H78897  11.180   3.104   8.950 -2.3646 -4.6581  0.5619
  598MOL0     H78898  11.055   3.328   8.839 -0.1055 -2.5886  1.3421
  598MOL0     H78899  11.077   3.546   8.935 -0.8347 -2.6014  1.0686
  598MOL0     H78900  11.413   3.935   9.042 -0.4351 -4.4264 -0.7490
  598MOL0     H78901  11.502   4.105   9.190 -1.0331  0.4685  1.6609
  598MOL0     H78902  11.848   4.060   9.344  1.5860  2.2444  1.4078
  598MOL0     H78903  11.788   4.052   9.499 -0.3429 -1.3741 -1.0083
  598MOL0     H78904  11.901   4.276   9.371 -2.0321  0.9836 -0.7082
  598MOL0     H78905  11.838   4.251   9.545  1.6768 -0.2743 -0.6834
  598MOL0     H78906  11.617   4.330   9.487  0.5215 -1.8773  0.1807
  598MOL0     H78907  11.654   4.345   9.312  2.5029  1.0676 -2.4376
  598MOL0     H78908  11.768   4.545   9.333  0.4249  2.8936  1.1601
  598MOL0     H78909  11.656   4.563   9.467 -1.5035 -2.1369 -0.2273
  598MOL0     H78910  11.952   4.477   9.502  1.3401  0.1752  2.3025
  598MOL0     H78911  11.830   4.501   9.627 -1.0102 -2.5162 -0.9549
  598MOL0     H78912  11.935   4.698   9.631 -1.8544  1.4941 -0.1368
  598MOL0     H78913  11.808   4.752   9.523 -2.7664 -2.1460 -1.5938
  598MOL0     H78914  12.089   4.670   9.444 -1.7895 -2.6505 -2.0736
  598MOL0     H78915  11.967   4.725   9.325  1.3154 -0.9567 -0.8577
  598MOL0     H78916  12.141   4.896   9.418 -0.4015  1.1017  0.8686
  598MOL0     H78917  12.083   4.877   9.578 -1.8236 -3.2391  0.2941
  598MOL0     H78918  11.708   3.810   9.418 -1.2000  1.2116  1.1476
  598MOL0     H78919  11.592   3.642   9.301 -2.0347 -0.7454 -0.8990
  598MOL0     H78920  11.516   3.500   8.900  0.8157 -0.6323 -0.0123
  598MOL0     H78921  11.467   3.280   8.787  1.3321  1.7736 -2.2929
  598MOL0     H78922   9.454   3.192   8.336 -0.9650  0.3012 -1.3758
  598MOL0     H78923   9.275   3.044   8.246 -0.7760 -2.1906  1.4696
  598MOL0     H78924   9.145   2.599   8.147 -2.1048 -2.3654  1.0139
  598MOL0     H78925   8.972   2.487   8.092 -0.8878  0.0321 -1.5330
  598MOL0     H78926   8.711   2.547   8.081 -2.7588 -1.6029  1.0285
  598MOL0     H78927   8.726   2.384   7.995 -1.1073 -0.8774 -3.2994
  598MOL0     H78928   8.499   2.432   8.064  0.5940  1.4052  1.2096
  598MOL0     H78929   8.485   2.579   7.968 -1.0587 -0.1137 -0.4896
  598MOL0     H78930   8.505   2.286   7.898 -0.6462 -0.6427 -0.3606
  598MOL0     H78931   8.569   2.393   7.772 -1.4161 -3.2169 -0.9090
  598MOL0     H78932   8.292   2.399   7.885  0.3876  0.0933  0.6422
  598MOL0     H78933   8.343   2.533   7.788  1.5869  0.6176  0.4783
  598MOL0     H78934   8.301   2.236   7.491  3.4058 -0.8988  0.3582
  598MOL0     H78935   8.883   2.735   7.757  0.4672  0.4911  0.2557
  598MOL0     H78936   9.068   2.903   7.843  0.7109  1.7995  2.7966
  599MOL0     O78937   5.304  11.060   2.674 -0.5466 -0.2872 -0.3588
  599MOL0     C78938   5.379  11.062   2.772  0.0756  0.7538 -0.3380
  599MOL0     O78939   5.428  10.953   2.835  0.2157 -0.2573 -0.0775
  599MOL0     C78940   5.388  10.831   2.793  0.0413 -0.8989  0.2970
  599MOL0     C78941   5.313  10.753   2.882  0.1027  0.0928 -0.5053
  599MOL0     C78942   5.283  10.615   2.847 -0.3419  0.0018  0.0329
  599MOL0     C78943   5.334  10.563   2.729  0.0231 -0.6207 -0.9507
  599MOL0     O78944   5.308  10.431   2.713  0.1970 -0.0649 -0.4960
  599MOL0     C78945   5.310  10.375   2.581  0.4378 -0.7484  0.1111
  599MOL0     C78946   5.215  10.253   2.570  0.4844  0.1044  0.0287
  599MOL0     C78947   5.191  10.233   2.420 -0.4708  0.6783  1.2162
  599MOL0     C78948   5.083  10.325   2.359  0.6983  0.5045 -0.3364
  599MOL0     C78949   5.041  10.269   2.221 -0.0330 -0.1233  0.4565
  599MOL0     C78950   4.921  10.361   2.175 -0.0003  0.2156  0.7375
  599MOL0     C78951   4.877  10.303   2.040 -0.1913 -0.6189  0.7882
  599MOL0     C78952   4.776  10.403   1.973 -0.2575  0.7104 -0.1088
  599MOL0     N78953   4.642  10.379   2.013  0.1532  0.0714 -0.4917
  599MOL0     C78954   4.583  10.404   2.136  0.1269 -0.5445  0.4043
  599MOL0     C78955   4.450  10.392   2.105  0.5220 -0.4512  0.2752
  599MOL0     C78956   4.338  10.414   2.203 -1.1898  0.4580  0.1607
  599MOL0     C78957   4.226  10.497   2.145  0.7151 -0.4281 -0.1352
  599MOL0     C78958   4.145  10.549   2.263  0.1571  0.5234 -0.5157
  599MOL0     C78959   4.063  10.436   2.331 -0.1838 -0.4502 -0.0278
  599MOL0     O78960   3.979  10.358   2.242 -0.2966  0.0049 -0.5663
  599MOL0     C78961   3.880  10.271   2.287 -0.3613  0.3478  0.9171
  599MOL0     C78962   3.882  10.207   2.410 -0.5218 -0.3459 -0.0966
  599MOL0     C78963   3.785  10.113   2.442  0.9128  0.3171 -0.5780
  599MOL0     C78964   3.691  10.076   2.350 -0.5075 -0.8974 -0.3174
  599MOL0     C78965   3.584   9.977   2.382 -0.3990  0.5263  0.2804
  599MOL0     O78966   3.491   9.948   2.287 -0.2124 -0.2244 -0.2866
  599MOL0     C78967   3.390   9.867   2.328  0.1827  0.3224  0.3801
  599MOL0     C78968   3.264   9.918   2.358  0.8126 -1.1240  0.7030
  599MOL0     C78969   3.163   9.824   2.398 -0.3592  0.1619  0.3574
  599MOL0     C78970   3.187   9.684   2.417 -0.4811 -0.4516 -0.4792
  599MOL0     O78971   3.102   9.577   2.450  0.3375 -0.6668  0.0793
  599MOL0     C78972   2.956   9.600   2.439  0.1118 -0.0343 -0.3231
  599MOL0     C78973   2.885   9.484   2.517  0.1438  0.6879 -0.1013
  599MOL0     C78974   2.921   9.494   2.661 -0.4662 -0.2420 -0.9909
  599MOL0     C78975   2.868   9.625   2.732 -0.1738  0.4832 -0.7210
  599MOL0     C78976   2.905   9.600   2.883 -0.1322  0.2170  1.3310
  599MOL0     C78977   3.050   9.648   2.907 -0.0850  0.6080  0.0120
  599MOL0     C78978   3.090   9.660   3.063 -0.0735  0.2471  0.7366
  599MOL0     C78979   3.236   9.696   3.082 -0.2240 -0.4014  1.1929
  599MOL0    Cl78980   3.248   9.762   3.248 -0.1735  0.1218  0.1551
  599MOL0     C78981   3.330   9.649   2.412  0.2937 -0.3076 -1.0867
  599MOL0     C78982   3.420   9.735   2.362 -0.5920  0.3756 -0.5272
  599MOL0     O78983   3.577   9.934   2.497  0.2093 -0.0303  0.2603
  599MOL0     C78984   3.692  10.139   2.223  0.0487 -0.9020  0.2197
  599MOL0     C78985   3.779  10.237   2.196 -1.0437  0.2025  0.7201
  599MOL0     N78986   4.424  10.366   1.978 -0.2357 -0.1059  0.3593
  599MOL0     N78987   4.537  10.368   1.922  0.0917  0.9647  0.3961
  599MOL0     C78988   5.416  10.639   2.644 -0.5516 -0.4408  0.5062
  599MOL0     C78989   5.444  10.765   2.682 -0.0025  0.7893  0.4838
  599MOL0     C78990   5.400  11.196   2.836  0.5096  0.4410  0.2746
  599MOL0     C78991   5.371  11.314   2.771 -0.9085 -0.2550  0.8367
  599MOL0     C78992   5.405  11.442   2.819  0.1590  0.1882  0.0613
  599MOL0     C78993   5.456  11.456   2.956  0.0550 -0.1177  0.5213
  599MOL0     O78994   5.497  11.578   3.011 -0.2171 -0.3333 -0.3124
  599MOL0     C78995   5.600  11.584   3.112 -1.0996 -0.3120 -0.9237
  599MOL0     C78996   5.736  11.537   3.053  0.3819 -0.1352  0.3150
  599MOL0     C78997   5.777  11.606   2.925 -0.2113 -0.3227 -0.2556
  599MOL0     C78998   5.764  11.537   2.790 -0.1572 -0.6690  0.1541
  599MOL0     C78999   5.839  11.603   2.686 -0.3681  0.9731 -0.5251
  599MOL0     C79000   5.896  11.645   2.590 -0.7047 -0.0172 -0.4914
  599MOL0     C79001   5.479  11.328   3.023  0.6418 -0.2921 -1.2512
  599MOL0     C79002   5.458  11.206   2.961  0.4908  0.0155 -0.0786
  599MOL0     H79003   5.269  10.794   2.972  0.5000  1.7023 -1.0163
  599MOL0     H79004   5.207  10.560   2.902  1.4986  0.0718  2.8360
  599MOL0     H79005   5.412  10.350   2.551  0.1211 -0.4147 -1.3257
  599MOL0     H79006   5.274  10.455   2.515 -0.5691 -0.7435  0.6608
  599MOL0     H79007   5.119  10.262   2.621  2.0338 -2.5567  3.8246
  599MOL0     H79008   5.262  10.167   2.617  0.6215  0.1608 -0.0034
  599MOL0     H79009   5.162  10.129   2.403 -1.3415  1.2521 -1.0865
  599MOL0     H79010   5.284  10.254   2.367  1.9695 -4.2882  2.8746
  599MOL0     H79011   4.996  10.336   2.425  0.9954  2.3644 -0.2011
  599MOL0     H79012   5.128  10.425   2.356  1.5153  0.1196 -1.2462
  599MOL0     H79013   5.006  10.166   2.229  3.9349 -1.7482 -0.4798
  599MOL0     H79014   5.122  10.252   2.150  0.3545  0.1860  0.8150
  599MOL0     H79015   4.944  10.468   2.178 -1.3526  0.5191  0.7127
  599MOL0     H79016   4.834  10.346   2.239 -0.6285  0.1615 -0.1083
  599MOL0     H79017   4.954  10.294   1.963 -2.0390  2.1190 -1.6358
  599MOL0     H79018   4.821  10.212   2.062  0.9722 -1.2314  1.2981
  599MOL0     H79019   4.778  10.391   1.864 -2.2004 -1.9190  0.0375
  599MOL0     H79020   4.798  10.507   2.000 -2.3404  1.0284  0.5525
  599MOL0     H79021   4.627  10.410   2.235  0.0804 -2.2537  0.5528
  599MOL0     H79022   4.377  10.485   2.276 -3.6030  2.0543 -0.0106
  599MOL0     H79023   4.311  10.321   2.254 -2.1956  0.2963 -0.6273
  599MOL0     H79024   4.161  10.422   2.098 -0.8896 -0.6085  2.2307
  599MOL0     H79025   4.243  10.573   2.069  0.6412 -0.0436  0.2323
  599MOL0     H79026   4.211  10.601   2.334 -0.4036 -1.6050  1.7036
  599MOL0     H79027   4.064  10.613   2.227 -0.8614 -2.7747 -4.9167
  599MOL0     H79028   3.992  10.482   2.400  1.1145 -0.2897  1.2400
  599MOL0     H79029   4.135  10.365   2.372  1.1185 -0.6444 -2.4832
  599MOL0     H79030   3.962  10.230   2.479  0.6791 -1.3296 -1.1166
  599MOL0     H79031   3.788  10.078   2.545 -0.3880  2.0124  0.0842
  599MOL0     H79032   3.236  10.023   2.351  3.1787 -0.4532  0.4202
  599MOL0     H79033   3.064   9.868   2.409 -1.0681 -1.2988  0.0993
  599MOL0     H79034   2.925   9.595   2.334 -2.0219 -3.4039  0.3479
  599MOL0     H79035   2.930   9.696   2.485  3.1308  0.4612  0.6200
  599MOL0     H79036   2.902   9.388   2.466  0.4337  0.1044  1.0609
  599MOL0     H79037   2.778   9.506   2.507  0.3328  2.0089  0.5999
  599MOL0     H79038   3.029   9.489   2.678 -0.3015  0.5446 -1.7421
  599MOL0     H79039   2.888   9.405   2.716  1.1548  1.1050  2.4809
  599MOL0     H79040   2.915   9.712   2.686  1.8684 -0.4141 -0.4246
  599MOL0     H79041   2.759   9.636   2.727 -0.1835  0.3267 -0.8396
  599MOL0     H79042   2.886   9.498   2.916  1.0729 -0.9166 -1.2753
  599MOL0     H79043   2.834   9.669   2.930  0.5236  1.5568  0.4181
  599MOL0     H79044   3.067   9.743   2.855 -0.7617  0.9059  0.3172
  599MOL0     H79045   3.115   9.574   2.859 -0.0786  1.5900 -1.5923
  599MOL0     H79046   3.032   9.739   3.112  0.4607 -1.2694  4.0755
  599MOL0     H79047   3.062   9.561   3.102 -2.3783  1.0021  1.1636
  599MOL0     H79048   3.264   9.777   3.013 -0.7639 -0.7952  0.5045
  599MOL0     H79049   3.307   9.614   3.072  1.6202  1.1583  0.7617
  599MOL0     H79050   3.361   9.556   2.459  2.7142  2.6807  4.1730
  599MOL0     H79051   3.526   9.715   2.348 -0.5598  1.2203 -1.5873
  599MOL0     H79052   3.624  10.099   2.150 -2.0860 -0.0858  1.6564
  599MOL0     H79053   3.802  10.277   2.097  3.6374  1.4059  2.0564
  599MOL0     H79054   5.448  10.600   2.547 -3.1252  1.9519 -1.4747
  599MOL0     H79055   5.491  10.830   2.610 -0.2301  0.2088 -0.1999
  599MOL0     H79056   5.320  11.308   2.675  0.0251 -0.5118  0.3400
  599MOL0     H79057   5.384  11.530   2.759 -0.8005  0.7290  1.1527
  599MOL0     H79058   5.568  11.526   3.199 -2.6498  0.5975 -0.8516
  599MOL0     H79059   5.609  11.680   3.164  3.3613  0.2610 -2.3296
  599MOL0     H79060   5.806  11.541   3.137  1.5686  1.8207 -0.6960
  599MOL0     H79061   5.725  11.431   3.028 -0.0526  0.0320 -0.2133
  599MOL0     H79062   5.881  11.636   2.940 -0.6986  0.5420  1.7491
  599MOL0     H79063   5.724  11.701   2.914  0.0875 -0.0493  0.5518
  599MOL0     H79064   5.785  11.430   2.788  1.8375 -0.2863 -0.9829
  599MOL0     H79065   5.659  11.549   2.761 -0.0255  1.4739  0.4283
  599MOL0     H79066   5.934  11.696   2.503 -1.8037  1.8106  0.0297
  599MOL0     H79067   5.487  11.322   3.131  1.8937 -1.2957 -1.3768
  599MOL0     H79068   5.474  11.121   3.027  4.3267  1.7325  1.5340
  600MOL0     O79069   9.471   9.524   9.472  0.2063  0.0075 -0.0069
  600MOL0     C79070   9.535   9.569   9.379  0.4487 -0.2575  0.6769
  600MOL0     O79071   9.501   9.586   9.247  0.5086 -0.6910 -0.3550
  600MOL0     C79072   9.373   9.571   9.206 -0.3996 -0.1107  0.8984
  600MOL0     C79073   9.352   9.528   9.076 -0.2062  0.2808  0.8711
  600MOL0     C79074   9.227   9.495   9.022  0.3803 -0.2673 -0.8148
  600MOL0     C79075   9.105   9.520   9.102 -0.7968 -0.0331  0.2018
  600MOL0     O79076   8.981   9.472   9.060 -0.1790 -0.4294 -0.5079
  600MOL0     C79077   8.980   9.334   9.022  0.2904 -0.5986  0.2005
  600MOL0     C79078   8.854   9.255   9.052 -0.1500 -0.0021  0.0800
  600MOL0     C79079   8.763   9.274   8.932 -0.2251 -0.1153 -0.4302
  600MOL0     C79080   8.620   9.242   8.979 -0.6978 -1.0190 -1.4195
  600MOL0     C79081   8.605   9.093   9.015  0.9404  0.0708  0.5297
  600MOL0     C79082   8.607   8.999   8.894 -0.8729 -0.5670 -0.3697
  600MOL0     C79083   8.552   8.861   8.932  0.1424 -0.3485  0.2598
  600MOL0     C79084   8.403   8.854   8.978 -0.4051 -0.2683 -0.5376
  600MOL0     N79085   8.306   8.882   8.873  0.2815  1.2050 -0.0778
  600MOL0     C79086   8.307   8.822   8.747  0.4680 -0.4740  0.2631
  600MOL0     C79087   8.182   8.838   8.690  0.4347 -0.2561 -0.3225
  600MOL0     C79088   8.128   8.756   8.586 -0.0831 -0.2147  0.7036
  600MOL0     C79089   8.101   8.853   8.479  0.5373 -0.4134  0.2785
  600MOL0     C79090   8.055   8.783   8.362  0.5458 -0.1569 -0.2834
  600MOL0     C79091   8.002   8.869   8.254 -0.0651 -0.2859  0.0100
  600MOL0     O79092   7.979   8.780   8.147 -0.0718 -0.2260  0.0070
  600MOL0     C79093   7.872   8.817   8.085 -0.0263 -0.4624  0.1474
  600MOL0     C79094   7.769   8.727   8.076  0.3004 -0.5230  0.5899
  600MOL0     C79095   7.660   8.761   7.998 -0.4906 -0.9052 -0.0578
  600MOL0     C79096   7.650   8.883   7.924 -0.1974 -0.0679 -0.3390
  600MOL0     C79097   7.530   8.915   7.848  0.9329  0.1104  0.6840
  600MOL0     O79098   7.436   8.816   7.840  0.1065  0.0216 -0.4865
  600MOL0     C79099   7.314   8.841   7.782 -0.3972  0.9428  0.0365
  600MOL0     C79100   7.227   8.941   7.830 -0.1549  0.9825 -0.8817
  600MOL0     C79101   7.099   8.960   7.778  0.2267  0.3459 -0.4756
  600MOL0     C79102   7.068   8.875   7.674 -0.1012 -0.5194  0.1871
  600MOL0     O79103   6.944   8.886   7.617 -0.1016 -0.8077 -0.8413
  600MOL0     C79104   6.934   8.873   7.474 -0.2687 -0.8318  0.3758
  600MOL0     C79105   6.797   8.923   7.428  0.2154 -0.2834  0.0369
  600MOL0     C79106   6.673   8.876   7.503  0.3520 -0.0964 -0.1814
  600MOL0     C79107   6.542   8.913   7.450  0.5541  0.1103 -0.0112
  600MOL0     C79108   6.422   8.891   7.550 -0.2876 -0.2578 -0.4566
  600MOL0     C79109   6.296   8.943   7.488  0.1850 -0.1724  0.6416
  600MOL0     C79110   6.201   8.948   7.598  0.7198  0.0324  0.7660
  600MOL0     C79111   6.081   9.022   7.547  0.0136 -0.7700  0.2631
  600MOL0    Cl79112   6.015   8.937   7.399 -0.0369 -0.1200  0.1315
  600MOL0     C79113   7.148   8.774   7.621  0.4634  0.1106 -0.5911
  600MOL0     C79114   7.273   8.757   7.680  0.7245  0.2668 -0.0191
  600MOL0     O79115   7.529   9.022   7.785 -0.1922 -0.0691  0.4700
  600MOL0     C79116   7.757   8.970   7.938 -0.1412 -0.2290  0.5155
  600MOL0     C79117   7.866   8.933   8.014 -0.3307 -0.5362  0.1506
  600MOL0     N79118   8.108   8.918   8.781 -0.4398 -0.6064 -0.7426
  600MOL0     N79119   8.182   8.939   8.888 -0.1944  0.1596  0.6210
  600MOL0     C79120   9.123   9.570   9.229  0.3970  0.0224 -0.0226
  600MOL0     C79121   9.257   9.594   9.282  0.6225 -0.0774  0.4687
  600MOL0     C79122   9.665   9.618   9.415 -0.0382 -0.1423  0.0591
  600MOL0     C79123   9.751   9.714   9.337  0.3899 -0.4730  0.4859
  600MOL0     C79124   9.874   9.749   9.384 -0.1800  0.1870 -0.6236
  600MOL0     C79125   9.925   9.700   9.505 -0.2726 -0.3169  0.0360
  600MOL0     O79126  10.053   9.718   9.549  0.1246 -0.6321 -0.2774
  600MOL0     C79127  10.143   9.819   9.486 -0.0460  0.9913 -0.3758
  600MOL0     C79128  10.270   9.820   9.576  0.2121  0.2722  0.2224
  600MOL0     C79129  10.382   9.721   9.521 -0.2502  0.1036  0.1942
  600MOL0     C79130  10.519   9.735   9.596 -0.4982 -0.0633  0.3087
  600MOL0     C79131  10.627   9.645   9.545 -0.5808 -1.1616  0.3001
  600MOL0     C79132  10.708   9.561   9.514 -0.1252  0.1985  0.5184
  600MOL0     C79133   9.836   9.624   9.582 -0.7081  0.4884 -0.0200
  600MOL0     C79134   9.714   9.583   9.540  0.2697  0.8848 -0.0278
  600MOL0     H79135   9.438   9.507   9.013  0.5508 -0.1028  2.0022
  600MOL0     H79136   9.212   9.455   8.922 -0.7596 -0.8856 -0.4098
  600MOL0     H79137   9.062   9.282   9.072  1.6480  0.3241 -0.9713
  600MOL0     H79138   8.999   9.329   8.914 -0.5423 -0.3013  0.0347
  600MOL0     H79139   8.813   9.291   9.147 -1.7222 -0.9671 -0.1942
  600MOL0     H79140   8.874   9.148   9.062  0.8799  0.2519  1.0573
  600MOL0     H79141   8.795   9.211   8.848  1.6993  0.4984 -0.2037
  600MOL0     H79142   8.765   9.375   8.890 -0.3319 -0.5597 -1.5332
  600MOL0     H79143   8.596   9.296   9.072  1.9665  1.2035 -1.8798
  600MOL0     H79144   8.548   9.263   8.899  0.7395 -1.6823 -2.9421
  600MOL0     H79145   8.510   9.079   9.068 -0.4609  0.3669 -1.7905
  600MOL0     H79146   8.678   9.064   9.092  0.8283  2.3004  1.5470
  600MOL0     H79147   8.708   8.994   8.852 -0.4255  1.3802  0.3839
  600MOL0     H79148   8.539   9.036   8.817 -2.1846 -0.3655  0.8404
  600MOL0     H79149   8.550   8.788   8.850  1.9640 -1.5632  1.2398
  600MOL0     H79150   8.615   8.831   9.016 -0.8078 -1.7911  0.5121
  600MOL0     H79151   8.376   8.923   9.058 -0.7919 -0.2040 -0.7221
  600MOL0     H79152   8.381   8.753   9.013  1.3763 -0.3011  0.6288
  600MOL0     H79153   8.378   8.749   8.710  1.7154 -1.4992  4.2007
  600MOL0     H79154   8.039   8.711   8.632 -0.4460  1.3484  1.6073
  600MOL0     H79155   8.206   8.685   8.559  1.6689  2.3587 -1.5136
  600MOL0     H79156   8.186   8.919   8.458  0.4100  0.0724  1.2478
  600MOL0     H79157   8.018   8.913   8.517  0.3578 -1.4983  1.7132
  600MOL0     H79158   8.142   8.732   8.320 -0.2584 -2.0845  0.2702
  600MOL0     H79159   7.990   8.699   8.388  1.5398 -0.2744  2.1012
  600MOL0     H79160   8.071   8.945   8.217  0.7361 -0.8268  0.3697
  600MOL0     H79161   7.915   8.924   8.292 -0.6405 -1.3111  0.2142
  600MOL0     H79162   7.775   8.627   8.117  0.7653 -0.5923  0.3531
  600MOL0     H79163   7.580   8.691   7.980 -2.3133  1.1357 -0.3869
  600MOL0     H79164   7.263   8.998   7.915  1.6217 -0.0223 -0.9159
  600MOL0     H79165   7.018   9.024   7.812 -0.0931  1.0671 -2.4507
  600MOL0     H79166   6.940   8.768   7.444  1.4527  0.0700 -2.9771
  600MOL0     H79167   7.006   8.924   7.410 -0.9101 -2.6380 -1.9486
  600MOL0     H79168   6.787   8.904   7.321  1.8592 -0.3196 -0.1332
  600MOL0     H79169   6.799   9.032   7.443 -1.4081 -0.2503  0.2376
  600MOL0     H79170   6.686   8.911   7.606  1.0194  1.1488 -0.6558
  600MOL0     H79171   6.682   8.768   7.516 -0.4012 -0.3020 -1.3047
  600MOL0     H79172   6.526   9.014   7.413 -0.3194 -1.5008 -4.9061
  600MOL0     H79173   6.530   8.861   7.354  2.4694  1.1139 -0.8521
  600MOL0     H79174   6.451   8.935   7.646 -3.1531 -0.5386  0.6224
  600MOL0     H79175   6.403   8.786   7.575  1.7559 -0.1095  2.2781
  600MOL0     H79176   6.271   8.874   7.407  1.4122 -0.0473  0.1360
  600MOL0     H79177   6.298   9.048   7.455 -2.7698 -0.2208 -0.0143
  600MOL0     H79178   6.168   8.844   7.600  1.5289 -0.4538 -3.3450
  600MOL0     H79179   6.226   8.986   7.698 -3.0844 -1.6545  2.5663
  600MOL0     H79180   6.106   9.125   7.519 -0.4645 -0.5610  0.6021
  600MOL0     H79181   6.010   9.034   7.629 -0.9957  2.8542 -0.9869
  600MOL0     H79182   7.119   8.716   7.535 -0.5050  1.2958 -1.0886
  600MOL0     H79183   7.345   8.686   7.641  1.9211  0.9343  0.9067
  600MOL0     H79184   7.768   9.046   7.862 -1.5495  0.9741  1.4500
  600MOL0     H79185   7.953   8.999   8.015  1.1084 -2.0971 -3.2643
  600MOL0     H79186   9.034   9.574   9.292 -0.4719  0.0321 -1.2224
  600MOL0     H79187   9.267   9.631   9.383 -0.9667  0.1870  0.5547
  600MOL0     H79188   9.705   9.765   9.253  0.7858 -1.4320 -0.3407
  600MOL0     H79189   9.936   9.816   9.325 -0.6693 -0.8056 -2.3361
  600MOL0     H79190  10.103   9.920   9.486 -1.3578  0.4961  0.1568
  600MOL0     H79191  10.170   9.806   9.381 -1.1107  1.5121 -0.7249
  600MOL0     H79192  10.314   9.916   9.604 -2.2423  1.5456 -0.0344
  600MOL0     H79193  10.238   9.770   9.668  0.0383 -2.1543 -1.0663
  600MOL0     H79194  10.399   9.738   9.414  3.9525 -1.2893  0.4705
  600MOL0     H79195  10.358   9.615   9.532 -0.8312  0.4400  3.0761
  600MOL0     H79196  10.558   9.835   9.576  0.7715 -1.0741 -2.9936
  600MOL0     H79197  10.512   9.715   9.703  4.1824 -0.7237  0.7153
  600MOL0     H79198  10.770   9.478   9.485 -1.2161  0.3050 -2.4943
  600MOL0     H79199   9.848   9.591   9.685 -1.1742 -1.4044 -0.5383
  600MOL0     H79200   9.650   9.529   9.610 -0.7288  0.7042 -1.0471
  601MOL0     O79201  10.472  11.063   9.407 -0.6727  0.2371 -0.6914
  601MOL0     C79202  10.463  11.085   9.293  0.3369  0.3427 -0.8793
  601MOL0     O79203  10.347  11.068   9.208  0.2756 -1.1211  0.3147
  601MOL0     C79204  10.216  11.068   9.260 -1.2312  1.0100 -1.0508
  601MOL0     C79205  10.117  10.997   9.193  0.4265 -1.3185  0.0141
  601MOL0     C79206   9.990  11.007   9.238  0.0406  0.3397  0.4109
  601MOL0     C79207   9.954  11.069   9.357 -0.4348  0.2853  0.1580
  601MOL0     O79208   9.822  11.064   9.396 -0.5256  0.3430 -0.3619
  601MOL0     C79209   9.787  11.120   9.520  0.3321  0.6642 -0.0099
  601MOL0     C79210   9.636  11.100   9.556 -0.5868 -0.2738  0.6459
  601MOL0     C79211   9.542  11.186   9.477  0.3154 -1.3269 -0.1509
  601MOL0     C79212   9.394  11.127   9.483 -0.0141 -0.5163  0.8370
  601MOL0     C79213   9.295  11.226   9.410 -0.3944  0.7495 -0.4109
  601MOL0     C79214   9.152  11.170   9.392 -0.0552  0.7606 -0.3015
  601MOL0     C79215   9.057  11.253   9.300 -0.8770 -0.5617 -0.4477
  601MOL0     C79216   8.916  11.182   9.279  0.9640  0.1546 -0.0576
  601MOL0     N79217   8.947  11.063   9.193 -0.0585  0.1149  0.4288
  601MOL0     C79218   8.999  11.069   9.067 -0.3630 -0.1340  0.5718
  601MOL0     C79219   9.066  10.951   9.041  0.3876  0.5992  0.4772
  601MOL0     C79220   9.166  10.921   8.936 -0.2749  0.6725 -0.2649
  601MOL0     C79221   9.304  11.008   8.947 -0.2192 -0.0844 -0.4443
  601MOL0     C79222   9.357  11.008   9.093 -0.6144 -0.1062  0.2960
  601MOL0     C79223   9.499  11.068   9.104 -0.3981  0.0882 -1.1571
  601MOL0     O79224   9.514  11.206   9.080 -0.9705  0.2810  0.4173
  601MOL0     C79225   9.637  11.236   9.028  0.1371 -1.0858  1.2281
  601MOL0     C79226   9.741  11.278   9.119  0.3891 -0.4749  0.7675
  601MOL0     C79227   9.874  11.296   9.070  0.8417 -0.1469 -0.1118
  601MOL0     C79228   9.903  11.291   8.933 -0.6294  0.0984 -0.5038
  601MOL0     C79229  10.035  11.312   8.871  0.1004  0.0830 -0.5977
  601MOL0     O79230  10.136  11.292   8.951 -0.2152 -0.1169  0.5086
  601MOL0     C79231  10.258  11.294   8.885 -0.1435  0.0001 -0.6201
  601MOL0     C79232  10.330  11.411   8.892 -0.2209 -0.2245  0.3377
  601MOL0     C79233  10.459  11.420   8.835  0.3584 -0.3858 -0.3864
  601MOL0     C79234  10.517  11.313   8.766  0.2794  0.3990  0.0932
  601MOL0     O79235  10.648  11.315   8.725  0.1131  0.4794 -0.5233
  601MOL0     C79236  10.693  11.230   8.621  0.1000  0.5540 -0.0089
  601MOL0     C79237  10.844  11.251   8.589 -0.3859 -0.5725  0.1688
  601MOL0     C79238  10.895  11.139   8.497 -0.5444 -0.5812  0.4974
  601MOL0     C79239  11.044  11.164   8.463 -0.1933  0.1383  0.2649
  601MOL0     C79240  11.120  11.033   8.414 -0.2579 -0.1418 -0.0859
  601MOL0     C79241  11.093  11.024   8.261 -0.4663  0.3085  1.0665
  601MOL0     C79242  11.175  10.900   8.209  0.3139 -1.0290 -0.0303
  601MOL0     C79243  11.141  10.900   8.060  0.7747 -0.1414  0.5443
  601MOL0    Cl79244  11.193  11.052   7.978  0.6853  0.1891  0.5337
  601MOL0     C79245  10.441  11.196   8.761 -0.0639 -0.1930 -0.4693
  601MOL0     C79246  10.316  11.187   8.818 -0.4318 -0.0450 -0.3996
  601MOL0     O79247  10.037  11.354   8.755 -0.1538  0.2162  0.5149
  601MOL0     C79248   9.794  11.256   8.845 -0.1873  0.1579 -0.0744
  601MOL0     C79249   9.666  11.226   8.891 -1.1450 -0.3276  0.9912
  601MOL0     N79250   9.043  10.859   9.147  0.1016 -0.0299 -0.0151
  601MOL0     N79251   8.971  10.929   9.237 -0.9721  0.2314  0.1374
  601MOL0     C79252  10.063  11.128   9.426  0.1509  0.3181  0.1949
  601MOL0     C79253  10.190  11.136   9.377  0.2459 -0.0293 -0.4934
  601MOL0     C79254  10.582  11.118   9.226 -0.2102  0.2168  0.0513
  601MOL0     C79255  10.600  11.103   9.086  0.5508 -0.5008 -0.3800
  601MOL0     C79256  10.728  11.135   9.023 -0.4375 -0.7846 -0.5618
  601MOL0     C79257  10.829  11.191   9.102  0.2832  0.3775 -0.4887
  601MOL0     O79258  10.945  11.215   9.037 -0.5675  0.3504 -0.8259
  601MOL0     C79259  11.023  11.315   9.099  0.2253  0.5177 -0.6162
  601MOL0     C79260  11.132  11.365   9.012  0.0441  0.7597  0.1199
  601MOL0     C79261  11.114  11.364   8.859  0.7665 -0.9425  0.2053
  601MOL0     C79262  11.215  11.456   8.782  0.1533 -0.3671 -0.3597
  601MOL0     C79263  11.351  11.410   8.803 -0.6202 -0.0028  0.2541
  601MOL0     C79264  11.449  11.361   8.849  0.3668  0.4131  0.3897
  601MOL0     C79265  10.818  11.194   9.242  0.4976 -0.4687  0.0926
  601MOL0     C79266  10.699  11.165   9.303  0.1415 -0.3863  0.1048
  601MOL0     H79267  10.148  10.965   9.094 -0.6863  1.6606 -1.3778
  601MOL0     H79268   9.909  10.967   9.178  0.6209 -1.8288  1.0023
  601MOL0     H79269   9.826  11.223   9.518  2.2187  0.0020 -2.6514
  601MOL0     H79270   9.852  11.075   9.595  1.4406  1.1828 -0.6269
  601MOL0     H79271   9.622  11.116   9.664 -1.5462  0.8013  0.3832
  601MOL0     H79272   9.609  10.995   9.545 -1.5852  0.0515 -0.1982
  601MOL0     H79273   9.577  11.206   9.375 -0.3881  2.3247  0.1741
  601MOL0     H79274   9.540  11.281   9.532  1.4486 -1.0202 -0.6144
  601MOL0     H79275   9.381  11.036   9.424 -3.9856 -0.4413  1.3683
  601MOL0     H79276   9.362  11.117   9.587 -1.8516  0.0589  0.3519
  601MOL0     H79277   9.334  11.245   9.309  1.3794 -1.2463 -0.1725
  601MOL0     H79278   9.288  11.313   9.476  1.0093  1.5081 -1.2073
  601MOL0     H79279   9.120  11.170   9.497  1.3123 -1.4409  0.1709
  601MOL0     H79280   9.168  11.065   9.368 -0.6281  0.6437 -0.1938
  601MOL0     H79281   9.039  11.348   9.352  3.2656  0.2724 -0.2475
  601MOL0     H79282   9.111  11.275   9.208  1.9912 -0.2707  1.1740
  601MOL0     H79283   8.843  11.252   9.237  3.3237  2.0665 -1.2064
  601MOL0     H79284   8.889  11.149   9.380 -0.5525  1.2596 -0.0663
  601MOL0     H79285   9.001  11.162   9.010 -4.2429 -2.5833 -4.3469
  601MOL0     H79286   9.128  10.951   8.838  2.3854  0.2391 -1.5382
  601MOL0     H79287   9.182  10.813   8.945  1.1792  0.9771  1.3298
  601MOL0     H79288   9.294  11.112   8.916 -1.0392 -0.1759 -0.5139
  601MOL0     H79289   9.379  10.963   8.881 -0.8650 -3.2628  0.7961
  601MOL0     H79290   9.290  11.079   9.142  0.0379  1.8026 -1.4580
  601MOL0     H79291   9.355  10.907   9.135 -0.9653  0.9878  3.1605
  601MOL0     H79292   9.568  11.000   9.053  0.6735  0.9652 -0.9323
  601MOL0     H79293   9.513  11.063   9.213 -2.5047  1.2568 -0.7848
  601MOL0     H79294   9.719  11.306   9.222 -1.7456  2.2431 -0.3056
  601MOL0     H79295   9.954  11.325   9.138 -0.1216 -4.1558  3.1225
  601MOL0     H79296  10.287  11.499   8.940 -1.5239 -0.4546 -0.3727
  601MOL0     H79297  10.520  11.508   8.850  0.5184 -0.2435 -1.7738
  601MOL0     H79298  10.633  11.225   8.530  0.5953  0.0346 -0.3129
  601MOL0     H79299  10.682  11.125   8.651 -2.2906  0.2244 -1.8112
  601MOL0     H79300  10.890  11.239   8.687  1.8076 -1.8053 -0.9459
  601MOL0     H79301  10.859  11.354   8.554 -1.4466  0.2075  1.8497
  601MOL0     H79302  10.825  11.122   8.415 -1.5178 -1.6535  1.5027
  601MOL0     H79303  10.886  11.049   8.559 -0.7075  0.5958  2.2713
  601MOL0     H79304  11.042  11.237   8.381 -1.6741 -0.0644  0.0951
  601MOL0     H79305  11.089  11.213   8.549 -3.1385 -1.6660  3.0643
  601MOL0     H79306  11.086  10.945   8.469  0.8735  0.5742  1.8222
  601MOL0     H79307  11.227  11.046   8.429  0.3362 -2.5047 -1.7309
  601MOL0     H79308  11.132  11.113   8.211 -0.6202  0.2853  0.9043
  601MOL0     H79309  10.986  11.008   8.245 -0.7728  2.7375  0.3419
  601MOL0     H79310  11.280  10.921   8.230 -0.3295  2.9057 -0.0069
  601MOL0     H79311  11.145  10.812   8.266  3.0537 -2.0862 -0.0737
  601MOL0     H79312  11.034  10.882   8.048  0.7611 -0.0093  0.4568
  601MOL0     H79313  11.179  10.810   8.012  1.0405 -0.1458  0.7642
  601MOL0     H79314  10.486  11.108   8.718 -0.5645 -1.2720  1.1479
  601MOL0     H79315  10.265  11.092   8.816 -1.1879  0.3212  0.6690
  601MOL0     H79316   9.809  11.275   8.739  0.7678 -0.2654 -0.0217
  601MOL0     H79317   9.593  11.199   8.815 -0.0746 -2.2135  0.5745
  601MOL0     H79318  10.043  11.176   9.521  1.5022  0.8547  0.2274
  601MOL0     H79319  10.267  11.191   9.431 -1.2793  0.5806  1.1943
  601MOL0     H79320  10.515  11.060   9.033 -0.5560  1.4461 -0.2843
  601MOL0     H79321  10.751  11.123   8.918  0.5566 -0.0832 -0.4385
  601MOL0     H79322  11.073  11.270   9.185  3.1422  2.3046 -1.2566
  601MOL0     H79323  10.968  11.398   9.144  3.2310 -0.1661  5.2814
  601MOL0     H79324  11.154  11.469   9.041  0.1068  0.5939  0.6781
  601MOL0     H79325  11.226  11.315   9.038 -0.1380 -0.1875 -0.9738
  601MOL0     H79326  11.018  11.411   8.835  1.4933 -0.3181 -1.7269
  601MOL0     H79327  11.128  11.260   8.830  3.2745 -0.5428 -0.2773
  601MOL0     H79328  11.198  11.461   8.674  1.1765 -0.0917 -0.5237
  601MOL0     H79329  11.211  11.557   8.822  1.6076 -0.9041  1.2801
  601MOL0     H79330  11.539  11.313   8.882 -0.5349 -1.3449  0.3870
  601MOL0     H79331  10.909  11.225   9.292  2.2190 -1.8111 -2.0014
  601MOL0     H79332  10.690  11.178   9.410  0.5501 -0.9698  0.2113
  602MOL0     O79333   1.247   1.443   2.367 -0.0989 -0.2671  0.8327
  602MOL0     C79334   1.320   1.543   2.341  0.0550 -0.0671 -0.7184
  602MOL0     O79335   1.279   1.676   2.329  0.0103 -0.6555 -0.2607
  602MOL0     C79336   1.142   1.688   2.310 -0.3231 -0.6408  0.4501
  602MOL0     C79337   1.072   1.616   2.209 -1.6136  0.1564 -0.4283
  602MOL0     C79338   0.935   1.627   2.198  0.5267 -0.1425  0.4798
  602MOL0     C79339   0.860   1.714   2.278 -0.0773 -1.0633 -0.5903
  602MOL0     O79340   0.726   1.737   2.276 -0.0026 -0.8700 -0.4929
  602MOL0     C79341   0.658   1.678   2.163 -0.5602  0.5984  0.0549
  602MOL0     C79342   0.502   1.692   2.172  0.0013 -0.0142  0.0612
  602MOL0     C79343   0.443   1.834   2.159  0.1302 -0.9498 -0.3247
  602MOL0     C79344   0.286   1.818   2.162 -0.5120  0.3950 -0.2657
  602MOL0     C79345   0.209   1.937   2.112  1.3361 -0.1524  0.5788
  602MOL0     C79346   0.194   2.036   2.225 -0.3475  0.0640  0.3831
  602MOL0     C79347   0.165   2.177   2.177 -0.3775 -0.1748  0.9513
  602MOL0     C79348   0.192   2.271   2.300 -0.9594 -0.2014  0.1734
  602MOL0     N79349   0.084   2.289   2.393  0.4024 -0.1875 -0.1435
  602MOL0     C79350   0.005   2.405   2.389 -0.4075  0.7392  0.4695
  602MOL0     C79351  -0.109   2.375   2.453  0.7872 -0.2069  0.0614
  602MOL0     C79352  -0.224   2.466   2.464  0.1871  0.0890 -0.7573
  602MOL0     C79353  -0.250   2.517   2.603 -0.5848 -0.4093  0.3915
  602MOL0     C79354  -0.371   2.613   2.614  0.0113 -0.3524  0.0684
  602MOL0     C79355  -0.458   2.569   2.733  0.7394  0.6199 -0.4622
  602MOL0     O79356  -0.563   2.665   2.750  0.4903 -0.3125 -0.5319
  602MOL0     C79357  -0.681   2.638   2.686  0.2889 -0.0800 -0.6786
  602MOL0     C79358  -0.770   2.539   2.712 -0.5168 -0.2490 -0.0675
  602MOL0     C79359  -0.881   2.510   2.637  0.8436 -0.2213  0.6450
  602MOL0     C79360  -0.915   2.591   2.519  1.1161  0.6391  0.9607
  602MOL0     C79361  -1.037   2.562   2.437  0.5619  0.6595  0.8172
  602MOL0     O79362  -1.056   2.636   2.310 -0.7882  0.8811 -0.1224
  602MOL0     C79363  -1.163   2.583   2.229  0.8811 -0.2471  0.2559
  602MOL0     C79364  -1.267   2.674   2.186  1.4347  0.6000  1.0009
  602MOL0     C79365  -1.352   2.647   2.080 -0.4150 -0.5152 -0.2767
  602MOL0     C79366  -1.352   2.513   2.022 -0.5347 -1.0330 -0.0992
  602MOL0     O79367  -1.418   2.468   1.919  0.2715 -0.4190 -0.1163
  602MOL0     C79368  -1.525   2.547   1.872 -0.7598 -1.0949  0.2247
  602MOL0     C79369  -1.567   2.492   1.734 -0.4235  0.0105 -0.2187
  602MOL0     C79370  -1.684   2.565   1.676 -0.2745  0.1588 -0.6933
  602MOL0     C79371  -1.704   2.530   1.533 -0.0253 -0.2358  0.7078
  602MOL0     C79372  -1.847   2.534   1.494  0.1279  0.3051 -0.5514
  602MOL0     C79373  -1.941   2.429   1.569 -0.9125 -0.2334 -0.4546
  602MOL0     C79374  -1.878   2.299   1.610  0.0305 -0.4015 -0.7969
  602MOL0     C79375  -1.978   2.216   1.684  0.1731  0.5647 -0.3269
  602MOL0    Cl79376  -1.903   2.075   1.744  0.0310 -0.7587 -0.0366
  602MOL0     C79377  -1.254   2.426   2.073  0.5480  1.1052  0.7591
  602MOL0     C79378  -1.158   2.459   2.170 -0.1249 -0.7791 -0.6295
  602MOL0     O79379  -1.107   2.462   2.461 -1.1929  0.2483 -0.6146
  602MOL0     C79380  -0.823   2.697   2.487  1.2941 -0.0647  0.6054
  602MOL0     C79381  -0.716   2.718   2.571 -0.0949  1.0275 -0.8403
  602MOL0     N79382  -0.100   2.242   2.489  0.8452 -0.7606  0.0673
  602MOL0     N79383   0.019   2.195   2.464 -0.1228  0.2592 -0.0087
  602MOL0     C79384   0.923   1.793   2.380  0.4241  0.7017 -0.1741
  602MOL0     C79385   1.059   1.776   2.394 -0.2575  0.5111  0.3844
  602MOL0     C79386   1.463   1.511   2.347  0.3240 -1.0701  0.5011
  602MOL0     C79387   1.525   1.401   2.278 -0.1719  0.6404 -0.9881
  602MOL0     C79388   1.658   1.385   2.286 -0.6375 -0.3588  0.0244
  602MOL0     C79389   1.733   1.481   2.360 -0.1675  1.0406  0.3188
  602MOL0     O79390   1.867   1.441   2.361  0.0145 -0.0023  0.0994
  602MOL0     C79391   1.949   1.522   2.450 -0.0820  1.0836  1.0331
  602MOL0     C79392   2.086   1.472   2.433 -0.2224 -1.4408 -0.0205
  602MOL0     C79393   2.115   1.322   2.471  0.1579 -0.8041  0.1385
  602MOL0     C79394   2.057   1.272   2.597 -0.6588  0.0099  0.6967
  602MOL0     C79395   2.094   1.357   2.709  0.0134 -0.4707 -0.1765
  602MOL0     C79396   2.123   1.430   2.798  0.8684  0.2482 -0.7014
  602MOL0     C79397   1.674   1.588   2.436  0.7734 -0.5342 -0.1515
  602MOL0     C79398   1.539   1.604   2.420 -0.7765  0.4429 -0.3735
  602MOL0     H79399   1.127   1.548   2.144  0.2587  1.1730  0.0318
  602MOL0     H79400   0.879   1.571   2.124 -1.9433  2.1998  0.4194
  602MOL0     H79401   0.673   1.569   2.162 -2.8194  0.2269  0.8512
  602MOL0     H79402   0.701   1.723   2.074 -1.9399 -0.1675 -1.0318
  602MOL0     H79403   0.472   1.660   2.273  0.4734 -0.8936 -0.0674
  602MOL0     H79404   0.450   1.620   2.108 -0.5001 -0.5847  1.0766
  602MOL0     H79405   0.474   1.884   2.067  0.7826 -1.3938 -0.3528
  602MOL0     H79406   0.481   1.893   2.243 -1.5941  2.7188 -1.8818
  602MOL0     H79407   0.264   1.749   2.081 -0.5006  0.4789 -0.3396
  602MOL0     H79408   0.257   1.765   2.253  1.7998 -5.2735 -2.3584
  602MOL0     H79409   0.109   1.916   2.072  0.7053  2.2237  0.7500
  602MOL0     H79410   0.260   1.984   2.027  0.2878  1.1515  0.6276
  602MOL0     H79411   0.283   2.038   2.288 -1.2422 -0.6671  1.7334
  602MOL0     H79412   0.110   2.004   2.288  0.6596  1.6595  2.6288
  602MOL0     H79413   0.235   2.215   2.101  1.5631 -3.0440  1.1554
  602MOL0     H79414   0.064   2.178   2.136  0.2121 -0.7411 -0.5872
  602MOL0     H79415   0.210   2.370   2.256  0.5054 -1.3320 -1.9312
  602MOL0     H79416   0.288   2.254   2.350 -0.4377  0.4843 -0.5619
  602MOL0     H79417   0.026   2.498   2.336  1.1180  0.9945  1.4596
  602MOL0     H79418  -0.315   2.418   2.426 -0.9214  2.1527 -0.8228
  602MOL0     H79419  -0.207   2.551   2.397 -1.8800  1.6120  0.5379
  602MOL0     H79420  -0.161   2.573   2.631 -0.0117 -1.2461  0.2671
  602MOL0     H79421  -0.264   2.429   2.667  0.4366 -0.8027  0.0881
  602MOL0     H79422  -0.337   2.715   2.633 -1.1140  0.5155 -2.2381
  602MOL0     H79423  -0.425   2.623   2.519 -0.5235  1.8713  0.5609
  602MOL0     H79424  -0.384   2.588   2.811  0.7839  4.4797 -1.2236
  602MOL0     H79425  -0.493   2.467   2.721  2.2759 -0.0191  0.2354
  602MOL0     H79426  -0.752   2.469   2.794 -2.0435  0.0952  0.6039
  602MOL0     H79427  -0.938   2.424   2.671  3.0283 -2.6924 -1.5011
  602MOL0     H79428  -1.272   2.774   2.227  1.7050  1.7853 -1.6260
  602MOL0     H79429  -1.414   2.734   2.059 -1.0301 -1.3407 -1.9689
  602MOL0     H79430  -1.482   2.647   1.865 -1.6539 -0.6273  1.1569
  602MOL0     H79431  -1.606   2.556   1.944  1.0958  0.7417  2.2411
  602MOL0     H79432  -1.578   2.383   1.735  0.4463 -0.0907  1.0857
  602MOL0     H79433  -1.473   2.499   1.678 -1.1777 -1.5511 -1.7663
  602MOL0     H79434  -1.661   2.671   1.695  3.4615 -0.4073 -1.3246
  602MOL0     H79435  -1.771   2.546   1.739  0.3242 -1.7916 -0.3992
  602MOL0     H79436  -1.657   2.605   1.469  1.2161  2.1533  4.1184
  602MOL0     H79437  -1.669   2.429   1.510 -3.8628 -1.0173 -2.8284
  602MOL0     H79438  -1.853   2.500   1.390 -1.0056  3.0366 -1.4619
  602MOL0     H79439  -1.890   2.634   1.485 -1.3070 -0.3172 -0.9479
  602MOL0     H79440  -2.033   2.408   1.514 -1.7433 -1.1856  1.2355
  602MOL0     H79441  -1.974   2.467   1.666 -1.0716 -1.3023 -0.0763
  602MOL0     H79442  -1.835   2.242   1.527  0.3315  1.4787 -2.0011
  602MOL0     H79443  -1.794   2.322   1.675  1.5305  2.3332 -3.4311
  602MOL0     H79444  -2.056   2.171   1.621  2.3397 -5.7382  0.7784
  602MOL0     H79445  -2.025   2.288   1.751 -0.8771 -0.3497 -0.0423
  602MOL0     H79446  -1.242   2.326   2.032  0.1187  1.6452 -0.7743
  602MOL0     H79447  -1.073   2.394   2.189 -0.3017 -0.4800  1.4090
  602MOL0     H79448  -0.833   2.756   2.396 -1.4443 -0.1845  0.7597
  602MOL0     H79449  -0.642   2.797   2.554  0.8180  0.9270  2.1424
  602MOL0     H79450   0.855   1.855   2.437  0.5281  1.2120 -0.6012
  602MOL0     H79451   1.107   1.823   2.479  4.0996 -1.3091 -0.7701
  602MOL0     H79452   1.462   1.327   2.230  0.4588 -0.0768 -0.7222
  602MOL0     H79453   1.695   1.302   2.227 -2.1788 -0.8355 -0.3312
  602MOL0     H79454   1.916   1.522   2.554  0.3380  0.1903  1.1747
  602MOL0     H79455   1.947   1.623   2.408 -1.4926  0.9712  0.7693
  602MOL0     H79456   2.108   1.495   2.328 -0.9003  0.2477  0.1779
  602MOL0     H79457   2.163   1.532   2.484 -0.4448  0.7545 -2.0918
  602MOL0     H79458   2.221   1.298   2.482  0.3975  0.4233  0.6167
  602MOL0     H79459   2.088   1.262   2.383  2.0621  1.2163 -1.9766
  602MOL0     H79460   1.948   1.273   2.592 -0.8597  1.2868  3.6440
  602MOL0     H79461   2.077   1.165   2.609  0.3740  0.3140  1.8549
  602MOL0     H79462   2.150   1.491   2.882 -0.3740  0.6631 -0.5933
  602MOL0     H79463   1.718   1.663   2.500 -0.2804  1.4878 -1.6893
  602MOL0     H79464   1.488   1.685   2.469 -0.2993 -0.7562  2.2836
  603MOL0     O79465   9.644   5.788   1.704  0.6739 -0.5075 -0.6662
  603MOL0     C79466   9.572   5.807   1.803 -0.6793  0.2460  0.3173
  603MOL0     O79467   9.607   5.852   1.920 -0.1035 -0.2489  0.9092
  603MOL0     C79468   9.735   5.884   1.941 -0.1925 -1.1799 -0.0450
  603MOL0     C79469   9.783   5.854   2.071  0.5902 -0.1366  0.0909
  603MOL0     C79470   9.915   5.880   2.114 -0.7436 -0.6830 -0.1186
  603MOL0     C79471  10.003   5.933   2.017  0.0754  0.3342  0.7604
  603MOL0     O79472  10.134   5.955   2.054  0.6954 -0.1781 -0.5537
  603MOL0     C79473  10.241   5.931   1.970 -0.3178  0.2255  0.5463
  603MOL0     C79474  10.250   5.775   1.931 -1.0752 -0.4174 -0.0036
  603MOL0     C79475  10.271   5.680   2.049  0.0189  0.3288  1.0765
  603MOL0     C79476  10.374   5.717   2.162  0.3382  0.1132 -0.6538
  603MOL0     C79477  10.527   5.715   2.129  0.5947  0.2536  0.4128
  603MOL0     C79478  10.573   5.580   2.071  1.0778 -0.2936  0.0610
  603MOL0     C79479  10.720   5.582   2.015  0.5845  0.3705 -0.2055
  603MOL0     C79480  10.821   5.567   2.125  0.1381 -0.7213  0.1402
  603MOL0     N79481  10.959   5.581   2.065  0.2410 -0.0686  0.0215
  603MOL0     C79482  11.053   5.483   2.038 -0.2532 -0.7522 -0.4017
  603MOL0     C79483  11.153   5.559   1.986 -0.0487  1.1988 -0.0379
  603MOL0     C79484  11.274   5.494   1.928 -0.8932 -0.5054 -0.1176
  603MOL0     C79485  11.236   5.393   1.825  0.1279  0.4949 -1.0723
  603MOL0     C79486  11.356   5.320   1.755 -0.4620  0.2410 -0.1559
  603MOL0     C79487  11.428   5.413   1.659  0.1710 -0.2027  0.3306
  603MOL0     O79488  11.503   5.321   1.582 -0.3647  0.7391  0.3689
  603MOL0     C79489  11.615   5.381   1.521  1.0210 -1.1334 -0.3404
  603MOL0     C79490  11.624   5.519   1.488 -0.2235  0.1157  1.1293
  603MOL0     C79491  11.723   5.580   1.420  0.0267 -0.2201  0.5571
  603MOL0     C79492  11.825   5.495   1.377 -0.8531 -0.1315 -0.0079
  603MOL0     C79493  11.956   5.545   1.318 -0.3397 -0.1061 -0.6473
  603MOL0     O79494  11.975   5.687   1.323 -0.1481 -0.5975  0.4297
  603MOL0     C79495  12.098   5.745   1.305  0.1524  0.0413 -0.0392
  603MOL0     C79496  12.093   5.877   1.283  0.1360  0.7055 -0.7342
  603MOL0     C79497  12.207   5.949   1.269  0.2243  0.6210 -0.4557
  603MOL0     C79498  12.338   5.892   1.275  0.3813  0.4564  0.8926
  603MOL0     O79499  12.442   5.983   1.274 -0.1755  0.2039 -0.6119
  603MOL0     C79500  12.580   5.937   1.272  0.5225 -0.3895  0.1500
  603MOL0     C79501  12.611   5.916   1.123 -0.0873  0.7372  0.0427
  603MOL0     C79502  12.701   6.016   1.046 -0.2491 -0.2451  0.2434
  603MOL0     C79503  12.648   6.150   1.030 -0.0632 -0.0864 -0.0388
  603MOL0     C79504  12.766   6.246   1.014 -0.6414  1.2973  0.7143
  603MOL0     C79505  12.710   6.383   1.026 -0.1185 -0.3142  0.7262
  603MOL0     C79506  12.609   6.423   0.911 -0.1754  0.4441 -0.4298
  603MOL0     C79507  12.552   6.568   0.934 -0.5161 -0.8666 -0.7337
  603MOL0    Cl79508  12.483   6.584   1.095 -0.0797 -0.2685  0.0293
  603MOL0     C79509  12.352   5.750   1.286 -0.3931 -0.0964  0.5134
  603MOL0     C79510  12.232   5.677   1.298  0.1849  0.2112 -0.2734
  603MOL0     O79511  12.046   5.469   1.288  0.0239 -0.0362  0.7604
  603MOL0     C79512  11.825   5.363   1.412  1.3434  0.0519  0.7331
  603MOL0     C79513  11.721   5.307   1.481 -0.6603 -0.0162  0.0928
  603MOL0     N79514  11.128   5.693   1.974 -0.0955 -1.1636  0.2082
  603MOL0     N79515  11.003   5.696   2.017  0.0762  0.1025 -0.0438
  603MOL0     C79516   9.951   5.966   1.888 -0.2115 -0.4861 -1.0957
  603MOL0     C79517   9.823   5.943   1.853 -0.2947 -0.5483 -0.5408
  603MOL0     C79518   9.433   5.781   1.791  0.5494 -0.4261 -0.4924
  603MOL0     C79519   9.380   5.698   1.691 -0.6912 -0.2578  1.4426
  603MOL0     C79520   9.246   5.665   1.675  0.6444  0.0318 -0.8058
  603MOL0     C79521   9.158   5.712   1.781 -0.5674  0.0526  0.9291
  603MOL0     O79522   9.019   5.687   1.787  0.4201 -0.2386 -0.0527
  603MOL0     C79523   8.962   5.561   1.745  0.2669 -0.3967  0.0489
  603MOL0     C79524   8.820   5.547   1.813  0.2451  0.6565 -0.0954
  603MOL0     C79525   8.704   5.626   1.744  0.2548  0.5422  0.8956
  603MOL0     C79526   8.563   5.612   1.808  0.0660  0.2165 -0.1669
  603MOL0     C79527   8.518   5.472   1.797 -0.5972  1.1688 -0.4048
  603MOL0     C79528   8.477   5.357   1.795 -0.4860  0.8115 -0.6141
  603MOL0     C79529   9.206   5.797   1.876 -0.1523  0.4335  0.2828
  603MOL0     C79530   9.342   5.823   1.887  0.0772  0.1042 -0.9144
  603MOL0     H79531   9.712   5.825   2.148  0.5834  1.5521  0.7553
  603MOL0     H79532   9.946   5.862   2.216  2.4138  0.1620 -0.8393
  603MOL0     H79533  10.329   5.959   2.028 -1.2606  3.5826  0.5202
  603MOL0     H79534  10.235   5.996   1.882  1.9211 -0.6423 -0.3257
  603MOL0     H79535  10.339   5.755   1.871 -0.6379 -0.6122  0.6962
  603MOL0     H79536  10.161   5.750   1.873 -2.6307  3.6373  0.2941
  603MOL0     H79537  10.288   5.582   2.004  0.5201 -0.5731  3.1179
  603MOL0     H79538  10.172   5.671   2.096 -0.2470  0.8808  0.6408
  603MOL0     H79539  10.353   5.818   2.199  0.0672 -0.9414  2.3071
  603MOL0     H79540  10.359   5.642   2.239  0.6428 -0.6944 -1.3716
  603MOL0     H79541  10.589   5.748   2.213 -0.5814  0.3964  1.2593
  603MOL0     H79542  10.562   5.776   2.046  2.4281 -3.4534 -1.8038
  603MOL0     H79543  10.494   5.553   2.001  1.5097  0.4624 -0.7403
  603MOL0     H79544  10.578   5.508   2.153  0.5724 -1.5671 -0.9985
  603MOL0     H79545  10.725   5.508   1.935  1.4938 -0.6177  0.7279
  603MOL0     H79546  10.731   5.680   1.968 -1.0423  1.4606  1.5526
  603MOL0     H79547  10.795   5.469   2.166 -1.3696 -0.6067 -0.4597
  603MOL0     H79548  10.805   5.632   2.212 -1.5758 -1.8258  0.7019
  603MOL0     H79549  11.053   5.376   2.052  1.8598 -0.5027  2.4300
  603MOL0     H79550  11.334   5.449   2.007 -1.0646 -0.6009 -0.0399
  603MOL0     H79551  11.328   5.574   1.877 -1.3979  0.1304  0.3235
  603MOL0     H79552  11.181   5.455   1.753 -1.3834 -2.0989 -2.3101
  603MOL0     H79553  11.181   5.306   1.864  0.4236  0.4751 -0.6968
  603MOL0     H79554  11.416   5.272   1.833 -2.7434 -1.0544  0.9007
  603MOL0     H79555  11.309   5.246   1.689 -2.4862  2.0826 -0.8866
  603MOL0     H79556  11.488   5.487   1.712  0.9989 -1.3391  1.0406
  603MOL0     H79557  11.353   5.476   1.611  0.0700  0.2238  1.0479
  603MOL0     H79558  11.539   5.577   1.524 -1.6252 -1.7531  0.9944
  603MOL0     H79559  11.729   5.688   1.406  0.5954 -0.0480  1.9094
  603MOL0     H79560  11.992   5.917   1.288 -0.0353  0.2368  4.6476
  603MOL0     H79561  12.196   6.054   1.243  1.0141  1.4137  2.0960
  603MOL0     H79562  12.595   5.854   1.342 -0.5486  0.5218  1.5312
  603MOL0     H79563  12.649   6.016   1.304 -0.8829  1.7638 -1.8893
  603MOL0     H79564  12.520   5.901   1.064 -1.8763  2.4205  2.1839
  603MOL0     H79565  12.664   5.820   1.116 -0.7996  0.3976 -0.9429
  603MOL0     H79566  12.729   5.984   0.945 -0.3714  2.2995 -0.6855
  603MOL0     H79567  12.802   6.031   1.087 -0.8273  3.2861  0.7063
  603MOL0     H79568  12.573   6.149   0.950  1.4483 -0.6418 -1.4955
  603MOL0     H79569  12.597   6.172   1.125 -0.6873 -2.1235  0.1426
  603MOL0     H79570  12.816   6.221   0.920  0.1741 -1.1317  1.7040
  603MOL0     H79571  12.856   6.232   1.075  3.9989  0.6429 -5.2729
  603MOL0     H79572  12.791   6.456   1.023  1.1302 -1.6470 -2.1967
  603MOL0     H79573  12.672   6.395   1.128 -1.1277  0.4227  0.2790
  603MOL0     H79574  12.663   6.427   0.817  0.4854  2.4761 -0.0193
  603MOL0     H79575  12.531   6.346   0.914 -0.0143  0.2712 -0.7451
  603MOL0     H79576  12.482   6.586   0.852 -0.7023  0.6473 -0.2666
  603MOL0     H79577  12.636   6.637   0.929  0.3617 -1.5622  2.2976
  603MOL0     H79578  12.451   5.707   1.293 -0.8292 -1.4610 -1.0894
  603MOL0     H79579  12.255   5.574   1.320  2.7662  0.4792 -1.3559
  603MOL0     H79580  11.899   5.296   1.367 -0.1016 -0.1239 -1.5472
  603MOL0     H79581  11.726   5.200   1.500 -0.1345  0.4938  3.6367
  603MOL0     H79582  10.018   6.016   1.818 -1.0605 -1.2810 -2.5336
  603MOL0     H79583   9.796   5.963   1.749  0.2664  2.5821 -0.1838
  603MOL0     H79584   9.449   5.663   1.614  0.2540  1.6373  1.3759
  603MOL0     H79585   9.215   5.591   1.601  0.5245 -0.5829 -0.1535
  603MOL0     H79586   9.028   5.480   1.780  0.8178  0.3002  0.6707
  603MOL0     H79587   8.958   5.561   1.636  0.6326 -0.6603  0.0338
  603MOL0     H79588   8.789   5.442   1.819  1.5933  0.3072  2.1718
  603MOL0     H79589   8.823   5.574   1.919 -1.2846 -0.6546  0.3336
  603MOL0     H79590   8.699   5.593   1.639  0.3448  1.8869  0.4472
  603MOL0     H79591   8.732   5.731   1.738 -1.6887  1.0912  0.7870
  603MOL0     H79592   8.577   5.636   1.914 -2.2404  0.2585  0.1748
  603MOL0     H79593   8.487   5.681   1.770  0.1166  1.3156  1.5813
  603MOL0     H79594   8.451   5.253   1.801 -1.6231  1.1608  2.1061
  603MOL0     H79595   9.128   5.825   1.946 -1.8089  0.4000 -1.4414
  603MOL0     H79596   9.364   5.883   1.975  0.2192 -1.5713  0.2369
  604MOL0     O79597   0.294   3.609   0.344  0.0335  0.5664 -0.4507
  604MOL0     C79598   0.243   3.556   0.441 -0.1422  0.0652  0.5317
  604MOL0     O79599   0.313   3.502   0.547  0.1179  0.0896 -0.6393
  604MOL0     C79600   0.452   3.490   0.546  0.0860  0.5175  0.6415
  604MOL0     C79601   0.503   3.372   0.494 -1.2374  0.3466  0.2128
  604MOL0     C79602   0.650   3.358   0.483  0.4915 -0.0273 -0.1795
  604MOL0     C79603   0.728   3.455   0.538  0.0369  0.3532 -0.5870
  604MOL0     O79604   0.869   3.427   0.539  0.0097 -0.9121 -0.0859
  604MOL0     C79605   0.959   3.488   0.628 -0.1169 -1.0743 -0.1752
  604MOL0     C79606   1.101   3.429   0.642 -0.1311 -0.0343  0.0362
  604MOL0     C79607   1.099   3.280   0.664  0.0581  0.1501 -0.2225
  604MOL0     C79608   1.042   3.234   0.796  0.1948  0.2705  0.8653
  604MOL0     C79609   1.041   3.075   0.810 -0.7066  0.3166  1.3129
  604MOL0     C79610   0.941   3.039   0.917 -0.0695  0.2090  0.0587
  604MOL0     C79611   0.913   2.894   0.945 -0.3091 -0.9983  0.1872
  604MOL0     C79612   0.846   2.813   0.830  0.3430  0.6256  0.0681
  604MOL0     N79613   0.739   2.889   0.759  0.7345 -0.3668 -0.4227
  604MOL0     C79614   0.603   2.903   0.802  0.0073  0.2472  0.5699
  604MOL0     C79615   0.547   2.967   0.695  0.1117  0.3777  0.0515
  604MOL0     C79616   0.387   3.007   0.685  0.4988  0.0690  0.2240
  604MOL0     C79617   0.303   2.879   0.652 -0.3770  0.9803 -0.7891
  604MOL0     C79618   0.145   2.895   0.679 -0.2855  0.0943 -0.7402
  604MOL0     C79619   0.068   2.959   0.562  0.8198 -0.1565 -0.1005
  604MOL0     O79620  -0.057   3.029   0.612 -0.6705  0.0590 -0.1092
  604MOL0     C79621  -0.173   2.955   0.606  0.8278 -0.0364 -0.5553
  604MOL0     C79622  -0.281   3.043   0.591 -0.3756  0.1076  0.1731
  604MOL0     C79623  -0.412   2.983   0.574  0.1305 -0.4189  0.6381
  604MOL0     C79624  -0.429   2.854   0.565 -0.1416  0.4137 -0.0104
  604MOL0     C79625  -0.565   2.795   0.546 -0.1777  0.0717  0.4638
  604MOL0     O79626  -0.670   2.883   0.533  1.0639  1.3561 -0.4965
  604MOL0     C79627  -0.799   2.837   0.507 -0.7287  0.2186 -0.2299
  604MOL0     C79628  -0.842   2.703   0.521  0.1340  0.5512  0.3841
  604MOL0     C79629  -0.972   2.658   0.492 -0.5394 -0.4072  0.2372
  604MOL0     C79630  -1.064   2.758   0.454 -0.7862  0.6636  0.6798
  604MOL0     O79631  -1.193   2.719   0.425 -0.3378  0.0268 -0.3326
  604MOL0     C79632  -1.205   2.580   0.412  0.0918  0.4873 -0.3022
  604MOL0     C79633  -1.350   2.555   0.365  0.1509 -0.3114  0.6734
  604MOL0     C79634  -1.457   2.586   0.474  0.2617 -0.6051  0.3836
  604MOL0     C79635  -1.604   2.630   0.432  0.4081  1.2263 -0.3275
  604MOL0     C79636  -1.692   2.606   0.548  0.9548  0.2593  0.5426
  604MOL0     C79637  -1.838   2.613   0.501 -0.6937 -0.4122  0.9981
  604MOL0     C79638  -1.948   2.597   0.612  0.2059 -0.7732  0.9940
  604MOL0     C79639  -2.073   2.673   0.571 -0.6036 -0.5105  0.1456
  604MOL0    Cl79640  -2.121   2.617   0.399  0.2541  0.2122  0.3306
  604MOL0     C79641  -1.024   2.894   0.457 -0.0581  0.4458  0.3444
  604MOL0     C79642  -0.890   2.931   0.486  0.5282  0.6418  1.1475
  604MOL0     O79643  -0.567   2.671   0.529  0.2715 -0.3075  0.3113
  604MOL0     C79644  -0.318   2.767   0.572 -0.2201  0.1259  0.0428
  604MOL0     C79645  -0.191   2.819   0.601  0.3424 -0.3596 -0.5083
  604MOL0     N79646   0.642   2.988   0.604  0.0484  0.3670  0.9570
  604MOL0     N79647   0.752   2.948   0.641 -0.0583 -0.0297  0.3033
  604MOL0     C79648   0.677   3.568   0.591  0.3584 -0.2518  0.8335
  604MOL0     C79649   0.542   3.594   0.584  0.1391  0.5122 -0.6320
  604MOL0     C79650   0.100   3.552   0.436  0.7552  0.0244 -0.1047
  604MOL0     C79651   0.030   3.571   0.318 -0.6282 -1.0480 -0.2116
  604MOL0     C79652  -0.109   3.579   0.322 -0.3108 -0.3898  0.7171
  604MOL0     C79653  -0.182   3.550   0.436 -0.1242  0.0187 -1.4649
  604MOL0     O79654  -0.319   3.542   0.439  0.2792  0.2140 -0.8940
  604MOL0     C79655  -0.389   3.551   0.310  0.1364  0.0348 -0.6608
  604MOL0     C79656  -0.538   3.507   0.311 -0.1298 -0.9764  0.3280
  604MOL0     C79657  -0.542   3.352   0.333  0.2768  0.7986  1.2284
  604MOL0     C79658  -0.471   3.258   0.234  0.1235  0.1518 -0.3386
  604MOL0     C79659  -0.335   3.240   0.280 -0.6520 -1.0509  0.9427
  604MOL0     C79660  -0.216   3.246   0.303 -0.2672 -0.2324  0.7839
  604MOL0     C79661  -0.113   3.516   0.556  0.2785 -0.1743  0.4278
  604MOL0     C79662   0.030   3.525   0.556  0.7180  0.1607 -0.0601
  604MOL0     H79663   0.444   3.294   0.448 -2.1877  0.1714  1.6613
  604MOL0     H79664   0.692   3.264   0.448  2.0763  0.4274  0.4431
  604MOL0     H79665   0.919   3.482   0.729 -0.2778 -0.9879 -0.2345
  604MOL0     H79666   0.961   3.587   0.583  2.7587 -1.6428 -1.5503
  604MOL0     H79667   1.155   3.480   0.722  2.5880 -1.3913 -0.7914
  604MOL0     H79668   1.157   3.457   0.553 -1.2627 -3.7423 -2.0621
  604MOL0     H79669   1.203   3.246   0.668 -0.2361 -1.0527 -1.7225
  604MOL0     H79670   1.044   3.231   0.583  0.5169  1.5363 -1.4146
  604MOL0     H79671   1.105   3.267   0.879  0.8466  2.2281 -0.3439
  604MOL0     H79672   0.947   3.287   0.801 -0.2225 -0.2989 -0.7460
  604MOL0     H79673   1.145   3.041   0.819 -1.0982 -2.5633 -2.4728
  604MOL0     H79674   1.017   3.025   0.716  1.8281  0.1722  0.6542
  604MOL0     H79675   0.844   3.079   0.886 -1.6962 -2.8320  0.8173
  604MOL0     H79676   0.968   3.088   1.010 -1.5918 -1.9967  1.7745
  604MOL0     H79677   1.009   2.844   0.967  0.7208  0.9155  0.2617
  604MOL0     H79678   0.859   2.896   1.040 -0.1622  0.8904  0.2641
  604MOL0     H79679   0.803   2.721   0.870 -0.9215 -0.9940 -4.3833
  604MOL0     H79680   0.924   2.789   0.758  1.0020  1.8343  0.3388
  604MOL0     H79681   0.550   2.876   0.892 -0.8031 -0.1155 -0.0059
  604MOL0     H79682   0.377   3.078   0.602 -1.2556 -0.0895  0.2660
  604MOL0     H79683   0.350   3.042   0.782  0.7922  1.7874 -0.2461
  604MOL0     H79684   0.332   2.792   0.712  0.0487  1.5180 -0.2164
  604MOL0     H79685   0.317   2.850   0.547 -1.5310 -0.7690 -0.5135
  604MOL0     H79686   0.098   2.800   0.703 -2.8997  1.4085 -0.3001
  604MOL0     H79687   0.119   2.947   0.772  2.6424 -0.2457  0.3889
  604MOL0     H79688   0.061   2.883   0.483  2.0603 -1.3606  0.8880
  604MOL0     H79689   0.126   3.040   0.519 -1.2066  0.7531 -1.2808
  604MOL0     H79690  -0.255   3.147   0.607 -0.7503 -0.1461  2.6870
  604MOL0     H79691  -0.494   3.052   0.557  0.5291 -0.6057 -2.5965
  604MOL0     H79692  -0.785   2.615   0.549  0.8294  0.4190 -1.3484
  604MOL0     H79693  -0.990   2.553   0.514  0.1435 -0.1397  2.2729
  604MOL0     H79694  -1.202   2.525   0.507 -3.3751 -1.0078 -0.9107
  604MOL0     H79695  -1.142   2.542   0.331 -0.2743 -2.0954  0.5328
  604MOL0     H79696  -1.361   2.448   0.343 -1.0294 -0.0543 -0.0487
  604MOL0     H79697  -1.374   2.614   0.276  2.1900  0.2923  0.4593
  604MOL0     H79698  -1.411   2.665   0.535  1.0623 -0.9264  0.2134
  604MOL0     H79699  -1.461   2.505   0.548 -0.3733  0.0476  1.0814
  604MOL0     H79700  -1.615   2.733   0.398  2.1325  1.1534 -1.2420
  604MOL0     H79701  -1.625   2.560   0.351 -1.7069 -0.0664  1.2493
  604MOL0     H79702  -1.673   2.677   0.629 -1.8641  3.4142 -1.2806
  604MOL0     H79703  -1.678   2.501   0.573 -0.7003 -1.0958 -3.4765
  604MOL0     H79704  -1.852   2.537   0.423  0.2451 -0.2877  0.6977
  604MOL0     H79705  -1.843   2.715   0.462  1.7757  0.7502  3.3692
  604MOL0     H79706  -1.971   2.492   0.633 -0.5603 -0.3784  2.2722
  604MOL0     H79707  -1.913   2.631   0.710 -0.8707 -1.6455  1.7085
  604MOL0     H79708  -2.051   2.781   0.568 -2.4902 -0.1139 -0.6985
  604MOL0     H79709  -2.154   2.650   0.642  0.3095 -1.0998  1.0185
  604MOL0     H79710  -1.092   2.972   0.424 -0.0978  0.3877  0.2861
  604MOL0     H79711  -0.866   3.037   0.477  1.4175  0.3150 -0.6997
  604MOL0     H79712  -0.341   2.661   0.567 -2.5205  0.5592  0.2970
  604MOL0     H79713  -0.099   2.763   0.616  1.1316  1.1136  0.3593
  604MOL0     H79714   0.742   3.649   0.624  2.8707 -1.3862 -1.0555
  604MOL0     H79715   0.490   3.683   0.620 -0.8798 -0.4450  0.3520
  604MOL0     H79716   0.089   3.598   0.231 -1.5620 -0.3508 -0.6495
  604MOL0     H79717  -0.145   3.604   0.222 -0.1588 -1.7171  0.3180
  604MOL0     H79718  -0.341   3.484   0.238  1.1733 -1.3548  1.2293
  604MOL0     H79719  -0.380   3.653   0.273  2.0966  0.5332  0.9889
  604MOL0     H79720  -0.604   3.558   0.382 -0.2127  3.0339 -2.3009
  604MOL0     H79721  -0.581   3.528   0.212  0.1573 -0.3081  0.3387
  604MOL0     H79722  -0.644   3.312   0.326 -0.2140  1.9860  1.3512
  604MOL0     H79723  -0.510   3.327   0.435 -0.2333 -1.1911  0.9601
  604MOL0     H79724  -0.505   3.154   0.240  1.9594 -0.4225  2.1949
  604MOL0     H79725  -0.488   3.287   0.130  1.9787 -0.9702 -1.0192
  604MOL0     H79726  -0.110   3.256   0.299 -0.4594  2.0759 -0.4086
  604MOL0     H79727  -0.162   3.476   0.644 -1.4385 -2.1357 -1.2854
  604MOL0     H79728   0.073   3.504   0.653 -0.7005 -1.1549  0.3071
  605MOL0     O79729   4.035   5.229   2.155  0.0533  0.0568 -0.0903
  605MOL0     C79730   4.065   5.112   2.182  0.7970 -0.2864 -0.0119
  605MOL0     O79731   3.980   5.007   2.177 -1.0632 -0.3579  0.9208
  605MOL0     C79732   3.848   5.032   2.142  0.7338 -0.4971 -0.3900
  605MOL0     C79733   3.814   5.084   2.017  0.3878 -0.2227  0.0888
  605MOL0     C79734   3.682   5.091   1.980  0.2889  0.5552  0.5734
  605MOL0     C79735   3.579   5.063   2.064  0.5864  0.2917 -0.4431
  605MOL0     O79736   3.451   5.088   2.027 -0.2901 -0.8795 -0.4673
  605MOL0     C79737   3.353   5.121   2.129  0.0204 -0.0749  0.0500
  605MOL0     C79738   3.222   5.175   2.067 -0.1302 -0.2888 -0.3535
  605MOL0     C79739   3.136   5.238   2.172 -0.4526  0.5239  0.3812
  605MOL0     C79740   3.166   5.379   2.208  0.6271 -0.5043  1.4338
  605MOL0     C79741   3.068   5.434   2.307  0.2991  0.3851  0.2161
  605MOL0     C79742   3.106   5.576   2.360 -0.8082  0.2089  0.7749
  605MOL0     C79743   2.990   5.620   2.445  0.6973  0.2128 -0.6930
  605MOL0     C79744   3.014   5.756   2.519  0.3958 -0.5059 -0.0211
  605MOL0     N79745   3.084   5.749   2.641 -0.1494 -0.1867 -0.0930
  605MOL0     C79746   3.034   5.704   2.754  0.6724  0.5601 -0.4084
  605MOL0     C79747   3.143   5.697   2.840  0.7524 -0.7139 -0.7120
  605MOL0     C79748   3.138   5.669   2.989  0.5961 -0.0700  0.1751
  605MOL0     C79749   3.103   5.526   3.034  0.3904  1.0995  0.6111
  605MOL0     C79750   3.140   5.507   3.172  0.0714 -0.5791 -0.7636
  605MOL0     C79751   3.152   5.343   3.191 -0.1087 -0.3413  0.1647
  605MOL0     O79752   3.045   5.284   3.272 -0.9652 -0.2485  0.8769
  605MOL0     C79753   2.916   5.330   3.247 -0.2603  0.4691  0.5466
  605MOL0     C79754   2.850   5.394   3.348 -0.3635 -0.4817 -0.0274
  605MOL0     C79755   2.714   5.404   3.349 -0.5038 -0.3501 -0.6166
  605MOL0     C79756   2.640   5.348   3.242  0.1159  0.3049  0.3191
  605MOL0     C79757   2.495   5.337   3.268  0.5676  0.0356 -0.1546
  605MOL0     O79758   2.437   5.239   3.189 -0.0984 -0.6484  0.2370
  605MOL0     C79759   2.303   5.205   3.199 -0.7862 -0.0545  0.3887
  605MOL0     C79760   2.216   5.245   3.096  0.4710  0.0782  0.9201
  605MOL0     C79761   2.088   5.192   3.099 -0.6911  1.1187  0.9724
  605MOL0     C79762   2.047   5.110   3.208  0.8241  0.1859  0.7858
  605MOL0     O79763   1.917   5.061   3.210  0.8127  0.0538  0.2936
  605MOL0     C79764   1.869   4.990   3.096 -0.8212 -0.1044 -0.6166
  605MOL0     C79765   1.750   4.906   3.141 -0.2891  1.0266 -0.2655
  605MOL0     C79766   1.661   4.867   3.017  0.1681  0.1173  0.9032
  605MOL0     C79767   1.534   4.781   3.057  0.4173  0.1225 -0.5584
  605MOL0     C79768   1.469   4.723   2.929 -0.3456 -0.1469  0.5015
  605MOL0     C79769   1.536   4.605   2.867 -0.1491  0.1119  0.2188
  605MOL0     C79770   1.467   4.566   2.741  0.1278  0.0136  0.9121
  605MOL0     C79771   1.537   4.449   2.673  0.3407  1.1549 -0.0426
  605MOL0    Cl79772   1.444   4.388   2.529  0.3598  0.0176  0.1297
  605MOL0     C79773   2.141   5.071   3.302 -0.1826 -0.1377  0.1352
  605MOL0     C79774   2.269   5.115   3.299 -0.0117 -0.1311 -0.8613
  605MOL0     O79775   2.441   5.407   3.350  0.7820 -0.2777  0.1866
  605MOL0     C79776   2.706   5.292   3.130  0.7206  0.1485  0.1341
  605MOL0     C79777   2.847   5.281   3.136 -0.0093 -0.7571 -0.6011
  605MOL0     N79778   3.251   5.754   2.781 -0.1639 -0.3275 -0.2477
  605MOL0     N79779   3.221   5.773   2.658  0.3454  0.3596  0.1245
  605MOL0     C79780   3.614   5.005   2.197  1.2774  0.3689  0.4870
  605MOL0     C79781   3.749   4.984   2.232 -0.2579 -0.2598  0.7769
  605MOL0     C79782   4.206   5.079   2.226 -0.0770 -0.4801  0.1419
  605MOL0     C79783   4.249   4.953   2.271  0.4272 -0.0437  0.6271
  605MOL0     C79784   4.387   4.929   2.310  0.2971  0.5549  0.1149
  605MOL0     C79785   4.479   5.032   2.314 -0.5908  0.2084  0.5794
  605MOL0     O79786   4.601   4.995   2.361 -0.3327 -0.7938  0.1691
  605MOL0     C79787   4.709   5.027   2.272  0.2337 -0.4500 -0.3783
  605MOL0     C79788   4.766   5.160   2.308  0.1520 -0.4414 -0.0506
  605MOL0     C79789   4.917   5.144   2.330  0.5804  0.3316  1.0186
  605MOL0     C79790   4.970   5.249   2.420 -0.2059  0.2937 -1.0229
  605MOL0     C79791   5.109   5.226   2.442  0.4589  0.4480  0.7496
  605MOL0     C79792   5.232   5.225   2.445 -0.4640 -0.0253 -0.8180
  605MOL0     C79793   4.432   5.159   2.285  0.1336  0.6623  0.3583
  605MOL0     C79794   4.300   5.180   2.238 -0.4071 -0.7060 -0.2146
  605MOL0     H79795   3.889   5.118   1.947 -0.1024 -1.0182 -0.8445
  605MOL0     H79796   3.655   5.137   1.885  1.9940  0.3457 -0.0528
  605MOL0     H79797   3.389   5.203   2.191 -0.3009 -0.7412  1.1344
  605MOL0     H79798   3.331   5.034   2.191 -0.3883  0.2149  0.3157
  605MOL0     H79799   3.161   5.094   2.025  0.1006 -0.3435 -0.5868
  605MOL0     H79800   3.236   5.239   1.979 -2.8786  0.1813 -0.5627
  605MOL0     H79801   3.145   5.176   2.262 -1.1128 -0.2691 -0.0936
  605MOL0     H79802   3.032   5.228   2.141  0.0084 -1.0920 -0.7932
  605MOL0     H79803   3.268   5.402   2.241  0.0055  0.5423  2.7286
  605MOL0     H79804   3.146   5.427   2.112 -2.5121 -3.2193  0.5528
  605MOL0     H79805   3.079   5.365   2.391 -0.2287 -2.3918 -1.8421
  605MOL0     H79806   2.967   5.433   2.264 -0.1340  4.5243  0.6826
  605MOL0     H79807   3.130   5.642   2.277 -0.0073  0.3715  1.1197
  605MOL0     H79808   3.205   5.582   2.407  0.0440  0.1920 -0.9678
  605MOL0     H79809   2.902   5.644   2.386 -1.0492  3.2090  2.7060
  605MOL0     H79810   2.968   5.538   2.513  1.5542 -0.2542 -0.9626
  605MOL0     H79811   2.924   5.812   2.547  0.3855  0.1759 -1.3584
  605MOL0     H79812   3.079   5.818   2.457  1.4801  1.2981  2.6881
  605MOL0     H79813   2.931   5.686   2.782  0.7415  1.0404  0.1795
  605MOL0     H79814   3.073   5.738   3.043  2.3567  1.9104 -0.0971
  605MOL0     H79815   3.234   5.694   3.035  0.6150 -1.7907  1.1741
  605MOL0     H79816   3.170   5.459   2.978 -2.1882 -0.9483 -0.2461
  605MOL0     H79817   3.005   5.498   2.995  0.9546 -0.8554  0.4426
  605MOL0     H79818   3.240   5.547   3.191 -0.1009 -0.6446  0.3358
  605MOL0     H79819   3.071   5.558   3.240  0.2066 -0.5692 -0.6347
  605MOL0     H79820   3.244   5.325   3.246  0.5226  3.0641  0.3862
  605MOL0     H79821   3.172   5.300   3.092  1.7830  1.9328 -0.5184
  605MOL0     H79822   2.901   5.427   3.438 -0.9841  2.8714 -0.7728
  605MOL0     H79823   2.670   5.440   3.441 -0.4746  0.9212 -1.0758
  605MOL0     H79824   2.247   5.298   3.006 -2.2969  0.9285  0.3499
  605MOL0     H79825   2.028   5.223   3.014  0.7490 -1.5842 -1.1710
  605MOL0     H79826   1.953   4.934   3.053 -0.5151  0.1575 -0.3584
  605MOL0     H79827   1.830   5.062   3.024  1.5190  2.0725  0.1572
  605MOL0     H79828   1.704   4.962   3.223 -1.4171  2.0966 -1.5642
  605MOL0     H79829   1.793   4.816   3.186  1.8334  0.6868 -2.7267
  605MOL0     H79830   1.714   4.804   2.945 -3.6240 -0.3126 -1.8191
  605MOL0     H79831   1.624   4.954   2.963 -2.0175 -0.1812  1.7952
  605MOL0     H79832   1.556   4.695   3.120 -1.5153  1.1121  1.6236
  605MOL0     H79833   1.458   4.840   3.110 -1.1753  2.4938 -4.9263
  605MOL0     H79834   1.457   4.805   2.859  0.2860  1.3729  2.0891
  605MOL0     H79835   1.370   4.688   2.959  0.2630 -0.0494  2.8625
  605MOL0     H79836   1.545   4.524   2.940  3.1948  0.5528  0.4521
  605MOL0     H79837   1.640   4.630   2.844 -0.1990  0.7421  0.6474
  605MOL0     H79838   1.363   4.533   2.755 -0.4282  0.9255 -0.8050
  605MOL0     H79839   1.452   4.646   2.668 -0.7945  1.8113  2.9564
  605MOL0     H79840   1.544   4.360   2.737 -5.5748  0.0598 -0.3473
  605MOL0     H79841   1.638   4.478   2.644  0.5889  0.6525  0.3130
  605MOL0     H79842   2.101   5.007   3.379  0.4261 -1.1507 -0.3794
  605MOL0     H79843   2.338   5.085   3.377 -1.0810  2.4538  1.2218
  605MOL0     H79844   2.650   5.254   3.045  2.2670  1.3212 -1.4936
  605MOL0     H79845   2.897   5.232   3.053  1.2722  1.6752 -1.3560
  605MOL0     H79846   3.530   4.984   2.262  0.9874  2.9200  1.0245
  605MOL0     H79847   3.779   4.932   2.322  1.0096  1.9692  1.7005
  605MOL0     H79848   4.176   4.874   2.260 -0.2159  0.5771  0.3037
  605MOL0     H79849   4.401   4.829   2.347 -0.2333 -0.4211 -2.1447
  605MOL0     H79850   4.678   5.031   2.167 -1.5575 -0.1462  0.1288
  605MOL0     H79851   4.779   4.946   2.294 -1.3631 -0.9659  3.5451
  605MOL0     H79852   4.746   5.238   2.235 -0.0461  0.5332  1.0191
  605MOL0     H79853   4.722   5.188   2.404 -2.0737  1.2174 -1.4801
  605MOL0     H79854   4.974   5.143   2.237 -0.5980  1.4791  0.2542
  605MOL0     H79855   4.944   5.052   2.384  0.2971 -1.8064 -2.2379
  605MOL0     H79856   4.953   5.350   2.379 -0.6144  0.1862 -1.1318
  605MOL0     H79857   4.923   5.239   2.518  0.3980  0.2936 -0.7333
  605MOL0     H79858   5.338   5.213   2.455 -0.6729 -2.5030 -0.7550
  605MOL0     H79859   4.505   5.240   2.292  3.7294 -2.0436 -1.9403
  605MOL0     H79860   4.271   5.279   2.206  0.6031 -0.0714  0.7602
  606MOL0     O79861  10.383   0.490   1.899  0.2858 -0.2423 -0.0930
  606MOL0     C79862  10.405   0.396   1.972  0.3649 -0.0551  0.7784
  606MOL0     O79863  10.313   0.306   2.011 -0.3939 -0.0421  0.0730
  606MOL0     C79864  10.180   0.335   1.982 -1.0379 -0.3883 -0.4060
  606MOL0     C79865  10.091   0.230   1.954  0.2848 -0.7139  1.0947
  606MOL0     C79866   9.951   0.253   1.930 -0.3630  0.9601  0.0722
  606MOL0     C79867   9.907   0.387   1.934  0.2852  0.5332 -0.2623
  606MOL0     O79868   9.773   0.411   1.897 -0.4827  0.1484 -0.3491
  606MOL0     C79869   9.690   0.470   2.002  0.0199 -1.0584  0.0720
  606MOL0     C79870   9.546   0.404   2.010 -0.2903 -0.5630  0.3185
  606MOL0     C79871   9.457   0.420   1.886  0.0835 -0.2536 -0.6201
  606MOL0     C79872   9.493   0.320   1.781  0.1100 -0.3006 -0.1363
  606MOL0     C79873   9.387   0.280   1.671  1.5122 -0.9472 -0.5433
  606MOL0     C79874   9.360   0.401   1.581 -0.3335  0.5246 -0.6067
  606MOL0     C79875   9.262   0.385   1.463 -0.2019 -0.3136  0.2655
  606MOL0     C79876   9.110   0.393   1.507 -1.5741 -0.1861 -0.1082
  606MOL0     N79877   9.015   0.403   1.393 -0.0080 -0.1983 -0.0980
  606MOL0     C79878   8.992   0.524   1.333 -1.0503  0.9785 -1.1346
  606MOL0     C79879   8.892   0.493   1.245  0.2011  0.3355 -0.2868
  606MOL0     C79880   8.812   0.579   1.142 -0.1985  0.2177 -1.4608
  606MOL0     C79881   8.776   0.709   1.213 -1.3238  0.2649 -0.0488
  606MOL0     C79882   8.673   0.677   1.326  0.6984 -0.7214  0.0412
  606MOL0     C79883   8.643   0.780   1.437 -0.4364 -0.0757 -0.0818
  606MOL0     O79884   8.554   0.881   1.380  0.3237 -0.3338 -0.4110
  606MOL0     C79885   8.417   0.858   1.383 -0.5253 -1.0952  0.4189
  606MOL0     C79886   8.336   0.838   1.272  0.1815  1.0891  0.0776
  606MOL0     C79887   8.200   0.829   1.291  0.5592 -0.1944 -0.0960
  606MOL0     C79888   8.133   0.843   1.417 -0.4096 -1.1735 -0.4322
  606MOL0     C79889   7.990   0.845   1.428 -1.1866 -0.8244 -1.3095
  606MOL0     O79890   7.917   0.851   1.303  0.1957  0.4020 -0.9777
  606MOL0     C79891   7.783   0.831   1.289  0.5539 -1.4227  0.7041
  606MOL0     C79892   7.717   0.895   1.186  0.5731  0.6954  0.4008
  606MOL0     C79893   7.579   0.867   1.169  0.2524 -0.7212  0.5919
  606MOL0     C79894   7.502   0.796   1.262 -0.2461 -0.4264  0.2425
  606MOL0     O79895   7.361   0.798   1.262 -0.7700  0.1722 -0.1135
  606MOL0     C79896   7.303   0.666   1.269 -0.6788  0.3467  1.0895
  606MOL0     C79897   7.151   0.678   1.223 -0.0966 -0.7910 -0.5318
  606MOL0     C79898   7.079   0.542   1.186  0.3195 -0.7805 -0.4604
  606MOL0     C79899   7.132   0.501   1.055  0.2975  0.4655 -0.5578
  606MOL0     C79900   7.067   0.377   0.994 -0.1077  0.2088 -1.2279
  606MOL0     C79901   6.933   0.419   0.936  0.5219  0.0772 -0.7907
  606MOL0     C79902   6.829   0.305   0.927  0.5783  0.0812  0.3698
  606MOL0     C79903   6.691   0.358   0.885 -0.9833 -0.0764  0.2276
  606MOL0    Cl79904   6.604   0.428   1.023 -0.2928 -0.3786 -0.2585
  606MOL0     C79905   7.576   0.729   1.359 -0.8549 -0.0688 -0.3032
  606MOL0     C79906   7.718   0.747   1.379 -0.1801  0.3000 -0.0097
  606MOL0     O79907   7.942   0.836   1.540  0.1563 -0.5986 -0.3616
  606MOL0     C79908   8.218   0.861   1.530 -0.2682  0.0178 -0.1308
  606MOL0     C79909   8.356   0.860   1.512 -0.4177  0.0316  0.1954
  606MOL0     N79910   8.857   0.358   1.265 -0.0018  0.2794 -0.4155
  606MOL0     N79911   8.941   0.300   1.342  0.4719  0.2692  0.2869
  606MOL0     C79912   9.996   0.488   1.965 -0.2467  0.7110  0.2459
  606MOL0     C79913  10.126   0.460   1.993  0.2909 -0.0532 -0.2149
  606MOL0     C79914  10.545   0.366   1.993  0.1612 -0.3406 -0.3525
  606MOL0     C79915  10.579   0.314   2.115  0.2689 -0.0682  0.0235
  606MOL0     C79916  10.704   0.281   2.156  0.3336 -0.2113 -0.0677
  606MOL0     C79917  10.802   0.294   2.056 -0.3010 -0.2382  0.4931
  606MOL0     O79918  10.926   0.238   2.082 -0.3695 -0.1507 -0.1471
  606MOL0     C79919  11.037   0.253   1.992 -0.5711 -0.1942 -0.2800
  606MOL0     C79920  11.177   0.211   2.048 -0.0868  0.3505 -0.8769
  606MOL0     C79921  11.292   0.169   1.955  0.4593 -0.4333  0.5365
  606MOL0     C79922  11.240   0.044   1.862 -0.5775  0.2923  0.6353
  606MOL0     C79923  11.308   0.038   1.732  0.3275  0.2181 -1.0626
  606MOL0     C79924  11.348   0.020   1.617 -0.0840 -0.3897 -0.3829
  606MOL0     C79925  10.777   0.366   1.937 -0.7689 -0.1311  0.6987
  606MOL0     C79926  10.646   0.396   1.894 -0.7469  0.0949  0.5574
  606MOL0     H79927  10.133   0.131   1.964 -1.7635 -1.5679  1.6823
  606MOL0     H79928   9.869   0.182   1.922 -1.1729  1.6918  1.5286
  606MOL0     H79929   9.686   0.577   1.980 -1.0159 -0.7194  1.7510
  606MOL0     H79930   9.733   0.472   2.102  0.1954  1.4753  0.0140
  606MOL0     H79931   9.497   0.447   2.098 -0.1182  1.0190 -0.3128
  606MOL0     H79932   9.558   0.299   2.037  1.3275 -0.0030  1.9902
  606MOL0     H79933   9.465   0.525   1.857  0.7986  0.4166  1.7772
  606MOL0     H79934   9.358   0.403   1.930  0.5765 -1.4988  0.0479
  606MOL0     H79935   9.582   0.351   1.726  0.6324 -0.6040  0.5305
  606MOL0     H79936   9.509   0.230   1.840 -0.1444 -0.9905 -1.0966
  606MOL0     H79937   9.294   0.255   1.723  1.4046 -0.0501 -0.3002
  606MOL0     H79938   9.408   0.193   1.607 -0.1442 -1.4974 -0.3786
  606MOL0     H79939   9.456   0.433   1.539  1.1849 -0.4108  1.9495
  606MOL0     H79940   9.322   0.479   1.647 -0.4976  0.2562 -0.3824
  606MOL0     H79941   9.286   0.453   1.381 -3.4905 -2.9165 -3.1863
  606MOL0     H79942   9.284   0.290   1.415  3.5110  1.9128 -3.1133
  606MOL0     H79943   9.104   0.469   1.586  0.5847  0.8886 -0.9053
  606MOL0     H79944   9.100   0.293   1.551 -2.6457 -0.2243 -0.4210
  606MOL0     H79945   9.033   0.620   1.362  2.6129 -1.3483  2.4628
  606MOL0     H79946   8.719   0.529   1.117 -0.5799 -0.0174  0.2739
  606MOL0     H79947   8.881   0.600   1.059  1.6024 -1.5361 -0.5152
  606MOL0     H79948   8.733   0.770   1.133 -1.2495 -1.8797 -1.8197
  606MOL0     H79949   8.865   0.760   1.250 -0.5672  0.8718 -2.5354
  606MOL0     H79950   8.579   0.661   1.272  0.4548 -1.4837  0.6739
  606MOL0     H79951   8.699   0.582   1.374 -0.1035 -0.6410  0.6536
  606MOL0     H79952   8.733   0.824   1.480 -0.3564 -0.5834  0.2836
  606MOL0     H79953   8.591   0.732   1.521 -1.2389 -1.1334 -1.1518
  606MOL0     H79954   8.380   0.826   1.173 -0.9673 -1.2722 -0.2167
  606MOL0     H79955   8.139   0.821   1.202  0.5495 -0.9815 -0.0250
  606MOL0     H79956   7.760   0.966   1.117  3.4985  1.7356  3.0469
  606MOL0     H79957   7.532   0.928   1.092 -3.7919 -0.7289  2.8311
  606MOL0     H79958   7.305   0.642   1.376  0.3014  1.5835  1.3718
  606MOL0     H79959   7.367   0.603   1.206  0.5248  0.6700  1.9558
  606MOL0     H79960   7.154   0.744   1.136 -1.8196 -0.6449 -0.5080
  606MOL0     H79961   7.089   0.720   1.302  3.2369  2.4181  0.6446
  606MOL0     H79962   6.970   0.548   1.187  0.2489 -1.6852 -1.3113
  606MOL0     H79963   7.117   0.469   1.259 -2.2726 -1.5716  0.1965
  606MOL0     H79964   7.132   0.587   0.987 -2.2260 -0.1417 -1.4541
  606MOL0     H79965   7.238   0.476   1.062  0.4906  1.0441 -1.3115
  606MOL0     H79966   7.062   0.305   1.076  0.2486  0.6887 -0.7756
  606MOL0     H79967   7.129   0.335   0.914  0.4474  0.8625 -1.1492
  606MOL0     H79968   6.943   0.485   0.849  2.2791 -0.7675 -1.2753
  606MOL0     H79969   6.885   0.487   1.007  0.7606 -0.5597 -0.0120
  606MOL0     H79970   6.857   0.223   0.861 -2.2806 -0.1051 -0.7407
  606MOL0     H79971   6.820   0.270   1.031 -0.5669  3.3653  1.5224
  606MOL0     H79972   6.632   0.276   0.844  1.4894 -0.6580 -2.5151
  606MOL0     H79973   6.721   0.428   0.806  1.9778 -0.8743  0.5125
  606MOL0     H79974   7.526   0.666   1.431 -0.1451 -0.0813  0.1855
  606MOL0     H79975   7.768   0.688   1.454  1.8905  1.1237 -0.6763
  606MOL0     H79976   8.191   0.862   1.635  2.7551 -1.3075  0.7671
  606MOL0     H79977   8.433   0.867   1.589 -1.4486 -0.1286  1.2637
  606MOL0     H79978   9.951   0.585   1.951 -3.9736 -1.1184 -1.9271
  606MOL0     H79979  10.172   0.550   2.030 -0.2937 -0.5249  1.7712
  606MOL0     H79980  10.491   0.290   2.175  1.5073  0.1874  2.0445
  606MOL0     H79981  10.719   0.224   2.247  0.2541 -1.6668 -0.9353
  606MOL0     H79982  11.058   0.358   1.967  1.4513 -0.0644  1.6211
  606MOL0     H79983  11.017   0.200   1.899  1.5210 -0.6770 -0.5116
  606MOL0     H79984  11.218   0.289   2.112 -0.3217 -0.5084  0.3558
  606MOL0     H79985  11.167   0.131   2.121  3.3536  0.9251  0.4031
  606MOL0     H79986  11.386   0.143   2.003  1.6693 -0.0028 -1.5069
  606MOL0     H79987  11.300   0.255   1.888 -0.5807 -2.0662 -1.8341
  606MOL0     H79988  11.275  -0.044   1.917  1.5340  0.9963  0.4993
  606MOL0     H79989  11.135   0.054   1.835 -0.1620 -0.7274 -1.5304
  606MOL0     H79990  11.399   0.006   1.524 -0.6686 -2.0546 -0.4967
  606MOL0     H79991  10.856   0.403   1.873 -0.4026  2.1886  2.3708
  606MOL0     H79992  10.629   0.447   1.800 -1.9222 -3.6922 -1.4866
  607MOL0     O79993   3.311   6.035   2.051 -0.0454 -0.0067  0.3281
  607MOL0     C79994   3.397   6.098   2.113 -0.3849  0.0564 -0.0515
  607MOL0     O79995   3.365   6.210   2.186 -0.0881 -0.6468 -0.4724
  607MOL0     C79996   3.250   6.285   2.188 -0.3030 -0.2221  0.6227
  607MOL0     C79997   3.220   6.371   2.280  0.0206 -0.2139 -0.6487
  607MOL0     C79998   3.115   6.463   2.274  0.2821  0.4941 -0.0335
  607MOL0     C79999   3.029   6.464   2.166  0.1437  0.6476 -0.2397
  607MOL0     O80000   2.945   6.570   2.148  0.2167  0.2051  0.0626
  607MOL0     C80001   3.007   6.688   2.099 -0.6348  0.8633  0.7735
  607MOL0     C80002   3.095   6.773   2.198  1.3704  0.9161 -0.3865
  607MOL0     C80003   2.988   6.825   2.302  0.2044  0.2062  0.9087
  607MOL0     C80004   2.891   6.927   2.246 -1.0358  0.2461 -0.2704
  607MOL0     C80005   2.742   6.886   2.230 -0.0539  0.0556  0.3487
  607MOL0     C80006   2.670   7.010   2.178  0.7843 -0.4860  0.8360
  607MOL0     C80007   2.518   6.991   2.143  0.0418  0.5469 -0.8730
  607MOL0     C80008   2.438   6.934   2.271  0.1864  0.2800  0.0614
  607MOL0     N80009   2.443   7.033   2.381 -0.2088 -0.7340 -0.1457
  607MOL0     C80010   2.475   7.007   2.509  0.6670  0.7756 -1.0660
  607MOL0     C80011   2.412   7.099   2.582  0.1836 -0.3702  0.1429
  607MOL0     C80012   2.387   7.112   2.733 -0.2649  0.7586  0.6611
  607MOL0     C80013   2.408   7.259   2.773 -0.7566  0.0372  0.0653
  607MOL0     C80014   2.539   7.320   2.719  0.4408 -0.3934  0.7460
  607MOL0     C80015   2.582   7.448   2.796 -0.2418  0.4699  0.4908
  607MOL0     O80016   2.571   7.435   2.936  0.2541  0.1062  0.0583
  607MOL0     C80017   2.667   7.361   2.997 -0.0897 -0.1095  1.1417
  607MOL0     C80018   2.651   7.336   3.130  0.1006  0.1195 -0.4064
  607MOL0     C80019   2.748   7.257   3.200 -0.0796  0.7897 -0.6932
  607MOL0     C80020   2.872   7.208   3.149  1.4070  0.0390  0.0309
  607MOL0     C80021   2.973   7.136   3.226 -0.3742 -0.5176  0.5196
  607MOL0     O80022   3.102   7.123   3.172 -0.6585 -0.1267  0.0414
  607MOL0     C80023   3.194   7.044   3.228 -0.3213  0.2234 -0.2845
  607MOL0     C80024   3.232   7.063   3.359  0.1180  0.2119 -0.1907
  607MOL0     C80025   3.326   6.980   3.419  0.8935 -0.7279 -0.0872
  607MOL0     C80026   3.389   6.877   3.351 -0.8126 -0.0550  0.5951
  607MOL0     O80027   3.471   6.807   3.422 -0.8028 -0.0999 -0.4385
  607MOL0     C80028   3.575   6.735   3.352  0.1030  0.0525  0.0285
  607MOL0     C80029   3.673   6.683   3.458  0.2324 -0.0319  1.0344
  607MOL0     C80030   3.757   6.799   3.500 -0.6675  0.1219  0.0422
  607MOL0     C80031   3.831   6.752   3.628 -0.2792  0.0555  0.4932
  607MOL0     C80032   3.920   6.869   3.685  0.0835  0.1136  1.4323
  607MOL0     C80033   3.970   6.846   3.818 -0.4414  0.0241 -0.1818
  607MOL0     C80034   4.068   6.734   3.837  0.3848 -0.2160  0.5698
  607MOL0     C80035   4.088   6.704   3.994 -0.0347  0.4004  0.5337
  607MOL0    Cl80036   4.156   6.857   4.067 -0.1520  0.3189  0.1206
  607MOL0     C80037   3.334   6.854   3.223 -1.0733  0.0887 -0.3270
  607MOL0     C80038   3.240   6.935   3.164 -0.1711 -0.2092  0.8799
  607MOL0     O80039   2.943   7.103   3.342 -0.7204 -0.3601  0.4581
  607MOL0     C80040   2.890   7.234   3.007  0.7348 -0.0679  0.2295
  607MOL0     C80041   2.793   7.314   2.939  0.1429 -0.2617 -0.2607
  607MOL0     N80042   2.357   7.187   2.497  0.4727 -0.2719  0.3884
  607MOL0     N80043   2.377   7.151   2.378 -0.9667  0.5727  0.6666
  607MOL0     C80044   3.061   6.376   2.050  0.6164 -0.4078 -0.7689
  607MOL0     C80045   3.172   6.285   2.067  0.4494 -0.6044 -0.3045
  607MOL0     C80046   3.533   6.045   2.110 -0.1005 -0.3259 -0.1333
  607MOL0     C80047   3.641   6.107   2.166  0.4633 -0.0237  0.2753
  607MOL0     C80048   3.771   6.055   2.158  0.0585  0.5621 -0.2669
  607MOL0     C80049   3.791   5.953   2.067  0.2879  0.9735  0.4703
  607MOL0     O80050   3.919   5.907   2.036  0.2415  0.3956  0.2230
  607MOL0     C80051   4.037   5.974   2.092 -0.4367  0.3061  0.5011
  607MOL0     C80052   4.157   5.918   2.028  0.0195  0.1748 -0.2607
  607MOL0     C80053   4.176   5.771   2.077  0.0116 -0.1522  0.0347
  607MOL0     C80054   4.299   5.703   2.009  1.2133 -0.1441  0.3328
  607MOL0     C80055   4.432   5.742   2.069  0.3319 -0.0759  0.2237
  607MOL0     C80056   4.542   5.765   2.118 -0.5185 -0.1989 -0.2285
  607MOL0     C80057   3.684   5.870   2.026  0.0985 -0.7719 -0.1557
  607MOL0     C80058   3.555   5.922   2.045  0.6257 -0.0466  1.0663
  607MOL0     H80059   3.287   6.375   2.365 -1.0565 -0.3705  0.2285
  607MOL0     H80060   3.111   6.531   2.359 -1.2638  1.4629 -0.8406
  607MOL0     H80061   2.923   6.747   2.060 -0.2099  1.7622  1.2060
  607MOL0     H80062   3.067   6.652   2.015  1.4430 -0.6396  2.8123
  607MOL0     H80063   3.150   6.849   2.143  0.5461  0.7488 -1.5009
  607MOL0     H80064   3.163   6.715   2.261  0.8164  0.9316  0.2414
  607MOL0     H80065   3.043   6.877   2.381  0.6476  1.7038 -0.3348
  607MOL0     H80066   2.936   6.742   2.350  1.1017 -0.9768 -0.0998
  607MOL0     H80067   2.892   7.006   2.322  0.3549 -2.7802  3.1549
  607MOL0     H80068   2.921   6.976   2.153 -0.4041  0.2063 -0.0974
  607MOL0     H80069   2.699   6.859   2.327 -0.8895 -1.5001 -0.4146
  607MOL0     H80070   2.722   6.811   2.152 -2.3192  0.2238  0.6770
  607MOL0     H80071   2.731   7.049   2.095 -1.2203  0.2706 -0.3547
  607MOL0     H80072   2.666   7.091   2.251  0.1353  0.5694 -0.3116
  607MOL0     H80073   2.469   7.085   2.115  1.7455  1.0550 -2.2986
  607MOL0     H80074   2.501   6.921   2.061 -1.6939 -1.9240  1.4263
  607MOL0     H80075   2.473   6.832   2.292  3.3836  0.0062 -4.8956
  607MOL0     H80076   2.332   6.927   2.244  0.0354 -0.4404  0.7894
  607MOL0     H80077   2.531   6.918   2.538 -0.4569  0.6692  1.0171
  607MOL0     H80078   2.443   7.040   2.794  0.6204  0.8275 -0.0490
  607MOL0     H80079   2.282   7.083   2.746 -0.0540  0.1595  1.1182
  607MOL0     H80080   2.424   7.259   2.881  1.7322 -0.2134 -0.2365
  607MOL0     H80081   2.332   7.333   2.748 -0.4081 -0.6477 -3.6647
  607MOL0     H80082   2.619   7.248   2.740  0.9246 -0.2681 -0.6066
  607MOL0     H80083   2.523   7.343   2.614 -2.0429  0.7646  1.3152
  607MOL0     H80084   2.522   7.534   2.763 -0.0771  0.1728 -0.6230
  607MOL0     H80085   2.685   7.462   2.764  0.4139 -1.3162  1.6796
  607MOL0     H80086   2.562   7.388   3.164 -0.2816 -0.6024 -0.2702
  607MOL0     H80087   2.733   7.248   3.307 -0.0218  0.6775 -0.6942
  607MOL0     H80088   3.207   7.150   3.419  0.2429  0.2232 -0.1536
  607MOL0     H80089   3.356   6.990   3.522  0.2514  0.0531  0.0412
  607MOL0     H80090   3.614   6.802   3.275 -0.8838  0.8337  0.1864
  607MOL0     H80091   3.520   6.650   3.310 -0.9150  1.2286 -1.1097
  607MOL0     H80092   3.740   6.614   3.405 -0.5253  1.9978 -2.9988
  607MOL0     H80093   3.620   6.641   3.544 -0.2299  2.5647  2.0832
  607MOL0     H80094   3.702   6.893   3.513  0.6771  1.2930 -2.1291
  607MOL0     H80095   3.827   6.817   3.417 -0.2083 -0.5132  0.2843
  607MOL0     H80096   3.752   6.725   3.698  1.3210  0.2659  2.4760
  607MOL0     H80097   3.894   6.665   3.605  0.1928  0.4865  0.1339
  607MOL0     H80098   3.861   6.960   3.685  0.4967  0.3991 -0.0565
  607MOL0     H80099   4.006   6.888   3.620 -1.4971  3.8455  0.2017
  607MOL0     H80100   3.878   6.828   3.874  0.0868 -0.2973  0.5926
  607MOL0     H80101   4.022   6.939   3.841 -0.9518  0.5224 -0.9819
  607MOL0     H80102   4.036   6.640   3.790  0.0756  0.5186 -0.7223
  607MOL0     H80103   4.162   6.763   3.790  0.6713 -3.7012 -1.3962
  607MOL0     H80104   4.160   6.624   4.009 -0.9125 -0.1422  2.0678
  607MOL0     H80105   3.999   6.677   4.052 -1.1845  3.7301  0.5221
  607MOL0     H80106   3.388   6.783   3.161 -1.1816 -0.9037  0.6857
  607MOL0     H80107   3.214   6.920   3.060 -2.6412  1.9439  1.0708
  607MOL0     H80108   2.983   7.203   2.960  0.9878 -0.1447  0.7699
  607MOL0     H80109   2.810   7.322   2.832 -0.9420 -0.0863 -0.4318
  607MOL0     H80110   2.996   6.389   1.964  0.4815  5.4656 -0.1942
  607MOL0     H80111   3.203   6.231   1.978  0.2396  1.0188 -1.4234
  607MOL0     H80112   3.639   6.199   2.223  2.5103 -0.2524  0.8049
  607MOL0     H80113   3.851   6.107   2.209  0.2231 -1.2874  1.4983
  607MOL0     H80114   4.051   5.961   2.200  0.8565 -3.0921  0.0398
  607MOL0     H80115   4.029   6.079   2.062 -0.2788 -0.0738 -0.9637
  607MOL0     H80116   4.156   5.918   1.918  5.3373 -3.5144 -0.6870
  607MOL0     H80117   4.240   5.983   2.058 -1.9253  2.2773  0.8391
  607MOL0     H80118   4.084   5.718   2.052 -0.7413  1.4831 -0.7938
  607MOL0     H80119   4.194   5.774   2.185  2.9728  0.1794 -0.3699
  607MOL0     H80120   4.284   5.595   2.020  0.2237 -0.0973 -0.4166
  607MOL0     H80121   4.297   5.732   1.904 -2.3106 -0.5316  0.1526
  607MOL0     H80122   4.636   5.783   2.166  0.5614  0.3548 -2.4521
  607MOL0     H80123   3.708   5.777   1.976  3.2917 -0.9425  1.4167
  607MOL0     H80124   3.471   5.864   2.010  2.5290 -2.1155 -0.4218
  608MOL0     O80125   1.463   2.182   6.382  0.1102 -0.7872  0.2882
  608MOL0     C80126   1.404   2.235   6.288 -0.0600  0.0211 -0.1772
  608MOL0     O80127   1.462   2.261   6.162  0.6451 -0.5146  0.1787
  608MOL0     C80128   1.591   2.231   6.139 -0.3589  0.7166  0.5130
  608MOL0     C80129   1.628   2.102   6.108  0.2694  0.2889  0.2673
  608MOL0     C80130   1.760   2.075   6.066  0.2717  0.1029 -0.0660
  608MOL0     C80131   1.861   2.166   6.075  0.1512 -0.2673  0.6988
  608MOL0     O80132   1.992   2.149   6.030 -0.2767 -0.5638 -0.6453
  608MOL0     C80133   2.050   2.028   6.085  0.0771 -0.8762  0.3840
  608MOL0     C80134   2.205   2.042   6.095  1.3526 -0.8957  0.8155
  608MOL0     C80135   2.261   1.910   6.141 -1.0515  0.8449 -0.0154
  608MOL0     C80136   2.401   1.942   6.194  0.8991  0.1191 -0.3630
  608MOL0     C80137   2.502   1.838   6.163  0.1702  0.5073 -0.7779
  608MOL0     C80138   2.636   1.874   6.220 -0.4916  0.7725 -0.3824
  608MOL0     C80139   2.744   1.914   6.121 -0.0064 -0.2289 -0.7899
  608MOL0     C80140   2.792   1.818   6.025  0.2439  0.6076  0.4682
  608MOL0     N80141   2.936   1.823   6.008  0.0387 -0.5610  0.0870
  608MOL0     C80142   3.000   1.786   5.894  0.5073  0.2017  0.1502
  608MOL0     C80143   3.132   1.805   5.922 -0.4042 -0.0388 -0.5552
  608MOL0     C80144   3.248   1.777   5.835 -0.0919 -0.8221 -0.1053
  608MOL0     C80145   3.208   1.755   5.693  0.9140  0.0036 -0.4182
  608MOL0     C80146   3.320   1.690   5.609  0.2379 -0.3642  0.8263
  608MOL0     C80147   3.289   1.648   5.466 -0.5756  0.5002  0.4157
  608MOL0     O80148   3.397   1.564   5.423 -0.5824  0.1149  0.2110
  608MOL0     C80149   3.385   1.478   5.318 -0.6760  0.4159 -0.0561
  608MOL0     C80150   3.275   1.472   5.240 -0.7346 -0.7216 -0.4446
  608MOL0     C80151   3.266   1.373   5.139 -0.8278 -0.3910 -0.9345
  608MOL0     C80152   3.373   1.276   5.127 -0.1936 -0.1371  0.8338
  608MOL0     C80153   3.342   1.165   5.028  1.1806  0.5355  0.7118
  608MOL0     O80154   3.218   1.168   4.963 -0.4475 -0.4006  0.0265
  608MOL0     C80155   3.227   1.112   4.838  0.1720 -0.4639 -0.0776
  608MOL0     C80156   3.138   1.010   4.818  0.3118  0.2348 -0.3680
  608MOL0     C80157   3.138   0.920   4.711 -0.0885 -0.0758  0.0424
  608MOL0     C80158   3.233   0.940   4.610  0.0722 -0.5817 -0.2842
  608MOL0     O80159   3.220   0.878   4.496  0.1289  0.1351 -0.4012
  608MOL0     C80160   3.210   0.738   4.514 -0.7796  0.5090 -0.3002
  608MOL0     C80161   3.233   0.668   4.379  0.1079  0.5801 -0.4285
  608MOL0     C80162   3.129   0.710   4.267 -0.5926 -0.2936 -0.1274
  608MOL0     C80163   2.992   0.634   4.264 -0.0585 -0.5691  0.3857
  608MOL0     C80164   3.002   0.502   4.195 -0.8304  0.2889  1.4148
  608MOL0     C80165   3.095   0.389   4.236  0.1992 -0.4431 -0.4592
  608MOL0     C80166   3.087   0.272   4.138 -0.2493 -0.1266  0.6751
  608MOL0     C80167   3.047   0.142   4.204 -0.5535  0.0542 -0.5825
  608MOL0    Cl80168   3.150   0.113   4.340 -0.1320 -0.1682 -0.7301
  608MOL0     C80169   3.325   1.047   4.623 -0.2615 -0.6981  0.1155
  608MOL0     C80170   3.322   1.133   4.738  0.5994 -0.0236 -0.4304
  608MOL0     O80171   3.417   1.068   5.012 -0.7411 -0.6847  0.1025
  608MOL0     C80172   3.479   1.279   5.211  0.8566 -0.3896 -0.2997
  608MOL0     C80173   3.482   1.374   5.308  0.0203 -0.4244 -0.5527
  608MOL0     N80174   3.153   1.845   6.053  0.0150 -0.5753 -0.1064
  608MOL0     N80175   3.029   1.850   6.105 -0.2258  0.7176 -0.5348
  608MOL0     C80176   1.832   2.295   6.119 -0.3777  0.2428  0.0648
  608MOL0     C80177   1.696   2.323   6.153 -0.6144 -0.3202 -0.4035
  608MOL0     C80178   1.261   2.279   6.313 -0.7230  1.1115  0.1452
  608MOL0     C80179   1.205   2.385   6.244  0.1264  0.0807  0.5991
  608MOL0     C80180   1.072   2.426   6.260  1.0324 -0.1138  0.2737
  608MOL0     C80181   0.991   2.364   6.355 -0.2899 -1.1191  0.0488
  608MOL0     O80182   0.870   2.425   6.379 -0.1359  0.2971  0.1127
  608MOL0     C80183   0.817   2.407   6.505  0.5590  0.2057  0.3785
  608MOL0     C80184   0.676   2.479   6.504  0.0711 -0.4549  0.2468
  608MOL0     C80185   0.607   2.485   6.646 -0.3044 -0.3793  0.8144
  608MOL0     C80186   0.470   2.546   6.629  0.0799 -1.7652 -0.0390
  608MOL0     C80187   0.360   2.473   6.569  0.9923 -0.2476  0.0840
  608MOL0     C80188   0.270   2.414   6.516  0.1195 -0.5731  0.2633
  608MOL0     C80189   1.050   2.266   6.437  0.5421  1.0867  0.0319
  608MOL0     C80190   1.183   2.217   6.415 -0.4599  1.0845 -0.3811
  608MOL0     H80191   1.550   2.028   6.098  0.4675 -0.0514  1.1204
  608MOL0     H80192   1.771   1.970   6.039 -0.8239 -0.0217 -0.1059
  608MOL0     H80193   2.012   1.942   6.031 -1.7616 -0.0889  0.3530
  608MOL0     H80194   2.019   2.020   6.190  0.4311  1.1296  0.6857
  608MOL0     H80195   2.234   2.129   6.155 -0.5294  0.5444 -0.2650
  608MOL0     H80196   2.240   2.056   5.993  0.7542  0.6582  0.7892
  608MOL0     H80197   2.265   1.834   6.063  1.4171  0.7460  0.1471
  608MOL0     H80198   2.209   1.865   6.227  0.5145  1.3026  1.2253
  608MOL0     H80199   2.434   2.036   6.150  0.1901  0.0176 -1.1287
  608MOL0     H80200   2.380   1.954   6.301 -1.8497 -2.3162 -0.5083
  608MOL0     H80201   2.512   1.818   6.055  0.5954  2.1062 -1.0562
  608MOL0     H80202   2.473   1.743   6.208  0.9006  1.2424  1.3655
  608MOL0     H80203   2.676   1.792   6.281 -3.4652 -0.4324  0.1675
  608MOL0     H80204   2.619   1.958   6.288 -0.6663  1.8413 -1.7017
  608MOL0     H80205   2.715   2.001   6.061 -0.1714 -0.5059 -1.1190
  608MOL0     H80206   2.815   1.939   6.200 -4.0925  0.6425  2.9907
  608MOL0     H80207   2.735   1.839   5.934  0.1635  4.3183  1.2427
  608MOL0     H80208   2.762   1.715   6.046 -0.7344 -0.6286 -5.1895
  608MOL0     H80209   2.954   1.758   5.800  0.0008  0.2021  0.3999
  608MOL0     H80210   3.305   1.692   5.874  5.6004  1.6289 -1.9935
  608MOL0     H80211   3.316   1.862   5.830 -2.2822  1.1240  1.2717
  608MOL0     H80212   3.170   1.851   5.655 -0.0238 -1.7625 -4.4658
  608MOL0     H80213   3.123   1.688   5.682 -1.1250  2.6920 -2.5337
  608MOL0     H80214   3.408   1.755   5.599  1.0276 -1.6149 -0.9157
  608MOL0     H80215   3.364   1.606   5.665  1.1471 -0.2112  0.3672
  608MOL0     H80216   3.296   1.738   5.404 -2.8406  0.2048 -0.3465
  608MOL0     H80217   3.188   1.607   5.459  0.4738 -1.9486 -3.3524
  608MOL0     H80218   3.190   1.539   5.236 -1.0204 -0.9291  1.3270
  608MOL0     H80219   3.177   1.372   5.078 -0.4250 -0.4447 -1.5327
  608MOL0     H80220   3.065   1.003   4.897  1.1671 -0.2903  0.3969
  608MOL0     H80221   3.057   0.850   4.695  0.2625 -0.4119 -0.3023
  608MOL0     H80222   3.114   0.692   4.538 -0.1186 -0.5219  0.4688
  608MOL0     H80223   3.283   0.697   4.584 -1.2618  0.7448  0.3435
  608MOL0     H80224   3.244   0.559   4.387  3.6004  0.8509  0.0153
  608MOL0     H80225   3.331   0.707   4.350  1.4959 -1.8819  0.6246
  608MOL0     H80226   3.165   0.673   4.170 -1.8092 -0.3568 -0.5727
  608MOL0     H80227   3.122   0.819   4.274  2.0076 -0.1053  0.5147
  608MOL0     H80228   2.937   0.627   4.358 -1.5818  2.6470 -0.1275
  608MOL0     H80229   2.926   0.699   4.205 -1.3483 -0.4843  1.8509
  608MOL0     H80230   3.021   0.516   4.088 -2.2217 -2.7086  0.6912
  608MOL0     H80231   2.900   0.464   4.202  0.1911 -2.7674  1.2247
  608MOL0     H80232   3.083   0.359   4.341  0.0145 -2.6773 -1.0685
  608MOL0     H80233   3.202   0.410   4.227  0.6357 -2.5317 -0.5927
  608MOL0     H80234   3.011   0.288   4.061 -1.5468 -1.6272  1.5843
  608MOL0     H80235   3.182   0.256   4.086  0.2775 -2.0940  2.1216
  608MOL0     H80236   3.048   0.071   4.121  0.2628  1.5011 -1.8632
  608MOL0     H80237   2.946   0.154   4.245  0.2791 -1.2706  2.1019
  608MOL0     H80238   3.400   1.069   4.548 -1.2254  3.2544  0.0798
  608MOL0     H80239   3.400   1.207   4.753  2.1766 -1.6466 -0.2753
  608MOL0     H80240   3.565   1.215   5.194  0.8682 -0.1543 -1.1783
  608MOL0     H80241   3.564   1.374   5.379  0.6106 -1.2308 -1.2169
  608MOL0     H80242   1.901   2.379   6.123 -1.8174  1.4180  1.4767
  608MOL0     H80243   1.680   2.429   6.172  0.1951 -0.1720 -0.5184
  608MOL0     H80244   1.262   2.437   6.167 -1.5503  0.8698 -0.1748
  608MOL0     H80245   1.039   2.509   6.198  1.1338 -1.2374 -1.3572
  608MOL0     H80246   0.867   2.458   6.588 -3.6700  2.6090  1.8012
  608MOL0     H80247   0.790   2.304   6.529 -5.4466  1.0135 -1.1614
  608MOL0     H80248   0.686   2.579   6.460  1.8280 -1.0641 -0.8463
  608MOL0     H80249   0.611   2.425   6.435  2.6326  0.2964 -2.9906
  608MOL0     H80250   0.670   2.556   6.701 -2.3650  1.1695  1.2977
  608MOL0     H80251   0.601   2.387   6.694  1.8536  0.3334  2.7333
  608MOL0     H80252   0.435   2.587   6.725  0.8004  1.3567 -1.0072
  608MOL0     H80253   0.480   2.632   6.563 -3.4319 -0.9480  0.2598
  608MOL0     H80254   0.193   2.361   6.465 -2.9711  4.3319 -0.7907
  608MOL0     H80255   1.000   2.210   6.516  1.0364 -0.1995 -0.5438
  608MOL0     H80256   1.210   2.133   6.478  0.0543  1.3899 -0.1907
  609MOL0     O80257   9.446   8.237  10.573  1.0044 -0.3708  0.1935
  609MOL0     C80258   9.471   8.320  10.485 -0.1713  0.7276  0.0368
  609MOL0     O80259   9.592   8.391  10.471  0.0129  0.9160 -0.3338
  609MOL0     C80260   9.685   8.390  10.556  0.3670 -0.1472 -0.6499
  609MOL0     C80261   9.660   8.438  10.684  0.4681  0.5709 -0.6680
  609MOL0     C80262   9.762   8.442  10.776  0.3552  0.3524 -0.6291
  609MOL0     C80263   9.896   8.411  10.749 -0.4443 -0.5329 -0.2915
  609MOL0     O80264   9.988   8.440  10.850 -0.1212 -0.3752  0.2634
  609MOL0     C80265  10.104   8.349  10.860  0.0733 -0.0535  0.5575
  609MOL0     C80266  10.214   8.418  10.942 -0.1359  0.2060  0.2851
  609MOL0     C80267  10.258   8.546  10.873 -0.3635  1.1135 -0.5706
  609MOL0     C80268  10.381   8.599  10.944 -0.3522  0.3433 -0.6654
  609MOL0     C80269  10.457   8.710  10.872 -0.6496  0.5930  0.7908
  609MOL0     C80270  10.520   8.668  10.740  0.4008 -0.9588  0.0839
  609MOL0     C80271  10.617   8.553  10.745 -0.4947  0.7091  0.8424
  609MOL0     C80272  10.721   8.568  10.630  0.2567  0.4622  0.0113
  609MOL0     N80273  10.674   8.541  10.491 -0.9340  0.6314  0.3673
  609MOL0     C80274  10.604   8.624  10.409  0.8750  0.2524 -0.5463
  609MOL0     C80275  10.583   8.542  10.304  0.3504 -0.4421  0.3304
  609MOL0     C80276  10.514   8.590  10.179  0.5431 -0.1483  0.0772
  609MOL0     C80277  10.596   8.670  10.086 -0.2613  0.2774 -0.2129
  609MOL0     C80278  10.527   8.708   9.960  0.5611 -0.0569  1.1519
  609MOL0     C80279  10.511   8.590   9.860  0.0485 -0.1324  0.7194
  609MOL0     O80280  10.426   8.622   9.750  0.4158 -0.2280 -0.3709
  609MOL0     C80281  10.291   8.631   9.780  0.5407 -0.0347  0.6486
  609MOL0     C80282  10.230   8.758   9.768 -0.2524  0.6827  0.0630
  609MOL0     C80283  10.093   8.791   9.807 -0.6143  0.3899  0.3822
  609MOL0     C80284  10.012   8.680   9.852 -0.0581 -0.3032  0.7065
  609MOL0     C80285   9.872   8.701   9.888  0.1562 -0.9867  0.1966
  609MOL0     O80286   9.813   8.815   9.865  0.3861 -0.3735 -0.4597
  609MOL0     C80287   9.673   8.813   9.879 -0.1503  0.0957 -0.0698
  609MOL0     C80288   9.586   8.838   9.775 -0.1103  0.7241 -0.1286
  609MOL0     C80289   9.458   8.881   9.802 -0.1665  0.8425 -0.2582
  609MOL0     C80290   9.408   8.894   9.935 -0.1652 -0.0596 -0.2870
  609MOL0     O80291   9.276   8.926   9.970  0.4188  0.5163 -0.1737
  609MOL0     C80292   9.195   8.977   9.863 -0.1839  0.4855  1.1017
  609MOL0     C80293   9.071   9.066   9.897  0.3636 -0.0647 -0.3650
  609MOL0     C80294   9.008   9.109   9.771 -0.1084  0.5032  0.7271
  609MOL0     C80295   8.885   9.182   9.803  0.0805  0.3091 -0.0979
  609MOL0     C80296   8.800   9.224   9.676  0.5822 -0.0385  0.6359
  609MOL0     C80297   8.748   9.101   9.583  0.3983  0.4465 -0.1979
  609MOL0     C80298   8.706   9.131   9.442 -0.3462 -0.4182 -0.5631
  609MOL0     C80299   8.560   9.197   9.436 -0.2244  0.3620  0.1862
  609MOL0    Cl80300   8.543   9.357   9.367 -0.0454 -0.0004  0.0678
  609MOL0     C80301   9.496   8.863  10.041 -0.0247  0.4810 -0.2322
  609MOL0     C80302   9.623   8.809  10.012 -0.4158 -0.1602 -0.4564
  609MOL0     O80303   9.817   8.601   9.931 -0.5969 -0.1739  0.1064
  609MOL0     C80304  10.079   8.551   9.855 -0.0073  0.2512  0.7740
  609MOL0     C80305  10.211   8.525   9.821  1.1117  0.2787  0.1379
  609MOL0     N80306  10.642   8.415  10.315  0.0557  1.4954  0.5052
  609MOL0     N80307  10.685   8.414  10.437  0.5458 -0.7449  0.1664
  609MOL0     C80308   9.922   8.363  10.616 -0.4215 -1.0788 -0.4485
  609MOL0     C80309   9.816   8.361  10.530  0.5053 -0.6347  0.7235
  609MOL0     C80310   9.362   8.341  10.383 -0.1737 -0.6021 -0.0897
  609MOL0     C80311   9.389   8.426  10.275 -0.1117  0.5199 -0.0122
  609MOL0     C80312   9.288   8.467  10.193 -0.4730 -0.5616 -0.3617
  609MOL0     C80313   9.151   8.432  10.223  0.1257  0.6648 -0.2179
  609MOL0     O80314   9.039   8.457  10.150  0.1163  0.2276 -0.3066
  609MOL0     C80315   9.052   8.520  10.017  0.4018  0.2242 -0.4227
  609MOL0     C80316   8.918   8.575   9.974 -1.3621  0.7628 -0.8358
  609MOL0     C80317   8.876   8.708  10.042 -0.3770 -0.9728  0.0483
  609MOL0     C80318   8.750   8.764   9.983  0.1348  0.2732  0.3580
  609MOL0     C80319   8.634   8.683   9.981 -0.0526  0.6423 -0.5196
  609MOL0     C80320   8.543   8.598  10.004  0.3493 -1.1638  0.2439
  609MOL0     C80321   9.127   8.354  10.340  0.3105 -0.3874 -0.2650
  609MOL0     C80322   9.228   8.305  10.413  0.6436  0.0309  0.1445
  609MOL0     H80323   9.564   8.471  10.724  1.0260  1.5910 -0.1311
  609MOL0     H80324   9.747   8.479  10.877 -0.6746  1.9734 -1.3391
  609MOL0     H80325  10.140   8.328  10.759  1.2852  1.8372  0.5486
  609MOL0     H80326  10.057   8.263  10.910  0.3157 -1.3637 -1.3396
  609MOL0     H80327  10.293   8.343  10.946  0.7328  0.7599 -3.5144
  609MOL0     H80328  10.191   8.438  11.048  0.0014  0.3196  0.2931
  609MOL0     H80329  10.177   8.618  10.885  0.9694  2.5532  0.0460
  609MOL0     H80330  10.279   8.517  10.769  2.6987 -1.5768  0.6119
  609MOL0     H80331  10.341   8.640  11.038 -2.1759 -3.2325  0.3398
  609MOL0     H80332  10.449   8.515  10.962  3.2333  3.0296 -0.7088
  609MOL0     H80333  10.545   8.743  10.927  1.1024 -1.7890 -0.3804
  609MOL0     H80334  10.400   8.803  10.868  2.0860  2.5207  2.9520
  609MOL0     H80335  10.563   8.760  10.700  0.8333 -1.2059 -0.0331
  609MOL0     H80336  10.437   8.652  10.670  2.1599  0.8701 -2.6628
  609MOL0     H80337  10.663   8.551  10.844  0.1996 -3.2846  0.5985
  609MOL0     H80338  10.561   8.459  10.743 -3.1876  2.2006 -0.6951
  609MOL0     H80339  10.785   8.483  10.656 -1.3072 -0.0901  2.3569
  609MOL0     H80340  10.789   8.651  10.653  1.1534 -0.1020 -0.5278
  609MOL0     H80341  10.580   8.730  10.411 -1.0468 -0.1035 -1.6410
  609MOL0     H80342  10.424   8.646  10.207  0.7179 -0.1924  0.7446
  609MOL0     H80343  10.476   8.502  10.126 -1.6943  0.8491 -0.1060
  609MOL0     H80344  10.692   8.628  10.057  0.4431  1.1900  0.7089
  609MOL0     H80345  10.627   8.761  10.139 -1.2963  0.5838 -0.1079
  609MOL0     H80346  10.429   8.749   9.986  0.4505 -1.8407  4.1028
  609MOL0     H80347  10.598   8.773   9.909  3.2107 -3.3851  0.2334
  609MOL0     H80348  10.503   8.494   9.911 -0.5802 -0.0967  0.6946
  609MOL0     H80349  10.606   8.582   9.807  1.2689 -1.4187  2.9589
  609MOL0     H80350  10.289   8.838   9.724  0.5497  0.2503  0.3200
  609MOL0     H80351  10.056   8.887   9.774 -5.0621 -0.6738  1.5645
  609MOL0     H80352   9.636   8.836   9.679  1.1413 -1.4542  0.4961
  609MOL0     H80353   9.396   8.909   9.717 -0.7222  1.1519  0.2434
  609MOL0     H80354   9.169   8.886   9.808  0.6057 -0.1041  1.6792
  609MOL0     H80355   9.250   9.041   9.794  1.1002 -0.4408  1.2300
  609MOL0     H80356   9.089   9.160   9.950 -2.5074  0.8860 -0.9015
  609MOL0     H80357   9.002   9.016   9.966 -3.1486  0.0547 -3.4787
  609MOL0     H80358   8.992   9.035   9.692  2.8756  0.7396 -0.2330
  609MOL0     H80359   9.061   9.187   9.717 -1.6510  1.8731  1.0988
  609MOL0     H80360   8.816   9.126   9.867 -0.8539  2.0254  0.4839
  609MOL0     H80361   8.901   9.272   9.864  1.3093 -1.0870  1.7614
  609MOL0     H80362   8.856   9.293   9.612 -2.4297  1.1146 -0.9833
  609MOL0     H80363   8.713   9.282   9.707  1.5359  1.8212  0.0495
  609MOL0     H80364   8.658   9.065   9.635  1.6969 -2.0650  0.4266
  609MOL0     H80365   8.825   9.024   9.580  0.8905  0.9573 -0.8239
  609MOL0     H80366   8.779   9.191   9.387  0.5108 -1.7627 -0.9484
  609MOL0     H80367   8.712   9.042   9.379  2.0197  0.6022 -1.9043
  609MOL0     H80368   8.511   9.188   9.533 -2.8830 -0.4696 -1.1484
  609MOL0     H80369   8.494   9.136   9.374 -0.6014  0.4243  0.5194
  609MOL0     H80370   9.466   8.883  10.143 -0.2337 -2.7574  0.4642
  609MOL0     H80371   9.691   8.792  10.095 -1.5385  1.8795  0.9614
  609MOL0     H80372  10.016   8.466   9.880  4.5004 -3.3405  1.1760
  609MOL0     H80373  10.258   8.427   9.826 -0.5352 -0.4985  1.3887
  609MOL0     H80374  10.008   8.308  10.579 -2.7034 -3.4832 -2.6644
  609MOL0     H80375   9.841   8.326  10.430  0.5572  0.2516  0.4121
  609MOL0     H80376   9.490   8.465  10.270  0.1943  0.0208  1.7302
  609MOL0     H80377   9.311   8.518  10.100  3.5413  0.9701  1.2566
  609MOL0     H80378   9.076   8.438   9.948 -2.0440 -1.2314  0.3267
  609MOL0     H80379   9.124   8.602  10.014  0.6073  0.0367 -0.7217
  609MOL0     H80380   8.911   8.591   9.866  0.9872  1.4375 -0.9449
  609MOL0     H80381   8.849   8.493   9.993  2.4358 -2.7895 -0.9512
  609MOL0     H80382   8.964   8.772  10.033 -0.3765 -1.0884 -0.8839
  609MOL0     H80383   8.858   8.688  10.148  0.4092  0.2796  0.4352
  609MOL0     H80384   8.742   8.858  10.038  3.0055  0.6936  0.2152
  609MOL0     H80385   8.770   8.789   9.879  1.4188 -1.0225  0.2470
  609MOL0     H80386   8.471   8.521  10.022  0.3978 -1.8529 -2.1383
  609MOL0     H80387   9.022   8.334  10.358  0.0664  1.1751  0.1714
  609MOL0     H80388   9.214   8.229  10.489  1.9432 -0.7758 -0.3740
  610MOL0     O80389   8.246   4.413   6.230 -0.0176  0.4065  0.2025
  610MOL0     C80390   8.273   4.299   6.274 -0.2315 -0.0718 -1.1968
  610MOL0     O80391   8.192   4.195   6.284 -0.4179 -0.0837 -0.0966
  610MOL0     C80392   8.054   4.210   6.267 -1.0596  0.2823  0.0702
  610MOL0     C80393   7.972   4.321   6.279  0.2598 -0.0726  0.3196
  610MOL0     C80394   7.829   4.319   6.249 -0.6965 -0.6770  0.0082
  610MOL0     C80395   7.769   4.204   6.211  0.4024 -0.1792 -0.2359
  610MOL0     O80396   7.641   4.221   6.180 -0.1512 -1.0128  0.6376
  610MOL0     C80397   7.543   4.129   6.224  0.0095 -0.7068  0.1561
  610MOL0     C80398   7.447   4.106   6.105  0.9160 -0.0848 -0.3797
  610MOL0     C80399   7.329   4.009   6.144  0.8061 -0.3531  0.3866
  610MOL0     C80400   7.281   3.938   6.014  0.4082 -0.7960 -0.3989
  610MOL0     C80401   7.168   3.838   6.045 -0.5014 -0.3022  0.9692
  610MOL0     C80402   7.052   3.900   6.136  0.7848  0.3889 -0.3908
  610MOL0     C80403   6.937   3.790   6.142 -0.2825 -0.6015  0.1679
  610MOL0     C80404   6.980   3.653   6.194  0.3286  0.4162 -0.6548
  610MOL0     N80405   6.891   3.544   6.158 -1.2362 -0.1465 -0.6002
  610MOL0     C80406   6.762   3.557   6.178  0.8763  0.2959 -0.2112
  610MOL0     C80407   6.707   3.441   6.146 -0.1288  0.9144  0.5139
  610MOL0     C80408   6.558   3.423   6.148 -0.0493  0.5718 -0.0822
  610MOL0     C80409   6.519   3.290   6.084 -0.3519 -0.1618  0.3960
  610MOL0     C80410   6.364   3.270   6.087 -0.6309  0.3045 -0.2039
  610MOL0     C80411   6.323   3.127   6.043  0.0962 -0.3003  0.2523
  610MOL0     O80412   6.214   3.135   5.950  0.2985  0.8112  0.0509
  610MOL0     C80413   6.152   3.019   5.916 -1.1737  0.1021 -0.2261
  610MOL0     C80414   6.224   2.898   5.913 -0.1886 -0.0655  0.4461
  610MOL0     C80415   6.168   2.782   5.864 -0.2462  0.3199  0.0463
  610MOL0     C80416   6.040   2.779   5.817  0.0713 -0.5675 -0.2205
  610MOL0     C80417   5.989   2.656   5.744  0.0272 -0.0907 -0.4646
  610MOL0     O80418   5.875   2.675   5.675  0.2066 -0.1702 -0.4448
  610MOL0     C80419   5.799   2.568   5.631  0.4626  0.4654  0.7502
  610MOL0     C80420   5.742   2.583   5.503  0.4419  0.3546  0.0607
  610MOL0     C80421   5.649   2.486   5.451 -0.1908 -0.7263 -0.4505
  610MOL0     C80422   5.612   2.381   5.532 -0.4590  0.2302 -0.9971
  610MOL0     O80423   5.512   2.299   5.491 -0.0733 -1.1171  0.0588
  610MOL0     C80424   5.554   2.182   5.422  0.6107 -0.1378  0.3265
  610MOL0     C80425   5.433   2.083   5.434  0.4633  0.0386  0.2827
  610MOL0     C80426   5.304   2.122   5.367  0.7411 -1.1203 -0.1123
  610MOL0     C80427   5.310   2.113   5.213 -0.3560 -0.6287  0.0212
  610MOL0     C80428   5.164   2.146   5.152 -0.3203 -0.1308 -0.5014
  610MOL0     C80429   5.170   2.144   5.005 -0.2927 -0.1100  0.3891
  610MOL0     C80430   5.030   2.165   4.938 -0.7961  0.2451  0.1639
  610MOL0     C80431   4.948   2.037   4.930  0.9299  0.3261  0.4915
  610MOL0    Cl80432   5.017   1.896   4.841 -0.6257  0.3032  0.9324
  610MOL0     C80433   5.672   2.355   5.658 -0.3056 -1.1243  0.1693
  610MOL0     C80434   5.761   2.451   5.707 -1.2054 -0.1362 -0.0639
  610MOL0     O80435   6.046   2.546   5.755 -0.1715  0.3843 -0.6477
  610MOL0     C80436   5.970   2.897   5.818  0.5062  0.2697 -0.3426
  610MOL0     C80437   6.025   3.017   5.866 -0.6474  0.1294  0.5924
  610MOL0     N80438   6.804   3.350   6.109 -0.3988  0.0048 -0.2735
  610MOL0     N80439   6.914   3.408   6.132 -0.3255  0.3750  0.8332
  610MOL0     C80440   7.849   4.091   6.191  0.2363 -0.4713 -0.0797
  610MOL0     C80441   7.985   4.091   6.233 -0.4797  0.6702 -0.4473
  610MOL0     C80442   8.417   4.297   6.325 -0.7385 -0.0609  0.1291
  610MOL0     C80443   8.491   4.415   6.368  0.2914  0.3133 -1.2689
  610MOL0     C80444   8.618   4.409   6.417 -1.2657  0.1595 -0.3072
  610MOL0     C80445   8.674   4.288   6.441  0.8846  0.3683  0.1337
  610MOL0     O80446   8.795   4.285   6.512  0.9148 -0.1408 -0.1191
  610MOL0     C80447   8.877   4.169   6.491 -1.8208 -0.8339  0.7602
  610MOL0     C80448   9.015   4.200   6.569  0.4257 -0.3512 -0.0848
  610MOL0     C80449   9.127   4.102   6.551 -0.4701 -0.0896  0.1038
  610MOL0     C80450   9.155   4.043   6.413 -0.1115 -0.9095  0.4225
  610MOL0     C80451   9.281   3.970   6.406 -0.4606 -0.3089 -0.8238
  610MOL0     C80452   9.393   3.913   6.398 -0.0448  0.3664  0.7459
  610MOL0     C80453   8.610   4.166   6.409 -0.2031 -0.4625 -0.2549
  610MOL0     C80454   8.483   4.176   6.351  1.4885 -0.4459  0.5082
  610MOL0     H80455   8.015   4.417   6.305 -0.3195  0.7577 -1.6226
  610MOL0     H80456   7.774   4.413   6.257  1.3928  0.9179 -2.6464
  610MOL0     H80457   7.496   4.161   6.317  0.6350 -2.6476  1.1962
  610MOL0     H80458   7.588   4.032   6.247  3.0321  0.5478 -0.0997
  610MOL0     H80459   7.495   4.064   6.016  1.1148  0.1725 -0.3942
  610MOL0     H80460   7.404   4.199   6.068 -1.8774 -1.5779 -1.1994
  610MOL0     H80461   7.264   4.060   6.217 -1.4613 -1.5995 -0.6478
  610MOL0     H80462   7.371   3.927   6.202  0.7145  0.2028  1.2650
  610MOL0     H80463   7.241   4.008   5.941  3.4440  2.6579  0.8920
  610MOL0     H80464   7.373   3.899   5.970  2.1637  0.3323  2.0198
  610MOL0     H80465   7.211   3.746   6.084 -2.6191 -2.1232 -0.7166
  610MOL0     H80466   7.120   3.824   5.947 -0.8479 -0.1885  1.1210
  610MOL0     H80467   6.996   3.981   6.089  0.4647 -0.8453 -2.2084
  610MOL0     H80468   7.083   3.929   6.237  0.4153 -0.5377 -0.0007
  610MOL0     H80469   6.855   3.827   6.203 -0.1269  1.9016 -1.0247
  610MOL0     H80470   6.901   3.779   6.039  0.0568 -2.6480  0.2325
  610MOL0     H80471   6.972   3.645   6.302  0.7848  0.3896 -0.6184
  610MOL0     H80472   7.082   3.621   6.168  0.5033  0.3725  0.0833
  610MOL0     H80473   6.707   3.644   6.213  2.3263  1.5188 -0.8330
  610MOL0     H80474   6.514   3.501   6.085  0.1874 -0.4119 -1.5118
  610MOL0     H80475   6.499   3.422   6.241 -2.3778  1.0487 -1.4784
  610MOL0     H80476   6.558   3.212   6.151 -1.2512 -1.4634 -0.5464
  610MOL0     H80477   6.553   3.265   5.984 -1.9545 -2.7951  0.4046
  610MOL0     H80478   6.328   3.300   6.186 -1.4099 -1.1427 -0.0165
  610MOL0     H80479   6.319   3.337   6.014 -2.6135 -2.7576 -2.0374
  610MOL0     H80480   6.299   3.075   6.136 -0.5223 -2.5229 -1.0729
  610MOL0     H80481   6.403   3.071   5.992  0.8803  2.1603 -1.3793
  610MOL0     H80482   6.327   2.898   5.948 -0.0799 -0.5926  0.1298
  610MOL0     H80483   6.225   2.692   5.844  0.4229  0.2458  2.0957
  610MOL0     H80484   5.757   2.673   5.444 -1.9114  0.8002  0.0314
  610MOL0     H80485   5.609   2.512   5.353  2.8218  2.6363 -1.0144
  610MOL0     H80486   5.646   2.135   5.457 -0.0565 -2.5630 -0.9446
  610MOL0     H80487   5.560   2.210   5.316 -2.5862  0.6678  0.2640
  610MOL0     H80488   5.419   2.066   5.541 -2.8458  2.7083  0.4403
  610MOL0     H80489   5.464   1.991   5.383  1.7394  0.0912  0.9287
  610MOL0     H80490   5.269   2.222   5.394 -2.1855 -2.2948  0.8807
  610MOL0     H80491   5.224   2.054   5.398 -2.3998  1.3686 -2.1270
  610MOL0     H80492   5.376   2.194   5.180 -1.4216 -0.6242 -2.3146
  610MOL0     H80493   5.346   2.017   5.173 -3.0389 -2.9853  2.7925
  610MOL0     H80494   5.133   2.247   5.182  1.1595  0.3185 -0.3984
  610MOL0     H80495   5.106   2.062   5.190  2.1854 -1.1977  1.2842
  610MOL0     H80496   5.214   2.049   4.972 -1.8800 -0.4511 -0.8958
  610MOL0     H80497   5.228   2.234   4.981 -1.5705  0.5576 -0.2927
  610MOL0     H80498   4.976   2.240   4.997 -1.2054  0.7876 -0.8741
  610MOL0     H80499   5.038   2.213   4.840 -0.6604 -0.1298 -0.0102
  610MOL0     H80500   4.861   2.073   4.874  0.9750  0.8657  0.7633
  610MOL0     H80501   4.905   2.017   5.029 -1.1557  1.9040 -0.0108
  610MOL0     H80502   5.653   2.267   5.719  0.3029 -2.0064 -0.8688
  610MOL0     H80503   5.791   2.446   5.811 -0.5309 -0.5651 -0.2700
  610MOL0     H80504   5.875   2.901   5.765  2.1028 -0.9798 -3.6054
  610MOL0     H80505   5.959   3.101   5.846  0.2422  0.2349 -2.4452
  610MOL0     H80506   7.801   3.998   6.161 -0.2203 -0.7383  1.4018
  610MOL0     H80507   8.036   3.996   6.221 -0.9605  0.1043  1.5130
  610MOL0     H80508   8.445   4.513   6.364  2.2317  1.4772  1.5998
  610MOL0     H80509   8.661   4.498   6.462 -1.3331 -0.8782  1.9992
  610MOL0     H80510   8.888   4.152   6.383 -2.3133 -1.9653  0.8717
  610MOL0     H80511   8.830   4.078   6.528  1.3064 -2.5965  0.6336
  610MOL0     H80512   9.059   4.288   6.520  0.2382  0.3298  0.9298
  610MOL0     H80513   9.000   4.209   6.678 -0.1303 -1.6451 -0.0381
  610MOL0     H80514   9.103   4.022   6.622  0.0187  0.0405  0.4212
  610MOL0     H80515   9.217   4.157   6.580  0.0144 -0.2175 -1.1020
  610MOL0     H80516   9.076   3.972   6.391 -0.9791  0.8828 -3.1179
  610MOL0     H80517   9.147   4.123   6.338 -1.2920  0.5798  2.0541
  610MOL0     H80518   9.489   3.872   6.375 -0.4611 -0.8517  1.0997
  610MOL0     H80519   8.633   4.061   6.422 -1.6340 -0.7184  0.4873
  610MOL0     H80520   8.435   4.082   6.328  0.4417  0.8626 -3.5405
  611MOL0     O80521   3.308   3.617   6.519  0.1126  0.0248  0.2017
  611MOL0     C80522   3.294   3.681   6.625  0.0208 -0.0206  0.4796
  611MOL0     O80523   3.178   3.753   6.660  0.1320 -0.1509 -0.2057
  611MOL0     C80524   3.086   3.757   6.555  1.1375  0.5744 -1.0662
  611MOL0     C80525   2.968   3.691   6.585  0.2295  0.0970  0.6966
  611MOL0     C80526   2.853   3.706   6.501 -0.3825 -0.1496  0.3107
  611MOL0     C80527   2.861   3.790   6.389  0.2156 -0.2394  0.1871
  611MOL0     O80528   2.765   3.809   6.290  0.0526 -0.4096 -0.5307
  611MOL0     C80529   2.649   3.720   6.283 -0.1327  0.1778 -0.6160
  611MOL0     C80530   2.564   3.751   6.161  0.1769 -0.0208 -0.9302
  611MOL0     C80531   2.418   3.696   6.173 -0.1434  0.1172  0.0517
  611MOL0     C80532   2.328   3.764   6.071 -0.7837  0.5867 -0.2176
  611MOL0     C80533   2.189   3.715   6.077 -0.5718 -0.2537  0.4595
  611MOL0     C80534   2.124   3.751   5.935 -0.0921  1.2278  0.0870
  611MOL0     C80535   1.978   3.699   5.930 -0.4645 -0.4991 -0.3532
  611MOL0     C80536   1.906   3.725   5.798  0.1482 -1.0719  0.0687
  611MOL0     N80537   1.773   3.658   5.808 -0.9005 -0.0416  0.0233
  611MOL0     C80538   1.708   3.617   5.697 -1.0828  0.8156 -0.1370
  611MOL0     C80539   1.584   3.602   5.738 -0.2893  0.5430  0.6197
  611MOL0     C80540   1.465   3.573   5.649  0.1337 -0.2390  0.0790
  611MOL0     C80541   1.390   3.701   5.623  0.6247  0.4200  0.3324
  611MOL0     C80542   1.256   3.676   5.532  0.0205 -0.5273  0.3386
  611MOL0     C80543   1.137   3.608   5.607 -0.6744 -1.0195  0.6322
  611MOL0     O80544   1.047   3.569   5.502  1.4840  0.4600 -0.3766
  611MOL0     C80545   0.926   3.519   5.539 -0.5806 -0.9267  0.5153
  611MOL0     C80546   0.830   3.502   5.443 -1.2488  0.1344  0.2676
  611MOL0     C80547   0.704   3.440   5.465  0.7801 -0.6087 -0.1024
  611MOL0     C80548   0.679   3.393   5.596 -0.3617 -0.4221 -0.0740
  611MOL0     C80549   0.551   3.322   5.639 -0.0189  0.2109  0.4148
  611MOL0     O80550   0.464   3.308   5.535 -0.2023  0.3636  0.0989
  611MOL0     C80551   0.341   3.258   5.565 -0.1263 -0.6053  0.5586
  611MOL0     C80552   0.237   3.333   5.492  0.0795 -0.8986 -0.7078
  611MOL0     C80553   0.113   3.279   5.486  0.1320 -0.9888 -0.0581
  611MOL0     C80554   0.085   3.164   5.555  0.9755  0.1269  0.0263
  611MOL0     O80555  -0.047   3.121   5.554 -0.8629  0.2721 -0.2554
  611MOL0     C80556  -0.157   3.204   5.516 -0.5059  0.3065  0.2430
  611MOL0     C80557  -0.285   3.150   5.573  0.1981 -0.1853  0.4858
  611MOL0     C80558  -0.407   3.229   5.536  0.1501 -0.4790  1.2724
  611MOL0     C80559  -0.541   3.164   5.585 -0.2339  0.2237 -0.3200
  611MOL0     C80560  -0.655   3.208   5.490 -0.6870  0.2138  0.1489
  611MOL0     C80561  -0.784   3.138   5.540 -0.3488 -0.1932 -0.1594
  611MOL0     C80562  -0.902   3.136   5.439 -1.0803  0.0690 -1.0343
  611MOL0     C80563  -0.965   3.278   5.416  0.3089  0.6566 -0.0625
  611MOL0    Cl80564  -1.025   3.362   5.561 -0.1859  0.2184  0.0466
  611MOL0     C80565   0.179   3.095   5.626 -0.0521  0.9020  0.3881
  611MOL0     C80566   0.315   3.138   5.628  0.3912  0.1032 -0.4050
  611MOL0     O80567   0.523   3.301   5.759 -0.3801 -0.2279 -0.1188
  611MOL0     C80568   0.785   3.407   5.694 -0.3673  0.3796 -0.0889
  611MOL0     C80569   0.907   3.461   5.662  0.4095  0.0342  1.0165
  611MOL0     N80570   1.573   3.630   5.867  0.0137 -0.4151  0.2356
  611MOL0     N80571   1.686   3.662   5.910  0.2794  0.1887  1.0221
  611MOL0     C80572   2.985   3.851   6.366 -0.5785  0.0001 -0.6139
  611MOL0     C80573   3.095   3.832   6.445 -0.0990  0.4481 -0.0693
  611MOL0     C80574   3.418   3.702   6.714  0.4788 -0.3583 -0.0521
  611MOL0     C80575   3.538   3.664   6.672  0.2644  0.0433  0.3513
  611MOL0     C80576   3.648   3.687   6.763  0.0350  0.3795  1.1953
  611MOL0     C80577   3.635   3.764   6.882  0.4111 -0.4385  0.1421
  611MOL0     O80578   3.740   3.773   6.969  0.2597  0.4571  0.1614
  611MOL0     C80579   3.828   3.871   6.929 -0.8271 -0.8437 -0.0671
  611MOL0     C80580   3.924   3.896   7.040 -1.2199  0.1372 -0.3027
  611MOL0     C80581   4.015   3.772   7.065 -0.2916  0.3920 -0.4681
  611MOL0     C80582   4.130   3.815   7.145 -0.1354 -0.4329  0.3165
  611MOL0     C80583   4.233   3.714   7.152 -0.6312 -0.6760  0.0253
  611MOL0     C80584   4.341   3.645   7.161 -0.2895 -0.7434  0.0865
  611MOL0     C80585   3.504   3.801   6.919 -0.2910  0.4449  0.2464
  611MOL0     C80586   3.402   3.772   6.828  0.7617  0.0554  0.0927
  611MOL0     H80587   2.965   3.633   6.677  0.4506  1.4125  1.5673
  611MOL0     H80588   2.758   3.661   6.526 -1.1980 -0.7069 -3.3259
  611MOL0     H80589   2.588   3.734   6.372  1.7081  3.0093  0.3328
  611MOL0     H80590   2.669   3.613   6.273  0.9708  0.5365 -2.9808
  611MOL0     H80591   2.614   3.700   6.078  1.5131 -1.3527  0.6173
  611MOL0     H80592   2.562   3.860   6.151  1.5752  0.2466  1.0936
  611MOL0     H80593   2.384   3.738   6.268  0.9673 -0.6628  0.8192
  611MOL0     H80594   2.412   3.587   6.167 -0.4005 -0.0579  2.5873
  611MOL0     H80595   2.325   3.871   6.091  1.9315  0.5033  1.0793
  611MOL0     H80596   2.382   3.738   5.979 -0.5191 -2.2722  0.6584
  611MOL0     H80597   2.129   3.754   6.160 -1.2446 -1.9923  0.8275
  611MOL0     H80598   2.182   3.607   6.091  3.8885 -0.5760  1.4575
  611MOL0     H80599   2.183   3.699   5.858 -1.1048 -1.3341  0.9594
  611MOL0     H80600   2.144   3.857   5.918  2.2189  1.1595  1.8978
  611MOL0     H80601   1.980   3.589   5.934  4.0155 -0.7089 -2.5460
  611MOL0     H80602   1.922   3.747   6.011  1.6859  2.2505 -0.3423
  611MOL0     H80603   1.952   3.681   5.709 -0.6041 -1.4065 -0.1652
  611MOL0     H80604   1.897   3.832   5.780 -1.3630 -1.1682  0.1156
  611MOL0     H80605   1.734   3.605   5.592  0.5736  0.8720  0.2414
  611MOL0     H80606   1.392   3.503   5.691 -0.0061 -0.0793  0.1029
  611MOL0     H80607   1.498   3.537   5.551 -4.0547 -1.5029 -1.0423
  611MOL0     H80608   1.461   3.744   5.551  0.5704 -3.0705 -2.0316
  611MOL0     H80609   1.379   3.769   5.708 -0.3433  1.0665 -0.2954
  611MOL0     H80610   1.217   3.770   5.493 -0.0726  0.3223  2.3849
  611MOL0     H80611   1.289   3.633   5.437 -1.4644  0.4938 -0.6600
  611MOL0     H80612   1.091   3.662   5.690  1.2893  2.2824 -0.2521
  611MOL0     H80613   1.182   3.516   5.645  0.0437 -0.7266  0.5094
  611MOL0     H80614   0.858   3.531   5.342  0.5646 -0.4407  0.5711
  611MOL0     H80615   0.643   3.423   5.377  0.6690  0.6860 -0.2890
  611MOL0     H80616   0.264   3.433   5.461  2.0748 -0.4247  2.1303
  611MOL0     H80617   0.047   3.330   5.417 -1.5116 -0.3734  1.8762
  611MOL0     H80618  -0.165   3.232   5.411 -0.5766 -0.2101  0.1073
  611MOL0     H80619  -0.149   3.302   5.564  0.3090 -0.1264  1.0149
  611MOL0     H80620  -0.283   3.142   5.682 -1.4448  0.3117  0.5751
  611MOL0     H80621  -0.308   3.050   5.534 -0.6545  0.1653  0.0744
  611MOL0     H80622  -0.412   3.230   5.426 -0.7429 -3.1759  1.2118
  611MOL0     H80623  -0.384   3.325   5.582 -4.9971  1.0617  1.2391
  611MOL0     H80624  -0.532   3.055   5.573 -1.5462 -0.1760  1.7836
  611MOL0     H80625  -0.560   3.175   5.692  2.9487 -1.6325  0.5892
  611MOL0     H80626  -0.634   3.164   5.392 -0.2007 -1.6013  1.0357
  611MOL0     H80627  -0.661   3.317   5.478  1.4583  0.1333 -2.5536
  611MOL0     H80628  -0.807   3.189   5.634 -1.3610  0.7310 -0.8936
  611MOL0     H80629  -0.760   3.035   5.567 -4.0601 -0.9785  0.6998
  611MOL0     H80630  -0.873   3.081   5.348 -2.7488 -1.4790 -0.6910
  611MOL0     H80631  -0.974   3.072   5.490 -0.6898  0.1363 -0.3889
  611MOL0     H80632  -1.050   3.262   5.349  0.5966 -3.2380  0.2427
  611MOL0     H80633  -0.889   3.343   5.372  2.0991 -2.7075 -2.4666
  611MOL0     H80634   0.139   3.001   5.664 -3.3516  0.1331 -4.0276
  611MOL0     H80635   0.393   3.092   5.687 -1.0656  0.9364  2.3341
  611MOL0     H80636   0.776   3.363   5.792 -1.4740  1.1774  0.1900
  611MOL0     H80637   0.985   3.453   5.737 -1.4233 -0.3916  2.9870
  611MOL0     H80638   2.993   3.916   6.280  1.7268 -0.2262 -0.6421
  611MOL0     H80639   3.189   3.885   6.433  0.0347  0.5551  1.3105
  611MOL0     H80640   3.549   3.620   6.573 -0.3620  1.0394 -0.1776
  611MOL0     H80641   3.745   3.653   6.729  0.2506  1.8375  0.2625
  611MOL0     H80642   3.789   3.971   6.907  0.8289  0.5736  2.7887
  611MOL0     H80643   3.883   3.821   6.849  1.3782 -0.5529  1.1891
  611MOL0     H80644   3.980   3.988   7.022 -0.6523 -0.0344  0.5426
  611MOL0     H80645   3.871   3.918   7.133  1.8774 -1.2410  1.9814
  611MOL0     H80646   4.047   3.737   6.966 -0.4588  0.6774 -0.6253
  611MOL0     H80647   3.963   3.700   7.129  0.4513  0.7131  0.5112
  611MOL0     H80648   4.178   3.909   7.115 -0.2076  0.2487  2.1933
  611MOL0     H80649   4.094   3.843   7.245  2.2803  1.0051  0.8636
  611MOL0     H80650   4.432   3.591   7.177 -0.6301 -1.2796  0.2377
  611MOL0     H80651   3.474   3.850   7.011 -1.6118  1.5660 -0.7451
  611MOL0     H80652   3.309   3.812   6.867  1.6797  0.6848  1.7333
  612MOL0     O80653   5.514   5.994   3.414 -0.1229  0.1258 -0.7291
  612MOL0     C80654   5.495   5.889   3.474 -0.7197 -0.0657 -0.1287
  612MOL0     O80655   5.586   5.833   3.555 -0.3443 -0.1283  0.1683
  612MOL0     C80656   5.702   5.891   3.593 -0.3411 -0.0289  0.3365
  612MOL0     C80657   5.793   5.938   3.485 -0.1178 -0.2751 -0.4071
  612MOL0     C80658   5.910   6.000   3.522  0.1208 -0.3518 -0.0397
  612MOL0     C80659   5.951   6.010   3.658 -0.0725 -0.1466  0.3619
  612MOL0     O80660   6.069   6.074   3.701  0.6594  0.1942 -0.8373
  612MOL0     C80661   6.179   6.071   3.612  0.6474  0.0542 -0.0121
  612MOL0     C80662   6.262   5.941   3.617  0.5197  0.0800 -0.8696
  612MOL0     C80663   6.400   5.961   3.559  0.0334  0.0156 -0.1592
  612MOL0     C80664   6.497   5.845   3.544  0.5388 -0.6752 -0.6974
  612MOL0     C80665   6.538   5.774   3.684 -0.3129  1.0366  0.2080
  612MOL0     C80666   6.672   5.820   3.746  0.0078  0.2487 -0.4623
  612MOL0     C80667   6.674   5.960   3.800 -0.2129  0.1031  0.0461
  612MOL0     C80668   6.583   5.972   3.926 -1.1225  0.4416  0.1749
  612MOL0     N80669   6.562   6.112   3.968  0.1672  0.0881  0.1100
  612MOL0     C80670   6.459   6.188   3.946  0.9665 -1.5039  0.7790
  612MOL0     C80671   6.471   6.304   4.015 -0.5230 -0.3727 -0.7051
  612MOL0     C80672   6.366   6.414   4.025  0.1171  0.3550 -0.1905
  612MOL0     C80673   6.392   6.531   3.920  0.5971 -0.0583 -0.4953
  612MOL0     C80674   6.353   6.674   3.972 -0.0512  0.7799 -0.0149
  612MOL0     C80675   6.367   6.787   3.866  0.2623  0.5667 -0.2156
  612MOL0     O80676   6.304   6.912   3.914  0.5511  0.2495 -0.2675
  612MOL0     C80677   6.376   7.008   3.970 -0.3270 -0.0648 -0.8353
  612MOL0     C80678   6.304   7.121   4.017  0.2806  0.2552 -0.2209
  612MOL0     C80679   6.359   7.219   4.097  0.5722  0.2391 -0.3812
  612MOL0     C80680   6.499   7.223   4.112  0.4224  0.5047  0.2417
  612MOL0     C80681   6.550   7.337   4.193  0.3006  1.5331 -0.3738
  612MOL0     O80682   6.467   7.448   4.228 -0.2119 -0.4081 -0.0194
  612MOL0     C80683   6.514   7.564   4.283 -0.3268  0.2114 -1.0159
  612MOL0     C80684   6.636   7.627   4.235 -0.7461  0.6482 -0.1560
  612MOL0     C80685   6.688   7.744   4.292 -0.2934 -0.9840  1.1446
  612MOL0     C80686   6.615   7.807   4.396  0.0376 -0.4300  0.2765
  612MOL0     O80687   6.682   7.923   4.442  0.1620 -0.0189  0.1339
  612MOL0     C80688   6.663   7.952   4.579  0.0828 -0.3043  0.4195
  612MOL0     C80689   6.547   8.056   4.581  0.4721  0.4988 -0.0966
  612MOL0     C80690   6.465   8.062   4.707  0.0233  0.4072 -0.5934
  612MOL0     C80691   6.331   8.125   4.686 -0.3551 -1.4078 -0.3405
  612MOL0     C80692   6.248   8.133   4.813 -0.0096  0.3979 -0.4341
  612MOL0     C80693   6.111   8.196   4.784 -1.0408 -0.1534  0.0233
  612MOL0     C80694   6.029   8.185   4.908  0.7338  0.6127 -0.9341
  612MOL0     C80695   5.889   8.242   4.888 -0.6180 -0.1081 -0.1815
  612MOL0    Cl80696   5.827   8.271   5.048 -0.1344 -0.3937  0.2571
  612MOL0     C80697   6.491   7.754   4.429 -0.4492 -0.9447 -0.6082
  612MOL0     C80698   6.446   7.631   4.383  0.1785  0.1965  0.4396
  612MOL0     O80699   6.658   7.326   4.236  0.0316 -0.2516 -0.5344
  612MOL0     C80700   6.578   7.113   4.071 -0.2034  0.0293 -0.0395
  612MOL0     C80701   6.511   7.007   4.001  0.1145 -0.6427 -0.0105
  612MOL0     N80702   6.583   6.282   4.097 -0.4688 -0.2249 -0.3634
  612MOL0     N80703   6.640   6.175   4.060  0.3217  0.0304 -0.0244
  612MOL0     C80704   5.872   5.954   3.747  0.5980  1.0073 -0.8278
  612MOL0     C80705   5.741   5.902   3.730  0.4739  0.1366  0.5411
  612MOL0     C80706   5.361   5.819   3.461  0.4957  0.0244 -0.2010
  612MOL0     C80707   5.257   5.871   3.381 -0.3730  0.0418 -0.1539
  612MOL0     C80708   5.134   5.801   3.366 -0.4008  0.6697  0.2647
  612MOL0     C80709   5.113   5.682   3.436  0.0131 -0.2932 -0.0661
  612MOL0     O80710   4.998   5.614   3.440 -0.3240 -0.0254 -0.4274
  612MOL0     C80711   4.897   5.630   3.340 -1.2628  0.8295 -0.3910
  612MOL0     C80712   4.828   5.494   3.312 -0.4362  0.6697 -0.4786
  612MOL0     C80713   4.723   5.530   3.201  0.6036  0.2173 -0.1621
  612MOL0     C80714   4.738   5.441   3.077 -0.1878 -0.2653 -0.4246
  612MOL0     C80715   4.623   5.448   2.985 -0.0104  0.9082 -0.2338
  612MOL0     C80716   4.517   5.460   2.919 -0.3409 -0.0446 -0.9676
  612MOL0     C80717   5.210   5.639   3.531  0.2250 -0.4964  0.3096
  612MOL0     C80718   5.333   5.703   3.534 -0.1754  0.3076  0.2216
  612MOL0     H80719   5.770   5.931   3.380 -0.0646 -1.2988 -0.3565
  612MOL0     H80720   5.970   6.039   3.440  2.8309 -1.1892  1.4417
  612MOL0     H80721   6.244   6.154   3.642 -1.2681  1.4672  0.3787
  612MOL0     H80722   6.160   6.100   3.509  0.5363 -0.5915 -0.1754
  612MOL0     H80723   6.217   5.868   3.549  0.6891  1.0982 -2.1305
  612MOL0     H80724   6.269   5.900   3.718  4.2948 -2.3593 -1.9176
  612MOL0     H80725   6.454   6.044   3.605  2.3128 -1.8547  0.7795
  612MOL0     H80726   6.375   5.991   3.457  1.6683  1.2682 -0.2316
  612MOL0     H80727   6.440   5.773   3.484 -1.2031  0.9150 -1.0320
  612MOL0     H80728   6.578   5.869   3.475  0.4578  1.3124 -0.1494
  612MOL0     H80729   6.569   5.672   3.660 -1.6776 -0.2213  3.2870
  612MOL0     H80730   6.455   5.774   3.755  0.1719 -0.8918  0.8279
  612MOL0     H80731   6.754   5.817   3.674 -0.0344  4.4349 -0.9401
  612MOL0     H80732   6.699   5.742   3.818  1.0177  0.9768 -0.0394
  612MOL0     H80733   6.777   5.986   3.827 -0.5151  3.4588 -1.4242
  612MOL0     H80734   6.647   6.027   3.717  1.4716  0.7488 -0.0244
  612MOL0     H80735   6.615   5.905   4.006  2.5884  1.2205 -0.4908
  612MOL0     H80736   6.480   5.938   3.908 -0.5776 -0.7923 -0.7082
  612MOL0     H80737   6.374   6.155   3.886 -1.3379 -0.4682  3.2510
  612MOL0     H80738   6.376   6.449   4.128  1.3379 -1.6555  0.4254
  612MOL0     H80739   6.270   6.365   4.007  1.4390 -3.9365  2.7312
  612MOL0     H80740   6.343   6.506   3.825 -0.6089  0.5705 -0.0637
  612MOL0     H80741   6.497   6.526   3.890  0.5887 -1.4497 -0.3497
  612MOL0     H80742   6.247   6.673   4.000 -0.4654  3.3588 -1.2499
  612MOL0     H80743   6.418   6.704   4.055 -1.9638  1.1198  1.4400
  612MOL0     H80744   6.315   6.749   3.777 -2.8063  1.1599  1.2170
  612MOL0     H80745   6.475   6.800   3.862  0.1286  2.8654  1.7443
  612MOL0     H80746   6.196   7.123   4.022  0.3098 -0.1058  0.8887
  612MOL0     H80747   6.300   7.297   4.144  2.3612 -0.4304  3.3034
  612MOL0     H80748   6.680   7.577   4.149  0.1213 -3.0041  2.1868
  612MOL0     H80749   6.783   7.781   4.254 -0.3312  1.2876  3.0420
  612MOL0     H80750   6.749   7.998   4.626  1.0577  0.9146 -2.3416
  612MOL0     H80751   6.639   7.853   4.619  1.8714 -1.2196 -0.6402
  612MOL0     H80752   6.482   8.031   4.497  0.6367  3.4996 -1.2414
  612MOL0     H80753   6.594   8.154   4.569  1.0105  0.3846  0.9550
  612MOL0     H80754   6.520   8.113   4.786  0.2452  0.8432 -1.0184
  612MOL0     H80755   6.451   7.963   4.750  1.0841  1.1888  1.6554
  612MOL0     H80756   6.343   8.225   4.644  1.3588 -2.4921 -2.5771
  612MOL0     H80757   6.284   8.062   4.610  0.0139 -2.3936  0.2242
  612MOL0     H80758   6.305   8.194   4.883 -2.6718  2.4956  0.0465
  612MOL0     H80759   6.239   8.029   4.846 -0.7345  0.5603 -0.0985
  612MOL0     H80760   6.061   8.139   4.705 -1.2712 -0.1546  0.1679
  612MOL0     H80761   6.136   8.298   4.755  0.6211 -0.5087  0.0737
  612MOL0     H80762   6.014   8.080   4.932  1.6787  1.0659  2.1836
  612MOL0     H80763   6.086   8.226   4.992  1.1388  0.2052 -1.0071
  612MOL0     H80764   5.826   8.176   4.827  2.6055 -2.2706 -1.4915
  612MOL0     H80765   5.905   8.338   4.839 -0.2193  0.2295  0.5985
  612MOL0     H80766   6.430   7.788   4.512  1.6054 -3.4402  2.1005
  612MOL0     H80767   6.346   7.601   4.412 -0.5753  1.2880 -0.9047
  612MOL0     H80768   6.686   7.122   4.084  0.2704  1.5433 -3.6894
  612MOL0     H80769   6.581   6.930   3.968  0.3856 -0.1936 -0.5018
  612MOL0     H80770   5.913   5.947   3.847  2.7262  0.7828 -1.6760
  612MOL0     H80771   5.685   5.857   3.811 -0.0303 -0.2439 -0.0036
  612MOL0     H80772   5.274   5.967   3.334 -0.0094 -0.6545 -1.4756
  612MOL0     H80773   5.056   5.859   3.318  2.4289  5.5321  0.8404
  612MOL0     H80774   4.954   5.662   3.252 -0.8987 -0.7526 -0.7657
  612MOL0     H80775   4.837   5.718   3.365 -2.4390 -0.1544  0.3883
  612MOL0     H80776   4.899   5.419   3.274 -3.2461 -1.5782 -1.6687
  612MOL0     H80777   4.775   5.452   3.399  3.8393 -0.8333  1.6940
  612MOL0     H80778   4.751   5.627   3.158 -0.8762  0.3090 -0.9891
  612MOL0     H80779   4.619   5.542   3.232  0.1524 -2.8850 -0.2216
  612MOL0     H80780   4.833   5.466   3.027 -1.2515  1.1084 -1.8740
  612MOL0     H80781   4.736   5.337   3.112  2.0828  0.3641  1.8675
  612MOL0     H80782   4.444   5.460   2.841 -1.0216 -2.0253 -0.3910
  612MOL0     H80783   5.186   5.555   3.595 -0.3109  0.8327  1.9213
  612MOL0     H80784   5.405   5.658   3.601 -1.3263 -1.4902  0.3020
  613MOL0     O80785   3.739   0.523   9.253 -0.1885  0.2127 -0.1327
  613MOL0     C80786   3.848   0.579   9.264  0.3663  0.3046 -0.2916
  613MOL0     O80787   3.869   0.684   9.349 -0.3551 -0.6929 -0.1651
  613MOL0     C80788   3.753   0.735   9.406 -0.7710 -0.3188 -0.0106
  613MOL0     C80789   3.693   0.850   9.352  0.7389  0.1439  0.6910
  613MOL0     C80790   3.578   0.908   9.403 -0.0466  0.1144 -0.6828
  613MOL0     C80791   3.522   0.843   9.517 -0.1218 -0.2814 -0.4400
  613MOL0     O80792   3.422   0.910   9.581  0.3537  0.5404 -0.2728
  613MOL0     C80793   3.307   0.844   9.633  0.1445 -0.3979 -1.2856
  613MOL0     C80794   3.192   0.928   9.683  0.7437 -0.6724  0.3945
  613MOL0     C80795   3.098   0.968   9.565  0.7617  0.1886 -0.6964
  613MOL0     C80796   3.170   1.073   9.473  0.9454 -0.8864  0.6253
  613MOL0     C80797   3.165   1.210   9.537  0.9061  0.5385  1.2157
  613MOL0     C80798   3.241   1.319   9.457  1.7727 -0.5473 -0.4150
  613MOL0     C80799   3.397   1.309   9.457 -0.4771 -0.4834  0.2800
  613MOL0     C80800   3.441   1.336   9.597 -0.1690 -0.0094  0.2839
  613MOL0     N80801   3.585   1.316   9.572  0.2499  0.7620  1.2169
  613MOL0     C80802   3.655   1.197   9.574  0.5451  0.2169 -0.4341
  613MOL0     C80803   3.786   1.230   9.560  0.4368  0.6468 -0.5239
  613MOL0     C80804   3.897   1.131   9.572  0.6330 -0.4591  0.3705
  613MOL0     C80805   3.963   1.107   9.434 -0.6466  0.5867  0.1070
  613MOL0     C80806   4.077   1.005   9.445 -0.4525  0.3701 -1.3029
  613MOL0     C80807   4.171   1.009   9.321 -0.2817 -0.4504  1.2613
  613MOL0     O80808   4.267   0.903   9.328 -0.1802  0.5526  0.2168
  613MOL0     C80809   4.365   0.883   9.229  0.3995  0.2460  0.4347
  613MOL0     C80810   4.386   0.956   9.118  0.4796  0.3208  0.7894
  613MOL0     C80811   4.492   0.934   9.032  0.2760 -0.9894  1.0889
  613MOL0     C80812   4.590   0.838   9.077  0.1441 -0.1559 -0.6930
  613MOL0     C80813   4.714   0.821   8.998 -0.3122  0.1600  0.0066
  613MOL0     O80814   4.840   0.803   9.067 -0.3329  0.5342  1.1208
  613MOL0     C80815   4.956   0.772   8.997  0.1144 -0.7081  0.1271
  613MOL0     C80816   4.974   0.704   8.874  0.3690  0.5252  0.2076
  613MOL0     C80817   5.100   0.662   8.830 -0.2609  0.0236 -0.2214
  613MOL0     C80818   5.215   0.696   8.896 -0.2613  1.3468  1.2282
  613MOL0     O80819   5.324   0.676   8.833  0.2398 -0.4700 -0.4533
  613MOL0     C80820   5.444   0.742   8.879  0.8122  1.0335  0.1613
  613MOL0     C80821   5.454   0.891   8.837  0.2357  0.3302  0.5342
  613MOL0     C80822   5.589   0.967   8.849 -0.1251 -0.0411 -0.4321
  613MOL0     C80823   5.659   0.956   8.989 -0.6956  0.6868  0.5437
  613MOL0     C80824   5.760   0.834   9.008  0.2973 -0.6127 -0.9276
  613MOL0     C80825   5.890   0.844   8.939  0.2455 -0.6709 -0.5726
  613MOL0     C80826   5.968   0.717   8.940  0.1747  0.8616 -0.6126
  613MOL0     C80827   6.116   0.721   8.903 -0.2236  0.1409  0.1787
  613MOL0    Cl80828   6.157   0.777   8.742  0.6949 -0.4007  0.5188
  613MOL0     C80829   5.197   0.767   9.015 -0.0916  0.0490  0.0284
  613MOL0     C80830   5.068   0.795   9.070 -0.3230  0.2366  0.5340
  613MOL0     O80831   4.704   0.847   8.877  0.3967  0.5834 -0.6278
  613MOL0     C80832   4.570   0.763   9.194 -0.2846 -0.6584 -1.0071
  613MOL0     C80833   4.456   0.784   9.268  0.3052 -0.0954 -0.3450
  613MOL0     N80834   3.790   1.367   9.566 -1.2854  0.2946 -0.2670
  613MOL0     N80835   3.672   1.416   9.568  0.7066  0.1232 -0.1405
  613MOL0     C80836   3.580   0.728   9.575  1.3033  0.5266  0.8228
  613MOL0     C80837   3.696   0.681   9.515 -0.2186  0.0963 -0.0341
  613MOL0     C80838   3.956   0.544   9.174  0.4381  0.4240  0.6025
  613MOL0     C80839   4.078   0.609   9.183  0.2877 -0.1379 -0.5148
  613MOL0     C80840   4.175   0.594   9.088 -0.2538  0.1504 -0.4098
  613MOL0     C80841   4.158   0.485   9.002 -0.4177  0.1574 -1.0784
  613MOL0     O80842   4.254   0.469   8.913 -0.5799  0.5851 -0.1786
  613MOL0     C80843   4.300   0.340   8.869 -0.3655  0.4475 -0.4401
  613MOL0     C80844   4.450   0.329   8.850  0.4987  1.7413  0.3368
  613MOL0     C80845   4.535   0.399   8.952 -0.1027 -0.2256  0.4652
  613MOL0     C80846   4.676   0.367   8.928 -0.2416 -0.5446 -0.7811
  613MOL0     C80847   4.744   0.411   9.052 -0.7105  0.7293  0.1938
  613MOL0     C80848   4.798   0.448   9.149 -0.0974  0.6513 -1.2560
  613MOL0     C80849   4.043   0.421   8.991 -0.9982  0.6092  1.2125
  613MOL0     C80850   3.939   0.451   9.071 -0.4161  0.3839 -0.3425
  613MOL0     H80851   3.747   0.894   9.269 -1.1039  1.3647  0.0607
  613MOL0     H80852   3.540   1.001   9.361  0.3570 -0.3275 -2.1204
  613MOL0     H80853   3.341   0.778   9.713 -1.2777 -0.6064 -0.8323
  613MOL0     H80854   3.268   0.790   9.545  1.4533  2.8830 -4.1167
  613MOL0     H80855   3.234   1.010   9.740 -0.3947 -0.0891  0.4341
  613MOL0     H80856   3.131   0.874   9.756  1.1316  2.3877  3.1935
  613MOL0     H80857   3.006   1.013   9.603  0.5709 -2.0398  1.7573
  613MOL0     H80858   3.055   0.882   9.513 -4.6427 -0.7700  4.3327
  613MOL0     H80859   3.275   1.046   9.458  2.7211  1.9213  5.5565
  613MOL0     H80860   3.114   1.072   9.379 -0.2356  0.7247  1.2857
  613MOL0     H80861   3.217   1.201   9.633  0.4989 -1.7134  1.2630
  613MOL0     H80862   3.061   1.243   9.548  1.8388  3.3816  2.5163
  613MOL0     H80863   3.217   1.410   9.513  1.6744 -1.1564  0.5568
  613MOL0     H80864   3.209   1.328   9.353  2.2713 -1.4442 -0.6551
  613MOL0     H80865   3.416   1.211   9.413 -0.8001  0.2657 -1.6357
  613MOL0     H80866   3.451   1.371   9.386  0.3387 -1.9930 -0.4626
  613MOL0     H80867   3.407   1.270   9.677  0.6795 -1.7700 -0.7489
  613MOL0     H80868   3.428   1.439   9.633  0.8439 -0.1998  1.2586
  613MOL0     H80869   3.615   1.097   9.581  1.5241 -0.1134  0.8212
  613MOL0     H80870   3.866   1.039   9.622  2.1228 -0.5192  1.2431
  613MOL0     H80871   3.975   1.174   9.636  3.2633  0.1334 -2.9113
  613MOL0     H80872   4.003   1.202   9.396  0.7630 -1.2228 -3.3260
  613MOL0     H80873   3.879   1.077   9.370 -1.6666 -0.8922  2.0213
  613MOL0     H80874   4.137   1.028   9.534 -1.1267 -1.3687 -0.3504
  613MOL0     H80875   4.038   0.905   9.462 -0.3075  0.7754  2.1935
  613MOL0     H80876   4.226   1.103   9.309 -1.0804 -0.3880 -3.8870
  613MOL0     H80877   4.104   1.005   9.235 -0.0767 -2.2365  1.1430
  613MOL0     H80878   4.317   1.037   9.094  2.0139  0.9004 -2.0125
  613MOL0     H80879   4.510   0.998   8.946  1.0000 -2.4112  0.1485
  613MOL0     H80880   4.891   0.654   8.826  0.8144  0.6521 -0.7074
  613MOL0     H80881   5.108   0.614   8.733 -1.3148 -1.3643  0.3497
  613MOL0     H80882   5.528   0.684   8.840  0.0590 -1.3478  1.8445
  613MOL0     H80883   5.464   0.739   8.987 -2.0627  3.2651  0.8696
  613MOL0     H80884   5.367   0.934   8.887  0.9461 -0.2675  2.3799
  613MOL0     H80885   5.427   0.904   8.732  1.7475  2.7893  0.3550
  613MOL0     H80886   5.556   1.071   8.838 -2.0042 -0.7072 -1.6036
  613MOL0     H80887   5.654   0.957   8.762  2.9205  0.4181  1.6400
  613MOL0     H80888   5.699   1.055   9.013  0.2698  0.8232 -1.4000
  613MOL0     H80889   5.577   0.933   9.058 -0.5091 -2.1831 -0.0335
  613MOL0     H80890   5.717   0.734   8.993  1.1597 -0.6969 -3.1831
  613MOL0     H80891   5.781   0.831   9.115 -0.7138  5.3053 -0.2143
  613MOL0     H80892   5.951   0.919   8.989  0.8606 -1.4833 -0.0926
  613MOL0     H80893   5.866   0.864   8.834 -2.7527  1.4707  0.3865
  613MOL0     H80894   5.959   0.664   9.035  3.1632 -1.5491 -1.5193
  613MOL0     H80895   5.927   0.656   8.858 -0.7835  0.6911 -0.0239
  613MOL0     H80896   6.159   0.622   8.921 -1.9845 -0.2866  2.5486
  613MOL0     H80897   6.163   0.787   8.978 -1.6614  1.0209  0.3394
  613MOL0     H80898   5.272   0.814   9.078  0.5663 -1.7743  0.6630
  613MOL0     H80899   5.067   0.857   9.159  2.7343  1.5332 -0.2200
  613MOL0     H80900   4.641   0.685   9.219 -1.7034 -1.0665  2.2985
  613MOL0     H80901   4.449   0.729   9.361  0.2729  0.3598 -0.0747
  613MOL0     H80902   3.519   0.680   9.651 -1.8963 -0.8921 -2.3730
  613MOL0     H80903   3.740   0.593   9.560 -1.9543 -1.3175 -1.0159
  613MOL0     H80904   4.105   0.680   9.260  5.1361 -2.1646 -0.0222
  613MOL0     H80905   4.263   0.657   9.091  1.5898 -2.2979  0.9847
  613MOL0     H80906   4.238   0.299   8.789 -2.4842  1.3287  0.6444
  613MOL0     H80907   4.266   0.268   8.945 -2.7763  1.9494  0.0463
  613MOL0     H80908   4.482   0.224   8.849  2.1422  2.1498  2.3131
  613MOL0     H80909   4.478   0.363   8.749  0.7519  0.7258  0.0486
  613MOL0     H80910   4.502   0.369   9.052 -1.1436 -0.1041  0.1780
  613MOL0     H80911   4.509   0.505   8.945  1.2147  0.2080  1.6349
  613MOL0     H80912   4.693   0.259   8.920  0.3753 -0.3786 -1.9018
  613MOL0     H80913   4.711   0.422   8.840  0.1618 -2.6710 -2.0175
  613MOL0     H80914   4.834   0.499   9.236 -3.6649  0.9697  0.1599
  613MOL0     H80915   4.025   0.349   8.912 -0.0191  2.2618 -0.6172
  613MOL0     H80916   3.851   0.392   9.048  0.1166 -0.3110 -0.6346
  614MOL0     O80917   4.354  10.273   5.556 -0.6523  0.1116 -0.0578
  614MOL0     C80918   4.464  10.220   5.544 -0.2996  0.2662 -0.2078
  614MOL0     O80919   4.488  10.081   5.566  0.2583 -0.4590 -0.2724
  614MOL0     C80920   4.377   9.999   5.578  1.1234 -0.1694 -0.2166
  614MOL0     C80921   4.296   9.972   5.460 -0.7376  0.5934 -1.5670
  614MOL0     C80922   4.185   9.891   5.463  0.2026  0.1288 -0.3489
  614MOL0     C80923   4.150   9.824   5.583  0.0343 -0.0531  0.0491
  614MOL0     O80924   4.066   9.717   5.561 -0.5137  0.6972 -0.4743
  614MOL0     C80925   4.108   9.589   5.623 -0.0127  0.1009  0.1534
  614MOL0     C80926   3.998   9.480   5.635  0.4106 -0.6768 -0.6186
  614MOL0     C80927   3.975   9.414   5.502 -0.1522  0.4989  0.3151
  614MOL0     C80928   3.851   9.326   5.519  0.9218  0.1399  0.0317
  614MOL0     C80929   3.894   9.192   5.596 -0.6054 -1.1798  0.9140
  614MOL0     C80930   3.779   9.087   5.617  0.0630  0.7407 -0.6064
  614MOL0     C80931   3.825   8.980   5.722 -0.4756 -0.4674 -0.7795
  614MOL0     C80932   3.749   8.854   5.709  0.1791  0.0546 -0.3259
  614MOL0     N80933   3.607   8.862   5.726 -0.0328 -0.4871 -0.5741
  614MOL0     C80934   3.513   8.845   5.625 -0.5114 -0.2610  0.4628
  614MOL0     C80935   3.398   8.859   5.686  0.1294  0.3793 -0.3784
  614MOL0     C80936   3.248   8.863   5.621  0.0319 -0.3133  0.5615
  614MOL0     C80937   3.185   8.726   5.635  0.6932  0.9090 -0.4249
  614MOL0     C80938   3.159   8.684   5.782  0.8652 -0.1431  0.6113
  614MOL0     C80939   3.058   8.568   5.798  0.0790 -0.9402  0.4775
  614MOL0     O80940   2.975   8.599   5.905  0.6771  0.0329  0.2823
  614MOL0     C80941   2.854   8.542   5.909  0.0748  0.2528 -0.5875
  614MOL0     C80942   2.839   8.404   5.918 -0.2978 -0.0332 -0.3570
  614MOL0     C80943   2.711   8.351   5.939 -0.0979 -0.3817 -0.2075
  614MOL0     C80944   2.597   8.444   5.948 -0.1258  0.9175 -0.1946
  614MOL0     C80945   2.457   8.393   5.966  0.3639 -0.1951  0.2766
  614MOL0     O80946   2.374   8.451   6.065 -0.4473  0.7721 -0.3151
  614MOL0     C80947   2.244   8.408   6.077 -0.1391 -1.1067 -0.1196
  614MOL0     C80948   2.146   8.502   6.063  0.1413 -0.8453  0.2356
  614MOL0     C80949   2.013   8.468   6.071 -0.1368 -0.0514  0.1067
  614MOL0     C80950   1.975   8.336   6.086  0.4307 -0.5420 -0.0807
  614MOL0     O80951   1.836   8.317   6.091  0.1208  0.8329 -0.1958
  614MOL0     C80952   1.782   8.191   6.142 -0.1859  0.8812 -0.8433
  614MOL0     C80953   1.633   8.188   6.159 -0.5805 -0.5036  0.3789
  614MOL0     C80954   1.580   8.056   6.205  0.3836  0.3043 -0.0426
  614MOL0     C80955   1.432   8.051   6.237 -0.2515  0.2981  0.1255
  614MOL0     C80956   1.378   7.909   6.251 -0.1510  0.7411 -0.6189
  614MOL0     C80957   1.226   7.908   6.252  0.7936 -0.1665  0.3486
  614MOL0     C80958   1.175   7.775   6.309 -0.1377 -0.4549 -0.7224
  614MOL0     C80959   1.019   7.784   6.337  0.4471 -0.5294 -0.3193
  614MOL0    Cl80960   0.912   7.828   6.204 -0.1318  0.4181  0.2395
  614MOL0     C80961   2.073   8.234   6.101 -0.6391 -0.3855  1.3157
  614MOL0     C80962   2.211   8.275   6.105  0.3537  0.1066 -1.0714
  614MOL0     O80963   2.423   8.296   5.896  0.5199  0.2717 -0.1290
  614MOL0     C80964   2.615   8.579   5.907  0.3222 -0.1470  0.3227
  614MOL0     C80965   2.748   8.628   5.894 -0.2322  0.4952  0.0090
  614MOL0     N80966   3.421   8.859   5.826 -0.6003  0.8151  0.8263
  614MOL0     N80967   3.547   8.869   5.844  0.5290  0.5861 -0.3469
  614MOL0     C80968   4.225   9.849   5.695  0.4844 -0.3004  0.2204
  614MOL0     C80969   4.337   9.934   5.698 -0.1808  0.1634  0.4099
  614MOL0     C80970   4.589  10.301   5.532  0.7776 -0.6108 -0.1773
  614MOL0     C80971   4.716  10.245   5.550 -0.3604  1.0833 -0.3516
  614MOL0     C80972   4.833  10.309   5.516 -0.0024 -0.8205  0.0280
  614MOL0     C80973   4.825  10.440   5.455 -0.2493  0.1393 -0.2315
  614MOL0     O80974   4.939  10.487   5.402  0.7294 -0.7749  0.0270
  614MOL0     C80975   4.946  10.589   5.301 -0.8862 -0.6248  1.6677
  614MOL0     C80976   4.893  10.551   5.160 -0.7267 -0.0191  0.1577
  614MOL0     C80977   4.901  10.662   5.051 -0.8546 -0.0364  0.6223
  614MOL0     C80978   5.037  10.739   5.053 -0.3785  0.3897  0.0897
  614MOL0     C80979   5.065  10.799   4.919 -0.4239 -0.0439 -0.4057
  614MOL0     C80980   5.095  10.865   4.820  1.1883  0.1228 -1.0792
  614MOL0     C80981   4.701  10.509   5.447 -1.6140 -0.1708  0.1467
  614MOL0     C80982   4.588  10.438   5.481 -0.0913  0.3903 -0.4700
  614MOL0     H80983   4.327  10.009   5.362 -0.3866  2.8287 -0.6599
  614MOL0     H80984   4.139   9.882   5.365  1.0080 -0.0044 -0.7199
  614MOL0     H80985   4.153   9.605   5.721  1.7224  3.1104 -1.0079
  614MOL0     H80986   4.184   9.554   5.553 -0.0667 -0.9752  0.6023
  614MOL0     H80987   3.916   9.532   5.684  1.8585 -0.2930  1.5553
  614MOL0     H80988   4.034   9.404   5.706 -1.6137 -0.2742  0.9124
  614MOL0     H80989   4.062   9.353   5.475 -0.6438 -0.2743  0.4606
  614MOL0     H80990   3.956   9.483   5.419 -1.1661  1.8420  1.6038
  614MOL0     H80991   3.765   9.370   5.570 -0.2670 -0.8748 -1.0137
  614MOL0     H80992   3.809   9.307   5.419  2.6223 -0.0846 -0.6645
  614MOL0     H80993   3.928   9.219   5.696 -2.1527 -0.0747  1.1816
  614MOL0     H80994   3.959   9.132   5.532 -2.7394 -1.9721 -0.6401
  614MOL0     H80995   3.766   9.034   5.522 -0.2054 -3.2762  1.4257
  614MOL0     H80996   3.684   9.138   5.635 -0.1103  0.2490 -0.0957
  614MOL0     H80997   3.932   8.958   5.709  0.0499 -0.2991  2.4584
  614MOL0     H80998   3.830   9.021   5.824 -0.6126  1.4594 -1.4944
  614MOL0     H80999   3.782   8.775   5.776 -4.8823 -2.3126 -0.1290
  614MOL0     H81000   3.766   8.815   5.608 -2.0257  1.2758 -1.2562
  614MOL0     H81001   3.530   8.827   5.520  1.3433  0.2438  0.6568
  614MOL0     H81002   3.268   8.875   5.514 -3.9392  0.9311 -0.2310
  614MOL0     H81003   3.182   8.942   5.659 -1.7359 -0.2557 -2.3581
  614MOL0     H81004   3.252   8.654   5.587 -1.7131 -1.3327 -0.6148
  614MOL0     H81005   3.083   8.726   5.597 -0.3366  1.9294  2.1241
  614MOL0     H81006   3.250   8.653   5.835 -1.1393 -1.9244  3.2732
  614MOL0     H81007   3.104   8.761   5.838 -2.2355 -2.5165  1.1148
  614MOL0     H81008   3.104   8.469   5.808 -0.9893 -1.4975  0.0637
  614MOL0     H81009   3.016   8.547   5.699  0.8176  0.9139 -0.2672
  614MOL0     H81010   2.924   8.336   5.928  0.5831  1.2648  1.6527
  614MOL0     H81011   2.700   8.244   5.957  1.4663 -1.4360 -4.2330
  614MOL0     H81012   2.177   8.604   6.041  3.4794 -2.0382 -1.4498
  614MOL0     H81013   1.934   8.537   6.043 -0.2792  0.5291  1.8696
  614MOL0     H81014   1.839   8.163   6.231  1.5901  3.1063 -1.2016
  614MOL0     H81015   1.813   8.114   6.071  2.0154  1.3654 -0.4864
  614MOL0     H81016   1.591   8.220   6.064  1.8280  2.1501  0.0709
  614MOL0     H81017   1.610   8.270   6.228  1.5965  0.6615 -0.1944
  614MOL0     H81018   1.620   8.032   6.304 -1.6738  2.8077  1.5170
  614MOL0     H81019   1.611   7.980   6.133  1.4429  0.7568 -0.0654
  614MOL0     H81020   1.432   8.112   6.328  1.1711 -0.0929  0.4129
  614MOL0     H81021   1.369   8.100   6.162 -1.3565 -0.7850  0.3247
  614MOL0     H81022   1.410   7.885   6.353 -3.7230 -3.1150 -0.1612
  614MOL0     H81023   1.408   7.839   6.173  1.7580  0.4349  0.3168
  614MOL0     H81024   1.186   7.916   6.151 -4.7285  0.1065  2.1906
  614MOL0     H81025   1.184   7.990   6.311 -0.2973  0.6960 -1.5412
  614MOL0     H81026   1.196   7.694   6.239  1.4456  1.1950 -2.2792
  614MOL0     H81027   1.234   7.752   6.398 -1.4376 -2.4727 -0.3014
  614MOL0     H81028   1.015   7.851   6.424 -0.3215 -2.8401  1.5451
  614MOL0     H81029   0.997   7.685   6.376 -3.1561  0.8642  1.6731
  614MOL0     H81030   2.049   8.130   6.121  1.2280 -0.9034  1.0063
  614MOL0     H81031   2.289   8.202   6.118  0.1289  0.1985  1.2483
  614MOL0     H81032   2.528   8.640   5.883  1.1826  0.3694 -1.6527
  614MOL0     H81033   2.755   8.735   5.877 -2.6166  0.4425 -1.8047
  614MOL0     H81034   4.200   9.790   5.782  0.1120 -0.3004  0.1151
  614MOL0     H81035   4.385   9.944   5.795  0.6903 -1.9560  0.2402
  614MOL0     H81036   4.735  10.150   5.601 -2.1600  2.4765  3.3186
  614MOL0     H81037   4.935  10.277   5.534  0.0913 -0.2242  0.6025
  614MOL0     H81038   5.050  10.621   5.300 -1.3393  1.0253  3.0515
  614MOL0     H81039   4.908  10.689   5.325  0.0054  0.5187 -1.3414
  614MOL0     H81040   4.938  10.456   5.133 -2.2190 -0.7969  0.2957
  614MOL0     H81041   4.786  10.528   5.164 -0.2738 -2.6387 -0.8595
  614MOL0     H81042   4.816  10.730   5.063 -1.0083 -0.4446  1.9387
  614MOL0     H81043   4.896  10.619   4.950  2.6865  2.3540 -0.7777
  614MOL0     H81044   5.039  10.822   5.125  2.9867 -1.6560  2.6843
  614MOL0     H81045   5.116  10.668   5.079 -2.8579 -1.4182  3.6088
  614MOL0     H81046   5.102  10.916   4.725 -5.0584 -0.2696 -2.1617
  614MOL0     H81047   4.688  10.611   5.414 -0.2691  0.5373  1.6625
  614MOL0     H81048   4.487  10.474   5.463  0.9307  2.4306 -2.6698
  615MOL0     O81049   5.382   3.862   0.052  0.0310 -0.2078  0.5636
  615MOL0     C81050   5.454   3.872  -0.048 -0.6503 -0.9774  0.7952
  615MOL0     O81051   5.429   3.952  -0.156  0.0833 -0.4656 -0.3059
  615MOL0     C81052   5.298   3.999  -0.148 -0.2387 -0.2881  0.3084
  615MOL0     C81053   5.191   3.919  -0.182 -0.5441  0.3845 -0.6128
  615MOL0     C81054   5.062   3.986  -0.182 -0.4669 -0.0571  0.0076
  615MOL0     C81055   5.045   4.116  -0.152 -0.8207 -0.7915  0.3595
  615MOL0     O81056   4.930   4.176  -0.127 -0.4891  0.2345 -0.2674
  615MOL0     C81057   4.836   4.150  -0.234 -0.5792  0.2327  0.1753
  615MOL0     C81058   4.775   4.278  -0.283  0.5670  0.7742 -0.1157
  615MOL0     C81059   4.638   4.261  -0.354 -0.4264 -0.4668  0.3495
  615MOL0     C81060   4.528   4.198  -0.270  0.2657  0.5063  0.3623
  615MOL0     C81061   4.421   4.151  -0.368 -0.2288 -0.3201  0.0652
  615MOL0     C81062   4.280   4.124  -0.301 -0.7023 -0.6012 -0.2456
  615MOL0     C81063   4.273   4.054  -0.160  0.2745  0.0510  0.3668
  615MOL0     C81064   4.128   4.000  -0.142 -0.0114  0.0699 -0.5841
  615MOL0     N81065   4.019   4.101  -0.125 -0.7348  0.2996  1.0392
  615MOL0     C81066   3.961   4.146  -0.011 -0.1909  0.2187 -0.4295
  615MOL0     C81067   3.883   4.256  -0.052  0.6405 -0.0434  0.0188
  615MOL0     C81068   3.817   4.354   0.033  0.2471 -0.3489  0.4129
  615MOL0     C81069   3.882   4.490   0.043 -0.6723  0.1241  0.6043
  615MOL0     C81070   3.861   4.588  -0.081 -0.3274  0.2656  0.0281
  615MOL0     C81071   3.722   4.630  -0.092  0.3412 -0.3642 -0.5622
  615MOL0     O81072   3.704   4.733  -0.190  0.2782 -0.2826  0.0449
  615MOL0     C81073   3.575   4.779  -0.214  0.5548  0.4993 -0.2267
  615MOL0     C81074   3.573   4.904  -0.277  0.1079  0.2473 -0.3726
  615MOL0     C81075   3.448   4.969  -0.302 -0.5635 -0.3912  0.1781
  615MOL0     C81076   3.328   4.908  -0.267 -1.4178  0.1274  0.3491
  615MOL0     C81077   3.199   4.969  -0.300  0.1293 -0.1535 -0.0818
  615MOL0     O81078   3.090   4.912  -0.232  0.5388 -0.1172 -0.1311
  615MOL0     C81079   2.967   4.984  -0.214 -0.3297  0.2121  0.6686
  615MOL0     C81080   2.922   5.090  -0.292  0.2215 -0.4320  0.4711
  615MOL0     C81081   2.807   5.162  -0.253 -0.2114  0.7634  0.1071
  615MOL0     C81082   2.721   5.120  -0.148  0.9494 -0.0386  0.0383
  615MOL0     O81083   2.604   5.179  -0.115 -0.1058 -0.7954 -0.0379
  615MOL0     C81084   2.487   5.094  -0.098  0.4300 -0.4001 -0.6507
  615MOL0     C81085   2.463   5.035  -0.235  0.4822 -0.5317  0.9964
  615MOL0     C81086   2.316   4.970  -0.233 -0.5398  0.0490  0.3746
  615MOL0     C81087   2.316   4.829  -0.185 -0.0269 -0.0131  1.0534
  615MOL0     C81088   2.186   4.753  -0.224 -0.9196 -0.5182 -0.0348
  615MOL0     C81089   2.078   4.835  -0.155 -0.3581  0.4413  0.0739
  615MOL0     C81090   1.941   4.757  -0.138  0.4298 -0.1716  0.0745
  615MOL0     C81091   1.873   4.699  -0.263  0.3313 -0.4568 -0.6274
  615MOL0    Cl81092   1.898   4.524  -0.251  0.0439  0.3132  0.4084
  615MOL0     C81093   2.767   5.006  -0.081 -0.1442  0.0517 -0.3570
  615MOL0     C81094   2.889   4.940  -0.109  0.7829  0.2564 -0.0867
  615MOL0     O81095   3.207   5.077  -0.361  0.4287  0.9274 -0.0049
  615MOL0     C81096   3.336   4.778  -0.218 -0.3809 -1.1515 -0.3689
  615MOL0     C81097   3.456   4.709  -0.189 -0.3007 -0.2537  1.0853
  615MOL0     N81098   3.906   4.267  -0.184  0.7546 -0.1362 -0.2435
  615MOL0     N81099   3.974   4.173  -0.230 -0.7755  0.2569 -0.4842
  615MOL0     C81100   5.157   4.189  -0.122 -1.2973 -0.1076  0.5303
  615MOL0     C81101   5.284   4.131  -0.119 -1.2351  0.4199  0.1902
  615MOL0     C81102   5.576   3.796  -0.055 -0.4409  1.1628 -0.1949
  615MOL0     C81103   5.583   3.661   0.006 -0.0940  0.1901 -0.3083
  615MOL0     C81104   5.708   3.596   0.015  0.5754  0.8709 -0.1032
  615MOL0     C81105   5.821   3.653  -0.051 -0.0235 -0.1858  0.2915
  615MOL0     O81106   5.940   3.583  -0.047  0.0239 -0.4499 -0.6803
  615MOL0     C81107   6.070   3.640  -0.065 -0.2691 -0.1269 -1.2810
  615MOL0     C81108   6.169   3.526  -0.027  0.0918  0.2693 -0.3322
  615MOL0     C81109   6.319   3.570  -0.018  0.0839  0.2220  0.7656
  615MOL0     C81110   6.349   3.706   0.040 -0.7387 -0.5401 -0.4644
  615MOL0     C81111   6.294   3.726   0.167  0.2491 -0.8658 -0.4274
  615MOL0     C81112   6.250   3.735   0.275 -0.5734  0.1438  0.0702
  615MOL0     C81113   5.808   3.777  -0.113 -0.1315  0.2984  0.2281
  615MOL0     C81114   5.688   3.854  -0.114  0.5775 -0.3553 -0.8615
  615MOL0     H81115   5.208   3.813  -0.199 -2.4000  0.2008 -1.5669
  615MOL0     H81116   4.966   3.946  -0.213 -0.8756  2.3211 -2.1699
  615MOL0     H81117   4.767   4.071  -0.201  1.0121 -0.4756  1.9668
  615MOL0     H81118   4.894   4.111  -0.318  1.0400  1.2480  0.7937
  615MOL0     H81119   4.835   4.337  -0.353 -0.4761  2.6235  0.4740
  615MOL0     H81120   4.746   4.339  -0.197  0.1724  1.5190 -0.7658
  615MOL0     H81121   4.656   4.201  -0.444  2.6895  0.3242  0.3346
  615MOL0     H81122   4.607   4.359  -0.391  2.9568 -0.3849 -2.7920
  615MOL0     H81123   4.564   4.120  -0.202  2.4788  1.9148  0.8967
  615MOL0     H81124   4.494   4.275  -0.201  1.5740  2.7272 -1.3446
  615MOL0     H81125   4.458   4.059  -0.415  0.2459  0.1026 -0.4018
  615MOL0     H81126   4.409   4.228  -0.445  2.5157  1.2583  1.0684
  615MOL0     H81127   4.222   4.063  -0.370 -0.4797  1.9243 -2.8427
  615MOL0     H81128   4.236   4.224  -0.299 -0.0852 -0.3123  1.4829
  615MOL0     H81129   4.340   3.968  -0.149 -1.9418 -1.5353  2.6129
  615MOL0     H81130   4.293   4.123  -0.078  0.2897  1.6802 -0.9698
  615MOL0     H81131   4.125   3.931  -0.057 -1.6594 -0.7515 -1.2580
  615MOL0     H81132   4.107   3.939  -0.230 -0.1236  0.9274 -1.1649
  615MOL0     H81133   3.981   4.112   0.090 -0.9785 -1.7614 -0.9018
  615MOL0     H81134   3.809   4.311   0.133 -1.3805 -2.0559 -0.3770
  615MOL0     H81135   3.719   4.369  -0.014  0.9773  1.1065 -0.7289
  615MOL0     H81136   3.991   4.483   0.043 -0.6683  0.1808  0.4151
  615MOL0     H81137   3.861   4.535   0.141 -0.6736  0.6885  0.3462
  615MOL0     H81138   3.931   4.671  -0.069 -0.9249  0.4043  3.9126
  615MOL0     H81139   3.880   4.543  -0.179 -0.3544  2.0518 -0.8283
  615MOL0     H81140   3.677   4.663   0.002  1.9697 -0.0539  0.1405
  615MOL0     H81141   3.662   4.544  -0.121 -1.8367  1.0913 -0.6541
  615MOL0     H81142   3.668   4.944  -0.310 -0.3176  0.0203 -1.9512
  615MOL0     H81143   3.441   5.068  -0.346 -0.8347  0.0702  1.2220
  615MOL0     H81144   2.979   5.123  -0.379  0.7732  1.4606  1.4916
  615MOL0     H81145   2.777   5.251  -0.307 -0.3325  0.9788  0.5219
  615MOL0     H81146   2.404   5.154  -0.059 -0.9392 -3.1943  1.0030
  615MOL0     H81147   2.504   5.020  -0.020  0.6138 -1.8158 -1.9876
  615MOL0     H81148   2.535   4.958  -0.265  1.0739  1.1865 -2.4278
  615MOL0     H81149   2.461   5.125  -0.297  2.1599  1.5565  3.7490
  615MOL0     H81150   2.279   4.970  -0.336 -0.4626  1.3397  0.3309
  615MOL0     H81151   2.252   5.043  -0.183 -0.4332  1.6943 -1.7234
  615MOL0     H81152   2.402   4.768  -0.213 -0.1933  0.2284 -0.0213
  615MOL0     H81153   2.342   4.842  -0.079  2.2986  2.3285  0.3029
  615MOL0     H81154   2.185   4.652  -0.181 -1.2216 -0.4855  0.0405
  615MOL0     H81155   2.161   4.765  -0.330  0.6390  0.6005 -0.3074
  615MOL0     H81156   2.069   4.929  -0.211 -1.8738  0.7854  0.8445
  615MOL0     H81157   2.104   4.869  -0.055 -0.6373  2.5278 -0.5179
  615MOL0     H81158   1.946   4.689  -0.052 -1.8457  1.7061  1.8271
  615MOL0     H81159   1.873   4.834  -0.101  1.2935  0.4394  0.4346
  615MOL0     H81160   1.918   4.740  -0.354  0.8248  1.3563  0.3639
  615MOL0     H81161   1.767   4.717  -0.246  0.6817 -0.1668  1.6574
  615MOL0     H81162   2.708   4.966   0.001  1.3122  0.0065  0.7115
  615MOL0     H81163   2.915   4.856  -0.044 -0.0409  0.5164  0.6056
  615MOL0     H81164   3.244   4.723  -0.207 -0.6360 -0.6570  0.0388
  615MOL0     H81165   3.459   4.608  -0.150 -0.2604  0.1144  2.0472
  615MOL0     H81166   5.147   4.296  -0.107 -1.6418  0.1397 -1.2603
  615MOL0     H81167   5.376   4.187  -0.104  1.1852 -3.0280 -0.6048
  615MOL0     H81168   5.497   3.612   0.050 -2.0763  1.4259 -2.6029
  615MOL0     H81169   5.721   3.500   0.064  2.4628  0.8298 -0.6125
  615MOL0     H81170   6.086   3.738  -0.020 -1.1285 -1.4922  2.2880
  615MOL0     H81171   6.093   3.666  -0.169  0.8848  2.1978 -0.5068
  615MOL0     H81172   6.144   3.485   0.072  0.2520  1.2026  0.0986
  615MOL0     H81173   6.165   3.447  -0.102  1.8976 -0.0824 -0.0992
  615MOL0     H81174   6.350   3.571  -0.122 -1.2710 -3.8948  0.1459
  615MOL0     H81175   6.382   3.494   0.029  2.0097  1.4952  0.3488
  615MOL0     H81176   6.458   3.716   0.051 -0.4750 -0.9444 -2.3557
  615MOL0     H81177   6.318   3.796  -0.014  1.4598  1.5888  1.5595
  615MOL0     H81178   6.211   3.727   0.374 -2.5275 -3.8830 -0.8380
  615MOL0     H81179   5.893   3.829  -0.156  0.3223 -1.0693 -0.5951
  615MOL0     H81180   5.705   3.959  -0.134 -0.8653 -0.1508 -1.0805
  616MOL0     O81181  11.162   8.590   0.857 -0.0009  0.0128 -0.5986
  616MOL0     C81182  11.158   8.670   0.763 -0.4011  0.3945  0.7110
  616MOL0     O81183  11.054   8.691   0.679  0.7282 -0.0339 -0.2802
  616MOL0     C81184  10.929   8.643   0.701  0.6907  0.3418 -0.5651
  616MOL0     C81185  10.826   8.733   0.692 -0.1086  0.7844 -1.3286
  616MOL0     C81186  10.697   8.695   0.733 -0.2745 -0.3181  0.4327
  616MOL0     C81187  10.670   8.557   0.758  0.6885 -0.1128  0.3758
  616MOL0     O81188  10.542   8.523   0.792  1.5452 -0.7522 -0.0163
  616MOL0     C81189  10.451   8.548   0.680  1.0621 -0.1202 -0.4743
  616MOL0     C81190  10.325   8.469   0.703 -0.7539  0.5484  0.2140
  616MOL0     C81191  10.266   8.484   0.838 -0.1964  0.0566  0.7182
  616MOL0     C81192  10.132   8.402   0.835 -0.4300  0.8023 -0.4685
  616MOL0     C81193  10.065   8.390   0.976 -0.5634 -0.1847 -0.6043
  616MOL0     C81194   9.964   8.271   0.978 -0.5698 -0.5384  0.2359
  616MOL0     C81195   9.881   8.275   1.103 -0.4457  0.5451 -0.1918
  616MOL0     C81196   9.800   8.141   1.108  0.8526  0.0417 -0.6426
  616MOL0     N81197   9.745   8.105   1.241 -0.1594 -0.1654 -0.5453
  616MOL0     C81198   9.781   7.994   1.316  0.4005 -0.1863 -0.0446
  616MOL0     C81199   9.719   8.003   1.436  0.4698  0.4287  0.7356
  616MOL0     C81200   9.705   7.902   1.543 -0.3803  0.0454  1.0568
  616MOL0     C81201   9.588   7.813   1.506  0.0276  0.0156 -0.6105
  616MOL0     C81202   9.576   7.691   1.603  0.3217  0.0663  0.4959
  616MOL0     C81203   9.490   7.583   1.539  0.3129  0.5870  0.5830
  616MOL0     O81204   9.370   7.630   1.476  0.0321  0.4250 -0.1845
  616MOL0     C81205   9.266   7.547   1.475  0.2016 -0.1430 -0.9332
  616MOL0     C81206   9.283   7.405   1.455 -0.4235  0.3407  0.2482
  616MOL0     C81207   9.170   7.326   1.459  0.6452 -0.6480  0.8182
  616MOL0     C81208   9.037   7.378   1.474 -0.3272  0.3706 -0.0864
  616MOL0     C81209   8.915   7.286   1.488 -0.0192 -0.6847 -0.0763
  616MOL0     O81210   8.799   7.323   1.561 -0.2800  0.4728  0.5298
  616MOL0     C81211   8.721   7.222   1.617 -0.5428 -1.4881  0.2569
  616MOL0     C81212   8.748   7.161   1.744  0.4486  0.6210  0.3524
  616MOL0     C81213   8.666   7.060   1.797  0.3640  0.5818 -0.2301
  616MOL0     C81214   8.538   7.047   1.741 -0.9477  0.2045 -0.0712
  616MOL0     O81215   8.448   6.967   1.813 -0.6311 -0.3655  0.5339
  616MOL0     C81216   8.314   7.010   1.811  0.1048 -0.5790  0.7167
  616MOL0     C81217   8.251   7.005   1.943  0.5798  0.5516 -0.5625
  616MOL0     C81218   8.095   7.026   1.933 -0.4681  0.2006 -0.1120
  616MOL0     C81219   8.027   6.954   2.057  0.2350 -0.5244  0.6853
  616MOL0     C81220   7.877   6.978   2.085 -0.9275  0.4358 -0.3618
  616MOL0     C81221   7.772   6.975   1.983 -0.4523 -0.0391  0.5138
  616MOL0     C81222   7.646   6.916   2.058  0.3698  0.8497 -0.3833
  616MOL0     C81223   7.517   6.923   1.993 -0.2370 -0.1202  0.7073
  616MOL0    Cl81224   7.487   7.101   1.940 -0.3330  0.1497  0.4246
  616MOL0     C81225   8.505   7.109   1.617  0.2660 -0.4229  0.2788
  616MOL0     C81226   8.598   7.195   1.556 -0.3025 -0.2018 -0.6526
  616MOL0     O81227   8.945   7.177   1.446 -0.4203  0.2127 -0.1888
  616MOL0     C81228   9.029   7.516   1.509 -0.4039 -0.4058 -0.1884
  616MOL0     C81229   9.140   7.589   1.515 -0.6278 -0.2659 -0.0659
  616MOL0     N81230   9.662   8.132   1.435  0.4127 -0.1810 -0.2454
  616MOL0     N81231   9.687   8.198   1.326  0.2419  0.2603 -0.4281
  616MOL0     C81232  10.774   8.461   0.759  0.0889 -0.4470 -0.3130
  616MOL0     C81233  10.904   8.510   0.743  0.0308  0.0665 -0.6779
  616MOL0     C81234  11.289   8.721   0.705 -0.7249 -0.4092 -0.0408
  616MOL0     C81235  11.405   8.724   0.785 -1.1283 -0.8986 -0.1507
  616MOL0     C81236  11.523   8.778   0.740  0.1217 -0.3377 -0.6504
  616MOL0     C81237  11.544   8.815   0.609  0.4037  0.1214  0.0726
  616MOL0     O81238  11.676   8.833   0.574 -0.0520 -0.6051 -0.2435
  616MOL0     C81239  11.714   8.889   0.441  0.0670  0.0278 -0.4604
  616MOL0     C81240  11.771   9.027   0.462 -0.8505 -0.4488 -1.1411
  616MOL0     C81241  11.902   9.022   0.547  0.5899  0.1075  0.1401
  616MOL0     C81242  12.033   8.968   0.486 -0.3189 -1.3161  0.2423
  616MOL0     C81243  12.075   9.084   0.392  0.1574  0.0988  0.2943
  616MOL0     C81244  12.101   9.185   0.322 -0.1678  0.3253  0.3543
  616MOL0     C81245  11.427   8.822   0.534 -0.1254  0.2343 -0.8012
  616MOL0     C81246  11.307   8.766   0.575  0.2801 -0.7255 -1.3147
  616MOL0     H81247  10.851   8.834   0.659  0.1489  0.9071 -0.7740
  616MOL0     H81248  10.619   8.770   0.731 -0.2557 -0.3146 -0.7935
  616MOL0     H81249  10.498   8.525   0.584 -1.1618 -0.3292 -1.5657
  616MOL0     H81250  10.410   8.650   0.678  0.3265 -0.4241 -0.8971
  616MOL0     H81251  10.332   8.362   0.685  0.1235 -0.4568  5.1418
  616MOL0     H81252  10.253   8.500   0.626 -0.7773 -1.4919 -0.6392
  616MOL0     H81253  10.254   8.590   0.863 -0.5674  0.1035  0.3470
  616MOL0     H81254  10.329   8.453   0.922 -1.8083  1.2085  2.4518
  616MOL0     H81255  10.053   8.432   0.767 -2.8063  0.5694  2.0273
  616MOL0     H81256  10.165   8.301   0.808 -1.1348  0.2261  0.7175
  616MOL0     H81257  10.021   8.488   0.997  0.2309 -0.1010  0.7382
  616MOL0     H81258  10.141   8.369   1.051 -0.9808 -1.1674 -0.4411
  616MOL0     H81259  10.016   8.175   0.973  0.1457 -0.1874  0.7291
  616MOL0     H81260   9.907   8.277   0.885  0.1600  0.6052 -0.1605
  616MOL0     H81261   9.943   8.280   1.193 -4.1368  2.9325  2.5550
  616MOL0     H81262   9.818   8.364   1.113  0.2034  1.0365 -0.4221
  616MOL0     H81263   9.865   8.059   1.075  0.7997 -0.6764  0.9003
  616MOL0     H81264   9.720   8.147   1.035  0.2972  0.1938 -0.0339
  616MOL0     H81265   9.839   7.916   1.268 -1.9975 -0.9695 -1.8635
  616MOL0     H81266   9.718   7.950   1.641 -1.2241 -0.1743  1.2779
  616MOL0     H81267   9.796   7.843   1.528 -0.4318 -0.3908  2.3220
  616MOL0     H81268   9.591   7.763   1.409 -0.4197 -2.6844  0.6634
  616MOL0     H81269   9.499   7.875   1.521  1.5986  1.8336  1.8524
  616MOL0     H81270   9.678   7.653   1.609  0.5135  0.0297 -1.8849
  616MOL0     H81271   9.525   7.718   1.696 -0.6195  2.8385 -0.7242
  616MOL0     H81272   9.449   7.524   1.622  0.0911  2.4091  1.8180
  616MOL0     H81273   9.547   7.517   1.473  0.0373  0.8798  0.0468
  616MOL0     H81274   9.368   7.351   1.417 -0.0907 -0.4764  2.0545
  616MOL0     H81275   9.182   7.219   1.445 -0.6113 -0.5822 -1.1456
  616MOL0     H81276   8.837   7.185   1.801 -1.9723  2.7430  3.6039
  616MOL0     H81277   8.691   7.016   1.893 -1.1020 -0.9093 -0.4835
  616MOL0     H81278   8.252   6.951   1.744 -4.6702  4.0854  0.3288
  616MOL0     H81279   8.316   7.114   1.775  1.1416 -0.4826  1.0161
  616MOL0     H81280   8.287   7.080   2.013  1.2203 -1.2094  1.0754
  616MOL0     H81281   8.283   6.906   1.976  2.3147  1.0455 -0.7137
  616MOL0     H81282   8.051   6.971   1.849  1.5003 -2.6309  0.5453
  616MOL0     H81283   8.070   7.132   1.936 -0.7012  0.1336  0.4263
  616MOL0     H81284   8.034   6.846   2.038 -0.0093 -0.2460 -1.2723
  616MOL0     H81285   8.089   6.967   2.145 -1.0804  2.5841  1.2631
  616MOL0     H81286   7.862   7.059   2.157  0.1718  0.2656  0.0699
  616MOL0     H81287   7.869   6.894   2.156 -1.7657 -0.9838 -2.0591
  616MOL0     H81288   7.789   6.915   1.893 -1.1933  1.4907 -0.7024
  616MOL0     H81289   7.754   7.079   1.954  0.2915  0.6988  2.5604
  616MOL0     H81290   7.675   6.811   2.060 -0.0797  0.5212 -4.0258
  616MOL0     H81291   7.634   6.965   2.155 -1.6456  0.1569 -0.2283
  616MOL0     H81292   7.430   6.889   2.051  0.5858 -2.1267  0.8230
  616MOL0     H81293   7.512   6.867   1.900 -2.6894  1.3315 -0.1287
  616MOL0     H81294   8.408   7.094   1.569  0.9744  1.8266 -2.0552
  616MOL0     H81295   8.559   7.245   1.468 -1.4188  0.4123  0.1455
  616MOL0     H81296   8.933   7.564   1.523 -1.1205 -2.5891  3.9606
  616MOL0     H81297   9.146   7.697   1.526 -0.6230 -0.2234 -0.4791
  616MOL0     H81298  10.762   8.354   0.769  2.4135 -0.9257 -1.7859
  616MOL0     H81299  10.986   8.438   0.742  0.1035  0.1535 -1.0622
  616MOL0     H81300  11.404   8.690   0.888  2.0515 -0.7202  0.0202
  616MOL0     H81301  11.612   8.775   0.802 -1.1413  1.0351  1.3299
  616MOL0     H81302  11.629   8.916   0.377  1.8156  1.8043 -2.1744
  616MOL0     H81303  11.777   8.822   0.381 -1.1929 -1.1558 -0.5260
  616MOL0     H81304  11.790   9.072   0.364  3.2134 -1.5559 -1.0343
  616MOL0     H81305  11.700   9.085   0.521  2.0647  0.7018  1.5008
  616MOL0     H81306  11.876   8.960   0.633 -2.9639  0.4336 -0.5486
  616MOL0     H81307  11.915   9.127   0.576  1.0329 -0.2780  1.4136
  616MOL0     H81308  12.104   8.948   0.567  1.7018  6.2785  1.1573
  616MOL0     H81309  12.015   8.875   0.431  2.5345 -2.2027  0.6317
  616MOL0     H81310  12.129   9.265   0.257 -1.3509 -1.4830 -2.6553
  616MOL0     H81311  11.448   8.845   0.430  4.7238 -0.5595 -0.2736
  616MOL0     H81312  11.226   8.755   0.504  0.4902  0.5497 -1.7690
  617MOL0     O81313   0.227   1.014   0.471  0.3433 -0.0989 -0.0547
  617MOL0     C81314   0.269   1.118   0.515 -0.1841  0.1914  0.8369
  617MOL0     O81315   0.210   1.195   0.607  0.2153  0.1698 -0.7875
  617MOL0     C81316   0.076   1.181   0.648 -0.0140  0.1605  0.4778
  617MOL0     C81317   0.041   1.225   0.773 -0.0460  0.9354 -0.3795
  617MOL0     C81318  -0.086   1.219   0.830 -0.1087  0.5513  0.0697
  617MOL0     C81319  -0.197   1.175   0.747 -0.0870 -0.1741 -0.5847
  617MOL0     O81320  -0.328   1.164   0.777  0.1190 -0.0981  0.3645
  617MOL0     C81321  -0.367   1.251   0.884  0.2005 -1.0548 -0.7462
  617MOL0     C81322  -0.515   1.239   0.895 -0.9621  0.1527  0.8022
  617MOL0     C81323  -0.555   1.115   0.957  0.7481 -0.4318  0.3448
  617MOL0     C81324  -0.711   1.105   0.941  0.1297 -0.9155 -0.7132
  617MOL0     C81325  -0.766   1.057   0.809  0.2858 -0.0921  0.6363
  617MOL0     C81326  -0.921   1.033   0.809 -0.8872  0.5038  0.3992
  617MOL0     C81327  -1.006   1.152   0.797 -0.1101 -0.1645 -0.2554
  617MOL0     C81328  -1.155   1.121   0.825  0.3859 -0.8886  0.2066
  617MOL0     N81329  -1.238   1.238   0.856  0.2117  0.3200  0.1537
  617MOL0     C81330  -1.189   1.362   0.890  0.0394  0.2267  0.4438
  617MOL0     C81331  -1.301   1.441   0.902 -0.8585 -0.4976  0.0996
  617MOL0     C81332  -1.302   1.570   0.975  0.2885 -0.8734 -0.0516
  617MOL0     C81333  -1.443   1.628   0.997  1.1475  0.3475  0.7457
  617MOL0     C81334  -1.503   1.681   0.863 -0.8720 -0.0924  0.3853
  617MOL0     C81335  -1.646   1.742   0.876  1.3006 -0.6411  0.0804
  617MOL0     O81336  -1.641   1.874   0.932 -0.2818 -1.2494  0.1774
  617MOL0     C81337  -1.748   1.958   0.915  1.1740 -0.0338 -0.4780
  617MOL0     C81338  -1.721   2.095   0.898  1.1695 -0.2781  0.3771
  617MOL0     C81339  -1.827   2.186   0.901 -0.1859 -0.4259  0.7191
  617MOL0     C81340  -1.957   2.143   0.918 -0.2158  0.6547 -0.5352
  617MOL0     C81341  -2.072   2.241   0.919 -0.4368  0.1460 -0.7020
  617MOL0     O81342  -2.195   2.192   0.952  0.5982  0.4066  0.4994
  617MOL0     C81343  -2.304   2.280   0.948 -0.6374 -0.4696  0.2394
  617MOL0     C81344  -2.365   2.310   0.833  0.2217 -0.4412  0.3620
  617MOL0     C81345  -2.472   2.407   0.829  0.0364  0.4300  1.2587
  617MOL0     C81346  -2.525   2.463   0.943 -0.5638  0.4053  0.2264
  617MOL0     O81347  -2.634   2.542   0.923 -0.2918 -0.0543  0.0630
  617MOL0     C81348  -2.682   2.625   1.023  0.8899 -0.4787  0.1085
  617MOL0     C81349  -2.752   2.730   0.951 -0.1005 -0.9849  0.2094
  617MOL0     C81350  -2.802   2.846   1.044 -1.0246  0.0689  0.3221
  617MOL0     C81351  -2.869   2.957   0.959  0.3666  0.0993  0.1712
  617MOL0     C81352  -2.941   3.061   1.042  0.5585 -0.5186 -0.1095
  617MOL0     C81353  -3.004   3.175   0.955 -0.1644 -0.2528 -1.2594
  617MOL0     C81354  -3.122   3.128   0.861  0.1362 -0.2413 -0.0871
  617MOL0     C81355  -3.213   3.247   0.823 -0.6166 -0.2770  0.1602
  617MOL0    Cl81356  -3.120   3.367   0.722  0.1008 -0.3805  0.3905
  617MOL0     C81357  -2.471   2.424   1.065  0.3299 -1.2532  1.2333
  617MOL0     C81358  -2.353   2.341   1.066  0.4642  0.5177 -0.6252
  617MOL0     O81359  -2.041   2.360   0.899  0.2555 -0.4549 -0.6246
  617MOL0     C81360  -1.982   2.007   0.939 -0.1662  0.5409  0.2795
  617MOL0     C81361  -1.876   1.913   0.936  0.3412 -0.5030 -0.4047
  617MOL0     N81362  -1.409   1.360   0.882  1.2277  0.0588  0.1908
  617MOL0     N81363  -1.369   1.244   0.847  0.2849  0.4930 -0.5434
  617MOL0     C81364  -0.161   1.123   0.622 -0.3445  0.6591  0.0679
  617MOL0     C81365  -0.027   1.123   0.569 -0.0935 -0.1866  0.7454
  617MOL0     C81366   0.396   1.166   0.456  0.1559 -1.1353 -0.4878
  617MOL0     C81367   0.463   1.097   0.348  0.5375  0.5787 -0.1620
  617MOL0     C81368   0.570   1.165   0.288 -0.5890 -0.3963 -0.5651
  617MOL0     C81369   0.620   1.292   0.337 -0.9906 -0.6684 -0.1135
  617MOL0     O81370   0.724   1.355   0.282  0.2988 -0.7835 -0.4991
  617MOL0     C81371   0.741   1.357   0.139 -0.2992 -1.1166 -0.4682
  617MOL0     C81372   0.890   1.393   0.115  0.2534  0.2983  0.1493
  617MOL0     C81373   0.923   1.383  -0.038 -0.0107 -0.0276  0.3279
  617MOL0     C81374   0.854   1.491  -0.119 -0.6277 -0.4493  0.4710
  617MOL0     C81375   0.904   1.481  -0.256 -0.0788 -0.8274 -0.6210
  617MOL0     C81376   0.951   1.464  -0.366  0.2525 -0.0578 -0.8635
  617MOL0     C81377   0.562   1.341   0.453 -0.8923  0.3448 -0.2833
  617MOL0     C81378   0.456   1.277   0.520  0.3760 -0.1270 -0.1277
  617MOL0     H81379   0.130   1.271   0.816  2.2774 -0.0542 -3.6893
  617MOL0     H81380  -0.115   1.242   0.932  0.4254 -1.3831  0.7010
  617MOL0     H81381  -0.339   1.355   0.863 -1.2183  0.5540  4.0472
  617MOL0     H81382  -0.323   1.235   0.983 -1.6909  0.3161  0.3927
  617MOL0     H81383  -0.559   1.241   0.795 -0.8275  4.1478  0.6588
  617MOL0     H81384  -0.558   1.327   0.945 -1.5928  0.1814  0.2298
  617MOL0     H81385  -0.529   1.129   1.062  0.3440 -2.4189  0.7535
  617MOL0     H81386  -0.500   1.025   0.929  0.9110 -0.0749 -0.5109
  617MOL0     H81387  -0.743   1.041   1.024  0.5574 -1.2287 -0.7892
  617MOL0     H81388  -0.762   1.198   0.968 -0.0844 -0.9399 -1.0289
  617MOL0     H81389  -0.725   0.956   0.815 -1.1156 -0.6916  0.5051
  617MOL0     H81390  -0.741   1.113   0.719 -0.6902 -1.5900 -0.6288
  617MOL0     H81391  -0.934   0.995   0.911 -1.0223  1.6435  0.8300
  617MOL0     H81392  -0.955   0.955   0.741 -0.8436 -1.4732  2.5286
  617MOL0     H81393  -0.963   1.231   0.859 -1.2833  0.3725 -0.0967
  617MOL0     H81394  -1.005   1.197   0.697 -0.5089  0.3409 -0.0374
  617MOL0     H81395  -1.154   1.056   0.913  3.8865 -3.5421 -1.5261
  617MOL0     H81396  -1.202   1.067   0.743 -4.3208  1.2521  1.1678
  617MOL0     H81397  -1.088   1.386   0.922  0.2564  1.0792 -0.8263
  617MOL0     H81398  -1.232   1.639   0.927 -3.3935  3.3521 -0.0223
  617MOL0     H81399  -1.280   1.536   1.077  1.2113 -1.3967 -0.4179
  617MOL0     H81400  -1.431   1.706   1.073  4.5167 -0.6037  1.3829
  617MOL0     H81401  -1.507   1.559   1.052  0.5811  0.6220  0.4409
  617MOL0     H81402  -1.432   1.759   0.837 -0.3702 -0.7432 -0.2046
  617MOL0     H81403  -1.498   1.611   0.779 -0.5101  2.2276 -1.6247
  617MOL0     H81404  -1.700   1.671   0.939  3.5476 -1.0001  1.7635
  617MOL0     H81405  -1.693   1.742   0.777  1.0118 -0.9081  0.2161
  617MOL0     H81406  -1.618   2.126   0.885  1.2399  0.5637  2.5049
  617MOL0     H81407  -1.803   2.292   0.901 -0.3272 -0.3572 -1.3969
  617MOL0     H81408  -2.326   2.272   0.739 -1.2221 -1.3406  0.0893
  617MOL0     H81409  -2.510   2.422   0.729  3.1979 -0.2053 -0.1670
  617MOL0     H81410  -2.601   2.661   1.087  1.4341 -1.1822 -0.1767
  617MOL0     H81411  -2.757   2.575   1.086  1.6178 -0.4582  1.0055
  617MOL0     H81412  -2.840   2.693   0.897 -0.6163  0.4223  0.0554
  617MOL0     H81413  -2.675   2.773   0.887 -0.0211 -2.2501 -0.5944
  617MOL0     H81414  -2.717   2.884   1.102 -1.4422 -0.6029  1.4122
  617MOL0     H81415  -2.871   2.798   1.115  2.3493 -2.7841  2.0050
  617MOL0     H81416  -2.785   3.010   0.915  1.6353 -1.0415  1.1154
  617MOL0     H81417  -2.922   2.910   0.876  2.2987 -3.1794  0.5871
  617MOL0     H81418  -2.883   3.105   1.123  0.2133  1.3429 -0.8184
  617MOL0     H81419  -3.019   3.009   1.098  0.4842 -0.0253  0.2502
  617MOL0     H81420  -2.927   3.223   0.894  2.1254 -0.8199  0.9653
  617MOL0     H81421  -3.054   3.247   1.021 -1.7761 -0.2430 -2.4280
  617MOL0     H81422  -3.078   3.078   0.775  1.4623 -0.2232  0.5419
  617MOL0     H81423  -3.183   3.064   0.925  1.5342 -0.5536  1.0046
  617MOL0     H81424  -3.251   3.293   0.914 -0.7433 -0.8370  0.3975
  617MOL0     H81425  -3.297   3.209   0.764 -2.5435  2.0885  1.2174
  617MOL0     H81426  -2.506   2.475   1.154  0.3882  1.5400 -0.2147
  617MOL0     H81427  -2.309   2.323   1.163 -1.1187 -1.0390 -0.1569
  617MOL0     H81428  -2.077   1.962   0.969  0.3589 -2.3960 -1.9917
  617MOL0     H81429  -1.906   1.813   0.963 -3.1899 -0.0873 -2.2207
  617MOL0     H81430  -0.238   1.089   0.554  0.6790 -1.6079 -0.0405
  617MOL0     H81431   0.008   1.082   0.475 -2.9156 -0.6946 -0.1992
  617MOL0     H81432   0.413   1.014   0.298 -4.2227  1.6827  2.1428
  617MOL0     H81433   0.628   1.118   0.209 -0.5511  0.5233 -1.0898
  617MOL0     H81434   0.673   1.432   0.095  1.7785  0.9916 -0.2940
  617MOL0     H81435   0.730   1.257   0.096  0.8725 -1.9584  1.0953
  617MOL0     H81436   0.915   1.493   0.150  0.0971  1.3109 -2.3700
  617MOL0     H81437   0.950   1.324   0.175 -1.9279 -0.3185  1.6982
  617MOL0     H81438   0.908   1.287  -0.089  1.8412  0.1444 -0.6236
  617MOL0     H81439   1.031   1.402  -0.042 -0.2642  1.2538 -1.1229
  617MOL0     H81440   0.745   1.487  -0.120 -0.6311 -0.3963  0.6570
  617MOL0     H81441   0.876   1.594  -0.089 -1.4030 -0.2808  0.4847
  617MOL0     H81442   0.995   1.469  -0.464 -1.3349  0.5228 -1.5798
  617MOL0     H81443   0.591   1.432   0.504  0.2704  0.0772 -0.4401
  617MOL0     H81444   0.415   1.314   0.614  1.6290  0.4071  0.2265
  618MOL0     O81445   0.389   3.469   7.412 -0.2839  0.3216  0.0863
  618MOL0     C81446   0.408   3.543   7.511  0.2739 -0.5669 -0.1078
  618MOL0     O81447   0.309   3.591   7.591  0.4630 -0.8289 -0.7066
  618MOL0     C81448   0.181   3.567   7.547 -0.7723 -0.1917  1.3737
  618MOL0     C81449   0.133   3.595   7.424  0.1467  0.0927  0.1520
  618MOL0     C81450  -0.001   3.593   7.397 -0.4861  0.3665 -0.4361
  618MOL0     C81451  -0.097   3.555   7.486 -0.3241 -0.0365  0.8435
  618MOL0     O81452  -0.235   3.545   7.463 -1.0700 -0.9316  0.2341
  618MOL0     C81453  -0.291   3.596   7.343 -0.9913  0.6007 -0.0213
  618MOL0     C81454  -0.439   3.591   7.378 -0.6239  0.0042 -1.2212
  618MOL0     C81455  -0.514   3.623   7.250  0.4340 -0.0812  0.3258
  618MOL0     C81456  -0.664   3.590   7.266  0.9189  0.9520  0.1150
  618MOL0     C81457  -0.760   3.618   7.138  0.2590 -0.0544  0.6681
  618MOL0     C81458  -0.885   3.530   7.149  0.5565  0.2156  0.4905
  618MOL0     C81459  -0.993   3.571   7.043 -0.4775 -0.4401 -0.5797
  618MOL0     C81460  -0.944   3.560   6.904  0.5229  0.5362  0.8645
  618MOL0     N81461  -1.054   3.595   6.815 -0.4728 -0.1649  0.7719
  618MOL0     C81462  -1.155   3.512   6.783  0.3574  0.1509 -0.6739
  618MOL0     C81463  -1.222   3.569   6.681  0.1874  1.0341  1.1286
  618MOL0     C81464  -1.330   3.519   6.591  0.2916  0.9619 -1.1737
  618MOL0     C81465  -1.448   3.610   6.583  0.3304  0.5801 -0.0754
  618MOL0     C81466  -1.538   3.559   6.471 -0.7593 -0.5365  0.6232
  618MOL0     C81467  -1.657   3.469   6.518 -0.1799 -0.3692 -0.0641
  618MOL0     O81468  -1.715   3.402   6.405 -0.0349 -0.0083  0.5087
  618MOL0     C81469  -1.844   3.449   6.378 -0.7588 -0.2318 -0.9152
  618MOL0     C81470  -1.874   3.558   6.294 -0.1475  0.2368 -1.1168
  618MOL0     C81471  -2.009   3.593   6.284 -0.2262 -0.8526  0.2516
  618MOL0     C81472  -2.116   3.524   6.333  0.1398 -0.6185 -0.1400
  618MOL0     C81473  -2.254   3.573   6.327  0.4494 -0.1357 -0.4879
  618MOL0     O81474  -2.278   3.706   6.327  0.3948  0.3614 -0.1794
  618MOL0     C81475  -2.402   3.754   6.292 -0.3163  0.1120  0.0296
  618MOL0     C81476  -2.406   3.850   6.178 -0.2213  0.4798 -0.4499
  618MOL0     C81477  -2.521   3.901   6.137  0.4606  0.7371 -0.1091
  618MOL0     C81478  -2.645   3.863   6.204 -0.8107  0.0065  0.1091
  618MOL0     O81479  -2.778   3.879   6.165 -1.1464  0.7359 -0.8357
  618MOL0     C81480  -2.793   3.853   6.025  0.5010 -0.4446  1.1294
  618MOL0     C81481  -2.795   3.985   5.935 -0.8155  1.4848 -0.9548
  618MOL0     C81482  -2.912   4.080   5.949 -0.7423 -0.1614  0.5082
  618MOL0     C81483  -3.048   4.017   5.924  0.2317  0.4814 -0.6846
  618MOL0     C81484  -3.157   4.120   5.918 -0.3077  0.3185  0.5708
  618MOL0     C81485  -3.289   4.042   5.892 -0.0295  0.3691 -0.1731
  618MOL0     C81486  -3.407   4.137   5.862 -1.2890  0.4946 -0.0721
  618MOL0     C81487  -3.548   4.064   5.874 -0.7784 -0.2068 -0.1462
  618MOL0    Cl81488  -3.625   4.025   5.713 -0.0184  0.1999  0.2615
  618MOL0     C81489  -2.636   3.780   6.316 -0.3997 -0.4103  1.4342
  618MOL0     C81490  -2.520   3.717   6.351 -1.0772 -0.4613  0.1625
  618MOL0     O81491  -2.342   3.489   6.324 -0.4458 -0.5279 -0.9100
  618MOL0     C81492  -2.082   3.414   6.407  0.1721 -0.1550 -0.1592
  618MOL0     C81493  -1.946   3.382   6.434  0.2459  0.5153  1.0129
  618MOL0     N81494  -1.156   3.686   6.648 -0.6093  0.2117  0.3048
  618MOL0     N81495  -1.060   3.693   6.730 -0.3002  0.0416  0.0150
  618MOL0     C81496  -0.057   3.534   7.622  0.8527  0.3966 -0.4122
  618MOL0     C81497   0.082   3.550   7.646 -0.0271  0.9994 -0.1634
  618MOL0     C81498   0.542   3.592   7.542 -0.0498 -0.5689 -0.2352
  618MOL0     C81499   0.654   3.540   7.475  0.6190  0.5880  0.1966
  618MOL0     C81500   0.779   3.578   7.502 -0.9762 -0.8139 -0.3127
  618MOL0     C81501   0.797   3.669   7.609 -0.7626 -0.6695  0.7437
  618MOL0     O81502   0.916   3.747   7.629 -0.4112 -0.1205  0.4343
  618MOL0     C81503   1.032   3.734   7.545  0.1657  0.4585 -0.8386
  618MOL0     C81504   1.142   3.834   7.584 -0.3856 -0.0033  0.3742
  618MOL0     C81505   1.215   3.793   7.718 -0.2443  0.8715  0.2042
  618MOL0     C81506   1.345   3.867   7.715 -0.6242 -0.7525 -0.6612
  618MOL0     C81507   1.458   3.784   7.687  0.0023  0.3570  0.3746
  618MOL0     C81508   1.567   3.719   7.658 -0.3493  0.2866 -0.8304
  618MOL0     C81509   0.694   3.715   7.680  0.0926  1.1087  0.4183
  618MOL0     C81510   0.562   3.675   7.659 -0.5675  0.6892 -0.4483
  618MOL0     H81511   0.196   3.636   7.346  0.1056 -1.5431 -0.7779
  618MOL0     H81512  -0.012   3.628   7.295  0.7936  4.2402  0.5584
  618MOL0     H81513  -0.270   3.521   7.267 -3.0416 -0.1998  0.1391
  618MOL0     H81514  -0.247   3.690   7.310  0.4025 -0.4673 -1.3180
  618MOL0     H81515  -0.461   3.666   7.454 -0.6445  0.4682 -1.6836
  618MOL0     H81516  -0.462   3.495   7.427  0.3715  1.5749  2.7125
  618MOL0     H81517  -0.486   3.561   7.163  2.0947  0.1574  0.6574
  618MOL0     H81518  -0.504   3.728   7.220 -2.3911  0.3373  0.6363
  618MOL0     H81519  -0.677   3.482   7.279 -1.6486  1.0837 -0.7819
  618MOL0     H81520  -0.718   3.635   7.350  2.3497  0.9726  1.0490
  618MOL0     H81521  -0.699   3.582   7.054  0.4547  1.1444  0.2717
  618MOL0     H81522  -0.776   3.726   7.131  0.6450  0.0299  1.0160
  618MOL0     H81523  -0.933   3.548   7.246 -1.3184 -0.8589 -0.1782
  618MOL0     H81524  -0.873   3.425   7.123  0.0880 -0.1225  1.5712
  618MOL0     H81525  -1.082   3.509   7.053 -2.2665  2.3173  2.5963
  618MOL0     H81526  -1.011   3.677   7.063 -0.7523 -0.6508  0.3677
  618MOL0     H81527  -0.917   3.458   6.876  0.6686  1.6468 -3.8372
  618MOL0     H81528  -0.854   3.621   6.898  0.1151  1.1456  0.8178
  618MOL0     H81529  -1.177   3.413   6.821  1.3293  0.6779  1.4228
  618MOL0     H81530  -1.359   3.422   6.633 -0.4670  1.2100 -1.1079
  618MOL0     H81531  -1.295   3.500   6.489 -2.2532 -0.8955 -1.7959
  618MOL0     H81532  -1.403   3.708   6.562  2.2515 -0.2306  0.0677
  618MOL0     H81533  -1.513   3.621   6.670 -0.5991 -2.5003 -0.2696
  618MOL0     H81534  -1.587   3.644   6.424  0.6820 -0.3565 -0.6495
  618MOL0     H81535  -1.490   3.498   6.394 -3.7716 -0.4583 -1.4863
  618MOL0     H81536  -1.722   3.527   6.585 -1.5439 -0.3381 -1.3582
  618MOL0     H81537  -1.617   3.386   6.577  0.7609  2.0572  3.0401
  618MOL0     H81538  -1.790   3.604   6.244 -0.5361  0.3902 -1.6273
  618MOL0     H81539  -2.030   3.689   6.238  0.4831 -1.9546 -2.5513
  618MOL0     H81540  -2.313   3.874   6.127  1.1380 -1.6213  0.8771
  618MOL0     H81541  -2.523   3.955   6.043 -1.0948 -0.1137 -0.5911
  618MOL0     H81542  -2.888   3.802   6.006  0.3982  0.7743 -2.2462
  618MOL0     H81543  -2.712   3.787   5.992 -0.5561 -1.4355  0.4382
  618MOL0     H81544  -2.803   3.965   5.828  1.4548 -1.3454 -0.6961
  618MOL0     H81545  -2.708   4.051   5.941 -1.1626  1.8652  0.1295
  618MOL0     H81546  -2.904   4.154   5.869 -1.0639  0.1144  0.7287
  618MOL0     H81547  -2.911   4.138   6.041 -0.2991 -0.1571  0.5015
  618MOL0     H81548  -3.045   3.954   5.835  1.5447 -0.4135 -0.0473
  618MOL0     H81549  -3.073   3.950   6.008  0.3451 -1.5584 -2.2005
  618MOL0     H81550  -3.135   4.186   5.834 -0.7018 -0.1253  0.1101
  618MOL0     H81551  -3.166   4.177   6.011  1.0224  0.2662  0.7545
  618MOL0     H81552  -3.312   3.979   5.979  0.3082 -1.5233 -1.3892
  618MOL0     H81553  -3.267   3.975   5.808 -1.1589  0.9640 -0.9776
  618MOL0     H81554  -3.398   4.211   5.942  2.4493  2.1537 -1.7603
  618MOL0     H81555  -3.389   4.194   5.771  2.1124 -0.3657 -0.0820
  618MOL0     H81556  -3.628   4.117   5.927 -2.7855 -0.2616 -2.9250
  618MOL0     H81557  -3.532   3.967   5.921 -1.4441 -0.3398 -0.1869
  618MOL0     H81558  -2.727   3.775   6.374 -2.3392  2.2710 -1.0511
  618MOL0     H81559  -2.506   3.658   6.442  0.1576  0.9870  0.9738
  618MOL0     H81560  -2.152   3.337   6.437  1.6576 -1.3945  0.2354
  618MOL0     H81561  -1.925   3.302   6.505 -2.1911  0.4878  1.7823
  618MOL0     H81562  -0.133   3.505   7.694 -2.3211 -0.0348 -3.6718
  618MOL0     H81563   0.102   3.539   7.752 -3.3159 -0.4189  0.4521
  618MOL0     H81564   0.639   3.465   7.398  1.4844  2.2609 -1.6896
  618MOL0     H81565   0.864   3.540   7.447 -0.0618 -0.8729  1.1082
  618MOL0     H81566   1.002   3.749   7.441 -0.1365  2.8502 -0.4741
  618MOL0     H81567   1.072   3.632   7.549 -1.0859 -0.0294 -0.4523
  618MOL0     H81568   1.212   3.816   7.502 -0.1179 -0.1343  0.6300
  618MOL0     H81569   1.099   3.934   7.597  0.1938  0.2652  0.2304
  618MOL0     H81570   1.222   3.683   7.719  1.4607  0.9423 -0.3655
  618MOL0     H81571   1.156   3.828   7.803  0.3104  0.7531  0.6488
  618MOL0     H81572   1.341   3.951   7.646 -2.5253  0.1250  0.4377
  618MOL0     H81573   1.363   3.907   7.815 -0.3017 -0.9302 -0.6471
  618MOL0     H81574   1.649   3.654   7.634  1.2540  2.3337 -1.2104
  618MOL0     H81575   0.714   3.788   7.759 -0.4225  1.7011  0.0152
  618MOL0     H81576   0.485   3.697   7.732  0.8380  1.4188  0.8476
  619MOL0     O81577   5.287   3.597   3.220  1.0422 -0.2888 -0.3873
  619MOL0     C81578   5.312   3.481   3.193  0.6098  0.4716  0.5313
  619MOL0     O81579   5.212   3.389   3.163 -0.7654  0.3365 -0.0087
  619MOL0     C81580   5.081   3.422   3.146 -0.6470  0.1085  1.2279
  619MOL0     C81581   4.987   3.362   3.226  0.2610 -0.3359  0.4290
  619MOL0     C81582   4.853   3.405   3.218 -0.1757  0.0687  1.4735
  619MOL0     C81583   4.810   3.490   3.114 -0.3840 -0.3284 -0.4888
  619MOL0     O81584   4.689   3.532   3.094  0.2435  0.1174  0.8195
  619MOL0     C81585   4.609   3.580   3.203  0.3618  0.5993 -0.0936
  619MOL0     C81586   4.508   3.474   3.248 -0.4120  1.1527 -0.0404
  619MOL0     C81587   4.414   3.515   3.368 -0.1967  0.4869  0.1025
  619MOL0     C81588   4.316   3.408   3.403  0.3852 -0.7840  0.7252
  619MOL0     C81589   4.364   3.283   3.476 -0.8910 -1.0949 -0.2418
  619MOL0     C81590   4.254   3.182   3.527 -0.5702  0.6846 -0.0783
  619MOL0     C81591   4.156   3.238   3.629  0.1706 -0.2714 -0.0424
  619MOL0     C81592   4.052   3.138   3.671 -0.0352 -0.9887  0.4182
  619MOL0     N81593   4.103   3.028   3.751 -1.1809  0.2521 -0.6322
  619MOL0     C81594   4.209   3.047   3.854 -0.2559  0.2959  1.2687
  619MOL0     C81595   4.218   2.929   3.904 -0.7581 -0.2325 -0.1588
  619MOL0     C81596   4.278   2.883   4.031 -0.0741 -0.6970 -0.0030
  619MOL0     C81597   4.192   2.892   4.160  0.2306 -0.5306  0.2862
  619MOL0     C81598   4.062   2.811   4.151  0.2339  0.3384  0.0304
  619MOL0     C81599   4.010   2.769   4.282 -0.5566 -0.1245 -0.2776
  619MOL0     O81600   3.922   2.660   4.261  0.3043  0.3481  0.1765
  619MOL0     C81601   3.811   2.641   4.336 -0.9023 -0.2589 -0.3684
  619MOL0     C81602   3.748   2.734   4.433  0.1270 -0.8975  0.1000
  619MOL0     C81603   3.622   2.710   4.482  0.5222 -0.9500 -0.3432
  619MOL0     C81604   3.559   2.588   4.450  0.0645 -0.4741  0.3796
  619MOL0     C81605   3.417   2.570   4.484  0.0544 -0.3386  0.3303
  619MOL0     O81606   3.359   2.453   4.445 -0.5281 -0.1212 -0.0095
  619MOL0     C81607   3.240   2.424   4.514 -0.3350 -0.5660  0.4330
  619MOL0     C81608   3.236   2.334   4.616  0.1560  0.5343  1.4837
  619MOL0     C81609   3.121   2.292   4.671  0.3780  0.5304  0.1457
  619MOL0     C81610   2.995   2.356   4.643  0.2895  1.0755  1.0777
  619MOL0     O81611   2.877   2.324   4.718 -0.4302 -0.3107  0.6279
  619MOL0     C81612   2.897   2.285   4.860  0.2253 -0.7073 -0.6227
  619MOL0     C81613   2.794   2.357   4.946 -0.4624  0.6698 -0.2126
  619MOL0     C81614   2.770   2.293   5.083 -0.2884 -0.9554  0.6128
  619MOL0     C81615   2.660   2.365   5.155 -1.4466  0.7506 -0.5481
  619MOL0     C81616   2.597   2.267   5.255 -0.0050 -0.0567 -0.1919
  619MOL0     C81617   2.488   2.337   5.349 -0.2961  0.0359  0.3486
  619MOL0     C81618   2.362   2.371   5.271 -0.6288 -0.0720  0.6271
  619MOL0     C81619   2.267   2.440   5.363 -0.0292  0.5039 -0.2372
  619MOL0    Cl81620   2.172   2.540   5.244  0.2098  0.3431 -1.0716
  619MOL0     C81621   2.990   2.462   4.551 -1.4733 -0.7433  0.8863
  619MOL0     C81622   3.120   2.496   4.488  0.2624 -0.1764 -0.7954
  619MOL0     O81623   3.355   2.658   4.544 -0.0822  0.3024 -0.1269
  619MOL0     C81624   3.620   2.490   4.366 -0.9915 -0.0783  0.2519
  619MOL0     C81625   3.745   2.519   4.310  0.4504  0.5983 -0.2169
  619MOL0     N81626   4.124   2.842   3.851  0.4199 -0.7357 -0.4655
  619MOL0     N81627   4.052   2.901   3.763  0.8339 -0.4968 -0.1499
  619MOL0     C81628   4.908   3.533   3.020  0.0848 -0.5664  0.0349
  619MOL0     C81629   5.042   3.504   3.042  0.0235  0.0091  0.4385
  619MOL0     C81630   5.453   3.439   3.176 -0.0014 -0.2626  0.2815
  619MOL0     C81631   5.554   3.537   3.182  0.4588  0.1581 -0.5310
  619MOL0     C81632   5.690   3.505   3.182  0.2470 -0.7927 -0.0584
  619MOL0     C81633   5.729   3.381   3.200  0.3755  1.2567  0.6096
  619MOL0     O81634   5.866   3.363   3.204  0.4950  0.0215 -0.3641
  619MOL0     C81635   5.919   3.228   3.199  0.0006 -0.7250  0.4008
  619MOL0     C81636   6.080   3.241   3.191  1.2082 -0.9734  0.3476
  619MOL0     C81637   6.135   3.323   3.314 -0.5336 -0.9393  0.5769
  619MOL0     C81638   6.142   3.475   3.289 -0.0224  0.3245 -0.3647
  619MOL0     C81639   6.248   3.530   3.367 -1.0724  0.7827 -0.0690
  619MOL0     C81640   6.341   3.587   3.426  1.2457  1.2237  0.0744
  619MOL0     C81641   5.625   3.274   3.189  0.9355 -0.2340 -0.1034
  619MOL0     C81642   5.490   3.305   3.183 -1.2335  0.2016 -0.5121
  619MOL0     H81643   5.008   3.291   3.305  3.2737  0.9354  0.8949
  619MOL0     H81644   4.791   3.351   3.289 -0.9775  0.6515  1.2198
  619MOL0     H81645   4.555   3.668   3.169  0.1931 -0.8195 -4.0328
  619MOL0     H81646   4.656   3.625   3.291 -1.8192  0.3069  1.2948
  619MOL0     H81647   4.563   3.383   3.275 -2.3915  0.9168  3.9048
  619MOL0     H81648   4.438   3.451   3.166 -0.0091  1.9483 -0.6266
  619MOL0     H81649   4.358   3.600   3.326 -0.4706 -0.4764 -1.5734
  619MOL0     H81650   4.466   3.535   3.462 -0.7056  0.3378  0.4180
  619MOL0     H81651   4.236   3.452   3.463  1.0459  0.3147  0.8301
  619MOL0     H81652   4.272   3.380   3.306 -1.0076 -0.6079  1.2827
  619MOL0     H81653   4.413   3.324   3.566 -1.6448 -2.2317  0.7200
  619MOL0     H81654   4.441   3.236   3.415  1.7272  0.1097  1.9287
  619MOL0     H81655   4.295   3.097   3.583 -2.1886  1.3543  2.2633
  619MOL0     H81656   4.203   3.142   3.439  3.4178 -0.3939 -2.1000
  619MOL0     H81657   4.216   3.279   3.711 -3.5303 -0.3447  3.0035
  619MOL0     H81658   4.101   3.325   3.592  0.1512  0.8503  2.4118
  619MOL0     H81659   4.012   3.096   3.578  3.2041 -1.7154 -0.7482
  619MOL0     H81660   3.988   3.200   3.734 -1.0907 -2.0579  0.4489
  619MOL0     H81661   4.267   3.130   3.892  0.4344 -0.3029  1.5416
  619MOL0     H81662   4.377   2.931   4.038 -1.6230  3.0096 -1.0543
  619MOL0     H81663   4.300   2.776   4.022 -0.0549 -0.7669  0.8134
  619MOL0     H81664   4.159   2.995   4.181  3.3274  0.3736  1.2093
  619MOL0     H81665   4.250   2.858   4.247 -0.0757  0.9638  1.1200
  619MOL0     H81666   3.993   2.872   4.093  0.3004 -1.1693 -1.7603
  619MOL0     H81667   4.086   2.721   4.093  0.1571  0.2498  0.1383
  619MOL0     H81668   3.957   2.852   4.329  3.9193  1.7114  2.2238
  619MOL0     H81669   4.092   2.735   4.347 -0.4524  0.5017 -0.0715
  619MOL0     H81670   3.783   2.835   4.455 -4.0740  0.7390  0.3116
  619MOL0     H81671   3.579   2.789   4.543 -0.9283 -1.9890  0.0320
  619MOL0     H81672   3.318   2.278   4.661 -1.0728 -1.3472  1.4711
  619MOL0     H81673   3.115   2.220   4.752 -1.6564 -0.9356 -1.1865
  619MOL0     H81674   2.988   2.323   4.908 -1.7128  1.3748  1.7199
  619MOL0     H81675   2.879   2.177   4.863  0.9305 -0.8290  1.7622
  619MOL0     H81676   2.695   2.349   4.898 -0.3305 -0.8425 -0.2730
  619MOL0     H81677   2.818   2.463   4.951  2.1477  0.0936  0.6029
  619MOL0     H81678   2.866   2.296   5.136  1.6468 -1.9893 -2.5178
  619MOL0     H81679   2.752   2.185   5.072 -0.6525 -0.8905  0.5717
  619MOL0     H81680   2.697   2.455   5.206  0.5691  2.2551 -4.2526
  619MOL0     H81681   2.582   2.405   5.090 -1.0527  3.3248  0.4366
  619MOL0     H81682   2.665   2.232   5.333  1.6821  1.8330 -0.7160
  619MOL0     H81683   2.551   2.183   5.203  2.8848 -1.6375 -0.4048
  619MOL0     H81684   2.536   2.423   5.397 -0.9941  1.2083 -0.9677
  619MOL0     H81685   2.451   2.266   5.424  0.9593  1.1379  2.0739
  619MOL0     H81686   2.397   2.437   5.191 -0.0440  0.1106  1.0322
  619MOL0     H81687   2.320   2.282   5.223 -2.4627 -0.2138  2.3580
  619MOL0     H81688   2.322   2.498   5.438  0.8075  0.1150 -0.5408
  619MOL0     H81689   2.205   2.371   5.421 -1.3243  1.7473 -0.0897
  619MOL0     H81690   2.897   2.512   4.528 -0.5226  0.2722 -0.8946
  619MOL0     H81691   3.140   2.577   4.418  1.5268 -0.7325 -1.1078
  619MOL0     H81692   3.577   2.391   4.358  1.3743 -1.0460 -2.5088
  619MOL0     H81693   3.804   2.452   4.248  1.3245 -0.7867  1.9992
  619MOL0     H81694   4.876   3.591   2.934  3.6131 -0.1507 -1.2049
  619MOL0     H81695   5.109   3.547   2.968  1.0510  1.2465  2.0057
  619MOL0     H81696   5.514   3.638   3.190  1.1125  0.3178  1.1039
  619MOL0     H81697   5.767   3.581   3.193 -1.3149  0.5802  2.4979
  619MOL0     H81698   5.882   3.178   3.109 -3.1494 -0.0018  1.1842
  619MOL0     H81699   5.898   3.179   3.294  2.0528  0.0589  1.3241
  619MOL0     H81700   6.117   3.138   3.196 -0.3775 -1.6111 -0.4505
  619MOL0     H81701   6.109   3.283   3.095  1.2658 -0.2426  0.6812
  619MOL0     H81702   6.232   3.280   3.337 -0.3773 -0.2397  1.2700
  619MOL0     H81703   6.074   3.297   3.401  1.1433  0.9723  2.4292
  619MOL0     H81704   6.156   3.500   3.184 -0.7723 -0.8775 -0.7769
  619MOL0     H81705   6.040   3.511   3.306  0.4773  1.3763  0.5165
  619MOL0     H81706   6.429   3.631   3.468  0.9409 -0.0330  2.1996
  619MOL0     H81707   5.646   3.168   3.188  1.4313 -0.1351 -1.1174
  619MOL0     H81708   5.425   3.219   3.184 -0.7026 -0.1987  0.1696
  620MOL0     O81709   2.621   6.055   4.278 -0.1334 -0.1192 -0.8587
  620MOL0     C81710   2.563   6.119   4.366 -0.1748 -0.0521  0.3778
  620MOL0     O81711   2.457   6.196   4.346  0.1887 -0.8465 -0.1291
  620MOL0     C81712   2.411   6.193   4.221  0.1550 -0.1532 -0.2476
  620MOL0     C81713   2.463   6.260   4.116  0.1445  0.5831 -0.1729
  620MOL0     C81714   2.406   6.245   3.984  0.2027 -0.8668 -0.2285
  620MOL0     C81715   2.301   6.156   3.951 -0.3910  0.3758 -0.3306
  620MOL0     O81716   2.255   6.134   3.820  0.6449 -0.6504  0.3031
  620MOL0     C81717   2.220   6.251   3.742 -0.8377  0.6635 -0.4191
  620MOL0     C81718   2.151   6.199   3.619  0.5577  0.7124 -0.4503
  620MOL0     C81719   2.015   6.126   3.643 -0.2295 -0.2850  0.1857
  620MOL0     C81720   1.912   6.173   3.534 -0.4058 -0.3445  0.4408
  620MOL0     C81721   1.770   6.111   3.556 -0.9588 -0.4310  0.2197
  620MOL0     C81722   1.777   5.955   3.576 -0.0414 -0.3356 -0.2158
  620MOL0     C81723   1.640   5.893   3.606 -0.6358  0.6512  1.0440
  620MOL0     C81724   1.547   5.900   3.483 -0.2874  0.3235 -0.4310
  620MOL0     N81725   1.418   5.818   3.508 -0.9150  0.6296 -0.5640
  620MOL0     C81726   1.291   5.837   3.459 -0.3092 -0.0635  0.1283
  620MOL0     C81727   1.212   5.766   3.526  0.8204 -0.6624  0.0064
  620MOL0     C81728   1.061   5.752   3.538  0.2450  0.4534  0.0292
  620MOL0     C81729   0.988   5.810   3.411 -0.4259 -0.4845  0.4811
  620MOL0     C81730   0.840   5.857   3.440  0.0152 -0.2859  0.6640
  620MOL0     C81731   0.847   5.979   3.528 -0.3807 -0.0452  0.4441
  620MOL0     O81732   0.738   6.054   3.492 -0.5617 -0.0128  0.1687
  620MOL0     C81733   0.645   6.098   3.583  0.4192  0.2528  1.4250
  620MOL0     C81734   0.683   6.107   3.720  0.1140 -0.1220 -0.3353
  620MOL0     C81735   0.577   6.139   3.812 -0.8518 -0.4354 -0.0499
  620MOL0     C81736   0.441   6.153   3.763  0.3723 -1.3434 -0.0076
  620MOL0     C81737   0.332   6.190   3.853 -0.1800 -0.6198 -0.5542
  620MOL0     O81738   0.214   6.236   3.800  0.3980  0.4966 -0.6423
  620MOL0     C81739   0.095   6.218   3.860 -0.0293 -0.2485 -0.4439
  620MOL0     C81740   0.063   6.112   3.950  0.0272 -0.4794  0.0620
  620MOL0     C81741  -0.066   6.079   3.981 -0.8787  0.3715  0.7215
  620MOL0     C81742  -0.170   6.152   3.922 -0.7512  0.2676  0.2563
  620MOL0     O81743  -0.299   6.128   3.966  0.5858 -0.0628 -0.2615
  620MOL0     C81744  -0.395   6.232   3.993 -0.6726 -0.0156  0.5610
  620MOL0     C81745  -0.529   6.173   4.034 -0.1446  0.5449  0.4412
  620MOL0     C81746  -0.619   6.294   4.077  0.1802 -0.4378 -0.1055
  620MOL0     C81747  -0.758   6.237   4.134 -0.0636 -0.6223 -0.4777
  620MOL0     C81748  -0.862   6.345   4.147  0.0397 -0.1118 -0.2352
  620MOL0     C81749  -1.004   6.290   4.185 -0.1597 -0.5373  0.0077
  620MOL0     C81750  -1.102   6.407   4.203  0.5794  0.3708 -0.2140
  620MOL0     C81751  -1.243   6.358   4.226  0.7412  0.8322  0.0663
  620MOL0    Cl81752  -1.284   6.340   4.406 -0.0169  0.0043  0.1610
  620MOL0     C81753  -0.141   6.257   3.829  0.6657  1.1457 -0.5942
  620MOL0     C81754  -0.009   6.283   3.802  0.0232 -0.6923  0.4580
  620MOL0     O81755   0.351   6.160   3.971 -0.0118 -0.0449  0.3437
  620MOL0     C81756   0.411   6.144   3.623  0.6752  0.2193  0.0764
  620MOL0     C81757   0.511   6.110   3.537 -0.0028  0.4332  0.6871
  620MOL0     N81758   1.293   5.679   3.600  0.4601  0.6131  0.0047
  620MOL0     N81759   1.415   5.704   3.581  0.1080 -0.5914 -0.0980
  620MOL0     C81760   2.250   6.081   4.061 -0.5060 -0.0972 -0.2088
  620MOL0     C81761   2.312   6.103   4.191 -0.3352  0.6211  0.5516
  620MOL0     C81762   2.628   6.114   4.501  0.6954 -0.4429  0.1451
  620MOL0     C81763   2.579   6.192   4.609 -0.2014  0.0497  0.9772
  620MOL0     C81764   2.648   6.192   4.724  0.6418  0.4748  0.0480
  620MOL0     C81765   2.769   6.107   4.740 -0.4378 -0.2151  0.0207
  620MOL0     O81766   2.848   6.129   4.854 -0.2612 -0.0987 -0.4907
  620MOL0     C81767   2.790   6.176   4.980  0.1106  0.3734 -1.2568
  620MOL0     C81768   2.890   6.239   5.076 -0.3233 -0.2352  0.2962
  620MOL0     C81769   2.958   6.363   5.008 -0.3629  0.4519  0.8052
  620MOL0     C81770   2.859   6.476   4.951 -0.1285 -0.0975  0.3355
  620MOL0     C81771   2.758   6.516   5.047  0.0575  0.5830 -0.5151
  620MOL0     C81772   2.678   6.546   5.133  0.5686 -0.5409 -0.6955
  620MOL0     C81773   2.799   6.010   4.642 -0.0708 -0.0304  0.2621
  620MOL0     C81774   2.731   6.019   4.525  0.2011  0.6252  0.8575
  620MOL0     H81775   2.546   6.327   4.134 -1.1206  1.8316  1.2386
  620MOL0     H81776   2.447   6.304   3.903 -3.2351  1.5670 -0.4110
  620MOL0     H81777   2.310   6.303   3.708 -1.6769  1.0109 -2.2356
  620MOL0     H81778   2.157   6.313   3.806 -0.2093 -2.2227  3.3027
  620MOL0     H81779   2.220   6.128   3.574  1.6722  1.8163 -0.5223
  620MOL0     H81780   2.138   6.269   3.536 -0.2418 -0.1423 -1.0722
  620MOL0     H81781   1.980   6.161   3.741 -1.8208 -0.6201 -0.2370
  620MOL0     H81782   2.021   6.017   3.654  1.7519 -0.0853  1.5730
  620MOL0     H81783   1.906   6.282   3.529  0.2155 -0.3686 -1.8983
  620MOL0     H81784   1.941   6.127   3.439 -2.4055 -1.9983  0.5726
  620MOL0     H81785   1.711   6.144   3.470  2.0101 -0.6485 -2.0704
  620MOL0     H81786   1.721   6.160   3.640 -3.0535 -2.3037  0.1742
  620MOL0     H81787   1.824   5.935   3.673 -0.7512 -0.0013  0.2084
  620MOL0     H81788   1.827   5.916   3.487 -1.4747 -1.8126 -0.4236
  620MOL0     H81789   1.648   5.788   3.635  0.7620  0.2664 -0.5648
  620MOL0     H81790   1.580   5.940   3.685 -2.4526 -0.6236  0.4902
  620MOL0     H81791   1.606   5.865   3.398 -0.8225 -0.2829 -0.5621
  620MOL0     H81792   1.517   6.003   3.461  0.3460  0.8074  0.8645
  620MOL0     H81793   1.246   5.913   3.396 -1.8672 -0.2718  0.9453
  620MOL0     H81794   1.022   5.786   3.635 -1.9241  1.1134 -1.0065
  620MOL0     H81795   1.040   5.645   3.539 -0.6852  0.6210 -0.4455
  620MOL0     H81796   0.972   5.735   3.333 -1.1785  1.3098 -1.1571
  620MOL0     H81797   1.039   5.894   3.362 -2.0987  1.2387  1.5396
  620MOL0     H81798   0.779   5.871   3.351  1.9581  3.8016 -0.2295
  620MOL0     H81799   0.790   5.776   3.495 -0.2723 -1.9553 -1.8844
  620MOL0     H81800   0.932   6.048   3.522  0.1138 -0.7220 -0.6986
  620MOL0     H81801   0.845   5.945   3.632 -0.1212  0.3798  0.5937
  620MOL0     H81802   0.779   6.082   3.763 -0.2761 -3.2582 -0.9902
  620MOL0     H81803   0.602   6.137   3.917  1.4218 -4.4861 -0.4558
  620MOL0     H81804   0.148   6.050   3.976  1.0851 -0.3516 -2.6702
  620MOL0     H81805  -0.081   6.009   4.063  0.0664  0.3812  0.9095
  620MOL0     H81806  -0.403   6.288   3.899  1.7264 -2.7251 -1.3999
  620MOL0     H81807  -0.355   6.295   4.073 -1.3434  0.1484  0.7764
  620MOL0     H81808  -0.516   6.113   4.125 -0.6658  0.4936  0.4860
  620MOL0     H81809  -0.573   6.105   3.960  0.4864  1.3921 -0.7402
  620MOL0     H81810  -0.640   6.365   3.997  0.2727 -0.6866 -0.3554
  620MOL0     H81811  -0.569   6.358   4.150  2.0415 -2.4674  0.5159
  620MOL0     H81812  -0.800   6.153   4.078  0.3938 -0.4103 -1.1492
  620MOL0     H81813  -0.736   6.209   4.237 -5.3493  0.5395  1.2675
  620MOL0     H81814  -0.861   6.399   4.052  0.4563 -0.1302 -0.2435
  620MOL0     H81815  -0.836   6.419   4.223  2.0859  0.0129 -0.9855
  620MOL0     H81816  -0.990   6.231   4.276  2.2096  0.4173  0.3378
  620MOL0     H81817  -1.043   6.221   4.109 -1.0452  0.3224 -0.3330
  620MOL0     H81818  -1.071   6.470   4.287  2.4819  0.1617 -0.6983
  620MOL0     H81819  -1.092   6.456   4.105  0.9105  0.2022 -0.2683
  620MOL0     H81820  -1.265   6.263   4.177  0.1073  0.7077  0.5713
  620MOL0     H81821  -1.320   6.423   4.184 -0.3361  0.1183  0.8641
  620MOL0     H81822  -0.218   6.305   3.769  0.9690  2.4251  0.0131
  620MOL0     H81823   0.018   6.363   3.734  0.0921 -1.3034 -0.2496
  620MOL0     H81824   0.310   6.134   3.583  0.3158 -2.8655  1.4612
  620MOL0     H81825   0.504   6.086   3.432  1.3020  1.6347  0.2963
  620MOL0     H81826   2.162   6.016   4.058 -1.6915  1.4297  0.2714
  620MOL0     H81827   2.269   6.064   4.283 -0.2639 -2.0576 -0.4648
  620MOL0     H81828   2.505   6.271   4.596 -1.9337 -1.7453 -0.6064
  620MOL0     H81829   2.611   6.265   4.794  0.4331  2.4345 -1.9784
  620MOL0     H81830   2.759   6.085   5.032  0.5694  0.1311 -1.4061
  620MOL0     H81831   2.707   6.245   4.958  2.3285  2.5409 -3.6015
  620MOL0     H81832   2.832   6.259   5.167  0.9890 -1.7943  1.5260
  620MOL0     H81833   2.971   6.171   5.103  0.1390  1.0475  2.3793
  620MOL0     H81834   3.021   6.325   4.927 -2.2190 -0.6311 -0.1893
  620MOL0     H81835   3.011   6.412   5.091  0.0162  0.3399  0.6319
  620MOL0     H81836   2.908   6.569   4.920 -1.8533  0.0627 -2.2071
  620MOL0     H81837   2.815   6.440   4.858  0.4930 -0.5796  0.2235
  620MOL0     H81838   2.601   6.575   5.202 -0.7336 -0.5707 -2.0705
  620MOL0     H81839   2.889   5.949   4.654  0.3830  0.6131  0.2025
  620MOL0     H81840   2.751   5.944   4.449 -1.0849  0.7821  0.3309
  621MOL0     O81841   5.783  10.799   9.796 -0.4738 -0.3528 -0.0683
  621MOL0     C81842   5.877  10.845   9.870  0.4093 -0.1777  0.3527
  621MOL0     O81843   5.869  10.973   9.932  0.2247  0.0981  0.5876
  621MOL0     C81844   5.749  11.021   9.954  0.3496  0.2365 -0.5863
  621MOL0     C81845   5.704  11.122   9.865 -0.5458 -0.2760  0.8094
  621MOL0     C81846   5.579  11.191   9.897  0.3724  0.0395 -0.3420
  621MOL0     C81847   5.504  11.145  10.013 -0.2502 -0.2396  0.0726
  621MOL0     O81848   5.380  11.184  10.040  0.1055 -0.5802 -0.3294
  621MOL0     C81849   5.289  11.186   9.935  0.3677  0.4533  0.0141
  621MOL0     C81850   5.164  11.250   9.999  0.6327  0.7926 -0.7603
  621MOL0     C81851   5.065  11.321   9.913  0.2124 -0.0696  0.1064
  621MOL0     C81852   4.939  11.371   9.991  0.2107 -0.2763  0.4663
  621MOL0     C81853   4.819  11.395   9.890 -0.5811  0.9024  0.0109
  621MOL0     C81854   4.697  11.401   9.977 -0.2305  1.0581  0.1512
  621MOL0     C81855   4.561  11.394   9.890  0.2467  0.8830 -0.2466
  621MOL0     C81856   4.450  11.386   9.993 -0.0703  0.1999  0.6797
  621MOL0     N81857   4.321  11.342   9.937 -0.6115  0.9940 -0.5211
  621MOL0     C81858   4.239  11.413   9.839  0.6967  0.1995  0.1424
  621MOL0     C81859   4.123  11.342   9.838  0.3459  0.5301  0.4915
  621MOL0     C81860   4.005  11.374   9.750  1.0759  1.1719  0.0555
  621MOL0     C81861   3.873  11.411   9.832  0.0047 -1.1642  1.0076
  621MOL0     C81862   3.914  11.540   9.919  0.0907  1.0150  0.1098
  621MOL0     C81863   3.796  11.628   9.939  0.7197  0.6461  0.3959
  621MOL0     O81864   3.681  11.547   9.972 -0.3391 -0.0185 -0.1869
  621MOL0     C81865   3.566  11.604  10.001 -0.5137 -0.7632  0.1008
  621MOL0     C81866   3.546  11.737   9.969  0.1322 -0.4615  0.1240
  621MOL0     C81867   3.419  11.798   9.989  0.0540 -0.7806  0.0562
  621MOL0     C81868   3.306  11.729  10.037  0.2601  0.2906  0.5632
  621MOL0     C81869   3.168  11.784  10.028 -0.8044  0.3671  0.1244
  621MOL0     O81870   3.069  11.693  10.005 -0.4078 -0.3365 -0.1926
  621MOL0     C81871   2.942  11.735  10.041 -0.5812 -0.1819 -0.1679
  621MOL0     C81872   2.835  11.684   9.968  0.1705  0.4890 -1.4082
  621MOL0     C81873   2.706  11.723   9.987  0.1517 -0.0810  0.9209
  621MOL0     C81874   2.673  11.783  10.109 -0.4668 -0.2502 -1.2679
  621MOL0     O81875   2.544  11.822  10.127  0.3009 -0.0290 -0.5353
  621MOL0     C81876   2.506  11.868  10.257  0.1885  0.8386  0.1610
  621MOL0     C81877   2.356  11.837  10.266  0.1528 -0.3263  0.8132
  621MOL0     C81878   2.288  11.879  10.392  0.2359  0.2511 -0.7586
  621MOL0     C81879   2.136  11.857  10.390 -0.1316  0.0863 -1.1870
  621MOL0     C81880   2.070  11.917  10.518 -0.3709  0.2226  0.4798
  621MOL0     C81881   1.921  11.945  10.488 -0.4878 -0.8295  0.2343
  621MOL0     C81882   1.846  12.015  10.611  0.8107  0.2960  0.5473
  621MOL0     C81883   1.731  12.116  10.563 -0.3102  0.3241 -0.4506
  621MOL0    Cl81884   1.826  12.253  10.496  0.5488  0.2369  0.0602
  621MOL0     C81885   2.770  11.817  10.196  0.0966  0.5148 -0.7155
  621MOL0     C81886   2.906  11.799  10.159  0.1082  1.1117 -1.5598
  621MOL0     O81887   3.170  11.902  10.019  0.1711 -0.1978 -0.7151
  621MOL0     C81888   3.329  11.593  10.068  0.8255 -0.4394  0.6004
  621MOL0     C81889   3.456  11.539  10.064 -0.7173 -0.2703  0.3246
  621MOL0     N81890   4.139  11.235   9.927  0.9403  1.0660  0.4204
  621MOL0     N81891   4.253  11.232   9.982 -0.4825 -0.0254 -0.1513
  621MOL0     C81892   5.557  11.051  10.102 -0.5360  0.0214  1.0302
  621MOL0     C81893   5.682  10.990  10.074 -0.6302 -0.8227  0.0823
  621MOL0     C81894   6.002  10.773   9.889 -0.5671  0.3929 -0.2151
  621MOL0     C81895   6.095  10.811   9.987 -0.0620 -0.4641  0.2212
  621MOL0     C81896   6.210  10.737  10.002 -0.7655  0.5116  0.4947
  621MOL0     C81897   6.234  10.616   9.931  0.7273 -0.7340 -1.6764
  621MOL0     O81898   6.357  10.558   9.952 -0.7819  0.7092 -0.0275
  621MOL0     C81899   6.401  10.426   9.894 -0.3399 -0.3864  0.0275
  621MOL0     C81900   6.329  10.317   9.980 -0.9881  0.0370 -0.1189
  621MOL0     C81901   6.403  10.283  10.103 -0.5077 -0.1802  0.2731
  621MOL0     C81902   6.388  10.381  10.222 -0.0392  0.4738  0.7814
  621MOL0     C81903   6.481  10.338  10.324 -0.6324 -0.4207 -0.2516
  621MOL0     C81904   6.561  10.303  10.414 -0.1509  0.1222  0.2003
  621MOL0     C81905   6.141  10.592   9.828 -1.3605 -0.2431 -0.7825
  621MOL0     C81906   6.026  10.658   9.810  0.0296 -0.5673  0.1301
  621MOL0     H81907   5.764  11.147   9.778  3.1724  1.3260  3.5776
  621MOL0     H81908   5.541  11.258   9.821 -0.6181 -0.3953 -0.2440
  621MOL0     H81909   5.260  11.088   9.897 -0.2212  0.8186 -0.4989
  621MOL0     H81910   5.328  11.242   9.849  0.2026 -1.5972 -1.4503
  621MOL0     H81911   5.181  11.316  10.085 -0.1894 -0.5522  0.4813
  621MOL0     H81912   5.102  11.164  10.025 -0.9207  1.3659 -2.3809
  621MOL0     H81913   5.032  11.258   9.830 -0.8808  1.2822 -0.5272
  621MOL0     H81914   5.106  11.415   9.875  1.3006 -1.0663 -1.3002
  621MOL0     H81915   4.922  11.293  10.066 -1.2169 -1.3337 -0.9011
  621MOL0     H81916   4.966  11.461  10.048  1.0824 -1.1651  1.5149
  621MOL0     H81917   4.804  11.317   9.814 -3.7070  1.7826 -0.4345
  621MOL0     H81918   4.820  11.494   9.844 -5.2666  1.1954  0.0010
  621MOL0     H81919   4.703  11.490  10.042  5.3221  0.3746  1.1068
  621MOL0     H81920   4.709  11.323  10.053  0.2529  2.4036  1.5362
  621MOL0     H81921   4.546  11.473   9.815  3.7554 -1.0066 -3.2901
  621MOL0     H81922   4.551  11.301   9.834 -0.2652  0.6130  0.2783
  621MOL0     H81923   4.453  11.485  10.039  1.2464 -1.4066  4.4628
  621MOL0     H81924   4.477  11.311  10.068  2.6583 -0.9611 -1.2869
  621MOL0     H81925   4.260  11.506   9.787  1.1786  0.7272  1.2476
  621MOL0     H81926   3.977  11.299   9.676 -1.3693  3.1097 -1.1269
  621MOL0     H81927   4.043  11.455   9.687  1.6675  3.2336  2.8328
  621MOL0     H81928   3.839  11.319   9.881  3.2975 -4.7480 -2.6168
  621MOL0     H81929   3.788  11.433   9.767  0.5316 -0.0519  0.6791
  621MOL0     H81930   3.954  11.508  10.015 -2.4009  1.3330  1.3463
  621MOL0     H81931   3.991  11.600   9.870 -0.9667  1.7165 -0.7330
  621MOL0     H81932   3.784  11.683   9.845 -1.0114  0.3585  0.4169
  621MOL0     H81933   3.812  11.707  10.014 -0.5124  1.4986 -0.1889
  621MOL0     H81934   3.617  11.805   9.922 -1.1998 -0.3414 -1.8394
  621MOL0     H81935   3.405  11.904   9.968  0.7230 -0.2760  1.9484
  621MOL0     H81936   2.852  11.614   9.887  1.2054 -2.5171  1.2024
  621MOL0     H81937   2.628  11.697   9.917 -0.3980 -1.4929  1.9946
  621MOL0     H81938   2.525  11.976  10.258  2.7201  0.5390 -2.4101
  621MOL0     H81939   2.552  11.813  10.339 -2.3768 -0.8998  0.5393
  621MOL0     H81940   2.339  11.735  10.230  0.6246 -0.2710  0.4198
  621MOL0     H81941   2.319  11.894  10.181  1.2220 -0.5705  0.1680
  621MOL0     H81942   2.313  11.985  10.404 -0.8735  0.3145  1.5560
  621MOL0     H81943   2.339  11.822  10.471  0.2876 -2.4687 -2.6054
  621MOL0     H81944   2.091  11.902  10.301 -2.0778  0.9373  0.1569
  621MOL0     H81945   2.109  11.751  10.394  0.2758 -0.0496 -1.9197
  621MOL0     H81946   2.121  12.010  10.543 -0.2868 -0.7216  4.3169
  621MOL0     H81947   2.077  11.853  10.606 -0.0097 -0.2667  0.0964
  621MOL0     H81948   1.872  11.848  10.477 -1.8762 -0.0065 -1.2745
  621MOL0     H81949   1.910  11.997  10.392  1.8205  2.1800  1.4175
  621MOL0     H81950   1.796  11.934  10.665 -3.4171  0.1661 -2.9699
  621MOL0     H81951   1.914  12.066  10.680  2.7164 -2.8845  1.1725
  621MOL0     H81952   1.659  12.144  10.640  1.1579  1.8278  0.4461
  621MOL0     H81953   1.670  12.063  10.489 -0.3623  0.4630 -0.5077
  621MOL0     H81954   2.759  11.864  10.293 -1.6676 -2.0531  0.4411
  621MOL0     H81955   2.989  11.833  10.220 -1.3681  1.7105  0.2056
  621MOL0     H81956   3.251  11.528  10.104 -1.8516  2.5696  0.7128
  621MOL0     H81957   3.471  11.439  10.104  0.2140 -0.0789  0.4980
  621MOL0     H81958   5.514  11.017  10.196  2.3606 -3.9700  1.1678
  621MOL0     H81959   5.722  10.919  10.147 -3.0712 -0.5428  1.7884
  621MOL0     H81960   6.072  10.903  10.041  0.5976 -0.3845  0.3782
  621MOL0     H81961   6.276  10.768  10.082 -0.6253 -2.7189  1.7726
  621MOL0     H81962   6.511  10.421   9.898 -0.3221  0.2180  0.3054
  621MOL0     H81963   6.376  10.407   9.789 -0.5908 -4.6883  0.6842
  621MOL0     H81964   6.230  10.359  10.001  0.1214  3.4318 -1.0111
  621MOL0     H81965   6.308  10.233   9.914 -1.6765  0.3640 -0.3249
  621MOL0     H81966   6.505  10.265  10.069  0.1537  0.9046  1.6020
  621MOL0     H81967   6.370  10.186  10.140 -0.6624 -0.3471 -0.2842
  621MOL0     H81968   6.425  10.479  10.191  2.0418 -0.4427  0.1869
  621MOL0     H81969   6.285  10.396  10.255  0.1126 -2.2744  2.8656
  621MOL0     H81970   6.636  10.273  10.484 -0.9028  0.0299  0.9923
  621MOL0     H81971   6.172  10.511   9.763 -0.7521 -2.3325  1.9065
  621MOL0     H81972   5.955  10.640   9.730 -1.3704 -0.5447  1.3130
  622MOL0     O81973   3.842   1.052   9.058  0.0787  0.2200 -0.1341
  622MOL0     C81974   3.773   1.055   8.954 -0.7483  0.2210 -0.2606
  622MOL0     O81975   3.819   1.065   8.822  0.5351 -0.1823 -0.0145
  622MOL0     C81976   3.948   1.076   8.777  0.0062 -0.1323 -0.1505
  622MOL0     C81977   3.968   1.061   8.636 -0.5909 -0.5290  0.2652
  622MOL0     C81978   4.093   1.088   8.575 -0.1868 -0.9107  0.6670
  622MOL0     C81979   4.207   1.110   8.652 -0.3964  0.3747 -0.4436
  622MOL0     O81980   4.340   1.109   8.621 -0.1178  0.1905  0.0236
  622MOL0     C81981   4.389   1.116   8.489 -0.5190  0.0565 -0.8591
  622MOL0     C81982   4.538   1.070   8.503  0.1120  0.4573 -0.1574
  622MOL0     C81983   4.626   1.182   8.553 -0.0677 -0.2305  0.7669
  622MOL0     C81984   4.772   1.151   8.600  0.6503  0.3613  0.0342
  622MOL0     C81985   4.850   1.283   8.607 -0.5222 -1.1757 -0.4003
  622MOL0     C81986   4.795   1.395   8.693  0.0233  0.6021 -0.2919
  622MOL0     C81987   4.849   1.534   8.657 -0.0899  0.1824 -0.2860
  622MOL0     C81988   4.868   1.618   8.793  0.6806  0.2005 -0.1731
  622MOL0     N81989   4.736   1.670   8.839  0.3850 -0.3263 -0.3813
  622MOL0     C81990   4.721   1.700   8.972 -0.2151  0.2418 -0.2971
  622MOL0     C81991   4.586   1.725   8.974 -0.3304 -0.4264 -0.3680
  622MOL0     C81992   4.512   1.788   9.081 -0.6448 -0.1422  0.1848
  622MOL0     C81993   4.355   1.771   9.075  0.0478  0.5998 -0.6403
  622MOL0     C81994   4.270   1.899   9.100 -0.2773  0.4737  0.3000
  622MOL0     C81995   4.120   1.874   9.084  0.0580  0.0007  0.2313
  622MOL0     O81996   4.058   2.000   9.125  0.1292  0.6540 -0.3358
  622MOL0     C81997   3.934   2.021   9.069 -0.1055  0.2052 -0.6555
  622MOL0     C81998   3.841   1.927   9.023 -0.3783  0.1764 -0.2415
  622MOL0     C81999   3.713   1.981   8.993  0.0933  1.3717  1.6387
  622MOL0     C82000   3.675   2.118   8.996  0.3942  1.3743 -0.2793
  622MOL0     C82001   3.545   2.161   8.968  0.1014  0.0714  0.2867
  622MOL0     O82002   3.455   2.070   8.933 -0.0516 -0.1080  0.0366
  622MOL0     C82003   3.322   2.081   8.959  0.2471 -0.2827  0.2420
  622MOL0     C82004   3.249   2.191   9.004 -0.0031  0.1237  0.3879
  622MOL0     C82005   3.109   2.182   9.022 -0.4195 -0.6241  0.3192
  622MOL0     C82006   3.038   2.069   8.979  0.0562 -0.0766  0.1961
  622MOL0     O82007   2.905   2.057   8.977  0.1811  0.0068  0.3079
  622MOL0     C82008   2.831   2.180   8.970  0.5506  0.2649 -0.5801
  622MOL0     C82009   2.691   2.163   8.920  0.4759 -0.0284  1.0202
  622MOL0     C82010   2.642   2.281   8.858  1.1088  0.1398  0.3014
  622MOL0     C82011   2.503   2.271   8.795  0.6384 -0.3403 -0.2479
  622MOL0     C82012   2.413   2.393   8.775 -0.2292  1.0648  0.1828
  622MOL0     C82013   2.464   2.498   8.683 -0.7896  0.2955  0.2121
  622MOL0     C82014   2.369   2.613   8.653  1.0803  1.1212 -0.5499
  622MOL0     C82015   2.305   2.675   8.778 -0.1838 -0.1771 -0.5959
  622MOL0    Cl82016   2.194   2.819   8.781  0.7145  0.1622 -0.3007
  622MOL0     C82017   3.111   1.967   8.936 -0.1814  0.7195  0.4588
  622MOL0     C82018   3.247   1.973   8.912 -0.6425  0.8931 -0.9573
  622MOL0     O82019   3.520   2.281   8.996  0.0517  0.0192  0.9624
  622MOL0     C82020   3.774   2.201   9.025 -1.4380 -0.6666  0.0882
  622MOL0     C82021   3.904   2.155   9.066  0.3874  0.5660 -0.3324
  622MOL0     N82022   4.526   1.675   8.852 -0.3654 -0.5878 -0.0285
  622MOL0     N82023   4.620   1.637   8.777  0.0353 -0.0518  0.3526
  622MOL0     C82024   4.182   1.127   8.790  0.2024  0.2597 -0.2539
  622MOL0     C82025   4.060   1.111   8.850  0.7163  0.6423  0.4171
  622MOL0     C82026   3.624   1.041   8.969 -0.6785 -0.0580  0.4835
  622MOL0     C82027   3.550   1.006   8.862 -0.1768  0.2828 -0.7859
  622MOL0     C82028   3.412   0.997   8.873  0.3677  0.0054  0.3421
  622MOL0     C82029   3.355   1.013   8.997  0.9407 -0.4071 -0.5632
  622MOL0     O82030   3.217   1.005   9.017 -0.0191  0.7027 -1.3953
  622MOL0     C82031   3.136   1.083   8.924  0.3651  0.0593 -0.0709
  622MOL0     C82032   2.996   1.112   8.969 -0.6765  0.7215  0.3338
  622MOL0     C82033   2.991   1.152   9.119 -0.2487 -0.0477 -0.5632
  622MOL0     C82034   2.844   1.209   9.147 -0.6763  0.4081  0.2008
  622MOL0     C82035   2.835   1.288   9.274  0.6026  0.2859 -0.3904
  622MOL0     C82036   2.828   1.334   9.382  0.0150 -0.4386  0.3532
  622MOL0     C82037   3.430   1.045   9.112  0.1017  0.0086  0.0778
  622MOL0     C82038   3.568   1.064   9.096 -0.5555 -0.6675 -0.7363
  622MOL0     H82039   3.879   1.032   8.580 -0.6173  0.2891 -0.1468
  622MOL0     H82040   4.112   1.064   8.471 -2.3825  2.6932 -0.7366
  622MOL0     H82041   4.392   1.213   8.438  1.0716 -0.5887 -2.0788
  622MOL0     H82042   4.356   1.035   8.423  2.0834 -3.3825  1.7066
  622MOL0     H82043   4.572   1.025   8.409 -1.7846  2.0867 -1.7016
  622MOL0     H82044   4.544   0.985   8.573  0.8254 -0.5606 -1.4082
  622MOL0     H82045   4.573   1.225   8.639 -2.7837 -3.9471  1.2332
  622MOL0     H82046   4.643   1.264   8.483  1.7046  2.5369  4.1202
  622MOL0     H82047   4.761   1.091   8.691 -0.7030 -2.3866 -1.8044
  622MOL0     H82048   4.825   1.088   8.528 -0.4745  0.1408 -0.6191
  622MOL0     H82049   4.844   1.330   8.509 -2.4287 -0.5862 -0.0445
  622MOL0     H82050   4.956   1.258   8.619 -0.5322 -1.2252 -0.4151
  622MOL0     H82051   4.820   1.365   8.795 -2.0203  0.2004  0.1317
  622MOL0     H82052   4.685   1.393   8.690 -0.1224 -1.4118  2.6367
  622MOL0     H82053   4.949   1.533   8.612  0.4315  2.1804  0.6981
  622MOL0     H82054   4.778   1.588   8.593 -2.2271 -1.1872  0.8147
  622MOL0     H82055   4.942   1.696   8.768 -0.2927  0.5741 -2.1624
  622MOL0     H82056   4.909   1.546   8.864 -3.1148 -3.3530 -1.1857
  622MOL0     H82057   4.800   1.702   9.046  1.5655 -0.4219 -2.0732
  622MOL0     H82058   4.525   1.897   9.076 -0.5879 -0.2046 -1.3440
  622MOL0     H82059   4.554   1.750   9.175 -0.0130  2.3584  1.0224
  622MOL0     H82060   4.339   1.709   9.163  1.1329  3.2722  1.5639
  622MOL0     H82061   4.312   1.723   8.986 -1.0153  1.9738 -0.9107
  622MOL0     H82062   4.274   1.927   9.206 -2.2353 -1.1896  0.8695
  622MOL0     H82063   4.307   1.973   9.028 -0.3613  1.1745  0.9562
  622MOL0     H82064   4.093   1.791   9.151 -0.3931  1.2023  1.5765
  622MOL0     H82065   4.104   1.834   8.983 -0.7292 -3.4219  1.5518
  622MOL0     H82066   3.860   1.821   9.010  3.8778  0.3299  2.7269
  622MOL0     H82067   3.652   1.906   8.944  2.2180  1.6414 -1.7492
  622MOL0     H82068   3.301   2.281   9.036  2.1103 -0.3757 -1.3493
  622MOL0     H82069   3.055   2.257   9.078  0.7163 -0.3546  1.0978
  622MOL0     H82070   2.881   2.248   8.899 -0.4843 -0.4917 -2.0748
  622MOL0     H82071   2.828   2.221   9.071 -0.9759  1.7541 -1.1734
  622MOL0     H82072   2.633   2.142   9.010 -1.1147  2.5660  0.6813
  622MOL0     H82073   2.680   2.083   8.846 -0.5762  0.7602  0.3008
  622MOL0     H82074   2.701   2.315   8.773 -0.6419  2.5473 -0.0693
  622MOL0     H82075   2.633   2.362   8.931  0.4346 -0.5684  1.0269
  622MOL0     H82076   2.524   2.222   8.700  0.4053 -0.3348 -0.3029
  622MOL0     H82077   2.436   2.206   8.851  1.3870 -0.8839  0.0230
  622MOL0     H82078   2.391   2.436   8.873  0.1622  0.2547  0.6380
  622MOL0     H82079   2.318   2.359   8.731 -1.0673  1.3982  1.6605
  622MOL0     H82080   2.478   2.458   8.582 -1.0803 -0.4582  0.4626
  622MOL0     H82081   2.551   2.552   8.723 -0.4291  2.4311 -3.0969
  622MOL0     H82082   2.426   2.689   8.599  3.3098  0.2892  0.5190
  622MOL0     H82083   2.286   2.578   8.590  0.8236  1.8318 -0.6162
  622MOL0     H82084   2.382   2.710   8.847 -0.6457  2.2693 -1.2232
  622MOL0     H82085   2.241   2.597   8.821  0.8666 -1.1773 -0.8167
  622MOL0     H82086   3.055   1.878   8.906 -1.4534  1.1588  1.4494
  622MOL0     H82087   3.288   1.881   8.872 -1.1429  0.6371 -0.8884
  622MOL0     H82088   3.756   2.308   9.022 -1.7983 -0.7285 -0.0513
  622MOL0     H82089   3.984   2.226   9.087  2.5616 -1.8746  0.0841
  622MOL0     H82090   4.259   1.156   8.861  2.0480 -0.5201 -1.8355
  622MOL0     H82091   4.052   1.120   8.958  2.1293  1.8007  0.4671
  622MOL0     H82092   3.593   0.964   8.772 -0.1633 -2.2759  0.3151
  622MOL0     H82093   3.358   0.962   8.785  3.4227 -1.4698 -1.1060
  622MOL0     H82094   3.136   1.032   8.827  2.8424 -1.6789  0.7402
  622MOL0     H82095   3.174   1.185   8.918 -0.4111  0.2765 -1.7407
  622MOL0     H82096   2.959   1.192   8.903  1.3920  0.3899 -1.3271
  622MOL0     H82097   2.930   1.026   8.953  0.6373 -0.1343 -0.6937
  622MOL0     H82098   3.066   1.227   9.146  1.0063 -1.5441  0.3064
  622MOL0     H82099   3.005   1.064   9.183 -0.3871 -0.7026 -1.4233
  622MOL0     H82100   2.818   1.282   9.070  1.0455  0.3509 -0.4689
  622MOL0     H82101   2.771   1.128   9.152 -0.8628  0.3190 -2.6651
  622MOL0     H82102   2.818   1.383   9.477  0.9439 -0.0605  0.2644
  622MOL0     H82103   3.380   1.035   9.207 -0.5059 -5.7462 -0.4604
  622MOL0     H82104   3.628   1.090   9.183 -3.3389  1.6447  0.6869
  623MOL0     O82105   0.683   6.339  10.756  1.1033 -0.0474 -0.3709
  623MOL0     C82106   0.670   6.247  10.838  0.3566 -0.1492  0.7570
  623MOL0     O82107   0.563   6.232  10.919  0.5587 -0.4874 -0.2215
  623MOL0     C82108   0.454   6.310  10.906 -0.7676 -0.2347 -0.4401
  623MOL0     C82109   0.327   6.257  10.870  0.3338 -0.2117  0.2297
  623MOL0     C82110   0.225   6.349  10.839  1.2386 -0.7755 -0.3911
  623MOL0     C82111   0.241   6.494  10.848  1.0232  0.5383 -0.7546
  623MOL0     O82112   0.135   6.569  10.803  0.7618  0.2603  0.3122
  623MOL0     C82113   0.126   6.713  10.831  0.5323  0.4558 -0.0132
  623MOL0     C82114   0.000   6.752  10.769 -0.3075 -1.1143 -0.0852
  623MOL0     C82115  -0.036   6.895  10.829 -0.4435  0.6370  0.3543
  623MOL0     C82116  -0.007   7.005  10.734 -0.0023  0.4129 -0.3591
  623MOL0     C82117  -0.102   7.121  10.769  0.4987  0.2189  1.0135
  623MOL0     C82118  -0.068   7.191  10.906 -0.0297 -0.3801 -0.0737
  623MOL0     C82119  -0.147   7.324  10.921 -0.7797  0.4476 -0.3654
  623MOL0     C82120  -0.304   7.295  10.917 -0.8074  0.2470 -0.3402
  623MOL0     N82121  -0.348   7.221  11.036 -0.0514  0.4237  0.5050
  623MOL0     C82122  -0.318   7.250  11.164 -0.5771  0.4064  0.1142
  623MOL0     C82123  -0.411   7.185  11.234 -1.0554  0.2843 -0.1299
  623MOL0     C82124  -0.416   7.172  11.384  0.2595  0.1977  0.2562
  623MOL0     C82125  -0.544   7.222  11.457  0.2704 -0.2944 -0.0331
  623MOL0     C82126  -0.534   7.183  11.607 -0.6653  0.4639 -0.1321
  623MOL0     C82127  -0.651   7.253  11.686  1.0198 -0.7658  0.3409
  623MOL0     O82128  -0.668   7.183  11.810  0.0765 -0.0612 -0.7112
  623MOL0     C82129  -0.777   7.226  11.889  0.6663  0.3686  0.3076
  623MOL0     C82130  -0.806   7.146  12.001 -0.1567 -0.7479  0.4045
  623MOL0     C82131  -0.927   7.165  12.073 -0.1058  0.0377 -0.3164
  623MOL0     C82132  -1.007   7.284  12.048 -0.6810 -0.0697  0.2601
  623MOL0     C82133  -1.117   7.316  12.136  0.2089 -0.5669 -0.8811
  623MOL0     O82134  -1.211   7.410  12.097 -0.2967  0.2944 -0.5756
  623MOL0     C82135  -1.320   7.430  12.171 -1.0476 -0.3280 -0.0400
  623MOL0     C82136  -1.373   7.550  12.131  0.4475 -0.2849  0.3189
  623MOL0     C82137  -1.493   7.595  12.189  0.0886  0.4760  0.0560
  623MOL0     C82138  -1.566   7.517  12.277 -0.5884 -0.3686  0.1496
  623MOL0     O82139  -1.685   7.549  12.335  0.8963 -0.4039  0.2407
  623MOL0     C82140  -1.711   7.689  12.365  0.4642 -0.1288  0.2760
  623MOL0     C82141  -1.840   7.706  12.448 -0.2482 -0.4402  0.1458
  623MOL0     C82142  -1.890   7.853  12.467 -0.7811 -0.1947 -0.5468
  623MOL0     C82143  -2.032   7.866  12.520 -0.7604 -0.0641 -0.2505
  623MOL0     C82144  -2.064   8.004  12.563 -0.8098 -0.6002  0.3867
  623MOL0     C82145  -2.188   8.024  12.656 -0.4969  0.2102  0.1049
  623MOL0     C82146  -2.322   8.011  12.581 -0.0400 -0.8045  0.0321
  623MOL0     C82147  -2.434   8.036  12.691  0.7409  0.0213  0.5324
  623MOL0    Cl82148  -2.414   8.210  12.741 -0.3636  0.2638 -0.0173
  623MOL0     C82149  -1.507   7.392  12.312  0.6269 -0.1889 -0.2160
  623MOL0     C82150  -1.385   7.342  12.258  0.3787 -0.4582 -0.8964
  623MOL0     O82151  -1.101   7.274  12.245 -0.8365 -0.1909 -0.1677
  623MOL0     C82152  -0.966   7.372  11.949  0.1062 -0.5469  0.1723
  623MOL0     C82153  -0.852   7.340  11.873 -0.8326 -1.2612 -0.3630
  623MOL0     N82154  -0.493   7.114  11.151  0.4849  0.1524 -0.0004
  623MOL0     N82155  -0.458   7.144  11.030 -0.1248  0.1534  0.5210
  623MOL0     C82156   0.370   6.541  10.886  0.6922 -0.0239 -0.1244
  623MOL0     C82157   0.474   6.456  10.905 -0.0043 -0.2008  0.1888
  623MOL0     C82158   0.783   6.154  10.848  0.6513 -0.3161 -0.9213
  623MOL0     C82159   0.869   6.140  10.742  0.3922  0.5736  0.6358
  623MOL0     C82160   0.989   6.066  10.761  0.3680  0.7865 -0.3493
  623MOL0     C82161   1.007   6.006  10.884  0.0764 -0.0623  0.2123
  623MOL0     O82162   1.120   5.939  10.924 -0.2543  0.0168 -0.2614
  623MOL0     C82163   1.246   5.998  10.885 -0.1823  0.3753 -0.6581
  623MOL0     C82164   1.314   5.909  10.785 -0.5719 -0.2820 -0.1197
  623MOL0     C82165   1.383   5.785  10.858 -0.5554  0.2104 -0.0978
  623MOL0     C82166   1.526   5.819  10.919 -1.0523 -0.7783  0.4774
  623MOL0     C82167   1.627   5.857  10.818 -0.4658  0.6757 -0.4861
  623MOL0     C82168   1.714   5.865  10.737 -0.0572  0.6693 -0.1236
  623MOL0     C82169   0.907   6.004  10.984 -1.1685 -0.0957  0.3435
  623MOL0     C82170   0.787   6.074  10.968  0.7292  0.3498  0.2497
  623MOL0     H82171   0.322   6.151  10.846 -0.3274  0.4431 -2.9531
  623MOL0     H82172   0.130   6.315  10.799 -0.4515  1.8708  1.0807
  623MOL0     H82173   0.212   6.772  10.798 -0.4164  1.7042 -0.3009
  623MOL0     H82174   0.113   6.732  10.938  1.0570  2.9546 -0.3332
  623MOL0     H82175  -0.078   6.680  10.793 -1.2365  0.1688  0.9285
  623MOL0     H82176   0.009   6.757  10.660 -2.3829 -2.5109 -0.3582
  623MOL0     H82177   0.014   6.917  10.924 -0.0155  4.1726 -0.5772
  623MOL0     H82178  -0.145   6.892  10.835 -0.5883 -4.0635 -0.5162
  623MOL0     H82179   0.096   7.040  10.743  0.6509 -1.3804 -0.3323
  623MOL0     H82180  -0.023   6.974  10.630  0.0241 -0.8880 -0.0021
  623MOL0     H82181  -0.207   7.094  10.784  0.9495 -1.3461  1.4681
  623MOL0     H82182  -0.109   7.186  10.680 -3.9239  0.0208  0.9739
  623MOL0     H82183   0.039   7.213  10.912  0.1919 -1.1557 -0.7979
  623MOL0     H82184  -0.081   7.113  10.981 -1.5130  0.3889  0.4893
  623MOL0     H82185  -0.123   7.378  11.013  1.2172  0.7309 -1.0053
  623MOL0     H82186  -0.125   7.398  10.844  3.3121  0.5166  0.6320
  623MOL0     H82187  -0.331   7.249  10.822  1.2823  0.3500 -1.0329
  623MOL0     H82188  -0.359   7.389  10.925 -1.3879 -0.1680  0.7294
  623MOL0     H82189  -0.228   7.302  11.197  1.5613 -2.5602 -0.6393
  623MOL0     H82190  -0.335   7.221  11.439 -0.8624  3.2733 -0.5776
  623MOL0     H82191  -0.391   7.067  11.397 -1.9222 -0.3634  0.3324
  623MOL0     H82192  -0.634   7.189  11.405  0.6879 -0.5386 -0.6213
  623MOL0     H82193  -0.536   7.330  11.442 -0.5417  0.1544  2.3553
  623MOL0     H82194  -0.552   7.075  11.616 -0.2829  0.3299 -0.9031
  623MOL0     H82195  -0.439   7.198  11.658 -1.8223  0.4802  2.1607
  623MOL0     H82196  -0.751   7.256  11.640  0.0902  0.7081  2.3391
  623MOL0     H82197  -0.616   7.356  11.696 -1.2913  0.2117 -0.7595
  623MOL0     H82198  -0.729   7.071  12.014  2.1712  1.4520  0.1167
  623MOL0     H82199  -0.949   7.094  12.152  1.2242 -1.4751 -1.2575
  623MOL0     H82200  -1.328   7.618  12.060  0.6736 -0.6345  0.1300
  623MOL0     H82201  -1.536   7.692  12.165  0.7260  0.7258 -0.1056
  623MOL0     H82202  -1.737   7.725  12.265  2.9896  0.1108 -0.3656
  623MOL0     H82203  -1.628   7.745  12.408  1.2303 -1.0523  0.0500
  623MOL0     H82204  -1.826   7.660  12.546  2.8302  1.8495  0.8974
  623MOL0     H82205  -1.924   7.660  12.395 -0.2092 -1.0891  0.6351
  623MOL0     H82206  -1.862   7.904  12.374  1.6757  0.0203  0.2388
  623MOL0     H82207  -1.837   7.898  12.551 -2.7711 -1.9271  1.7518
  623MOL0     H82208  -2.099   7.831  12.440 -3.5158 -1.3114  2.3847
  623MOL0     H82209  -2.050   7.800  12.605  0.9920  0.6770  0.7255
  623MOL0     H82210  -2.070   8.067  12.474 -1.5001 -0.4268  0.5582
  623MOL0     H82211  -1.985   8.048  12.625 -1.2021  0.3214  0.2413
  623MOL0     H82212  -2.180   8.130  12.683  0.8335  0.1003  0.1980
  623MOL0     H82213  -2.182   7.964  12.746 -2.6572  0.8217  0.7032
  623MOL0     H82214  -2.331   8.095  12.511 -0.8765  0.9878  2.1535
  623MOL0     H82215  -2.348   7.914  12.537  0.0228 -1.1776  0.8012
  623MOL0     H82216  -2.423   7.970  12.778  2.0175  0.6349  0.8609
  623MOL0     H82217  -2.531   8.026  12.643  1.3445  1.3337 -1.0495
  623MOL0     H82218  -1.564   7.324  12.375  0.5856 -1.8506 -1.9592
  623MOL0     H82219  -1.348   7.243  12.283  1.2314 -1.7367 -6.1199
  623MOL0     H82220  -1.021   7.465  11.934  0.4592 -0.1577  1.2153
  623MOL0     H82221  -0.811   7.396  11.790  2.0006 -0.6234  1.3470
  623MOL0     H82222   0.387   6.647  10.899 -2.6927  0.4135  2.3439
  623MOL0     H82223   0.574   6.492  10.925 -0.5096 -0.1409  3.0504
  623MOL0     H82224   0.861   6.198  10.650 -2.7375  3.4584  2.4885
  623MOL0     H82225   1.072   6.069  10.691  3.8434 -0.6286  3.3325
  623MOL0     H82226   1.314   6.006  10.970 -0.8320  1.8478 -0.2576
  623MOL0     H82227   1.237   6.096  10.837 -0.9326  0.4636 -0.3556
  623MOL0     H82228   1.235   5.895  10.711  1.1594 -0.2393 -2.0778
  623MOL0     H82229   1.388   5.966  10.727  0.2313 -1.2401 -0.0509
  623MOL0     H82230   1.393   5.707  10.782  0.7600 -0.9386  1.1841
  623MOL0     H82231   1.319   5.740  10.935  0.3196 -2.7806 -0.9829
  623MOL0     H82232   1.518   5.907  10.984  1.6531 -0.3477  0.3655
  623MOL0     H82233   1.580   5.735  10.964  2.6512 -0.2280 -2.3589
  623MOL0     H82234   1.802   5.869  10.676  1.1221  0.5491  1.5047
  623MOL0     H82235   0.923   5.943  11.073  0.5238  2.4052  1.8898
  623MOL0     H82236   0.702   6.080  11.035 -2.5686  3.1855 -3.7284
  624MOL0     O82237  11.028   4.481   1.154 -0.2696  0.0947 -0.0886
  624MOL0     C82238  11.108   4.548   1.086  1.1018 -0.3809 -0.2172
  624MOL0     O82239  11.098   4.576   0.955 -0.2643 -0.0405 -0.2670
  624MOL0     C82240  10.988   4.552   0.881 -0.6520  0.1462  0.0884
  624MOL0     C82241  10.866   4.602   0.923  0.5813 -0.5108  0.2468
  624MOL0     C82242  10.751   4.574   0.846  0.5197  0.4656  0.5005
  624MOL0     C82243  10.763   4.498   0.729  0.3072 -0.1237  0.0867
  624MOL0     O82244  10.661   4.471   0.640 -0.1936 -1.1999 -0.4464
  624MOL0     C82245  10.554   4.573   0.633 -0.2580 -0.4941  0.0962
  624MOL0     C82246  10.465   4.539   0.516  0.1269  0.2629  0.1448
  624MOL0     C82247  10.366   4.425   0.541 -1.3133  0.4932  0.0293
  624MOL0     C82248  10.237   4.438   0.458  0.0553  0.2717 -0.5588
  624MOL0     C82249  10.156   4.314   0.458  0.6097  0.1684 -0.1437
  624MOL0     C82250  10.064   4.293   0.341 -0.4763 -0.0987  0.5074
  624MOL0     C82251   9.981   4.172   0.364 -0.8274  0.4003  0.0055
  624MOL0     C82252   9.890   4.150   0.241 -0.2069 -0.1406 -0.4967
  624MOL0     N82253   9.807   4.031   0.280 -0.2325 -0.1909  0.7321
  624MOL0     C82254   9.717   4.030   0.382  0.7278  0.0953 -0.3516
  624MOL0     C82255   9.663   3.910   0.381  0.8178 -0.2294 -0.5862
  624MOL0     C82256   9.553   3.859   0.478  0.0568 -0.2109  0.5665
  624MOL0     C82257   9.405   3.860   0.418 -0.1833  0.1305  0.6357
  624MOL0     C82258   9.376   3.989   0.337 -0.4108 -0.8731  0.6384
  624MOL0     C82259   9.240   3.977   0.267 -0.6927 -0.1573 -0.3491
  624MOL0     O82260   9.205   4.106   0.222 -0.4425 -0.2780 -0.2770
  624MOL0     C82261   9.080   4.136   0.172 -0.0323 -0.5402 -0.1162
  624MOL0     C82262   9.071   4.258   0.101 -1.0425  1.6035 -0.2047
  624MOL0     C82263   8.951   4.309   0.058  0.4395 -0.4206  0.1437
  624MOL0     C82264   8.837   4.230   0.080  0.5360  0.7374  0.5248
  624MOL0     C82265   8.709   4.282   0.022  0.1235  1.0280  0.1834
  624MOL0     O82266   8.602   4.191   0.021 -0.1931 -0.1908 -0.4048
  624MOL0     C82267   8.478   4.223  -0.014  0.7339 -0.3210  0.3969
  624MOL0     C82268   8.414   4.350   0.014 -0.6115 -0.3778 -0.6836
  624MOL0     C82269   8.292   4.372  -0.047 -0.3357 -0.2379  0.6212
  624MOL0     C82270   8.233   4.284  -0.130  0.1915 -0.9863  1.0881
  624MOL0     O82271   8.117   4.325  -0.200 -0.4113  0.0096 -0.5981
  624MOL0     C82272   8.034   4.427  -0.145 -0.5288 -0.5970  0.2898
  624MOL0     C82273   8.065   4.573  -0.173 -1.6610 -0.4140 -0.8063
  624MOL0     C82274   7.982   4.627  -0.284  0.7526  0.1247 -0.2328
  624MOL0     C82275   8.006   4.559  -0.418 -0.3715  0.6010 -0.3072
  624MOL0     C82276   7.948   4.641  -0.536 -0.3936  0.0665  0.1197
  624MOL0     C82277   7.906   4.549  -0.665  0.5612  0.0652 -0.1987
  624MOL0     C82278   7.801   4.607  -0.750  0.7199 -0.1185  0.0230
  624MOL0     C82279   7.859   4.721  -0.834  0.2590  0.1781  0.0246
  624MOL0    Cl82280   7.742   4.780  -0.959  0.1213  0.1375 -0.2309
  624MOL0     C82281   8.291   4.160  -0.150 -1.0625  0.8838 -0.5915
  624MOL0     C82282   8.414   4.123  -0.096  0.4069  0.9082  0.2303
  624MOL0     O82283   8.704   4.391  -0.025 -0.2169 -1.0399  0.0078
  624MOL0     C82284   8.845   4.109   0.151  0.5437 -0.0786 -0.2983
  624MOL0     C82285   8.964   4.064   0.198 -0.0212  0.6982 -0.7734
  624MOL0     N82286   9.718   3.833   0.279 -0.0968 -0.2681 -0.1062
  624MOL0     N82287   9.799   3.906   0.220 -0.3917 -0.6360 -0.4861
  624MOL0     C82288  10.885   4.445   0.686 -0.0175 -0.9724  0.1392
  624MOL0     C82289  10.996   4.481   0.761 -0.5698  0.6339 -0.1271
  624MOL0     C82290  11.220   4.618   1.152 -0.9539  0.5577 -0.2283
  624MOL0     C82291  11.294   4.561   1.255 -0.9304  0.0274  0.2406
  624MOL0     C82292  11.401   4.646   1.306 -0.2567 -0.4682 -0.2542
  624MOL0     C82293  11.444   4.766   1.251  0.4364  0.8454  0.1126
  624MOL0     O82294  11.549   4.824   1.309  0.7387 -0.5201 -0.7603
  624MOL0     C82295  11.681   4.803   1.262  0.5576 -0.2578  0.5917
  624MOL0     C82296  11.738   4.669   1.304 -0.5181 -0.7078 -0.0968
  624MOL0     C82297  11.866   4.649   1.214 -1.2539  0.2424  0.0475
  624MOL0     C82298  11.903   4.501   1.210  0.1658 -1.0488  0.6112
  624MOL0     C82299  12.048   4.481   1.170 -0.0195 -1.1141  0.3485
  624MOL0     C82300  12.162   4.447   1.144 -0.7344 -0.1612 -0.0541
  624MOL0     C82301  11.377   4.805   1.138  0.1980 -0.0215  0.6783
  624MOL0     C82302  11.259   4.742   1.087  0.0711 -0.3264  0.4733
  624MOL0     H82303  10.852   4.670   1.006  0.1454 -0.7864  0.4029
  624MOL0     H82304  10.657   4.623   0.871  0.3462  0.9440 -1.0256
  624MOL0     H82305  10.605   4.667   0.613  2.2774 -1.5296  1.3024
  624MOL0     H82306  10.488   4.572   0.720 -1.4368  2.2142 -0.6379
  624MOL0     H82307  10.529   4.516   0.430 -1.4063  0.0884 -0.9770
  624MOL0     H82308  10.396   4.620   0.491 -2.6294 -1.5757  1.3607
  624MOL0     H82309  10.345   4.422   0.649 -3.0570 -2.7888 -0.2833
  624MOL0     H82310  10.419   4.336   0.506 -1.8086 -0.5606  1.8205
  624MOL0     H82311  10.181   4.525   0.492 -2.6087 -2.5865  3.1931
  624MOL0     H82312  10.260   4.455   0.352 -2.9882  0.2366 -1.3205
  624MOL0     H82313  10.090   4.316   0.545  0.1219 -1.6764 -0.4237
  624MOL0     H82314  10.226   4.231   0.472  2.3631  1.9627  2.7207
  624MOL0     H82315  10.126   4.266   0.256 -1.1697  0.7776 -0.2908
  624MOL0     H82316  10.016   4.384   0.304  3.2621  0.0596 -5.0593
  624MOL0     H82317  10.035   4.079   0.385  0.3839  1.3415  1.2715
  624MOL0     H82318   9.920   4.195   0.452 -1.8301 -0.1673 -0.5189
  624MOL0     H82319   9.952   4.131   0.153 -0.8191  0.9195 -1.1814
  624MOL0     H82320   9.825   4.234   0.214 -1.0547 -0.9134 -0.9156
  624MOL0     H82321   9.701   4.106   0.458 -1.5429 -0.4062 -0.2590
  624MOL0     H82322   9.561   3.923   0.567  1.8706 -1.7121  1.5662
  624MOL0     H82323   9.579   3.758   0.514  1.7661  0.8367  2.4872
  624MOL0     H82324   9.350   3.856   0.512 -0.3955  2.1554  0.6294
  624MOL0     H82325   9.377   3.771   0.361  0.6091  0.2896 -0.0338
  624MOL0     H82326   9.378   4.078   0.400 -1.7915 -0.3985  0.0320
  624MOL0     H82327   9.449   3.998   0.256 -1.4682 -1.0792 -0.3591
  624MOL0     H82328   9.174   3.935   0.343 -0.5640  1.7569  0.8639
  624MOL0     H82329   9.244   3.910   0.180  0.3260  1.0163 -1.2356
  624MOL0     H82330   9.169   4.303   0.088 -0.0781 -0.3509 -0.1301
  624MOL0     H82331   8.949   4.409   0.014 -0.2952 -0.5392 -0.1160
  624MOL0     H82332   8.466   4.423   0.076  2.9531 -2.8358 -0.4233
  624MOL0     H82333   8.251   4.469  -0.023 -0.2176 -0.3192  1.1563
  624MOL0     H82334   8.022   4.402  -0.039  0.9847  0.0128  0.6318
  624MOL0     H82335   7.936   4.400  -0.185  0.6802 -2.8346 -1.3718
  624MOL0     H82336   8.171   4.573  -0.201 -1.9167  0.9929 -1.8602
  624MOL0     H82337   8.058   4.630  -0.080 -1.4527 -2.4504  0.5309
  624MOL0     H82338   8.024   4.727  -0.299 -0.0409  0.3757 -0.8147
  624MOL0     H82339   7.879   4.623  -0.249  1.4051 -1.1249  1.7737
  624MOL0     H82340   8.110   4.527  -0.428 -1.0044 -1.2806 -1.3603
  624MOL0     H82341   7.939   4.473  -0.419 -1.4261  1.4049 -1.3872
  624MOL0     H82342   8.026   4.714  -0.558  0.2895 -0.6185  0.2157
  624MOL0     H82343   7.859   4.696  -0.505 -0.2476 -0.3887  1.4334
  624MOL0     H82344   7.869   4.455  -0.624 -0.2096  0.7640  0.7558
  624MOL0     H82345   7.993   4.523  -0.726 -0.8953  1.3889 -3.0274
  624MOL0     H82346   7.754   4.535  -0.818  0.2199  1.3343 -1.2336
  624MOL0     H82347   7.722   4.647  -0.686  0.5170 -0.1943 -0.1770
  624MOL0     H82348   7.941   4.675  -0.892 -0.8804 -1.5234 -0.3264
  624MOL0     H82349   7.902   4.801  -0.774  0.8212 -1.2000  1.5351
  624MOL0     H82350   8.233   4.085  -0.203  0.8691 -1.6184  0.6101
  624MOL0     H82351   8.466   4.032  -0.123  1.2340  2.3462 -3.7632
  624MOL0     H82352   8.758   4.047   0.173  0.2355  0.7133  0.7749
  624MOL0     H82353   8.968   3.968   0.248  4.4366  1.1716  0.1181
  624MOL0     H82354  10.893   4.365   0.614  0.2642 -0.9940  0.1958
  624MOL0     H82355  11.090   4.443   0.722 -0.2591  1.2694 -0.0108
  624MOL0     H82356  11.281   4.457   1.283  1.2188 -0.2853  0.3088
  624MOL0     H82357  11.449   4.605   1.394  1.7028  0.3840 -0.8729
  624MOL0     H82358  11.753   4.881   1.289  2.8138 -2.0579  0.0608
  624MOL0     H82359  11.684   4.806   1.153  2.5580  2.3972  0.6020
  624MOL0     H82360  11.767   4.662   1.409  0.6465  0.2240 -0.3390
  624MOL0     H82361  11.666   4.589   1.281  1.3012 -3.0600  1.8967
  624MOL0     H82362  11.943   4.708   1.265 -1.5136  0.8113 -0.2048
  624MOL0     H82363  11.867   4.691   1.113  0.1790  1.6177  0.5817
  624MOL0     H82364  11.875   4.443   1.298 -1.2362  0.0941  0.9680
  624MOL0     H82365  11.845   4.463   1.125  0.8580  1.8216 -1.2621
  624MOL0     H82366  12.258   4.402   1.127 -0.4828 -0.6490  2.2847
  624MOL0     H82367  11.407   4.898   1.091 -0.0857  0.0149  0.5726
  624MOL0     H82368  11.216   4.785   0.997  1.0773  2.2308  1.1428
  625MOL0     O82369   3.769   6.086  11.088 -0.5916 -0.2071 -0.0329
  625MOL0     C82370   3.759   5.998  11.178  1.0150  0.3599  0.3336
  625MOL0     O82371   3.644   5.940  11.222 -0.2546 -0.3385 -0.3263
  625MOL0     C82372   3.527   5.979  11.158 -0.2344  0.4093  0.0466
  625MOL0     C82373   3.469   6.099  11.173  0.2984 -0.2060  0.3482
  625MOL0     C82374   3.351   6.139  11.111  0.4276  0.2341 -0.1491
  625MOL0     C82375   3.292   6.058  11.016 -0.3338  0.1696  0.9280
  625MOL0     O82376   3.190   6.099  10.926 -0.8621 -0.5031  0.5000
  625MOL0     C82377   3.215   6.238  10.870 -0.0247 -0.1538  0.0096
  625MOL0     C82378   3.118   6.289  10.774  0.4692 -0.1823 -0.5469
  625MOL0     C82379   3.153   6.426  10.715 -0.3015 -0.5095  0.2412
  625MOL0     C82380   3.038   6.477  10.621 -1.0018 -0.1504  0.0141
  625MOL0     C82381   3.056   6.611  10.560 -0.4806 -0.1360  0.4858
  625MOL0     C82382   2.924   6.662  10.497  0.2055 -0.3438  0.8615
  625MOL0     C82383   2.882   6.594  10.360  0.5318  0.0812 -0.5464
  625MOL0     C82384   2.791   6.682  10.286  0.1653 -0.2429  0.5536
  625MOL0     N82385   2.755   6.642  10.147 -0.5416  0.6608 -0.2929
  625MOL0     C82386   2.635   6.635  10.081 -0.0997  0.2342  0.7616
  625MOL0     C82387   2.666   6.606   9.950 -0.8236  0.5029 -1.1030
  625MOL0     C82388   2.560   6.553   9.862  1.3408  0.1508  0.2531
  625MOL0     C82389   2.439   6.645   9.878  0.3506  0.3481 -0.1145
  625MOL0     C82390   2.328   6.599   9.791  0.8631  0.1641  0.4060
  625MOL0     C82391   2.196   6.684   9.805 -0.3034  0.0561 -0.8025
  625MOL0     O82392   2.108   6.610   9.714  0.4316  0.1531 -0.4519
  625MOL0     C82393   1.979   6.652   9.704 -0.1078 -0.9849 -0.2819
  625MOL0     C82394   1.923   6.754   9.770 -0.3263 -0.0278 -0.7028
  625MOL0     C82395   1.793   6.796   9.755  0.6635 -0.0121  1.0200
  625MOL0     C82396   1.710   6.727   9.663  0.0623  0.0297 -0.9869
  625MOL0     C82397   1.563   6.766   9.649  0.1406  0.0063 -0.7564
  625MOL0     O82398   1.519   6.848   9.743 -0.5853 -0.3377 -0.2618
  625MOL0     C82399   1.391   6.884   9.746 -0.1977 -0.6800 -1.1094
  625MOL0     C82400   1.333   6.880   9.870  0.5488  0.0590 -0.0496
  625MOL0     C82401   1.208   6.948   9.896 -0.2530 -0.7241 -1.4028
  625MOL0     C82402   1.139   7.009   9.786 -0.3160  0.5907 -0.4004
  625MOL0     O82403   1.025   7.070   9.802 -0.3581 -0.5162 -0.1812
  625MOL0     C82404   0.919   7.012   9.884 -1.0587  0.3968  1.2031
  625MOL0     C82405   0.801   7.114   9.883 -0.0473  0.4434 -0.6842
  625MOL0     C82406   0.840   7.266   9.910 -0.6811 -0.8665 -0.0104
  625MOL0     C82407   0.922   7.275  10.039  0.2632  0.3488  0.2790
  625MOL0     C82408   0.942   7.431  10.074 -0.3155  0.5547 -0.0702
  625MOL0     C82409   1.062   7.439  10.179  0.1907 -0.3214  0.3228
  625MOL0     C82410   1.098   7.578  10.199 -0.5688  0.0193  0.2815
  625MOL0     C82411   1.218   7.580  10.294 -0.7366  0.3119 -0.1650
  625MOL0    Cl82412   1.160   7.578  10.463 -0.3046  0.1129  0.3369
  625MOL0     C82413   1.199   7.002   9.660  0.5687 -0.8866 -0.2365
  625MOL0     C82414   1.327   6.954   9.646  0.4640 -0.6431 -0.0702
  625MOL0     O82415   1.501   6.720   9.554  0.7915  0.5391  0.5233
  625MOL0     C82416   1.771   6.620   9.599  1.7058  0.3782 -0.7251
  625MOL0     C82417   1.897   6.577   9.619  0.2861 -0.2777 -0.8795
  625MOL0     N82418   2.807   6.597   9.940  0.0342  0.1009 -0.0197
  625MOL0     N82419   2.853   6.611  10.059  0.3544  0.3524 -0.1609
  625MOL0     C82420   3.349   5.926  10.997 -0.5391 -0.3388  0.2475
  625MOL0     C82421   3.469   5.889  11.068  0.3104 -0.3176 -0.6706
  625MOL0     C82422   3.873   5.948  11.243  0.7722 -0.4717  0.4212
  625MOL0     C82423   3.989   6.031  11.242  0.4020  0.1660 -0.2534
  625MOL0     C82424   4.110   5.982  11.290  0.4098 -0.0098  0.3286
  625MOL0     C82425   4.120   5.863  11.361  0.2211 -0.5956  0.8233
  625MOL0     O82426   4.240   5.822  11.403 -0.3394  0.7108  0.1694
  625MOL0     C82427   4.237   5.754  11.530 -0.2328 -1.1356 -0.8877
  625MOL0     C82428   4.391   5.734  11.562  0.4106 -0.4316  0.2315
  625MOL0     C82429   4.415   5.703  11.702 -0.6898  0.1017 -0.1932
  625MOL0     C82430   4.394   5.826  11.799  0.2207  0.5096 -0.3175
  625MOL0     C82431   4.485   5.935  11.779 -0.2299 -0.4245  0.9937
  625MOL0     C82432   4.552   6.033  11.772  0.1608  0.6901  0.7465
  625MOL0     C82433   4.001   5.781  11.360 -0.1544  0.0521 -0.6228
  625MOL0     C82434   3.880   5.824  11.306  0.4189  0.0930  0.2053
  625MOL0     H82435   3.517   6.169  11.240  0.8114 -0.3255  0.1078
  625MOL0     H82436   3.316   6.241  11.120  0.9953  0.5767 -1.5693
  625MOL0     H82437   3.305   6.245  10.808  1.5782 -0.3445  2.2036
  625MOL0     H82438   3.205   6.300  10.960 -2.3929 -0.2441 -0.1188
  625MOL0     H82439   3.016   6.283  10.815  0.3694  2.3792 -0.2802
  625MOL0     H82440   3.116   6.212  10.696  0.4529 -1.1284  0.3611
  625MOL0     H82441   3.242   6.412  10.654 -1.0739  2.1809 -1.6625
  625MOL0     H82442   3.168   6.506  10.787 -2.2432  0.0626  0.0686
  625MOL0     H82443   3.046   6.402  10.541  2.8795 -0.4849  0.5038
  625MOL0     H82444   2.940   6.468  10.668 -1.6742 -1.1786 -1.5065
  625MOL0     H82445   3.136   6.615  10.486 -0.3507 -3.0027  0.3836
  625MOL0     H82446   3.083   6.670  10.648 -0.6318  0.0436  0.4136
  625MOL0     H82447   2.950   6.761  10.461  0.9259 -2.4349 -5.6279
  625MOL0     H82448   2.843   6.665  10.571 -0.2676 -0.6552  0.3647
  625MOL0     H82449   2.973   6.574  10.302  1.0451  2.6278 -0.7223
  625MOL0     H82450   2.840   6.495  10.379  3.6697 -1.6002 -1.6331
  625MOL0     H82451   2.841   6.779  10.285 -0.1145 -0.0422  2.3692
  625MOL0     H82452   2.705   6.701  10.351  0.7403  0.7940  1.0319
  625MOL0     H82453   2.541   6.667  10.127 -1.1483 -0.6040 -0.6973
  625MOL0     H82454   2.541   6.448   9.884 -1.8274  0.1037 -2.0701
  625MOL0     H82455   2.589   6.558   9.757 -1.8875  3.6406 -0.6859
  625MOL0     H82456   2.468   6.749   9.857 -0.6927  0.8093  0.6435
  625MOL0     H82457   2.391   6.638   9.976  0.9417 -1.8588  0.0601
  625MOL0     H82458   2.356   6.597   9.686 -1.0214  0.9403 -0.1512
  625MOL0     H82459   2.298   6.496   9.812 -3.6784  1.4238  1.3408
  625MOL0     H82460   2.217   6.786   9.772 -1.0684  0.3634 -0.3651
  625MOL0     H82461   2.153   6.689   9.905  0.0586  2.5795 -0.7209
  625MOL0     H82462   1.974   6.817   9.842  0.0438 -1.3014  0.1729
  625MOL0     H82463   1.756   6.884   9.807 -1.2552 -0.5514  0.6237
  625MOL0     H82464   1.383   6.842   9.959 -0.0085 -0.1680  0.1719
  625MOL0     H82465   1.173   6.946   9.998  1.5102  1.7917 -0.6727
  625MOL0     H82466   0.950   7.003   9.989 -0.1605 -0.2214  0.8938
  625MOL0     H82467   0.891   6.915   9.843 -1.5047  0.9725  0.1068
  625MOL0     H82468   0.731   7.077   9.958 -0.1793 -2.2457 -2.0340
  625MOL0     H82469   0.756   7.100   9.784  2.0512 -0.8297 -1.5282
  625MOL0     H82470   0.753   7.332   9.905 -0.3133 -0.3755 -0.0314
  625MOL0     H82471   0.906   7.297   9.829 -2.1812  0.9788 -0.6018
  625MOL0     H82472   0.875   7.220  10.122 -2.8540 -0.8068 -2.0518
  625MOL0     H82473   1.015   7.219  10.028 -1.0717 -2.2942  1.5260
  625MOL0     H82474   0.866   7.494  10.122 -0.1225  0.7594 -0.0318
  625MOL0     H82475   0.966   7.489   9.984 -2.5775  3.4244  0.9886
  625MOL0     H82476   1.149   7.387  10.138 -0.2991 -2.5891  1.9734
  625MOL0     H82477   1.037   7.392  10.274 -1.6640  1.2449  0.6651
  625MOL0     H82478   1.118   7.630  10.105 -1.3076 -0.0667  0.0722
  625MOL0     H82479   1.016   7.636  10.243  1.2420  3.2194 -0.1886
  625MOL0     H82480   1.282   7.668  10.287 -0.4143  0.0979  0.0868
  625MOL0     H82481   1.284   7.497  10.268  0.5754  1.5714 -0.9856
  625MOL0     H82482   1.139   7.033   9.575  1.1698  1.9727  0.2942
  625MOL0     H82483   1.380   6.962   9.551  0.9037  0.0316  0.2256
  625MOL0     H82484   1.705   6.568   9.530  1.3278 -1.5520  1.0055
  625MOL0     H82485   1.939   6.488   9.572  2.7111 -0.3595  1.2525
  625MOL0     H82486   3.309   5.870  10.913  0.7672  0.2884 -0.8316
  625MOL0     H82487   3.524   5.798  11.044  0.4985 -0.9145  1.7904
  625MOL0     H82488   3.980   6.127  11.192 -1.4202 -1.5670 -3.5533
  625MOL0     H82489   4.190   6.051  11.267 -0.6659  1.0095 -0.5147
  625MOL0     H82490   4.189   5.656  11.542  2.3296 -2.1353  3.6748
  625MOL0     H82491   4.190   5.829  11.594 -1.1346 -1.0591 -1.6190
  625MOL0     H82492   4.426   5.649  11.502  1.7812  0.1095  0.2330
  625MOL0     H82493   4.440   5.822  11.519 -0.6601 -0.2363 -0.6333
  625MOL0     H82494   4.512   5.653  11.711  0.0561  0.7628 -3.5070
  625MOL0     H82495   4.339   5.631  11.733  0.1150 -0.4290  0.6162
  625MOL0     H82496   4.291   5.863  11.800  0.4643  1.5654  3.8585
  625MOL0     H82497   4.407   5.789  11.901 -2.6395 -0.5534 -0.2609
  625MOL0     H82498   4.637   6.096  11.754  0.3396 -0.1071 -1.5523
  625MOL0     H82499   3.981   5.684  11.403 -3.3816  1.4166  1.3573
  625MOL0     H82500   3.789   5.765  11.313  1.2952 -1.2465  0.5443
  626MOL0     O82501   7.513   5.807   3.313  0.1981 -0.9875 -0.4959
  626MOL0     C82502   7.506   5.872   3.419 -1.1412  1.4311  0.4112
  626MOL0     O82503   7.402   5.923   3.478  0.6495 -0.4370 -0.2230
  626MOL0     C82504   7.276   5.887   3.434 -0.0137  0.0124 -0.4340
  626MOL0     C82505   7.221   5.758   3.401 -0.5283 -0.3934 -0.0301
  626MOL0     C82506   7.088   5.734   3.371 -0.2438 -0.2303 -0.2303
  626MOL0     C82507   6.989   5.836   3.371  0.2310 -0.1445  0.3172
  626MOL0     O82508   6.852   5.816   3.348 -0.9040 -0.0182 -0.7290
  626MOL0     C82509   6.810   5.711   3.264  0.2949  0.6918 -0.2753
  626MOL0     C82510   6.874   5.727   3.126 -0.0928  0.1425  0.1942
  626MOL0     C82511   6.838   5.624   3.019  1.2917  0.8118  0.0716
  626MOL0     C82512   6.693   5.646   2.962  0.1351 -0.3605  0.1578
  626MOL0     C82513   6.636   5.546   2.857 -0.1548 -0.0100 -0.0256
  626MOL0     C82514   6.483   5.549   2.850 -0.7295  0.1147  0.5198
  626MOL0     C82515   6.415   5.671   2.793  0.7889 -0.6709 -0.4287
  626MOL0     C82516   6.257   5.666   2.787  0.3180 -0.8748 -0.2791
  626MOL0     N82517   6.209   5.594   2.668 -1.0911  0.5053 -0.2185
  626MOL0     C82518   6.233   5.615   2.534 -0.4363  0.1210 -0.8923
  626MOL0     C82519   6.183   5.507   2.471 -0.5660 -1.1692  0.7141
  626MOL0     C82520   6.201   5.470   2.323 -0.7052 -0.2652  0.3692
  626MOL0     C82521   6.351   5.437   2.303 -0.8063  0.3779 -1.1262
  626MOL0     C82522   6.369   5.402   2.158  0.0966  0.2247 -0.0649
  626MOL0     C82523   6.481   5.300   2.133 -0.4578 -1.0080 -0.7128
  626MOL0     O82524   6.490   5.253   1.997  0.0174  0.1760  0.6045
  626MOL0     C82525   6.592   5.293   1.912 -0.5646 -0.1955  0.5597
  626MOL0     C82526   6.569   5.262   1.780 -1.0499  0.7595 -1.1250
  626MOL0     C82527   6.659   5.305   1.691  0.6877 -0.1894 -0.1295
  626MOL0     C82528   6.783   5.371   1.713  0.7032  0.4921  0.4194
  626MOL0     C82529   6.883   5.384   1.604 -0.2768 -0.9317  0.3498
  626MOL0     O82530   6.857   5.324   1.479  0.3517  0.4529 -0.0500
  626MOL0     C82531   6.950   5.340   1.382 -0.0868  0.0677 -0.1092
  626MOL0     C82532   7.090   5.363   1.396 -0.3950  0.3910 -0.1266
  626MOL0     C82533   7.170   5.376   1.283 -0.2961 -0.3188 -0.3312
  626MOL0     C82534   7.118   5.372   1.154  0.0881 -0.8182  0.0162
  626MOL0     O82535   7.204   5.392   1.046  0.5098  0.2064 -0.4121
  626MOL0     C82536   7.145   5.400   0.914 -0.1071  0.7658  0.2969
  626MOL0     C82537   7.253   5.402   0.811  0.1155 -0.2525  0.2773
  626MOL0     C82538   7.377   5.487   0.842 -0.4639 -0.0521 -0.2483
  626MOL0     C82539   7.471   5.505   0.727 -0.4035  0.3885 -0.7554
  626MOL0     C82540   7.575   5.613   0.748 -0.0327 -0.3432 -0.3462
  626MOL0     C82541   7.656   5.610   0.873 -0.3195 -0.3253  0.1024
  626MOL0     C82542   7.729   5.478   0.888 -0.7503  0.8054 -0.0892
  626MOL0     C82543   7.855   5.484   0.973  0.4335 -0.1229 -0.6354
  626MOL0    Cl82544   7.937   5.326   0.999  0.1204  0.0592 -0.0316
  626MOL0     C82545   6.980   5.372   1.142  0.5697 -0.0353 -0.7660
  626MOL0     C82546   6.901   5.331   1.257 -0.3110  0.7183  1.0999
  626MOL0     O82547   6.972   5.474   1.625 -0.2038  1.0130 -0.1437
  626MOL0     C82548   6.802   5.394   1.860  0.4437 -0.1051  1.3760
  626MOL0     C82549   6.709   5.360   1.951 -0.1670  0.3177 -0.3739
  626MOL0     N82550   6.120   5.425   2.561  1.2271  0.3294  0.1131
  626MOL0     N82551   6.135   5.481   2.677 -0.1710  0.8081 -0.2965
  626MOL0     C82552   7.037   5.966   3.408 -0.7180  1.1286  0.0993
  626MOL0     C82553   7.176   5.985   3.447  0.4060  0.5007  0.8219
  626MOL0     C82554   7.635   5.937   3.474 -0.3882 -0.6959  0.5754
  626MOL0     C82555   7.759   5.937   3.395 -0.3874  0.1581 -0.9707
  626MOL0     C82556   7.861   6.023   3.442  0.1344 -0.0614  0.6969
  626MOL0     C82557   7.864   6.080   3.576 -0.6857  0.5103  0.1832
  626MOL0     O82558   7.973   6.144   3.636  0.6493 -0.7755  0.9332
  626MOL0     C82559   8.085   6.186   3.567 -0.6322  0.1982 -0.2176
  626MOL0     C82560   8.187   6.074   3.548 -0.7080 -0.6132  0.1126
  626MOL0     C82561   8.268   6.047   3.673 -0.5578 -0.0523  0.1228
  626MOL0     C82562   8.397   5.970   3.637 -0.9592 -0.0864  0.0874
  626MOL0     C82563   8.475   5.943   3.762 -0.0933 -0.4636  0.8874
  626MOL0     C82564   8.546   5.929   3.861  0.1920 -0.0919  0.4305
  626MOL0     C82565   7.751   6.069   3.656 -0.6558  0.5768  0.3879
  626MOL0     C82566   7.644   5.995   3.603 -0.1991 -0.3320  1.0284
  626MOL0     H82567   7.297   5.684   3.380  0.7448  1.1673 -1.2558
  626MOL0     H82568   7.052   5.636   3.341  0.8086 -1.0507  1.1072
  626MOL0     H82569   6.701   5.709   3.267  0.3145 -0.3021  0.1286
  626MOL0     H82570   6.833   5.617   3.314 -0.5828  1.9405  2.6923
  626MOL0     H82571   6.981   5.714   3.143 -0.3953 -0.7026  1.6531
  626MOL0     H82572   6.866   5.831   3.092  4.3435  1.2001  1.7250
  626MOL0     H82573   6.844   5.527   3.070 -0.4441  1.4677  1.6680
  626MOL0     H82574   6.911   5.625   2.937  0.1103 -1.1432 -1.1002
  626MOL0     H82575   6.621   5.628   3.042  2.0665 -0.2815  1.9979
  626MOL0     H82576   6.690   5.748   2.924  1.1875  0.2400  1.6247
  626MOL0     H82577   6.656   5.442   2.885 -2.4454 -0.7369 -0.8782
  626MOL0     H82578   6.682   5.564   2.759 -1.5281  1.1682 -0.4848
  626MOL0     H82579   6.435   5.523   2.945 -3.3386 -0.5249 -0.8725
  626MOL0     H82580   6.469   5.470   2.776  2.7692  0.4385 -0.6859
  626MOL0     H82581   6.439   5.753   2.861 -1.0527 -1.0979  0.8125
  626MOL0     H82582   6.456   5.692   2.694 -1.2716 -0.4016 -1.2618
  626MOL0     H82583   6.229   5.772   2.783 -0.2737 -1.0449 -4.4264
  626MOL0     H82584   6.224   5.631   2.885 -0.1756 -0.7811 -0.4094
  626MOL0     H82585   6.292   5.698   2.496  2.6136 -0.2897  2.4487
  626MOL0     H82586   6.181   5.554   2.255 -3.6895  2.4988  4.1969
  626MOL0     H82587   6.135   5.387   2.298 -1.4177 -0.3599  2.3894
  626MOL0     H82588   6.357   5.346   2.363 -1.5828  0.6173 -0.6640
  626MOL0     H82589   6.419   5.514   2.340  0.2485 -0.9689 -0.2086
  626MOL0     H82590   6.284   5.351   2.114  0.2566 -0.3123  0.2321
  626MOL0     H82591   6.386   5.497   2.107 -0.2529  0.5752  0.4658
  626MOL0     H82592   6.480   5.216   2.202 -1.1147 -0.4061  0.0393
  626MOL0     H82593   6.569   5.360   2.161  0.3509 -1.7959 -1.5049
  626MOL0     H82594   6.482   5.198   1.767 -0.9465 -0.7731  3.8246
  626MOL0     H82595   6.649   5.274   1.587  3.7065 -1.1473 -0.2429
  626MOL0     H82596   7.141   5.349   1.491 -1.0062  0.9936  0.3002
  626MOL0     H82597   7.278   5.383   1.289 -0.1009 -2.3112 -0.8112
  626MOL0     H82598   7.075   5.484   0.904 -0.0686  0.6097 -1.6534
  626MOL0     H82599   7.095   5.304   0.901  5.8173 -2.6947 -0.2903
  626MOL0     H82600   7.208   5.445   0.721 -0.0808  0.1464  0.5647
  626MOL0     H82601   7.282   5.299   0.785 -3.2498 -0.7939 -2.1125
  626MOL0     H82602   7.421   5.430   0.924 -1.8650 -3.7711 -1.8491
  626MOL0     H82603   7.342   5.586   0.874 -2.8804 -0.7047 -0.7016
  626MOL0     H82604   7.523   5.411   0.705 -0.6515 -0.0226  0.3383
  626MOL0     H82605   7.413   5.520   0.636  0.1636 -0.3413 -1.2423
  626MOL0     H82606   7.517   5.704   0.766 -1.9220 -1.5705  0.0850
  626MOL0     H82607   7.633   5.627   0.656 -3.0464  1.3350 -2.1567
  626MOL0     H82608   7.587   5.619   0.958  0.5967  2.3007  0.6809
  626MOL0     H82609   7.713   5.703   0.886 -2.9987  1.3162  1.1241
  626MOL0     H82610   7.663   5.397   0.918 -0.4057  0.2932 -0.6885
  626MOL0     H82611   7.757   5.445   0.788 -2.7676 -2.9688  0.3991
  626MOL0     H82612   7.826   5.525   1.070 -4.3806  0.0477 -1.8594
  626MOL0     H82613   7.935   5.550   0.938  1.1702  1.1347  2.9934
  626MOL0     H82614   6.917   5.387   1.055 -1.4321 -0.7577  0.4885
  626MOL0     H82615   6.794   5.311   1.261 -0.4005  0.7847 -0.3982
  626MOL0     H82616   6.894   5.439   1.894 -0.9166  1.3955  3.3266
  626MOL0     H82617   6.745   5.384   2.050  3.4959 -2.0362 -0.9698
  626MOL0     H82618   6.962   6.044   3.399 -0.8132  1.1551  0.9927
  626MOL0     H82619   7.193   6.087   3.481 -2.6121  1.9081 -1.4087
  626MOL0     H82620   7.764   5.890   3.297 -2.6732 -0.4983 -0.8252
  626MOL0     H82621   7.947   6.023   3.375  1.7540 -2.6206  2.5808
  626MOL0     H82622   8.132   6.265   3.626 -1.3705  1.0354 -0.7353
  626MOL0     H82623   8.038   6.230   3.479 -1.2430  0.6114  0.3092
  626MOL0     H82624   8.140   5.985   3.506 -1.3001 -1.3909  2.3086
  626MOL0     H82625   8.260   6.107   3.474 -2.0963  0.7191 -0.6997
  626MOL0     H82626   8.216   5.985   3.747  1.5309  1.3064  2.9315
  626MOL0     H82627   8.283   6.143   3.724 -0.5575  1.9258 -3.3203
  626MOL0     H82628   8.368   5.875   3.592 -2.3722  0.3446  0.0264
  626MOL0     H82629   8.464   6.022   3.568  4.7536  0.5131  5.2024
  626MOL0     H82630   8.596   5.904   3.952 -0.5347 -0.8684  0.6253
  626MOL0     H82631   7.756   6.127   3.748  0.7511  2.6041 -0.8906
  626MOL0     H82632   7.560   5.994   3.672 -2.0711  0.5373 -1.1208
  627MOL0     O82633   2.227  11.116   5.906 -0.0953  0.4391  0.6090
  627MOL0     C82634   2.222  11.230   5.865  0.3903 -0.2475 -0.4961
  627MOL0     O82635   2.126  11.329   5.898  0.2448  0.3312 -0.2892
  627MOL0     C82636   2.030  11.288   5.992  0.1966  0.3025  0.4424
  627MOL0     C82637   1.965  11.387   6.067  0.2851  0.3520  0.1200
  627MOL0     C82638   1.885  11.360   6.180  0.2399 -0.5081  0.5555
  627MOL0     C82639   1.838  11.231   6.209  0.4286  0.7352  1.2213
  627MOL0     O82640   1.743  11.224   6.308  0.7218 -0.4787 -0.0315
  627MOL0     C82641   1.656  11.115   6.307 -0.1121 -0.1657 -0.4696
  627MOL0     C82642   1.536  11.133   6.410 -0.3388 -0.4609  0.3615
  627MOL0     C82643   1.414  11.036   6.389  0.3637  0.1382 -0.0023
  627MOL0     C82644   1.310  11.091   6.490 -0.1117  0.3384 -0.2203
  627MOL0     C82645   1.180  11.018   6.515  1.6344  0.2084  0.4375
  627MOL0     C82646   1.067  11.085   6.432  0.3596  0.2493 -0.7034
  627MOL0     C82647   0.932  11.001   6.440 -0.1601  0.5201  0.1510
  627MOL0     C82648   0.808  11.082   6.405 -0.7696  0.4402 -0.1142
  627MOL0     N82649   0.687  10.998   6.411 -0.0368  0.0614 -0.8830
  627MOL0     C82650   0.649  10.928   6.518  0.6898  0.6136  0.0200
  627MOL0     C82651   0.537  10.869   6.472  0.7878 -0.2402  0.3167
  627MOL0     C82652   0.456  10.776   6.562  0.1469 -0.8896 -0.0892
  627MOL0     C82653   0.332  10.835   6.621  0.1014 -0.4226  0.5470
  627MOL0     C82654   0.228  10.879   6.516  0.7077 -0.2363 -0.4539
  627MOL0     C82655   0.196  10.788   6.403  0.1825 -0.9109 -1.3757
  627MOL0     O82656   0.058  10.821   6.365 -0.6064 -0.5985 -0.0386
  627MOL0     C82657  -0.011  10.743   6.277  0.2166 -0.1985  0.1118
  627MOL0     C82658   0.023  10.617   6.230 -1.0965 -1.4833  0.7998
  627MOL0     C82659  -0.052  10.561   6.127  0.4501 -0.3695 -0.0820
  627MOL0     C82660  -0.171  10.616   6.085 -0.9130 -0.6382 -0.0048
  627MOL0     C82661  -0.242  10.549   5.982 -0.2061 -0.0825  0.6781
  627MOL0     O82662  -0.373  10.559   5.987  0.0273 -0.0381  0.2033
  627MOL0     C82663  -0.461  10.519   5.889 -0.6455 -0.1156  0.0616
  627MOL0     C82664  -0.446  10.389   5.826  0.1040 -0.1839  0.0638
  627MOL0     C82665  -0.529  10.356   5.715 -0.4495  0.5945 -0.0606
  627MOL0     C82666  -0.628  10.441   5.677 -0.3334 -0.5251 -0.5625
  627MOL0     O82667  -0.713  10.387   5.586  0.4021 -0.2646 -0.7130
  627MOL0     C82668  -0.847  10.440   5.566 -0.4690 -0.5243  0.9243
  627MOL0     C82669  -0.942  10.403   5.686 -0.0560  0.2212 -1.2213
  627MOL0     C82670  -1.089  10.438   5.662  0.1623  0.0331  0.1313
  627MOL0     C82671  -1.168  10.360   5.768 -0.8075 -0.2623 -0.5142
  627MOL0     C82672  -1.317  10.395   5.769  0.4427 -0.5383  0.3616
  627MOL0     C82673  -1.393  10.360   5.636 -0.3910 -0.1142 -0.0807
  627MOL0     C82674  -1.544  10.360   5.630  1.0640  0.0582 -0.7952
  627MOL0     C82675  -1.604  10.301   5.752  0.2817  0.6146 -0.2538
  627MOL0    Cl82676  -1.560  10.123   5.759  0.2022  0.0405 -0.6239
  627MOL0     C82677  -0.641  10.567   5.742 -0.0194  0.4329  0.5233
  627MOL0     C82678  -0.557  10.611   5.844  0.5350  0.7932  0.0300
  627MOL0     O82679  -0.173  10.515   5.886  1.2196  0.2695  1.0465
  627MOL0     C82680  -0.212  10.735   6.152  0.7765  0.9835 -0.2615
  627MOL0     C82681  -0.133  10.794   6.246 -0.0908 -0.4629  0.0462
  627MOL0     N82682   0.511  10.898   6.341  0.0793 -0.0163  0.4931
  627MOL0     N82683   0.598  10.987   6.310 -0.5039  0.4216  0.4022
  627MOL0     C82684   1.892  11.121   6.130  0.7182 -1.6797  0.0433
  627MOL0     C82685   1.983  11.153   6.026  0.3568  0.0904  0.1383
  627MOL0     C82686   2.309  11.270   5.755  1.0728 -0.4981 -0.1256
  627MOL0     C82687   2.387  11.170   5.702 -0.1641  0.6798  0.3312
  627MOL0     C82688   2.479  11.207   5.597  0.0334  0.0587 -0.0787
  627MOL0     C82689   2.481  11.338   5.534  0.2339  0.1033 -0.4494
  627MOL0     O82690   2.577  11.367   5.438 -0.5850  0.4142  0.1846
  627MOL0     C82691   2.583  11.500   5.383  0.1504 -0.6306 -0.2327
  627MOL0     C82692   2.713  11.535   5.304 -0.1293  0.5680 -0.9009
  627MOL0     C82693   2.721  11.437   5.185 -0.1810 -0.0829 -0.3518
  627MOL0     C82694   2.774  11.506   5.058  0.2369 -0.5272  0.3874
  627MOL0     C82695   2.833  11.409   4.969  0.2535  0.2158  1.0013
  627MOL0     C82696   2.897  11.317   4.917 -0.5306  0.0852 -0.4260
  627MOL0     C82697   2.391  11.433   5.582 -0.1101  0.4769  0.6704
  627MOL0     C82698   2.318  11.401   5.697  0.2034  0.1530 -0.1320
  627MOL0     H82699   1.998  11.485   6.035 -1.8794  0.8371 -0.8364
  627MOL0     H82700   1.847  11.442   6.240 -2.5737  1.1672 -3.1424
  627MOL0     H82701   1.716  11.030   6.341 -0.1082 -0.0486 -0.1811
  627MOL0     H82702   1.612  11.097   6.209  0.5281 -1.0193 -0.6102
  627MOL0     H82703   1.495  11.233   6.396  3.0869  1.8103  4.4213
  627MOL0     H82704   1.577  11.135   6.511 -0.3235 -0.1285  0.3506
  627MOL0     H82705   1.435  10.938   6.431 -4.7878 -0.4933  1.7898
  627MOL0     H82706   1.382  11.032   6.284  0.9789  3.1660 -0.3869
  627MOL0     H82707   1.359  11.090   6.588 -0.0374  0.5600 -0.2550
  627MOL0     H82708   1.292  11.197   6.470  1.3363  1.3278  3.0656
  627MOL0     H82709   1.156  11.038   6.620 -0.8940  0.6895 -0.1816
  627MOL0     H82710   1.194  10.910   6.510 -1.4129 -0.2136 -1.2538
  627MOL0     H82711   1.095  11.111   6.330 -0.1811 -1.4398 -1.3309
  627MOL0     H82712   1.044  11.184   6.472 -0.8675  0.1919 -1.2208
  627MOL0     H82713   0.944  10.921   6.366 -2.7980 -1.4512  1.7122
  627MOL0     H82714   0.926  10.953   6.537  0.3501  2.1258  1.0098
  627MOL0     H82715   0.808  11.121   6.303 -2.7718  1.3324  0.1916
  627MOL0     H82716   0.805  11.169   6.471 -0.8554 -2.1797  3.6844
  627MOL0     H82717   0.681  10.928   6.622  1.4105  0.7930 -0.1943
  627MOL0     H82718   0.525  10.744   6.640 -0.4836  0.4733  1.0674
  627MOL0     H82719   0.421  10.692   6.500 -0.7158 -0.2879 -0.4435
  627MOL0     H82720   0.361  10.913   6.693 -3.9402  0.5307  1.3998
  627MOL0     H82721   0.285  10.757   6.681 -3.7226  1.4257  0.2947
  627MOL0     H82722   0.137  10.890   6.576 -0.3614 -0.5765 -1.9433
  627MOL0     H82723   0.251  10.979   6.478  0.5934  0.6323  1.6484
  627MOL0     H82724   0.193  10.693   6.458  0.2310  1.6193  3.5350
  627MOL0     H82725   0.257  10.785   6.313 -0.4428  0.3544 -1.8641
  627MOL0     H82726   0.111  10.566   6.267  0.1697 -1.2179 -1.6480
  627MOL0     H82727  -0.032  10.461   6.089 -0.0356 -0.8589  0.9056
  627MOL0     H82728  -0.371  10.314   5.849  0.2436  0.2275  0.9817
  627MOL0     H82729  -0.536  10.253   5.683 -0.4760  0.4742  0.3251
  627MOL0     H82730  -0.874  10.400   5.468 -2.4959  1.4721  0.5867
  627MOL0     H82731  -0.854  10.549   5.553 -0.1856 -0.3519  2.1607
  627MOL0     H82732  -0.907  10.469   5.766  0.8108 -0.3334 -1.1323
  627MOL0     H82733  -0.933  10.297   5.709 -0.9352  0.4329  0.1912
  627MOL0     H82734  -1.126  10.405   5.565  1.2171 -2.2835  0.4319
  627MOL0     H82735  -1.100  10.545   5.676  0.2060  0.1101 -0.4115
  627MOL0     H82736  -1.162  10.253   5.744  2.7374 -0.1136 -0.7678
  627MOL0     H82737  -1.119  10.369   5.865 -0.9407 -0.9348 -0.3751
  627MOL0     H82738  -1.336  10.494   5.812 -1.4855 -1.0134  0.6830
  627MOL0     H82739  -1.368  10.337   5.847 -1.6625  1.7204  0.7910
  627MOL0     H82740  -1.370  10.256   5.612  3.2917 -0.0592  2.4472
  627MOL0     H82741  -1.349  10.419   5.555  1.7920 -3.9571 -1.9948
  627MOL0     H82742  -1.583  10.462   5.626  2.4781  0.6069 -1.2145
  627MOL0     H82743  -1.579  10.305   5.542 -2.8867  0.6198  0.2167
  627MOL0     H82744  -1.710  10.322   5.739  0.7208  3.0332 -0.5304
  627MOL0     H82745  -1.576  10.354   5.844 -3.0410  0.5218  0.9281
  627MOL0     H82746  -0.717  10.638   5.709 -0.7619 -1.5500 -2.5090
  627MOL0     H82747  -0.587  10.702   5.896  0.4582  1.3012 -0.8863
  627MOL0     H82748  -0.309  10.781   6.144  0.6516  0.4862 -2.1792
  627MOL0     H82749  -0.166  10.882   6.299 -0.3410 -0.7121  0.3060
  627MOL0     H82750   1.854  11.024   6.162 -2.1832 -0.4508  0.6416
  627MOL0     H82751   2.018  11.065   5.975  2.4985  1.8760 -1.6956
  627MOL0     H82752   2.391  11.068   5.739  1.2806  1.4750  2.6428
  627MOL0     H82753   2.547  11.127   5.569  0.0092 -0.5858  1.6214
  627MOL0     H82754   2.563  11.581   5.455  2.4786  0.8704 -1.1425
  627MOL0     H82755   2.502  11.503   5.311 -2.5048 -0.1307  2.5432
  627MOL0     H82756   2.707  11.636   5.264 -0.4482  0.5968 -0.7773
  627MOL0     H82757   2.799  11.528   5.371 -0.6807 -1.7797 -0.3342
  627MOL0     H82758   2.630  11.381   5.163  0.5390 -1.2051 -0.5557
  627MOL0     H82759   2.797  11.367   5.220  0.2902  1.5850  2.1860
  627MOL0     H82760   2.695  11.554   4.999 -0.0392 -0.8499  0.4896
  627MOL0     H82761   2.847  11.585   5.082  0.9880 -1.2161  0.4066
  627MOL0     H82762   2.949  11.229   4.886  0.4229  0.6036 -0.3288
  627MOL0     H82763   2.383  11.524   5.524 -0.1522 -0.1720 -0.3853
  627MOL0     H82764   2.254  11.480   5.736  0.4928 -1.3005  3.7341
  628MOL0     O82765   6.929   7.000   6.858 -0.1096  1.2485 -0.0100
  628MOL0     C82766   6.960   6.917   6.769 -0.2709  0.8788  0.5712
  628MOL0     O82767   6.894   6.904   6.651 -0.5179  0.4035 -0.2025
  628MOL0     C82768   6.772   6.970   6.623 -0.0263 -0.0194  0.4700
  628MOL0     C82769   6.755   7.106   6.633  0.0571  0.8838 -0.0881
  628MOL0     C82770   6.635   7.164   6.606  0.7220 -0.3596  0.1519
  628MOL0     C82771   6.527   7.094   6.557  0.1095  1.2615 -0.6597
  628MOL0     O82772   6.405   7.157   6.539 -0.8458  0.3440  0.3298
  628MOL0     C82773   6.381   7.290   6.597  0.0153  0.3186  0.0687
  628MOL0     C82774   6.240   7.328   6.598 -0.2032  0.3644 -0.0512
  628MOL0     C82775   6.186   7.346   6.458 -1.2694  0.0603  0.1316
  628MOL0     C82776   6.052   7.429   6.451  0.5391  0.7274  0.3706
  628MOL0     C82777   6.047   7.522   6.336  0.4896  0.1981  0.3093
  628MOL0     C82778   6.033   7.463   6.195  0.3419  0.1126 -0.0911
  628MOL0     C82779   5.927   7.348   6.181 -0.2135  0.2356  0.2760
  628MOL0     C82780   5.792   7.381   6.235 -0.4868 -0.9491  0.2148
  628MOL0     N82781   5.706   7.269   6.199  0.3031  0.7531 -0.6445
  628MOL0     C82782   5.604   7.271   6.103  0.0118  0.2794 -0.4389
  628MOL0     C82783   5.566   7.134   6.098 -0.0234  0.9473 -0.3500
  628MOL0     C82784   5.453   7.080   6.016  1.0666  0.4420 -0.4941
  628MOL0     C82785   5.315   7.082   6.098 -1.1657 -0.0744  0.5470
  628MOL0     C82786   5.250   7.220   6.108 -1.3528 -0.5660  1.0987
  628MOL0     C82787   5.121   7.214   6.178 -0.0069 -0.5509 -0.2908
  628MOL0     O82788   5.071   7.347   6.195 -1.2762 -0.5018  0.6412
  628MOL0     C82789   4.943   7.357   6.240  0.4262  0.8101  0.4438
  628MOL0     C82790   4.877   7.251   6.319  0.1167  0.7579 -0.1299
  628MOL0     C82791   4.745   7.263   6.367 -0.7104 -0.2696 -0.6554
  628MOL0     C82792   4.665   7.366   6.321  0.7409 -0.6781 -0.9749
  628MOL0     C82793   4.529   7.375   6.377 -0.3678 -0.0945 -0.8027
  628MOL0     O82794   4.459   7.495   6.368 -0.1815  0.0996 -0.4248
  628MOL0     C82795   4.331   7.489   6.412  0.4260  0.3492  0.3527
  628MOL0     C82796   4.286   7.554   6.523 -0.1578  0.1453  0.0656
  628MOL0     C82797   4.150   7.550   6.556  0.5039 -0.2810  0.4548
  628MOL0     C82798   4.056   7.472   6.483 -0.7003 -1.1894  0.5985
  628MOL0     O82799   3.922   7.458   6.497 -0.1220  0.3732 -0.1161
  628MOL0     C82800   3.854   7.512   6.616 -0.2244  0.6686 -0.6997
  628MOL0     C82801   3.707   7.501   6.606  0.2007  0.0242  0.6178
  628MOL0     C82802   3.645   7.578   6.724 -0.0389 -0.1792 -0.1634
  628MOL0     C82803   3.647   7.502   6.862  0.0660 -0.2116  0.2113
  628MOL0     C82804   3.591   7.582   6.970 -0.1793 -0.0144  0.7070
  628MOL0     C82805   3.601   7.505   7.104  0.4561 -0.7303  0.7491
  628MOL0     C82806   3.557   7.616   7.211 -0.6196  0.5225  1.1361
  628MOL0     C82807   3.563   7.564   7.358 -0.5962 -0.3920  0.3171
  628MOL0    Cl82808   3.463   7.661   7.477  0.3328 -0.0910  0.2810
  628MOL0     C82809   4.108   7.424   6.370 -0.1029 -0.4509 -0.2601
  628MOL0     C82810   4.238   7.425   6.330  0.6028  0.2548 -0.2883
  628MOL0     O82811   4.485   7.270   6.430  0.3822 -0.2968 -0.0170
  628MOL0     C82812   4.725   7.470   6.250  0.1470 -0.3911 -0.3328
  628MOL0     C82813   4.856   7.463   6.209  0.0350  0.1935  0.4195
  628MOL0     N82814   5.647   7.056   6.180  0.3521 -1.2574 -0.4293
  628MOL0     N82815   5.718   7.142   6.255  0.1173  0.2112  0.3867
  628MOL0     C82816   6.543   6.962   6.527  0.1474 -0.3267 -0.1854
  628MOL0     C82817   6.664   6.897   6.562  0.5322  0.0617  0.3634
  628MOL0     C82818   7.074   6.829   6.780 -0.7105  1.0025 -1.3714
  628MOL0     C82819   7.133   6.771   6.671 -0.3102  0.2081  0.4193
  628MOL0     C82820   7.246   6.694   6.676  0.1129 -0.0774 -0.1862
  628MOL0     C82821   7.306   6.669   6.800 -0.8132 -0.3607  1.0256
  628MOL0     O82822   7.418   6.587   6.814  0.1742 -0.2573 -0.3752
  628MOL0     C82823   7.480   6.514   6.707  0.4212 -0.7322 -0.4830
  628MOL0     C82824   7.607   6.465   6.775  0.3275  0.0506  0.0583
  628MOL0     C82825   7.715   6.571   6.814  0.7167 -0.1655  0.0172
  628MOL0     C82826   7.843   6.514   6.882  0.4120 -0.9392 -0.2229
  628MOL0     C82827   7.921   6.456   6.777  0.0535  1.0972  0.3862
  628MOL0     C82828   7.977   6.408   6.680  0.3850 -0.8787  0.0284
  628MOL0     C82829   7.244   6.725   6.914 -0.4250 -0.1250  0.0197
  628MOL0     C82830   7.133   6.807   6.903  0.1793  0.3777  0.7007
  628MOL0     H82831   6.842   7.162   6.665  1.8931 -1.9042  0.1724
  628MOL0     H82832   6.629   7.272   6.618 -1.1909 -0.5639  1.3516
  628MOL0     H82833   6.450   7.365   6.558  0.9720  2.2823  4.8674
  628MOL0     H82834   6.407   7.295   6.703 -5.0956 -1.9621  1.7039
  628MOL0     H82835   6.221   7.413   6.664 -0.2215 -2.4690  3.9504
  628MOL0     H82836   6.181   7.253   6.651  1.2487 -0.6544  0.1856
  628MOL0     H82837   6.171   7.246   6.417 -1.8468 -1.1581  3.0749
  628MOL0     H82838   6.264   7.393   6.396 -0.8679 -0.9060 -0.1108
  628MOL0     H82839   5.970   7.358   6.437  0.0252  0.9455  2.0766
  628MOL0     H82840   6.028   7.494   6.535 -1.5998 -0.3354  0.6489
  628MOL0     H82841   6.122   7.601   6.342 -0.0964  0.7919 -0.0586
  628MOL0     H82842   5.954   7.580   6.348  0.4383  1.2469 -3.5260
  628MOL0     H82843   6.125   7.417   6.161 -0.4060 -1.2894 -0.2927
  628MOL0     H82844   6.007   7.541   6.123 -2.8738 -0.9510 -0.2446
  628MOL0     H82845   5.919   7.331   6.073 -0.5849 -1.0681  0.4864
  628MOL0     H82846   5.956   7.249   6.217 -1.1290 -1.3283 -2.9018
  628MOL0     H82847   5.747   7.460   6.175  1.4959  1.1974  1.4189
  628MOL0     H82848   5.794   7.403   6.342  2.6536 -1.4140  0.3410
  628MOL0     H82849   5.548   7.354   6.062 -0.6601  0.8705  1.5525
  628MOL0     H82850   5.473   6.979   5.980  0.9988  0.8716 -1.7895
  628MOL0     H82851   5.444   7.134   5.921  0.7408 -1.7759 -1.8052
  628MOL0     H82852   5.326   7.048   6.202  1.5650 -1.9850 -0.2437
  628MOL0     H82853   5.245   7.014   6.048  0.8874 -2.9071  1.2445
  628MOL0     H82854   5.324   7.282   6.160 -1.0769 -1.1314  1.3868
  628MOL0     H82855   5.238   7.264   6.009  2.7831  0.7528  0.9722
  628MOL0     H82856   5.113   7.159   6.272 -0.4714 -2.0227 -1.1484
  628MOL0     H82857   5.050   7.164   6.112 -0.7520 -0.5709  0.5103
  628MOL0     H82858   4.936   7.170   6.359 -0.5020 -0.1378 -0.9846
  628MOL0     H82859   4.716   7.186   6.438  3.1072 -0.8039  0.5185
  628MOL0     H82860   4.342   7.615   6.593  0.0930 -1.3855  1.2251
  628MOL0     H82861   4.117   7.605   6.644 -1.1653 -4.0938  2.4159
  628MOL0     H82862   3.891   7.612   6.640  1.6763  0.3339 -2.0369
  628MOL0     H82863   3.878   7.445   6.700 -0.0529  0.7427 -0.6910
  628MOL0     H82864   3.669   7.398   6.606 -0.0397  0.1138  0.8564
  628MOL0     H82865   3.675   7.550   6.514  0.1497 -0.5001  0.3538
  628MOL0     H82866   3.537   7.588   6.708  0.0816  0.0532 -0.8713
  628MOL0     H82867   3.683   7.681   6.721  0.2504 -0.2456  0.9519
  628MOL0     H82868   3.614   7.398   6.852 -0.5345 -0.0505  0.5135
  628MOL0     H82869   3.754   7.496   6.885  0.4520  1.0327 -1.0674
  628MOL0     H82870   3.490   7.611   6.940 -0.1233 -1.4025 -0.9727
  628MOL0     H82871   3.654   7.670   6.985  2.6377 -1.7488 -0.1796
  628MOL0     H82872   3.705   7.478   7.124  2.2096  5.3857  1.8824
  628MOL0     H82873   3.531   7.421   7.098  0.5542 -0.7383 -0.7519
  628MOL0     H82874   3.629   7.698   7.208  1.1683 -0.9980 -0.0351
  628MOL0     H82875   3.456   7.650   7.184 -0.6975  0.6405  1.5772
  628MOL0     H82876   3.665   7.578   7.394 -0.7814  2.9724 -0.1832
  628MOL0     H82877   3.529   7.460   7.359 -2.4371 -0.0026 -3.5657
  628MOL0     H82878   4.039   7.376   6.302 -1.4513 -1.0925  1.5174
  628MOL0     H82879   4.269   7.390   6.233  1.0589 -0.7995  0.2231
  628MOL0     H82880   4.670   7.557   6.217  0.2914 -1.1450 -2.8233
  628MOL0     H82881   4.904   7.540   6.149  1.0054 -0.0441  0.8753
  628MOL0     H82882   6.474   6.904   6.467  4.7038 -7.5348  0.3595
  628MOL0     H82883   6.673   6.789   6.555 -0.2383 -0.1059  1.5846
  628MOL0     H82884   7.095   6.790   6.572  0.0131 -1.2564 -0.0107
  628MOL0     H82885   7.296   6.683   6.580  0.1019  1.6033 -0.4114
  628MOL0     H82886   7.505   6.585   6.628  0.2325 -0.1186  0.0074
  628MOL0     H82887   7.410   6.440   6.668 -0.5562  0.0240 -0.1901
  628MOL0     H82888   7.601   6.416   6.873  1.6538 -0.3811 -0.0532
  628MOL0     H82889   7.667   6.401   6.710  2.0209 -0.4918  2.0280
  628MOL0     H82890   7.664   6.642   6.879 -0.1816  0.2842 -1.1436
  628MOL0     H82891   7.744   6.626   6.724  0.7784 -3.3412 -2.0696
  628MOL0     H82892   7.912   6.588   6.923 -0.1705  2.7852 -5.0501
  628MOL0     H82893   7.822   6.444   6.964  2.1392  1.1791  2.2156
  628MOL0     H82894   8.038   6.380   6.596  1.5099  1.7000 -0.1448
  628MOL0     H82895   7.295   6.708   7.008  0.1134 -0.7174 -0.3637
  628MOL0     H82896   7.097   6.856   6.993 -1.0803 -0.9978  0.9946
  629MOL0     O82897   3.693   6.665   7.478 -0.0871  0.0217  0.0562
  629MOL0     C82898   3.798   6.732   7.475 -0.3251 -0.6471 -0.0121
  629MOL0     O82899   3.811   6.862   7.430  0.8068 -0.5971  0.1791
  629MOL0     C82900   3.703   6.940   7.389  0.5695  0.7801 -0.6521
  629MOL0     C82901   3.586   6.894   7.325 -0.5185  0.2096 -0.1171
  629MOL0     C82902   3.484   6.978   7.294 -0.7251  0.6047  0.4683
  629MOL0     C82903   3.503   7.114   7.316  0.1317 -0.3119 -0.0585
  629MOL0     O82904   3.414   7.223   7.284  0.8404  0.1360 -0.7686
  629MOL0     C82905   3.269   7.200   7.289 -0.0605 -0.2614 -0.5164
  629MOL0     C82906   3.209   7.299   7.389 -0.4575  0.5466 -0.0439
  629MOL0     C82907   3.056   7.280   7.426 -0.6738  0.3727 -1.0319
  629MOL0     C82908   2.963   7.311   7.304 -1.0539  0.7018 -0.8294
  629MOL0     C82909   2.812   7.302   7.335  0.1960 -1.1588  0.0167
  629MOL0     C82910   2.769   7.156   7.328 -0.1251  0.4813 -1.5757
  629MOL0     C82911   2.771   7.090   7.196  0.5033 -0.3683 -0.4114
  629MOL0     C82912   2.777   6.936   7.196  0.6430  0.1377  0.6684
  629MOL0     N82913   2.919   6.876   7.202 -0.7114 -0.0783  0.6555
  629MOL0     C82914   2.993   6.816   7.103 -0.0743  0.1964  0.4906
  629MOL0     C82915   3.106   6.770   7.158 -1.1314  0.0372  0.5604
  629MOL0     C82916   3.219   6.702   7.093  0.8668  0.2083 -0.0598
  629MOL0     C82917   3.192   6.547   7.081  0.4893  0.2068  0.7159
  629MOL0     C82918   3.175   6.464   7.205 -0.7942 -0.0178  0.2358
  629MOL0     C82919   3.311   6.474   7.265 -0.7369 -0.0396  0.0597
  629MOL0     O82920   3.333   6.338   7.306 -0.0490  0.2473 -0.4829
  629MOL0     C82921   3.457   6.294   7.329 -0.5919 -0.0270  0.4317
  629MOL0     C82922   3.570   6.382   7.353  0.4341 -0.8121 -0.9868
  629MOL0     C82923   3.685   6.324   7.398 -0.8893 -0.0574 -0.0007
  629MOL0     C82924   3.705   6.194   7.435 -0.4068 -0.2295 -0.8794
  629MOL0     C82925   3.828   6.149   7.508  0.1814 -1.1882 -0.2593
  629MOL0     O82926   3.905   6.053   7.448  0.1769  0.7389 -0.2944
  629MOL0     C82927   4.022   6.016   7.506 -0.8361  0.3236 -0.4526
  629MOL0     C82928   4.087   5.919   7.429 -0.3432  0.6968 -0.3866
  629MOL0     C82929   4.206   5.861   7.477 -0.3618 -0.7065  0.3355
  629MOL0     C82930   4.258   5.891   7.605 -0.2204  0.7264 -0.3174
  629MOL0     O82931   4.366   5.839   7.653 -0.3611 -0.5578 -0.2713
  629MOL0     C82932   4.383   5.705   7.626  0.0924  0.0410 -0.0801
  629MOL0     C82933   4.492   5.655   7.736  0.9904  0.1559  0.0628
  629MOL0     C82934   4.532   5.501   7.702 -0.2630 -1.7223 -0.5319
  629MOL0     C82935   4.651   5.468   7.784  0.3506 -0.2061 -0.1218
  629MOL0     C82936   4.657   5.319   7.808 -0.1486  0.0771 -0.1451
  629MOL0     C82937   4.783   5.281   7.880  0.4396  0.0240  0.4415
  629MOL0     C82938   4.916   5.314   7.807 -0.1431 -0.3389  0.5051
  629MOL0     C82939   5.039   5.239   7.858  0.1211 -0.0007 -0.7329
  629MOL0    Cl82940   5.034   5.063   7.827 -0.2053 -0.4670 -0.2775
  629MOL0     C82941   4.198   5.988   7.675 -0.2598 -0.2282  0.0685
  629MOL0     C82942   4.080   6.050   7.629 -1.1215 -0.7487 -0.1105
  629MOL0     O82943   3.849   6.202   7.621 -0.1132  0.5253  0.0342
  629MOL0     C82944   3.598   6.109   7.410 -0.9143  0.5677  0.0159
  629MOL0     C82945   3.474   6.156   7.365 -0.4277  0.0425 -0.2311
  629MOL0     N82946   3.102   6.789   7.288 -0.2492 -0.1750  0.5178
  629MOL0     N82947   3.000   6.870   7.313 -0.3787  0.6193  0.4038
  629MOL0     C82948   3.606   7.162   7.397  0.1823 -0.4499  0.1445
  629MOL0     C82949   3.701   7.066   7.441 -0.1214  0.1791  0.3192
  629MOL0     C82950   3.928   6.667   7.504 -0.3763  0.6563  0.4917
  629MOL0     C82951   3.929   6.554   7.587 -0.0460  0.9247  0.0530
  629MOL0     C82952   4.053   6.499   7.621  0.1756  0.7048 -0.0357
  629MOL0     C82953   4.170   6.563   7.577  0.1166 -0.0671 -0.3550
  629MOL0     O82954   4.281   6.523   7.643  0.1359 -0.9929  0.0249
  629MOL0     C82955   4.404   6.504   7.563 -0.0656  0.4413  0.0508
  629MOL0     C82956   4.486   6.377   7.584  0.1986 -0.7195 -0.3528
  629MOL0     C82957   4.397   6.251   7.563 -0.2062 -0.1006  0.3019
  629MOL0     C82958   4.327   6.243   7.431 -0.6171 -0.5153 -0.0412
  629MOL0     C82959   4.407   6.221   7.316 -0.2474 -0.3902  0.0247
  629MOL0     C82960   4.464   6.194   7.211 -0.3308  0.1252 -0.5412
  629MOL0     C82961   4.166   6.673   7.487  0.1241 -0.2030  0.4407
  629MOL0     C82962   4.043   6.730   7.448  0.2574  0.3782 -0.4588
  629MOL0     H82963   3.568   6.791   7.296 -0.3039  0.3978 -0.9255
  629MOL0     H82964   3.395   6.946   7.241 -1.8325  1.7801  1.5345
  629MOL0     H82965   3.254   7.105   7.341 -4.5000  1.5043  2.0119
  629MOL0     H82966   3.219   7.197   7.191  2.0837 -1.2440 -1.6568
  629MOL0     H82967   3.231   7.393   7.338  1.4992 -0.8415 -1.9877
  629MOL0     H82968   3.270   7.286   7.478  0.2766 -1.2920 -0.7495
  629MOL0     H82969   3.027   7.352   7.503  0.6139 -1.1327  0.9412
  629MOL0     H82970   3.044   7.184   7.477 -1.9984  1.4234  0.7468
  629MOL0     H82971   2.988   7.411   7.268  3.4611 -0.1262 -0.5556
  629MOL0     H82972   3.001   7.240   7.229 -0.7730 -0.3106  0.2479
  629MOL0     H82973   2.768   7.361   7.254 -4.6176  0.1159  3.1707
  629MOL0     H82974   2.779   7.361   7.421  1.2486 -0.6549  0.0842
  629MOL0     H82975   2.669   7.144   7.371  0.8442  3.7472  2.1304
  629MOL0     H82976   2.831   7.096   7.396 -0.9024  1.1217 -0.2628
  629MOL0     H82977   2.677   7.125   7.152  1.7057 -0.1194 -2.9713
  629MOL0     H82978   2.850   7.120   7.127 -1.2140  1.0497 -1.8585
  629MOL0     H82979   2.732   6.892   7.106  0.3097 -0.8870  1.3165
  629MOL0     H82980   2.715   6.894   7.276 -1.3000 -0.2370 -0.9385
  629MOL0     H82981   2.949   6.811   7.004  0.5479  2.1513  0.0688
  629MOL0     H82982   3.309   6.722   7.150  1.3414  0.3775 -0.8532
  629MOL0     H82983   3.223   6.759   6.999 -2.0889 -0.1544 -0.5082
  629MOL0     H82984   3.272   6.502   7.021 -1.5076 -2.2528 -0.2893
  629MOL0     H82985   3.101   6.522   7.025  0.0490 -1.2293  1.9867
  629MOL0     H82986   3.094   6.495   7.272  0.9673 -0.4059  2.7034
  629MOL0     H82987   3.151   6.361   7.174  1.7860 -0.7428  0.3728
  629MOL0     H82988   3.301   6.544   7.348  2.6804 -0.4690  1.0147
  629MOL0     H82989   3.388   6.515   7.198 -2.0488  1.8239 -0.3839
  629MOL0     H82990   3.560   6.489   7.349 -3.6935 -0.9530  0.5979
  629MOL0     H82991   3.769   6.393   7.401 -1.1540  0.3119 -0.9446
  629MOL0     H82992   4.038   5.874   7.342  0.4348 -3.8561  1.2530
  629MOL0     H82993   4.267   5.798   7.413 -1.6103 -1.8790  0.2423
  629MOL0     H82994   4.421   5.696   7.523 -1.6156  2.1519 -0.9846
  629MOL0     H82995   4.287   5.652   7.633 -0.8081  0.9738 -3.4852
  629MOL0     H82996   4.446   5.657   7.835  3.6909 -1.7707  1.4812
  629MOL0     H82997   4.570   5.730   7.749  0.3185  0.5482  2.2407
  629MOL0     H82998   4.565   5.482   7.599  2.4062  0.0814 -0.1100
  629MOL0     H82999   4.445   5.442   7.733  0.3518 -1.5513  1.6995
  629MOL0     H83000   4.737   5.512   7.732  0.6658  2.2683  2.2803
  629MOL0     H83001   4.652   5.518   7.881  0.8880  0.7295 -0.5946
  629MOL0     H83002   4.649   5.267   7.712 -3.6643  2.0855 -1.1401
  629MOL0     H83003   4.568   5.283   7.862 -0.0205  0.2038  0.1508
  629MOL0     H83004   4.783   5.174   7.901  1.2472  0.0752  0.7178
  629MOL0     H83005   4.763   5.336   7.972 -0.6960  1.2831 -0.5152
  629MOL0     H83006   4.908   5.298   7.699  1.3347 -2.7283  0.6628
  629MOL0     H83007   4.927   5.422   7.812 -2.3270  0.0214 -1.0438
  629MOL0     H83008   5.052   5.257   7.965  0.5196  2.8640 -1.1993
  629MOL0     H83009   5.130   5.275   7.809  2.2658 -1.6203  1.7383
  629MOL0     H83010   4.245   6.021   7.767 -0.8610  1.2573 -0.1275
  629MOL0     H83011   4.052   6.126   7.702 -0.0044  0.6658 -1.0969
  629MOL0     H83012   3.605   6.007   7.444  1.7546  0.7010  0.0624
  629MOL0     H83013   3.391   6.087   7.374 -1.1269  0.9782  0.7560
  629MOL0     H83014   3.609   7.266   7.429  0.7697  1.2575 -4.6229
  629MOL0     H83015   3.788   7.093   7.500  0.2050 -0.3921  0.1075
  629MOL0     H83016   3.836   6.522   7.634  0.7658  0.0635  1.1455
  629MOL0     H83017   4.060   6.434   7.707 -3.9624  1.0430  0.7838
  629MOL0     H83018   4.476   6.583   7.589  0.8513  0.0229 -1.1305
  629MOL0     H83019   4.395   6.518   7.455  4.6606 -0.4538 -0.6715
  629MOL0     H83020   4.573   6.374   7.518  2.1625 -0.8694  2.0681
  629MOL0     H83021   4.527   6.374   7.686  0.9475  1.1287 -0.5673
  629MOL0     H83022   4.328   6.258   7.648 -0.5583  1.8325 -0.0990
  629MOL0     H83023   4.463   6.164   7.567  0.5945  0.3771 -1.3974
  629MOL0     H83024   4.271   6.150   7.447  1.7752 -1.7572  1.8084
  629MOL0     H83025   4.266   6.332   7.414  0.5129  0.2061 -0.4129
  629MOL0     H83026   4.502   6.194   7.111  1.3338  0.1723  0.0579
  629MOL0     H83027   4.253   6.734   7.463 -1.1038  1.0033 -1.1822
  629MOL0     H83028   4.042   6.820   7.386  1.6384  0.9534  0.2948
  630MOL0     O83029   0.170   7.522   1.150  0.3483  0.2214 -0.0936
  630MOL0     C83030   0.252   7.536   1.245  0.4847 -0.9099 -0.7210
  630MOL0     O83031   0.217   7.570   1.373  0.0740 -1.1370  0.3838
  630MOL0     C83032   0.099   7.649   1.399 -0.8290 -0.4845 -0.0017
  630MOL0     C83033   0.103   7.788   1.402 -0.0610  0.2662 -0.1096
  630MOL0     C83034  -0.011   7.856   1.448  0.1834 -0.0837 -0.4467
  630MOL0     C83035  -0.137   7.791   1.465 -0.4230  0.8093  0.7619
  630MOL0     O83036  -0.245   7.884   1.493 -0.5007 -0.0843 -0.0983
  630MOL0     C83037  -0.292   7.868   1.625 -1.0466  0.2802 -0.2885
  630MOL0     C83038  -0.413   7.947   1.629  0.6444 -0.6745  0.4790
  630MOL0     C83039  -0.485   7.928   1.765 -0.6359  0.2471  0.3655
  630MOL0     C83040  -0.631   7.973   1.767  0.0867 -0.3443 -0.3290
  630MOL0     C83041  -0.694   7.966   1.909  0.7394  0.0943 -0.0834
  630MOL0     C83042  -0.827   8.042   1.912 -0.1451 -0.5531  0.2227
  630MOL0     C83043  -0.899   7.973   2.021  0.3903 -0.4815 -1.0144
  630MOL0     C83044  -1.025   8.050   2.050 -0.6339 -0.3035  0.0762
  630MOL0     N83045  -1.120   8.004   2.153 -0.4016  0.2197 -0.3859
  630MOL0     C83046  -1.093   7.948   2.276 -0.2307 -0.3596 -0.8300
  630MOL0     C83047  -1.213   7.931   2.337 -0.0759  0.4393  0.0507
  630MOL0     C83048  -1.243   7.887   2.475  0.3348  0.4118  0.2443
  630MOL0     C83049  -1.361   7.781   2.497 -0.5355  0.1914  1.0335
  630MOL0     C83050  -1.323   7.636   2.475 -0.3298  0.5737 -0.1891
  630MOL0     C83051  -1.429   7.542   2.546 -0.4186  0.2307 -0.5782
  630MOL0     O83052  -1.562   7.550   2.510  0.4399 -0.2852 -0.0346
  630MOL0     C83053  -1.661   7.521   2.600  1.0691 -0.4789  0.1616
  630MOL0     C83054  -1.650   7.473   2.734 -0.0133  0.2893 -0.5248
  630MOL0     C83055  -1.761   7.447   2.811 -0.6176  0.4363 -1.0113
  630MOL0     C83056  -1.893   7.481   2.764 -0.3422 -0.3380 -0.2584
  630MOL0     C83057  -2.008   7.447   2.845  0.0257  0.1422 -0.3897
  630MOL0     O83058  -1.978   7.387   2.969  0.1320  0.8331 -0.9616
  630MOL0     C83059  -2.080   7.330   3.052 -0.1550 -0.2874  0.5737
  630MOL0     C83060  -2.116   7.390   3.178  0.5825 -0.0533  0.3408
  630MOL0     C83061  -2.212   7.320   3.256 -0.3328  0.1620 -0.6311
  630MOL0     C83062  -2.272   7.196   3.218  0.2819  0.0474 -0.2690
  630MOL0     O83063  -2.364   7.119   3.291  0.7816  0.0998 -0.1577
  630MOL0     C83064  -2.428   7.179   3.406 -0.3059  0.0924 -0.0027
  630MOL0     C83065  -2.556   7.097   3.442  0.0585 -1.4626 -0.1157
  630MOL0     C83066  -2.672   7.118   3.345 -0.3723 -0.4290 -0.3495
  630MOL0     C83067  -2.798   7.057   3.400 -0.4096  0.6223  0.1718
  630MOL0     C83068  -2.920   7.118   3.333  1.0022 -0.4514  0.2255
  630MOL0     C83069  -3.056   7.052   3.371  0.1728  0.2023 -0.2518
  630MOL0     C83070  -3.178   7.129   3.322 -0.3062 -0.2662  0.1165
  630MOL0     C83071  -3.235   7.230   3.423 -0.1665  0.4675 -0.8593
  630MOL0    Cl83072  -3.114   7.337   3.488 -0.5626 -0.2880  0.2190
  630MOL0     C83073  -2.226   7.135   3.092 -0.4959  0.1232  0.6951
  630MOL0     C83074  -2.144   7.214   3.013 -0.2441  0.7592 -0.1578
  630MOL0     O83075  -2.115   7.451   2.787 -0.8596  0.1932 -0.2804
  630MOL0     C83076  -1.906   7.539   2.642  0.1548  0.0286  0.4452
  630MOL0     C83077  -1.798   7.548   2.549  0.2319  1.0487 -0.4112
  630MOL0     N83078  -1.310   7.969   2.250 -0.3329  0.1560 -0.0143
  630MOL0     N83079  -1.253   7.995   2.138  0.3414  0.1848 -0.4135
  630MOL0     C83080  -0.143   7.651   1.455  0.5762  0.1714  1.0053
  630MOL0     C83081  -0.024   7.588   1.430  0.2532  0.0999 -0.3959
  630MOL0     C83082   0.395   7.511   1.220 -0.2431 -0.1896  0.0918
  630MOL0     C83083   0.489   7.456   1.305 -0.2535 -0.1818  0.0113
  630MOL0     C83084   0.622   7.439   1.261  0.2171 -0.6233 -0.0186
  630MOL0     C83085   0.658   7.470   1.127  0.1782 -0.8159  0.4233
  630MOL0     O83086   0.777   7.459   1.065 -0.0681 -1.0583 -0.1467
  630MOL0     C83087   0.891   7.419   1.134  0.7120  0.8175 -0.2791
  630MOL0     C83088   1.018   7.450   1.064  0.6562  0.1834 -0.0754
  630MOL0     C83089   1.020   7.387   0.920 -0.3110 -0.1389  0.0199
  630MOL0     C83090   1.062   7.248   0.911  0.5045 -0.0911 -0.3503
  630MOL0     C83091   1.209   7.232   0.930  0.5537 -0.6564 -0.2845
  630MOL0     C83092   1.327   7.207   0.940 -0.2140  0.4918 -0.2146
  630MOL0     C83093   0.560   7.532   1.042  0.3445  0.2908 -0.5781
  630MOL0     C83094   0.433   7.545   1.087 -0.1045  0.3329 -0.3580
  630MOL0     H83095   0.188   7.837   1.355  1.0638 -1.4286  0.0721
  630MOL0     H83096  -0.009   7.963   1.465 -4.5512  0.2066 -0.3330
  630MOL0     H83097  -0.216   7.913   1.690 -0.4648  1.4702 -1.7312
  630MOL0     H83098  -0.300   7.764   1.659 -1.3579  0.0882 -0.9421
  630MOL0     H83099  -0.474   7.925   1.541 -1.3163 -0.1020  1.6405
  630MOL0     H83100  -0.386   8.053   1.623  1.7426 -0.9658  0.0269
  630MOL0     H83101  -0.436   7.996   1.836  0.0312 -0.9924  1.1214
  630MOL0     H83102  -0.479   7.824   1.799 -1.5226  0.3837  0.9917
  630MOL0     H83103  -0.626   8.079   1.742  0.3795 -0.2461  0.1343
  630MOL0     H83104  -0.688   7.905   1.702 -1.5788  1.9373 -1.3885
  630MOL0     H83105  -0.629   8.012   1.984  0.7644  0.1806 -0.1580
  630MOL0     H83106  -0.713   7.859   1.923 -1.9591  0.3001 -1.4455
  630MOL0     H83107  -0.876   8.059   1.816 -2.6464 -2.5971  1.0364
  630MOL0     H83108  -0.812   8.147   1.941 -2.6747 -0.0424 -0.1460
  630MOL0     H83109  -0.925   7.868   2.005 -1.2528 -0.6517  2.0384
  630MOL0     H83110  -0.840   7.974   2.113  0.8499 -2.7066 -1.2311
  630MOL0     H83111  -1.073   8.065   1.953  1.6419 -1.0241 -1.2223
  630MOL0     H83112  -0.992   8.148   2.087  2.2825 -2.0111  2.4550
  630MOL0     H83113  -0.999   7.944   2.330  0.3487 -0.7741 -1.8347
  630MOL0     H83114  -1.269   7.973   2.536 -2.9533  0.6244 -1.2160
  630MOL0     H83115  -1.149   7.841   2.507  1.1472  0.7548 -1.5374
  630MOL0     H83116  -1.455   7.804   2.447 -1.4282 -2.1902  1.4553
  630MOL0     H83117  -1.391   7.794   2.602 -2.4554 -1.5095  0.7717
  630MOL0     H83118  -1.316   7.617   2.367  0.6976 -0.9485  0.1137
  630MOL0     H83119  -1.222   7.626   2.515  0.9825  3.5746 -2.2828
  630MOL0     H83120  -1.414   7.554   2.654 -1.4452 -1.3180 -0.2364
  630MOL0     H83121  -1.391   7.441   2.527  0.6485  0.1400  1.6674
  630MOL0     H83122  -1.554   7.480   2.784 -0.7002  3.3884  0.6169
  630MOL0     H83123  -1.739   7.403   2.908 -1.6707 -3.5379 -2.3835
  630MOL0     H83124  -2.070   7.485   3.201 -1.5821  0.4916  2.8157
  630MOL0     H83125  -2.249   7.361   3.349  0.1751  1.4464 -0.9825
  630MOL0     H83126  -2.465   7.279   3.380  2.4745  0.7967 -1.6216
  630MOL0     H83127  -2.361   7.172   3.492  0.1352 -3.3447 -0.5173
  630MOL0     H83128  -2.586   7.128   3.543 -0.2737 -0.3224 -0.5451
  630MOL0     H83129  -2.531   6.991   3.432  0.0006 -1.2583 -3.3463
  630MOL0     H83130  -2.648   7.071   3.249 -1.2474 -0.5206 -0.5344
  630MOL0     H83131  -2.697   7.223   3.325  0.7275  0.1241  1.0056
  630MOL0     H83132  -2.784   6.949   3.385  2.4413  1.0925 -1.1054
  630MOL0     H83133  -2.818   7.074   3.506  0.7552 -1.7398  0.8547
  630MOL0     H83134  -2.916   7.103   3.224  0.1594 -1.3085  0.2964
  630MOL0     H83135  -2.923   7.225   3.354  2.9653  0.2623 -2.5417
  630MOL0     H83136  -3.066   7.033   3.479 -1.7819 -3.5533 -0.9137
  630MOL0     H83137  -3.057   6.959   3.314 -1.1887  1.1341 -1.8304
  630MOL0     H83138  -3.139   7.183   3.235  1.2168  0.7223  1.3531
  630MOL0     H83139  -3.268   7.072   3.298 -1.0068  0.4318  1.0194
  630MOL0     H83140  -3.277   7.167   3.502  1.0506 -0.1550 -0.6819
  630MOL0     H83141  -3.313   7.282   3.367  1.2914  1.5585 -1.9525
  630MOL0     H83142  -2.258   7.032   3.076  2.5370 -1.1122  1.6858
  630MOL0     H83143  -2.105   7.184   2.916  0.4508  0.9875  0.0482
  630MOL0     H83144  -2.001   7.568   2.599  1.1823 -1.0501 -2.8758
  630MOL0     H83145  -1.818   7.581   2.448 -5.0771 -2.7602 -1.0021
  630MOL0     H83146  -0.235   7.594   1.458  1.1421 -1.2095 -2.8296
  630MOL0     H83147  -0.022   7.480   1.432 -3.5734 -0.1895  3.5445
  630MOL0     H83148   0.471   7.429   1.408 -0.0212  2.3903  0.7972
  630MOL0     H83149   0.696   7.397   1.328 -0.1630  0.0809  0.8525
  630MOL0     H83150   0.889   7.311   1.145 -2.6448  0.4702 -2.9703
  630MOL0     H83151   0.890   7.465   1.234  0.3883  0.0111  0.0944
  630MOL0     H83152   1.022   7.559   1.058  2.6412  0.1770  0.5556
  630MOL0     H83153   1.103   7.427   1.129  0.2626  2.8976  1.5470
  630MOL0     H83154   1.095   7.440   0.860  1.7557 -1.2600  1.5302
  630MOL0     H83155   0.924   7.398   0.868 -0.4745 -2.0394 -0.1207
  630MOL0     H83156   1.017   7.180   0.983  1.1208 -2.6326 -2.2222
  630MOL0     H83157   1.047   7.208   0.810 -0.3452  0.3728 -0.4186
  630MOL0     H83158   1.431   7.182   0.949 -0.0187  1.2464 -0.3951
  630MOL0     H83159   0.572   7.572   0.942 -1.6751  0.3673 -0.8395
  630MOL0     H83160   0.356   7.599   1.033  1.5493  0.7923 -2.3849
  631MOL0     O83161   0.127   3.520  11.297 -0.0922  0.2442  0.7713
  631MOL0     C83162   0.196   3.432  11.242 -0.1340 -0.2110  0.4641
  631MOL0     O83163   0.150   3.333  11.143 -0.6282  0.4092 -0.8419
  631MOL0     C83164   0.022   3.362  11.101  0.4930  0.4818  0.0629
  631MOL0     C83165  -0.093   3.323  11.177  0.4379  0.8752 -0.3227
  631MOL0     C83166  -0.219   3.371  11.136 -0.0460  0.6599 -0.5192
  631MOL0     C83167  -0.241   3.439  11.019  0.3368  0.5725  0.6096
  631MOL0     O83168  -0.369   3.500  10.995 -0.4868  1.1957  0.0449
  631MOL0     C83169  -0.427   3.439  10.880 -0.6942  0.5289  0.2080
  631MOL0     C83170  -0.542   3.530  10.842 -0.7956 -0.0790 -0.8848
  631MOL0     C83171  -0.590   3.482  10.706  0.1413  0.5543 -0.4581
  631MOL0     C83172  -0.723   3.540  10.644  0.0126  0.3945 -0.3467
  631MOL0     C83173  -0.852   3.521  10.721 -0.2623 -0.8715  1.1071
  631MOL0     C83174  -0.915   3.386  10.728  0.1052  0.3468  0.2089
  631MOL0     C83175  -1.005   3.389  10.853  0.4945 -0.6529  0.4893
  631MOL0     C83176  -1.088   3.270  10.873  0.2816 -0.1568  0.2767
  631MOL0     N83177  -1.169   3.283  11.006 -0.7339  0.4783  0.2030
  631MOL0     C83178  -1.224   3.400  11.054 -0.0949  0.5217  0.6305
  631MOL0     C83179  -1.244   3.371  11.187 -0.1608  0.2268 -0.3461
  631MOL0     C83180  -1.306   3.462  11.282  0.4531  0.1028 -0.9631
  631MOL0     C83181  -1.438   3.533  11.237 -0.3077 -0.3026  0.6240
  631MOL0     C83182  -1.480   3.657  11.325 -0.5108  0.7845  0.1204
  631MOL0     C83183  -1.630   3.687  11.307  0.2253 -0.4538 -0.2514
  631MOL0     O83184  -1.665   3.705  11.164  0.5098  0.1207 -0.4327
  631MOL0     C83185  -1.801   3.695  11.142 -0.2968 -0.1477 -0.7096
  631MOL0     C83186  -1.902   3.721  11.241  0.9593  0.9466  0.4276
  631MOL0     C83187  -2.039   3.699  11.206  0.0253  0.0223 -0.4506
  631MOL0     C83188  -2.082   3.656  11.078 -0.3907 -0.0252 -0.4080
  631MOL0     C83189  -2.222   3.653  11.038  0.3654 -0.5726 -0.2429
  631MOL0     O83190  -2.243   3.601  10.914 -0.3892 -0.1486  0.7081
  631MOL0     C83191  -2.363   3.621  10.852 -1.3528  0.8940  1.5189
  631MOL0     C83192  -2.410   3.526  10.761 -0.9503 -0.0957 -0.0870
  631MOL0     C83193  -2.519   3.547  10.683 -0.4684  0.6078 -0.1884
  631MOL0     C83194  -2.595   3.665  10.683  0.0453  0.0178  0.0258
  631MOL0     O83195  -2.710   3.683  10.619 -1.2684  0.1752 -0.4767
  631MOL0     C83196  -2.766   3.580  10.545 -0.1090  1.1755  0.1317
  631MOL0     C83197  -2.886   3.628  10.471  0.1684 -0.0971 -0.6480
  631MOL0     C83198  -3.014   3.655  10.561 -0.5730 -0.6587  0.3037
  631MOL0     C83199  -3.128   3.724  10.497  0.0526 -0.5662 -0.4562
  631MOL0     C83200  -3.258   3.725  10.586  0.0333  0.8444 -0.9876
  631MOL0     C83201  -3.369   3.816  10.529 -0.2595  0.5629 -0.0980
  631MOL0     C83202  -3.505   3.796  10.594  0.1977 -0.9326  0.7436
  631MOL0     C83203  -3.614   3.873  10.506  0.5660 -0.3802 -0.2377
  631MOL0    Cl83204  -3.567   4.045  10.496 -0.2501  0.1965 -0.3740
  631MOL0     C83205  -2.555   3.762  10.769  0.7956 -1.0761 -0.1013
  631MOL0     C83206  -2.447   3.740  10.853  0.3377 -0.3867 -0.1087
  631MOL0     O83207  -2.305   3.701  11.119 -0.5091  1.0508 -0.3311
  631MOL0     C83208  -1.980   3.619  10.987 -0.4766 -0.0283  0.6869
  631MOL0     C83209  -1.844   3.654  11.013  0.9448 -0.2118 -0.1869
  631MOL0     N83210  -1.181   3.250  11.223  0.3343 -0.5374  0.7858
  631MOL0     N83211  -1.131   3.203  11.112  0.1697  1.0172  0.5999
  631MOL0     C83212  -0.131   3.465  10.935 -0.0711  0.1307  0.6020
  631MOL0     C83213   0.001   3.424  10.973 -0.2240 -0.3183 -0.4595
  631MOL0     C83214   0.343   3.427  11.293  0.6989 -0.5506  0.3128
  631MOL0     C83215   0.419   3.324  11.246 -0.0888 -0.4896 -0.2769
  631MOL0     C83216   0.556   3.307  11.268  0.4416  0.1374 -0.7109
  631MOL0     C83217   0.612   3.394  11.363 -0.7494 -0.0881 -0.3423
  631MOL0     O83218   0.740   3.360  11.399 -0.3881  0.0779  0.1352
  631MOL0     C83219   0.829   3.429  11.491  0.1134 -0.3009 -0.3917
  631MOL0     C83220   0.942   3.352  11.559 -0.8135  0.7817  0.5352
  631MOL0     C83221   1.033   3.270  11.455 -0.2473 -0.1077  0.2846
  631MOL0     C83222   1.106   3.157  11.521 -0.3361  0.3835  0.1891
  631MOL0     C83223   1.210   3.110  11.427 -0.4769 -1.0760 -0.2037
  631MOL0     C83224   1.300   3.086  11.351 -0.2825  1.0036  0.1702
  631MOL0     C83225   0.533   3.493  11.425 -0.0709 -0.3165 -0.2672
  631MOL0     C83226   0.401   3.506  11.386  0.3339 -0.5638  0.3008
  631MOL0     H83227  -0.079   3.263  11.265  1.0333 -0.7831 -1.5029
  631MOL0     H83228  -0.304   3.348  11.200  1.4392 -2.1423  0.5734
  631MOL0     H83229  -0.462   3.339  10.910 -0.2130 -0.0998 -1.2276
  631MOL0     H83230  -0.362   3.428  10.793 -1.0774 -1.4390  0.1130
  631MOL0     H83231  -0.532   3.639  10.846 -1.8510 -0.0021  1.7236
  631MOL0     H83232  -0.616   3.504  10.919  1.9706 -2.2961  1.2516
  631MOL0     H83233  -0.593   3.373  10.709  0.6642  0.5102  3.1210
  631MOL0     H83234  -0.512   3.497  10.631 -0.0137 -1.0747 -0.9693
  631MOL0     H83235  -0.720   3.644  10.611  1.5027  0.0370 -1.4141
  631MOL0     H83236  -0.737   3.493  10.547  2.0239  0.2998 -0.6269
  631MOL0     H83237  -0.925   3.587  10.671  0.7701 -0.1828  0.4660
  631MOL0     H83238  -0.840   3.576  10.815 -1.0829  0.0883  0.6728
  631MOL0     H83239  -0.842   3.305  10.734  2.0249  2.0732  1.7434
  631MOL0     H83240  -0.963   3.363  10.633 -0.6579  0.0611  0.6495
  631MOL0     H83241  -0.932   3.403  10.933  3.1304  1.2981 -2.0305
  631MOL0     H83242  -1.076   3.472  10.852  1.0128 -0.2070  0.2098
  631MOL0     H83243  -1.023   3.182  10.872  1.9152  0.7931  4.0710
  631MOL0     H83244  -1.163   3.250  10.796 -0.2834 -1.6832  1.1628
  631MOL0     H83245  -1.252   3.483  10.990  1.7543 -1.3547 -2.9132
  631MOL0     H83246  -1.229   3.539  11.295 -1.0071  1.2124  2.2735
  631MOL0     H83247  -1.320   3.414  11.379  1.2732  1.7680  0.0211
  631MOL0     H83248  -1.523   3.466  11.224 -0.7992  0.6597 -1.6684
  631MOL0     H83249  -1.418   3.567  11.134 -1.2192  1.2196  0.9259
  631MOL0     H83250  -1.445   3.650  11.429  1.7788  2.9578 -0.4066
  631MOL0     H83251  -1.417   3.742  11.295  0.4670 -0.4261 -1.4179
  631MOL0     H83252  -1.662   3.775  11.363 -1.4193 -2.7068  2.6066
  631MOL0     H83253  -1.693   3.607  11.346 -1.5785  0.8365 -0.3477
  631MOL0     H83254  -1.866   3.748  11.339 -1.3879  0.8328  1.4064
  631MOL0     H83255  -2.116   3.728  11.277 -0.7795  1.6360 -1.9095
  631MOL0     H83256  -2.361   3.431  10.742 -0.0457  0.4256 -0.3998
  631MOL0     H83257  -2.558   3.465  10.623  1.9114  0.1372 -1.2101
  631MOL0     H83258  -2.788   3.490  10.603  0.1813  1.8353  1.3152
  631MOL0     H83259  -2.694   3.550  10.468  0.1589 -1.2125  1.2177
  631MOL0     H83260  -2.912   3.553  10.396  0.1375 -3.2850  2.3197
  631MOL0     H83261  -2.861   3.726  10.429 -1.1562  0.7567  0.4549
  631MOL0     H83262  -2.994   3.720  10.647  1.8573  3.3236 -2.9057
  631MOL0     H83263  -3.059   3.558  10.583 -2.9389 -0.6694 -3.6021
  631MOL0     H83264  -3.104   3.826  10.466 -2.5846  0.1098 -0.5539
  631MOL0     H83265  -3.147   3.678  10.400 -0.6955 -3.3531  0.8827
  631MOL0     H83266  -3.228   3.748  10.688 -0.9610  1.5225 -0.8358
  631MOL0     H83267  -3.310   3.629  10.584 -2.1347  1.9284 -3.7546
  631MOL0     H83268  -3.372   3.801  10.421  1.0969  1.0793 -0.2197
  631MOL0     H83269  -3.338   3.920  10.543  2.3606 -0.1526 -0.0642
  631MOL0     H83270  -3.531   3.690  10.595 -2.4074 -0.3487  1.3011
  631MOL0     H83271  -3.511   3.836  10.696 -2.8353 -0.6205  0.5324
  631MOL0     H83272  -3.708   3.875  10.562  1.3405 -3.5120  1.4076
  631MOL0     H83273  -3.620   3.829  10.406  1.1036 -2.0176  0.4076
  631MOL0     H83274  -2.619   3.850  10.767  1.5736 -0.5159 -0.7062
  631MOL0     H83275  -2.402   3.819  10.912  0.0261  0.6707 -1.2487
  631MOL0     H83276  -1.988   3.554  10.901  3.1248 -2.4928  1.9293
  631MOL0     H83277  -1.769   3.625  10.940 -1.4063 -1.3360 -2.2658
  631MOL0     H83278  -0.146   3.524  10.845 -4.8355 -1.7479 -0.0952
  631MOL0     H83279   0.088   3.439  10.911  1.3790 -4.8886  0.2547
  631MOL0     H83280   0.389   3.259  11.164  3.2269 -1.5877 -0.7927
  631MOL0     H83281   0.611   3.229  11.215 -1.2908 -1.2056 -0.5954
  631MOL0     H83282   0.757   3.464  11.566  0.3944 -2.0068  0.7140
  631MOL0     H83283   0.875   3.516  11.441 -2.7639  1.3923 -0.2962
  631MOL0     H83284   1.004   3.417  11.621  0.0202  0.8924 -0.3863
  631MOL0     H83285   0.893   3.276  11.620  0.5388 -0.9801 -0.4677
  631MOL0     H83286   1.092   3.341  11.396  2.6092 -2.9682 -0.5999
  631MOL0     H83287   0.968   3.219  11.384  1.9044  0.1365 -1.9820
  631MOL0     H83288   1.147   3.198  11.614 -0.7080 -1.5750  1.2831
  631MOL0     H83289   1.040   3.073  11.545 -0.1958  0.2091 -0.0315
  631MOL0     H83290   1.380   3.057  11.286  0.9377 -0.6241  2.2664
  631MOL0     H83291   0.556   3.551  11.514  0.0894 -1.1552  0.2514
  631MOL0     H83292   0.347   3.583  11.440 -1.3680 -0.6407 -1.1923
  632MOL0     O83293   5.583   0.627   1.698  0.3676 -0.4472  0.6441
  632MOL0     C83294   5.671   0.690   1.635  1.1551 -0.0264 -0.4556
  632MOL0     O83295   5.645   0.754   1.514  0.2359  0.1743  0.2502
  632MOL0     C83296   5.518   0.748   1.459 -1.3628  0.2215 -0.6210
  632MOL0     C83297   5.404   0.789   1.536 -1.1952  0.7228  0.1018
  632MOL0     C83298   5.279   0.797   1.475 -0.2567  0.8133  0.8022
  632MOL0     C83299   5.258   0.755   1.345  0.3796 -0.2837  0.3673
  632MOL0     O83300   5.132   0.750   1.290  0.1687 -1.2065 -0.1162
  632MOL0     C83301   5.101   0.680   1.170  0.0344 -0.1893  0.9843
  632MOL0     C83302   5.075   0.533   1.181  1.3330  0.4193  0.3774
  632MOL0     C83303   5.042   0.463   1.053  0.0537  0.1203  0.7163
  632MOL0     C83304   4.968   0.335   1.100  0.6130  0.2445  0.3372
  632MOL0     C83305   4.956   0.238   0.978 -0.2268  0.1221 -0.6094
  632MOL0     C83306   4.910   0.098   1.038 -0.0036 -1.1351 -0.0875
  632MOL0     C83307   4.874   0.014   0.918 -1.0674  0.1626  0.1148
  632MOL0     C83308   4.838  -0.131   0.949 -0.5156  0.7243 -0.6673
  632MOL0     N83309   4.714  -0.156   1.023  0.3004 -0.3318  0.0933
  632MOL0     C83310   4.601  -0.209   0.975  0.1666 -0.1582 -1.0998
  632MOL0     C83311   4.516  -0.188   1.070  1.2379  0.9441  0.0743
  632MOL0     C83312   4.370  -0.220   1.048  0.7172 -0.7844 -0.4214
  632MOL0     C83313   4.317  -0.371   1.042 -0.3151 -0.0229 -0.5897
  632MOL0     C83314   4.160  -0.371   1.016  0.3148  0.1781 -0.0226
  632MOL0     C83315   4.113  -0.518   1.025  0.4831 -0.0084 -0.0520
  632MOL0     O83316   4.132  -0.578   1.158  0.1895  0.2987  0.7151
  632MOL0     C83317   4.057  -0.683   1.201 -0.6493  0.3545 -0.3530
  632MOL0     C83318   4.052  -0.705   1.342  0.0695  0.2397 -0.2140
  632MOL0     C83319   3.974  -0.804   1.402 -0.2688 -0.0171 -0.0214
  632MOL0     C83320   3.899  -0.892   1.325 -0.1556  0.4172 -1.2718
  632MOL0     C83321   3.812  -0.986   1.392 -0.1017  0.2768  0.1087
  632MOL0     O83322   3.773  -0.948   1.517 -0.5914  0.2064  0.4554
  632MOL0     C83323   3.696  -1.040   1.592  0.4813 -0.1471  0.2868
  632MOL0     C83324   3.736  -1.171   1.618  0.3131  0.2926  0.6618
  632MOL0     C83325   3.659  -1.258   1.694 -0.2938 -0.1691 -0.3573
  632MOL0     C83326   3.543  -1.205   1.751 -0.3950  0.9067 -0.0489
  632MOL0     O83327   3.456  -1.276   1.832 -0.9602 -0.5851  0.1026
  632MOL0     C83328   3.488  -1.410   1.871 -0.3372 -0.0003 -0.1012
  632MOL0     C83329   3.354  -1.467   1.915 -0.8060 -0.4245 -0.5533
  632MOL0     C83330   3.384  -1.595   1.989 -0.1659 -0.6838 -0.0519
  632MOL0     C83331   3.261  -1.670   2.035 -0.5608 -0.0035  1.0709
  632MOL0     C83332   3.156  -1.706   1.923 -0.4116 -0.5037  0.5358
  632MOL0     C83333   3.039  -1.768   1.987  0.1307 -0.3322 -0.0329
  632MOL0     C83334   2.940  -1.813   1.885  0.2928 -0.9967  0.1890
  632MOL0     C83335   2.811  -1.878   1.947 -0.6663 -0.1062  0.3844
  632MOL0    Cl83336   2.734  -1.744   2.022 -0.2922 -0.0205  0.3261
  632MOL0     C83337   3.504  -1.076   1.727 -0.4471  0.5613  0.2223
  632MOL0     C83338   3.579  -0.998   1.650  0.0505 -0.5539 -0.6840
  632MOL0     O83339   3.781  -1.089   1.333  0.5644 -0.4042 -0.4539
  632MOL0     C83340   3.910  -0.875   1.180 -1.2193  0.1649  0.1596
  632MOL0     C83341   3.978  -0.773   1.122  0.0868 -0.0304 -1.2669
  632MOL0     N83342   4.569  -0.127   1.180 -1.0665  0.2484  0.8067
  632MOL0     N83343   4.696  -0.114   1.154  0.5093 -0.6535 -0.0759
  632MOL0     C83344   5.367   0.706   1.276 -0.1700  0.2564  0.5130
  632MOL0     C83345   5.493   0.707   1.332 -0.5989  0.4918  0.8518
  632MOL0     C83346   5.816   0.701   1.686  0.9973  0.3377  0.5288
  632MOL0     C83347   5.915   0.755   1.595 -0.0702 -0.8640 -1.1812
  632MOL0     C83348   6.057   0.751   1.636  0.2698  0.1819 -0.0226
  632MOL0     C83349   6.092   0.710   1.759 -0.3795  0.4837 -0.1923
  632MOL0     O83350   6.220   0.720   1.814 -0.5795 -0.0506 -0.2117
  632MOL0     C83351   6.326   0.794   1.743  0.3755  0.0066 -0.3719
  632MOL0     C83352   6.400   0.692   1.669  0.1134 -0.0093 -0.1183
  632MOL0     C83353   6.525   0.765   1.618  0.4568  0.6903  0.4976
  632MOL0     C83354   6.605   0.677   1.516  0.0635  0.8345 -1.1554
  632MOL0     C83355   6.718   0.750   1.465  0.1636 -1.2139  0.8061
  632MOL0     C83356   6.810   0.814   1.420 -0.4211 -0.0074 -0.3341
  632MOL0     C83357   5.993   0.657   1.844 -0.0405  0.1977 -0.5963
  632MOL0     C83358   5.859   0.658   1.810 -0.3733  0.4760  0.4709
  632MOL0     H83359   5.426   0.817   1.638 -0.7808  4.7302 -0.9249
  632MOL0     H83360   5.192   0.818   1.537 -0.6302  0.2313  0.4831
  632MOL0     H83361   5.192   0.682   1.109 -0.3974 -1.8672  0.2343
  632MOL0     H83362   5.017   0.728   1.119  2.6079  1.8288 -1.7320
  632MOL0     H83363   4.995   0.528   1.255 -2.1282 -1.2018 -3.1163
  632MOL0     H83364   5.165   0.491   1.226  2.1714  2.6145  0.8421
  632MOL0     H83365   5.139   0.446   1.006  0.5496  3.6091  0.1711
  632MOL0     H83366   4.987   0.531   0.987  1.7927 -0.0178 -0.9306
  632MOL0     H83367   5.027   0.282   1.175  0.7817  0.7979  0.6012
  632MOL0     H83368   4.870   0.361   1.141  1.4185  4.4546  0.0507
  632MOL0     H83369   5.057   0.222   0.938  0.4985 -1.6321  1.6977
  632MOL0     H83370   4.888   0.274   0.901  0.0415 -2.3712 -2.1414
  632MOL0     H83371   4.828   0.105   1.110 -0.1267 -2.0743 -0.1250
  632MOL0     H83372   4.990   0.057   1.100  0.2817 -0.5100 -0.0331
  632MOL0     H83373   4.787   0.047   0.861  0.0668  0.7468 -1.3432
  632MOL0     H83374   4.967   0.023   0.861 -0.4164  4.2775  1.5606
  632MOL0     H83375   4.914  -0.195   0.997 -0.3499 -0.8287 -2.8344
  632MOL0     H83376   4.823  -0.180   0.852 -1.5495 -0.0041 -0.1555
  632MOL0     H83377   4.575  -0.260   0.882 -0.8971 -0.5185 -0.6250
  632MOL0     H83378   4.354  -0.187   0.945  3.3331  1.7552 -0.1414
  632MOL0     H83379   4.303  -0.168   1.117  0.2870 -0.0064 -1.3907
  632MOL0     H83380   4.329  -0.407   1.145  3.3634 -1.0426 -1.2271
  632MOL0     H83381   4.381  -0.430   0.975  0.5557  1.7712 -1.4051
  632MOL0     H83382   4.112  -0.312   1.094 -0.2832 -0.4647  0.1097
  632MOL0     H83383   4.144  -0.337   0.913 -2.6869 -0.5295  0.1165
  632MOL0     H83384   4.159  -0.577   0.945 -2.7244 -1.2904 -1.1489
  632MOL0     H83385   4.007  -0.509   0.997  1.2069  0.4500 -2.9437
  632MOL0     H83386   4.115  -0.636   1.398 -1.4182 -0.1813  2.1222
  632MOL0     H83387   3.970  -0.823   1.509  0.3174 -3.4354 -0.4756
  632MOL0     H83388   3.820  -1.212   1.564 -0.5282 -1.2505  0.4856
  632MOL0     H83389   3.701  -1.357   1.710 -0.1479  0.0927  0.9929
  632MOL0     H83390   3.553  -1.414   1.959 -3.2753 -0.8341  2.2063
  632MOL0     H83391   3.526  -1.470   1.788  2.7908  1.4431  0.1583
  632MOL0     H83392   3.303  -1.483   1.820  1.0399 -1.7360 -1.4040
  632MOL0     H83393   3.296  -1.402   1.981  0.0819  0.0465 -0.2157
  632MOL0     H83394   3.444  -1.590   2.079  1.2260 -2.1278 -0.8574
  632MOL0     H83395   3.448  -1.658   1.926  1.0061 -0.3083  0.7363
  632MOL0     H83396   3.297  -1.767   2.070  1.4675 -0.3663 -1.6633
  632MOL0     H83397   3.204  -1.623   2.116 -3.0176 -0.9027 -0.0144
  632MOL0     H83398   3.191  -1.768   1.840 -0.1534 -0.8172  0.8777
  632MOL0     H83399   3.120  -1.616   1.872  0.0495 -0.3843  0.4110
  632MOL0     H83400   2.992  -1.710   2.067  0.7210  0.8723 -0.5467
  632MOL0     H83401   3.077  -1.854   2.043 -2.2611 -0.9207  0.8180
  632MOL0     H83402   2.911  -1.727   1.824  1.2205 -1.5024 -1.0125
  632MOL0     H83403   2.978  -1.881   1.809  0.2408 -0.9581  0.1281
  632MOL0     H83404   2.834  -1.960   2.016 -0.5113  0.3864  0.9214
  632MOL0     H83405   2.757  -1.912   1.858  0.2239  2.7922 -1.4250
  632MOL0     H83406   3.408  -1.042   1.766 -2.3003 -0.9059 -2.7117
  632MOL0     H83407   3.553  -0.895   1.630  1.2697  0.0585  0.7117
  632MOL0     H83408   3.851  -0.935   1.111 -0.9068  1.2456 -1.0917
  632MOL0     H83409   3.969  -0.765   1.014 -2.3039  2.4636 -1.0107
  632MOL0     H83410   5.373   0.652   1.182  3.6621  2.3187 -0.6490
  632MOL0     H83411   5.569   0.668   1.265 -2.2708 -4.2340  1.3004
  632MOL0     H83412   5.895   0.803   1.500 -1.9857 -0.1038 -0.4543
  632MOL0     H83413   6.123   0.796   1.562 -2.0713  0.3781 -2.1325
  632MOL0     H83414   6.394   0.838   1.816 -0.7627  1.1253  0.0260
  632MOL0     H83415   6.295   0.880   1.684 -0.0475 -0.5985 -1.0602
  632MOL0     H83416   6.436   0.613   1.736 -2.8348  0.6356  2.4520
  632MOL0     H83417   6.339   0.654   1.586 -0.7739 -1.1380  1.0119
  632MOL0     H83418   6.588   0.772   1.707  1.1568  1.7895 -0.0676
  632MOL0     H83419   6.497   0.860   1.572  1.5837  1.1078  0.6313
  632MOL0     H83420   6.621   0.577   1.559 -2.0534  0.0673 -2.0138
  632MOL0     H83421   6.536   0.661   1.432 -1.0468  1.7928 -0.4549
  632MOL0     H83422   6.887   0.885   1.395  1.0065 -0.7251  1.7422
  632MOL0     H83423   6.008   0.630   1.947 -1.8242 -0.9739 -0.6063
  632MOL0     H83424   5.781   0.627   1.879 -0.5000  0.4939  0.3385
  633MOL0     O83425   5.698   7.678   6.315 -0.3771 -0.8330  0.3901
  633MOL0     C83426   5.677   7.729   6.206 -0.1409  0.5364  0.1937
  633MOL0     O83427   5.558   7.733   6.149 -0.5061  0.5941  0.9202
  633MOL0     C83428   5.443   7.743   6.222  0.1943 -0.0219  0.3572
  633MOL0     C83429   5.315   7.689   6.187 -0.6115  0.2229 -0.0686
  633MOL0     C83430   5.200   7.709   6.260  0.5868 -0.4721  0.9972
  633MOL0     C83431   5.210   7.782   6.372  0.8156  0.2979  0.1609
  633MOL0     O83432   5.097   7.811   6.446  0.3270 -0.2409  0.3434
  633MOL0     C83433   5.005   7.698   6.479 -0.1374 -0.0113  0.8681
  633MOL0     C83434   4.948   7.737   6.619 -0.0351 -0.3210  0.5493
  633MOL0     C83435   4.799   7.700   6.643  0.2123 -0.7432 -0.0868
  633MOL0     C83436   4.690   7.761   6.549  0.4149 -0.8013 -0.8487
  633MOL0     C83437   4.554   7.751   6.618  0.6450  1.0601  0.0478
  633MOL0     C83438   4.530   7.842   6.739 -0.3565  0.3406  0.0204
  633MOL0     C83439   4.383   7.834   6.790  0.4240 -0.2031 -1.0633
  633MOL0     C83440   4.369   7.892   6.929 -0.5085 -0.1774  0.7768
  633MOL0     N83441   4.219   7.890   6.961 -0.1217  0.1811 -0.4246
  633MOL0     C83442   4.159   7.836   7.080  0.4786 -0.1560 -0.3564
  633MOL0     C83443   4.027   7.851   7.068  0.4215 -0.3120 -0.2677
  633MOL0     C83444   3.933   7.800   7.179 -0.3981  0.4985  0.3504
  633MOL0     C83445   3.927   7.892   7.302 -0.2370 -0.7569 -0.2313
  633MOL0     C83446   3.848   8.014   7.274 -0.1399  0.4822  0.0639
  633MOL0     C83447   3.874   8.136   7.368 -0.0834 -0.7735 -0.1673
  633MOL0     O83448   3.778   8.258   7.362  0.1344 -0.0671  0.1278
  633MOL0     C83449   3.647   8.243   7.402  0.9255 -0.8836 -0.1698
  633MOL0     C83450   3.562   8.346   7.371  0.5755 -0.2850  0.9956
  633MOL0     C83451   3.424   8.329   7.397  0.3262  0.3892  0.2828
  633MOL0     C83452   3.382   8.212   7.468  0.3877 -0.5697 -0.6132
  633MOL0     C83453   3.236   8.193   7.501  0.1431  0.6642 -0.2020
  633MOL0     O83454   3.152   8.298   7.470 -0.3134  0.5856 -0.6033
  633MOL0     C83455   3.023   8.276   7.499  0.0225 -0.7793 -0.4001
  633MOL0     C83456   2.968   8.315   7.622 -0.2929 -0.0432 -0.5412
  633MOL0     C83457   2.837   8.307   7.653  0.4521 -0.1998  0.6991
  633MOL0     C83458   2.752   8.278   7.542 -0.0785  0.3835 -0.3653
  633MOL0     O83459   2.617   8.271   7.551  0.0600 -0.3486 -0.0116
  633MOL0     C83460   2.557   8.241   7.686  0.4309  0.8719  0.6598
  633MOL0     C83461   2.417   8.182   7.662 -0.3684  0.8039 -0.8309
  633MOL0     C83462   2.421   8.039   7.599 -0.8497 -0.4993  0.6913
  633MOL0     C83463   2.445   7.925   7.702 -1.2874 -0.3866 -0.1675
  633MOL0     C83464   2.420   7.790   7.642  0.2073 -0.3574  0.7415
  633MOL0     C83465   2.445   7.690   7.748  0.0420 -0.0738  0.6076
  633MOL0     C83466   2.516   7.566   7.690  0.8487 -1.2360  0.3089
  633MOL0     C83467   2.531   7.456   7.792 -0.8188 -0.6493 -0.5018
  633MOL0    Cl83468   2.664   7.496   7.895 -0.4480 -0.5862  0.2729
  633MOL0     C83469   2.798   8.249   7.412 -0.7121 -0.1697 -0.4937
  633MOL0     C83470   2.939   8.231   7.393 -0.1503  0.1857 -0.3247
  633MOL0     O83471   3.205   8.083   7.548  0.3517  1.0648 -0.2300
  633MOL0     C83472   3.470   8.117   7.502  0.4383 -0.2852 -0.0089
  633MOL0     C83473   3.596   8.124   7.456  0.5736 -0.2309 -0.2893
  633MOL0     N83474   4.004   7.914   6.950  0.2741  0.3834  0.2398
  633MOL0     N83475   4.116   7.924   6.883  0.0170 -1.0047 -0.3604
  633MOL0     C83476   5.325   7.848   6.406  0.2021 -0.0329  0.2942
  633MOL0     C83477   5.444   7.822   6.335 -0.6852 -0.3514  0.3893
  633MOL0     C83478   5.802   7.788   6.135 -0.3485 -0.1061  0.4096
  633MOL0     C83479   5.807   7.807   5.996  0.5778 -0.3484 -0.2743
  633MOL0     C83480   5.917   7.866   5.937  0.1064 -0.5205  0.5195
  633MOL0     C83481   6.034   7.906   6.008  0.0036  0.5085  0.5932
  633MOL0     O83482   6.156   7.961   5.966  0.1592 -0.7160  0.3307
  633MOL0     C83483   6.150   8.013   5.832 -0.0618  0.3889  0.0833
  633MOL0     C83484   6.078   8.148   5.845 -0.2093 -0.2027 -0.4292
  633MOL0     C83485   6.067   8.219   5.703  1.2507 -0.6895  0.6205
  633MOL0     C83486   6.198   8.291   5.651  0.1188  0.3075 -1.2636
  633MOL0     C83487   6.171   8.401   5.559 -0.7073  0.2028  0.0578
  633MOL0     C83488   6.159   8.492   5.477 -0.3607 -0.2569  0.5141
  633MOL0     C83489   6.029   7.876   6.146  0.9304  0.0964  0.0730
  633MOL0     C83490   5.916   7.824   6.212 -0.9506 -0.6100 -0.2902
  633MOL0     H83491   5.312   7.631   6.095 -0.4904  3.3633 -2.1960
  633MOL0     H83492   5.106   7.672   6.220  1.9683 -1.1282 -1.9676
  633MOL0     H83493   5.055   7.602   6.470 -0.0293  0.2636 -2.3456
  633MOL0     H83494   4.921   7.697   6.408 -1.6124 -1.2714  2.5353
  633MOL0     H83495   4.965   7.842   6.648 -0.4971  0.4959 -1.8806
  633MOL0     H83496   5.005   7.677   6.690  1.0709  0.2042  0.1321
  633MOL0     H83497   4.765   7.733   6.741  0.9705  2.4358 -0.7769
  633MOL0     H83498   4.794   7.591   6.641  1.4731 -0.8771  1.5713
  633MOL0     H83499   4.719   7.863   6.525 -0.0935 -0.8730 -1.7766
  633MOL0     H83500   4.688   7.707   6.454 -0.3622 -3.8646  0.7701
  633MOL0     H83501   4.548   7.650   6.658  2.8364  1.8976  2.8261
  633MOL0     H83502   4.474   7.760   6.544  0.1992 -0.5259  0.3071
  633MOL0     H83503   4.555   7.946   6.721  0.0451  0.5289  1.5092
  633MOL0     H83504   4.591   7.802   6.821 -0.1059 -2.7496 -1.5371
  633MOL0     H83505   4.315   7.872   6.713  0.0566  2.9923  0.6612
  633MOL0     H83506   4.368   7.727   6.808  1.7099  0.0881  2.6729
  633MOL0     H83507   4.408   7.994   6.926  0.7935 -0.6815  0.2303
  633MOL0     H83508   4.427   7.833   7.001 -0.4820 -4.0075 -2.0584
  633MOL0     H83509   4.203   7.789   7.167  0.4384 -0.9218 -0.7366
  633MOL0     H83510   3.951   7.696   7.206  2.4040  1.1554  1.4167
  633MOL0     H83511   3.838   7.799   7.126  0.4277  1.0019 -1.2016
  633MOL0     H83512   4.026   7.921   7.339 -1.8895  3.3401  1.6204
  633MOL0     H83513   3.881   7.842   7.388 -0.2764 -2.1628 -1.0385
  633MOL0     H83514   3.854   8.050   7.171  3.3748 -2.2414 -0.8857
  633MOL0     H83515   3.745   7.990   7.302 -0.3099  0.5979 -0.4459
  633MOL0     H83516   3.970   8.182   7.346 -0.8911  0.5652 -1.0574
  633MOL0     H83517   3.875   8.099   7.471  0.5430 -1.5785 -0.4457
  633MOL0     H83518   3.593   8.432   7.312 -1.0734 -0.5382 -0.3247
  633MOL0     H83519   3.364   8.415   7.370  1.6075  1.8318  1.7706
  633MOL0     H83520   3.034   8.358   7.697 -1.1856  2.7501 -1.2385
  633MOL0     H83521   2.795   8.333   7.750  1.9221 -0.0791  1.3248
  633MOL0     H83522   2.537   8.337   7.734  1.2265  1.3408  0.0702
  633MOL0     H83523   2.610   8.175   7.755  0.0206 -1.3617 -1.0558
  633MOL0     H83524   2.350   8.256   7.618  0.2871  2.2772  0.5481
  633MOL0     H83525   2.371   8.165   7.760 -0.9903  1.7805 -0.9389
  633MOL0     H83526   2.504   8.024   7.529  0.3074 -3.1560  2.4732
  633MOL0     H83527   2.329   8.012   7.547 -1.2318 -2.8848  2.4343
  633MOL0     H83528   2.544   7.926   7.748  0.3899 -2.2840 -3.4194
  633MOL0     H83529   2.371   7.952   7.779  1.0951  3.7591  0.9768
  633MOL0     H83530   2.503   7.786   7.570 -1.6764  2.9239 -1.9157
  633MOL0     H83531   2.330   7.770   7.583 -0.0531 -0.9737  1.3328
  633MOL0     H83532   2.355   7.653   7.799 -0.6750 -0.2362 -0.7404
  633MOL0     H83533   2.513   7.729   7.824  1.2529 -0.4256 -0.2784
  633MOL0     H83534   2.450   7.514   7.620 -0.9877  0.2850  0.7971
  633MOL0     H83535   2.611   7.594   7.644  0.4414  2.6162  1.4785
  633MOL0     H83536   2.556   7.366   7.734  3.1898 -0.7346  1.0503
  633MOL0     H83537   2.445   7.452   7.860  0.7261 -0.1281  1.5547
  633MOL0     H83538   2.731   8.210   7.335  0.5007 -2.0637 -0.6726
  633MOL0     H83539   2.985   8.198   7.300  1.6478 -1.4576  1.0726
  633MOL0     H83540   3.438   8.035   7.566 -3.0572  0.9055 -0.0383
  633MOL0     H83541   3.671   8.052   7.485  2.7314  2.2934  0.8735
  633MOL0     H83542   5.317   7.910   6.494 -2.1640 -1.8068  1.4385
  633MOL0     H83543   5.536   7.865   6.372 -1.8999  2.3867  0.4019
  633MOL0     H83544   5.725   7.770   5.934 -0.3743  0.3860  0.5153
  633MOL0     H83545   5.920   7.874   5.829  1.0069  0.1086  0.5818
  633MOL0     H83546   6.097   7.937   5.772  2.3279 -1.4469  0.1652
  633MOL0     H83547   6.254   8.022   5.801  1.4230 -1.3871  3.9354
  633MOL0     H83548   5.971   8.133   5.864 -0.5139 -1.1701 -2.6133
  633MOL0     H83549   6.118   8.217   5.920 -1.4972  0.2491 -0.1316
  633MOL0     H83550   5.983   8.288   5.697  0.9188 -1.1358  0.0116
  633MOL0     H83551   6.054   8.140   5.629 -2.5352  0.6244 -0.3232
  633MOL0     H83552   6.242   8.326   5.745 -3.4212 -2.1075  1.5604
  633MOL0     H83553   6.265   8.217   5.607  0.6780  0.6667 -1.0428
  633MOL0     H83554   6.154   8.575   5.410 -0.9659  0.2637  1.1750
  633MOL0     H83555   6.112   7.905   6.210  0.9770 -0.7837  0.4294
  633MOL0     H83556   5.917   7.797   6.316  2.7263  0.6468  0.1640
  634MOL0     O83557   9.751  10.023   0.256 -0.1924  0.4806 -0.3666
  634MOL0     C83558   9.769   9.930   0.343  0.4207 -0.0994  0.8747
  634MOL0     O83559   9.679   9.872   0.419  0.2990 -0.2483 -1.3988
  634MOL0     C83560   9.545   9.915   0.414  0.4498 -0.3491 -0.3837
  634MOL0     C83561   9.497  10.012   0.506 -0.0087  0.0307  0.0534
  634MOL0     C83562   9.360  10.058   0.491 -0.1559  0.4538 -0.4410
  634MOL0     C83563   9.280  10.009   0.387 -0.1522  0.9658 -0.3446
  634MOL0     O83564   9.149  10.059   0.383 -0.1107  0.0058  0.1275
  634MOL0     C83565   9.050   9.991   0.462 -0.3714  0.2857  0.2137
  634MOL0     C83566   8.941  10.077   0.520  1.1347 -0.0940 -0.2163
  634MOL0     C83567   8.834  10.119   0.426  0.1153 -0.5363 -0.7266
  634MOL0     C83568   8.723  10.210   0.483  0.4421 -0.2428  0.1467
  634MOL0     C83569   8.607  10.236   0.385 -0.4912 -0.4669  0.3042
  634MOL0     C83570   8.492  10.136   0.407  0.2947 -0.1218  1.4753
  634MOL0     C83571   8.363  10.165   0.312 -1.0912 -0.6697  0.2674
  634MOL0     C83572   8.264  10.048   0.329  0.2569 -0.2180 -0.8717
  634MOL0     N83573   8.136  10.098   0.287 -0.3033 -0.2118 -0.2856
  634MOL0     C83574   8.066  10.060   0.180  0.2612  0.1099  0.1919
  634MOL0     C83575   7.948  10.121   0.186  0.2797  0.0788 -0.2512
  634MOL0     C83576   7.848  10.144   0.077 -0.4035 -0.0756 -0.0737
  634MOL0     C83577   7.728  10.044   0.078 -0.3614  0.0817  0.1102
  634MOL0     C83578   7.652  10.060   0.215 -0.3721  0.6130  1.1311
  634MOL0     C83579   7.595  10.192   0.259 -0.1923 -0.2413 -0.8868
  634MOL0     O83580   7.519  10.181   0.384  0.8377  0.2168 -0.5820
  634MOL0     C83581   7.389  10.218   0.379  0.2240 -0.0340 -0.3338
  634MOL0     C83582   7.299  10.117   0.361 -0.3076  0.5589  0.0531
  634MOL0     C83583   7.162  10.152   0.326  0.7118 -1.7557 -0.0090
  634MOL0     C83584   7.124  10.289   0.349 -0.8238 -0.0627 -0.1381
  634MOL0     C83585   6.983  10.342   0.342  0.1809  0.0540  0.7382
  634MOL0     O83586   6.888  10.249   0.308 -0.2683 -0.2015  0.0051
  634MOL0     C83587   6.755  10.277   0.319 -0.4603  1.0022 -0.1202
  634MOL0     C83588   6.676  10.171   0.372  0.1223 -0.4109  0.0101
  634MOL0     C83589   6.544  10.190   0.388 -1.0824  0.2148  0.2496
  634MOL0     C83590   6.486  10.302   0.332  0.1243  0.0087 -0.0315
  634MOL0     O83591   6.352  10.293   0.327  0.1618  0.0252  0.0418
  634MOL0     C83592   6.283  10.244   0.210 -0.5569 -0.2796  0.5628
  634MOL0     C83593   6.155  10.313   0.183  0.4945 -0.0706  0.4494
  634MOL0     C83594   6.168  10.452   0.135  0.4210  0.5151  0.1499
  634MOL0     C83595   6.024  10.520   0.134  0.3627  0.1664 -0.2013
  634MOL0     C83596   6.027  10.661   0.104  0.6977  0.2833  0.0867
  634MOL0     C83597   5.879  10.706   0.091 -0.3004  0.4343 -0.5393
  634MOL0     C83598   5.813  10.745   0.230 -0.4985  0.5889 -0.2966
  634MOL0     C83599   5.690  10.826   0.224  0.2998 -0.0988 -0.1251
  634MOL0    Cl83600   5.550  10.754   0.129  0.2521 -0.2866  0.0710
  634MOL0     C83601   6.559  10.401   0.266  0.0060  0.1860 -1.0949
  634MOL0     C83602   6.696  10.393   0.267 -0.1305 -0.5264  0.6190
  634MOL0     O83603   6.956  10.459   0.369 -0.1443 -0.3404 -0.1360
  634MOL0     C83604   7.222  10.389   0.373  0.1499  0.3831  0.1476
  634MOL0     C83605   7.355  10.354   0.393  0.3243  0.7575  0.4924
  634MOL0     N83606   7.954  10.192   0.302  0.2401 -0.3857  0.1019
  634MOL0     N83607   8.064  10.172   0.365  0.3317 -0.7404 -0.5169
  634MOL0     C83608   9.336   9.926   0.291  0.1913  0.5917  0.2438
  634MOL0     C83609   9.459   9.873   0.311 -0.6604 -0.1142 -0.4660
  634MOL0     C83610   9.899   9.869   0.353 -0.3897 -0.0254 -1.3189
  634MOL0     C83611  10.007   9.920   0.281 -0.7733 -0.4165 -0.1691
  634MOL0     C83612  10.145   9.884   0.314  0.0762 -0.2184 -0.9010
  634MOL0     C83613  10.172   9.795   0.422 -1.0144 -0.5535  0.1390
  634MOL0     O83614  10.301   9.742   0.463  0.4850 -0.8184 -0.2900
  634MOL0     C83615  10.427   9.801   0.415  0.1407  0.6386  0.7837
  634MOL0     C83616  10.448   9.937   0.469  0.2005  0.5898  0.6309
  634MOL0     C83617  10.563  10.017   0.405 -0.0891  0.1369  0.3073
  634MOL0     C83618  10.697   9.952   0.430  0.4404 -0.4929  0.7782
  634MOL0     C83619  10.794  10.065   0.398 -0.0641  0.5988  0.5966
  634MOL0     C83620  10.855  10.161   0.383 -0.2392  0.0345 -0.7651
  634MOL0     C83621  10.063   9.733   0.477  0.0138 -0.9511 -1.3509
  634MOL0     C83622   9.933   9.776   0.453 -0.1533  0.0692  0.0709
  634MOL0     H83623   9.562  10.054   0.583  0.1590  1.5992 -0.8994
  634MOL0     H83624   9.303  10.128   0.551 -1.3312 -3.1572  3.1621
  634MOL0     H83625   9.094   9.938   0.547  2.0481 -0.4711 -1.3750
  634MOL0     H83626   9.011   9.912   0.397  1.6254  0.2427 -1.0543
  634MOL0     H83627   8.981  10.171   0.560  1.2443 -0.2260 -0.0112
  634MOL0     H83628   8.899  10.019   0.603  2.8339  0.4437  1.0751
  634MOL0     H83629   8.780  10.045   0.368 -4.0205  2.6843 -1.4789
  634MOL0     H83630   8.889  10.178   0.352 -1.0194  1.9200  0.2588
  634MOL0     H83631   8.676  10.170   0.573  1.1751 -0.2576  0.5323
  634MOL0     H83632   8.762  10.307   0.516  1.1230 -0.5173  0.1579
  634MOL0     H83633   8.639  10.239   0.281 -0.4407 -0.5464  0.3169
  634MOL0     H83634   8.567  10.334   0.413  2.4008  0.3751  1.9298
  634MOL0     H83635   8.470  10.139   0.515  0.8705  0.5377  1.5808
  634MOL0     H83636   8.511  10.029   0.392 -2.7738 -0.6473  0.5397
  634MOL0     H83637   8.325  10.261   0.348  4.1244  1.5232  0.8667
  634MOL0     H83638   8.390  10.170   0.206  0.5889  1.2348  0.7236
  634MOL0     H83639   8.255  10.040   0.438  0.4018  3.1847 -0.5027
  634MOL0     H83640   8.289   9.950   0.286  0.1434 -0.5107 -0.2929
  634MOL0     H83641   8.099   9.987   0.106  1.7534  0.5535  0.3965
  634MOL0     H83642   7.902  10.127  -0.017 -1.1876 -0.2852 -0.4905
  634MOL0     H83643   7.809  10.246   0.087 -2.3094 -0.6077 -1.5070
  634MOL0     H83644   7.763   9.942   0.062  1.8532  1.1677 -2.7230
  634MOL0     H83645   7.661  10.046  -0.009  2.6844 -2.1092 -2.5074
  634MOL0     H83646   7.565   9.994   0.210  0.4770 -0.5590  1.6128
  634MOL0     H83647   7.716  10.022   0.295 -2.7295 -1.4692  2.1676
  634MOL0     H83648   7.536  10.230   0.175 -0.1436 -1.2397 -1.3926
  634MOL0     H83649   7.679  10.259   0.279  0.4611 -0.9710 -1.1343
  634MOL0     H83650   7.337  10.015   0.355 -0.3346  0.6246 -4.8546
  634MOL0     H83651   7.096  10.085   0.272 -2.2181  1.3020 -0.5021
  634MOL0     H83652   6.728  10.080   0.400  1.4294  0.2350 -0.2521
  634MOL0     H83653   6.485  10.119   0.444  1.8331 -2.4135  0.2797
  634MOL0     H83654   6.271  10.135   0.214 -0.2942 -0.5489 -2.8299
  634MOL0     H83655   6.346  10.265   0.123 -0.5841  0.9113  0.8228
  634MOL0     H83656   6.098  10.322   0.276  1.4307  1.7496  0.9029
  634MOL0     H83657   6.100  10.253   0.109 -0.5978 -3.0130  3.4157
  634MOL0     H83658   6.207  10.457   0.033 -1.6057 -1.2069 -0.7727
  634MOL0     H83659   6.235  10.505   0.203 -0.2156 -1.2851  2.3185
  634MOL0     H83660   5.967  10.474   0.052 -1.4944  1.4885  0.2816
  634MOL0     H83661   5.975  10.486   0.226  3.5260 -2.2991  0.7451
  634MOL0     H83662   6.077  10.669   0.007  1.1693  0.4404  0.3414
  634MOL0     H83663   6.085  10.719   0.177 -1.0396  0.6895  1.1999
  634MOL0     H83664   5.819  10.631   0.040  0.5440 -1.6884  1.4151
  634MOL0     H83665   5.887  10.798   0.033 -2.2037  1.6051  0.9276
  634MOL0     H83666   5.802  10.655   0.291  1.3157  2.2450  2.6833
  634MOL0     H83667   5.896  10.808   0.265 -1.0943  1.6538 -0.7359
  634MOL0     H83668   5.703  10.931   0.197 -3.1737 -0.0836 -2.2716
  634MOL0     H83669   5.649  10.846   0.323 -0.4856 -1.0223 -0.2509
  634MOL0     H83670   6.502  10.486   0.232 -1.3635 -0.0294  0.5138
  634MOL0     H83671   6.743  10.474   0.212 -1.5905  1.7176  2.4669
  634MOL0     H83672   7.189  10.492   0.376 -2.0053 -0.2670  0.1952
  634MOL0     H83673   7.429  10.429   0.417  0.6660  0.4161  0.5015
  634MOL0     H83674   9.285   9.908   0.197  3.8899  1.7551 -2.2143
  634MOL0     H83675   9.480   9.807   0.228 -3.5345 -1.5380 -0.2049
  634MOL0     H83676  10.000   9.991   0.200  2.3337 -3.2077 -3.2233
  634MOL0     H83677  10.222   9.934   0.257 -2.6833  4.2376 -1.1829
  634MOL0     H83678  10.428   9.798   0.305  0.9165  0.1617  0.7955
  634MOL0     H83679  10.502   9.728   0.448 -1.1677 -0.3568  1.6367
  634MOL0     H83680  10.358   9.998   0.456  2.5976  4.4568  0.8907
  634MOL0     H83681  10.467   9.922   0.575  0.7610  2.4748  0.8268
  634MOL0     H83682  10.567  10.118   0.446 -1.2164  0.4880 -0.3929
  634MOL0     H83683  10.544  10.025   0.297  1.2248  2.3979  0.1768
  634MOL0     H83684  10.711   9.899   0.525 -0.7510 -0.9648  0.7165
  634MOL0     H83685  10.717   9.877   0.354  1.2316  2.3946 -2.0680
  634MOL0     H83686  10.907  10.248   0.349  0.6016 -0.3140 -0.4017
  634MOL0     H83687  10.081   9.661   0.556 -0.0500  1.4623  1.0060
  634MOL0     H83688   9.856   9.747   0.524 -1.7073  2.4160 -0.5487
  635MOL0     O83689   3.100   3.974   1.129 -0.2480  0.3546 -0.3910
  635MOL0     C83690   3.081   3.850   1.126  0.1082  0.5182  0.3028
  635MOL0     O83691   2.953   3.786   1.118  0.0069 -0.1036  0.4418
  635MOL0     C83692   2.850   3.873   1.154 -0.0868  0.2250  1.0253
  635MOL0     C83693   2.849   3.956   1.263  0.3624 -0.2660  0.4842
  635MOL0     C83694   2.742   4.033   1.291  0.8295  0.7866 -1.4149
  635MOL0     C83695   2.618   4.012   1.216 -0.6823 -1.2723 -0.2101
  635MOL0     O83696   2.509   4.091   1.251 -1.0519 -0.3961  1.0852
  635MOL0     C83697   2.386   4.052   1.209  0.1368 -0.1150 -0.7010
  635MOL0     C83698   2.268   4.090   1.298  0.3426 -0.5828  0.1720
  635MOL0     C83699   2.134   4.032   1.266 -0.9279  0.0885 -0.1415
  635MOL0     C83700   2.014   4.098   1.334  0.2563 -0.0466 -0.1637
  635MOL0     C83701   1.880   4.035   1.285 -0.7924 -1.0529  0.5674
  635MOL0     C83702   1.749   4.120   1.329  0.4345  0.3305  0.1693
  635MOL0     C83703   1.726   4.252   1.261  0.2711 -0.2287 -0.4183
  635MOL0     C83704   1.579   4.309   1.293 -0.7858 -0.9282 -0.1996
  635MOL0     N83705   1.571   4.399   1.411  0.3060  0.1363  0.6101
  635MOL0     C83706   1.613   4.373   1.539 -0.7949  0.0249 -0.4050
  635MOL0     C83707   1.591   4.479   1.609 -0.1071  0.3119 -1.1084
  635MOL0     C83708   1.614   4.497   1.757 -0.1392  0.3128  0.1703
  635MOL0     C83709   1.495   4.461   1.844  0.0188 -0.7558  0.4256
  635MOL0     C83710   1.522   4.409   1.984 -0.0070  0.0247 -0.9248
  635MOL0     C83711   1.384   4.378   2.051  0.5929 -0.1168  0.0035
  635MOL0     O83712   1.356   4.244   2.021  0.6421  0.2651 -0.3751
  635MOL0     C83713   1.224   4.206   2.011 -0.2649 -0.8654  0.8492
  635MOL0     C83714   1.182   4.131   1.896  0.4193  0.3492  0.2086
  635MOL0     C83715   1.050   4.081   1.880 -0.8001 -0.6180 -0.4358
  635MOL0     C83716   0.954   4.111   1.983 -0.5880  0.2705 -1.0719
  635MOL0     C83717   0.812   4.073   1.970 -0.0292 -0.0558 -1.0781
  635MOL0     O83718   0.729   4.090   2.082 -0.3210  0.0554  0.1248
  635MOL0     C83719   0.591   4.060   2.066 -0.7852 -0.7329 -0.0286
  635MOL0     C83720   0.490   4.145   2.028 -0.5928 -0.2702 -0.5858
  635MOL0     C83721   0.363   4.086   2.019  1.1797 -0.2936 -0.0768
  635MOL0     C83722   0.333   3.951   2.040  0.4300  0.5198  0.0717
  635MOL0     O83723   0.217   3.887   2.008  0.1094 -0.2203  0.1166
  635MOL0     C83724   0.099   3.966   1.978 -0.1825  0.6548  0.2328
  635MOL0     C83725   0.057   4.043   2.105 -0.0953 -0.1888  0.1000
  635MOL0     C83726  -0.093   4.068   2.096  0.2526  0.6857  0.0830
  635MOL0     C83727  -0.156   4.182   2.176 -0.3795  0.3528 -0.1618
  635MOL0     C83728  -0.310   4.178   2.208  0.5191 -0.6197  0.7821
  635MOL0     C83729  -0.362   4.037   2.235 -0.0086 -0.0995 -0.5319
  635MOL0     C83730  -0.518   4.046   2.257  0.3939 -0.3983  1.0230
  635MOL0     C83731  -0.595   3.941   2.178  0.3099  0.2406 -0.2789
  635MOL0    Cl83732  -0.567   3.962   2.002  0.3828  0.4020  0.0155
  635MOL0     C83733   0.434   3.873   2.090 -0.1829 -0.7526 -0.4838
  635MOL0     C83734   0.567   3.929   2.111 -0.0296  0.5785  0.8058
  635MOL0     O83735   0.775   4.047   1.858  0.1321  0.2384  0.3246
  635MOL0     C83736   0.997   4.182   2.101  0.1420 -0.4251  0.2544
  635MOL0     C83737   1.136   4.221   2.112 -0.0973  0.1189  1.1530
  635MOL0     N83738   1.535   4.577   1.528  0.0692 -0.0542 -0.3801
  635MOL0     N83739   1.526   4.534   1.403 -0.4796  0.5058  0.9611
  635MOL0     C83740   2.621   3.923   1.110  0.2382  0.1871  1.3394
  635MOL0     C83741   2.738   3.862   1.072 -0.0746 -0.1944 -0.4100
  635MOL0     C83742   3.203   3.761   1.133 -0.0738 -0.0620  0.7432
  635MOL0     C83743   3.327   3.820   1.150 -0.4441  0.1526  0.0969
  635MOL0     C83744   3.448   3.749   1.155  1.0545  0.1992 -0.3606
  635MOL0     C83745   3.451   3.615   1.126 -0.0144  0.1946 -0.1804
  635MOL0     O83746   3.573   3.566   1.141 -0.4170 -0.6445 -0.4557
  635MOL0     C83747   3.584   3.429   1.163 -0.0021  0.7549  0.1061
  635MOL0     C83748   3.704   3.390   1.254  0.3430 -0.8254 -0.9524
  635MOL0     C83749   3.835   3.355   1.180  1.5339 -0.1075  0.3717
  635MOL0     C83750   3.940   3.472   1.153 -0.0098  0.2652  0.1863
  635MOL0     C83751   3.989   3.513   1.283  0.2538  0.3414 -0.9913
  635MOL0     C83752   4.031   3.531   1.395  0.0134  0.9036  0.1101
  635MOL0     C83753   3.331   3.547   1.089  0.2118  0.4339  0.0778
  635MOL0     C83754   3.207   3.623   1.096 -0.1046  0.7311  0.5940
  635MOL0     H83755   2.936   3.948   1.327 -0.7891 -0.5235  2.0726
  635MOL0     H83756   2.748   4.107   1.371  4.8643 -1.8408  1.1175
  635MOL0     H83757   2.389   3.943   1.203  2.6647 -0.2111  0.7040
  635MOL0     H83758   2.372   4.077   1.104 -3.3575  0.3032 -0.2415
  635MOL0     H83759   2.257   4.198   1.304 -2.1094 -0.8282  1.3619
  635MOL0     H83760   2.287   4.065   1.403  1.8501  2.9882  0.8779
  635MOL0     H83761   2.140   3.933   1.312 -0.5037 -1.2262 -2.8559
  635MOL0     H83762   2.118   4.023   1.158  0.3079  0.4639 -0.3705
  635MOL0     H83763   2.026   4.083   1.442 -1.5648  3.2867  0.6231
  635MOL0     H83764   2.015   4.206   1.316  0.5707  0.4554  2.4403
  635MOL0     H83765   1.881   3.930   1.315  2.1139 -0.5782  2.6016
  635MOL0     H83766   1.884   4.035   1.175 -2.2737  0.2084  0.4934
  635MOL0     H83767   1.746   4.145   1.436  1.9299  2.2289 -0.1678
  635MOL0     H83768   1.655   4.067   1.312  0.5972  0.4511 -1.2336
  635MOL0     H83769   1.801   4.330   1.275  1.2179 -1.0451 -0.7538
  635MOL0     H83770   1.743   4.246   1.153  0.4095  3.5449 -0.7147
  635MOL0     H83771   1.520   4.220   1.320 -3.5021  1.3743  2.0950
  635MOL0     H83772   1.531   4.358   1.208  0.3573  1.8579  0.6543
  635MOL0     H83773   1.665   4.285   1.577 -3.5964 -1.6467 -0.1659
  635MOL0     H83774   1.634   4.604   1.767 -3.1548  0.9277  0.4015
  635MOL0     H83775   1.699   4.438   1.793 -1.6172 -1.6763  0.6054
  635MOL0     H83776   1.426   4.384   1.808  0.1009 -0.6211 -0.0250
  635MOL0     H83777   1.436   4.551   1.861  1.2627 -0.0487  1.1087
  635MOL0     H83778   1.593   4.327   1.968  0.5630  0.7342 -2.2277
  635MOL0     H83779   1.572   4.481   2.049 -2.8386  1.5102 -0.2057
  635MOL0     H83780   1.302   4.444   2.022 -1.9695 -2.4111  1.5004
  635MOL0     H83781   1.391   4.389   2.160  2.7438  1.0952 -0.1872
  635MOL0     H83782   1.253   4.109   1.817 -0.9712 -1.8331 -0.5342
  635MOL0     H83783   1.028   4.018   1.794  3.4989 -1.1751 -1.3473
  635MOL0     H83784   0.512   4.247   2.001 -2.9451  0.4254 -0.1266
  635MOL0     H83785   0.278   4.138   1.977 -1.9517 -3.0041  2.4656
  635MOL0     H83786   0.022   3.898   1.940  1.9279 -0.5148 -2.2129
  635MOL0     H83787   0.120   4.037   1.896  3.9028 -0.1549  0.3856
  635MOL0     H83788   0.119   4.133   2.109  2.3201 -1.7865  0.2853
  635MOL0     H83789   0.067   3.987   2.198 -1.2199  0.5334  0.6820
  635MOL0     H83790  -0.135   3.972   2.127  2.9292 -0.4372  0.4397
  635MOL0     H83791  -0.116   4.099   1.993 -1.4753  1.7751  0.7555
  635MOL0     H83792  -0.125   4.179   2.281 -2.7584  1.6653  0.6504
  635MOL0     H83793  -0.123   4.281   2.142  3.5957 -0.6295  0.2567
  635MOL0     H83794  -0.345   4.219   2.112  0.9467 -1.0929  0.4171
  635MOL0     H83795  -0.339   4.242   2.292 -4.8074  0.0417 -1.1928
  635MOL0     H83796  -0.318   4.000   2.328  0.0162  1.2053  0.0009
  635MOL0     H83797  -0.338   3.969   2.153 -1.4445  2.5195 -3.3000
  635MOL0     H83798  -0.547   4.028   2.361 -0.4449 -0.8065  0.7274
  635MOL0     H83799  -0.570   4.141   2.242 -1.5471 -0.8148  4.2146
  635MOL0     H83800  -0.696   3.918   2.212  0.0926  1.2290 -0.2478
  635MOL0     H83801  -0.548   3.843   2.195  1.7403  1.2487  2.2553
  635MOL0     H83802   0.418   3.766   2.101  1.8231 -0.9806  0.7148
  635MOL0     H83803   0.646   3.862   2.145  0.3029  2.0914  3.2660
  635MOL0     H83804   0.929   4.193   2.185 -0.8074 -1.2941 -0.3774
  635MOL0     H83805   1.179   4.261   2.204 -0.7512  2.4246  0.5407
  635MOL0     H83806   2.532   3.906   1.050 -0.2554 -1.2880  2.4308
  635MOL0     H83807   2.738   3.805   0.979  1.5752 -0.3282 -0.3664
  635MOL0     H83808   3.341   3.927   1.164 -1.8261  0.3007  0.4191
  635MOL0     H83809   3.539   3.803   1.178  0.2238  1.3408  0.3551
  635MOL0     H83810   3.600   3.382   1.066 -0.3555 -2.2403  1.3818
  635MOL0     H83811   3.490   3.383   1.194 -0.0339  0.7200 -0.0422
  635MOL0     H83812   3.718   3.469   1.328  3.1570 -1.0500 -1.1168
  635MOL0     H83813   3.664   3.303   1.308  1.6435 -0.6125  0.4067
  635MOL0     H83814   3.812   3.305   1.086  1.4388 -1.7796  1.2383
  635MOL0     H83815   3.882   3.275   1.238 -1.8990 -2.3759  0.3462
  635MOL0     H83816   4.013   3.438   1.080 -0.2912 -1.5017  0.6802
  635MOL0     H83817   3.891   3.563   1.115  2.3093  1.6762  0.4173
  635MOL0     H83818   4.080   3.549   1.488  0.8353  0.1690 -0.1630
  635MOL0     H83819   3.322   3.442   1.063 -1.5946  0.8768 -1.2503
  635MOL0     H83820   3.108   3.581   1.077  0.1630  1.1435 -2.1506
  636MOL0     O83821  11.178   7.842   2.001  0.3199 -0.8609 -0.3417
  636MOL0     C83822  11.228   7.765   1.924  0.3995 -0.3504  0.2022
  636MOL0     O83823  11.175   7.650   1.881 -0.3513 -0.3080 -0.4240
  636MOL0     C83824  11.117   7.562   1.976 -0.4665  0.0197  0.4807
  636MOL0     C83825  10.975   7.569   2.004  0.1351  0.5705  0.1808
  636MOL0     C83826  10.927   7.487   2.112 -0.3360  0.1872  0.4557
  636MOL0     C83827  11.003   7.398   2.174  0.5133  0.0231  0.4827
  636MOL0     O83828  10.939   7.317   2.271  0.0986 -0.4557  0.7607
  636MOL0     C83829  10.993   7.215   2.352 -0.4892 -0.0045 -0.4525
  636MOL0     C83830  10.894   7.156   2.456 -0.5827  0.1920 -0.3462
  636MOL0     C83831  10.810   7.263   2.533  0.5513 -0.7012  0.7003
  636MOL0     C83832  10.727   7.193   2.637  0.1023 -0.7002 -0.4362
  636MOL0     C83833  10.665   7.292   2.731  0.5612 -0.1263  0.0503
  636MOL0     C83834  10.568   7.392   2.663  0.5810  0.7867  0.0904
  636MOL0     C83835  10.512   7.494   2.761 -0.2110  0.2680  0.1624
  636MOL0     C83836  10.415   7.432   2.859  0.1096  0.5959  0.3283
  636MOL0     N83837  10.309   7.365   2.783 -0.1461 -0.2979 -0.8233
  636MOL0     C83838  10.292   7.238   2.781 -0.1784 -0.9412  0.1078
  636MOL0     C83839  10.177   7.222   2.711 -0.0182  0.1407 -0.3013
  636MOL0     C83840  10.102   7.094   2.675 -0.1742  0.6374  0.2189
  636MOL0     C83841  10.054   7.013   2.800  0.6662 -0.4522 -0.5988
  636MOL0     C83842   9.968   7.100   2.890  0.2004  0.4374  0.2887
  636MOL0     C83843   9.836   7.041   2.965 -0.4533  0.3183  0.1865
  636MOL0     O83844   9.771   6.954   2.870  0.1110 -0.4335  0.3663
  636MOL0     C83845   9.647   6.904   2.883 -0.2319  0.8352 -0.3713
  636MOL0     C83846   9.629   6.787   2.813  0.1243 -0.6220  0.7226
  636MOL0     C83847   9.516   6.705   2.836  0.3849 -0.1397 -0.1542
  636MOL0     C83848   9.409   6.741   2.926 -0.5397  0.2494  0.5821
  636MOL0     C83849   9.282   6.671   2.943  0.5322  0.9596 -0.7619
  636MOL0     O83850   9.199   6.722   3.026  0.2080 -0.2929  0.1403
  636MOL0     C83851   9.066   6.682   3.049 -0.0625 -1.4127  0.5286
  636MOL0     C83852   8.987   6.599   2.970  0.3413  0.2608 -0.5839
  636MOL0     C83853   8.853   6.570   3.016 -0.7311  0.2960 -0.8802
  636MOL0     C83854   8.794   6.630   3.128 -0.4981 -0.5938  0.3343
  636MOL0     O83855   8.659   6.604   3.167  0.5376 -0.7422 -0.1565
  636MOL0     C83856   8.585   6.486   3.130  0.2707  0.5528 -0.3171
  636MOL0     C83857   8.439   6.517   3.170 -0.2839 -0.4024  0.1667
  636MOL0     C83858   8.359   6.397   3.206  0.6204  0.4802  0.1113
  636MOL0     C83859   8.314   6.296   3.095  0.0754 -0.4993 -0.3463
  636MOL0     C83860   8.212   6.194   3.147  0.6106  1.2137 -0.2658
  636MOL0     C83861   8.164   6.087   3.040 -0.3482 -0.3665  0.4251
  636MOL0     C83862   8.093   6.146   2.926 -0.3740  0.2920  0.0846
  636MOL0     C83863   8.033   6.030   2.843 -0.6126 -1.1144 -0.0552
  636MOL0    Cl83864   8.161   5.911   2.764 -0.2116  0.5246  0.3584
  636MOL0     C83865   8.875   6.718   3.201  0.2178 -0.1599 -0.3330
  636MOL0     C83866   9.006   6.739   3.169 -0.2785  0.3653  0.5556
  636MOL0     O83867   9.251   6.576   2.867  0.4973  0.0594 -0.0506
  636MOL0     C83868   9.428   6.871   2.984  0.3941  0.5546  0.5680
  636MOL0     C83869   9.542   6.953   2.959 -0.8845 -0.3318 -0.0513
  636MOL0     N83870  10.132   7.350   2.668 -0.3841  0.2138  0.0207
  636MOL0     N83871  10.221   7.436   2.723 -0.7757  0.3811  0.0986
  636MOL0     C83872  11.144   7.387   2.145  0.0209  0.3609  0.9938
  636MOL0     C83873  11.201   7.474   2.044  0.2956 -0.2688  0.1239
  636MOL0     C83874  11.364   7.809   1.871  0.1873  0.5119  0.2567
  636MOL0     C83875  11.435   7.729   1.795  0.2665  0.1991  0.8537
  636MOL0     C83876  11.569   7.749   1.765  0.6575 -0.4152  0.5760
  636MOL0     C83877  11.632   7.861   1.800  0.0717 -0.1102  0.3088
  636MOL0     O83878  11.771   7.868   1.790  0.1248  0.3312 -0.4618
  636MOL0     C83879  11.843   7.994   1.785  0.4027  0.9738 -0.2099
  636MOL0     C83880  11.959   7.981   1.683 -0.3460  0.6998 -0.1843
  636MOL0     C83881  12.018   8.106   1.632 -0.2288  0.5445  0.0698
  636MOL0     C83882  12.126   8.067   1.534  0.2870 -0.9872  0.5510
  636MOL0     C83883  12.202   8.185   1.502  0.3004  0.5926  0.7142
  636MOL0     C83884  12.272   8.280   1.483 -0.0065  0.5603  0.0215
  636MOL0     C83885  11.557   7.957   1.867  0.2008 -0.6656  0.1280
  636MOL0     C83886  11.421   7.932   1.897  0.0843 -0.8308  0.1331
  636MOL0     H83887  10.914   7.642   1.952 -1.0110 -1.3852 -1.3566
  636MOL0     H83888  10.830   7.505   2.158  0.5702  4.0210  1.1908
  636MOL0     H83889  11.080   7.266   2.395 -1.2476 -0.5372  1.8321
  636MOL0     H83890  11.037   7.133   2.294 -1.0889 -0.0752 -0.8126
  636MOL0     H83891  10.950   7.091   2.524  0.5152  2.0075  0.5266
  636MOL0     H83892  10.833   7.084   2.400  0.4222 -0.1450 -1.0400
  636MOL0     H83893  10.755   7.322   2.460 -0.4979 -0.0326  1.9851
  636MOL0     H83894  10.883   7.321   2.589  1.2463 -1.5367  0.6818
  636MOL0     H83895  10.649   7.130   2.593 -1.3337  0.3203  0.5767
  636MOL0     H83896  10.786   7.119   2.690 -0.8960 -1.3873 -0.2547
  636MOL0     H83897  10.741   7.352   2.782  0.0628  1.0860 -0.5932
  636MOL0     H83898  10.604   7.233   2.800  1.3531 -2.2074 -0.9428
  636MOL0     H83899  10.499   7.327   2.608  3.5089 -0.8273 -1.9334
  636MOL0     H83900  10.618   7.458   2.592  0.7523  1.8475  1.1579
  636MOL0     H83901  10.602   7.540   2.802 -0.5145  0.6507  0.4039
  636MOL0     H83902  10.458   7.567   2.700 -0.7443 -0.6501 -0.4910
  636MOL0     H83903  10.376   7.515   2.919 -1.5219  0.0479  0.0830
  636MOL0     H83904  10.464   7.367   2.930  0.9622 -1.3932 -1.9551
  636MOL0     H83905  10.350   7.160   2.831  0.6825  2.3033  4.7866
  636MOL0     H83906  10.157   7.028   2.607 -0.0887  1.1673 -0.2380
  636MOL0     H83907  10.014   7.124   2.617 -0.3537  0.1134  0.2102
  636MOL0     H83908  10.147   6.981   2.849 -0.2773 -3.3866 -0.5261
  636MOL0     H83909  10.009   6.918   2.768  3.1898 -2.5321  1.5219
  636MOL0     H83910  10.039   7.135   2.965  2.2982  0.8610 -1.7448
  636MOL0     H83911   9.920   7.181   2.834 -1.6504 -2.1396 -2.1960
  636MOL0     H83912   9.777   7.127   2.998  0.1662  0.6031  0.5758
  636MOL0     H83913   9.853   6.977   3.053  0.0988  0.5887  0.2805
  636MOL0     H83914   9.717   6.759   2.755 -1.2555 -1.8186 -0.8843
  636MOL0     H83915   9.518   6.612   2.781 -2.1313 -0.2871 -0.0882
  636MOL0     H83916   9.019   6.557   2.875 -0.7590  0.0315 -0.8597
  636MOL0     H83917   8.789   6.503   2.958 -1.5001  0.7442 -0.5537
  636MOL0     H83918   8.629   6.398   3.177  0.4634  3.1668  5.1840
  636MOL0     H83919   8.585   6.464   3.023  0.5278 -2.2116  0.1970
  636MOL0     H83920   8.376   6.573   3.101 -1.1864  0.5178  1.6923
  636MOL0     H83921   8.441   6.570   3.265 -1.7939  0.5742 -0.3210
  636MOL0     H83922   8.264   6.431   3.249 -0.2458  1.3014 -2.2503
  636MOL0     H83923   8.417   6.354   3.288  0.0301  0.3218  0.4500
  636MOL0     H83924   8.262   6.347   3.014  2.6769  1.2167 -1.0675
  636MOL0     H83925   8.406   6.247   3.060  0.7681  0.5755 -0.0947
  636MOL0     H83926   8.120   6.247   3.172  1.0545  1.2275  1.5400
  636MOL0     H83927   8.253   6.145   3.236  1.5987 -0.5997 -1.6473
  636MOL0     H83928   8.101   6.018   3.097  0.3191 -2.4463 -1.2659
  636MOL0     H83929   8.249   6.030   3.001 -1.4637 -1.1691 -0.9255
  636MOL0     H83930   8.006   6.201   2.963 -1.4509 -0.1318 -1.6838
  636MOL0     H83931   8.164   6.214   2.876  2.9223 -2.4093  0.7489
  636MOL0     H83932   7.979   6.085   2.765  0.8460  1.0925  0.3834
  636MOL0     H83933   7.964   5.976   2.908  0.2475 -2.4174 -0.1741
  636MOL0     H83934   8.836   6.757   3.294 -0.5484  1.7660 -1.4027
  636MOL0     H83935   9.075   6.803   3.223 -0.2688  1.9211 -1.2267
  636MOL0     H83936   9.342   6.903   3.042  0.1304 -0.6307  0.8366
  636MOL0     H83937   9.557   7.049   3.007  1.0219  0.2617 -1.6919
  636MOL0     H83938  11.209   7.312   2.188  1.8492 -0.4459 -2.7952
  636MOL0     H83939  11.307   7.467   2.023  1.3004  0.8547  3.9379
  636MOL0     H83940  11.390   7.635   1.764 -0.8489  2.5176 -6.2656
  636MOL0     H83941  11.622   7.674   1.706 -0.5473 -0.8749  0.0382
  636MOL0     H83942  11.875   8.032   1.882 -2.0563  1.9787  0.2913
  636MOL0     H83943  11.768   8.070   1.761 -1.9235 -0.4083  2.0907
  636MOL0     H83944  12.033   7.934   1.748 -0.8668  1.6773  1.1839
  636MOL0     H83945  11.929   7.923   1.596  2.0154 -1.6114  0.4154
  636MOL0     H83946  12.059   8.151   1.723 -1.2431 -1.3998  1.5677
  636MOL0     H83947  11.940   8.171   1.591 -0.0707  0.6669 -0.0392
  636MOL0     H83948  12.197   7.994   1.573  0.1555 -2.2184 -1.3617
  636MOL0     H83949  12.090   8.011   1.447  1.2318 -1.5249  0.4945
  636MOL0     H83950  12.348   8.354   1.469 -0.0491  0.3293 -1.7030
  636MOL0     H83951  11.598   8.053   1.897 -1.6368  0.1063  0.3266
  636MOL0     H83952  11.369   8.017   1.941 -0.3856  0.0594 -1.9819
  637MOL0     O83953   6.290   7.131   6.122  0.8489  0.5761  0.3201
  637MOL0     C83954   6.366   7.091   6.031 -0.1759 -0.6441  0.3356
  637MOL0     O83955   6.330   7.067   5.905  0.0756 -0.4940  0.4603
  637MOL0     C83956   6.201   7.071   5.853 -1.1467 -0.6630 -1.2781
  637MOL0     C83957   6.084   7.101   5.922 -0.8036 -0.3847  0.0474
  637MOL0     C83958   5.959   7.107   5.865  0.5598 -0.1288 -0.0230
  637MOL0     C83959   5.949   7.076   5.725 -0.4716  0.0785 -0.1089
  637MOL0     O83960   5.829   7.067   5.657  0.8876  0.3296 -0.0548
  637MOL0     C83961   5.706   7.101   5.733  0.0462 -0.3679  0.6863
  637MOL0     C83962   5.574   7.084   5.654 -0.0493 -0.2064 -0.3131
  637MOL0     C83963   5.591   7.089   5.507 -0.6097  0.6916 -0.6797
  637MOL0     C83964   5.465   7.127   5.428 -0.1356 -0.5560 -0.9798
  637MOL0     C83965   5.461   7.081   5.284 -0.1238  0.7771  0.0825
  637MOL0     C83966   5.328   7.047   5.215  0.9209  0.7540 -0.8056
  637MOL0     C83967   5.345   7.048   5.064  0.6253 -0.7044 -0.6511
  637MOL0     C83968   5.215   6.977   5.009 -0.7451 -0.1005 -0.1208
  637MOL0     N83969   5.086   7.038   5.037 -0.0716  0.7007 -0.0965
  637MOL0     C83970   5.008   7.002   5.145  0.7917 -0.5543  0.1559
  637MOL0     C83971   4.901   7.094   5.133  0.3939  0.3347  0.7309
  637MOL0     C83972   4.799   7.111   5.232 -0.1799  0.2944 -0.2407
  637MOL0     C83973   4.704   6.988   5.257  0.8919 -0.1041  0.0169
  637MOL0     C83974   4.598   7.034   5.366 -0.6206  0.2469 -0.6384
  637MOL0     C83975   4.484   6.923   5.366  1.0434 -0.3383 -0.1340
  637MOL0     O83976   4.414   6.934   5.488  0.1752  0.4698 -0.6733
  637MOL0     C83977   4.292   6.871   5.504 -0.8101 -0.4453 -0.2741
  637MOL0     C83978   4.223   6.816   5.396  0.0730  0.0619  0.3901
  637MOL0     C83979   4.088   6.790   5.409 -0.0392  0.2892 -0.0571
  637MOL0     C83980   4.023   6.801   5.539  0.0816  0.2775 -0.6620
  637MOL0     C83981   3.878   6.768   5.542 -0.3271 -0.6645 -0.6830
  637MOL0     O83982   3.813   6.782   5.429 -0.3712 -0.4516  0.1526
  637MOL0     C83983   3.676   6.783   5.413  0.1641  0.8457  0.7879
  637MOL0     C83984   3.643   6.779   5.277  0.8805 -0.0768 -0.7413
  637MOL0     C83985   3.506   6.751   5.243  0.2449 -0.0197 -0.6447
  637MOL0     C83986   3.405   6.745   5.341 -0.1197 -0.8149  0.8017
  637MOL0     O83987   3.270   6.715   5.305 -0.3479 -0.1209 -0.2603
  637MOL0     C83988   3.240   6.716   5.168 -0.2236 -0.2522  0.1259
  637MOL0     C83989   3.095   6.703   5.164  0.3378 -0.8028 -0.8679
  637MOL0     C83990   3.031   6.815   5.264  0.4999  0.5319  0.7145
  637MOL0     C83991   2.883   6.816   5.264 -0.1009 -0.5561 -0.0927
  637MOL0     C83992   2.813   6.943   5.327 -0.5678  0.7277  0.2325
  637MOL0     C83993   2.858   6.960   5.480  0.2350  0.0589 -0.4377
  637MOL0     C83994   2.765   7.045   5.573  0.2862  0.0297 -0.2733
  637MOL0     C83995   2.755   7.189   5.552  0.3068 -0.0908  0.3401
  637MOL0    Cl83996   2.925   7.253   5.534 -0.1465 -0.0940 -0.7044
  637MOL0     C83997   3.439   6.768   5.472  0.6763  0.4605 -0.4696
  637MOL0     C83998   3.577   6.793   5.503  0.0620  1.1596 -0.3696
  637MOL0     O83999   3.829   6.743   5.654  0.0613 -0.4788  0.0243
  637MOL0     C84000   4.098   6.846   5.650 -0.7658 -0.0106  0.3942
  637MOL0     C84001   4.234   6.889   5.627 -0.5044 -0.1478  0.3561
  637MOL0     N84002   4.912   7.161   5.009 -0.1504  0.5529 -0.0366
  637MOL0     N84003   5.026   7.120   4.953 -0.1085 -0.0375 -0.2171
  637MOL0     C84004   6.064   7.037   5.664 -0.4931 -0.3676  1.1385
  637MOL0     C84005   6.192   7.042   5.725  0.1604 -0.4344  0.3735
  637MOL0     C84006   6.511   7.084   6.074 -0.5058  0.8226  0.0135
  637MOL0     C84007   6.602   7.096   5.964 -0.0026  0.3181  0.3804
  637MOL0     C84008   6.737   7.085   6.002  0.3031 -0.1045  1.1686
  637MOL0     C84009   6.784   7.078   6.134 -0.7329 -1.2679 -1.2345
  637MOL0     O84010   6.922   7.112   6.153  0.6889 -0.1557 -0.3600
  637MOL0     C84011   6.957   7.197   6.264 -0.0748 -0.5792 -0.7968
  637MOL0     C84012   6.997   7.120   6.384  0.3211 -0.0091 -0.5157
  637MOL0     C84013   7.136   7.071   6.386 -0.0871 -0.3678  0.0638
  637MOL0     C84014   7.154   6.952   6.300  0.5996  0.6061  0.6524
  637MOL0     C84015   7.285   6.893   6.297 -1.3344  0.1246 -1.1334
  637MOL0     C84016   7.396   6.845   6.302 -0.3243 -0.2545  0.1619
  637MOL0     C84017   6.685   7.089   6.236 -0.3145 -0.3639  0.3974
  637MOL0     C84018   6.549   7.085   6.206 -0.3839 -0.4031 -0.0953
  637MOL0     H84019   6.094   7.137   6.024  0.7959 -2.1459  0.5645
  637MOL0     H84020   5.868   7.141   5.914 -1.6956 -2.1366 -2.5431
  637MOL0     H84021   5.721   7.203   5.770  0.3667  0.0407 -0.5348
  637MOL0     H84022   5.692   7.046   5.827  0.6735 -0.2543  0.8508
  637MOL0     H84023   5.517   7.169   5.691  0.4029 -1.1379  2.8100
  637MOL0     H84024   5.530   6.991   5.691  0.0773 -0.1761 -0.0843
  637MOL0     H84025   5.623   6.989   5.477 -0.0871  0.4912  0.5177
  637MOL0     H84026   5.672   7.159   5.485  2.0632 -1.7077  0.8583
  637MOL0     H84027   5.395   7.073   5.493  1.2246 -2.0688 -0.7131
  637MOL0     H84028   5.452   7.235   5.421  1.5090 -0.3196 -0.7164
  637MOL0     H84029   5.512   6.985   5.274 -0.4267  0.7050 -0.8615
  637MOL0     H84030   5.528   7.154   5.236  0.3302  1.1143  1.1939
  637MOL0     H84031   5.255   7.125   5.239  2.3790  2.0243 -0.2897
  637MOL0     H84032   5.299   6.951   5.257 -1.5048  0.9184 -1.9379
  637MOL0     H84033   5.351   7.146   5.015 -1.0310 -0.4230 -0.3468
  637MOL0     H84034   5.431   6.988   5.033  0.8382  0.5815 -2.7522
  637MOL0     H84035   5.220   6.874   5.043  0.4046 -0.1736 -0.4746
  637MOL0     H84036   5.226   6.986   4.900 -1.6491  0.1405 -0.2003
  637MOL0     H84037   5.019   6.931   5.226  0.2789  1.3592  1.9826
  637MOL0     H84038   4.739   7.196   5.198 -0.6704  0.4723  1.0109
  637MOL0     H84039   4.845   7.135   5.329  1.1797 -1.8256 -0.2990
  637MOL0     H84040   4.765   6.914   5.309  0.6799  2.1196  3.8306
  637MOL0     H84041   4.657   6.955   5.165  1.0147 -0.8208  0.2037
  637MOL0     H84042   4.642   7.039   5.467 -0.9357  2.5661 -0.5756
  637MOL0     H84043   4.560   7.136   5.356 -1.1519  0.4161  2.1214
  637MOL0     H84044   4.525   6.823   5.349  0.2977 -1.3279  3.1650
  637MOL0     H84045   4.417   6.942   5.281  1.5670 -0.7875 -0.6596
  637MOL0     H84046   4.279   6.791   5.306 -0.5682 -1.0477  0.2798
  637MOL0     H84047   4.035   6.769   5.316 -1.8474 -2.7760  1.5172
  637MOL0     H84048   3.720   6.778   5.200  0.4323 -3.7529 -1.3312
  637MOL0     H84049   3.472   6.735   5.142  0.7424 -2.1879 -0.5053
  637MOL0     H84050   3.276   6.628   5.114 -1.7877 -0.3888 -0.7706
  637MOL0     H84051   3.262   6.809   5.115 -1.0696 -0.4328 -0.5697
  637MOL0     H84052   3.064   6.603   5.194  1.4645 -0.4820  1.6494
  637MOL0     H84053   3.063   6.726   5.062  0.5020  3.5534 -0.1575
  637MOL0     H84054   3.065   6.916   5.241 -1.4541  1.3757  1.3071
  637MOL0     H84055   3.056   6.795   5.369 -0.9892 -1.8896  0.6852
  637MOL0     H84056   2.845   6.822   5.162 -2.3996 -2.6919  0.5263
  637MOL0     H84057   2.844   6.722   5.305 -0.0824 -0.6571 -0.3063
  637MOL0     H84058   2.706   6.923   5.313 -0.2214 -0.4983 -0.8291
  637MOL0     H84059   2.841   7.033   5.271  0.1910  0.8985  0.8660
  637MOL0     H84060   2.958   7.004   5.469  0.6108 -1.2602 -3.6875
  637MOL0     H84061   2.869   6.859   5.520 -1.4597 -1.1860 -2.8353
  637MOL0     H84062   2.672   6.989   5.565  2.6247 -4.2473 -0.6754
  637MOL0     H84063   2.791   7.028   5.678  1.0452 -1.8506 -0.7150
  637MOL0     H84064   2.712   7.248   5.634 -0.3503 -0.6299  0.3961
  637MOL0     H84065   2.703   7.213   5.459 -4.4041 -2.3456  2.0742
  637MOL0     H84066   3.356   6.768   5.542  1.7642  1.6788  0.9193
  637MOL0     H84067   3.603   6.790   5.608 -0.1895  2.0341 -0.2780
  637MOL0     H84068   4.070   6.844   5.755  1.9472 -0.1977  1.2132
  637MOL0     H84069   4.289   6.943   5.704 -2.2431 -0.4994  1.9265
  637MOL0     H84070   6.044   7.020   5.558 -1.4102  0.7978  1.0989
  637MOL0     H84071   6.281   7.003   5.677 -2.6679 -5.2537 -1.6800
  637MOL0     H84072   6.557   7.108   5.865 -0.8929 -1.4139  0.5329
  637MOL0     H84073   6.805   7.096   5.918 -1.7764  2.2567 -0.3827
  637MOL0     H84074   6.877   7.262   6.302  0.9723  0.4325 -0.2761
  637MOL0     H84075   7.041   7.261   6.237 -1.0823  1.7294  1.1128
  637MOL0     H84076   6.984   7.190   6.467 -0.1568 -0.0564 -0.5482
  637MOL0     H84077   6.923   7.040   6.392  1.3615 -0.9099  0.4060
  637MOL0     H84078   7.162   7.032   6.484  3.6154  0.9606 -0.2479
  637MOL0     H84079   7.205   7.155   6.375  1.0954 -1.4136 -0.7123
  637MOL0     H84080   7.097   6.875   6.354  1.9240 -0.2833  0.8329
  637MOL0     H84081   7.119   6.985   6.202  0.6465 -0.6252  0.2015
  637MOL0     H84082   7.490   6.793   6.304  0.2318  0.3104 -3.6068
  637MOL0     H84083   6.720   7.113   6.336  1.7103  1.0360 -0.5685
  637MOL0     H84084   6.473   7.081   6.283 -0.3638 -0.4065 -0.0756
  638MOL0     O84085   5.802   3.025   3.611  0.3274  0.2744 -0.6436
  638MOL0     C84086   5.739   2.930   3.569 -0.3011  0.3032 -0.3050
  638MOL0     O84087   5.766   2.868   3.445  0.2295 -0.4747  0.0995
  638MOL0     C84088   5.886   2.873   3.380 -0.5054 -0.0364 -0.2052
  638MOL0     C84089   6.007   2.897   3.451  0.2999 -0.1792 -0.1372
  638MOL0     C84090   6.125   2.900   3.380 -0.3013 -0.4400  0.2428
  638MOL0     C84091   6.127   2.876   3.245 -1.1580 -0.6082  0.0672
  638MOL0     O84092   6.239   2.869   3.170 -0.0637  0.3531  0.0603
  638MOL0     C84093   6.373   2.897   3.224  1.0560  0.3138 -0.7934
  638MOL0     C84094   6.477   2.958   3.130  0.7381  0.0447  0.1704
  638MOL0     C84095   6.424   3.092   3.072  0.0693  1.2854  0.3549
  638MOL0     C84096   6.525   3.180   3.010 -0.0136 -0.2690  0.1689
  638MOL0     C84097   6.621   3.239   3.120 -0.6490 -0.0630  0.1301
  638MOL0     C84098   6.570   3.360   3.185 -0.2077 -0.0351 -0.3113
  638MOL0     C84099   6.681   3.430   3.275  0.6065 -0.0294  0.5973
  638MOL0     C84100   6.791   3.497   3.192 -0.4282  0.1671 -1.1305
  638MOL0     N84101   6.862   3.588   3.267  0.0513  0.4075  0.3267
  638MOL0     C84102   6.797   3.699   3.325  0.1099 -0.2865 -0.0254
  638MOL0     C84103   6.892   3.773   3.382  0.4609  0.2329 -0.1410
  638MOL0     C84104   6.883   3.898   3.462  0.0537  0.4843  0.3603
  638MOL0     C84105   6.736   3.951   3.476 -0.7855 -0.5542 -0.9492
  638MOL0     C84106   6.735   4.081   3.557  0.3974  0.0087  0.4080
  638MOL0     C84107   6.594   4.145   3.586  0.4441  0.7855  0.9889
  638MOL0     O84108   6.530   4.055   3.680 -0.1384 -0.2580  0.0636
  638MOL0     C84109   6.414   3.998   3.628  0.5406  0.5076 -0.4313
  638MOL0     C84110   6.311   4.071   3.553 -0.6355 -0.3105  0.6755
  638MOL0     C84111   6.197   3.997   3.510 -0.6623  0.7771  0.8931
  638MOL0     C84112   6.167   3.872   3.555  0.8657  0.1773 -0.3005
  638MOL0     C84113   6.050   3.791   3.523  0.3655  0.2770 -0.5215
  638MOL0     O84114   6.028   3.679   3.590  0.6801 -0.3699  0.0899
  638MOL0     C84115   5.893   3.622   3.578  0.0139 -0.5454  0.0151
  638MOL0     C84116   5.773   3.702   3.585 -1.4919 -0.5675  0.4045
  638MOL0     C84117   5.651   3.630   3.581  0.4004 -0.9201  0.0777
  638MOL0     C84118   5.641   3.491   3.565  0.2020  0.4153 -0.2263
  638MOL0     O84119   5.522   3.424   3.560  0.2822  0.6847  0.3848
  638MOL0     C84120   5.396   3.497   3.577 -0.0006  0.0119 -0.2947
  638MOL0     C84121   5.289   3.399   3.624  0.0852  0.7808 -0.5205
  638MOL0     C84122   5.265   3.282   3.527  1.4249  0.9213  0.0560
  638MOL0     C84123   5.357   3.157   3.537 -0.0868  0.3122 -0.7460
  638MOL0     C84124   5.315   3.040   3.438  0.1532  0.4217 -0.7718
  638MOL0     C84125   5.170   2.980   3.453  0.5053  0.2316  0.8771
  638MOL0     C84126   5.133   2.926   3.594 -0.0329 -0.3518 -0.4541
  638MOL0     C84127   4.985   2.930   3.612 -0.6076  0.0274  1.2216
  638MOL0    Cl84128   4.950   2.837   3.757  0.2032 -0.1146 -0.0177
  638MOL0     C84129   5.763   3.417   3.569  0.0289  0.4863 -0.5296
  638MOL0     C84130   5.889   3.482   3.578 -0.2756  0.9210  0.9399
  638MOL0     O84131   5.980   3.830   3.428 -0.4641  0.6780 -0.4391
  638MOL0     C84132   6.276   3.806   3.631  0.0220  0.0937  0.6221
  638MOL0     C84133   6.400   3.863   3.659 -0.3701 -0.4245  0.5867
  638MOL0     N84134   7.008   3.708   3.361 -0.4005  0.0181 -0.9607
  638MOL0     N84135   6.991   3.594   3.290  0.0128 -0.2085  0.1284
  638MOL0     C84136   6.004   2.840   3.175  0.8406  0.1247  0.1928
  638MOL0     C84137   5.882   2.839   3.247 -0.2586  1.1261 -0.3983
  638MOL0     C84138   5.633   2.870   3.660 -0.4154 -0.3661 -0.6323
  638MOL0     C84139   5.627   2.907   3.794 -0.0314  1.0479 -0.9083
  638MOL0     C84140   5.537   2.841   3.885  0.6476 -0.6392  0.4723
  638MOL0     C84141   5.454   2.735   3.837 -0.3331  0.9120 -0.2232
  638MOL0     O84142   5.357   2.678   3.917  0.0938 -0.5508  0.1923
  638MOL0     C84143   5.264   2.581   3.869  0.2059  0.2879  0.2237
  638MOL0     C84144   5.182   2.513   3.984 -1.5493 -0.1378  0.5369
  638MOL0     C84145   5.254   2.436   4.100  0.1374  1.0045  0.5638
  638MOL0     C84146   5.395   2.394   4.062  0.0208 -0.3391  0.1541
  638MOL0     C84147   5.459   2.334   4.177 -0.2148  0.3563  0.0825
  638MOL0     C84148   5.509   2.282   4.280  0.5013 -0.1509 -0.9783
  638MOL0     C84149   5.471   2.699   3.703  0.8268  1.0055  0.9860
  638MOL0     C84150   5.565   2.756   3.617  0.5247  1.2209  0.1312
  638MOL0     H84151   6.020   2.932   3.553  1.4556  1.3780 -0.7620
  638MOL0     H84152   6.214   2.938   3.430 -1.4449 -1.0143  2.8891
  638MOL0     H84153   6.405   2.806   3.275 -1.4531 -0.5561 -0.6638
  638MOL0     H84154   6.364   2.973   3.303  0.9995  0.0680 -0.5651
  638MOL0     H84155   6.501   2.899   3.042 -2.0819 -0.3231 -0.4568
  638MOL0     H84156   6.574   2.979   3.175  0.6991  2.9999 -0.8873
  638MOL0     H84157   6.381   3.153   3.152 -0.8396  1.4716 -0.2669
  638MOL0     H84158   6.341   3.067   3.005  1.3356 -0.6769 -0.5971
  638MOL0     H84159   6.587   3.121   2.942 -2.1240 -2.9741  0.3978
  638MOL0     H84160   6.475   3.254   2.946 -0.1369  0.9281  1.5881
  638MOL0     H84161   6.709   3.254   3.058 -0.4607 -2.5818 -0.3220
  638MOL0     H84162   6.652   3.164   3.194 -1.6912 -1.5470 -0.8777
  638MOL0     H84163   6.480   3.335   3.242 -0.5746  0.9325 -0.4581
  638MOL0     H84164   6.530   3.430   3.112  3.6127  1.6798 -0.9917
  638MOL0     H84165   6.621   3.498   3.336  0.6858 -0.2669  0.9428
  638MOL0     H84166   6.728   3.366   3.350  1.4941 -0.2688 -0.1320
  638MOL0     H84167   6.752   3.546   3.102 -2.1104  0.2448 -0.3988
  638MOL0     H84168   6.852   3.412   3.161  1.6082  1.4481 -0.7996
  638MOL0     H84169   6.693   3.731   3.330  0.5346  1.2343 -0.2407
  638MOL0     H84170   6.942   3.976   3.413  0.4668  1.0862  1.7761
  638MOL0     H84171   6.919   3.879   3.564 -1.4096 -5.6907  0.1475
  638MOL0     H84172   6.670   3.878   3.523  1.4590 -1.8177  0.4274
  638MOL0     H84173   6.698   3.967   3.375  0.0607  1.3708 -1.0231
  638MOL0     H84174   6.785   4.041   3.646  1.6212 -1.8789 -1.0280
  638MOL0     H84175   6.797   4.163   3.520  1.4290 -0.9780 -0.1251
  638MOL0     H84176   6.557   4.173   3.488  1.3872 -1.5152 -0.0945
  638MOL0     H84177   6.618   4.240   3.635  0.1415  0.2090  2.2927
  638MOL0     H84178   6.336   4.170   3.515 -1.8749  0.4177  1.6709
  638MOL0     H84179   6.143   4.034   3.424  0.7673  1.0241  0.0645
  638MOL0     H84180   5.767   3.809   3.598  2.5955 -0.0404 -0.6602
  638MOL0     H84181   5.561   3.691   3.580  0.2746 -1.1141 -0.7006
  638MOL0     H84182   5.355   3.552   3.492  0.1516 -1.6332 -1.4621
  638MOL0     H84183   5.412   3.569   3.658  2.7106 -2.2404  1.3228
  638MOL0     H84184   5.195   3.453   3.639 -1.6040 -2.6906  3.5195
  638MOL0     H84185   5.308   3.364   3.726 -1.6310  1.1137 -0.0554
  638MOL0     H84186   5.264   3.318   3.423  1.3372  1.4921  0.2487
  638MOL0     H84187   5.165   3.251   3.558  0.3896  1.0166 -2.8045
  638MOL0     H84188   5.460   3.188   3.513  0.2954  1.4288  2.0244
  638MOL0     H84189   5.365   3.131   3.642  0.0938 -1.0192 -1.0718
  638MOL0     H84190   5.392   2.965   3.460  0.3938  0.6123 -0.9616
  638MOL0     H84191   5.326   3.065   3.332  1.7202 -0.8937 -0.9746
  638MOL0     H84192   5.150   2.892   3.391  1.1491 -2.0316  3.6582
  638MOL0     H84193   5.109   3.066   3.426  2.9174  2.0955  1.0769
  638MOL0     H84194   5.169   2.823   3.606  1.0793  0.1990  1.2340
  638MOL0     H84195   5.179   2.983   3.675  0.2030  2.1723 -2.2612
  638MOL0     H84196   4.923   2.886   3.534  1.0698 -2.8937  1.3753
  638MOL0     H84197   4.971   3.038   3.616  1.3603  0.3095  1.8361
  638MOL0     H84198   5.748   3.309   3.568  0.8148  0.3029 -3.8436
  638MOL0     H84199   5.983   3.427   3.578 -0.8656 -0.1481 -0.3343
  638MOL0     H84200   6.281   3.702   3.658 -0.0458 -0.1065 -0.1135
  638MOL0     H84201   6.477   3.820   3.721 -0.7274  0.8514  1.9691
  638MOL0     H84202   6.010   2.810   3.071 -0.2501  1.8681 -0.4068
  638MOL0     H84203   5.786   2.816   3.202  2.2369 -2.6574 -4.6039
  638MOL0     H84204   5.696   2.986   3.825 -0.8345  2.6032 -2.8327
  638MOL0     H84205   5.536   2.882   3.985 -1.0733  2.5555 -0.7116
  638MOL0     H84206   5.309   2.494   3.819  1.0877 -0.5514  2.3469
  638MOL0     H84207   5.196   2.625   3.796  0.5826  2.2143  0.9734
  638MOL0     H84208   5.112   2.584   4.030  1.1009  0.9897  3.2087
  638MOL0     H84209   5.111   2.448   3.932  0.3013  0.0694 -2.4575
  638MOL0     H84210   5.195   2.355   4.143 -0.2100  0.2316 -1.2565
  638MOL0     H84211   5.271   2.510   4.179  0.8227  1.6629 -0.1684
  638MOL0     H84212   5.393   2.311   3.991 -1.7652  1.7890 -2.5000
  638MOL0     H84213   5.451   2.477   4.017 -0.0044 -1.8289 -2.8540
  638MOL0     H84214   5.547   2.242   4.371  1.9773 -1.0870 -1.9658
  638MOL0     H84215   5.420   2.615   3.656  2.9881 -0.4833  1.1652
  638MOL0     H84216   5.583   2.706   3.522  2.6350  0.2035  1.0222
  639MOL0     O84217   2.068   2.309   0.364  0.3902  0.3120  0.2384
  639MOL0     C84218   2.145   2.403   0.329  0.3260  0.1870 -0.3784
  639MOL0     O84219   2.120   2.531   0.376  0.6255  0.1865  0.1667
  639MOL0     C84220   1.999   2.569   0.424 -0.7356 -0.9253  0.4250
  639MOL0     C84221   2.007   2.635   0.549  0.3435  0.2260  0.5447
  639MOL0     C84222   1.893   2.689   0.609 -0.9002  0.0522 -0.0922
  639MOL0     C84223   1.774   2.682   0.547 -1.1474  0.6036 -0.0103
  639MOL0     O84224   1.675   2.752   0.608  0.6494 -0.5722  0.0057
  639MOL0     C84225   1.543   2.726   0.555 -0.1304 -0.3833  0.4890
  639MOL0     C84226   1.444   2.767   0.667 -0.2764 -0.0124 -0.5589
  639MOL0     C84227   1.293   2.751   0.626 -0.4845  0.3806 -0.3360
  639MOL0     C84228   1.264   2.846   0.505  0.0743  0.0603  0.7787
  639MOL0     C84229   1.122   2.850   0.445  0.2725  1.1313 -0.4544
  639MOL0     C84230   1.062   2.708   0.400 -0.0796 -0.6703  0.4955
  639MOL0     C84231   0.910   2.708   0.381 -0.2143  0.1723  0.5417
  639MOL0     C84232   0.851   2.843   0.306 -0.1230  0.6708 -0.1138
  639MOL0     N84233   0.720   2.832   0.232  0.0890  0.6416 -0.3230
  639MOL0     C84234   0.600   2.865   0.286 -0.6385 -0.0300  0.4754
  639MOL0     C84235   0.505   2.854   0.188 -0.1153 -0.6420  0.3480
  639MOL0     C84236   0.355   2.867   0.197 -0.4542  0.7749  0.2159
  639MOL0     C84237   0.330   3.022   0.226  0.0924  0.8119 -0.3645
  639MOL0     C84238   0.210   3.084   0.152 -0.6543  0.5002 -0.4897
  639MOL0     C84239   0.076   2.998   0.173 -0.7197  0.0134  0.4159
  639MOL0     O84240  -0.006   3.003   0.053 -0.2087  0.7465 -0.9107
  639MOL0     C84241  -0.135   2.956   0.059 -0.8029  0.3688  0.2797
  639MOL0     C84242  -0.205   2.917   0.178 -0.0180 -1.0210  0.5398
  639MOL0     C84243  -0.323   2.847   0.164  0.0831 -0.8051 -0.0716
  639MOL0     C84244  -0.386   2.834   0.039  0.7173  1.2690 -0.0004
  639MOL0     C84245  -0.522   2.768   0.027  1.0611  0.5529  0.2115
  639MOL0     O84246  -0.570   2.707   0.139  0.2094 -0.0190 -0.2859
  639MOL0     C84247  -0.679   2.634   0.121  0.3159 -0.5247 -0.5548
  639MOL0     C84248  -0.793   2.693   0.179 -0.2258 -0.2650  0.5240
  639MOL0     C84249  -0.912   2.630   0.160  0.9378 -0.3400 -0.6182
  639MOL0     C84250  -0.937   2.510   0.095 -0.3023 -0.7638  0.7040
  639MOL0     O84251  -1.056   2.450   0.076  0.4004  0.1737 -0.2320
  639MOL0     C84252  -1.152   2.535   0.024  0.2378 -0.7553 -0.0360
  639MOL0     C84253  -1.262   2.455  -0.057  0.8099 -0.4168  0.0902
  639MOL0     C84254  -1.380   2.436   0.041  0.5022 -0.3037 -0.0918
  639MOL0     C84255  -1.473   2.358  -0.048 -0.5416  0.9311  1.2381
  639MOL0     C84256  -1.592   2.279   0.017 -0.5978 -0.0847  0.2669
  639MOL0     C84257  -1.681   2.370   0.104  0.7606  0.3891 -0.7357
  639MOL0     C84258  -1.805   2.316   0.190  0.1593 -0.1964  0.1202
  639MOL0     C84259  -1.910   2.250   0.118  0.9539 -0.0058  0.6386
  639MOL0    Cl84260  -1.877   2.066   0.126 -0.1448  0.1669 -0.0285
  639MOL0     C84261  -0.820   2.448   0.049 -0.4317 -0.1155  0.6053
  639MOL0     C84262  -0.694   2.509   0.067 -0.2938  0.2343  0.1819
  639MOL0     O84263  -0.576   2.756  -0.083  0.3219 -0.1596 -0.1263
  639MOL0     C84264  -0.326   2.883  -0.074 -0.2956  0.4116 -0.0077
  639MOL0     C84265  -0.198   2.944  -0.067 -0.5547 -0.7381  0.4170
  639MOL0     N84266   0.574   2.813   0.080  0.1190  0.0441  0.2863
  639MOL0     N84267   0.696   2.798   0.101 -0.5212  0.5706  0.2699
  639MOL0     C84268   1.765   2.623   0.419 -0.1175 -0.1468  0.3381
  639MOL0     C84269   1.877   2.572   0.357  0.0451 -0.8944  0.9786
  639MOL0     C84270   2.265   2.374   0.257 -0.4267  0.0688  1.0559
  639MOL0     C84271   2.382   2.458   0.268  0.4210 -0.1346 -0.0013
  639MOL0     C84272   2.498   2.408   0.206 -0.1210 -0.9600  0.4187
  639MOL0     C84273   2.506   2.290   0.133  1.3169 -0.0994  0.4762
  639MOL0     O84274   2.621   2.241   0.075  0.0049  0.1405  0.4587
  639MOL0     C84275   2.734   2.322   0.072  0.1496  0.5320 -0.0441
  639MOL0     C84276   2.842   2.240   0.009  0.8502  0.7838  0.3467
  639MOL0     C84277   2.978   2.289   0.049 -0.4767 -0.8155  0.1427
  639MOL0     C84278   3.094   2.198  -0.012  0.0169  0.4165 -0.1846
  639MOL0     C84279   3.145   2.108   0.087  0.0699  0.8991 -0.1384
  639MOL0     C84280   3.185   2.029   0.163 -1.0462  0.2997 -0.1378
  639MOL0     C84281   2.384   2.216   0.109  0.6625 -0.2134 -0.1440
  639MOL0     C84282   2.267   2.256   0.182 -0.1261  0.1981 -1.1232
  639MOL0     H84283   2.106   2.643   0.593 -0.4031  1.1701  2.1607
  639MOL0     H84284   1.900   2.746   0.701  2.6218 -1.4141  0.7347
  639MOL0     H84285   1.528   2.624   0.520 -1.4092 -0.1202  0.2069
  639MOL0     H84286   1.521   2.801   0.478  0.8299  1.3909  1.8679
  639MOL0     H84287   1.458   2.871   0.697  0.3305 -0.5242  0.9853
  639MOL0     H84288   1.460   2.704   0.754 -2.6139 -2.4336 -1.7342
  639MOL0     H84289   1.234   2.770   0.716  0.8012 -3.4029  1.4897
  639MOL0     H84290   1.272   2.648   0.599  1.8102  0.5820 -3.5817
  639MOL0     H84291   1.299   2.947   0.531 -0.1308  1.1962 -2.8211
  639MOL0     H84292   1.325   2.809   0.423 -2.3983 -4.8520  0.7876
  639MOL0     H84293   1.131   2.915   0.358  1.0313  0.3442 -0.9744
  639MOL0     H84294   1.051   2.890   0.518  0.8168  0.9216  0.2055
  639MOL0     H84295   1.089   2.625   0.467 -1.1270 -0.9315  0.6007
  639MOL0     H84296   1.097   2.663   0.307  0.1143 -2.7069  1.5139
  639MOL0     H84297   0.875   2.625   0.319 -3.5156  1.3955  0.5685
  639MOL0     H84298   0.853   2.695   0.474 -1.1261 -3.3279 -0.3743
  639MOL0     H84299   0.927   2.872   0.234  0.6182  0.1420  0.4461
  639MOL0     H84300   0.844   2.934   0.367  1.9028  2.6619 -2.6771
  639MOL0     H84301   0.592   2.879   0.393  1.4120 -1.4614  0.8546
  639MOL0     H84302   0.309   2.808   0.277  0.4139 -0.2197  0.0073
  639MOL0     H84303   0.318   2.833   0.100  2.1551  0.1689 -0.6589
  639MOL0     H84304   0.419   3.080   0.199  1.8094 -2.5977 -2.8409
  639MOL0     H84305   0.327   3.024   0.335 -3.3515  1.0009 -0.3627
  639MOL0     H84306   0.189   3.186   0.187  1.9277  0.5646  1.0970
  639MOL0     H84307   0.238   3.078   0.047 -1.1738 -0.6904 -0.5772
  639MOL0     H84308   0.023   3.046   0.256  1.9849  1.6636  1.3210
  639MOL0     H84309   0.087   2.892   0.199  0.7954  0.1890  0.6007
  639MOL0     H84310  -0.165   2.923   0.279 -1.6137  0.3087  1.1374
  639MOL0     H84311  -0.373   2.803   0.249 -1.1693 -1.6926 -1.2254
  639MOL0     H84312  -0.761   2.779   0.238  3.5518 -0.7888 -0.4479
  639MOL0     H84313  -1.000   2.676   0.203  1.2867 -2.0321  2.1657
  639MOL0     H84314  -1.102   2.604  -0.045  1.6046 -1.1793  0.5025
  639MOL0     H84315  -1.205   2.585   0.105  0.9903  3.3509 -1.8030
  639MOL0     H84316  -1.224   2.358  -0.092  0.9401  0.1416 -1.3751
  639MOL0     H84317  -1.289   2.500  -0.153  2.9584 -1.8038 -1.2692
  639MOL0     H84318  -1.425   2.534   0.061  0.3153  0.6820 -4.2392
  639MOL0     H84319  -1.351   2.379   0.129 -0.4591 -0.9361 -0.1598
  639MOL0     H84320  -1.512   2.416  -0.132  0.1278 -2.0380 -1.3071
  639MOL0     H84321  -1.408   2.293  -0.106  0.4312  4.2737 -1.7299
  639MOL0     H84322  -1.536   2.202   0.073 -1.1769 -0.1236  0.8040
  639MOL0     H84323  -1.652   2.219  -0.052 -0.6455 -0.9411  1.0261
  639MOL0     H84324  -1.723   2.446   0.037 -1.6785 -3.6273 -4.2027
  639MOL0     H84325  -1.618   2.410   0.184 -0.3685 -0.3501  0.5554
  639MOL0     H84326  -1.776   2.257   0.277  0.4348  1.9098  1.5226
  639MOL0     H84327  -1.851   2.403   0.236  0.9071  0.0156  0.4946
  639MOL0     H84328  -1.904   2.287   0.015 -0.5748 -3.6804 -0.9298
  639MOL0     H84329  -2.006   2.259   0.169  0.9905  1.5475  0.4744
  639MOL0     H84330  -0.827   2.360  -0.015 -3.2494 -0.6621  1.5143
  639MOL0     H84331  -0.605   2.455   0.034 -0.1790 -0.9115  2.1482
  639MOL0     H84332  -0.356   2.855  -0.174  1.2293  1.1497 -0.7028
  639MOL0     H84333  -0.172   2.989  -0.163  1.0900 -1.4255  0.5244
  639MOL0     H84334   1.673   2.622   0.361  0.9190  4.3488 -1.8930
  639MOL0     H84335   1.867   2.531   0.257 -1.1145  2.7951 -0.5902
  639MOL0     H84336   2.383   2.552   0.321 -1.8867  1.1474 -2.0541
  639MOL0     H84337   2.587   2.467   0.227 -0.8129  0.3972 -0.3250
  639MOL0     H84338   2.765   2.359   0.170  0.5966 -2.4170  1.0313
  639MOL0     H84339   2.712   2.411   0.013  1.3409  0.4852 -0.6021
  639MOL0     H84340   2.832   2.134   0.032  0.7695  0.7587  0.1988
  639MOL0     H84341   2.834   2.237  -0.100  0.0428  0.2928  0.4076
  639MOL0     H84342   2.980   2.293   0.158  1.4852  1.4904  0.1137
  639MOL0     H84343   2.991   2.392   0.016 -1.2087 -1.1672 -1.3517
  639MOL0     H84344   3.054   2.150  -0.102  1.6018  0.4319 -0.9338
  639MOL0     H84345   3.186   2.257  -0.025  0.6200 -0.1367  1.3238
  639MOL0     H84346   3.231   1.951   0.220  0.7593  0.2695 -1.5488
  639MOL0     H84347   2.394   2.133   0.039  0.5856  1.4842 -2.2566
  639MOL0     H84348   2.178   2.195   0.172 -0.4565  0.6430 -0.9029
  640MOL0     O84349  10.560   6.973   2.825  0.0641 -0.2373  0.0485
  640MOL0     C84350  10.653   6.894   2.843  0.1566 -0.1108  0.2770
  640MOL0     O84351  10.653   6.772   2.807  0.0645  0.3477 -0.0310
  640MOL0     C84352  10.542   6.707   2.765 -0.6084  0.0555  0.3046
  640MOL0     C84353  10.444   6.762   2.676  0.3777 -0.0485  0.1666
  640MOL0     C84354  10.335   6.693   2.633  1.1446  0.2844  1.1137
  640MOL0     C84355  10.315   6.562   2.677  0.8637 -0.0423  0.3558
  640MOL0     O84356  10.200   6.484   2.659  0.0372 -0.7406 -0.1674
  640MOL0     C84357  10.097   6.545   2.570 -0.3176  0.3636 -0.2306
  640MOL0     C84358   9.977   6.456   2.563 -0.7809  0.0860 -0.5935
  640MOL0     C84359   9.867   6.523   2.496  0.1418 -0.1746 -0.3856
  640MOL0     C84360   9.747   6.425   2.474 -0.5090  0.3372 -0.2996
  640MOL0     C84361   9.655   6.412   2.593 -0.0714  0.1732 -0.9785
  640MOL0     C84362   9.528   6.354   2.542 -0.6164  0.4809  0.7812
  640MOL0     C84363   9.438   6.322   2.656 -0.1091 -0.3230 -0.0457
  640MOL0     C84364   9.336   6.224   2.609  0.2606  0.4931  0.1041
  640MOL0     N84365   9.234   6.175   2.708 -0.1139  0.6521  1.1160
  640MOL0     C84366   9.130   6.248   2.756  0.6687  0.2502  0.0910
  640MOL0     C84367   9.058   6.151   2.835  0.0380  0.1867  0.7638
  640MOL0     C84368   8.933   6.194   2.914 -0.3471  0.2479 -0.0288
  640MOL0     C84369   8.797   6.199   2.829 -0.2055 -0.4510 -0.1471
  640MOL0     C84370   8.710   6.070   2.845  0.2305 -0.3798  0.3776
  640MOL0     C84371   8.769   5.953   2.772 -0.1651  1.1413 -0.1576
  640MOL0     O84372   8.695   5.835   2.797  0.0036 -0.0699  0.3116
  640MOL0     C84373   8.604   5.796   2.707  0.3639  0.6693 -1.0143
  640MOL0     C84374   8.477   5.766   2.747 -0.3558 -0.0424  0.3680
  640MOL0     C84375   8.384   5.712   2.657  0.0191  0.4810  0.6779
  640MOL0     C84376   8.415   5.714   2.520  0.9388 -0.0122 -0.2495
  640MOL0     C84377   8.304   5.681   2.427 -0.7125  0.8557 -0.5648
  640MOL0     O84378   8.335   5.645   2.298  0.6319  0.0602 -0.5473
  640MOL0     C84379   8.248   5.647   2.194  0.2914 -0.1002 -0.4180
  640MOL0     C84380   8.177   5.771   2.190 -0.4598  0.4212 -0.5733
  640MOL0     C84381   8.091   5.788   2.073 -0.0536  0.0451  0.5078
  640MOL0     C84382   8.103   5.690   1.968 -0.4405  0.1970  1.7660
  640MOL0     O84383   8.047   5.712   1.844 -0.5160  0.5302  0.1960
  640MOL0     C84384   7.909   5.755   1.825 -0.5846 -0.5918 -1.0761
  640MOL0     C84385   7.830   5.651   1.756  0.0092  0.0728 -0.4002
  640MOL0     C84386   7.776   5.560   1.868  0.0124  0.3157  0.1441
  640MOL0     C84387   7.705   5.443   1.792 -1.2515 -0.6680  0.2798
  640MOL0     C84388   7.622   5.364   1.890 -0.3773 -0.0840  0.3602
  640MOL0     C84389   7.478   5.424   1.902  0.1866  0.5852  0.4191
  640MOL0     C84390   7.398   5.334   1.989 -0.8889  0.9374 -0.1043
  640MOL0     C84391   7.257   5.386   2.042  0.4361  0.0642 -0.9265
  640MOL0    Cl84392   7.153   5.368   1.911 -0.3089  0.3240  0.2452
  640MOL0     C84393   8.178   5.579   1.974 -0.2010  0.4580  0.5146
  640MOL0     C84394   8.243   5.550   2.093 -0.1425 -0.1432  0.7146
  640MOL0     O84395   8.193   5.699   2.477 -0.1724 -0.4150 -1.0251
  640MOL0     C84396   8.540   5.755   2.477  0.3148 -1.0078 -1.1510
  640MOL0     C84397   8.638   5.794   2.572  0.2981 -0.1454  0.2580
  640MOL0     N84398   9.116   6.025   2.818 -0.1225  0.2968 -0.5774
  640MOL0     N84399   9.223   6.043   2.748  0.6987  0.2646  0.2450
  640MOL0     C84400  10.404   6.508   2.766 -0.0310 -0.4413 -0.1474
  640MOL0     C84401  10.524   6.575   2.799  0.9628 -0.2206 -0.7524
  640MOL0     C84402  10.778   6.955   2.902  0.4124  0.0177  0.4693
  640MOL0     C84403  10.764   7.063   2.985 -0.1022 -0.8179 -0.8758
  640MOL0     C84404  10.880   7.136   3.016 -0.3823 -0.6219 -0.0556
  640MOL0     C84405  11.008   7.084   2.983 -0.0221 -0.0320  0.2842
  640MOL0     O84406  11.122   7.153   3.006  0.3334  0.0323 -0.9141
  640MOL0     C84407  11.112   7.266   3.099  0.4797 -0.3408 -0.0269
  640MOL0     C84408  11.247   7.326   3.133  0.7497 -0.5735 -0.6354
  640MOL0     C84409  11.343   7.350   3.021  0.4305 -0.4369  0.5663
  640MOL0     C84410  11.297   7.463   2.924  0.0684 -1.0679 -0.6333
  640MOL0     C84411  11.171   7.448   2.851 -0.4940 -0.1979  0.0753
  640MOL0     C84412  11.059   7.443   2.800 -0.6101  0.5640  0.3663
  640MOL0     C84413  11.016   6.959   2.919  0.0829  0.6972 -0.2886
  640MOL0     C84414  10.895   6.903   2.868  0.7873  0.6255 -0.1512
  640MOL0     H84415  10.465   6.860   2.636  2.2578 -0.1953  0.6783
  640MOL0     H84416  10.269   6.741   2.561 -1.5223 -3.1848  0.9482
  640MOL0     H84417  10.147   6.559   2.474  2.3749 -1.4390  0.7849
  640MOL0     H84418  10.077   6.646   2.608  2.4984  1.0403 -0.2923
  640MOL0     H84419   9.940   6.436   2.664  2.1597  0.2765  0.6223
  640MOL0     H84420  10.002   6.355   2.529 -0.4904 -0.5218  1.3135
  640MOL0     H84421   9.904   6.555   2.398 -1.2586 -1.1014 -1.2417
  640MOL0     H84422   9.838   6.610   2.556 -2.9055  0.3315 -2.3496
  640MOL0     H84423   9.682   6.477   2.403 -1.6355 -1.3341 -0.5262
  640MOL0     H84424   9.783   6.326   2.446  2.8950  0.3081  3.2476
  640MOL0     H84425   9.645   6.505   2.649  4.5727  0.1391  0.3140
  640MOL0     H84426   9.700   6.341   2.663  1.4377  0.2388 -1.8386
  640MOL0     H84427   9.565   6.261   2.498 -1.6976  0.4772 -0.1528
  640MOL0     H84428   9.480   6.423   2.472  1.4063  2.6464  1.4048
  640MOL0     H84429   9.489   6.278   2.742 -0.1834  0.5567  0.4526
  640MOL0     H84430   9.391   6.408   2.704  0.2150 -0.3021  0.2365
  640MOL0     H84431   9.394   6.137   2.574  0.0664  1.0559 -1.7010
  640MOL0     H84432   9.279   6.268   2.527  1.3549 -0.3345 -1.1627
  640MOL0     H84433   9.116   6.355   2.751  1.7109  0.3333 -1.5465
  640MOL0     H84434   8.944   6.292   2.962  0.0576  1.4000 -2.3343
  640MOL0     H84435   8.916   6.121   2.993 -0.1294  1.1501  0.8867
  640MOL0     H84436   8.819   6.213   2.723 -2.6937 -2.0427 -0.9495
  640MOL0     H84437   8.734   6.281   2.863  1.0764  1.1063 -1.3726
  640MOL0     H84438   8.712   6.049   2.952 -0.3429 -3.0205 -0.0595
  640MOL0     H84439   8.612   6.095   2.805 -0.0820  0.3277  1.5200
  640MOL0     H84440   8.869   5.933   2.809 -0.3041 -1.3555 -0.9660
  640MOL0     H84441   8.770   5.980   2.666 -3.1010  2.5561  0.0687
  640MOL0     H84442   8.461   5.763   2.854  1.1387 -5.2252  0.7252
  640MOL0     H84443   8.284   5.687   2.690 -0.8864  2.0473 -0.6904
  640MOL0     H84444   8.167   5.858   2.253 -0.1759  0.3584 -0.4383
  640MOL0     H84445   8.028   5.877   2.063 -0.2910 -0.1976 -0.2261
  640MOL0     H84446   7.894   5.844   1.763 -1.2625 -1.6186 -2.4429
  640MOL0     H84447   7.868   5.779   1.924 -0.0444 -1.7603 -0.5528
  640MOL0     H84448   7.885   5.601   1.677  1.8258 -0.4631  1.1434
  640MOL0     H84449   7.750   5.711   1.711 -1.0035 -0.5932  0.4472
  640MOL0     H84450   7.702   5.614   1.929 -1.3979 -2.3830  0.9685
  640MOL0     H84451   7.845   5.508   1.935 -1.1944 -1.6787 -0.0921
  640MOL0     H84452   7.647   5.488   1.712  0.2270  1.4843  0.3357
  640MOL0     H84453   7.776   5.369   1.752 -1.0593 -1.1247  1.4045
  640MOL0     H84454   7.674   5.350   1.985  0.3597  0.3566  0.0266
  640MOL0     H84455   7.619   5.266   1.841 -0.2991  0.7840 -1.4326
  640MOL0     H84456   7.436   5.430   1.801 -0.7026 -0.9327  0.6598
  640MOL0     H84457   7.483   5.519   1.955 -1.4774  0.4450  0.9002
  640MOL0     H84458   7.374   5.238   1.943 -2.6014 -0.1609  2.8397
  640MOL0     H84459   7.464   5.316   2.074  1.0706  1.3437 -1.4733
  640MOL0     H84460   7.255   5.491   2.072  0.5062 -0.1784 -0.0513
  640MOL0     H84461   7.219   5.328   2.126  2.7382 -0.8090 -0.3971
  640MOL0     H84462   8.194   5.509   1.893 -0.4381  1.0212 -0.0286
  640MOL0     H84463   8.294   5.456   2.115 -0.9622  0.0925  4.1791
  640MOL0     H84464   8.550   5.764   2.369 -0.6843  0.2599 -1.1637
  640MOL0     H84465   8.739   5.818   2.540  0.1262  1.2890  0.7577
  640MOL0     H84466  10.398   6.406   2.803 -0.3306 -0.5090 -0.3806
  640MOL0     H84467  10.589   6.524   2.870 -0.5463  0.3312  1.1014
  640MOL0     H84468  10.666   7.092   3.022 -0.1625 -1.5176 -0.4756
  640MOL0     H84469  10.868   7.224   3.079  2.7254 -1.8517  2.5277
  640MOL0     H84470  11.076   7.248   3.200 -1.2467 -0.0561 -0.5463
  640MOL0     H84471  11.041   7.333   3.049 -0.5988 -0.6716  1.0135
  640MOL0     H84472  11.237   7.416   3.195 -0.1384 -1.1509  0.0736
  640MOL0     H84473  11.299   7.255   3.198 -0.1661  0.8909  1.8303
  640MOL0     H84474  11.358   7.257   2.965 -1.9660 -0.4821 -0.1056
  640MOL0     H84475  11.441   7.377   3.062 -0.4506  3.5532  0.4246
  640MOL0     H84476  11.304   7.550   2.990  0.0499  0.3952 -2.4792
  640MOL0     H84477  11.380   7.467   2.853  0.3907 -3.1717 -0.4477
  640MOL0     H84478  10.955   7.421   2.782 -0.1767 -0.8251 -0.5536
  640MOL0     H84479  11.110   6.917   2.883  0.6439 -1.1703  2.9522
  640MOL0     H84480  10.897   6.810   2.811  0.8352  0.2195  0.4978
  641MOL0     O84481   6.949   9.874   6.782 -0.3235  0.3017  0.3833
  641MOL0     C84482   6.875   9.966   6.798 -0.0991 -0.5916  0.4906
  641MOL0     O84483   6.841  10.025   6.922 -0.3550 -0.4075  0.0652
  641MOL0     C84484   6.892   9.965   7.037  0.0879 -0.0080  0.6644
  641MOL0     C84485   6.967  10.026   7.136 -0.6262 -0.0818  0.2299
  641MOL0     C84486   7.019   9.963   7.245 -0.5022  0.8705  0.7270
  641MOL0     C84487   6.979   9.827   7.271  0.8428 -0.1331  0.3966
  641MOL0     O84488   7.023   9.755   7.382  0.2336  0.5447 -0.3833
  641MOL0     C84489   6.936   9.764   7.493 -0.1119 -0.2397 -0.6120
  641MOL0     C84490   6.941   9.893   7.580  0.2008  0.3113 -0.0635
  641MOL0     C84491   6.834   9.892   7.686 -0.0167  0.4719 -0.2862
  641MOL0     C84492   6.840  10.019   7.777 -0.0977 -0.0432  0.4291
  641MOL0     C84493   6.745  10.024   7.898  0.8768 -0.4687 -0.7168
  641MOL0     C84494   6.775   9.916   8.013  0.4127 -0.1703  0.4649
  641MOL0     C84495   6.923   9.920   8.064  0.7089 -0.4715  0.0883
  641MOL0     C84496   6.959  10.065   8.115  0.1431 -0.9032 -0.0651
  641MOL0     N84497   6.865  10.107   8.223  0.0263  0.3039  0.2972
  641MOL0     C84498   6.768  10.203   8.220 -0.6038 -0.5935 -0.2176
  641MOL0     C84499   6.743  10.236   8.346  0.2664  0.4630 -0.4928
  641MOL0     C84500   6.633  10.332   8.398 -0.3024  0.1540  0.6095
  641MOL0     C84501   6.616  10.471   8.337  0.0491  0.8628  0.4220
  641MOL0     C84502   6.720  10.575   8.378 -0.4506  0.6081  0.4974
  641MOL0     C84503   6.858  10.538   8.331 -0.2490  0.3924  0.5019
  641MOL0     O84504   6.845  10.513   8.194 -0.1547  0.0553  0.3698
  641MOL0     C84505   6.954  10.453   8.129 -1.1064 -0.3995  0.2027
  641MOL0     C84506   6.940  10.414   7.997 -0.0785  0.4618 -0.4748
  641MOL0     C84507   7.043  10.364   7.917 -0.0497 -1.3416  1.1483
  641MOL0     C84508   7.168  10.330   7.975  0.0846 -1.3920  0.4229
  641MOL0     C84509   7.266  10.255   7.885 -0.4526  0.6447 -0.1330
  641MOL0     O84510   7.403  10.294   7.893  0.6116 -0.3064  0.3385
  641MOL0     C84511   7.499  10.230   7.814  0.3843  0.0236  0.4977
  641MOL0     C84512   7.486  10.185   7.680  0.7611 -0.3624 -0.3418
  641MOL0     C84513   7.596  10.131   7.613 -0.2143 -1.1812  0.4674
  641MOL0     C84514   7.723  10.132   7.671  0.5807  0.4987 -0.5163
  641MOL0     O84515   7.841  10.079   7.608 -0.0682  0.4005  0.2679
  641MOL0     C84516   7.851  10.097   7.467  0.0507  0.3750 -0.3433
  641MOL0     C84517   7.995  10.077   7.412  0.3518  0.3291 -0.0505
  641MOL0     C84518   8.037   9.926   7.404  0.1335  0.3976 -0.6783
  641MOL0     C84519   8.179   9.909   7.352 -0.3316 -0.2214  0.3001
  641MOL0     C84520   8.198   9.915   7.200 -0.6223 -0.0621 -0.0927
  641MOL0     C84521   8.345   9.859   7.157  0.7975  0.3320  0.7125
  641MOL0     C84522   8.391   9.895   7.012  0.2388 -0.1178  0.0372
  641MOL0     C84523   8.528   9.838   6.969 -0.1836 -0.2812  0.4179
  641MOL0    Cl84524   8.521   9.663   6.948 -0.4428 -0.3158  0.5161
  641MOL0     C84525   7.731  10.178   7.807  0.5450 -0.0173 -0.0493
  641MOL0     C84526   7.626  10.227   7.882  0.6368  0.4191  0.9185
  641MOL0     O84527   7.220  10.167   7.807  0.0593 -0.6509  0.2943
  641MOL0     C84528   7.190  10.357   8.117  0.2693 -0.2557  0.5254
  641MOL0     C84529   7.082  10.428   8.186  0.4252 -0.1152  0.0344
  641MOL0     N84530   6.821  10.151   8.427 -0.8322 -0.1739  0.3432
  641MOL0     N84531   6.899  10.080   8.352  0.0400 -0.2430 -0.6181
  641MOL0     C84532   6.878   9.774   7.185  0.6466 -0.7297  0.4102
  641MOL0     C84533   6.841   9.839   7.062 -0.4064  0.1434 -0.1580
  641MOL0     C84534   6.796  10.027   6.683  0.5074 -0.0898 -0.2127
  641MOL0     C84535   6.720  10.146   6.692 -0.1078  0.6331 -0.7511
  641MOL0     C84536   6.646  10.203   6.587  0.4246 -1.2590 -0.7501
  641MOL0     C84537   6.642  10.142   6.465  0.0603 -0.0218 -0.7881
  641MOL0     O84538   6.572  10.199   6.361  0.1273 -0.7888  0.0743
  641MOL0     C84539   6.518  10.124   6.250 -0.2047 -0.0291 -0.8952
  641MOL0     C84540   6.598  10.138   6.122 -1.3355 -0.0135  0.0538
  641MOL0     C84541   6.550  10.043   5.999 -0.8506 -1.3648  1.4167
  641MOL0     C84542   6.630   9.909   5.996  0.7718  0.1455 -0.4940
  641MOL0     C84543   6.775   9.915   5.982 -1.2682  0.3865  0.1266
  641MOL0     C84544   6.892   9.939   5.976 -0.4329  0.2925 -0.7895
  641MOL0     C84545   6.716  10.021   6.456 -0.2283  0.4036  0.4192
  641MOL0     C84546   6.781   9.955   6.561  0.4822 -0.7825 -0.0346
  641MOL0     H84547   6.992  10.131   7.127  3.9848 -0.9879 -0.3137
  641MOL0     H84548   7.070  10.006   7.331 -0.3847 -0.6359  1.4284
  641MOL0     H84549   6.969   9.681   7.556  1.5762  1.7570  1.3030
  641MOL0     H84550   6.830   9.750   7.470 -0.9372 -0.0536  2.6344
  641MOL0     H84551   6.926   9.971   7.505 -0.4861 -0.0216 -0.2783
  641MOL0     H84552   7.038   9.921   7.622  1.1229 -0.6259 -1.4458
  641MOL0     H84553   6.853   9.802   7.745  2.5082  1.5562  0.6971
  641MOL0     H84554   6.737   9.899   7.636 -1.9567 -1.2751  2.9045
  641MOL0     H84555   6.943  10.030   7.812  0.3833 -0.3437 -0.8587
  641MOL0     H84556   6.811  10.112   7.728 -1.6863 -1.3172 -1.1571
  641MOL0     H84557   6.644  10.011   7.859  1.0225 -0.1473 -1.2227
  641MOL0     H84558   6.741  10.129   7.928  1.1717 -0.5541 -0.3691
  641MOL0     H84559   6.753   9.816   7.974 -0.4246  0.1281  0.1630
  641MOL0     H84560   6.702   9.932   8.092 -0.0903 -3.3132  0.7642
  641MOL0     H84561   6.940   9.846   8.142  0.9143  0.1475  0.6443
  641MOL0     H84562   6.987   9.886   7.982 -0.8204 -2.4671 -0.3529
  641MOL0     H84563   6.955  10.134   8.031 -3.1455  0.8617  1.3219
  641MOL0     H84564   7.058  10.064   8.160 -1.1370  2.2903  3.3698
  641MOL0     H84565   6.718  10.253   8.137  1.6144  1.5453 -0.3646
  641MOL0     H84566   6.641  10.345   8.506 -4.6236  1.9483  0.9113
  641MOL0     H84567   6.540  10.276   8.385 -0.5408  0.4367  1.0784
  641MOL0     H84568   6.519  10.510   8.370 -0.9235 -2.0568  1.2798
  641MOL0     H84569   6.613  10.455   8.229  0.7316 -1.2832  0.6874
  641MOL0     H84570   6.696  10.673   8.338  0.5926  1.0144  0.8534
  641MOL0     H84571   6.714  10.576   8.487 -2.1220 -0.5575  0.4691
  641MOL0     H84572   6.901  10.447   8.374  0.4355 -0.3977 -1.7122
  641MOL0     H84573   6.925  10.621   8.355  0.0480  0.3924 -0.2974
  641MOL0     H84574   6.840  10.410   7.954 -0.5657  1.5556  0.4950
  641MOL0     H84575   7.015  10.338   7.815  2.2273  0.6306 -0.0679
  641MOL0     H84576   7.389  10.186   7.630 -0.9613 -0.7006  2.7264
  641MOL0     H84577   7.593  10.096   7.510 -4.0296  0.5258 -0.2020
  641MOL0     H84578   7.813  10.196   7.443 -1.1355 -0.1155 -0.5513
  641MOL0     H84579   7.788  10.017   7.429 -0.1797 -0.4879  1.7081
  641MOL0     H84580   8.067  10.128   7.477 -1.2999  0.0302  2.0913
  641MOL0     H84581   8.000  10.120   7.311  0.7995 -0.5130 -0.3978
  641MOL0     H84582   7.984   9.863   7.332  2.4712 -0.0454 -2.1131
  641MOL0     H84583   8.018   9.891   7.506  1.4257 -0.1242 -0.5970
  641MOL0     H84584   8.242   9.991   7.388  1.1858 -0.3510 -1.8772
  641MOL0     H84585   8.217   9.813   7.389 -0.6673 -0.5948 -0.3099
  641MOL0     H84586   8.192  10.017   7.159 -3.3649 -0.1262 -0.0015
  641MOL0     H84587   8.110   9.863   7.162 -0.1327 -2.2234  1.5773
  641MOL0     H84588   8.360   9.750   7.165  1.2622  0.1171 -2.2212
  641MOL0     H84589   8.419   9.902   7.225  2.0498 -0.9659  0.2209
  641MOL0     H84590   8.318   9.854   6.941  1.3832 -1.7407 -0.2736
  641MOL0     H84591   8.401  10.003   6.997 -2.3551  0.1020 -0.5525
  641MOL0     H84592   8.601   9.871   7.043  2.2540 -0.5954 -1.7167
  641MOL0     H84593   8.569   9.887   6.880 -1.5127 -0.6841 -0.4539
  641MOL0     H84594   7.830  10.183   7.850  0.1706 -0.2187  0.8417
  641MOL0     H84595   7.639  10.262   7.984 -1.1488  0.8069  1.0353
  641MOL0     H84596   7.295  10.339   8.138  0.8972  3.0269  0.7057
  641MOL0     H84597   7.097  10.462   8.288  1.3984 -1.3323  0.3209
  641MOL0     H84598   6.834   9.679   7.214  0.0242 -0.2479  1.0791
  641MOL0     H84599   6.758   9.801   7.002 -0.3713 -0.2671  0.0472
  641MOL0     H84600   6.723  10.202   6.785  1.4545  0.9816 -0.9988
  641MOL0     H84601   6.605  10.302   6.604  1.6265 -1.0316  1.0607
  641MOL0     H84602   6.417  10.160   6.230  0.7621  3.6155  0.0512
  641MOL0     H84603   6.524  10.016   6.265  2.7687 -0.0419 -1.4413
  641MOL0     H84604   6.590  10.245   6.102 -0.4849 -0.0673 -0.6484
  641MOL0     H84605   6.699  10.124   6.163 -2.0903 -1.7109  1.4595
  641MOL0     H84606   6.572  10.107   5.914 -1.7311  0.1826  2.3005
  641MOL0     H84607   6.441  10.039   5.990 -1.1294  2.3748  1.4791
  641MOL0     H84608   6.603   9.856   6.088 -2.9121  0.2183 -1.3701
  641MOL0     H84609   6.585   9.843   5.921 -0.2328 -0.5940  0.7010
  641MOL0     H84610   6.992   9.976   5.978  0.7017 -2.5388  0.0646
  641MOL0     H84611   6.725   9.968   6.362 -1.9276  0.8244 -0.0098
  641MOL0     H84612   6.820   9.857   6.536  4.0460 -0.0348  1.8925
  642MOL0     O84613   0.466   6.266   2.970 -0.5728  0.3685  0.3603
  642MOL0     C84614   0.507   6.219   3.080 -0.6599  0.4645  0.5426
  642MOL0     O84615   0.434   6.153   3.179 -0.1078  0.4570  0.1844
  642MOL0     C84616   0.304   6.104   3.146 -0.1264 -0.3630  0.1568
  642MOL0     C84617   0.295   5.974   3.084 -0.8905  0.0672  0.9408
  642MOL0     C84618   0.164   5.925   3.055 -0.2472  0.3694 -0.2419
  642MOL0     C84619   0.045   6.002   3.079 -0.7668  0.4546 -1.3511
  642MOL0     O84620  -0.083   5.958   3.060  0.3102 -0.1737 -0.7010
  642MOL0     C84621  -0.104   5.838   2.983  0.6103  0.1674  0.0516
  642MOL0     C84622  -0.251   5.828   2.933  1.2233  0.7536  0.3688
  642MOL0     C84623  -0.336   5.751   3.042  0.6108 -0.9074 -0.0061
  642MOL0     C84624  -0.477   5.766   2.985 -0.3785  0.0142 -0.0822
  642MOL0     C84625  -0.574   5.730   3.091 -0.4062  0.4991 -0.2512
  642MOL0     C84626  -0.562   5.587   3.142 -0.7102 -0.5333  0.5611
  642MOL0     C84627  -0.679   5.543   3.229 -0.5934  0.0316  0.1804
  642MOL0     C84628  -0.803   5.504   3.147 -0.3268 -0.0703  0.2773
  642MOL0     N84629  -0.879   5.405   3.222 -0.6225 -0.1830 -0.0145
  642MOL0     C84630  -1.018   5.397   3.235 -0.2410 -0.2088  0.8518
  642MOL0     C84631  -1.043   5.271   3.289  0.1326  0.5349 -0.1581
  642MOL0     C84632  -1.183   5.220   3.323  0.4124 -1.1276 -0.5691
  642MOL0     C84633  -1.186   5.160   3.461 -0.3488 -0.3784  0.4669
  642MOL0     C84634  -1.322   5.120   3.505  0.0953  0.6178 -1.0419
  642MOL0     C84635  -1.419   5.043   3.415 -0.5917 -0.0788 -0.5174
  642MOL0     O84636  -1.556   5.077   3.431  0.1018  0.0586 -0.1343
  642MOL0     C84637  -1.665   5.014   3.375 -1.1822  0.2552 -0.0658
  642MOL0     C84638  -1.795   5.041   3.430 -0.5373  0.3468 -0.0693
  642MOL0     C84639  -1.902   4.975   3.371 -0.0651  0.9845  0.7804
  642MOL0     C84640  -1.895   4.884   3.270  0.0153 -0.3004  0.7447
  642MOL0     C84641  -2.010   4.811   3.219  0.4960 -0.4570  0.5273
  642MOL0     O84642  -1.996   4.743   3.100 -0.4766  0.2131 -0.4757
  642MOL0     C84643  -2.105   4.679   3.049 -0.3266 -0.5797 -0.4760
  642MOL0     C84644  -2.161   4.733   2.928  0.0869 -0.9261  0.0709
  642MOL0     C84645  -2.256   4.668   2.859  0.4507 -0.0951 -0.0998
  642MOL0     C84646  -2.309   4.546   2.907 -0.1407  0.4420 -0.6899
  642MOL0     O84647  -2.419   4.470   2.853  0.8065  0.4698  0.4390
  642MOL0     C84648  -2.420   4.457   2.711 -0.1347 -0.0163 -0.2241
  642MOL0     C84649  -2.519   4.347   2.677  0.1763  0.0416 -0.2362
  642MOL0     C84650  -2.509   4.300   2.532 -0.0028 -0.6154  0.0520
  642MOL0     C84651  -2.627   4.210   2.498 -0.2311  0.0866  0.9124
  642MOL0     C84652  -2.611   4.153   2.361  1.7530 -0.0523 -0.7798
  642MOL0     C84653  -2.741   4.061   2.318 -0.4519 -1.0093 -0.2852
  642MOL0     C84654  -2.703   3.912   2.332  0.3025 -0.1978 -0.4349
  642MOL0     C84655  -2.789   3.837   2.224 -0.2754  0.4121  0.2830
  642MOL0    Cl84656  -2.752   3.667   2.220  0.2674 -0.0374 -0.0875
  642MOL0     C84657  -2.255   4.499   3.030  0.0321  0.4251 -0.2808
  642MOL0     C84658  -2.149   4.562   3.101 -0.0499  0.7816  0.2079
  642MOL0     O84659  -2.115   4.815   3.291 -0.5591 -0.2415  0.3587
  642MOL0     C84660  -1.769   4.864   3.215  0.1250  1.1853  0.3452
  642MOL0     C84661  -1.656   4.917   3.267  0.7103 -0.0882  0.6648
  642MOL0     N84662  -0.921   5.223   3.335  0.0576 -0.4859 -0.0920
  642MOL0     N84663  -0.829   5.308   3.299 -0.1332  0.4375 -0.0564
  642MOL0     C84664   0.062   6.126   3.125 -0.3139  0.6203  0.1625
  642MOL0     C84665   0.184   6.179   3.152 -0.1480  0.6858 -0.2194
  642MOL0     C84666   0.647   6.246   3.115  0.2598 -0.4932  0.3353
  642MOL0     C84667   0.700   6.243   3.242 -0.2380 -0.7220 -0.4309
  642MOL0     C84668   0.833   6.268   3.272 -0.5797  0.1927 -0.2503
  642MOL0     C84669   0.917   6.304   3.174 -0.6280  0.0257 -0.0123
  642MOL0     O84670   1.050   6.313   3.210  0.1259  0.2057 -0.3212
  642MOL0     C84671   1.145   6.284   3.112  0.1185 -0.6253 -0.4397
  642MOL0     C84672   1.283   6.292   3.162 -0.4341  0.2758 -0.9173
  642MOL0     C84673   1.327   6.436   3.133  0.7245  0.1139  0.2613
  642MOL0     C84674   1.463   6.458   3.171  0.0368 -0.7103  0.6193
  642MOL0     C84675   1.527   6.571   3.095  1.2281 -0.5774  0.1850
  642MOL0     C84676   1.571   6.654   3.016  0.4739 -0.1711  0.1858
  642MOL0     C84677   0.871   6.305   3.035  0.4664  0.9319  0.2507
  642MOL0     C84678   0.741   6.280   3.015 -0.1265  0.1122 -0.2214
  642MOL0     H84679   0.388   5.920   3.063  0.4646  3.2178 -2.1138
  642MOL0     H84680   0.152   5.827   3.009 -0.7512  0.3426 -0.0582
  642MOL0     H84681  -0.078   5.752   3.045 -0.9909  1.8013  3.2409
  642MOL0     H84682  -0.045   5.847   2.891 -0.8987  1.3704 -0.8591
  642MOL0     H84683  -0.242   5.773   2.839  0.1773 -0.2901  0.8463
  642MOL0     H84684  -0.287   5.927   2.906  0.1670  0.1543 -0.4925
  642MOL0     H84685  -0.313   5.806   3.133  1.8667  2.9868 -2.4470
  642MOL0     H84686  -0.315   5.643   3.037 -1.3496 -1.3335  0.1047
  642MOL0     H84687  -0.493   5.870   2.956  0.3811 -0.4257 -2.2876
  642MOL0     H84688  -0.492   5.704   2.896  0.5453 -1.3435  0.6623
  642MOL0     H84689  -0.671   5.739   3.040 -0.4224 -0.3148 -0.3726
  642MOL0     H84690  -0.557   5.791   3.180 -0.9213 -2.0415  1.6951
  642MOL0     H84691  -0.464   5.571   3.189  2.3448  2.6273 -3.8924
  642MOL0     H84692  -0.553   5.521   3.055 -0.9380  0.7344 -0.4432
  642MOL0     H84693  -0.648   5.454   3.285  0.5374  0.8734  0.9502
  642MOL0     H84694  -0.702   5.623   3.300 -0.0594 -0.2656  0.6985
  642MOL0     H84695  -0.772   5.455   3.054  0.9939  0.3450  0.4905
  642MOL0     H84696  -0.864   5.590   3.121  2.4053  1.5313 -1.2542
  642MOL0     H84697  -1.100   5.461   3.204  0.4804  1.8765  2.9448
  642MOL0     H84698  -1.204   5.146   3.245 -2.3872 -1.2252  0.1811
  642MOL0     H84699  -1.254   5.302   3.313  1.0875 -0.5006 -0.3140
  642MOL0     H84700  -1.144   5.231   3.533 -0.2949 -0.4067  0.4643
  642MOL0     H84701  -1.102   5.090   3.454  0.9124  1.2354 -1.7762
  642MOL0     H84702  -1.310   5.057   3.594 -1.6291  0.3782 -0.9463
  642MOL0     H84703  -1.377   5.208   3.540 -3.4749 -2.1910  1.0973
  642MOL0     H84704  -1.403   4.936   3.434 -0.0689 -0.3637 -2.3270
  642MOL0     H84705  -1.398   5.057   3.308 -0.8742  2.7364 -0.2839
  642MOL0     H84706  -1.807   5.106   3.516  1.3111  0.0589  0.4578
  642MOL0     H84707  -2.000   4.981   3.417 -1.5239 -1.4308 -1.6668
  642MOL0     H84708  -2.131   4.833   2.897 -0.0598 -1.6043 -2.5743
  642MOL0     H84709  -2.309   4.706   2.772 -0.5492 -1.2397 -0.0169
  642MOL0     H84710  -2.318   4.434   2.681  0.1816 -0.4038  1.1025
  642MOL0     H84711  -2.451   4.558   2.682 -1.0945  0.4519  2.2219
  642MOL0     H84712  -2.621   4.381   2.693  0.7051  0.2873  3.2898
  642MOL0     H84713  -2.508   4.264   2.747  1.5146  1.6100  1.5232
  642MOL0     H84714  -2.413   4.252   2.513  2.8642  4.3140  0.2298
  642MOL0     H84715  -2.492   4.388   2.469  2.6072 -1.8208 -1.0343
  642MOL0     H84716  -2.638   4.136   2.577 -0.5910  0.1562  0.9257
  642MOL0     H84717  -2.716   4.272   2.513 -1.3055 -1.4439  1.0912
  642MOL0     H84718  -2.517   4.098   2.348  1.7098 -0.3324  0.0193
  642MOL0     H84719  -2.605   4.237   2.291 -3.4440 -1.0046 -2.8505
  642MOL0     H84720  -2.782   4.092   2.221 -1.9703  1.7694  1.1300
  642MOL0     H84721  -2.819   4.074   2.393  0.0722 -1.9301  0.4379
  642MOL0     H84722  -2.599   3.888   2.306 -0.0763 -4.8756  1.3959
  642MOL0     H84723  -2.710   3.879   2.436 -2.4725  0.9834 -0.1586
  642MOL0     H84724  -2.777   3.887   2.128 -0.2756 -1.7812 -0.9216
  642MOL0     H84725  -2.893   3.852   2.252 -0.1600  0.4415  0.7066
  642MOL0     H84726  -2.299   4.407   3.068 -1.4510  1.8203  1.5900
  642MOL0     H84727  -2.109   4.530   3.197  0.8723  1.5687  0.0980
  642MOL0     H84728  -1.756   4.797   3.130  1.7730  1.2122  0.5324
  642MOL0     H84729  -1.562   4.891   3.220  0.4929  1.7409 -0.9198
  642MOL0     H84730  -0.028   6.184   3.146 -0.4329  1.0181 -1.3778
  642MOL0     H84731   0.201   6.275   3.201  0.8953  0.2563  0.3131
  642MOL0     H84732   0.637   6.227   3.329 -1.3531 -1.4251 -1.3411
  642MOL0     H84733   0.866   6.267   3.375 -1.1827 -0.1249 -0.0546
  642MOL0     H84734   1.129   6.354   3.030  1.3294 -0.8394 -0.8807
  642MOL0     H84735   1.112   6.190   3.066 -1.1713 -0.7420  0.6722
  642MOL0     H84736   1.285   6.268   3.269  0.8130  0.6282 -0.8417
  642MOL0     H84737   1.351   6.225   3.109  1.6043  2.0841 -0.7338
  642MOL0     H84738   1.269   6.506   3.194  1.0501  2.6441 -2.1078
  642MOL0     H84739   1.306   6.469   3.030 -1.3754  0.8748  0.8653
  642MOL0     H84740   1.477   6.487   3.275  1.4897  0.4075  0.1379
  642MOL0     H84741   1.519   6.364   3.169  3.1641  1.0217 -0.7288
  642MOL0     H84742   1.618   6.717   2.944 -0.7324  1.6687  0.9299
  642MOL0     H84743   0.932   6.352   2.958  1.9756 -0.2891  0.6574
  642MOL0     H84744   0.712   6.280   2.910  1.2027  1.7038 -0.6375
  643MOL0     O84745   8.200   6.704   3.307 -0.5463  0.6065  0.2199
  643MOL0     C84746   8.149   6.623   3.384 -0.0022  0.1858  0.1938
  643MOL0     O84747   8.198   6.585   3.508  0.5299  0.5668  0.2532
  643MOL0     C84748   8.327   6.621   3.546  0.5618 -0.0072 -0.1895
  643MOL0     C84749   8.427   6.524   3.567 -0.5219  0.7127  0.3235
  643MOL0     C84750   8.558   6.546   3.609 -0.1184  1.3531  1.3154
  643MOL0     C84751   8.583   6.682   3.646  0.2374  0.6747 -0.2320
  643MOL0     O84752   8.707   6.731   3.680  0.0619 -1.2421  0.1376
  643MOL0     C84753   8.808   6.727   3.586  0.6118 -0.6097 -0.2423
  643MOL0     C84754   8.934   6.752   3.670  0.6797  0.1577 -0.1446
  643MOL0     C84755   9.010   6.881   3.644  0.2926  0.0524  0.7782
  643MOL0     C84756   9.137   6.862   3.716 -0.1587  0.3588  0.7220
  643MOL0     C84757   9.224   6.979   3.683  0.8455 -0.5419 -0.6776
  643MOL0     C84758   9.290   6.949   3.553 -0.8532 -0.0802  0.3057
  643MOL0     C84759   9.425   7.019   3.533 -0.3189  0.2307 -0.9407
  643MOL0     C84760   9.475   7.003   3.385  0.5023  0.1813  0.0545
  643MOL0     N84761   9.586   7.098   3.357 -0.5150  0.2306 -0.1057
  643MOL0     C84762   9.577   7.236   3.375 -0.1942 -0.3543  0.3634
  643MOL0     C84763   9.671   7.299   3.298 -0.5116 -1.0742 -0.3835
  643MOL0     C84764   9.685   7.444   3.294 -0.5193 -0.6948 -0.4894
  643MOL0     C84765   9.579   7.526   3.213 -1.1940 -0.1216  0.1291
  643MOL0     C84766   9.598   7.677   3.193 -0.6960  0.2638 -0.0277
  643MOL0     C84767   9.468   7.749   3.166  0.5870 -0.0586  1.3016
  643MOL0     O84768   9.381   7.740   3.277  0.9689 -0.0164 -0.2799
  643MOL0     C84769   9.246   7.779   3.265  0.0156  1.0627  0.1054
  643MOL0     C84770   9.158   7.751   3.370  0.9168  0.1181  0.4287
  643MOL0     C84771   9.023   7.784   3.366 -0.7627  1.2296  1.0279
  643MOL0     C84772   8.969   7.842   3.254 -0.6058 -0.6891  1.2581
  643MOL0     C84773   8.826   7.866   3.252 -0.0808 -0.6432 -0.6336
  643MOL0     O84774   8.755   7.808   3.351 -0.1923  0.2531 -0.5363
  643MOL0     C84775   8.620   7.807   3.346  0.1958  0.8101 -0.3121
  643MOL0     C84776   8.547   7.777   3.231  0.1683  0.6230 -0.4944
  643MOL0     C84777   8.411   7.765   3.224  0.1579 -0.1309 -0.0345
  643MOL0     C84778   8.338   7.778   3.345  0.0078 -0.1547  0.8462
  643MOL0     O84779   8.210   7.744   3.341  0.5825  0.5504  0.1009
  643MOL0     C84780   8.132   7.831   3.416  0.5810 -0.6523 -0.1382
  643MOL0     C84781   7.984   7.814   3.385  0.4238 -0.8173 -0.3009
  643MOL0     C84782   7.932   7.668   3.414  0.1097  0.1484 -0.0966
  643MOL0     C84783   7.782   7.665   3.346 -0.0958  0.4755  0.3867
  643MOL0     C84784   7.719   7.520   3.353 -0.5355 -0.1188 -0.0676
  643MOL0     C84785   7.708   7.449   3.488  0.1128 -0.6594 -0.0021
  643MOL0     C84786   7.674   7.309   3.480 -0.2983  0.4142 -0.0314
  643MOL0     C84787   7.624   7.228   3.590  0.5532 -2.0222  0.2320
  643MOL0    Cl84788   7.740   7.262   3.732  0.2556  0.1590 -0.0994
  643MOL0     C84789   8.406   7.808   3.469 -0.5889  1.0395  0.1082
  643MOL0     C84790   8.548   7.833   3.468  0.1850 -0.5266 -0.3229
  643MOL0     O84791   8.775   7.937   3.165  0.5762 -0.4662  0.3082
  643MOL0     C84792   9.053   7.897   3.151 -0.1956  0.5304 -0.4348
  643MOL0     C84793   9.197   7.852   3.155  0.4538 -0.0750  0.9070
  643MOL0     N84794   9.735   7.207   3.234  0.7643  0.2376 -0.4931
  643MOL0     N84795   9.683   7.090   3.259 -0.2121 -0.1483  0.2280
  643MOL0     C84796   8.476   6.772   3.639 -0.2937  0.3779  0.1653
  643MOL0     C84797   8.353   6.748   3.585  0.8968  0.3300  0.4234
  643MOL0     C84798   8.031   6.550   3.345  0.6472  0.3036  0.1718
  643MOL0     C84799   7.949   6.490   3.440 -0.0010  0.5948 -0.5017
  643MOL0     C84800   7.835   6.425   3.397 -0.0915  0.2353  0.1339
  643MOL0     C84801   7.792   6.414   3.260 -1.3717  0.3364  0.2267
  643MOL0     O84802   7.675   6.365   3.205  0.0009 -0.8915  0.5733
  643MOL0     C84803   7.597   6.279   3.291 -0.0022 -0.3968  0.5523
  643MOL0     C84804   7.477   6.219   3.213 -0.6403 -0.3656 -1.0488
  643MOL0     C84805   7.355   6.299   3.257  0.5038  0.8186  0.6451
  643MOL0     C84806   7.240   6.279   3.161  0.3273  0.1340  0.3737
  643MOL0     C84807   7.122   6.339   3.221  0.1433  0.2576 -0.1474
  643MOL0     C84808   7.020   6.384   3.279 -0.6751 -0.0299  0.1980
  643MOL0     C84809   7.873   6.475   3.170 -0.6410  0.0629 -0.1041
  643MOL0     C84810   7.990   6.536   3.207 -0.3829 -0.5764  0.3608
  643MOL0     H84811   8.402   6.420   3.548  2.7647 -0.4525  1.6324
  643MOL0     H84812   8.631   6.467   3.624  1.2261  2.6115  1.5826
  643MOL0     H84813   8.786   6.797   3.505 -0.7161 -2.0112 -1.1276
  643MOL0     H84814   8.810   6.625   3.549  0.8426 -0.4669 -0.6210
  643MOL0     H84815   8.996   6.664   3.646  0.9360  0.0814  0.7310
  643MOL0     H84816   8.920   6.735   3.778 -1.7987 -0.3764 -0.4838
  643MOL0     H84817   8.955   6.971   3.674 -2.2089 -0.5933 -1.4601
  643MOL0     H84818   9.036   6.894   3.538  3.3414 -3.1143  0.9704
  643MOL0     H84819   9.120   6.874   3.823 -0.4593  0.3623  0.6742
  643MOL0     H84820   9.184   6.766   3.693 -1.1856 -0.5340  2.1946
  643MOL0     H84821   9.295   6.985   3.767  1.8936  1.8920 -1.6356
  643MOL0     H84822   9.161   7.068   3.684  0.3461 -0.5566 -5.9794
  643MOL0     H84823   9.223   6.976   3.471 -0.2871 -1.0080 -0.4950
  643MOL0     H84824   9.305   6.841   3.541  1.9845  0.3388 -0.8215
  643MOL0     H84825   9.416   7.121   3.570  2.9925 -0.0173  1.0322
  643MOL0     H84826   9.500   6.980   3.603 -0.1853  0.8624 -0.7289
  643MOL0     H84827   9.387   7.031   3.326 -1.4642 -0.4972  2.4944
  643MOL0     H84828   9.494   6.899   3.360 -2.4546  0.6252 -5.4781
  643MOL0     H84829   9.511   7.291   3.441 -0.5204 -1.1732  0.7469
  643MOL0     H84830   9.785   7.465   3.255  0.1066 -4.0926 -0.9886
  643MOL0     H84831   9.682   7.484   3.396 -2.0345 -1.0093 -0.3852
  643MOL0     H84832   9.485   7.508   3.265  0.1094 -0.8219  2.3614
  643MOL0     H84833   9.574   7.485   3.111 -4.1395  3.2948 -1.3087
  643MOL0     H84834   9.644   7.717   3.284 -1.5393 -1.7448  1.3510
  643MOL0     H84835   9.672   7.699   3.115  1.6270 -1.8817  1.4276
  643MOL0     H84836   9.422   7.712   3.074  1.9300  0.9320  0.1801
  643MOL0     H84837   9.487   7.854   3.145  2.1529 -1.0217 -3.5062
  643MOL0     H84838   9.199   7.688   3.448  3.7954  3.2264  1.6960
  643MOL0     H84839   8.967   7.750   3.452 -0.6420 -0.0432  0.6155
  643MOL0     H84840   8.596   7.757   3.136 -0.7929 -2.0127 -0.5356
  643MOL0     H84841   8.353   7.731   3.139 -0.7461  0.3201  0.3918
  643MOL0     H84842   8.155   7.937   3.403  0.1155 -0.7428 -1.9441
  643MOL0     H84843   8.137   7.809   3.523 -2.1552 -2.8772 -0.3579
  643MOL0     H84844   7.957   7.840   3.282 -0.7445  0.9786  0.3979
  643MOL0     H84845   7.927   7.883   3.449  0.6979 -0.0946 -0.8198
  643MOL0     H84846   7.930   7.641   3.520 -1.2073 -0.4543 -0.2566
  643MOL0     H84847   7.992   7.587   3.370  0.5833 -0.0260  0.8520
  643MOL0     H84848   7.723   7.740   3.399 -0.6963 -0.8867  1.7097
  643MOL0     H84849   7.796   7.696   3.242  0.9385  0.1660  0.4142
  643MOL0     H84850   7.779   7.462   3.283 -0.5947 -0.8475  0.4680
  643MOL0     H84851   7.614   7.524   3.321  0.1222 -0.5561 -2.4923
  643MOL0     H84852   7.631   7.489   3.555  0.4960 -1.5520  1.0078
  643MOL0     H84853   7.805   7.451   3.540 -0.1387  1.4413  0.4947
  643MOL0     H84854   7.585   7.314   3.417 -1.1684  3.6751  1.2613
  643MOL0     H84855   7.755   7.247   3.440  0.2288 -0.5303  2.3306
  643MOL0     H84856   7.615   7.124   3.557  0.2392 -1.9214 -0.0001
  643MOL0     H84857   7.528   7.269   3.624  1.6513  2.4182 -1.3683
  643MOL0     H84858   8.348   7.803   3.561  0.1391 -1.0517  0.5080
  643MOL0     H84859   8.610   7.864   3.551  0.5845  0.6060 -1.0145
  643MOL0     H84860   9.014   7.952   3.065 -1.1671 -1.9578 -1.6854
  643MOL0     H84861   9.262   7.880   3.073 -3.1921 -0.1394 -2.2811
  643MOL0     H84862   8.502   6.873   3.667  1.6169 -0.4443  1.5653
  643MOL0     H84863   8.277   6.825   3.591  0.4040 -0.0718 -0.6242
  643MOL0     H84864   7.977   6.498   3.545 -0.8464 -0.2362 -0.2055
  643MOL0     H84865   7.764   6.398   3.474  1.0865 -2.3242  0.4490
  643MOL0     H84866   7.557   6.344   3.370 -3.5167  0.0301 -1.3526
  643MOL0     H84867   7.660   6.201   3.335  2.7199  0.0833 -2.1971
  643MOL0     H84868   7.516   6.231   3.111  2.6482  1.1501  0.2405
  643MOL0     H84869   7.468   6.110   3.219  0.4090 -0.3817  3.6994
  643MOL0     H84870   7.381   6.406   3.263 -1.2246  1.4436 -1.6349
  643MOL0     H84871   7.320   6.258   3.352  0.8021  2.5597  1.5509
  643MOL0     H84872   7.271   6.332   3.071 -0.9013  0.3024  0.0302
  643MOL0     H84873   7.229   6.173   3.134 -0.1104 -0.4850  2.7350
  643MOL0     H84874   6.936   6.418   3.336  1.4901  0.0790  3.5394
  643MOL0     H84875   7.840   6.484   3.067 -5.5127 -0.4903  1.2019
  643MOL0     H84876   8.055   6.573   3.129 -0.2467 -0.2949  0.6040
  644MOL0     O84877   4.640   7.932   7.070 -0.5731  0.0259 -0.4425
  644MOL0     C84878   4.729   7.964   7.150 -0.5771 -0.0140  0.3840
  644MOL0     O84879   4.719   8.060   7.242 -0.8012 -1.1200  0.0303
  644MOL0     C84880   4.595   8.111   7.251  0.5795 -1.0374  0.5520
  644MOL0     C84881   4.560   8.211   7.159  0.1808 -1.0316  0.0430
  644MOL0     C84882   4.436   8.257   7.144  0.5542  0.8381  0.1069
  644MOL0     C84883   4.329   8.200   7.223 -0.3091 -0.3537 -0.3973
  644MOL0     O84884   4.197   8.240   7.211  0.3582  0.8240 -0.5943
  644MOL0     C84885   4.141   8.213   7.076 -0.1178  0.1860 -0.9388
  644MOL0     C84886   4.061   8.350   7.045 -0.3147  1.1298  0.5848
  644MOL0     C84887   4.011   8.356   6.898 -0.3168 -0.6575  0.4751
  644MOL0     C84888   3.935   8.495   6.870 -0.3321  0.0253  0.9249
  644MOL0     C84889   3.804   8.513   6.955 -0.0831  0.4608  0.9464
  644MOL0     C84890   3.709   8.392   6.962  0.4193  0.3261  0.3328
  644MOL0     C84891   3.574   8.426   7.030 -1.9196 -1.2468 -0.2693
  644MOL0     C84892   3.476   8.486   6.923 -0.3477 -0.0897  1.2997
  644MOL0     N84893   3.339   8.508   6.974  0.1849  0.5522 -0.0502
  644MOL0     C84894   3.249   8.402   6.992  0.3444  1.3649 -0.5896
  644MOL0     C84895   3.122   8.455   6.978 -0.5629  0.4248  0.3345
  644MOL0     C84896   2.997   8.383   6.980  0.5335  0.2509 -0.6559
  644MOL0     C84897   2.892   8.480   7.043  0.4937  0.4375  0.3526
  644MOL0     C84898   2.754   8.408   7.034 -0.0530  0.5778  0.6634
  644MOL0     C84899   2.658   8.479   7.126 -0.1386  0.2899 -0.0264
  644MOL0     O84900   2.526   8.455   7.070  0.2207 -0.0526  0.8085
  644MOL0     C84901   2.470   8.330   7.077 -0.4082  0.0908  0.1522
  644MOL0     C84902   2.470   8.260   7.196 -0.0695  0.3976  0.5172
  644MOL0     C84903   2.425   8.135   7.194 -0.5048  0.6493  0.2156
  644MOL0     C84904   2.355   8.083   7.076 -0.3468 -0.3972 -0.2514
  644MOL0     C84905   2.275   7.955   7.083 -0.0840 -0.0995  0.1096
  644MOL0     O84906   2.298   7.871   7.188 -0.1273 -0.9878  0.7291
  644MOL0     C84907   2.222   7.761   7.207 -0.7726 -0.4146 -0.3180
  644MOL0     C84908   2.272   7.641   7.206 -0.7443  0.8011 -0.3393
  644MOL0     C84909   2.199   7.533   7.255 -0.3328  1.3391 -0.6210
  644MOL0     C84910   2.067   7.542   7.295  0.2826  0.1920  0.5888
  644MOL0     O84911   1.990   7.437   7.340 -0.3138  0.0879 -0.5119
  644MOL0     C84912   2.023   7.299   7.318  0.3828  0.3376  0.5884
  644MOL0     C84913   1.918   7.220   7.388  0.5488 -0.4767 -0.5836
  644MOL0     C84914   1.779   7.219   7.320 -1.3162 -0.6039  0.1315
  644MOL0     C84915   1.693   7.124   7.402  0.5039  0.7776 -0.4379
  644MOL0     C84916   1.539   7.122   7.359  1.0217 -0.4275  0.2411
  644MOL0     C84917   1.464   6.999   7.409  0.4471  0.1573 -0.3728
  644MOL0     C84918   1.311   7.015   7.412  0.6862 -0.6146 -0.1449
  644MOL0     C84919   1.248   6.883   7.468  0.1933 -0.1006 -0.0816
  644MOL0    Cl84920   1.267   6.878   7.642  0.6019  0.0337  0.2604
  644MOL0     C84921   2.015   7.671   7.283  0.0236  0.5080 -0.6273
  644MOL0     C84922   2.094   7.784   7.247 -0.9716  0.1629 -0.2485
  644MOL0     O84923   2.177   7.952   7.014 -0.4305  0.0851  0.8783
  644MOL0     C84924   2.352   8.153   6.958  0.3200 -0.0312  0.3172
  644MOL0     C84925   2.409   8.281   6.964  0.6049 -0.2989 -0.2054
  644MOL0     N84926   3.145   8.585   6.955  0.3983 -0.2379 -0.2293
  644MOL0     N84927   3.268   8.622   6.947  0.7937 -0.4894 -0.4444
  644MOL0     C84928   4.369   8.124   7.336  0.5400  0.1141  0.5007
  644MOL0     C84929   4.500   8.061   7.336  0.6722  0.1309 -0.1914
  644MOL0     C84930   4.856   7.898   7.146 -0.0043  0.3379 -0.6507
  644MOL0     C84931   4.939   7.911   7.257 -0.0024  0.0492 -0.4224
  644MOL0     C84932   5.070   7.850   7.255  0.9424  1.0796  0.3685
  644MOL0     C84933   5.111   7.765   7.143  0.0864 -0.1538 -0.3010
  644MOL0     O84934   5.231   7.686   7.143 -0.1303 -0.1802 -0.4483
  644MOL0     C84935   5.330   7.703   7.253  0.1856  0.3135  0.2793
  644MOL0     C84936   5.463   7.647   7.201 -0.3082 -1.4352  0.3503
  644MOL0     C84937   5.477   7.496   7.184  0.6235  0.6970 -0.0679
  644MOL0     C84938   5.394   7.421   7.296  0.0452  0.8449  1.0542
  644MOL0     C84939   5.433   7.279   7.282  0.3766  0.5249 -0.4749
  644MOL0     C84940   5.443   7.153   7.285  0.1881 -0.2010  0.6343
  644MOL0     C84941   5.034   7.767   7.029 -0.0076 -0.1603  0.1975
  644MOL0     C84942   4.908   7.826   7.038 -0.1913  1.1233 -0.1978
  644MOL0     H84943   4.645   8.247   7.103 -0.4765  1.8976  0.7427
  644MOL0     H84944   4.411   8.325   7.063 -0.9798 -3.5372 -3.5528
  644MOL0     H84945   4.075   8.127   7.095 -3.3460  3.0270  2.2900
  644MOL0     H84946   4.207   8.178   6.996 -2.7357 -3.3370 -1.8455
  644MOL0     H84947   4.125   8.435   7.072 -2.1937  3.5513 -2.0527
  644MOL0     H84948   3.971   8.356   7.106 -0.2097 -1.3420  1.0832
  644MOL0     H84949   3.944   8.272   6.877  1.9519 -2.5781  0.4987
  644MOL0     H84950   4.096   8.344   6.829 -1.4705  0.0913 -1.1401
  644MOL0     H84951   4.011   8.570   6.893 -0.7297  0.8063 -0.1965
  644MOL0     H84952   3.907   8.505   6.764  0.7230  0.2870  0.6622
  644MOL0     H84953   3.743   8.594   6.912  2.0531  1.1213 -1.1052
  644MOL0     H84954   3.825   8.546   7.057  2.0425  1.0861  0.3557
  644MOL0     H84955   3.758   8.315   7.021  0.5902 -0.2266 -0.5123
  644MOL0     H84956   3.690   8.347   6.864 -1.9939  0.5763  0.6375
  644MOL0     H84957   3.526   8.336   7.068 -1.1439 -0.7519  2.0814
  644MOL0     H84958   3.600   8.497   7.109 -2.4210  0.6779 -1.7489
  644MOL0     H84959   3.489   8.410   6.845  0.0009 -0.1761  1.4374
  644MOL0     H84960   3.515   8.576   6.875 -0.5152 -0.5554  0.2612
  644MOL0     H84961   3.275   8.297   7.003  1.1136  1.4901 -1.1907
  644MOL0     H84962   2.998   8.297   7.048 -0.4447  0.7608  0.0248
  644MOL0     H84963   2.961   8.343   6.885 -1.8139  4.0030 -1.5498
  644MOL0     H84964   2.883   8.577   6.992  4.7811 -1.3075 -4.7075
  644MOL0     H84965   2.923   8.493   7.147 -1.8896  0.4820  1.1102
  644MOL0     H84966   2.707   8.413   6.936  1.4626 -1.2372 -0.2324
  644MOL0     H84967   2.763   8.302   7.059  0.0374  0.7588  1.4268
  644MOL0     H84968   2.690   8.582   7.140  2.5865 -0.7786  3.1288
  644MOL0     H84969   2.681   8.435   7.224 -0.7157 -1.1289 -0.4943
  644MOL0     H84970   2.503   8.319   7.281  1.7574  2.4548 -1.4819
  644MOL0     H84971   2.423   8.087   7.291  2.3918 -1.1821 -0.4785
  644MOL0     H84972   2.370   7.622   7.165 -0.5692  1.0536 -0.0488
  644MOL0     H84973   2.256   7.441   7.268 -0.2667  1.5235  0.5711
  644MOL0     H84974   2.122   7.271   7.357  0.8822 -2.0857 -1.9987
  644MOL0     H84975   2.032   7.288   7.209 -3.4284  0.4856  0.1377
  644MOL0     H84976   1.913   7.254   7.492  0.0486 -3.9975  0.6882
  644MOL0     H84977   1.941   7.115   7.407 -0.4278 -0.3239  1.8011
  644MOL0     H84978   1.779   7.192   7.213 -0.1397  2.0038 -0.6042
  644MOL0     H84979   1.723   7.313   7.329  1.1398  0.7114  3.7128
  644MOL0     H84980   1.731   7.025   7.377  1.6730  1.4995 -1.6323
  644MOL0     H84981   1.700   7.142   7.510  0.8999 -0.6795 -0.2005
  644MOL0     H84982   1.533   7.119   7.250  3.0466  2.0946 -0.0425
  644MOL0     H84983   1.494   7.215   7.394 -0.1084 -0.5552 -0.7839
  644MOL0     H84984   1.498   6.969   7.508 -2.6329  0.4729  0.8966
  644MOL0     H84985   1.488   6.915   7.343  1.6060 -0.2496  0.5364
  644MOL0     H84986   1.274   7.100   7.471  1.3784 -0.3526 -0.0811
  644MOL0     H84987   1.267   7.034   7.314 -3.3585  4.2980  2.1430
  644MOL0     H84988   1.292   6.800   7.414 -0.9269  1.5784 -3.8917
  644MOL0     H84989   1.140   6.892   7.448  0.4754  2.3066 -0.9294
  644MOL0     H84990   1.911   7.678   7.312  0.3907 -1.0248  1.2744
  644MOL0     H84991   2.047   7.881   7.259 -0.7977 -0.0616  3.6672
  644MOL0     H84992   2.289   8.116   6.879 -0.1102  2.0361 -0.3782
  644MOL0     H84993   2.396   8.343   6.877  2.8049  0.3281 -0.1700
  644MOL0     H84994   4.298   8.092   7.412 -1.3590  0.7155 -0.9192
  644MOL0     H84995   4.529   7.990   7.413  2.1347 -1.0116 -1.7185
  644MOL0     H84996   4.911   7.954   7.352 -4.5036 -1.7028 -0.7091
  644MOL0     H84997   5.121   7.842   7.350  0.6589 -3.0623  0.3546
  644MOL0     H84998   5.303   7.656   7.349 -2.8186  2.5793  0.7021
  644MOL0     H84999   5.352   7.804   7.288  0.2074 -0.1186  1.6005
  644MOL0     H85000   5.494   7.705   7.113  0.8558  1.4734  2.5227
  644MOL0     H85001   5.547   7.669   7.267  0.7746 -1.6129 -0.9126
  644MOL0     H85002   5.584   7.480   7.201  0.8231  3.4085  1.9113
  644MOL0     H85003   5.454   7.462   7.083 -0.0593  3.3876 -0.9149
  644MOL0     H85004   5.413   7.467   7.394  0.4297  1.8996  0.4979
  644MOL0     H85005   5.288   7.432   7.274  0.7599  2.7707 -1.9947
  644MOL0     H85006   5.458   7.047   7.296  0.8433 -0.0527  1.2337
  644MOL0     H85007   5.051   7.703   6.943  0.8122  0.1197  0.1373
  644MOL0     H85008   4.841   7.810   6.954 -0.0742 -2.6502  0.2430
  645MOL0     O85009   7.542   4.660   8.154  0.0549 -0.2469  0.8043
  645MOL0     C85010   7.537   4.587   8.253 -0.5492  0.2906 -0.4111
  645MOL0     O85011   7.611   4.470   8.268  0.1112  0.5308  0.2324
  645MOL0     C85012   7.657   4.416   8.156  0.8084  0.0361  0.6106
  645MOL0     C85013   7.780   4.364   8.165 -1.0937  0.0697 -0.1950
  645MOL0     C85014   7.839   4.305   8.056  1.4768 -0.4211  0.5353
  645MOL0     C85015   7.781   4.304   7.924 -0.2540  0.3863  0.3164
  645MOL0     O85016   7.837   4.245   7.815 -0.7756  0.3546  0.1915
  645MOL0     C85017   7.964   4.173   7.826  0.0633 -0.9690 -0.1312
  645MOL0     C85018   8.023   4.176   7.688  0.6937 -0.3063  1.1647
  645MOL0     C85019   8.070   4.041   7.644 -0.3178 -0.0366  0.0199
  645MOL0     C85020   8.112   4.055   7.497 -0.3682  0.1499  0.8185
  645MOL0     C85021   8.179   3.921   7.448  0.1987  0.3050  0.1194
  645MOL0     C85022   8.085   3.800   7.416 -0.9258 -0.9050  1.0057
  645MOL0     C85023   8.162   3.694   7.348 -0.0142  0.0026  0.2522
  645MOL0     C85024   8.057   3.607   7.274  0.4440 -0.0562  0.0233
  645MOL0     N85025   8.118   3.480   7.229  0.3076  0.4204 -0.0622
  645MOL0     C85026   8.174   3.372   7.296  0.8506 -0.3289 -0.2582
  645MOL0     C85027   8.262   3.319   7.214  0.1717  0.9515 -0.1214
  645MOL0     C85028   8.324   3.187   7.244  0.3819  0.4041 -0.2754
  645MOL0     C85029   8.224   3.074   7.214  0.3914  0.2820 -0.4309
  645MOL0     C85030   8.195   3.049   7.056 -0.1914  0.4257 -0.5114
  645MOL0     C85031   8.097   3.140   6.978 -0.8731 -0.7223 -0.5532
  645MOL0     O85032   8.058   3.069   6.862 -0.4959 -0.7419  0.3063
  645MOL0     C85033   8.106   3.111   6.738 -0.9955 -0.6798 -0.1865
  645MOL0     C85034   8.088   3.007   6.637 -0.9988  0.7749 -0.9165
  645MOL0     C85035   8.143   3.018   6.510  0.4341  0.2875  0.5614
  645MOL0     C85036   8.210   3.142   6.470 -0.3117  0.5260  0.2972
  645MOL0     C85037   8.265   3.169   6.334  0.3983  0.9068  0.4744
  645MOL0     O85038   8.328   3.285   6.316  0.2065 -0.1351  0.5307
  645MOL0     C85039   8.395   3.310   6.198  0.4501 -0.3893 -0.2454
  645MOL0     C85040   8.361   3.257   6.078 -1.1922 -0.4689  0.1438
  645MOL0     C85041   8.441   3.294   5.967 -1.1430 -0.2600  0.2850
  645MOL0     C85042   8.563   3.364   5.974  0.2453 -0.2904 -0.7830
  645MOL0     O85043   8.642   3.380   5.864 -0.1855 -0.4986 -0.2292
  645MOL0     C85044   8.723   3.260   5.842 -0.1988 -0.5321  0.2322
  645MOL0     C85045   8.866   3.308   5.854 -0.7092  1.5982 -0.5249
  645MOL0     C85046   8.900   3.405   5.741  0.3234  0.1673  0.4932
  645MOL0     C85047   9.049   3.418   5.730  0.3842 -0.6026  0.9862
  645MOL0     C85048   9.130   3.296   5.690  0.7082 -1.0804 -0.3343
  645MOL0     C85049   9.117   3.250   5.544  0.0171  0.5456  0.6359
  645MOL0     C85050   9.146   3.366   5.441 -1.3366 -0.4916 -0.3054
  645MOL0     C85051   9.293   3.409   5.411  1.0440  0.7692  0.7052
  645MOL0    Cl85052   9.278   3.548   5.292 -0.6396  0.0952  0.4622
  645MOL0     C85053   8.589   3.427   6.097 -0.0387 -0.2609  0.1392
  645MOL0     C85054   8.506   3.408   6.208 -0.6204 -0.7242 -0.8955
  645MOL0     O85055   8.266   3.067   6.256  0.2627 -0.3678 -0.2871
  645MOL0     C85056   8.208   3.245   6.564  0.0996 -0.1673  0.5784
  645MOL0     C85057   8.163   3.232   6.694 -0.0461  0.3168  0.1838
  645MOL0     N85058   8.275   3.396   7.102 -0.3598 -0.9933  0.9667
  645MOL0     N85059   8.186   3.494   7.106 -1.3578 -0.6653  0.9201
  645MOL0     C85060   7.651   4.362   7.914  0.8831  0.0259 -0.9759
  645MOL0     C85061   7.586   4.408   8.031 -0.1661  0.2684 -0.3945
  645MOL0     C85062   7.477   4.629   8.379  0.5760 -1.2799  0.0460
  645MOL0     C85063   7.420   4.755   8.388 -0.5906  1.0498  0.3310
  645MOL0     C85064   7.346   4.795   8.503  0.0461  0.0433 -0.5465
  645MOL0     C85065   7.323   4.710   8.604 -0.2341 -0.6687 -0.0628
  645MOL0     O85066   7.234   4.750   8.700  0.0448 -0.0104  0.2997
  645MOL0     C85067   7.209   4.665   8.815 -0.3872  0.1684  0.1696
  645MOL0     C85068   7.163   4.742   8.935 -0.2327 -0.5893  0.1509
  645MOL0     C85069   7.122   4.644   9.047  0.1924 -0.8245 -0.1640
  645MOL0     C85070   7.069   4.721   9.175  0.0195  1.1405 -0.8281
  645MOL0     C85071   6.944   4.786   9.145  0.1983 -0.6546  0.0478
  645MOL0     C85072   6.836   4.838   9.119 -0.1752 -0.3499 -0.6574
  645MOL0     C85073   7.385   4.580   8.598  0.0040 -0.3695  0.3480
  645MOL0     C85074   7.448   4.538   8.478 -0.6092 -0.0839 -0.5064
  645MOL0     H85075   7.836   4.356   8.258 -0.6045 -0.3738 -0.5266
  645MOL0     H85076   7.938   4.266   8.079  1.8971 -0.5611 -1.3887
  645MOL0     H85077   7.948   4.067   7.846 -3.4364 -0.4303  0.6638
  645MOL0     H85078   8.027   4.217   7.904 -2.3324  1.5557  0.5470
  645MOL0     H85079   8.107   4.246   7.686 -0.0320  0.5745  0.0671
  645MOL0     H85080   7.945   4.191   7.612 -0.4286  0.2247  2.3893
  645MOL0     H85081   7.990   3.966   7.650 -1.0742  0.6620 -0.9249
  645MOL0     H85082   8.150   4.002   7.707 -0.5989 -0.0614  0.3589
  645MOL0     H85083   8.029   4.096   7.439 -0.5343  0.3267  1.1723
  645MOL0     H85084   8.177   4.143   7.498  1.6883 -1.3071 -0.1445
  645MOL0     H85085   8.252   3.901   7.527  1.6871  2.5074 -0.6243
  645MOL0     H85086   8.229   3.954   7.357  0.1958  5.0122  1.5194
  645MOL0     H85087   8.013   3.844   7.345  0.3522 -2.5809 -1.4639
  645MOL0     H85088   8.046   3.763   7.511  1.2071  1.9531  3.1732
  645MOL0     H85089   8.231   3.734   7.274  1.2986 -1.0226  0.8859
  645MOL0     H85090   8.221   3.641   7.423 -1.1610 -1.3694  0.2292
  645MOL0     H85091   8.003   3.655   7.192  0.5855  0.4563  0.2246
  645MOL0     H85092   7.983   3.591   7.353  1.4389  0.5480  1.1068
  645MOL0     H85093   8.144   3.342   7.396  0.4839  1.1327  0.0882
  645MOL0     H85094   8.346   3.189   7.351 -0.3595  1.5263 -0.1320
  645MOL0     H85095   8.418   3.165   7.193  0.7159  2.0072 -0.3763
  645MOL0     H85096   8.130   3.094   7.267  0.4215  0.3121 -0.3887
  645MOL0     H85097   8.260   2.982   7.260  2.6749  0.8798 -0.8960
  645MOL0     H85098   8.283   3.034   6.993 -0.9406 -1.6436 -1.1376
  645MOL0     H85099   8.157   2.947   7.055 -0.3488  0.4715  0.1754
  645MOL0     H85100   8.154   3.231   6.955  0.5041 -1.0925  1.0875
  645MOL0     H85101   8.013   3.163   7.044 -2.8027 -2.6308 -2.2061
  645MOL0     H85102   8.030   2.923   6.672  1.1166  0.2318  1.5137
  645MOL0     H85103   8.149   2.942   6.433  2.2189 -1.2898  2.1375
  645MOL0     H85104   8.282   3.186   6.054  0.2453 -2.2845  0.5702
  645MOL0     H85105   8.407   3.274   5.866  0.3046  2.3198 -0.8278
  645MOL0     H85106   8.692   3.230   5.742  0.2299  0.0778 -0.0978
  645MOL0     H85107   8.704   3.177   5.910 -1.5803 -1.3555 -1.1139
  645MOL0     H85108   8.929   3.220   5.838  0.3694  2.6880 -2.7334
  645MOL0     H85109   8.878   3.351   5.954  1.9031  0.4966 -0.2723
  645MOL0     H85110   8.865   3.508   5.756 -0.8756  0.5981 -3.8461
  645MOL0     H85111   8.854   3.370   5.648  0.5981  0.2140  0.3362
  645MOL0     H85112   9.070   3.505   5.667  2.9820  1.7915  4.7703
  645MOL0     H85113   9.085   3.458   5.825 -0.4034  0.2762  0.9365
  645MOL0     H85114   9.103   3.208   5.749 -0.9351 -0.0250  0.5545
  645MOL0     H85115   9.236   3.313   5.712  0.0871  2.4056  0.6593
  645MOL0     H85116   9.017   3.211   5.524  0.0474 -1.2014  3.4188
  645MOL0     H85117   9.186   3.167   5.525 -2.3901 -1.6136  0.7787
  645MOL0     H85118   9.094   3.332   5.351  0.5761 -1.2555 -1.1861
  645MOL0     H85119   9.098   3.455   5.482 -0.7447 -0.7291  0.9294
  645MOL0     H85120   9.342   3.327   5.358 -2.0244 -1.3569  0.9047
  645MOL0     H85121   9.341   3.430   5.507 -0.8156 -0.0657  1.8722
  645MOL0     H85122   8.681   3.485   6.102 -0.8181  0.9516  1.0365
  645MOL0     H85123   8.547   3.449   6.300 -1.5108 -1.5939 -0.0990
  645MOL0     H85124   8.242   3.344   6.533  0.0948 -0.3722 -0.0838
  645MOL0     H85125   8.151   3.310   6.768  1.3820  0.8864 -0.1495
  645MOL0     H85126   7.592   4.365   7.824  0.1948  0.8509 -0.5156
  645MOL0     H85127   7.482   4.439   8.023 -1.0237 -2.2168  0.2542
  645MOL0     H85128   7.431   4.830   8.310  2.3423  1.9498  1.4703
  645MOL0     H85129   7.300   4.893   8.512  0.9517  0.3288  1.3129
  645MOL0     H85130   7.300   4.613   8.846  2.1105  3.2352 -1.4307
  645MOL0     H85131   7.135   4.589   8.789 -1.1578  0.1431  2.2572
  645MOL0     H85132   7.242   4.804   8.978 -0.7307 -1.0917  1.8672
  645MOL0     H85133   7.079   4.806   8.907  2.9888  3.9400 -0.3072
  645MOL0     H85134   7.212   4.584   9.063  0.0671 -1.4596 -1.7289
  645MOL0     H85135   7.044   4.573   9.017 -0.7218 -0.5254  1.3849
  645MOL0     H85136   7.050   4.644   9.251  0.5167 -0.8632 -2.6168
  645MOL0     H85137   7.146   4.792   9.205  0.3806  0.5153 -0.2509
  645MOL0     H85138   6.748   4.886   9.081  0.9719  2.3998 -0.0960
  645MOL0     H85139   7.367   4.510   8.680  0.8773  0.3085  1.1424
  645MOL0     H85140   7.499   4.442   8.483 -0.5007 -0.2148 -2.8854
  646MOL0     O85141   2.532   3.681   7.097  0.7945 -0.1525  0.4902
  646MOL0     C85142   2.494   3.744   7.194  0.1062  0.3181  0.1197
  646MOL0     O85143   2.366   3.774   7.222 -0.4955  0.0141  1.0005
  646MOL0     C85144   2.262   3.740   7.145  0.5797 -0.7133  0.3269
  646MOL0     C85145   2.251   3.721   7.003 -0.1150 -0.2482 -0.4956
  646MOL0     C85146   2.135   3.665   6.945 -0.6410 -0.2907 -0.2523
  646MOL0     C85147   2.014   3.649   7.014 -0.0040  0.8500  0.4945
  646MOL0     O85148   1.915   3.596   6.933  0.8949 -0.2730 -0.2966
  646MOL0     C85149   1.800   3.545   7.011 -0.5159 -0.2584 -0.9827
  646MOL0     C85150   1.682   3.531   6.917  1.1836 -0.9077  0.1048
  646MOL0     C85151   1.709   3.412   6.819  0.5925 -0.1859  0.6076
  646MOL0     C85152   1.621   3.404   6.690 -0.0326  0.4945 -1.0197
  646MOL0     C85153   1.470   3.389   6.729 -0.4769  0.8130 -0.2568
  646MOL0     C85154   1.443   3.243   6.779 -0.1186  0.0049 -0.0745
  646MOL0     C85155   1.309   3.230   6.855  0.3570  0.4635 -0.0452
  646MOL0     C85156   1.321   3.264   7.007 -0.3673  0.9769  0.5492
  646MOL0     N85157   1.190   3.296   7.061 -0.2509 -0.3146  0.1070
  646MOL0     C85158   1.101   3.208   7.119 -1.0096 -0.0999 -0.3102
  646MOL0     C85159   0.987   3.272   7.135 -0.5903 -0.3419 -0.6037
  646MOL0     C85160   0.854   3.224   7.203 -0.2950 -1.3561 -0.4519
  646MOL0     C85161   0.741   3.176   7.118 -0.1734  0.0732  0.4180
  646MOL0     C85162   0.696   3.275   7.006 -0.4698 -0.1757 -0.1093
  646MOL0     C85163   0.649   3.411   7.066 -0.0675  0.7150  0.4717
  646MOL0     O85164   0.578   3.484   6.955 -0.1912  0.2418  0.1768
  646MOL0     C85165   0.479   3.572   6.983 -0.1615  0.2882 -0.7288
  646MOL0     C85166   0.465   3.623   7.117  0.8205 -0.3189 -0.0431
  646MOL0     C85167   0.357   3.707   7.148  0.4447 -0.1830  0.7034
  646MOL0     C85168   0.253   3.730   7.059  0.2199  0.1909  0.5824
  646MOL0     C85169   0.129   3.804   7.093  0.2004 -1.1313 -0.5455
  646MOL0     O85170   0.049   3.832   6.987 -0.0643  0.4709  0.3386
  646MOL0     C85171  -0.072   3.903   6.998 -0.4819  0.0769  0.4137
  646MOL0     C85172  -0.104   3.992   6.896  0.5197 -0.2138  0.4350
  646MOL0     C85173  -0.223   4.061   6.903 -0.4983  0.0611  0.1966
  646MOL0     C85174  -0.306   4.054   7.012  0.3960 -0.1566 -0.5278
  646MOL0     O85175  -0.432   4.106   7.024  0.5627 -0.6548 -0.4957
  646MOL0     C85176  -0.501   4.167   6.904  0.3960 -0.9564  0.3440
  646MOL0     C85177  -0.622   4.245   6.962  0.8027 -0.4451  0.3580
  646MOL0     C85178  -0.684   4.328   6.848  0.4893 -0.3380  0.4498
  646MOL0     C85179  -0.782   4.428   6.905  0.0989  0.3289 -1.0025
  646MOL0     C85180  -0.865   4.501   6.798  0.4287  0.0064  0.3238
  646MOL0     C85181  -0.998   4.565   6.852 -0.2387  0.6060 -0.1423
  646MOL0     C85182  -1.079   4.608   6.733  0.0426 -0.0931  0.5134
  646MOL0     C85183  -1.184   4.712   6.765  0.5129  1.1144 -0.9271
  646MOL0    Cl85184  -1.347   4.628   6.814  0.1443  0.1129 -0.1671
  646MOL0     C85185  -0.279   3.964   7.113  0.6931 -0.7370 -0.3129
  646MOL0     C85186  -0.164   3.885   7.106  0.0206 -0.2214 -0.4649
  646MOL0     O85187   0.129   3.871   7.194  0.6461 -0.2628 -0.0870
  646MOL0     C85188   0.272   3.684   6.926 -0.1181  0.2641 -0.1279
  646MOL0     C85189   0.387   3.602   6.888  1.4084  0.5493  0.8714
  646MOL0     N85190   1.001   3.401   7.081  0.5284 -0.5988  0.0447
  646MOL0     N85191   1.129   3.419   7.053  0.4642 -0.0406  0.1666
  646MOL0     C85192   2.024   3.681   7.149  0.9896  0.3209  0.2813
  646MOL0     C85193   2.136   3.738   7.209 -0.1664  0.4145 -0.0404
  646MOL0     C85194   2.593   3.766   7.296 -0.1835  0.4691 -1.1703
  646MOL0     C85195   2.597   3.881   7.374  0.2061 -0.1517  0.2298
  646MOL0     C85196   2.694   3.897   7.475 -0.3597 -0.3273  0.5657
  646MOL0     C85197   2.786   3.794   7.489  0.7106  0.1799 -0.1343
  646MOL0     O85198   2.860   3.813   7.608  0.8411 -0.3984  0.0291
  646MOL0     C85199   2.855   3.716   7.721 -0.3120 -0.8542  0.0406
  646MOL0     C85200   2.993   3.656   7.745 -0.4236  0.2287  0.2439
  646MOL0     C85201   2.998   3.563   7.860 -0.5520  0.3907 -0.4760
  646MOL0     C85202   3.145   3.548   7.906  0.2466 -0.0700  0.0071
  646MOL0     C85203   3.159   3.471   8.029  0.0134  0.1858  0.5218
  646MOL0     C85204   3.158   3.400   8.123 -0.1089 -0.5768 -0.3790
  646MOL0     C85205   2.779   3.680   7.416  0.5345 -0.7227  0.0967
  646MOL0     C85206   2.683   3.665   7.316  0.3285  0.3811  0.0541
  646MOL0     H85207   2.342   3.731   6.944  0.9728  2.3396  1.4324
  646MOL0     H85208   2.132   3.629   6.842 -0.6388  0.5838 -0.5733
  646MOL0     H85209   1.776   3.616   7.090  1.0172  0.2253 -0.9393
  646MOL0     H85210   1.831   3.447   7.050  3.4986  1.2861  0.1363
  646MOL0     H85211   1.648   3.619   6.863  1.7361 -0.2286  0.8460
  646MOL0     H85212   1.594   3.510   6.979  1.1451  0.0919  0.3978
  646MOL0     H85213   1.696   3.315   6.869 -0.7721  0.8513  2.3537
  646MOL0     H85214   1.816   3.410   6.794  0.6568 -2.1674  0.8395
  646MOL0     H85215   1.620   3.493   6.627 -0.7731  2.8691  2.1043
  646MOL0     H85216   1.649   3.317   6.631 -4.9713 -1.6303 -0.7513
  646MOL0     H85217   1.408   3.407   6.641  0.6512 -2.5408 -1.8776
  646MOL0     H85218   1.444   3.449   6.818 -2.0399 -2.7036  1.8630
  646MOL0     H85219   1.525   3.209   6.843  1.7330 -0.1580 -2.4394
  646MOL0     H85220   1.423   3.179   6.693  0.3648 -1.5417  0.9274
  646MOL0     H85221   1.221   3.284   6.818 -1.2946 -2.1583 -0.1804
  646MOL0     H85222   1.287   3.123   6.863  0.6411  0.4877  1.3228
  646MOL0     H85223   1.383   3.351   7.026 -0.8889  1.0358  2.0929
  646MOL0     H85224   1.363   3.179   7.061 -0.3840  1.6137  1.5851
  646MOL0     H85225   1.111   3.102   7.142 -0.7688  0.3648  1.9795
  646MOL0     H85226   0.810   3.309   7.255 -1.0691 -1.0292 -1.6009
  646MOL0     H85227   0.890   3.157   7.282 -0.8307  0.2218  1.1901
  646MOL0     H85228   0.650   3.172   7.180 -1.8767  3.5726 -1.5108
  646MOL0     H85229   0.764   3.082   7.068  2.0938  0.9289 -0.2496
  646MOL0     H85230   0.775   3.282   6.930 -0.7563 -2.7009 -0.7240
  646MOL0     H85231   0.615   3.227   6.950 -0.7417  2.5423 -2.3065
  646MOL0     H85232   0.720   3.481   7.111 -1.0991  4.4620 -3.1868
  646MOL0     H85233   0.577   3.384   7.144 -1.5962 -0.5590 -1.2996
  646MOL0     H85234   0.535   3.606   7.198 -0.6425 -1.2793  1.0781
  646MOL0     H85235   0.368   3.758   7.244  3.2709  0.5250  0.0920
  646MOL0     H85236  -0.025   4.000   6.823  0.6522  2.0069  0.7409
  646MOL0     H85237  -0.243   4.129   6.820  1.1088  0.0800 -0.2152
  646MOL0     H85238  -0.535   4.086   6.838  0.9157  0.5112 -1.8134
  646MOL0     H85239  -0.443   4.241   6.848 -4.1748  2.7467 -0.1176
  646MOL0     H85240  -0.578   4.325   7.022 -1.4612  2.0825 -1.1111
  646MOL0     H85241  -0.695   4.183   7.015  1.2023 -0.0336  1.4063
  646MOL0     H85242  -0.731   4.255   6.781 -0.6146  0.9930 -0.2805
  646MOL0     H85243  -0.607   4.389   6.800  2.4725 -1.1031  2.4939
  646MOL0     H85244  -0.861   4.391   6.971  0.1475  4.1249  1.5053
  646MOL0     H85245  -0.726   4.502   6.962 -0.1015  1.7220 -2.5264
  646MOL0     H85246  -0.884   4.423   6.724  3.9878 -1.6425  0.9156
  646MOL0     H85247  -0.801   4.569   6.740  3.6005 -0.6324  2.7617
  646MOL0     H85248  -0.973   4.655   6.909  1.7503  0.3530 -0.5413
  646MOL0     H85249  -1.058   4.501   6.916 -2.9786  4.4151  1.4587
  646MOL0     H85250  -1.004   4.658   6.670  2.3255 -1.3096  2.1184
  646MOL0     H85251  -1.119   4.525   6.674 -0.8869  2.0245 -2.0504
  646MOL0     H85252  -1.207   4.777   6.680 -2.4647 -0.8157 -1.7281
  646MOL0     H85253  -1.142   4.778   6.842  0.2844 -0.1509  0.3116
  646MOL0     H85254  -0.349   3.952   7.196  1.9538 -2.5248  0.5613
  646MOL0     H85255  -0.124   3.818   7.181  1.2847 -3.1096 -3.4827
  646MOL0     H85256   0.187   3.684   6.859 -2.3900 -0.5916  2.5584
  646MOL0     H85257   0.395   3.563   6.787  1.7792  3.9520 -0.5537
  646MOL0     H85258   1.945   3.645   7.214 -0.4430  1.2553 -0.8645
  646MOL0     H85259   2.129   3.763   7.314  1.2187 -3.3020  1.1103
  646MOL0     H85260   2.522   3.957   7.356 -0.8714 -0.8091  1.7199
  646MOL0     H85261   2.685   3.983   7.540  0.9473  0.3007 -0.0740
  646MOL0     H85262   2.773   3.644   7.710 -0.5278 -0.5055 -0.6731
  646MOL0     H85263   2.834   3.770   7.815  1.5578 -2.0028  1.1717
  646MOL0     H85264   3.009   3.597   7.654 -2.1501  1.5676 -0.9924
  646MOL0     H85265   3.068   3.734   7.755  1.6442 -1.4235 -1.5334
  646MOL0     H85266   2.957   3.464   7.838  0.5252 -0.6449  1.7905
  646MOL0     H85267   2.951   3.611   7.946 -0.1629 -0.0637  0.0003
  646MOL0     H85268   3.211   3.504   7.829 -0.3260  0.3682 -0.7475
  646MOL0     H85269   3.177   3.648   7.937  0.9503 -0.9257  2.2324
  646MOL0     H85270   3.181   3.349   8.214  3.0978 -0.1871 -0.8508
  646MOL0     H85271   2.855   3.604   7.432 -0.1088 -1.3765  0.1117
  646MOL0     H85272   2.699   3.580   7.251 -0.8472  1.9255 -2.4015
  647MOL0     O85273   9.109   9.995   4.412  0.1390  0.3196  0.4734
  647MOL0     C85274   9.113   9.869   4.410  0.3095 -0.1496  0.7022
  647MOL0     O85275   9.000   9.791   4.391 -0.6741  0.2537 -0.3370
  647MOL0     C85276   8.877   9.856   4.393  1.2319  0.4172 -0.0154
  647MOL0     C85277   8.793   9.875   4.497  0.8473 -0.0735  0.2021
  647MOL0     C85278   8.669   9.931   4.490  0.7402 -0.6343  0.4007
  647MOL0     C85279   8.615   9.971   4.363  0.1743 -0.0989 -0.5944
  647MOL0     O85280   8.483  10.021   4.360 -0.0909 -0.4679 -0.1445
  647MOL0     C85281   8.393   9.946   4.283 -0.1557  1.2303 -0.3715
  647MOL0     C85282   8.273  10.032   4.254  0.5467  0.4637  0.9161
  647MOL0     C85283   8.161   9.972   4.173 -0.4165  0.0295  0.1102
  647MOL0     C85284   8.032   9.924   4.247 -0.3540 -0.2994 -0.2463
  647MOL0     C85285   7.906  10.000   4.207 -0.4715  0.2448 -0.2924
  647MOL0     C85286   7.811  10.015   4.326 -0.4396  0.3797 -0.0157
  647MOL0     C85287   7.703  10.124   4.308 -0.7090  1.0790  0.1292
  647MOL0     C85288   7.586  10.070   4.388  0.5272 -0.7230  0.0543
  647MOL0     N85289   7.484  10.169   4.398  0.5943 -0.3738  0.5258
  647MOL0     C85290   7.478  10.293   4.333  0.1706  0.3353 -0.3655
  647MOL0     C85291   7.345  10.329   4.337  0.6915  0.2320  0.9301
  647MOL0     C85292   7.288  10.465   4.302 -0.2377  0.0659  0.3019
  647MOL0     C85293   7.162  10.451   4.215  0.2964 -0.5487  0.1519
  647MOL0     C85294   7.036  10.487   4.294 -0.2566 -0.0065  0.7541
  647MOL0     C85295   6.903  10.461   4.218  0.3841 -0.1307 -0.1817
  647MOL0     O85296   6.877  10.335   4.147 -1.1922  0.6336 -0.2934
  647MOL0     C85297   6.748  10.289   4.142  0.4181  0.3389  0.3745
  647MOL0     C85298   6.714  10.169   4.209 -0.5636  0.4444  1.0663
  647MOL0     C85299   6.578  10.121   4.219 -1.0791 -0.6946  0.9140
  647MOL0     C85300   6.470  10.197   4.160  0.8828 -0.2764  0.1845
  647MOL0     C85301   6.322  10.159   4.190  0.9889  0.0063  0.2410
  647MOL0     O85302   6.312  10.047   4.261  0.5149 -0.4845 -0.5296
  647MOL0     C85303   6.188   9.986   4.267 -0.9924  0.9927 -0.0447
  647MOL0     C85304   6.145   9.906   4.157  0.6429  0.9438 -0.7224
  647MOL0     C85305   6.013   9.841   4.164  0.7867 -1.4684  0.7579
  647MOL0     C85306   5.929   9.871   4.272 -0.3767 -0.1596 -0.3064
  647MOL0     O85307   5.803   9.823   4.293  0.5397 -0.0803 -0.1473
  647MOL0     C85308   5.728   9.759   4.188  0.2498 -0.9867 -0.1407
  647MOL0     C85309   5.588   9.706   4.242 -0.3853  0.2762 -0.5945
  647MOL0     C85310   5.510   9.827   4.287 -0.5214 -0.1339  0.3175
  647MOL0     C85311   5.370   9.775   4.314 -0.0571  0.4540 -0.1997
  647MOL0     C85312   5.281   9.865   4.402 -0.1846 -0.3194  0.9451
  647MOL0     C85313   5.311   9.851   4.557  0.8735 -0.2087  0.8218
  647MOL0     C85314   5.212   9.904   4.655 -0.4816  0.0170 -0.5656
  647MOL0     C85315   5.193   9.818   4.775  0.6416 -0.2332  0.4608
  647MOL0    Cl85316   5.108   9.928   4.892  0.4313 -0.1108 -0.4748
  647MOL0     C85317   5.981   9.947   4.380  0.4703 -0.9846 -0.4590
  647MOL0     C85318   6.105  10.007   4.378  0.5001  0.4611  0.1610
  647MOL0     O85319   6.229  10.226   4.145  0.5154 -0.1351 -0.5784
  647MOL0     C85320   6.506  10.315   4.097 -0.4522  0.1244  0.6399
  647MOL0     C85321   6.644  10.361   4.088  0.0086 -0.0231  0.2260
  647MOL0     N85322   7.271  10.227   4.397  0.1670  0.1400 -0.0418
  647MOL0     N85323   7.355  10.145   4.442 -0.0659 -0.2808  0.0027
  647MOL0     C85324   8.699   9.949   4.248 -0.3138 -0.7894  0.5697
  647MOL0     C85325   8.829   9.889   4.269 -0.2430  0.0369  0.1141
  647MOL0     C85326   9.242   9.801   4.429 -1.0537 -0.7950 -0.1996
  647MOL0     C85327   9.349   9.885   4.470  0.3060  0.3105  0.1783
  647MOL0     C85328   9.473   9.841   4.501 -0.1661  0.6402  0.3366
  647MOL0     C85329   9.499   9.700   4.501 -0.7677 -0.0536  0.8151
  647MOL0     O85330   9.631   9.664   4.503  0.1747 -0.6881  0.3410
  647MOL0     C85331   9.673   9.528   4.529 -0.0057 -0.2450  0.1691
  647MOL0     C85332   9.822   9.541   4.544 -0.2726 -0.4474 -0.0453
  647MOL0     C85333   9.871   9.400   4.577 -0.0204  0.1025  0.5236
  647MOL0     C85334   9.904   9.381   4.731  0.0654  0.1676  0.4063
  647MOL0     C85335  10.000   9.477   4.773  0.5794  0.4685 -1.2046
  647MOL0     C85336  10.093   9.547   4.812  0.2515 -0.2613 -0.2351
  647MOL0     C85337   9.387   9.612   4.470 -0.5326 -0.5043 -0.2423
  647MOL0     C85338   9.266   9.660   4.430  0.4467  0.4580  0.3453
  647MOL0     H85339   8.831   9.854   4.597  1.8195 -0.8134 -0.3054
  647MOL0     H85340   8.610   9.929   4.582  1.7265  1.4112  1.1383
  647MOL0     H85341   8.360   9.859   4.342 -0.5009  1.9207  0.4669
  647MOL0     H85342   8.428   9.901   4.190 -1.2143 -2.0002  0.6423
  647MOL0     H85343   8.311  10.118   4.198  1.4497  0.0876  0.9319
  647MOL0     H85344   8.237  10.078   4.346  0.8360  0.9219  0.8009
  647MOL0     H85345   8.194   9.877   4.130 -2.4094  0.3991 -2.4297
  647MOL0     H85346   8.137  10.041   4.092  1.4770  0.5853 -0.0249
  647MOL0     H85347   8.015   9.818   4.230 -0.4916 -0.5182  1.1269
  647MOL0     H85348   8.039   9.928   4.356 -2.3891  0.5791 -0.1036
  647MOL0     H85349   7.851   9.952   4.126 -1.1558 -0.0255  0.3209
  647MOL0     H85350   7.926  10.100   4.167  1.0218 -0.4376 -1.3551
  647MOL0     H85351   7.864  10.046   4.417 -0.1888  0.6127 -0.2380
  647MOL0     H85352   7.774   9.913   4.340  0.7567 -0.4892 -2.4877
  647MOL0     H85353   7.742  10.219   4.347 -1.2689  1.1231  0.5899
  647MOL0     H85354   7.678  10.126   4.202  1.9540 -1.8061 -0.7230
  647MOL0     H85355   7.618  10.042   4.489 -1.0806 -0.1457  0.7680
  647MOL0     H85356   7.553   9.974   4.347  1.8039 -0.9837 -0.3979
  647MOL0     H85357   7.554  10.353   4.284  1.3967 -1.0414 -0.2281
  647MOL0     H85358   7.367  10.516   4.245 -0.7649 -0.2205 -0.7113
  647MOL0     H85359   7.272  10.520   4.395  1.9137  0.2982  0.5782
  647MOL0     H85360   7.148  10.350   4.176 -2.2428 -0.3189  0.2992
  647MOL0     H85361   7.179  10.507   4.122  3.3362 -0.8513  0.4417
  647MOL0     H85362   7.043  10.440   4.393  3.5957 -0.4949  0.4069
  647MOL0     H85363   7.029  10.594   4.317 -1.0948 -0.2642  1.8095
  647MOL0     H85364   6.888  10.534   4.138  0.7499 -0.7589 -0.8310
  647MOL0     H85365   6.829  10.485   4.296  0.4022 -1.3799  0.2463
  647MOL0     H85366   6.795  10.111   4.253 -1.9488 -0.1032  3.0334
  647MOL0     H85367   6.560  10.029   4.273  0.7855 -0.4460  2.0255
  647MOL0     H85368   6.207   9.895   4.069  0.5386  0.5756 -0.7511
  647MOL0     H85369   5.980   9.783   4.079 -3.0250  1.5180 -0.1309
  647MOL0     H85370   5.781   9.675   4.142  1.2830  0.4123 -1.6161
  647MOL0     H85371   5.726   9.837   4.112  0.6709 -0.9038 -0.0672
  647MOL0     H85372   5.595   9.622   4.312 -0.8632  0.8937  0.2052
  647MOL0     H85373   5.524   9.665   4.163  2.9630  0.2802 -3.5673
  647MOL0     H85374   5.518   9.906   4.212 -2.8288  0.1987  0.3630
  647MOL0     H85375   5.543   9.870   4.382  1.3035  0.4813 -0.5547
  647MOL0     H85376   5.320   9.758   4.219 -0.9691 -1.0718  0.5126
  647MOL0     H85377   5.382   9.679   4.366  0.5902 -1.2468 -3.2613
  647MOL0     H85378   5.179   9.838   4.375 -1.1015  2.7363  1.0106
  647MOL0     H85379   5.293   9.968   4.367  0.2436 -1.8085 -4.1089
  647MOL0     H85380   5.412   9.889   4.574  0.4824  1.3465 -0.1433
  647MOL0     H85381   5.328   9.745   4.579  0.4624 -0.2129  1.1281
  647MOL0     H85382   5.249   9.997   4.698  0.4531  0.0379 -1.3941
  647MOL0     H85383   5.114   9.916   4.608 -0.9399 -1.6046 -0.0921
  647MOL0     H85384   5.283   9.783   4.825  0.7816 -0.7337 -0.1300
  647MOL0     H85385   5.125   9.736   4.749  0.3486 -0.1187  0.8610
  647MOL0     H85386   5.919   9.949   4.469 -0.7684 -1.6289 -1.2876
  647MOL0     H85387   6.135  10.074   4.459  0.4415 -1.7066  2.0665
  647MOL0     H85388   6.432  10.384   4.059 -0.7722 -1.0991 -1.0190
  647MOL0     H85389   6.679  10.456   4.051  0.2369 -0.2127 -0.0546
  647MOL0     H85390   8.655   9.951   4.149  1.3248 -3.2042 -0.2950
  647MOL0     H85391   8.895   9.847   4.193  1.8164 -0.1186  1.8900
  647MOL0     H85392   9.350   9.993   4.478 -0.6143  0.3113  0.3485
  647MOL0     H85393   9.551   9.916   4.502  1.6166 -0.9736 -2.2535
  647MOL0     H85394   9.657   9.465   4.440 -0.5858 -0.0198  0.1095
  647MOL0     H85395   9.631   9.478   4.616 -1.0764  0.4604  0.0776
  647MOL0     H85396   9.868   9.572   4.450 -0.2009 -3.1679 -0.9797
  647MOL0     H85397   9.852   9.600   4.630 -1.2790 -2.1673  1.5608
  647MOL0     H85398   9.960   9.369   4.522  0.3603  0.4224  0.9577
  647MOL0     H85399   9.801   9.321   4.547 -0.7670  1.1539 -0.6036
  647MOL0     H85400   9.812   9.404   4.786 -0.1214  1.4604 -0.3886
  647MOL0     H85401   9.935   9.281   4.762 -0.9242 -0.5466 -0.8301
  647MOL0     H85402  10.180   9.605   4.836 -0.3318  1.1540 -1.3944
  647MOL0     H85403   9.407   9.506   4.459  2.2623 -0.0512 -0.2504
  647MOL0     H85404   9.185   9.593   4.403  0.2927  1.0342 -0.6733
  648MOL0     O85405   7.043  11.320   5.620  0.1146 -0.4264 -0.2676
  648MOL0     C85406   6.941  11.304   5.685 -0.5751 -0.2086  0.3468
  648MOL0     O85407   6.931  11.330   5.808  0.1721  0.0652 -0.4357
  648MOL0     C85408   7.043  11.392   5.881  0.5075 -0.5833  0.8046
  648MOL0     C85409   7.063  11.529   5.844  0.6611 -0.2155 -0.5218
  648MOL0     C85410   7.140  11.598   5.934 -0.0384 -0.1430 -0.3189
  648MOL0     C85411   7.221  11.530   6.026 -0.4758  0.7082  0.3429
  648MOL0     O85412   7.305  11.596   6.113  0.6921  0.5239 -0.0114
  648MOL0     C85413   7.385  11.691   6.051 -0.0399 -0.8351 -0.0752
  648MOL0     C85414   7.480  11.742   6.164 -0.3772 -0.9182  0.5487
  648MOL0     C85415   7.570  11.638   6.235  0.4017  0.6165 -0.0362
  648MOL0     C85416   7.559  11.624   6.386  0.2525 -0.1336 -0.5023
  648MOL0     C85417   7.664  11.525   6.448 -0.1302 -0.2031  0.5666
  648MOL0     C85418   7.672  11.522   6.597  0.4420 -0.1634 -0.7194
  648MOL0     C85419   7.531  11.519   6.668 -0.1683 -0.3171  0.5803
  648MOL0     C85420   7.468  11.385   6.628  0.3618 -0.1498 -0.1885
  648MOL0     N85421   7.344  11.352   6.702 -0.8887 -0.1277 -0.4583
  648MOL0     C85422   7.333  11.331   6.836  0.2699  1.1570  0.4303
  648MOL0     C85423   7.203  11.357   6.858  0.4188 -0.0668  0.4832
  648MOL0     C85424   7.137  11.339   6.994 -0.5467  0.1672 -0.0327
  648MOL0     C85425   7.121  11.197   7.040  0.0787  0.0579 -0.4081
  648MOL0     C85426   7.045  11.194   7.178  0.3241  0.7009  0.7693
  648MOL0     C85427   6.889  11.201   7.165  0.5020 -0.5364  0.0677
  648MOL0     O85428   6.835  11.097   7.248  0.0737  1.0158 -0.2321
  648MOL0     C85429   6.696  11.076   7.234 -1.1119  0.0189  0.0832
  648MOL0     C85430   6.607  11.110   7.332  0.3164  0.8062  0.0760
  648MOL0     C85431   6.472  11.092   7.308  0.5973 -0.6978  0.0588
  648MOL0     C85432   6.415  11.038   7.194 -0.0761 -0.0597  0.4378
  648MOL0     C85433   6.273  11.023   7.179 -0.4633  0.2715 -0.1814
  648MOL0     O85434   6.210  11.054   7.292  0.2471 -0.0961  0.0418
  648MOL0     C85435   6.079  11.027   7.304  0.0398 -0.2738  0.2636
  648MOL0     C85436   6.005  11.136   7.343  0.0469  0.0280  0.5345
  648MOL0     C85437   5.877  11.125   7.387  0.6072  0.6065  0.5977
  648MOL0     C85438   5.807  10.997   7.380  0.0728 -0.5662 -0.3167
  648MOL0     O85439   5.687  10.982   7.431  0.5274  0.7127 -0.0506
  648MOL0     C85440   5.619  10.855   7.415  0.1191 -0.1124 -0.6863
  648MOL0     C85441   5.480  10.847   7.482  0.7343 -0.6644 -0.8319
  648MOL0     C85442   5.426  10.698   7.476  0.1604 -0.6880 -0.8677
  648MOL0     C85443   5.278  10.683   7.534 -0.3993  0.6429  0.4816
  648MOL0     C85444   5.187  10.792   7.487 -0.0623  0.0550  0.4073
  648MOL0     C85445   5.039  10.752   7.513 -0.6258  0.1621  0.1517
  648MOL0     C85446   4.994  10.618   7.442  0.1468  0.0213 -0.2634
  648MOL0     C85447   4.833  10.617   7.451  0.4598  0.6345  0.2035
  648MOL0    Cl85448   4.775  10.660   7.607  0.0977 -0.2262  0.0525
  648MOL0     C85449   5.887  10.889   7.332 -0.0460  0.5558 -0.3545
  648MOL0     C85450   6.024  10.897   7.299  0.2294  0.4913 -1.2628
  648MOL0     O85451   6.222  10.980   7.072 -0.2504 -0.3622  0.7589
  648MOL0     C85452   6.508  10.983   7.099  0.1287 -1.0502 -0.3170
  648MOL0     C85453   6.648  11.011   7.118 -0.0187 -0.0344 -0.1822
  648MOL0     N85454   7.139  11.378   6.740  1.2385 -0.7869  0.5278
  648MOL0     N85455   7.226  11.370   6.651  0.1989  0.2834 -0.0313
  648MOL0     C85456   7.216  11.389   6.044 -0.4951 -0.4582 -0.6183
  648MOL0     C85457   7.114  11.325   5.982  0.4960  0.4244 -0.0681
  648MOL0     C85458   6.821  11.254   5.603  0.2165 -0.3339 -0.3029
  648MOL0     C85459   6.697  11.275   5.658  0.5234  0.5759  0.2236
  648MOL0     C85460   6.585  11.243   5.581 -0.0339  0.2202  0.5242
  648MOL0     C85461   6.593  11.178   5.455  1.3371  0.4087 -0.3239
  648MOL0     O85462   6.489  11.168   5.365 -0.1438  0.3989 -0.5529
  648MOL0     C85463   6.496  11.255   5.257  0.0745 -1.0497  1.0999
  648MOL0     C85464   6.363  11.337   5.253  0.3715 -0.6696  0.3629
  648MOL0     C85465   6.371  11.475   5.312 -0.7005 -0.1817  0.2022
  648MOL0     C85466   6.245  11.521   5.384 -0.1219  0.9820 -0.0642
  648MOL0     C85467   6.248  11.663   5.430 -1.0819 -0.5079  0.4918
  648MOL0     C85468   6.249  11.784   5.462 -0.1196  1.1061  0.2114
  648MOL0     C85469   6.721  11.149   5.405  0.1810  0.2460  0.9834
  648MOL0     C85470   6.837  11.194   5.479  0.9643  0.3528  0.0645
  648MOL0     H85471   7.007  11.592   5.776  0.7875  0.4216 -0.0500
  648MOL0     H85472   7.150  11.706   5.937 -0.5982 -0.0941  1.1479
  648MOL0     H85473   7.327  11.775   6.011 -0.9570 -0.1947  2.4507
  648MOL0     H85474   7.446  11.648   5.971 -0.2041  1.8864 -1.8148
  648MOL0     H85475   7.424  11.796   6.241 -0.7628  0.7031 -0.7980
  648MOL0     H85476   7.549  11.813   6.118  1.1203 -1.2893  2.1209
  648MOL0     H85477   7.672  11.652   6.200  0.0712 -1.0716 -1.8701
  648MOL0     H85478   7.543  11.540   6.195 -0.5506  0.5034  0.8321
  648MOL0     H85479   7.574  11.726   6.422  0.6291 -0.3259 -0.1025
  648MOL0     H85480   7.457  11.591   6.405  0.1918  1.1108  1.6922
  648MOL0     H85481   7.765  11.529   6.406  0.4900 -0.7837  1.9436
  648MOL0     H85482   7.629  11.426   6.419 -0.9818  0.7925 -2.1218
  648MOL0     H85483   7.729  11.610   6.625  0.6075  0.4625 -2.8668
  648MOL0     H85484   7.719  11.427   6.626 -3.8771 -2.8256 -1.4372
  648MOL0     H85485   7.555  11.528   6.774  0.6026  1.9988  0.2722
  648MOL0     H85486   7.469  11.607   6.645 -0.6981 -0.5717  1.0269
  648MOL0     H85487   7.534  11.298   6.622 -1.4591 -1.6952  0.8894
  648MOL0     H85488   7.439  11.406   6.524  0.8237 -0.8364 -0.4601
  648MOL0     H85489   7.414  11.297   6.901  0.6551 -1.5269 -1.2744
  648MOL0     H85490   7.042  11.393   6.995 -0.1569  0.8494  0.6790
  648MOL0     H85491   7.193  11.396   7.067 -1.1822 -0.0738  0.6575
  648MOL0     H85492   7.219  11.149   7.038 -0.8957 -1.9912 -0.5584
  648MOL0     H85493   7.059  11.145   6.967 -0.1682 -0.6379  0.2967
  648MOL0     H85494   7.071  11.099   7.224 -0.4072  0.8450  1.4970
  648MOL0     H85495   7.068  11.272   7.253 -0.3180  1.8865 -0.2287
  648MOL0     H85496   6.854  11.191   7.062 -1.5883 -1.1428  0.7656
  648MOL0     H85497   6.843  11.285   7.218 -0.8048 -2.6069  2.4770
  648MOL0     H85498   6.655  11.160   7.415  2.8089  0.5109 -1.1032
  648MOL0     H85499   6.410  11.123   7.392  1.6702  1.9003  0.0002
  648MOL0     H85500   6.045  11.238   7.343  1.5088 -0.5186  0.5756
  648MOL0     H85501   5.826  11.214   7.422  0.3285  0.2878  1.0127
  648MOL0     H85502   5.679  10.767   7.440  3.0430  1.4572 -1.6880
  648MOL0     H85503   5.599  10.836   7.309 -1.5802 -1.1710 -0.2138
  648MOL0     H85504   5.419  10.913   7.420  2.5383  0.3904 -1.5557
  648MOL0     H85505   5.492  10.876   7.587  1.6835  0.6419 -1.2672
  648MOL0     H85506   5.499  10.631   7.522  0.7639 -0.0073 -0.8336
  648MOL0     H85507   5.411  10.675   7.370  0.9110 -0.2415 -1.0747
  648MOL0     H85508   5.254  10.578   7.515 -0.5084  0.4195  1.7270
  648MOL0     H85509   5.299  10.684   7.642  1.0818  1.2863  0.2129
  648MOL0     H85510   5.199  10.811   7.380 -1.4359  1.3053  0.4503
  648MOL0     H85511   5.202  10.885   7.542 -3.4243  1.2577 -0.4997
  648MOL0     H85512   4.984  10.842   7.484 -0.6134  0.0059 -0.3868
  648MOL0     H85513   5.050  10.731   7.619  0.6136 -1.1253 -0.1933
  648MOL0     H85514   5.026  10.628   7.338 -0.2441 -1.8745 -0.6090
  648MOL0     H85515   5.035  10.530   7.493 -1.2014  0.7474  2.2495
  648MOL0     H85516   4.785  10.522   7.429 -1.3265  0.9861  2.2749
  648MOL0     H85517   4.786  10.691   7.385  0.9788  0.8352  0.0486
  648MOL0     H85518   5.865  10.783   7.337  2.2184  0.0962  2.9901
  648MOL0     H85519   6.081  10.809   7.272 -1.5485 -0.3082 -2.6906
  648MOL0     H85520   6.481  10.953   6.998  0.8127  1.5578 -1.3612
  648MOL0     H85521   6.716  10.988   7.036 -2.2011 -0.3587 -2.0017
  648MOL0     H85522   7.288  11.347   6.114  0.7919  1.4294 -0.7142
  648MOL0     H85523   7.106  11.218   6.000 -0.1112  0.4875  0.0777
  648MOL0     H85524   6.680  11.318   5.756  2.7951  0.4879  0.7162
  648MOL0     H85525   6.490  11.284   5.615  0.4245  2.3153 -0.5602
  648MOL0     H85526   6.515  11.199   5.164 -0.1809 -2.4108  1.8480
  648MOL0     H85527   6.587  11.316   5.262 -0.5250 -0.0892  0.5504
  648MOL0     H85528   6.325  11.346   5.151 -0.8869 -0.4991  0.8316
  648MOL0     H85529   6.297  11.271   5.309  3.4616 -2.1628  2.5357
  648MOL0     H85530   6.392  11.549   5.234  0.5397 -2.3603 -1.6487
  648MOL0     H85531   6.459  11.469   5.376  1.3852 -5.3666 -2.5475
  648MOL0     H85532   6.154  11.514   5.323 -0.3629  0.1233  0.3738
  648MOL0     H85533   6.231  11.446   5.463  1.9467  1.3782  0.7250
  648MOL0     H85534   6.244  11.888   5.489 -0.8595  0.9212  0.8042
  648MOL0     H85535   6.749  11.118   5.305  4.8499  3.4986  0.9641
  648MOL0     H85536   6.937  11.183   5.436  1.7229 -1.9285  2.1992
  649MOL0     O85537  10.357   3.919   5.677  0.2660 -0.0545  0.2345
  649MOL0     C85538  10.280   3.967   5.590 -0.8600 -0.1221 -1.0990
  649MOL0     O85539  10.306   3.992   5.454  0.4310 -0.5445 -0.1320
  649MOL0     C85540  10.411   3.939   5.389 -0.1937 -1.2652 -0.6834
  649MOL0     C85541  10.476   3.820   5.420 -0.5389 -0.5030  0.2938
  649MOL0     C85542  10.566   3.770   5.322  0.6921 -0.7220  0.1117
  649MOL0     C85543  10.604   3.850   5.214 -0.3825  0.0158  0.7879
  649MOL0     O85544  10.709   3.796   5.141  0.5901 -0.3997 -0.0940
  649MOL0     C85545  10.744   3.871   5.030 -0.6273 -0.1097 -0.3600
  649MOL0     C85546  10.820   3.775   4.945  0.8130  0.4147  0.7690
  649MOL0     C85547  10.959   3.737   5.000  1.0248 -0.4626  0.3753
  649MOL0     C85548  11.062   3.738   4.897 -0.7267  0.7444  0.6302
  649MOL0     C85549  11.060   3.611   4.815  0.1336  0.2749 -0.6248
  649MOL0     C85550  11.152   3.595   4.690  1.2549 -0.6137 -0.2477
  649MOL0     C85551  11.286   3.546   4.750  0.0860  0.2271  0.2673
  649MOL0     C85552  11.398   3.549   4.656 -0.1090  0.1441 -0.0915
  649MOL0     N85553  11.515   3.490   4.725  0.1783 -1.0366  0.2303
  649MOL0     C85554  11.603   3.561   4.805  0.3379 -1.0575  0.3476
  649MOL0     C85555  11.708   3.484   4.823  0.2916 -0.7376  0.4107
  649MOL0     C85556  11.828   3.507   4.907 -0.3348  0.2436 -0.0538
  649MOL0     C85557  11.801   3.513   5.056  0.1440 -0.7027 -0.3838
  649MOL0     C85558  11.765   3.385   5.121  0.8252 -0.3267 -0.3859
  649MOL0     C85559  11.622   3.337   5.092  0.5776  0.0452 -0.4574
  649MOL0     O85560  11.504   3.423   5.113  0.0403 -0.4785 -0.2713
  649MOL0     C85561  11.379   3.374   5.102  0.2584 -0.3596 -0.6458
  649MOL0     C85562  11.356   3.231   5.077  0.5201 -0.5329  0.5645
  649MOL0     C85563  11.223   3.183   5.095 -0.0223 -0.0187 -0.5512
  649MOL0     C85564  11.121   3.267   5.118  0.1213 -0.0699  0.5545
  649MOL0     C85565  10.983   3.212   5.133 -0.4725  0.9492  0.3650
  649MOL0     O85566  10.883   3.295   5.089  0.2562 -0.4390 -1.0346
  649MOL0     C85567  10.750   3.265   5.091 -0.0889  0.6421  0.3596
  649MOL0     C85568  10.686   3.140   5.077 -0.3735 -0.7612  0.8242
  649MOL0     C85569  10.551   3.120   5.074  0.1979 -0.2943 -0.1255
  649MOL0     C85570  10.463   3.230   5.083  0.6578 -0.1876  0.9854
  649MOL0     O85571  10.329   3.211   5.096  0.2552  0.3474  0.3902
  649MOL0     C85572  10.227   3.296   5.036  0.6154  0.4694  0.1585
  649MOL0     C85573  10.101   3.236   5.113  0.9263  0.6225 -0.2163
  649MOL0     C85574   9.978   3.313   5.059 -0.1922  0.1261 -1.0533
  649MOL0     C85575   9.834   3.266   5.102  0.0074  0.3104 -0.0032
  649MOL0     C85576   9.734   3.368   5.044 -0.9084  0.1049  0.6849
  649MOL0     C85577   9.600   3.315   5.036 -0.2277  0.0249  0.4827
  649MOL0     C85578   9.501   3.391   4.954  0.4505 -0.2207  0.3629
  649MOL0     C85579   9.376   3.298   4.935  0.5597  0.3297  0.4778
  649MOL0    Cl85580   9.277   3.268   5.084 -0.1341  0.2433  0.4589
  649MOL0     C85581  10.521   3.357   5.083  0.8997 -0.7694 -0.2993
  649MOL0     C85582  10.660   3.377   5.093 -0.5129  1.1432 -0.2682
  649MOL0     O85583  10.975   3.115   5.202  0.3808  0.2896 -0.3346
  649MOL0     C85584  11.141   3.406   5.137 -0.3981 -0.4064 -0.0059
  649MOL0     C85585  11.262   3.458   5.120 -0.6815  0.5654 -0.5788
  649MOL0     N85586  11.689   3.366   4.761 -0.4989 -0.0200 -0.8289
  649MOL0     N85587  11.583   3.371   4.696  0.5249  0.2391  0.2760
  649MOL0     C85588  10.549   3.979   5.198  0.3282 -0.2006  0.0839
  649MOL0     C85589  10.438   4.021   5.278 -0.7569  0.0308  0.5321
  649MOL0     C85590  10.143   3.993   5.631 -0.5904  1.0004 -0.3104
  649MOL0     C85591  10.047   4.048   5.549  1.1081  0.8528 -0.3186
  649MOL0     C85592   9.914   4.068   5.588 -0.0235 -0.0605 -0.0781
  649MOL0     C85593   9.873   4.029   5.712 -0.9688 -0.0709  0.5978
  649MOL0     O85594   9.739   4.026   5.730  0.2710 -0.1285 -0.0116
  649MOL0     C85595   9.679   4.018   5.865  0.4609 -0.5340  1.2131
  649MOL0     C85596   9.534   4.057   5.835  0.1624  0.5708 -0.4833
  649MOL0     C85597   9.526   4.197   5.800  1.3819  0.1365 -0.0853
  649MOL0     C85598   9.380   4.231   5.825 -0.1608 -0.8694 -0.4051
  649MOL0     C85599   9.357   4.365   5.762  0.3857  1.0811 -0.8672
  649MOL0     C85600   9.346   4.477   5.726 -0.2115  0.0320  0.0632
  649MOL0     C85601   9.968   3.955   5.802  0.0057 -0.1249  0.4086
  649MOL0     C85602  10.107   3.942   5.762  0.0316 -0.4186 -0.1302
  649MOL0     H85603  10.452   3.763   5.509  0.0747 -1.8878 -0.4013
  649MOL0     H85604  10.611   3.672   5.330 -0.8613 -1.4785 -0.1121
  649MOL0     H85605  10.812   3.953   5.055 -2.3529  0.7579  1.9563
  649MOL0     H85606  10.662   3.924   4.981 -0.6932 -0.8929 -1.1278
  649MOL0     H85607  10.829   3.809   4.841 -0.4387  1.3317  0.9233
  649MOL0     H85608  10.763   3.682   4.947 -2.1643  2.1179  1.0286
  649MOL0     H85609  10.967   3.634   5.038  0.2108 -1.4068 -1.8088
  649MOL0     H85610  10.980   3.817   5.071 -2.0736  1.5252 -0.7686
  649MOL0     H85611  11.059   3.827   4.833 -1.8914  1.3151  1.4485
  649MOL0     H85612  11.157   3.758   4.947 -0.2876  0.6458 -0.1429
  649MOL0     H85613  10.961   3.609   4.767  1.1771 -1.8509 -2.9159
  649MOL0     H85614  11.075   3.535   4.892 -0.0608  1.3757  0.5420
  649MOL0     H85615  11.168   3.692   4.642  0.1345  3.0671  5.8053
  649MOL0     H85616  11.104   3.527   4.619  1.2248  0.8602 -1.6966
  649MOL0     H85617  11.308   3.593   4.846 -2.7986 -1.2991  1.8306
  649MOL0     H85618  11.273   3.443   4.785 -1.7452 -0.2110 -1.5191
  649MOL0     H85619  11.415   3.651   4.620  4.0126 -1.2024 -2.6718
  649MOL0     H85620  11.392   3.483   4.569  2.7118 -0.8429  0.3594
  649MOL0     H85621  11.585   3.648   4.867  1.1858 -0.1891 -0.5741
  649MOL0     H85622  11.857   3.610   4.884  0.8616  0.1101  0.8215
  649MOL0     H85623  11.905   3.434   4.881 -0.6912  0.3401 -1.5237
  649MOL0     H85624  11.727   3.590   5.079  0.5443 -0.1284 -0.9613
  649MOL0     H85625  11.895   3.542   5.104  0.0044 -1.9799  0.7253
  649MOL0     H85626  11.831   3.302   5.092  1.1391 -0.3284  0.3251
  649MOL0     H85627  11.773   3.389   5.230  1.9643  2.8809 -0.4942
  649MOL0     H85628  11.596   3.267   5.172 -1.1106 -3.4615 -3.7505
  649MOL0     H85629  11.621   3.284   4.996 -1.7090 -1.3962  0.2598
  649MOL0     H85630  11.437   3.163   5.053 -1.0179 -3.2331  2.5438
  649MOL0     H85631  11.203   3.079   5.072  2.4877 -1.7450  3.7836
  649MOL0     H85632  10.750   3.052   5.072 -1.7568 -1.7253 -1.8691
  649MOL0     H85633  10.502   3.024   5.074 -1.1357  0.2208  3.5507
  649MOL0     H85634  10.222   3.279   4.929  0.2291 -0.5897  0.3311
  649MOL0     H85635  10.236   3.403   5.057  1.5591  0.3796  0.2368
  649MOL0     H85636  10.101   3.247   5.222 -0.8658 -1.8619  0.1233
  649MOL0     H85637  10.093   3.127   5.112  0.3404  0.4010  4.5837
  649MOL0     H85638   9.978   3.288   4.953  0.7552 -3.5486 -0.3213
  649MOL0     H85639   9.985   3.417   5.092  2.1178 -0.5066  0.7326
  649MOL0     H85640   9.819   3.166   5.060  1.9842  0.4482 -1.1855
  649MOL0     H85641   9.829   3.264   5.211  1.7821 -1.5971  0.1058
  649MOL0     H85642   9.766   3.391   4.942  0.8406 -2.6317  0.4989
  649MOL0     H85643   9.733   3.458   5.106 -0.3050  0.3370  0.3603
  649MOL0     H85644   9.556   3.303   5.135 -1.5973  1.8937  0.1662
  649MOL0     H85645   9.600   3.212   4.998 -0.2199  0.1387  0.1698
  649MOL0     H85646   9.462   3.483   5.000  0.3554  0.0186 -0.1829
  649MOL0     H85647   9.544   3.407   4.855 -1.9120 -1.7242 -1.0036
  649MOL0     H85648   9.405   3.200   4.897  1.0033  0.8164 -0.5017
  649MOL0     H85649   9.315   3.339   4.854  0.1536 -3.6175 -1.4663
  649MOL0     H85650  10.465   3.450   5.097 -0.2969 -1.5594  0.3212
  649MOL0     H85651  10.704   3.472   5.122 -2.6069  2.4050 -0.9479
  649MOL0     H85652  11.059   3.475   5.158  0.5409  0.3816  1.2548
  649MOL0     H85653  11.286   3.564   5.122 -2.1670  0.9111  1.4074
  649MOL0     H85654  10.581   4.045   5.118 -2.4085  1.0119 -0.1342
  649MOL0     H85655  10.395   4.119   5.261 -1.9100 -0.5512  0.0187
  649MOL0     H85656  10.081   4.083   5.452 -2.4289 -2.1463 -2.9319
  649MOL0     H85657   9.839   4.103   5.518 -0.3437  1.0104  0.7574
  649MOL0     H85658   9.727   4.090   5.931  2.1874 -0.3751 -0.1284
  649MOL0     H85659   9.684   3.916   5.904  1.9761 -0.6968  0.6763
  649MOL0     H85660   9.491   3.999   5.752  0.5346  3.6964 -3.0701
  649MOL0     H85661   9.484   4.037   5.930  2.1416  0.2434  0.5440
  649MOL0     H85662   9.546   4.213   5.694 -1.7815  0.2598 -0.7535
  649MOL0     H85663   9.583   4.265   5.865  2.3551  1.7597 -2.5063
  649MOL0     H85664   9.320   4.150   5.782 -2.4251  0.2470  0.4971
  649MOL0     H85665   9.346   4.225   5.928  0.0543  3.6419  0.1538
  649MOL0     H85666   9.338   4.570   5.674 -1.8001 -0.0261  0.1699
  649MOL0     H85667   9.947   3.912   5.899 -1.0964  0.6278  0.5236
  649MOL0     H85668  10.169   3.887   5.832 -2.6726 -3.0735  0.3622
  650MOL0     O85669  10.669   2.641   1.650 -0.2446 -0.1227 -0.1748
  650MOL0     C85670  10.630   2.527   1.655 -0.0862  0.7350  0.3626
  650MOL0     O85671  10.497   2.492   1.670 -0.6253 -0.0102 -0.0856
  650MOL0     C85672  10.392   2.563   1.623  0.0814  0.0812 -0.4715
  650MOL0     C85673  10.391   2.643   1.505  0.5000 -0.4035  0.5191
  650MOL0     C85674  10.277   2.711   1.468 -0.1111  0.5501 -0.4306
  650MOL0     C85675  10.160   2.694   1.541  0.2054  0.5648  0.1538
  650MOL0     O85676  10.048   2.765   1.529  0.2707 -0.6842  0.1585
  650MOL0     C85677  10.023   2.849   1.412  1.2441 -0.3877  0.4424
  650MOL0     C85678   9.872   2.860   1.374  0.2279  0.4741 -0.2161
  650MOL0     C85679   9.794   2.934   1.488  0.0323 -0.0150 -0.0178
  650MOL0     C85680   9.642   2.934   1.487  0.9012 -0.4785 -0.3791
  650MOL0     C85681   9.577   3.015   1.391 -0.5826 -0.2852  1.1367
  650MOL0     C85682   9.424   3.030   1.402  0.5023  0.9709  0.3561
  650MOL0     C85683   9.372   3.098   1.532 -1.5133 -0.9598 -0.0170
  650MOL0     C85684   9.228   3.067   1.550  1.2651 -0.2408  1.7694
  650MOL0     N85685   9.125   3.122   1.461 -0.4227 -0.1720 -0.1458
  650MOL0     C85686   9.085   3.065   1.340 -0.0670 -0.0591 -0.0975
  650MOL0     C85687   8.963   3.108   1.312 -0.4369 -0.4573 -0.5571
  650MOL0     C85688   8.871   3.092   1.201  0.0291  0.2157 -0.2020
  650MOL0     C85689   8.902   3.180   1.083 -0.0525  0.1458  0.8364
  650MOL0     C85690   8.822   3.313   1.084 -0.0232 -0.1869 -0.9525
  650MOL0     C85691   8.886   3.410   0.989  0.5357  0.2574  0.8600
  650MOL0     O85692   8.863   3.363   0.855  0.1113  0.2798 -0.1571
  650MOL0     C85693   8.771   3.421   0.777  0.0276 -0.8747  0.7300
  650MOL0     C85694   8.777   3.397   0.641 -0.0995  0.9328 -0.6316
  650MOL0     C85695   8.670   3.435   0.554 -0.1525 -0.4458  0.6917
  650MOL0     C85696   8.557   3.484   0.604  0.4394  0.3023  0.4433
  650MOL0     C85697   8.438   3.503   0.523  1.1954 -0.8052 -0.6802
  650MOL0     O85698   8.350   3.594   0.568  0.0013 -0.0981  0.1943
  650MOL0     C85699   8.218   3.613   0.519 -0.0381  0.2417 -0.5806
  650MOL0     C85700   8.165   3.749   0.537  0.3096 -0.3977  0.5096
  650MOL0     C85701   8.039   3.784   0.490 -0.0362 -0.5980 -0.1318
  650MOL0     C85702   7.946   3.692   0.439 -0.0579 -0.1471 -0.0644
  650MOL0     O85703   7.813   3.708   0.406 -0.4127 -1.0587 -0.9547
  650MOL0     C85704   7.761   3.836   0.442  0.9939 -0.2553 -0.6288
  650MOL0     C85705   7.614   3.819   0.475 -0.3452  0.4533  0.0522
  650MOL0     C85706   7.535   3.951   0.495 -0.8402  1.0098 -0.7114
  650MOL0     C85707   7.563   4.059   0.388 -1.2610  0.0399  0.8399
  650MOL0     C85708   7.431   4.143   0.368  0.6460  0.1729  1.2947
  650MOL0     C85709   7.472   4.259   0.279  0.1415  0.5206  0.0845
  650MOL0     C85710   7.339   4.354   0.262 -1.2099 -0.0066 -0.9501
  650MOL0     C85711   7.397   4.492   0.274  1.0767  0.6704 -0.5554
  650MOL0    Cl85712   7.252   4.601   0.288  0.2149 -0.0368 -0.0604
  650MOL0     C85713   8.004   3.565   0.408  0.1448 -0.5828  0.7489
  650MOL0     C85714   8.140   3.534   0.433 -0.4000  0.4320 -0.1889
  650MOL0     O85715   8.420   3.423   0.429  0.8545  0.3863 -0.4035
  650MOL0     C85716   8.558   3.517   0.745 -0.9531 -0.3263 -0.6149
  650MOL0     C85717   8.667   3.492   0.830 -0.1295 -0.2652 -0.4284
  650MOL0     N85718   8.921   3.177   1.426  0.0771 -0.2165  0.7366
  650MOL0     N85719   9.013   3.177   1.518  0.3009  0.1205  0.2619
  650MOL0     C85720  10.161   2.615   1.651 -0.3467  0.7679 -0.6619
  650MOL0     C85721  10.276   2.551   1.701 -0.7849 -0.3171 -0.5636
  650MOL0     C85722  10.737   2.421   1.664 -0.0238  0.6820 -1.1736
  650MOL0     C85723  10.708   2.283   1.674  0.4717  0.1451 -0.2939
  650MOL0     C85724  10.819   2.200   1.712  0.4040  0.3058  0.2449
  650MOL0     C85725  10.950   2.245   1.727  0.0817 -0.0835 -0.4415
  650MOL0     O85726  11.065   2.170   1.761 -0.3030  0.4792  0.5355
  650MOL0     C85727  11.043   2.065   1.850  0.1265 -0.1253 -0.4890
  650MOL0     C85728  10.993   2.116   1.993  0.0248  0.1596  0.4611
  650MOL0     C85729  11.075   2.228   2.053  0.0114  0.2405 -0.2283
  650MOL0     C85730  11.028   2.262   2.191 -0.5875 -1.5084  0.2775
  650MOL0     C85731  10.890   2.305   2.198  0.8610  0.4611  0.2241
  650MOL0     C85732  10.767   2.310   2.198 -0.0073  1.1343  0.7443
  650MOL0     C85733  10.975   2.380   1.717  0.5982  0.0471 -0.1515
  650MOL0     C85734  10.867   2.469   1.683 -0.3346  0.1516 -0.2317
  650MOL0     H85735  10.481   2.642   1.444  0.7524 -1.7159  0.8932
  650MOL0     H85736  10.286   2.770   1.376 -1.2148 -0.1752 -1.0270
  650MOL0     H85737  10.075   2.803   1.327 -0.5041 -3.6259  0.9666
  650MOL0     H85738  10.050   2.955   1.418  1.5957 -0.2014 -2.8069
  650MOL0     H85739   9.828   2.764   1.348 -0.3587  0.1680  1.7184
  650MOL0     H85740   9.868   2.929   1.289  1.9066 -1.6537 -2.1248
  650MOL0     H85741   9.831   3.036   1.487 -1.4154  0.5409 -1.6805
  650MOL0     H85742   9.826   2.893   1.585  2.2706  0.0176 -0.6953
  650MOL0     H85743   9.611   2.829   1.493 -1.9648  0.2059 -1.4134
  650MOL0     H85744   9.612   2.977   1.583  2.7760 -2.0518  0.9956
  650MOL0     H85745   9.604   2.970   1.294  1.7757  0.8525  1.1914
  650MOL0     H85746   9.625   3.113   1.381  2.4503 -1.8169 -0.6488
  650MOL0     H85747   9.397   2.924   1.403  3.7514  0.0481 -0.3736
  650MOL0     H85748   9.380   3.083   1.317 -0.0409  6.8195  3.7821
  650MOL0     H85749   9.426   3.078   1.625 -0.5959 -2.0949 -0.7660
  650MOL0     H85750   9.390   3.206   1.519  0.0440 -1.1958 -0.0681
  650MOL0     H85751   9.195   3.098   1.650 -0.8831 -0.1662  1.1002
  650MOL0     H85752   9.202   2.961   1.556 -0.9360  0.1407  0.2238
  650MOL0     H85753   9.138   2.998   1.274 -0.1072  1.0414 -1.2822
  650MOL0     H85754   8.773   3.115   1.243  1.1835  1.9366  1.7190
  650MOL0     H85755   8.869   2.993   1.154 -0.5278  1.6091 -3.4045
  650MOL0     H85756   8.872   3.117   0.998  0.9063  1.4366 -0.5209
  650MOL0     H85757   9.011   3.195   1.084 -0.3893  3.2884  2.5852
  650MOL0     H85758   8.718   3.285   1.068 -0.7505 -0.0546  2.6349
  650MOL0     H85759   8.824   3.352   1.186  0.4158 -1.2712 -0.5343
  650MOL0     H85760   8.993   3.417   1.011  0.1845  1.3414  2.4347
  650MOL0     H85761   8.853   3.514   0.988  1.0719  0.4309  0.3984
  650MOL0     H85762   8.857   3.345   0.589 -0.2927  1.7297 -1.7836
  650MOL0     H85763   8.684   3.411   0.449 -0.2495  2.8277 -0.1635
  650MOL0     H85764   8.233   3.815   0.591  1.0929 -1.7277  1.1956
  650MOL0     H85765   8.018   3.891   0.497  0.0561 -0.6088  0.3780
  650MOL0     H85766   7.765   3.902   0.355  1.9700 -0.7300 -0.9502
  650MOL0     H85767   7.807   3.880   0.531 -0.7563 -1.7461  1.1026
  650MOL0     H85768   7.597   3.740   0.549 -2.9516 -0.0258 -0.9473
  650MOL0     H85769   7.564   3.785   0.384 -0.3999  1.3561 -0.2629
  650MOL0     H85770   7.553   3.986   0.597 -0.3333 -0.8921 -0.1119
  650MOL0     H85771   7.432   3.916   0.491 -0.1649 -1.0075 -2.0566
  650MOL0     H85772   7.651   4.115   0.422 -1.6788  0.4467  1.2647
  650MOL0     H85773   7.575   4.008   0.292 -1.9880  0.0315  0.7505
  650MOL0     H85774   7.403   4.172   0.470 -0.3543 -0.7044  1.2917
  650MOL0     H85775   7.354   4.077   0.326  0.6657  0.4430  0.8375
  650MOL0     H85776   7.499   4.217   0.181  2.4069 -2.5163  1.8485
  650MOL0     H85777   7.565   4.295   0.323 -0.0110 -1.6617  2.4348
  650MOL0     H85778   7.303   4.330   0.162  1.8525 -3.7249 -1.3912
  650MOL0     H85779   7.274   4.345   0.350 -2.3846  2.1588 -1.5280
  650MOL0     H85780   7.458   4.518   0.187 -0.6226  1.1156 -1.6631
  650MOL0     H85781   7.446   4.503   0.371  0.6727 -0.2864 -0.2381
  650MOL0     H85782   7.947   3.488   0.358  0.2004  1.5405 -2.9058
  650MOL0     H85783   8.176   3.436   0.403 -2.8358 -0.4270 -0.5656
  650MOL0     H85784   8.479   3.571   0.797  0.9881  1.9153  0.1380
  650MOL0     H85785   8.663   3.521   0.934  1.5612 -0.4176 -0.2883
  650MOL0     H85786  10.065   2.604   1.700 -1.5140  0.0479 -2.9732
  650MOL0     H85787  10.273   2.478   1.781  1.7143 -0.6718 -0.7261
  650MOL0     H85788  10.611   2.235   1.672  0.7496 -0.9482  3.5493
  650MOL0     H85789  10.798   2.094   1.720 -0.4581  0.5783  2.2756
  650MOL0     H85790  11.147   2.030   1.854  0.1516  0.0240  1.9340
  650MOL0     H85791  10.975   1.991   1.806 -1.1029  1.5615 -1.5671
  650MOL0     H85792  10.894   2.155   1.969  0.0537 -0.5981 -1.0283
  650MOL0     H85793  10.994   2.025   2.055  0.8718  0.0012  0.2276
  650MOL0     H85794  11.074   2.311   1.982 -0.1940 -2.8316 -4.2009
  650MOL0     H85795  11.178   2.194   2.066 -0.9034 -2.4842  0.6648
  650MOL0     H85796  11.053   2.186   2.265  2.4780 -1.1485 -0.2634
  650MOL0     H85797  11.090   2.349   2.216 -1.4714 -1.1133  1.1714
  650MOL0     H85798  10.660   2.313   2.194 -0.0365  0.5065  0.9604
  650MOL0     H85799  11.077   2.418   1.710 -0.4495  2.9744 -0.7384
  650MOL0     H85800  10.899   2.573   1.685  1.0381 -0.2686  1.6573
  651MOL0     O85801   8.586  10.165   1.489  0.1587  0.2113 -0.8342
  651MOL0     C85802   8.554  10.159   1.611 -0.0833  0.2992 -0.1864
  651MOL0     O85803   8.435  10.115   1.664 -0.0331  0.1926 -0.0481
  651MOL0     C85804   8.341  10.027   1.611 -0.5337  0.6378  0.4020
  651MOL0     C85805   8.325   9.963   1.486 -0.3222 -0.0153 -1.2604
  651MOL0     C85806   8.226   9.875   1.449 -0.2775 -0.0091 -0.1255
  651MOL0     C85807   8.134   9.848   1.541  0.7414  1.0150 -0.0466
  651MOL0     O85808   8.035   9.759   1.517 -0.1163  0.1122 -0.0980
  651MOL0     C85809   7.993   9.736   1.386 -0.3518 -0.7271 -0.0975
  651MOL0     C85810   7.874   9.645   1.379  0.3086 -0.8785  0.5833
  651MOL0     C85811   7.743   9.722   1.418  1.0844 -0.0735 -0.3795
  651MOL0     C85812   7.627   9.628   1.391  0.0439 -0.4935 -0.3134
  651MOL0     C85813   7.493   9.686   1.453  0.6518  0.0835  0.1270
  651MOL0     C85814   7.371   9.603   1.427 -0.0661  0.5181  0.1908
  651MOL0     C85815   7.237   9.660   1.483 -0.4615  0.3231  0.1068
  651MOL0     C85816   7.123   9.579   1.422 -0.0385  0.2476 -0.9784
  651MOL0     N85817   6.991   9.592   1.498  0.5183 -0.2241  0.5408
  651MOL0     C85818   6.946   9.707   1.541 -1.2395  0.4766 -0.0166
  651MOL0     C85819   6.827   9.682   1.604 -0.1614  0.0361 -0.1730
  651MOL0     C85820   6.726   9.774   1.658  0.5209 -0.4544  0.6449
  651MOL0     C85821   6.610   9.802   1.568  0.1118  0.0983 -0.4642
  651MOL0     C85822   6.657   9.852   1.427 -0.3503 -0.3384 -0.5282
  651MOL0     C85823   6.563   9.917   1.321  1.4375 -0.1026 -0.0238
  651MOL0     O85824   6.494  10.025   1.381  0.0263  0.1695 -0.7120
  651MOL0     C85825   6.417  10.091   1.291  0.4700 -0.1903 -0.5336
  651MOL0     C85826   6.438  10.223   1.257 -0.4323 -0.3256 -0.9342
  651MOL0     C85827   6.341  10.288   1.174 -0.5485 -0.3303  0.9147
  651MOL0     C85828   6.226  10.233   1.129 -0.3287  0.5199  1.2578
  651MOL0     C85829   6.111  10.306   1.069  0.7975 -0.2730  0.1034
  651MOL0     O85830   5.994  10.242   1.030 -0.7449  0.5281 -0.4484
  651MOL0     C85831   5.886  10.307   0.972 -0.1212  0.5003  0.5449
  651MOL0     C85832   5.817  10.405   1.040  0.1645 -1.1532  0.4473
  651MOL0     C85833   5.710  10.469   0.985  0.4796  0.0380  0.5096
  651MOL0     C85834   5.650  10.438   0.857  0.5865 -0.1670 -0.1428
  651MOL0     O85835   5.539  10.510   0.813  0.3986  0.7477 -0.3443
  651MOL0     C85836   5.517  10.486   0.675  0.0314  0.3282 -0.0595
  651MOL0     C85837   5.397  10.555   0.614  0.0744  0.3306  0.2986
  651MOL0     C85838   5.399  10.711   0.632 -0.0180 -0.1255 -0.3175
  651MOL0     C85839   5.259  10.774   0.639  0.3558 -0.5499 -0.5337
  651MOL0     C85840   5.216  10.844   0.507 -0.4135 -0.1700  0.1856
  651MOL0     C85841   5.225  10.761   0.385 -0.9963  0.3694  0.0683
  651MOL0     C85842   5.172  10.835   0.254  0.3439  0.8107  1.1130
  651MOL0     C85843   5.279  10.952   0.216  0.3688 -0.0142 -0.1403
  651MOL0    Cl85844   5.243  11.034   0.051  0.3768 -0.1158 -0.0643
  651MOL0     C85845   5.701  10.315   0.798 -0.2985 -0.8580 -0.5329
  651MOL0     C85846   5.818  10.257   0.858  0.1658 -0.1230 -0.5127
  651MOL0     O85847   6.120  10.432   1.052 -0.5418  0.4555 -0.1733
  651MOL0     C85848   6.207  10.095   1.159  0.8989 -1.0732 -0.5952
  651MOL0     C85849   6.301  10.029   1.240 -0.1194  0.3645  0.4596
  651MOL0     N85850   6.813   9.544   1.599 -0.3587  0.4018  0.2059
  651MOL0     N85851   6.908   9.495   1.534  0.5276  1.1602  0.0400
  651MOL0     C85852   8.130   9.916   1.664  0.5875 -0.1467 -0.2577
  651MOL0     C85853   8.228  10.008   1.694 -0.9261 -0.2262  0.3447
  651MOL0     C85854   8.642  10.226   1.701 -0.5050 -0.0067  0.6932
  651MOL0     C85855   8.610  10.252   1.831 -0.9398  0.2180  0.1394
  651MOL0     C85856   8.688  10.331   1.914  0.4897 -1.0740  0.2911
  651MOL0     C85857   8.811  10.376   1.869 -0.9059  0.0334 -0.6266
  651MOL0     O85858   8.903  10.447   1.949 -0.3096  0.1920 -0.4962
  651MOL0     C85859   8.875  10.444   2.091 -0.0192  0.0323 -0.5157
  651MOL0     C85860   8.987  10.503   2.168 -0.6291  0.6920  0.0453
  651MOL0     C85861   8.965  10.547   2.309  1.0408  0.6455 -0.3738
  651MOL0     C85862   9.090  10.621   2.350 -0.8879 -0.9347  0.0202
  651MOL0     C85863   9.058  10.684   2.487  0.1352 -0.3362  0.8989
  651MOL0     C85864   9.029  10.740   2.589  0.0724  0.0664 -0.3682
  651MOL0     C85865   8.853  10.342   1.742 -0.5670 -0.8823 -0.0045
  651MOL0     C85866   8.762  10.278   1.655  0.9286 -0.2182  0.0220
  651MOL0     H85867   8.411   9.979   1.423  0.2068  1.4097 -0.2304
  651MOL0     H85868   8.233   9.811   1.362  0.6346  0.0567 -0.1043
  651MOL0     H85869   8.065   9.680   1.326 -1.7460  0.5643 -3.1823
  651MOL0     H85870   7.966   9.818   1.319  1.7357 -1.9922 -2.6798
  651MOL0     H85871   7.885   9.560   1.447  2.0969 -0.2904  1.1094
  651MOL0     H85872   7.870   9.611   1.275  1.7619 -1.6597  0.7472
  651MOL0     H85873   7.716   9.811   1.361 -1.6158 -0.9811 -0.6999
  651MOL0     H85874   7.760   9.740   1.525  2.6926 -0.0770 -0.6103
  651MOL0     H85875   7.610   9.610   1.285 -2.1337  0.4039 -0.1596
  651MOL0     H85876   7.643   9.531   1.441  0.4467 -1.0865 -1.5514
  651MOL0     H85877   7.475   9.793   1.438 -0.7559  0.0740  1.4951
  651MOL0     H85878   7.516   9.680   1.560 -2.0518  2.6010  0.9755
  651MOL0     H85879   7.386   9.501   1.465  0.3414  0.4146 -0.2330
  651MOL0     H85880   7.356   9.594   1.319  0.1413  1.3018  0.0898
  651MOL0     H85881   7.239   9.657   1.593 -1.8141 -1.5648  0.1150
  651MOL0     H85882   7.218   9.763   1.453 -0.7547 -0.2209 -1.6906
  651MOL0     H85883   7.153   9.474   1.420 -1.9014 -0.3696  0.1609
  651MOL0     H85884   7.102   9.614   1.321 -1.9751  2.9432  0.2337
  651MOL0     H85885   6.988   9.807   1.537 -1.2714  0.6247  2.0518
  651MOL0     H85886   6.764   9.876   1.673  1.6313 -0.6441 -0.6674
  651MOL0     H85887   6.699   9.733   1.756  0.6995  1.6277  1.6226
  651MOL0     H85888   6.552   9.876   1.624  1.6951  0.5432  0.6636
  651MOL0     H85889   6.554   9.708   1.557  2.3321 -1.4868  0.9193
  651MOL0     H85890   6.726   9.936   1.444 -2.0415  2.0542 -4.1749
  651MOL0     H85891   6.708   9.768   1.379  1.3907  1.3815 -1.8858
  651MOL0     H85892   6.488   9.840   1.302 -1.2537  1.0304  4.4497
  651MOL0     H85893   6.613   9.953   1.231  2.1308  1.2468  0.8573
  651MOL0     H85894   6.533  10.266   1.286 -1.8637  1.7611  1.0953
  651MOL0     H85895   6.351  10.394   1.150  0.9470 -0.7899 -0.6688
  651MOL0     H85896   5.854  10.423   1.140  1.7923 -0.6405 -0.2215
  651MOL0     H85897   5.660  10.544   1.047 -3.0016 -1.6375  0.0005
  651MOL0     H85898   5.503  10.380   0.652  1.7342 -0.6858  2.9152
  651MOL0     H85899   5.608  10.512   0.620 -0.1636 -1.9332 -1.5869
  651MOL0     H85900   5.305  10.501   0.638 -0.2953  0.7337 -0.1902
  651MOL0     H85901   5.412  10.540   0.507  0.2998 -1.9293  0.5996
  651MOL0     H85902   5.473  10.753   0.564 -1.2223  2.4970 -0.1094
  651MOL0     H85903   5.456  10.714   0.726  0.0667  0.6443 -0.3873
  651MOL0     H85904   5.175  10.715   0.678  0.8383 -2.1290 -1.7805
  651MOL0     H85905   5.256  10.856   0.712  0.9044 -1.9344  1.1102
  651MOL0     H85906   5.264  10.943   0.502  0.6941 -0.7525 -1.9304
  651MOL0     H85907   5.109  10.857   0.524 -0.4866 -0.7913  0.1927
  651MOL0     H85908   5.166  10.670   0.398 -0.9481  0.0230 -1.8627
  651MOL0     H85909   5.323  10.718   0.362 -1.6461  0.4918 -3.4718
  651MOL0     H85910   5.165  10.766   0.169  0.4622  0.4518  1.3937
  651MOL0     H85911   5.068  10.865   0.268 -0.6824  0.1908 -3.4691
  651MOL0     H85912   5.376  10.901   0.223 -1.0044 -2.7042  0.8540
  651MOL0     H85913   5.274  11.032   0.290 -1.2076 -1.2987  1.2482
  651MOL0     H85914   5.656  10.276   0.707 -1.1858 -0.3261 -0.3373
  651MOL0     H85915   5.863  10.170   0.811  0.5205 -0.5224  0.5332
  651MOL0     H85916   6.116  10.049   1.123  0.5172 -0.3065 -0.6308
  651MOL0     H85917   6.274   9.929   1.273 -2.3935  0.3171 -1.3159
  651MOL0     H85918   8.044   9.906   1.729  0.6102  2.6718  0.3329
  651MOL0     H85919   8.221  10.047   1.795 -1.0499  4.4251 -1.2100
  651MOL0     H85920   8.520  10.217   1.881  0.6251  0.2298  3.1591
  651MOL0     H85921   8.648  10.345   2.014  0.3302  0.1262  0.0705
  651MOL0     H85922   8.854  10.343   2.129  3.5387  0.0693  2.0902
  651MOL0     H85923   8.789  10.509   2.108 -0.7980 -1.3289  1.1225
  651MOL0     H85924   9.063  10.424   2.162 -1.4898 -0.2347  0.8811
  651MOL0     H85925   9.029  10.586   2.111 -1.1645  1.3397  0.5682
  651MOL0     H85926   8.952  10.464   2.379 -3.3758  3.7756  3.0987
  651MOL0     H85927   8.876  10.607   2.326  2.6491  2.5165  2.2466
  651MOL0     H85928   9.177  10.556   2.364  1.0756  1.8448  1.7715
  651MOL0     H85929   9.119  10.706   2.288 -4.1491 -1.5650 -2.6936
  651MOL0     H85930   9.017  10.798   2.679  3.7235  0.9904 -0.3435
  651MOL0     H85931   8.942  10.391   1.704 -0.1736 -1.5088  0.0912
  651MOL0     H85932   8.790  10.259   1.552  0.4973 -3.6098  0.4234
  652MOL0     O85933   0.100   7.665   9.472  0.1700  1.1090 -0.0237
  652MOL0     C85934   0.136   7.590   9.379  0.1075  0.3335  0.5387
  652MOL0     O85935   0.162   7.634   9.250 -0.3230  0.5969 -0.4717
  652MOL0     C85936   0.166   7.762   9.197  0.0247 -0.3430 -0.3948
  652MOL0     C85937   0.107   7.878   9.245  0.5794  0.4859  0.7277
  652MOL0     C85938   0.132   8.001   9.181 -1.6425  0.0213 -0.7601
  652MOL0     C85939   0.208   7.999   9.067  0.6858  0.9926 -0.1357
  652MOL0     O85940   0.219   8.115   8.988  0.3171  0.8336  0.1797
  652MOL0     C85941   0.143   8.104   8.875 -0.5102 -0.4987  0.5539
  652MOL0     C85942   0.028   8.200   8.857  0.5015 -0.2185 -0.5936
  652MOL0     C85943  -0.008   8.234   8.719 -1.0138  0.0501 -0.3676
  652MOL0     C85944  -0.137   8.308   8.716 -0.1868 -0.4272 -0.7091
  652MOL0     C85945  -0.145   8.359   8.569  0.6121  0.6396  0.0672
  652MOL0     C85946  -0.286   8.434   8.571 -0.3677  0.4505  0.0352
  652MOL0     C85947  -0.341   8.498   8.437  0.4525 -0.3785 -0.9420
  652MOL0     C85948  -0.262   8.629   8.400  0.4638  1.1440 -1.2147
  652MOL0     N85949  -0.310   8.691   8.275  0.1539 -1.3078 -0.4795
  652MOL0     C85950  -0.408   8.791   8.256  0.9573 -0.4174 -0.7526
  652MOL0     C85951  -0.415   8.822   8.124 -0.2546  0.1298 -0.2742
  652MOL0     C85952  -0.518   8.905   8.068 -0.1986  0.5783  0.9236
  652MOL0     C85953  -0.659   8.847   8.088  0.1702 -0.2476 -0.0458
  652MOL0     C85954  -0.670   8.707   8.049 -0.0986  0.1301  0.8973
  652MOL0     C85955  -0.805   8.645   8.051 -0.9708 -0.1038 -0.7283
  652MOL0     O85956  -0.786   8.501   8.080  0.2926 -0.1733  0.7523
  652MOL0     C85957  -0.891   8.443   8.137 -0.5442 -0.7113  0.9119
  652MOL0     C85958  -0.971   8.363   8.059  0.1781  0.5098 -1.1227
  652MOL0     C85959  -1.088   8.325   8.120  0.0373  0.2583 -0.6210
  652MOL0     C85960  -1.120   8.358   8.256  0.6388 -0.7416 -0.1017
  652MOL0     C85961  -1.253   8.323   8.299 -0.6657 -1.2863 -0.1935
  652MOL0     O85962  -1.313   8.218   8.236  0.3432  0.5393 -0.2078
  652MOL0     C85963  -1.438   8.175   8.278 -0.2092 -0.4875  0.2373
  652MOL0     C85964  -1.530   8.114   8.182 -0.7070 -0.0367 -1.0382
  652MOL0     C85965  -1.662   8.080   8.212 -0.4773  0.1511  0.1905
  652MOL0     C85966  -1.701   8.078   8.348 -0.3744 -0.2910 -0.4111
  652MOL0     O85967  -1.822   8.046   8.385 -0.0249  0.5579 -0.0416
  652MOL0     C85968  -1.933   8.092   8.303  0.2441 -0.0322  0.5378
  652MOL0     C85969  -2.058   8.072   8.392 -0.7450  0.6181  0.1233
  652MOL0     C85970  -2.186   8.055   8.304 -0.2520 -0.3300 -0.1070
  652MOL0     C85971  -2.213   8.168   8.206 -0.1435  0.0563 -0.1432
  652MOL0     C85972  -2.142   8.140   8.069 -0.1790  0.5671 -0.3327
  652MOL0     C85973  -2.232   8.194   7.963  0.4180 -0.1480  0.3074
  652MOL0     C85974  -2.190   8.137   7.824 -0.1202 -0.4011 -0.4396
  652MOL0     C85975  -2.271   8.195   7.705 -0.3024  0.5160  0.0164
  652MOL0    Cl85976  -2.192   8.130   7.569 -0.2103  0.0094 -0.0640
  652MOL0     C85977  -1.610   8.136   8.442 -0.9487 -0.0730 -0.0274
  652MOL0     C85978  -1.478   8.175   8.409  0.5652  0.2295 -0.3113
  652MOL0     O85979  -1.303   8.384   8.390 -0.4035 -0.6353  0.1307
  652MOL0     C85980  -1.026   8.425   8.338  0.3554  0.4622  0.4060
  652MOL0     C85981  -0.908   8.464   8.274 -0.1265 -0.5839  0.5168
  652MOL0     N85982  -0.320   8.741   8.061 -1.2202 -0.6202 -1.1417
  652MOL0     N85983  -0.260   8.664   8.152 -0.4323 -1.0458  0.6158
  652MOL0     C85984   0.273   7.882   9.015 -0.0761 -0.7030  0.2966
  652MOL0     C85985   0.255   7.770   9.088  0.9256  0.4184  0.9672
  652MOL0     C85986   0.162   7.448   9.412  0.5019 -0.9771 -0.3301
  652MOL0     C85987   0.110   7.394   9.529 -0.9692 -0.0610  0.9380
  652MOL0     C85988   0.133   7.260   9.563 -0.0850 -0.6227 -0.2543
  652MOL0     C85989   0.196   7.176   9.479  1.3852 -0.3085 -0.5244
  652MOL0     O85990   0.202   7.043   9.519 -0.5374 -0.2738  0.1525
  652MOL0     C85991   0.215   6.940   9.419  0.3498 -0.5385  0.3634
  652MOL0     C85992   0.192   6.800   9.481  0.2374 -0.0103 -0.8926
  652MOL0     C85993   0.254   6.698   9.383  0.2895 -0.2902  0.7568
  652MOL0     C85994   0.260   6.545   9.429  0.4929  0.0078  0.4289
  652MOL0     C85995   0.278   6.453   9.320  0.2959 -0.0004  0.5869
  652MOL0     C85996   0.290   6.376   9.229  0.4621 -0.7753  0.0982
  652MOL0     C85997   0.244   7.223   9.354  0.7784  0.4240  0.3168
  652MOL0     C85998   0.229   7.356   9.323  0.9401  0.0693  0.6108
  652MOL0     H85999   0.036   7.870   9.327  2.6488 -1.1944  2.5099
  652MOL0     H86000   0.079   8.089   9.216  0.9557  1.0175  0.9823
  652MOL0     H86001   0.110   8.002   8.852 -1.7914  0.5039 -2.6566
  652MOL0     H86002   0.212   8.123   8.793  1.9515 -0.3061  2.5664
  652MOL0     H86003   0.054   8.300   8.893 -1.0726  1.6335 -4.0937
  652MOL0     H86004  -0.057   8.154   8.909  1.2736  0.4096  1.3132
  652MOL0     H86005  -0.016   8.145   8.656 -1.8677  0.4487 -0.8398
  652MOL0     H86006   0.074   8.295   8.680 -0.1186 -1.4520 -0.9147
  652MOL0     H86007  -0.221   8.252   8.759  2.4548 -2.2623  2.5999
  652MOL0     H86008  -0.124   8.390   8.787  0.1589 -0.3485 -0.8636
  652MOL0     H86009  -0.136   8.282   8.493  2.1055  2.8144 -2.1306
  652MOL0     H86010  -0.070   8.435   8.546  3.7955 -1.5849  2.2853
  652MOL0     H86011  -0.278   8.509   8.650  1.5946  3.2036 -2.5583
  652MOL0     H86012  -0.366   8.364   8.595  2.1555 -2.1722  1.4140
  652MOL0     H86013  -0.333   8.430   8.352 -3.0093  0.0764 -1.7683
  652MOL0     H86014  -0.448   8.512   8.453  0.9938  1.6955  1.5126
  652MOL0     H86015  -0.156   8.606   8.389  0.4220 -0.1821  0.7034
  652MOL0     H86016  -0.256   8.681   8.496  3.1017 -0.1132 -0.6221
  652MOL0     H86017  -0.462   8.838   8.337  1.6831 -2.1010  0.7663
  652MOL0     H86018  -0.484   8.914   7.965 -1.2615  1.3093  0.6253
  652MOL0     H86019  -0.511   9.006   8.107  1.5697 -0.2183  2.8953
  652MOL0     H86020  -0.738   8.896   8.030 -1.0978 -1.0939  0.9215
  652MOL0     H86021  -0.687   8.861   8.193 -4.3293  3.7795 -1.3910
  652MOL0     H86022  -0.626   8.696   7.950  0.0533  0.3915  0.9307
  652MOL0     H86023  -0.606   8.644   8.112 -0.8429 -2.5076 -0.8571
  652MOL0     H86024  -0.863   8.665   7.961 -2.0589 -3.2454 -0.8556
  652MOL0     H86025  -0.859   8.696   8.131 -0.5972  1.1550 -1.2656
  652MOL0     H86026  -0.942   8.337   7.958  1.1968  0.5898 -0.8583
  652MOL0     H86027  -1.160   8.281   8.051 -1.1972  1.7072 -0.3145
  652MOL0     H86028  -1.504   8.091   8.080  2.4104 -1.5564 -0.0282
  652MOL0     H86029  -1.737   8.045   8.142 -0.0519 -0.5119  0.0504
  652MOL0     H86030  -1.927   8.026   8.216  3.8783 -0.5728  1.0398
  652MOL0     H86031  -1.922   8.192   8.261 -3.0293 -0.3765 -1.4562
  652MOL0     H86032  -2.070   8.152   8.466  0.5078  1.0712 -0.1540
  652MOL0     H86033  -2.042   7.980   8.449 -0.4111  2.4153  3.1936
  652MOL0     H86034  -2.274   8.039   8.368  0.9294  2.0891  2.2921
  652MOL0     H86035  -2.180   7.962   8.246 -0.9459  1.1764 -2.7196
  652MOL0     H86036  -2.320   8.187   8.193 -0.1603  0.0087 -0.0737
  652MOL0     H86037  -2.167   8.260   8.242  1.1987 -0.4432 -0.5394
  652MOL0     H86038  -2.127   8.032   8.060  0.6304  0.4323  1.9792
  652MOL0     H86039  -2.044   8.189   8.067 -0.5204  1.2815  0.0548
  652MOL0     H86040  -2.228   8.303   7.960  1.6557 -0.2025 -1.6885
  652MOL0     H86041  -2.334   8.157   7.975 -0.4621  1.6566 -1.0543
  652MOL0     H86042  -2.082   8.150   7.808 -0.0385 -2.3886 -1.9120
  652MOL0     H86043  -2.196   8.028   7.840 -0.9853 -0.1563  1.1514
  652MOL0     H86044  -2.274   8.304   7.705  1.8038  0.6144 -0.6223
  652MOL0     H86045  -2.369   8.147   7.709 -0.4526  0.7720 -0.5121
  652MOL0     H86046  -1.640   8.149   8.545  1.7400  3.2241  0.5139
  652MOL0     H86047  -1.416   8.204   8.493 -0.9983  2.4070  0.1983
  652MOL0     H86048  -1.036   8.431   8.446  0.9723 -0.2498  0.5113
  652MOL0     H86049  -0.830   8.518   8.326  0.2927 -0.7531  0.0727
  652MOL0     H86050   0.328   7.879   8.922  0.3871  1.4381  0.4476
  652MOL0     H86051   0.289   7.677   9.045  0.2182 -0.0470  1.3928
  652MOL0     H86052   0.052   7.462   9.591 -0.4328  3.5304 -2.1257
  652MOL0     H86053   0.100   7.240   9.664 -0.1477  1.7546  0.2649
  652MOL0     H86054   0.311   6.953   9.368  0.5096 -1.6312  0.3574
  652MOL0     H86055   0.141   6.947   9.340  1.4651 -0.8408 -0.7335
  652MOL0     H86056   0.245   6.787   9.576  1.1565 -1.0102 -1.5261
  652MOL0     H86057   0.086   6.781   9.504 -0.0920  0.1648 -2.2181
  652MOL0     H86058   0.361   6.719   9.371  0.6920 -3.0872 -1.5743
  652MOL0     H86059   0.202   6.706   9.288  0.6281  0.9536  0.6598
  652MOL0     H86060   0.346   6.534   9.496  0.3090  0.9174  0.8272
  652MOL0     H86061   0.166   6.525   9.481 -2.7887  6.6129 -1.8292
  652MOL0     H86062   0.302   6.307   9.148  0.0247  3.3798 -3.8973
  652MOL0     H86063   0.296   7.160   9.282  0.7173  0.4742  0.2289
  652MOL0     H86064   0.275   7.375   9.226 -0.6608  1.7016  0.1270
  653MOL0     O86065   2.910   7.099   0.905  0.1853  0.7218 -0.1631
  653MOL0     C86066   2.932   7.203   0.960  0.3380  0.3749  0.4076
  653MOL0     O86067   2.847   7.266   1.048 -1.2644  0.2100  0.2120
  653MOL0     C86068   2.728   7.221   1.071 -0.0078 -0.0578  0.1716
  653MOL0     C86069   2.698   7.163   1.194 -0.4824 -0.0130  0.2167
  653MOL0     C86070   2.573   7.093   1.204  0.0743  0.5412  0.0163
  653MOL0     C86071   2.482   7.096   1.105  0.3225 -0.2456 -0.3771
  653MOL0     O86072   2.373   7.019   1.127  0.7909 -0.1557 -0.0173
  653MOL0     C86073   2.273   7.012   1.026  0.2018 -0.0159 -0.2645
  653MOL0     C86074   2.152   6.942   1.085  0.0370 -0.6546 -0.2593
  653MOL0     C86075   2.139   6.799   1.057  0.2040  0.1402  0.7728
  653MOL0     C86076   2.254   6.710   1.116  0.5970  0.2664 -0.3183
  653MOL0     C86077   2.208   6.560   1.124 -0.3661  1.0905 -1.1036
  653MOL0     C86078   2.309   6.477   1.208 -0.0884 -1.2854  0.5385
  653MOL0     C86079   2.284   6.326   1.228  0.1620 -0.1167  0.6557
  653MOL0     C86080   2.373   6.260   1.332 -0.6751 -0.7621  0.7872
  653MOL0     N86081   2.400   6.121   1.305 -0.1446 -0.9902  1.0900
  653MOL0     C86082   2.501   6.069   1.217 -0.8238  0.1320 -0.2050
  653MOL0     C86083   2.469   5.938   1.202 -0.6814  0.7483  0.7624
  653MOL0     C86084   2.549   5.841   1.121 -0.1692  0.1181 -0.6208
  653MOL0     C86085   2.687   5.888   1.078 -0.6272 -0.7806 -0.6472
  653MOL0     C86086   2.753   5.787   0.991 -0.2966 -0.3060 -0.4020
  653MOL0     C86087   2.901   5.810   0.970 -0.1678 -1.5391  0.6091
  653MOL0     O86088   2.974   5.773   1.086  0.1416 -0.3174  0.0656
  653MOL0     C86089   3.112   5.793   1.072 -0.1962 -0.2705  1.1206
  653MOL0     C86090   3.195   5.762   0.958  0.2069  0.3710 -0.2432
  653MOL0     C86091   3.335   5.783   0.964  0.4902 -0.1856 -0.1973
  653MOL0     C86092   3.393   5.850   1.078 -0.5910  0.4457 -0.4248
  653MOL0     C86093   3.537   5.862   1.090  0.2183  0.4489 -0.5550
  653MOL0     O86094   3.589   5.931   1.192 -0.3438  0.1259 -0.5042
  653MOL0     C86095   3.725   5.930   1.203  0.5208 -0.3065 -0.8782
  653MOL0     C86096   3.787   5.824   1.267 -0.3214  0.6719  0.8036
  653MOL0     C86097   3.929   5.817   1.266 -0.6342  0.0862  0.0687
  653MOL0     C86098   4.006   5.910   1.198 -0.2572  0.2740 -0.5224
  653MOL0     O86099   4.138   5.883   1.176 -0.7436  0.4397  0.1942
  653MOL0     C86100   4.212   5.922   1.055  0.8822  0.2978  0.4228
  653MOL0     C86101   4.358   5.875   1.047 -1.1095 -0.3973  0.0297
  653MOL0     C86102   4.383   5.730   0.995 -0.0917 -0.8267  0.0323
  653MOL0     C86103   4.330   5.698   0.845 -1.5012 -0.5409  0.0493
  653MOL0     C86104   4.281   5.551   0.844  0.0405  0.1704  0.0761
  653MOL0     C86105   4.206   5.518   0.714 -0.7418  0.0292  0.2313
  653MOL0     C86106   4.062   5.570   0.710 -0.1538 -0.3778 -0.9562
  653MOL0     C86107   4.000   5.551   0.571 -0.3050  0.5322  0.2832
  653MOL0    Cl86108   4.026   5.695   0.457  0.1192  0.1220  0.2032
  653MOL0     C86109   3.942   6.021   1.152 -0.0969 -0.7686  0.1410
  653MOL0     C86110   3.799   6.030   1.150 -0.5506  0.3231 -0.1183
  653MOL0     O86111   3.600   5.806   1.000  0.5161 -0.1591 -0.3777
  653MOL0     C86112   3.316   5.879   1.189 -1.4792 -0.3178  0.3379
  653MOL0     C86113   3.179   5.852   1.174  0.1455 -0.4526 -0.1850
  653MOL0     N86114   2.361   5.912   1.285  0.9540  0.3870 -0.0719
  653MOL0     N86115   2.313   6.016   1.333  0.0225  0.0793 -0.7215
  653MOL0     C86116   2.511   7.163   0.984  0.7818 -0.7250 -0.0604
  653MOL0     C86117   2.642   7.217   0.968  0.7322  0.1947  0.3334
  653MOL0     C86118   3.068   7.270   0.943  0.2418 -0.3952  1.2230
  653MOL0     C86119   3.096   7.400   0.995 -0.2644  0.0492  0.1354
  653MOL0     C86120   3.223   7.456   0.963  0.2567  0.0793 -0.1036
  653MOL0     C86121   3.315   7.399   0.877 -0.3250 -0.2330  0.1785
  653MOL0     O86122   3.429   7.474   0.853 -0.7132 -0.0026 -0.4423
  653MOL0     C86123   3.538   7.417   0.780  0.5844  0.5482  0.1929
  653MOL0     C86124   3.644   7.529   0.745 -0.6976 -0.1836 -0.0981
  653MOL0     C86125   3.690   7.621   0.853 -0.9148 -0.5329  0.2793
  653MOL0     C86126   3.733   7.530   0.970 -0.7319  0.0075 -0.4281
  653MOL0     C86127   3.752   7.606   1.096  0.1763  0.1393  0.3940
  653MOL0     C86128   3.757   7.668   1.205 -0.3624  0.5153 -0.2240
  653MOL0     C86129   3.284   7.270   0.825 -0.1059  0.2720  0.2713
  653MOL0     C86130   3.163   7.208   0.863 -0.3169  0.3681  0.2958
  653MOL0     H86131   2.769   7.150   1.274 -0.1713  1.1830  0.1458
  653MOL0     H86132   2.554   7.033   1.292 -0.2973  0.2850 -0.2354
  653MOL0     H86133   2.313   6.956   0.941 -1.2228 -3.8405  1.3762
  653MOL0     H86134   2.226   7.106   0.994 -1.4152 -0.2811  1.1945
  653MOL0     H86135   2.061   6.985   1.042 -1.8315 -1.2674  2.7714
  653MOL0     H86136   2.139   6.959   1.193  0.3707  0.5098 -0.3794
  653MOL0     H86137   2.140   6.781   0.949  0.4741 -0.3169  0.8496
  653MOL0     H86138   2.041   6.774   1.100 -0.0487  1.9803  1.3407
  653MOL0     H86139   2.351   6.713   1.064 -0.4512 -0.5785 -2.4623
  653MOL0     H86140   2.270   6.739   1.220 -0.7137  0.3085 -0.1188
  653MOL0     H86141   2.200   6.521   1.023  1.3656  0.4876 -1.0457
  653MOL0     H86142   2.108   6.562   1.168  0.1613  3.4580  0.1972
  653MOL0     H86143   2.306   6.521   1.308 -4.5629  1.5335 -0.5531
  653MOL0     H86144   2.410   6.485   1.168 -1.3579  0.2511 -2.7350
  653MOL0     H86145   2.181   6.312   1.263 -0.3535 -2.8638 -1.6160
  653MOL0     H86146   2.304   6.277   1.133  0.1610 -0.2874  0.7448
  653MOL0     H86147   2.334   6.274   1.433 -2.4348 -3.8318  0.6413
  653MOL0     H86148   2.468   6.313   1.341 -0.7615 -0.2082 -1.1082
  653MOL0     H86149   2.572   6.129   1.160 -0.8061 -0.4766 -0.8279
  653MOL0     H86150   2.486   5.823   1.034  1.0828 -0.4459 -1.4482
  653MOL0     H86151   2.554   5.750   1.181 -2.5256  0.2346 -0.1606
  653MOL0     H86152   2.742   5.917   1.168 -3.1715 -0.8599  1.0493
  653MOL0     H86153   2.679   5.977   1.016 -0.0859 -1.1469 -1.2693
  653MOL0     H86154   2.738   5.683   1.022  1.4864 -0.9946 -1.6989
  653MOL0     H86155   2.710   5.794   0.890 -1.2959 -3.1230 -0.2415
  653MOL0     H86156   2.921   5.915   0.949 -1.9469 -1.3880 -0.5354
  653MOL0     H86157   2.908   5.747   0.881 -2.1865 -0.9436 -0.0184
  653MOL0     H86158   3.153   5.713   0.871  2.4325  0.2324 -1.3190
  653MOL0     H86159   3.390   5.749   0.877 -1.1086  1.0613 -1.7608
  653MOL0     H86160   3.730   5.748   1.319 -1.4295  3.4437  3.9726
  653MOL0     H86161   3.974   5.731   1.315 -1.1476  0.3380  0.9972
  653MOL0     H86162   4.219   6.030   1.042 -3.2527  0.7682  0.9302
  653MOL0     H86163   4.154   5.888   0.969  3.0005 -0.1932 -0.8957
  653MOL0     H86164   4.413   5.891   1.141  2.0050  3.8321 -2.1965
  653MOL0     H86165   4.415   5.948   0.989  0.1310  0.0707  1.7439
  653MOL0     H86166   4.332   5.658   1.059  0.9558 -2.4229 -0.8625
  653MOL0     H86167   4.491   5.714   0.998  0.1551  0.5772 -0.5321
  653MOL0     H86168   4.250   5.771   0.827  0.6851  1.7448 -0.9662
  653MOL0     H86169   4.407   5.712   0.769  2.4636  0.8374  3.9367
  653MOL0     H86170   4.220   5.519   0.928  0.6381 -0.8065  0.1607
  653MOL0     H86171   4.367   5.483   0.851 -1.3479 -1.8688 -1.3850
  653MOL0     H86172   4.218   5.413   0.686  0.3380  0.2696 -0.2572
  653MOL0     H86173   4.258   5.564   0.629  1.8977 -1.1336  1.0949
  653MOL0     H86174   4.004   5.505   0.776  0.1363  0.6733  0.3776
  653MOL0     H86175   4.045   5.668   0.756  0.6623 -1.7344  2.5492
  653MOL0     H86176   3.892   5.539   0.580 -0.5148  1.0709 -1.2183
  653MOL0     H86177   4.021   5.456   0.521 -0.3311  0.5206  0.2933
  653MOL0     H86178   4.004   6.082   1.087 -1.6535 -1.4936 -2.1254
  653MOL0     H86179   3.754   6.099   1.079  1.1747 -0.0650 -1.6739
  653MOL0     H86180   3.355   5.924   1.280  0.6975 -0.9783 -0.1970
  653MOL0     H86181   3.114   5.880   1.257 -0.2529 -0.9113 -0.3355
  653MOL0     H86182   2.439   7.163   0.902  0.2438  3.2719  0.2316
  653MOL0     H86183   2.651   7.282   0.882 -3.9810 -0.2922 -0.8051
  653MOL0     H86184   3.030   7.445   1.067  0.0832 -0.3535  0.7108
  653MOL0     H86185   3.246   7.553   1.006 -0.0706 -0.0229  0.3111
  653MOL0     H86186   3.501   7.386   0.681 -1.4387  1.8200  0.4733
  653MOL0     H86187   3.583   7.332   0.830 -0.2027 -0.1156 -0.1868
  653MOL0     H86188   3.730   7.484   0.694 -1.5654 -1.9113 -0.1042
  653MOL0     H86189   3.606   7.597   0.669  3.3986  2.4283 -0.0993
  653MOL0     H86190   3.605   7.685   0.880  1.7362  4.1189 -1.2325
  653MOL0     H86191   3.779   7.677   0.821 -0.5263  0.4604  2.8850
  653MOL0     H86192   3.651   7.461   0.993 -0.3471 -0.5834 -0.7963
  653MOL0     H86193   3.828   7.483   0.944 -0.3171  1.2185 -1.1796
  653MOL0     H86194   3.770   7.702   1.306  1.6456  0.0916 -0.2840
  653MOL0     H86195   3.344   7.210   0.757  0.6266 -0.9455  1.9393
  653MOL0     H86196   3.140   7.113   0.817 -1.8594  0.3558  1.0444
  654MOL0     O86197   7.719   4.635   0.001 -0.2794 -0.1368  0.2432
  654MOL0     C86198   7.620   4.710   0.001 -1.0029 -0.0592 -0.9298
  654MOL0     O86199   7.535   4.738  -0.104  0.7556  0.4910 -0.1178
  654MOL0     C86200   7.539   4.679  -0.236 -0.8799  0.1754  0.7018
  654MOL0     C86201   7.618   4.564  -0.264 -0.2721  0.1093 -0.0505
  654MOL0     C86202   7.621   4.501  -0.392 -0.6043  0.1958 -1.1484
  654MOL0     C86203   7.547   4.552  -0.490  0.4304  0.2947  0.3671
  654MOL0     O86204   7.523   4.495  -0.614  0.7444 -0.6883 -0.2408
  654MOL0     C86205   7.536   4.357  -0.637 -0.3450 -1.0001  0.3546
  654MOL0     C86206   7.449   4.314  -0.758  0.0279 -0.9361 -0.6111
  654MOL0     C86207   7.301   4.312  -0.725  0.0718  0.7317  0.2811
  654MOL0     C86208   7.219   4.238  -0.824  0.0547  0.2475  1.1358
  654MOL0     C86209   7.076   4.257  -0.794  0.2358  0.1037 -0.2065
  654MOL0     C86210   6.985   4.170  -0.873  0.1761  0.0884 -0.0991
  654MOL0     C86211   6.839   4.222  -0.848 -0.2645  0.0550  0.2001
  654MOL0     C86212   6.750   4.225  -0.977  0.3062 -0.4785 -0.2691
  654MOL0     N86213   6.625   4.297  -0.947 -0.3472  0.6965  0.2325
  654MOL0     C86214   6.600   4.416  -0.996  0.7392  0.4755  0.6066
  654MOL0     C86215   6.469   4.433  -0.977  0.4957  0.9566  0.5058
  654MOL0     C86216   6.417   4.577  -0.996  0.3223  1.4156  0.8773
  654MOL0     C86217   6.265   4.592  -0.981  0.3722  0.5808 -0.8296
  654MOL0     C86218   6.207   4.655  -1.106 -0.3706 -0.0185 -0.0714
  654MOL0     C86219   6.068   4.711  -1.090  0.1650  0.6955 -1.5863
  654MOL0     O86220   5.986   4.605  -1.033  0.2904  0.1698  0.2064
  654MOL0     C86221   5.849   4.625  -1.027  0.3875 -0.5931  0.5614
  654MOL0     C86222   5.774   4.507  -1.019  0.6949 -0.0483  0.2963
  654MOL0     C86223   5.627   4.505  -1.002  0.2855 -0.0389 -0.3927
  654MOL0     C86224   5.558   4.631  -1.003 -0.7143  0.4016  0.5722
  654MOL0     C86225   5.413   4.656  -0.997  0.1139  1.4195  0.1432
  654MOL0     O86226   5.369   4.777  -1.016  0.3708 -0.0184 -0.0895
  654MOL0     C86227   5.240   4.792  -1.055 -0.6929  0.1925  0.3493
  654MOL0     C86228   5.176   4.733  -1.168 -0.7115  0.1291  0.0698
  654MOL0     C86229   5.047   4.767  -1.213 -0.1567 -0.5118  0.0977
  654MOL0     C86230   4.981   4.868  -1.148  0.2283  1.0525  0.4284
  654MOL0     O86231   4.851   4.912  -1.154  0.1196 -0.0662  1.0016
  654MOL0     C86232   4.753   4.837  -1.222  0.7202 -0.2246  0.7290
  654MOL0     C86233   4.657   4.937  -1.275 -0.8481  0.1907  0.2981
  654MOL0     C86234   4.573   4.862  -1.393 -0.2409 -1.2229 -0.0190
  654MOL0     C86235   4.464   4.951  -1.446  0.0908  0.1601  0.8033
  654MOL0     C86236   4.350   4.958  -1.353  0.2164  0.4974  0.1652
  654MOL0     C86237   4.229   5.027  -1.401 -0.0860 -0.5496  0.4879
  654MOL0     C86238   4.100   4.986  -1.322  0.4101  0.3267 -0.1195
  654MOL0     C86239   4.106   5.026  -1.173  0.8930  0.4320  0.2618
  654MOL0    Cl86240   4.030   5.189  -1.170  0.2614 -0.3641  0.0129
  654MOL0     C86241   5.046   4.937  -1.044 -0.6616  0.0506  0.0632
  654MOL0     C86242   5.169   4.896  -0.992 -0.2682 -0.4065 -0.5478
  654MOL0     O86243   5.346   4.555  -0.968 -0.7098  0.0519  0.1375
  654MOL0     C86244   5.646   4.742  -1.016  0.4492  0.3733 -1.2456
  654MOL0     C86245   5.782   4.741  -1.026 -0.0527 -0.3178  0.2455
  654MOL0     N86246   6.418   4.315  -0.909 -0.7287 -0.2205  0.8440
  654MOL0     N86247   6.513   4.230  -0.898 -0.3855  0.3581  0.5352
  654MOL0     C86248   7.483   4.681  -0.470  0.3670  0.2751 -0.5936
  654MOL0     C86249   7.473   4.743  -0.341 -0.4537 -0.5367  0.2067
  654MOL0     C86250   7.606   4.783   0.125  1.1036  0.4705  0.3217
  654MOL0     C86251   7.689   4.753   0.228  0.1007  0.1444 -0.1128
  654MOL0     C86252   7.674   4.825   0.349 -1.1184 -0.4261 -0.2516
  654MOL0     C86253   7.573   4.911   0.369  0.7447 -0.1531  0.4153
  654MOL0     O86254   7.561   4.964   0.502 -0.5129  0.6776  0.1682
  654MOL0     C86255   7.497   5.095   0.501 -0.2397 -0.8843  0.3120
  654MOL0     C86256   7.597   5.206   0.458  1.0557  0.7030 -0.4834
  654MOL0     C86257   7.730   5.209   0.539  0.2196  0.3401 -0.9170
  654MOL0     C86258   7.815   5.330   0.493 -0.1647 -0.0133  0.3598
  654MOL0     C86259   7.958   5.301   0.504  0.5956 -0.3536  0.4248
  654MOL0     C86260   8.079   5.300   0.505  0.0698  0.1272  0.5489
  654MOL0     C86261   7.489   4.939   0.262  0.3591 -0.0191  0.1717
  654MOL0     C86262   7.505   4.880   0.135 -0.8349 -1.1922 -0.4357
  654MOL0     H86263   7.681   4.516  -0.190  1.0754 -0.1798 -1.3394
  654MOL0     H86264   7.676   4.408  -0.409  1.3696  1.3892 -1.5785
  654MOL0     H86265   7.499   4.293  -0.556 -0.9072 -1.5847 -0.3421
  654MOL0     H86266   7.644   4.339  -0.640  0.1041  0.7366  2.8862
  654MOL0     H86267   7.484   4.212  -0.775  3.9590 -0.3466  2.3250
  654MOL0     H86268   7.460   4.382  -0.843  1.2117  1.1794  1.1199
  654MOL0     H86269   7.270   4.416  -0.716  3.0616  1.5370  2.9227
  654MOL0     H86270   7.288   4.266  -0.627 -4.9219  1.1673  0.0624
  654MOL0     H86271   7.235   4.285  -0.921  3.4381 -0.8277  1.0548
  654MOL0     H86272   7.250   4.135  -0.841 -1.4432  0.2917 -3.0725
  654MOL0     H86273   7.056   4.360  -0.824 -0.2988 -0.0471 -0.3926
  654MOL0     H86274   7.061   4.249  -0.686  2.5077 -1.9561  0.0342
  654MOL0     H86275   6.987   4.065  -0.841  1.4598  0.1110 -0.0375
  654MOL0     H86276   7.022   4.177  -0.976  1.6238 -0.4502  0.3633
  654MOL0     H86277   6.792   4.168  -0.765 -0.4943 -1.1350 -0.6782
  654MOL0     H86278   6.850   4.324  -0.812 -0.5664  0.5884 -1.1816
  654MOL0     H86279   6.721   4.122  -1.000 -1.6619 -0.4986  1.8985
  654MOL0     H86280   6.810   4.275  -1.054  1.8726 -0.6393  0.8122
  654MOL0     H86281   6.674   4.492  -1.019  0.9893  0.1109  0.1810
  654MOL0     H86282   6.447   4.592  -1.101  3.2356 -1.6698  1.0955
  654MOL0     H86283   6.487   4.635  -0.936  0.9868  0.1174  1.4049
  654MOL0     H86284   6.244   4.667  -0.904 -2.5374 -0.0115 -0.9397
  654MOL0     H86285   6.223   4.493  -0.959  0.2750  0.6566 -0.6731
  654MOL0     H86286   6.278   4.726  -1.149 -0.2841  0.5170  0.9188
  654MOL0     H86287   6.200   4.574  -1.179  0.4263 -0.7795  0.6628
  654MOL0     H86288   6.026   4.744  -1.186 -0.4116 -0.2989 -1.6994
  654MOL0     H86289   6.078   4.798  -1.025 -2.8655 -1.2869  1.8825
  654MOL0     H86290   5.814   4.407  -1.013  1.0199  0.0750  0.1972
  654MOL0     H86291   5.571   4.417  -0.973 -3.2735  2.0639 -0.2743
  654MOL0     H86292   5.229   4.651  -1.214  1.2895 -0.4190  3.1008
  654MOL0     H86293   5.009   4.711  -1.298 -0.0495 -3.0226  1.6136
  654MOL0     H86294   4.705   4.777  -1.145 -1.5808 -0.3001 -0.6760
  654MOL0     H86295   4.785   4.771  -1.304  2.2969  1.6685 -0.2921
  654MOL0     H86296   4.702   5.033  -1.303 -1.7025  0.5817  0.2118
  654MOL0     H86297   4.598   4.955  -1.184 -0.6391  1.0945  0.2691
  654MOL0     H86298   4.542   4.766  -1.351 -0.3416 -0.2899  2.1397
  654MOL0     H86299   4.644   4.842  -1.474 -1.8775  0.9534 -2.1302
  654MOL0     H86300   4.503   5.052  -1.465 -1.7429  0.6029 -1.0010
  654MOL0     H86301   4.441   4.916  -1.547  0.8792 -1.6181  1.1897
  654MOL0     H86302   4.387   5.005  -1.261  0.0803 -1.0041  1.0326
  654MOL0     H86303   4.319   4.853  -1.341 -2.3100  1.0021 -1.2057
  654MOL0     H86304   4.207   5.022  -1.508 -1.3721  1.9337  0.5578
  654MOL0     H86305   4.268   5.127  -1.379  0.8164 -0.6390 -0.6275
  654MOL0     H86306   4.018   5.044  -1.367  0.1986  0.5932  0.5957
  654MOL0     H86307   4.076   4.880  -1.330  1.2912 -0.0377  1.6271
  654MOL0     H86308   4.206   5.012  -1.132  1.2370 -1.4728 -1.0899
  654MOL0     H86309   4.031   4.968  -1.119 -1.3876  2.7415 -0.2261
  654MOL0     H86310   4.992   5.017  -0.994 -0.4954 -0.4980  1.1561
  654MOL0     H86311   5.218   4.945  -0.908 -0.7183 -0.5082 -0.2219
  654MOL0     H86312   5.596   4.838  -1.023 -0.1018  0.0166 -2.5960
  654MOL0     H86313   5.829   4.840  -1.025 -1.6050  0.4862  2.4418
  654MOL0     H86314   7.414   4.726  -0.541 -1.1403 -0.5333  0.3088
  654MOL0     H86315   7.414   4.830  -0.314 -0.5353 -1.2008  2.3237
  654MOL0     H86316   7.763   4.674   0.218 -0.6714 -0.4542 -1.3617
  654MOL0     H86317   7.751   4.798   0.421 -1.1921 -1.3180 -0.4891
  654MOL0     H86318   7.451   5.105   0.600 -0.4716 -4.3147  0.6489
  654MOL0     H86319   7.406   5.106   0.442  0.2331  1.2683 -0.1246
  654MOL0     H86320   7.610   5.215   0.350  0.4195 -0.7302 -0.7020
  654MOL0     H86321   7.547   5.300   0.482  1.0706  0.1548  1.8978
  654MOL0     H86322   7.786   5.119   0.511 -2.4811 -2.0351  0.7597
  654MOL0     H86323   7.708   5.197   0.645 -2.1550  2.6084 -1.0623
  654MOL0     H86324   7.793   5.370   0.393 -0.0737  0.6478  0.5996
  654MOL0     H86325   7.787   5.411   0.562  0.9125  1.4461 -0.8582
  654MOL0     H86326   8.186   5.302   0.514 -0.0344  2.1890  1.7252
  654MOL0     H86327   7.413   5.016   0.271  1.0301  0.5999  0.6148
  654MOL0     H86328   7.434   4.910   0.059 -1.7309 -2.3442 -0.0827
  655MOL0     O86329   8.978   9.137   2.303 -0.7130 -0.4140 -0.2836
  655MOL0     C86330   8.888   9.068   2.345  0.5265 -0.2957 -0.2461
  655MOL0     O86331   8.750   9.089   2.321  0.0341  0.5538 -0.3836
  655MOL0     C86332   8.721   9.180   2.222  0.1312 -1.2657  0.1086
  655MOL0     C86333   8.627   9.283   2.250 -1.4043  0.1353  0.6394
  655MOL0     C86334   8.593   9.374   2.149  0.1687  0.1919  0.4745
  655MOL0     C86335   8.647   9.369   2.024  0.0208 -0.9710  0.6078
  655MOL0     O86336   8.619   9.464   1.931 -0.4109  0.0004  0.3835
  655MOL0     C86337   8.729   9.550   1.892 -0.1782 -0.4894 -0.1137
  655MOL0     C86338   8.658   9.653   1.807  0.6828  0.0297  0.4150
  655MOL0     C86339   8.646   9.602   1.656  1.0681  1.0869  0.7428
  655MOL0     C86340   8.593   9.723   1.579 -0.3270  0.9753  0.5628
  655MOL0     C86341   8.566   9.710   1.428 -0.0662  0.2754  0.3027
  655MOL0     C86342   8.477   9.590   1.392 -0.2232  1.2585 -0.2532
  655MOL0     C86343   8.446   9.592   1.241  0.9618  0.6763 -0.6850
  655MOL0     C86344   8.299   9.547   1.214  0.1170 -0.1623  0.3988
  655MOL0     N86345   8.256   9.623   1.096 -0.0069  0.0589 -0.0736
  655MOL0     C86346   8.231   9.554   0.978 -0.4517  0.1132 -0.4280
  655MOL0     C86347   8.133   9.632   0.915 -0.2795 -0.5540  0.2638
  655MOL0     C86348   8.060   9.593   0.792 -0.5946  1.3646  0.8140
  655MOL0     C86349   7.920   9.565   0.809  0.0882  0.1592 -0.2939
  655MOL0     C86350   7.890   9.462   0.907  0.1599 -0.0777 -0.5716
  655MOL0     C86351   7.754   9.411   0.881  0.4753  0.5672 -0.1141
  655MOL0     O86352   7.737   9.275   0.924 -0.3455 -0.0633 -0.3117
  655MOL0     C86353   7.621   9.207   0.883 -0.1912  0.5166  1.0011
  655MOL0     C86354   7.493   9.262   0.891  0.7262 -0.2184  0.1226
  655MOL0     C86355   7.386   9.181   0.876 -0.2181  0.3221 -1.1453
  655MOL0     C86356   7.401   9.050   0.837  0.1239 -0.4493  0.0264
  655MOL0     C86357   7.273   8.971   0.831  0.0401  1.0860 -0.9082
  655MOL0     O86358   7.158   9.019   0.777  0.0734 -0.7070  0.3174
  655MOL0     C86359   7.050   8.932   0.781  1.0303  1.8395 -0.4518
  655MOL0     C86360   6.955   8.956   0.876 -0.1646 -0.8203  0.3419
  655MOL0     C86361   6.841   8.867   0.890 -0.0655  0.6488  0.0191
  655MOL0     C86362   6.837   8.755   0.813 -0.2161 -0.0071 -0.8564
  655MOL0     O86363   6.736   8.671   0.801 -0.0859 -0.3542 -0.6982
  655MOL0     C86364   6.611   8.739   0.805  0.2101  0.7256  0.1042
  655MOL0     C86365   6.506   8.648   0.742  0.6059 -0.0372 -0.3230
  655MOL0     C86366   6.353   8.681   0.758  0.5074  0.3715  0.1296
  655MOL0     C86367   6.307   8.819   0.729  0.7810  0.3651 -1.3487
  655MOL0     C86368   6.183   8.864   0.813 -0.3085  0.6334 -0.8288
  655MOL0     C86369   6.068   8.766   0.806 -0.2068  0.3021 -0.5980
  655MOL0     C86370   5.947   8.798   0.899  0.2880 -0.1046 -0.4425
  655MOL0     C86371   5.864   8.679   0.928  0.4713 -0.2468  0.4484
  655MOL0    Cl86372   5.948   8.567   1.042 -0.1528  0.0063  0.2605
  655MOL0     C86373   6.935   8.723   0.729  0.1431 -0.5992  0.2763
  655MOL0     C86374   7.048   8.809   0.712  0.2874 -0.0762 -0.2925
  655MOL0     O86375   7.276   8.850   0.852 -0.1631  0.6149 -0.3159
  655MOL0     C86376   7.522   8.994   0.816 -1.1224 -0.5827 -0.7645
  655MOL0     C86377   7.630   9.071   0.840 -0.1446  1.5540 -0.2473
  655MOL0     N86378   8.111   9.751   0.988 -0.5258 -0.3382 -1.0502
  655MOL0     N86379   8.192   9.747   1.092  0.0213  0.0898  0.3020
  655MOL0     C86380   8.736   9.271   1.986  0.0809  0.7313  0.1590
  655MOL0     C86381   8.778   9.174   2.089  0.6765  0.2701  0.3474
  655MOL0     C86382   8.920   8.961   2.437  0.3947  0.4181 -0.5461
  655MOL0     C86383   9.048   8.938   2.489 -0.1731  0.0702 -0.6339
  655MOL0     C86384   9.076   8.820   2.570  0.3959 -0.5505 -0.3920
  655MOL0     C86385   8.990   8.718   2.587  0.6534 -0.9650  0.6437
  655MOL0     O86386   9.033   8.607   2.652 -0.3264  0.2966 -0.0025
  655MOL0     C86387   8.976   8.489   2.604 -0.5592 -0.6206 -0.3253
  655MOL0     C86388   9.091   8.391   2.610  0.4442 -0.1045 -0.6314
  655MOL0     C86389   9.208   8.428   2.514 -0.3481 -0.8838 -0.2287
  655MOL0     C86390   9.223   8.352   2.383  0.3131 -0.5167 -0.2529
  655MOL0     C86391   9.339   8.401   2.310 -0.7732 -0.3290  0.0299
  655MOL0     C86392   9.446   8.411   2.238 -0.0170 -0.6781 -0.1489
  655MOL0     C86393   8.861   8.740   2.533 -0.5768 -0.0623  0.6525
  655MOL0     C86394   8.826   8.858   2.474 -0.7296 -0.6929  0.0790
  655MOL0     H86395   8.601   9.293   2.355  0.1727  1.9028  0.9221
  655MOL0     H86396   8.533   9.461   2.174  1.1725  0.7307  1.0558
  655MOL0     H86397   8.806   9.498   1.834 -0.4184 -0.1878 -0.7196
  655MOL0     H86398   8.770   9.588   1.986 -1.4718 -2.6571  1.3974
  655MOL0     H86399   8.725   9.740   1.809 -1.6692  1.9504  1.0402
  655MOL0     H86400   8.564   9.684   1.854 -1.0423 -0.8726 -2.1654
  655MOL0     H86401   8.576   9.518   1.648  1.0042  1.1696  0.4446
  655MOL0     H86402   8.741   9.562   1.619  0.1050 -0.0339 -0.6097
  655MOL0     H86403   8.502   9.770   1.618 -1.6301  0.0187 -1.1922
  655MOL0     H86404   8.667   9.802   1.593  1.0463 -0.6403  3.1251
  655MOL0     H86405   8.661   9.685   1.379  0.4888  0.1374  1.4234
  655MOL0     H86406   8.532   9.805   1.385  1.0683 -0.0104 -1.3338
  655MOL0     H86407   8.386   9.601   1.452 -0.5346  0.8004 -0.6326
  655MOL0     H86408   8.514   9.496   1.434 -2.7916  0.9388  1.5782
  655MOL0     H86409   8.461   9.691   1.197  1.0895  1.1405  0.3842
  655MOL0     H86410   8.521   9.528   1.195 -0.4136 -0.6006 -1.2261
  655MOL0     H86411   8.238   9.586   1.296 -2.8959 -2.7135 -0.4782
  655MOL0     H86412   8.283   9.439   1.209 -1.0111  0.0713 -2.8123
  655MOL0     H86413   8.264   9.456   0.946 -1.4366 -0.3089 -0.1832
  655MOL0     H86414   8.111   9.501   0.763  2.6156  3.3612 -0.4089
  655MOL0     H86415   8.079   9.665   0.711 -0.5378 -0.5407 -0.9601
  655MOL0     H86416   7.885   9.537   0.709 -0.6435  1.1467 -0.3287
  655MOL0     H86417   7.869   9.661   0.819 -0.2249  0.2754 -2.4705
  655MOL0     H86418   7.966   9.385   0.920  0.3099  0.0118 -0.9182
  655MOL0     H86419   7.886   9.503   1.009  0.2916 -1.3862 -0.0234
  655MOL0     H86420   7.734   9.412   0.774 -2.8520 -2.3337  0.2914
  655MOL0     H86421   7.677   9.476   0.925  0.2026 -1.3368  2.4734
  655MOL0     H86422   7.483   9.367   0.918 -1.6347 -0.3945  0.1274
  655MOL0     H86423   7.287   9.224   0.883 -0.1819  0.1485  0.9579
  655MOL0     H86424   6.943   9.049   0.931  0.0005 -0.4376 -0.2592
  655MOL0     H86425   6.768   8.897   0.964  2.7597 -0.6648  3.6570
  655MOL0     H86426   6.604   8.839   0.763 -1.5420 -0.1793 -1.9581
  655MOL0     H86427   6.584   8.755   0.910  0.6394  2.3860 -0.0225
  655MOL0     H86428   6.515   8.549   0.788 -2.1113 -1.1118 -1.8552
  655MOL0     H86429   6.545   8.635   0.640  1.3924 -2.0021  0.1789
  655MOL0     H86430   6.313   8.652   0.856 -1.2943 -2.1034 -1.2315
  655MOL0     H86431   6.300   8.608   0.696 -4.2983  3.0467  0.5965
  655MOL0     H86432   6.390   8.890   0.737  1.3189 -0.3691 -0.2787
  655MOL0     H86433   6.272   8.832   0.626  0.9727  3.3362 -1.1297
  655MOL0     H86434   6.144   8.958   0.773  0.1324  0.6896 -1.1414
  655MOL0     H86435   6.201   8.880   0.920 -0.0989 -1.6941 -0.4716
  655MOL0     H86436   6.100   8.666   0.837 -2.2421  0.6422  3.1425
  655MOL0     H86437   6.023   8.762   0.706  0.7796  0.2832 -1.0501
  655MOL0     H86438   5.997   8.826   0.992  0.5950 -1.2902 -0.2315
  655MOL0     H86439   5.894   8.884   0.857 -0.2323  1.8800  3.7629
  655MOL0     H86440   5.842   8.636   0.830  1.3725 -1.7307  0.8527
  655MOL0     H86441   5.769   8.711   0.973  0.5814  0.0309  0.4826
  655MOL0     H86442   6.932   8.632   0.670  0.3336  0.3556 -1.2446
  655MOL0     H86443   7.127   8.797   0.638 -0.0954 -5.0606 -0.2194
  655MOL0     H86444   7.527   8.889   0.787 -0.4568 -0.9863  0.6831
  655MOL0     H86445   7.729   9.027   0.837 -1.3761 -1.6510  1.5076
  655MOL0     H86446   8.778   9.259   1.887  0.0833  1.4957  0.0600
  655MOL0     H86447   8.841   9.088   2.068 -2.1097 -2.2540  1.6135
  655MOL0     H86448   9.117   9.021   2.478 -0.3325  0.4352  0.9209
  655MOL0     H86449   9.177   8.803   2.606  1.1268  1.6873 -1.1684
  655MOL0     H86450   8.950   8.490   2.498  3.1724 -0.8549 -1.4073
  655MOL0     H86451   8.883   8.463   2.655 -0.2643 -1.6783 -0.3061
  655MOL0     H86452   9.130   8.381   2.712 -4.4478 -0.0057  1.4953
  655MOL0     H86453   9.047   8.295   2.582 -0.2119  0.5210 -1.8386
  655MOL0     H86454   9.295   8.423   2.580  0.3826 -0.1509 -1.1146
  655MOL0     H86455   9.207   8.531   2.480  0.9928 -0.1730  1.6987
  655MOL0     H86456   9.223   8.244   2.397 -0.9236 -0.2317  2.7937
  655MOL0     H86457   9.135   8.382   2.326 -2.9780 -2.8772  3.0813
  655MOL0     H86458   9.538   8.432   2.188 -0.9679  1.2941 -1.1538
  655MOL0     H86459   8.778   8.671   2.544  0.0634 -0.9959 -0.2914
  655MOL0     H86460   8.722   8.880   2.449 -1.2277 -2.5922  0.3330
  656MOL0     O86461   2.666   3.696   9.546 -0.5922 -0.0599  0.2926
  656MOL0     C86462   2.699   3.598   9.611  0.0900 -0.2609 -0.5649
  656MOL0     O86463   2.613   3.518   9.672 -0.0033  0.8416  0.0356
  656MOL0     C86464   2.475   3.537   9.648 -0.3204  0.0960 -0.4158
  656MOL0     C86465   2.405   3.427   9.587 -0.5061 -0.4441  0.2232
  656MOL0     C86466   2.263   3.432   9.569 -0.9379  0.6445  0.8938
  656MOL0     C86467   2.195   3.535   9.628 -0.2290 -0.2964  0.1747
  656MOL0     O86468   2.061   3.538   9.640 -0.6675  0.0273  0.6952
  656MOL0     C86469   1.974   3.451   9.561 -0.4464  1.2484  0.5184
  656MOL0     C86470   1.835   3.480   9.619  0.3779  0.6844  0.3659
  656MOL0     C86471   1.779   3.615   9.567 -0.4564 -0.2064 -0.8454
  656MOL0     C86472   1.644   3.648   9.626  0.5612 -0.4329  0.1795
  656MOL0     C86473   1.573   3.750   9.535 -1.0334  0.3286 -0.0237
  656MOL0     C86474   1.465   3.818   9.605  0.7268  0.9219 -0.8639
  656MOL0     C86475   1.358   3.879   9.512  1.1503  0.4072 -0.5519
  656MOL0     C86476   1.265   3.756   9.474  0.6650 -0.0389 -0.0288
  656MOL0     N86477   1.191   3.766   9.355  0.5302  1.1734  0.2444
  656MOL0     C86478   1.234   3.744   9.228 -0.5572  0.0362  0.6627
  656MOL0     C86479   1.124   3.764   9.145  0.2598  0.4001 -0.0624
  656MOL0     C86480   1.131   3.769   8.994  0.6065 -0.5958 -0.6975
  656MOL0     C86481   1.086   3.911   8.948  0.3996  0.2234  0.2104
  656MOL0     C86482   1.194   4.015   8.969  0.5652 -0.1311  0.1770
  656MOL0     C86483   1.141   4.155   8.942 -0.2175  0.1526  0.1288
  656MOL0     O86484   1.259   4.232   8.943  0.0238 -0.0105 -0.7016
  656MOL0     C86485   1.256   4.360   8.925 -0.3699 -0.3971  0.2658
  656MOL0     C86486   1.144   4.442   8.943 -0.3107  1.0377 -0.5333
  656MOL0     C86487   1.151   4.574   8.919  0.2540  0.4222  0.0402
  656MOL0     C86488   1.274   4.635   8.879 -0.1954  0.4100 -0.1292
  656MOL0     C86489   1.284   4.784   8.860  0.4494  0.9842 -0.1227
  656MOL0     O86490   1.164   4.854   8.882 -0.1266 -0.1084  0.0748
  656MOL0     C86491   1.175   4.988   8.858 -0.2063  0.5996  0.5514
  656MOL0     C86492   1.124   5.074   8.956 -0.2135  0.2459 -1.2137
  656MOL0     C86493   1.146   5.209   8.941  0.3179 -0.0982  0.8935
  656MOL0     C86494   1.184   5.259   8.815  0.5039 -0.3137 -0.9630
  656MOL0     O86495   1.183   5.390   8.781  0.1843  0.2096 -0.5064
  656MOL0     C86496   1.228   5.485   8.885  0.1658 -0.8605  0.2689
  656MOL0     C86497   1.373   5.523   8.855 -0.6538 -0.2574  1.4205
  656MOL0     C86498   1.493   5.429   8.892  0.3421  0.1323  0.1941
  656MOL0     C86499   1.631   5.489   8.875  0.2119 -0.4110 -0.2366
  656MOL0     C86500   1.738   5.389   8.918 -0.1527  0.1408 -0.0960
  656MOL0     C86501   1.885   5.426   8.876 -0.3653 -0.1729 -0.0477
  656MOL0     C86502   1.935   5.528   8.977 -0.1305  0.0773  0.4612
  656MOL0     C86503   2.085   5.515   8.998  0.3459 -1.0752  0.1962
  656MOL0    Cl86504   2.137   5.357   9.037 -0.0465  0.7326 -0.2084
  656MOL0     C86505   1.221   5.175   8.709 -0.4515  0.0085 -0.0727
  656MOL0     C86506   1.221   5.037   8.731 -0.4672  0.5471 -0.4167
  656MOL0     O86507   1.394   4.834   8.861  0.0938 -0.4503 -0.1993
  656MOL0     C86508   1.384   4.546   8.859  0.1817  0.2446 -1.2136
  656MOL0     C86509   1.371   4.413   8.883 -0.7655 -0.4028  0.6628
  656MOL0     N86510   1.017   3.778   9.233  0.0817 -0.0567  0.1658
  656MOL0     N86511   1.056   3.795   9.343 -0.0009  0.6855 -1.1652
  656MOL0     C86512   2.262   3.634   9.695 -0.7966  0.0588  0.0676
  656MOL0     C86513   2.404   3.637   9.711  0.2195 -0.5011 -0.2810
  656MOL0     C86514   2.844   3.581   9.642 -0.3460 -1.6501 -0.3007
  656MOL0     C86515   2.944   3.675   9.602 -0.2445 -0.1854 -0.4626
  656MOL0     C86516   3.085   3.666   9.617 -0.0225 -0.4438 -0.1138
  656MOL0     C86517   3.126   3.545   9.670 -0.1480  0.3033  0.0212
  656MOL0     O86518   3.260   3.514   9.654  0.5613  0.2606  0.1801
  656MOL0     C86519   3.294   3.378   9.646  0.9277  0.7080  0.1978
  656MOL0     C86520   3.443   3.359   9.621  0.1305 -0.0127  0.0279
  656MOL0     C86521   3.483   3.461   9.514  0.3364 -0.5073  0.2401
  656MOL0     C86522   3.636   3.445   9.479  0.1689  0.4130  1.0122
  656MOL0     C86523   3.731   3.418   9.590 -0.1591  0.2180  0.2238
  656MOL0     C86524   3.824   3.424   9.664 -0.1088 -0.9226  0.1269
  656MOL0     C86525   3.032   3.443   9.708 -0.4771  0.2179  0.2782
  656MOL0     C86526   2.899   3.464   9.704  0.6817  0.1831  0.0532
  656MOL0     H86527   2.462   3.347   9.542 -1.3277 -0.0997 -1.4934
  656MOL0     H86528   2.212   3.349   9.520 -0.3694  1.2606 -0.7954
  656MOL0     H86529   2.003   3.347   9.581  2.9483  2.3300  2.1665
  656MOL0     H86530   1.980   3.476   9.455 -2.5660 -1.3961 -0.3284
  656MOL0     H86531   1.834   3.478   9.728 -0.5699 -0.0484  0.3570
  656MOL0     H86532   1.773   3.400   9.578 -0.5458  2.0002 -0.9023
  656MOL0     H86533   1.789   3.615   9.458  0.1020  2.4269 -0.8696
  656MOL0     H86534   1.847   3.693   9.603  2.3393 -2.5059 -0.8354
  656MOL0     H86535   1.583   3.558   9.642  1.4462 -0.8200  1.5052
  656MOL0     H86536   1.666   3.684   9.726 -1.8070  2.1413 -0.1213
  656MOL0     H86537   1.547   3.712   9.437 -0.4076  4.0560 -1.8275
  656MOL0     H86538   1.647   3.829   9.518  0.8964 -0.8866  2.1406
  656MOL0     H86539   1.500   3.899   9.670 -2.1335 -0.3871  2.6360
  656MOL0     H86540   1.404   3.763   9.677 -0.6072 -0.3421 -2.8599
  656MOL0     H86541   1.296   3.955   9.560  0.6427 -1.1010  1.3418
  656MOL0     H86542   1.394   3.922   9.419 -1.2818  2.1753 -0.7625
  656MOL0     H86543   1.197   3.746   9.559  0.0362  0.0346 -0.5219
  656MOL0     H86544   1.320   3.661   9.478 -0.2468 -0.5563  0.4458
  656MOL0     H86545   1.334   3.712   9.201 -0.0542  1.5219  0.6997
  656MOL0     H86546   1.070   3.693   8.944 -0.7815  0.0661 -0.0693
  656MOL0     H86547   1.233   3.767   8.954 -0.0228 -0.5272 -2.3949
  656MOL0     H86548   0.993   3.948   8.992  1.1622  2.1338  0.2848
  656MOL0     H86549   1.060   3.907   8.842  0.5088 -2.4987  0.1950
  656MOL0     H86550   1.253   4.000   9.060  2.3744 -0.3562 -0.9835
  656MOL0     H86551   1.269   3.987   8.895  1.2077 -1.2095  1.1884
  656MOL0     H86552   1.066   4.189   9.014 -0.8565 -1.2105  0.1294
  656MOL0     H86553   1.090   4.169   8.846 -1.9787  2.8249  1.3103
  656MOL0     H86554   1.048   4.397   8.968  0.2989 -0.1387 -0.2933
  656MOL0     H86555   1.064   4.639   8.927  0.1547  0.1103  1.9818
  656MOL0     H86556   1.079   5.043   9.050 -0.1394  1.4747 -0.7469
  656MOL0     H86557   1.114   5.283   9.014  1.1410  0.5418  0.6166
  656MOL0     H86558   1.242   5.445   8.986  0.0559  3.1812  2.1165
  656MOL0     H86559   1.167   5.576   8.890  2.2125  0.5390  1.5336
  656MOL0     H86560   1.380   5.616   8.912  1.4746 -0.1677  1.1167
  656MOL0     H86561   1.384   5.550   8.750 -2.4503 -1.4093  0.8942
  656MOL0     H86562   1.486   5.338   8.832  0.2059 -0.6657  1.4034
  656MOL0     H86563   1.478   5.417   9.000 -1.7239 -0.4872 -0.1174
  656MOL0     H86564   1.646   5.496   8.767 -0.9808 -0.3571 -0.4129
  656MOL0     H86565   1.632   5.587   8.922  0.1829 -0.0708 -0.9267
  656MOL0     H86566   1.712   5.294   8.871  0.1106 -0.3022  0.6281
  656MOL0     H86567   1.736   5.360   9.024  0.6081  2.2460  0.5460
  656MOL0     H86568   1.890   5.480   8.781  1.9427 -1.3476 -0.6794
  656MOL0     H86569   1.947   5.336   8.867 -1.5525 -0.9512 -0.7653
  656MOL0     H86570   1.899   5.627   8.951  1.1799 -0.1017 -2.3031
  656MOL0     H86571   1.886   5.500   9.071 -1.8078 -0.5744 -0.5528
  656MOL0     H86572   2.112   5.573   9.086 -0.0706 -1.5099  0.6219
  656MOL0     H86573   2.146   5.557   8.918 -3.1670  2.3695 -1.0138
  656MOL0     H86574   1.237   5.211   8.607 -1.1028 -2.5476 -1.1667
  656MOL0     H86575   1.249   4.971   8.650  2.7477 -0.8574  1.6443
  656MOL0     H86576   1.482   4.583   8.831  1.0982 -0.7422  0.5737
  656MOL0     H86577   1.453   4.345   8.863 -0.3983  0.2286 -0.0206
  656MOL0     H86578   2.208   3.709   9.752 -2.8107 -1.6440  0.4899
  656MOL0     H86579   2.452   3.714   9.770 -2.4480  2.1934 -1.3607
  656MOL0     H86580   2.918   3.773   9.564  0.3169  1.4331  2.9405
  656MOL0     H86581   3.146   3.749   9.582 -0.1052  1.4930  3.7522
  656MOL0     H86582   3.248   3.327   9.560  0.2716 -0.1892  1.0656
  656MOL0     H86583   3.264   3.338   9.743  4.8691  1.0106  1.7198
  656MOL0     H86584   3.498   3.382   9.713  0.2402  0.6853 -0.2078
  656MOL0     H86585   3.463   3.254   9.598 -1.0076 -0.2779  0.2224
  656MOL0     H86586   3.469   3.565   9.546  0.9505 -0.1299 -0.6954
  656MOL0     H86587   3.422   3.454   9.423  1.6855  0.0876 -0.7368
  656MOL0     H86588   3.659   3.356   9.420 -0.0375  0.3217  1.0655
  656MOL0     H86589   3.669   3.533   9.423 -2.3630  2.8236  3.0167
  656MOL0     H86590   3.890   3.449   9.745 -0.6234 -0.7238  0.4917
  656MOL0     H86591   3.062   3.345   9.743  3.3892  0.6227 -1.4298
  656MOL0     H86592   2.827   3.386   9.726 -1.8713  3.0848  3.1338
  657MOL0     O86593   6.272   1.984   6.348 -0.0644  0.6817  0.4117
  657MOL0     C86594   6.321   1.893   6.289 -0.5965  0.3896  0.3843
  657MOL0     O86595   6.264   1.766   6.268 -0.0159 -0.8058  0.1683
  657MOL0     C86596   6.139   1.728   6.307 -0.8273  0.5680 -0.0306
  657MOL0     C86597   6.033   1.814   6.297  0.1635  0.2581 -0.4438
  657MOL0     C86598   5.904   1.767   6.333 -0.7674 -0.5579 -0.0836
  657MOL0     C86599   5.891   1.640   6.398  0.8814 -0.3124 -0.0651
  657MOL0     O86600   5.767   1.591   6.446 -0.5607  0.0426  0.3798
  657MOL0     C86601   5.665   1.686   6.497 -0.3233 -0.1013  0.5602
  657MOL0     C86602   5.541   1.707   6.404 -0.7918  0.2978  0.7366
  657MOL0     C86603   5.465   1.577   6.383 -0.1276  0.2299 -0.5937
  657MOL0     C86604   5.371   1.590   6.263 -0.2326 -0.4204  0.3964
  657MOL0     C86605   5.269   1.472   6.260  0.2646 -0.4415 -0.0783
  657MOL0     C86606   5.153   1.499   6.363 -0.6680  0.4078 -0.0251
  657MOL0     C86607   5.091   1.362   6.412  1.0738  0.0231 -0.2078
  657MOL0     C86608   4.968   1.380   6.501 -0.1243 -0.5243  0.1521
  657MOL0     N86609   4.845   1.406   6.434 -0.1419 -0.5560  0.5731
  657MOL0     C86610   4.784   1.322   6.349 -0.3123  0.4886 -0.1532
  657MOL0     C86611   4.673   1.391   6.317 -0.0482 -0.3906 -0.0163
  657MOL0     C86612   4.553   1.331   6.245  0.3457  0.1217  0.3834
  657MOL0     C86613   4.574   1.315   6.094  0.4438  0.1227  0.4771
  657MOL0     C86614   4.637   1.178   6.049 -0.8523 -0.1671 -0.3880
  657MOL0     C86615   4.679   1.183   5.901  0.4606 -0.1747 -0.0171
  657MOL0     O86616   4.564   1.203   5.808 -0.1042 -0.6107  0.0287
  657MOL0     C86617   4.496   1.103   5.747 -0.3862 -0.0909 -0.0659
  657MOL0     C86618   4.379   1.141   5.687 -0.9551 -0.3692 -0.0696
  657MOL0     C86619   4.303   1.043   5.625 -0.2284 -0.5096  0.4610
  657MOL0     C86620   4.348   0.908   5.611 -0.6595  0.2761 -0.5180
  657MOL0     C86621   4.278   0.811   5.530  0.5523 -0.5642  0.4597
  657MOL0     O86622   4.362   0.716   5.481 -0.1445  0.9498  0.4433
  657MOL0     C86623   4.313   0.629   5.393 -0.2691 -0.6931 -0.2002
  657MOL0     C86624   4.392   0.594   5.285  0.8796 -0.1128  0.7459
  657MOL0     C86625   4.367   0.502   5.184  0.3608  0.5685  0.2984
  657MOL0     C86626   4.236   0.447   5.182 -0.5564 -0.2004  0.2788
  657MOL0     O86627   4.196   0.372   5.075 -0.0635 -0.9683  0.6049
  657MOL0     C86628   4.057   0.379   5.038  0.7655  0.1686 -0.6661
  657MOL0     C86629   4.054   0.329   4.891  0.4026 -0.0830 -0.1259
  657MOL0     C86630   3.910   0.346   4.821  0.2229 -0.2088  0.1171
  657MOL0     C86631   3.861   0.491   4.839  0.0829 -0.3199  0.7574
  657MOL0     C86632   3.741   0.519   4.751 -0.2132 -0.1290  0.0243
  657MOL0     C86633   3.718   0.667   4.731  0.1767 -0.5627  0.2496
  657MOL0     C86634   3.634   0.694   4.611  0.2402 -0.0454  0.1148
  657MOL0     C86635   3.711   0.675   4.476 -0.4762  0.1888 -0.1725
  657MOL0    Cl86636   3.592   0.708   4.339 -0.0682  0.2562  0.0556
  657MOL0     C86637   4.146   0.485   5.281  0.7451  0.0086 -0.5406
  657MOL0     C86638   4.188   0.566   5.388 -1.0876  0.3693 -0.0342
  657MOL0     O86639   4.158   0.819   5.507  1.0036  0.0897 -1.1732
  657MOL0     C86640   4.467   0.877   5.675  0.2053  0.3287  0.4089
  657MOL0     C86641   4.544   0.970   5.745  0.7620  0.8038 -0.7266
  657MOL0     N86642   4.675   1.523   6.371 -0.2243 -0.1362  0.2025
  657MOL0     N86643   4.780   1.526   6.436  0.4982 -0.9782 -0.0749
  657MOL0     C86644   6.001   1.553   6.410 -0.5239 -0.0506 -0.4849
  657MOL0     C86645   6.132   1.598   6.360  0.3571 -0.0817 -0.3626
  657MOL0     C86646   6.449   1.904   6.217 -0.1231  0.1765  0.1179
  657MOL0     C86647   6.508   1.798   6.142  0.2193  0.1388 -0.0012
  657MOL0     C86648   6.627   1.815   6.072 -0.4669 -0.0044 -0.2736
  657MOL0     C86649   6.689   1.938   6.081  0.6497 -0.3202 -0.7034
  657MOL0     O86650   6.808   1.958   6.015  0.2682 -0.0395 -0.5147
  657MOL0     C86651   6.919   1.891   6.078 -0.0970 -0.0210  0.0519
  657MOL0     C86652   7.031   1.866   5.976  0.4896  0.2154  0.4347
  657MOL0     C86653   7.176   1.825   6.014 -0.9277 -0.2060 -0.5554
  657MOL0     C86654   7.234   1.909   6.131  0.2764  0.9374 -0.1472
  657MOL0     C86655   7.225   2.053   6.114  0.5380 -0.7151  0.1736
  657MOL0     C86656   7.244   2.164   6.069 -0.6183 -0.2030 -0.3749
  657MOL0     C86657   6.634   2.044   6.152 -1.3779 -1.5034  0.1812
  657MOL0     C86658   6.513   2.030   6.214 -0.2533  0.5213  0.0654
  657MOL0     H86659   6.048   1.916   6.262 -0.9185  0.3872 -0.5397
  657MOL0     H86660   5.824   1.839   6.323  2.1042  3.4505  2.3083
  657MOL0     H86661   5.711   1.781   6.525  0.6507 -0.6659  0.9133
  657MOL0     H86662   5.634   1.643   6.593 -0.9220  0.8592  0.8108
  657MOL0     H86663   5.576   1.742   6.307  1.2299  2.7629  2.2165
  657MOL0     H86664   5.475   1.779   6.453 -1.4788 -0.8226  1.5033
  657MOL0     H86665   5.406   1.553   6.472 -0.7987  1.5944 -0.6394
  657MOL0     H86666   5.529   1.490   6.369 -0.7756 -0.6402  1.5056
  657MOL0     H86667   5.324   1.689   6.260  2.4408  0.9190 -1.0648
  657MOL0     H86668   5.441   1.589   6.179  1.5054  2.0054  1.7231
  657MOL0     H86669   5.324   1.381   6.282  1.4703  0.2194 -0.2952
  657MOL0     H86670   5.224   1.456   6.162  0.4274 -2.7766  0.1726
  657MOL0     H86671   5.086   1.580   6.333 -0.3184 -0.0949 -2.3756
  657MOL0     H86672   5.210   1.529   6.451 -2.3081  1.7607  0.6185
  657MOL0     H86673   5.074   1.303   6.322  1.9243  2.4895 -2.1202
  657MOL0     H86674   5.167   1.308   6.469 -0.2488 -0.5030  1.0970
  657MOL0     H86675   4.982   1.461   6.573  0.9813  0.9663 -1.6305
  657MOL0     H86676   4.950   1.288   6.558  2.1178  0.4902  2.6780
  657MOL0     H86677   4.807   1.218   6.332  0.2460  0.3781  1.1364
  657MOL0     H86678   4.464   1.392   6.264  0.8277  0.3988  1.8732
  657MOL0     H86679   4.533   1.233   6.290 -1.0619  1.4464  2.7985
  657MOL0     H86680   4.632   1.394   6.046 -0.4606  0.1035 -0.6813
  657MOL0     H86681   4.479   1.314   6.041  0.3017  0.4808  0.7299
  657MOL0     H86682   4.718   1.157   6.118  0.8358  1.3934 -1.7865
  657MOL0     H86683   4.566   1.096   6.061 -2.4383  1.1496 -0.4117
  657MOL0     H86684   4.724   1.083   5.890 -0.3058 -1.0624  3.5818
  657MOL0     H86685   4.751   1.263   5.885  0.2044  0.4700  1.8190
  657MOL0     H86686   4.339   1.240   5.703  0.3375 -0.0135  1.0952
  657MOL0     H86687   4.203   1.074   5.595  0.5022  2.9153  1.1987
  657MOL0     H86688   4.487   0.648   5.286  1.0703 -0.4500  1.2798
  657MOL0     H86689   4.433   0.471   5.104 -1.2454 -2.6213  0.0413
  657MOL0     H86690   4.022   0.482   5.048 -0.7337 -0.2627 -1.2408
  657MOL0     H86691   3.999   0.308   5.097  2.7484 -1.1589 -0.2061
  657MOL0     H86692   4.106   0.235   4.869  1.5570  1.0137 -2.4619
  657MOL0     H86693   4.118   0.399   4.837  2.0599 -1.0481  0.4829
  657MOL0     H86694   3.839   0.265   4.840  1.4883 -2.1068 -2.5750
  657MOL0     H86695   3.928   0.332   4.714 -0.0891 -0.9672  0.1558
  657MOL0     H86696   3.836   0.527   4.940 -4.1357 -0.2086 -0.1296
  657MOL0     H86697   3.943   0.545   4.791  0.4693  1.1155  2.8786
  657MOL0     H86698   3.662   0.457   4.794  1.9943 -2.1123  1.4649
  657MOL0     H86699   3.750   0.484   4.648  1.8268  1.4057 -0.3765
  657MOL0     H86700   3.813   0.720   4.720  0.3872 -1.1011 -0.6762
  657MOL0     H86701   3.669   0.723   4.812 -0.7213  0.0954 -0.7182
  657MOL0     H86702   3.545   0.632   4.600 -1.0621  1.6377  0.7754
  657MOL0     H86703   3.606   0.800   4.613 -0.8924 -0.3227  2.8689
  657MOL0     H86704   3.754   0.576   4.460  0.0464  0.1186  1.5000
  657MOL0     H86705   3.799   0.740   4.478  0.0005 -0.4677  0.8501
  657MOL0     H86706   4.045   0.444   5.286  0.0184  1.6036 -1.2597
  657MOL0     H86707   4.108   0.600   5.452 -0.9203 -0.0497  0.4053
  657MOL0     H86708   4.504   0.775   5.676  2.2471  0.8780  4.9312
  657MOL0     H86709   4.613   0.927   5.817 -1.1559  0.0173  0.7342
  657MOL0     H86710   6.002   1.452   6.449 -5.4944  0.0015  0.3859
  657MOL0     H86711   6.227   1.546   6.361  0.2503 -0.2787 -0.4244
  657MOL0     H86712   6.457   1.702   6.135  1.1551 -0.4410  0.7689
  657MOL0     H86713   6.678   1.736   6.018 -0.7809 -1.2003  1.1083
  657MOL0     H86714   6.889   1.799   6.128 -0.1374 -0.0124  0.0436
  657MOL0     H86715   6.955   1.962   6.153  2.5023  2.5625 -3.2913
  657MOL0     H86716   6.997   1.795   5.901  3.6358 -0.8865 -0.0988
  657MOL0     H86717   7.038   1.960   5.920  0.4712 -0.9594 -1.6247
  657MOL0     H86718   7.241   1.829   5.925 -0.9918  0.4200 -0.5770
  657MOL0     H86719   7.176   1.721   6.047  1.2894 -0.1105 -0.0989
  657MOL0     H86720   7.160   1.893   6.210 -0.8834 -0.8720 -1.5206
  657MOL0     H86721   7.334   1.880   6.166 -1.0256  2.3571  5.7864
  657MOL0     H86722   7.274   2.266   6.059 -3.2238  0.5230 -1.4615
  657MOL0     H86723   6.693   2.132   6.175 -1.8400 -1.0850 -0.2111
  657MOL0     H86724   6.469   2.110   6.273 -2.4560 -0.1713 -0.5383
  658MOL0     O86725   0.027   8.798   8.680  0.0758  0.7221  0.1642
  658MOL0     C86726   0.060   8.823   8.566 -0.2710  0.3991  0.0424
  658MOL0     O86727  -0.004   8.903   8.474 -0.2204  0.5254  0.7845
  658MOL0     C86728  -0.123   8.970   8.480 -0.4133 -0.1881  0.0591
  658MOL0     C86729  -0.194   8.995   8.597 -0.3499 -0.1615 -0.3051
  658MOL0     C86730  -0.319   9.067   8.600  0.1260  0.0658 -0.0253
  658MOL0     C86731  -0.382   9.102   8.478 -0.6808 -0.1984 -0.3480
  658MOL0     O86732  -0.501   9.156   8.463  0.0347  0.4220  0.0910
  658MOL0     C86733  -0.522   9.274   8.538  0.7273  0.3578 -0.6179
  658MOL0     C86734  -0.637   9.355   8.497 -0.3193 -0.4974 -0.7692
  658MOL0     C86735  -0.761   9.268   8.503  1.2890  0.1555  0.3114
  658MOL0     C86736  -0.874   9.345   8.442 -0.6490  0.0192 -0.5715
  658MOL0     C86737  -1.003   9.262   8.439  0.3215 -0.0283  0.8482
  658MOL0     C86738  -1.127   9.334   8.494  0.2336 -0.4499  0.0711
  658MOL0     C86739  -1.254   9.257   8.499 -0.0838  0.5751 -0.0677
  658MOL0     C86740  -1.314   9.226   8.367 -0.4194 -0.6408 -0.2123
  658MOL0     N86741  -1.451   9.184   8.363 -0.0040 -0.1312  0.3532
  658MOL0     C86742  -1.520   9.108   8.446  0.4267 -1.3711 -0.1222
  658MOL0     C86743  -1.637   9.081   8.374 -0.0457  0.1814 -0.3878
  658MOL0     C86744  -1.751   8.992   8.431 -0.4846 -0.2809  0.8884
  658MOL0     C86745  -1.852   9.084   8.493  0.5409  1.1876  0.7262
  658MOL0     C86746  -1.975   9.008   8.545  0.9978 -0.4637  0.4241
  658MOL0     C86747  -2.080   8.980   8.428 -0.3679 -0.6212 -0.8706
  658MOL0     O86748  -2.211   8.958   8.487 -0.4393 -0.0041  1.5230
  658MOL0     C86749  -2.318   8.936   8.403  0.3138 -0.4787  0.2115
  658MOL0     C86750  -2.434   8.898   8.479  0.2099  0.4149  0.9527
  658MOL0     C86751  -2.558   8.889   8.414 -0.2182 -0.5966  0.1105
  658MOL0     C86752  -2.574   8.923   8.274 -0.2839  0.4446  0.3527
  658MOL0     C86753  -2.715   8.929   8.217 -0.6309  0.3317  0.4646
  658MOL0     O86754  -2.730   8.959   8.084  0.0906  0.2944 -0.4367
  658MOL0     C86755  -2.841   8.927   8.018 -0.5987 -0.0812 -0.3027
  658MOL0     C86756  -2.837   8.959   7.876  0.1189  0.4950 -0.0763
  658MOL0     C86757  -2.949   8.919   7.795 -0.3107 -0.8437 -0.7389
  658MOL0     C86758  -3.064   8.860   7.855  0.1834 -0.3779 -0.0389
  658MOL0     O86759  -3.158   8.826   7.771 -0.1333  0.1012 -0.3879
  658MOL0     C86760  -3.263   8.729   7.805 -0.2021 -0.5087 -0.2426
  658MOL0     C86761  -3.326   8.675   7.681 -0.1019 -0.9528 -0.2919
  658MOL0     C86762  -3.409   8.782   7.622  0.1947 -0.3334  0.4024
  658MOL0     C86763  -3.497   8.705   7.512  0.5222 -0.0996 -0.8350
  658MOL0     C86764  -3.598   8.800   7.447 -0.3403 -0.2826 -0.4034
  658MOL0     C86765  -3.686   8.723   7.349 -0.0483  0.3856 -0.7447
  658MOL0     C86766  -3.783   8.817   7.258 -0.4667 -0.1104 -0.5813
  658MOL0     C86767  -3.840   8.743   7.149  0.2138 -0.4745 -0.1837
  658MOL0    Cl86768  -3.710   8.685   7.032 -0.4897 -0.7644 -0.0556
  658MOL0     C86769  -3.060   8.823   7.987  0.5370  0.4896  0.2586
  658MOL0     C86770  -2.946   8.854   8.066 -0.3108  0.6537 -0.2927
  658MOL0     O86771  -2.801   8.913   8.303 -0.2238 -0.1584 -0.1631
  658MOL0     C86772  -2.461   8.967   8.201  0.2274 -1.1866  0.1331
  658MOL0     C86773  -2.330   8.973   8.266 -0.8773  0.0454 -0.8466
  658MOL0     N86774  -1.624   9.134   8.248 -0.6410  0.0217 -0.6931
  658MOL0     N86775  -1.508   9.197   8.242  1.2889 -0.6501 -0.5315
  658MOL0     C86776  -0.311   9.080   8.366 -0.8941  0.2630  0.3452
  658MOL0     C86777  -0.177   9.025   8.360 -0.6422 -0.0889 -0.6255
  658MOL0     C86778   0.174   8.746   8.506  0.0311 -0.3616  0.1006
  658MOL0     C86779   0.240   8.789   8.384  0.4241  0.1137 -0.3520
  658MOL0     C86780   0.343   8.715   8.331 -0.2864  0.8539  0.1558
  658MOL0     C86781   0.376   8.583   8.382  0.5523 -0.6587 -0.9766
  658MOL0     O86782   0.483   8.526   8.317 -0.3491 -0.2072 -0.1955
  658MOL0     C86783   0.526   8.397   8.368 -0.1907  0.2743 -0.1163
  658MOL0     C86784   0.638   8.412   8.479 -0.2088 -0.7021  0.5985
  658MOL0     C86785   0.762   8.479   8.435 -0.2343  0.5305  1.2591
  658MOL0     C86786   0.869   8.483   8.539 -0.1175 -0.6436 -0.2437
  658MOL0     C86787   0.926   8.342   8.569  0.5359 -1.1945 -1.4061
  658MOL0     C86788   0.982   8.231   8.573  0.4208 -0.1623 -1.1880
  658MOL0     C86789   0.306   8.547   8.503 -0.5134  0.1890 -0.3566
  658MOL0     C86790   0.204   8.619   8.560  0.2825 -0.7425 -0.1094
  658MOL0     H86791  -0.155   8.974   8.696  1.0063 -1.2565 -1.0459
  658MOL0     H86792  -0.360   9.090   8.698 -0.4661  3.0890 -0.8865
  658MOL0     H86793  -0.444   9.351   8.534  0.8863  0.3110  1.1687
  658MOL0     H86794  -0.533   9.252   8.644  1.3479 -0.7349 -0.7587
  658MOL0     H86795  -0.622   9.402   8.399  0.7269  1.7933  0.4116
  658MOL0     H86796  -0.643   9.440   8.565  0.5948 -0.8565 -0.2193
  658MOL0     H86797  -0.772   9.235   8.607  2.9180 -0.3443  0.3432
  658MOL0     H86798  -0.748   9.182   8.437 -1.3989  0.4840 -0.8048
  658MOL0     H86799  -0.894   9.429   8.508  1.2461 -1.3680  1.9321
  658MOL0     H86800  -0.846   9.384   8.343 -1.7573  0.3515 -0.7665
  658MOL0     H86801  -0.988   9.172   8.498  0.6093  0.1992  1.1261
  658MOL0     H86802  -1.028   9.226   8.338  0.7796 -2.2320  1.4636
  658MOL0     H86803  -1.137   9.429   8.441 -0.7251 -1.4499 -1.6368
  658MOL0     H86804  -1.096   9.357   8.596  1.6276  0.2161 -0.4632
  658MOL0     H86805  -1.237   9.163   8.553 -0.2228  0.2775 -0.5353
  658MOL0     H86806  -1.325   9.309   8.564  0.3625 -2.3455  3.0585
  658MOL0     H86807  -1.264   9.136   8.330 -0.4383  0.1855 -2.4134
  658MOL0     H86808  -1.294   9.305   8.295 -2.1216  0.2223  0.2192
  658MOL0     H86809  -1.490   9.084   8.548 -0.4595 -1.7291  0.0617
  658MOL0     H86810  -1.722   8.925   8.513 -1.1563 -2.6346 -0.6908
  658MOL0     H86811  -1.796   8.934   8.351 -2.7878  1.5367  0.7631
  658MOL0     H86812  -1.887   9.162   8.426  0.8128  1.7265  1.2011
  658MOL0     H86813  -1.806   9.142   8.574  4.3661 -1.2567  0.5702
  658MOL0     H86814  -1.955   8.912   8.593 -0.4063 -1.2848 -0.5835
  658MOL0     H86815  -2.013   9.076   8.622  0.7687 -2.0899  1.8152
  658MOL0     H86816  -2.050   8.893   8.370  1.0858  0.0006 -1.1028
  658MOL0     H86817  -2.075   9.056   8.350  2.1234  0.1270 -0.0927
  658MOL0     H86818  -2.432   8.877   8.585 -3.1263  1.2955  1.2841
  658MOL0     H86819  -2.648   8.846   8.458 -3.5559  0.9433 -4.3643
  658MOL0     H86820  -2.753   9.015   7.837 -0.5035  0.2360 -1.8519
  658MOL0     H86821  -2.955   8.952   7.692 -0.7582  2.9380  0.3488
  658MOL0     H86822  -3.337   8.786   7.863  1.4930  1.8600 -0.2726
  658MOL0     H86823  -3.221   8.650   7.869  0.3295 -0.6691 -0.7860
  658MOL0     H86824  -3.396   8.601   7.719 -2.1647  1.6904  1.4767
  658MOL0     H86825  -3.261   8.621   7.612 -2.9754 -2.2734 -2.1381
  658MOL0     H86826  -3.355   8.863   7.572 -1.3163  1.2767  1.2668
  658MOL0     H86827  -3.465   8.822   7.707  3.0348  2.1099  1.2613
  658MOL0     H86828  -3.434   8.665   7.431  0.6339  1.8509 -1.7677
  658MOL0     H86829  -3.552   8.617   7.546 -0.5261 -0.3186 -2.9290
  658MOL0     H86830  -3.553   8.889   7.401 -1.0215  1.4943  2.1252
  658MOL0     H86831  -3.663   8.840   7.525 -0.3217 -0.8403 -0.0979
  658MOL0     H86832  -3.742   8.645   7.401  0.7306  0.4383  0.2004
  658MOL0     H86833  -3.623   8.660   7.285  2.3636  2.2705 -0.3545
  658MOL0     H86834  -3.864   8.837   7.329  0.4725  0.8190  0.2724
  658MOL0     H86835  -3.729   8.907   7.226 -0.3505  1.0068  2.3420
  658MOL0     H86836  -3.916   8.790   7.086 -1.8359 -1.0317  1.7168
  658MOL0     H86837  -3.895   8.653   7.182 -0.7748  0.4706  0.8653
  658MOL0     H86838  -3.147   8.779   8.034  1.4736 -0.6617  0.9994
  658MOL0     H86839  -2.947   8.814   8.166  0.6544  4.5073  1.4381
  658MOL0     H86840  -2.480   9.003   8.101 -0.1402 -0.5634  0.4187
  658MOL0     H86841  -2.250   9.021   8.211  1.9452 -3.0413  0.2746
  658MOL0     H86842  -0.353   9.108   8.269 -1.2333 -2.9476 -0.5582
  658MOL0     H86843  -0.135   9.028   8.260 -2.8096  2.4196 -1.5891
  658MOL0     H86844   0.198   8.869   8.324  0.0400 -0.8260 -1.3795
  658MOL0     H86845   0.396   8.760   8.247  0.2388 -0.8833 -0.5008
  658MOL0     H86846   0.573   8.331   8.296  0.6233 -0.3481  0.9526
  658MOL0     H86847   0.440   8.338   8.400  1.3505 -2.0055  0.0687
  658MOL0     H86848   0.601   8.475   8.561 -0.5139  2.2399 -1.6284
  658MOL0     H86849   0.665   8.311   8.509  0.3112 -1.0928 -1.0931
  658MOL0     H86850   0.731   8.575   8.393 -0.0006 -0.7243 -2.0524
  658MOL0     H86851   0.803   8.428   8.347 -1.8195  0.6566  0.4127
  658MOL0     H86852   0.957   8.538   8.506  1.6395 -2.6564  0.7828
  658MOL0     H86853   0.812   8.522   8.624 -1.0065 -0.9209 -0.6953
  658MOL0     H86854   1.021   8.131   8.574  0.3778 -0.1819 -1.3385
  658MOL0     H86855   0.335   8.460   8.561 -2.5913  1.3353  2.6663
  658MOL0     H86856   0.147   8.591   8.648  2.3057  0.0003  1.5152
  659MOL0     O86857   2.120   0.540   4.259 -0.8617  0.0931 -0.5537
  659MOL0     C86858   2.007   0.537   4.312  0.0878 -0.3748 -0.0399
  659MOL0     O86859   1.986   0.494   4.435 -0.5269  0.6542  0.8303
  659MOL0     C86860   2.088   0.427   4.499 -0.4206 -0.3584 -0.6401
  659MOL0     C86861   2.092   0.287   4.498 -0.5960  0.5997  0.6151
  659MOL0     C86862   2.186   0.207   4.562 -0.1933  0.3649 -0.6067
  659MOL0     C86863   2.287   0.270   4.632  0.7376 -0.4002  0.0699
  659MOL0     O86864   2.383   0.204   4.704 -0.8237 -0.0818 -0.3736
  659MOL0     C86865   2.394   0.058   4.709 -0.1811  0.3743  1.0349
  659MOL0     C86866   2.317  -0.008   4.821  0.2723 -0.2121  0.6791
  659MOL0     C86867   2.294  -0.158   4.788 -0.0499 -0.3505 -0.1134
  659MOL0     C86868   2.426  -0.241   4.815 -0.0871 -0.4149 -0.2419
  659MOL0     C86869   2.401  -0.387   4.766 -0.0362 -0.5818  0.0104
  659MOL0     C86870   2.497  -0.474   4.850 -0.7715 -0.3557  0.4135
  659MOL0     C86871   2.484  -0.617   4.831  0.9967  0.6149 -0.1091
  659MOL0     C86872   2.533  -0.657   4.691  0.8407 -0.3853  0.2412
  659MOL0     N86873   2.428  -0.675   4.590  0.1847 -0.0230 -0.8844
  659MOL0     C86874   2.332  -0.770   4.599  0.4860 -0.3867  0.2700
  659MOL0     C86875   2.250  -0.755   4.492 -0.3503 -0.4399 -0.2490
  659MOL0     C86876   2.153  -0.859   4.468 -0.3629 -0.3717  0.0786
  659MOL0     C86877   2.067  -0.820   4.347  1.1317  0.3863 -0.3607
  659MOL0     C86878   1.930  -0.899   4.349  0.0433 -0.7141  0.2224
  659MOL0     C86879   1.824  -0.839   4.454 -0.2655 -0.3373  0.5542
  659MOL0     O86880   1.698  -0.901   4.437  0.3490 -0.1166  0.0964
  659MOL0     C86881   1.581  -0.836   4.436 -0.0038  0.1413 -0.7289
  659MOL0     C86882   1.478  -0.903   4.373 -0.4658 -0.1277  0.5146
  659MOL0     C86883   1.351  -0.852   4.373 -0.9116  0.0265  0.0296
  659MOL0     C86884   1.317  -0.712   4.415 -1.1679  0.6440  0.1168
  659MOL0     C86885   1.187  -0.648   4.406 -0.0175  0.3556 -0.5546
  659MOL0     O86886   1.187  -0.524   4.451 -0.3793 -0.2325 -0.3257
  659MOL0     C86887   1.067  -0.464   4.467 -0.3461 -0.5998  0.0418
  659MOL0     C86888   1.029  -0.426   4.596  0.1691 -0.3652  0.3868
  659MOL0     C86889   0.907  -0.359   4.616 -0.3000 -0.1301  0.4940
  659MOL0     C86890   0.820  -0.319   4.517  0.8734  0.6993 -0.1830
  659MOL0     O86891   0.698  -0.272   4.548 -0.3220 -0.4610  0.1695
  659MOL0     C86892   0.625  -0.212   4.442  0.5824 -0.7155  0.1872
  659MOL0     C86893   0.525  -0.106   4.483 -0.6233 -0.2514  0.0306
  659MOL0     C86894   0.427  -0.145   4.588  0.6436 -1.0314 -0.2622
  659MOL0     C86895   0.308  -0.047   4.574  0.0527  0.4140  0.4078
  659MOL0     C86896   0.241  -0.052   4.713 -0.3336  0.4261  0.3973
  659MOL0     C86897   0.113   0.038   4.717  0.0014 -0.2103 -0.1151
  659MOL0     C86898   0.006   0.004   4.822 -1.4846  0.3046  0.3316
  659MOL0     C86899  -0.093   0.114   4.815 -0.1988 -0.1156  0.5359
  659MOL0    Cl86900  -0.180   0.107   4.656 -0.1478 -0.2888  0.1796
  659MOL0     C86901   0.851  -0.371   4.386 -0.6218  1.0709 -0.2165
  659MOL0     C86902   0.975  -0.439   4.365 -0.4151  0.2153  0.8152
  659MOL0     O86903   1.092  -0.709   4.359  0.0127  0.5144  0.0315
  659MOL0     C86904   1.426  -0.646   4.468  0.6374  0.0360 -0.4385
  659MOL0     C86905   1.556  -0.704   4.474  1.2296 -0.4277 -0.5345
  659MOL0     N86906   2.296  -0.642   4.425  0.3004  0.8628 -0.1048
  659MOL0     N86907   2.407  -0.605   4.475 -0.1536  0.5821  0.0110
  659MOL0     C86908   2.290   0.409   4.640 -0.2559  0.1888  0.3641
  659MOL0     C86909   2.198   0.485   4.568 -0.1018  0.6799  0.3165
  659MOL0     C86910   1.890   0.581   4.243  0.5720  0.1550 -0.5462
  659MOL0     C86911   1.761   0.588   4.304  0.8371  0.5899  0.7096
  659MOL0     C86912   1.648   0.648   4.229  0.2860  0.0413  0.6989
  659MOL0     C86913   1.670   0.709   4.103  0.0577  0.1488 -0.2778
  659MOL0     O86914   1.572   0.765   4.023  0.5808 -0.4057  0.0803
  659MOL0     C86915   1.439   0.783   4.055  0.8710  0.3261 -0.1500
  659MOL0     C86916   1.349   0.837   3.944  0.2959 -0.3120 -0.1964
  659MOL0     C86917   1.269   0.721   3.889  1.1778  0.2529  0.0408
  659MOL0     C86918   1.169   0.761   3.769  0.9091  0.0005  0.6402
  659MOL0     C86919   1.072   0.653   3.730 -0.9638  0.3407  0.1268
  659MOL0     C86920   1.010   0.566   3.674 -0.5314 -0.8119  0.1184
  659MOL0     C86921   1.799   0.696   4.049 -0.0143  0.4404 -0.0819
  659MOL0     C86922   1.902   0.641   4.112 -1.3664  0.8980 -0.9821
  659MOL0     H86923   2.032   0.243   4.419  3.4281 -0.3700 -2.1848
  659MOL0     H86924   2.199   0.101   4.541  2.9637  0.3754  0.7244
  659MOL0     H86925   2.499   0.032   4.725 -0.3799 -2.6415 -1.4481
  659MOL0     H86926   2.378   0.017   4.608  0.1714 -1.6917  1.7712
  659MOL0     H86927   2.216   0.032   4.833  0.6405  0.3300  2.3538
  659MOL0     H86928   2.378  -0.005   4.912  0.6961 -0.1627  0.3935
  659MOL0     H86929   2.271  -0.168   4.682 -0.7879  1.1314 -0.1179
  659MOL0     H86930   2.212  -0.200   4.849  1.1366 -1.6425  0.6493
  659MOL0     H86931   2.519  -0.200   4.775  1.1274 -0.6290  2.1783
  659MOL0     H86932   2.437  -0.241   4.924  1.0588 -0.9997 -0.3423
  659MOL0     H86933   2.429  -0.382   4.660  4.2340  2.1008  1.0361
  659MOL0     H86934   2.295  -0.415   4.770 -0.0981 -0.9973 -2.6832
  659MOL0     H86935   2.480  -0.451   4.955 -5.0827 -3.6166  0.6998
  659MOL0     H86936   2.602  -0.447   4.839 -0.4909 -1.2659  0.7552
  659MOL0     H86937   2.549  -0.660   4.909 -1.5174 -2.5625  0.4257
  659MOL0     H86938   2.385  -0.658   4.851  1.4039 -1.1879 -1.5373
  659MOL0     H86939   2.594  -0.748   4.691  0.5357 -0.6060 -0.7237
  659MOL0     H86940   2.603  -0.580   4.658  1.6774 -0.2847  2.1116
  659MOL0     H86941   2.322  -0.852   4.668  1.2483  1.3686  2.5909
  659MOL0     H86942   2.076  -0.858   4.546 -1.3097  3.4620 -0.6858
  659MOL0     H86943   2.195  -0.956   4.441  0.3002 -0.0430 -0.1070
  659MOL0     H86944   2.123  -0.849   4.257  0.6167  0.2913 -0.6560
  659MOL0     H86945   2.055  -0.711   4.344 -3.4409  0.0558 -0.2297
  659MOL0     H86946   1.893  -0.896   4.246  3.6879 -1.8049 -1.2984
  659MOL0     H86947   1.944  -1.004   4.377 -1.7497 -0.5458  1.8876
  659MOL0     H86948   1.817  -0.730   4.449 -1.6687 -0.4727 -2.4814
  659MOL0     H86949   1.875  -0.876   4.544 -1.5590 -2.6014  0.4493
  659MOL0     H86950   1.509  -0.996   4.327 -1.3098 -0.4660  0.6108
  659MOL0     H86951   1.270  -0.912   4.333 -0.5452  0.6285 -1.7139
  659MOL0     H86952   1.090  -0.438   4.685 -0.1302 -0.9050  0.5265
  659MOL0     H86953   0.891  -0.320   4.716  3.7613 -3.6065  2.8366
  659MOL0     H86954   0.560  -0.281   4.386 -0.3286  1.1137 -1.0999
  659MOL0     H86955   0.701  -0.171   4.375  1.3324  0.6312  1.7950
  659MOL0     H86956   0.469  -0.069   4.397  0.1246 -3.6647 -2.0770
  659MOL0     H86957   0.597  -0.032   4.518  0.8534 -2.5588  2.2883
  659MOL0     H86958   0.480  -0.148   4.684  2.0658 -1.7102 -1.0272
  659MOL0     H86959   0.373  -0.240   4.581  1.4807 -1.5692  0.2999
  659MOL0     H86960   0.345   0.054   4.560  0.4836  0.5535  2.3011
  659MOL0     H86961   0.246  -0.069   4.486 -1.8844  0.7700  1.6176
  659MOL0     H86962   0.307  -0.015   4.792 -1.8377  0.9854  1.4267
  659MOL0     H86963   0.218  -0.155   4.741  1.3816 -0.0535  0.1775
  659MOL0     H86964   0.072   0.027   4.616  0.5762  0.8971 -0.4905
  659MOL0     H86965   0.134   0.144   4.735 -1.8336  0.0520  0.7459
  659MOL0     H86966  -0.038  -0.094   4.801  1.7944 -1.1175 -0.3751
  659MOL0     H86967   0.056  -0.003   4.919  0.1634  1.9464 -0.3464
  659MOL0     H86968  -0.064   0.219   4.821 -3.6552  1.0870 -1.0939
  659MOL0     H86969  -0.158   0.097   4.901  1.2893  0.3473  1.8132
  659MOL0     H86970   0.784  -0.364   4.301 -1.6865  0.4484  0.5563
  659MOL0     H86971   1.004  -0.481   4.269 -0.6664  0.4684  0.6295
  659MOL0     H86972   1.405  -0.541   4.487  0.3949 -0.1350  0.3038
  659MOL0     H86973   1.636  -0.641   4.512  0.3426  1.8904 -2.2764
  659MOL0     H86974   2.346   0.462   4.716 -2.4283 -1.9044  3.6925
  659MOL0     H86975   2.193   0.592   4.580 -1.0444  0.7234 -0.3473
  659MOL0     H86976   1.749   0.546   4.403 -1.4826 -1.1915 -0.2382
  659MOL0     H86977   1.552   0.663   4.277 -1.1013 -2.2272 -1.1863
  659MOL0     H86978   1.427   0.861   4.131 -3.3938 -0.7215  0.5749
  659MOL0     H86979   1.401   0.694   4.106  1.4898  0.9532  1.4517
  659MOL0     H86980   1.283   0.918   3.978  2.4814  0.7727  1.8225
  659MOL0     H86981   1.405   0.881   3.861  0.6939 -1.7584 -0.7262
  659MOL0     H86982   1.205   0.677   3.966 -0.0730 -0.3816 -1.2954
  659MOL0     H86983   1.332   0.646   3.841 -1.9017 -2.6765  0.1821
  659MOL0     H86984   1.122   0.859   3.782 -2.0417 -0.9608 -1.7111
  659MOL0     H86985   1.229   0.779   3.679  0.4952  2.6055  0.8073
  659MOL0     H86986   0.950   0.494   3.623  1.4951  1.3650 -6.2532
  659MOL0     H86987   1.830   0.748   3.959 -0.7302  0.1630 -0.5014
  659MOL0     H86988   2.000   0.646   4.066 -0.0090 -0.5706  1.5071
  660MOL0     O86989   4.102   4.204  10.394 -0.2443 -0.1909  0.0584
  660MOL0     C86990   4.114   4.244  10.513  0.0095  0.9574  0.1689
  660MOL0     O86991   4.234   4.243  10.592  0.6168 -0.1797 -0.4051
  660MOL0     C86992   4.358   4.204  10.552 -0.1887  0.3894 -0.0511
  660MOL0     C86993   4.471   4.261  10.593 -0.5216  0.9463 -0.7857
  660MOL0     C86994   4.595   4.224  10.546  0.2841 -0.2057 -0.0193
  660MOL0     C86995   4.603   4.126  10.440  0.4105 -0.4368  0.4430
  660MOL0     O86996   4.714   4.097  10.365  0.2531 -0.7581 -0.5297
  660MOL0     C86997   4.832   4.092  10.446  0.0310  0.5646 -1.6794
  660MOL0     C86998   4.941   3.992  10.390 -0.8230 -0.4917  0.5574
  660MOL0     C86999   4.973   4.022  10.234  0.1211  1.3653 -0.1692
  660MOL0     C87000   5.092   3.933  10.180 -0.2644  0.2913 -0.8672
  660MOL0     C87001   5.126   3.954  10.029 -1.0961  0.0912  0.2113
  660MOL0     C87002   5.256   3.884  10.019  0.0649  0.1293 -0.5179
  660MOL0     C87003   5.318   3.878   9.884  0.0821  0.5835  0.5706
  660MOL0     C87004   5.345   4.005   9.800 -0.2851 -0.6379  0.0991
  660MOL0     N87005   5.476   4.070   9.847 -0.6367  0.1069  0.4217
  660MOL0     C87006   5.598   4.019   9.824 -1.0104 -0.5829 -0.4212
  660MOL0     C87007   5.682   4.117   9.871  0.3238 -0.6347  0.4668
  660MOL0     C87008   5.833   4.100   9.878  0.6772 -0.1499 -0.2663
  660MOL0     C87009   5.895   4.084   9.734  0.2186  0.2117 -0.0192
  660MOL0     C87010   5.868   4.192   9.637 -1.0842 -0.5639 -0.6659
  660MOL0     C87011   5.960   4.176   9.511  0.0124 -0.2120  0.2212
  660MOL0     O87012   5.879   4.126   9.400  0.3212 -0.3675 -0.3571
  660MOL0     C87013   5.839   4.210   9.302  0.1040  0.2821  0.3668
  660MOL0     C87014   5.763   4.146   9.199 -0.3367  0.8802  0.6525
  660MOL0     C87015   5.692   4.219   9.109  0.7613 -0.0137 -0.0443
  660MOL0     C87016   5.690   4.358   9.121 -0.3903  0.6509 -0.2960
  660MOL0     C87017   5.588   4.438   9.043 -0.1483 -0.4013 -0.1886
  660MOL0     O87018   5.579   4.575   9.072  0.6957  0.8685 -0.1784
  660MOL0     C87019   5.483   4.649   9.000  0.1697  0.1233  0.0201
  660MOL0     C87020   5.540   4.756   8.938  0.5368  0.5390 -0.0574
  660MOL0     C87021   5.454   4.851   8.881  0.4249 -0.4164 -0.0814
  660MOL0     C87022   5.312   4.829   8.896 -0.8520  0.5529  0.0760
  660MOL0     O87023   5.222   4.911   8.838  0.1849 -0.1445  0.2271
  660MOL0     C87024   5.256   5.041   8.787  0.2413 -0.3707  0.0208
  660MOL0     C87025   5.131   5.132   8.787  0.5160 -0.0657  0.0799
  660MOL0     C87026   5.011   5.064   8.712 -0.3425  0.2425  0.9096
  660MOL0     C87027   4.976   5.112   8.563  0.1035  0.2041  0.3903
  660MOL0     C87028   4.847   5.054   8.514  0.2506 -0.4065 -0.4951
  660MOL0     C87029   4.729   5.116   8.582 -0.6196  0.0903 -0.0164
  660MOL0     C87030   4.603   5.059   8.527 -0.0629  0.4391  0.3875
  660MOL0     C87031   4.487   5.046   8.621  0.8704  0.5390 -0.7206
  660MOL0    Cl87032   4.483   4.884   8.697 -0.1385  0.3457 -0.6256
  660MOL0     C87033   5.258   4.716   8.958  0.1140 -0.4740 -0.1833
  660MOL0     C87034   5.343   4.624   9.014 -1.1335  0.0148 -0.3842
  660MOL0     O87035   5.524   4.376   8.959 -0.3235  0.0454 -0.4919
  660MOL0     C87036   5.782   4.414   9.205 -0.1266  0.0712  0.1154
  660MOL0     C87037   5.852   4.343   9.301  0.8380 -0.2660  0.2928
  660MOL0     N87038   5.601   4.198   9.946 -0.2771  0.6545  0.5375
  660MOL0     N87039   5.476   4.178   9.927  0.1516  0.2825  0.3009
  660MOL0     C87040   4.484   4.071  10.399  0.3401  0.5647 -0.1018
  660MOL0     C87041   4.367   4.104  10.453  0.5030  0.5296 -0.8590
  660MOL0     C87042   3.992   4.280  10.593 -0.4135 -0.9240  0.4312
  660MOL0     C87043   3.874   4.308  10.529  0.3508 -0.3182 -0.4884
  660MOL0     C87044   3.758   4.357  10.596  0.7007  0.2860 -0.0632
  660MOL0     C87045   3.770   4.372  10.734  0.8272 -0.6277  0.0151
  660MOL0     O87046   3.675   4.419  10.823 -0.0664  0.4260  0.4367
  660MOL0     C87047   3.555   4.362  10.823  0.3890  0.0511 -0.3615
  660MOL0     C87048   3.446   4.465  10.810 -0.3225  0.4695 -0.5256
  660MOL0     C87049   3.326   4.412  10.884 -0.0492 -0.6888 -1.1712
  660MOL0     C87050   3.248   4.312  10.805 -0.3702  0.0876  0.3068
  660MOL0     C87051   3.133   4.271  10.892 -0.2233 -0.3971 -0.6264
  660MOL0     C87052   3.045   4.216  10.970 -0.6037  0.0961 -0.4447
  660MOL0     C87053   3.890   4.347  10.802  0.2051  0.1571 -0.9542
  660MOL0     C87054   4.000   4.301  10.733  0.6327 -0.2802 -1.1895
  660MOL0     H87055   4.456   4.346  10.659 -0.2431  1.0399 -0.8426
  660MOL0     H87056   4.690   4.269  10.575  0.7885 -1.0653 -0.2904
  660MOL0     H87057   4.806   4.049  10.543  0.7021  1.1624 -1.2174
  660MOL0     H87058   4.869   4.194  10.457  1.1235  0.0672 -0.4042
  660MOL0     H87059   4.933   3.884  10.403  1.9444 -0.7411  0.9241
  660MOL0     H87060   5.032   4.018  10.445  0.2926 -1.3272 -0.8128
  660MOL0     H87061   5.023   4.119  10.245 -0.9251  1.8494  0.5499
  660MOL0     H87062   4.892   4.020  10.160  2.1308 -0.1971 -2.4768
  660MOL0     H87063   5.174   3.967  10.243 -0.6916 -1.5927  0.8011
  660MOL0     H87064   5.086   3.825  10.195 -0.8399 -0.1744 -3.8117
  660MOL0     H87065   5.134   4.057   9.992  3.5403 -0.9979 -2.7195
  660MOL0     H87066   5.066   3.906   9.952 -0.4123  0.3399 -0.4916
  660MOL0     H87067   5.233   3.783  10.053 -2.9644 -0.0110 -2.6024
  660MOL0     H87068   5.329   3.920  10.093 -3.1908  0.0242  3.0235
  660MOL0     H87069   5.412   3.821   9.880  0.0964  0.5279 -4.5392
  660MOL0     H87070   5.247   3.820   9.824 -1.9198  1.9918  1.4774
  660MOL0     H87071   5.261   4.075   9.801  0.6503  0.5171  1.3343
  660MOL0     H87072   5.369   3.969   9.700  3.1204 -1.1687  0.9701
  660MOL0     H87073   5.635   3.940   9.761  2.5173  1.7399 -1.5178
  660MOL0     H87074   5.852   4.014   9.943  1.5255 -1.0377 -1.6332
  660MOL0     H87075   5.881   4.191   9.914  1.8275 -1.5658  1.9731
  660MOL0     H87076   5.856   3.994   9.684 -1.7533  1.1413 -0.2234
  660MOL0     H87077   6.003   4.086   9.752  0.0601  0.1788  0.9717
  660MOL0     H87078   5.760   4.194   9.617 -0.8831  0.1425 -1.7996
  660MOL0     H87079   5.898   4.283   9.690  0.5460 -1.4672  0.0503
  660MOL0     H87080   6.036   4.102   9.537  0.6504  0.1630 -0.5643
  660MOL0     H87081   6.027   4.260   9.492  0.4715 -1.1215 -2.8370
  660MOL0     H87082   5.756   4.039   9.217  3.6790  0.1353 -1.1253
  660MOL0     H87083   5.622   4.179   9.037 -0.8882  1.4858  0.6479
  660MOL0     H87084   5.647   4.755   8.923  0.4852 -1.9398 -0.7530
  660MOL0     H87085   5.496   4.941   8.836 -1.2159  0.0631 -0.7517
  660MOL0     H87086   5.289   5.020   8.685 -1.5898 -0.1216 -0.6690
  660MOL0     H87087   5.346   5.082   8.834  1.3320  1.0376 -3.0534
  660MOL0     H87088   5.161   5.222   8.734  0.1942 -0.7430 -1.2881
  660MOL0     H87089   5.098   5.160   8.888 -2.4136 -0.2782 -0.7187
  660MOL0     H87090   4.924   5.075   8.776 -0.0500  1.8939  1.0748
  660MOL0     H87091   5.031   4.957   8.716  0.3903  0.2811 -0.6681
  660MOL0     H87092   4.974   5.219   8.585 -0.0423 -0.0682  1.7601
  660MOL0     H87093   5.055   5.087   8.492 -1.3178 -0.4538 -1.0180
  660MOL0     H87094   4.844   4.951   8.551 -1.2659 -0.1319  0.2482
  660MOL0     H87095   4.837   5.051   8.406 -2.9130 -0.6141 -0.3107
  660MOL0     H87096   4.737   5.224   8.574  0.6771 -0.0957 -1.6988
  660MOL0     H87097   4.733   5.083   8.687 -0.3799 -4.7463 -1.3165
  660MOL0     H87098   4.577   5.123   8.442 -1.4562  0.4896  0.8331
  660MOL0     H87099   4.628   4.959   8.491  2.9709  1.5231 -0.8049
  660MOL0     H87100   4.407   5.059   8.548  1.5561 -0.3835 -1.6596
  660MOL0     H87101   4.484   5.133   8.688  2.1128  1.7466 -2.1709
  660MOL0     H87102   5.150   4.717   8.971 -0.0516  2.9850 -0.8813
  660MOL0     H87103   5.301   4.547   9.078 -1.4431  1.2854  0.9817
  660MOL0     H87104   5.771   4.522   9.213 -4.9142 -0.0902 -1.0490
  660MOL0     H87105   5.914   4.398   9.372  0.1402 -0.3504  0.9697
  660MOL0     H87106   4.497   3.992  10.325 -0.8758  1.2087 -1.0391
  660MOL0     H87107   4.272   4.060  10.423 -2.6316  3.6201  3.2416
  660MOL0     H87108   3.858   4.289  10.423  0.4541  1.2739 -0.8061
  660MOL0     H87109   3.668   4.366  10.538  1.4423  0.9296 -1.1424
  660MOL0     H87110   3.555   4.309  10.919  0.6547  1.0921  0.2284
  660MOL0     H87111   3.538   4.297  10.737  0.0512  0.1665 -0.3831
  660MOL0     H87112   3.477   4.564  10.842 -0.5244  1.1082 -2.2019
  660MOL0     H87113   3.423   4.486  10.705  1.3947  1.2288 -0.7722
  660MOL0     H87114   3.266   4.501  10.906 -0.0980 -0.8477 -0.6577
  660MOL0     H87115   3.357   4.363  10.977 -0.4807  4.2418  1.9080
  660MOL0     H87116   3.218   4.356  10.710  2.3234 -2.2155 -1.7838
  660MOL0     H87117   3.310   4.223  10.790 -1.6186 -0.6895 -0.4002
  660MOL0     H87118   2.968   4.172  11.032 -1.2254  0.6629 -0.8032
  660MOL0     H87119   3.899   4.372  10.907 -0.2966  2.8950 -1.4958
  660MOL0     H87120   4.095   4.285  10.783 -0.4943  0.4772  1.3505
  661MOL0     O87121   0.650   6.786   6.089  0.3043  0.2211  0.5792
  661MOL0     C87122   0.704   6.838   6.193  0.4721  0.4341  0.6463
  661MOL0     O87123   0.634   6.923   6.275 -0.1791  0.3727  0.6589
  661MOL0     C87124   0.524   6.997   6.224 -0.0390 -0.0750  0.7786
  661MOL0     C87125   0.484   7.030   6.094 -0.5923 -0.1004 -0.9087
  661MOL0     C87126   0.373   7.102   6.054  0.5609 -0.0996 -0.9396
  661MOL0     C87127   0.289   7.150   6.155  0.7731 -0.4203  0.1627
  661MOL0     O87128   0.170   7.220   6.117  0.4170  0.7986  0.4683
  661MOL0     C87129   0.063   7.247   6.208 -0.0778  0.1791 -0.1721
  661MOL0     C87130  -0.056   7.252   6.108  0.4238  0.1435 -0.0803
  661MOL0     C87131  -0.187   7.240   6.174 -0.1573 -0.0948 -0.8140
  661MOL0     C87132  -0.325   7.234   6.106 -0.4268 -0.4667 -0.5498
  661MOL0     C87133  -0.439   7.207   6.215  0.4182  0.6047  0.1036
  661MOL0     C87134  -0.514   7.333   6.264  0.4369 -1.2348 -0.9124
  661MOL0     C87135  -0.612   7.315   6.393 -0.3065  0.0814  0.0069
  661MOL0     C87136  -0.695   7.445   6.412  0.0900  0.1952  0.2321
  661MOL0     N87137  -0.789   7.443   6.521 -0.6415 -0.4529  0.0179
  661MOL0     C87138  -0.777   7.376   6.640 -0.4463 -0.1085 -0.7569
  661MOL0     C87139  -0.875   7.426   6.716 -0.4893  0.0456  0.8647
  661MOL0     C87140  -0.914   7.396   6.861  0.2274  0.1425 -0.3587
  661MOL0     C87141  -0.937   7.526   6.941  0.2305  0.1948  0.3491
  661MOL0     C87142  -0.999   7.492   7.073 -0.0941 -0.1029 -0.8344
  661MOL0     C87143  -1.035   7.613   7.174 -0.2676  0.4647  1.8279
  661MOL0     O87144  -0.928   7.713   7.178 -0.4751 -0.4961  0.3706
  661MOL0     C87145  -0.812   7.685   7.247  0.3369 -0.5606  0.5225
  661MOL0     C87146  -0.693   7.753   7.214  0.4659 -0.4073 -0.5675
  661MOL0     C87147  -0.579   7.732   7.278 -1.3463  0.3117  0.5403
  661MOL0     C87148  -0.575   7.639   7.388 -0.6616 -0.4179  0.3949
  661MOL0     C87149  -0.450   7.606   7.457 -0.2456  0.4619 -0.2429
  661MOL0     O87150  -0.334   7.660   7.401  0.4465  0.9736 -0.6812
  661MOL0     C87151  -0.219   7.619   7.453 -0.4456 -0.4046 -0.0192
  661MOL0     C87152  -0.192   7.636   7.586  1.2729  0.1925 -0.1425
  661MOL0     C87153  -0.063   7.601   7.641 -0.2961  0.4242  0.2273
  661MOL0     C87154   0.038   7.542   7.553  0.1067 -0.5387 -0.0419
  661MOL0     O87155   0.158   7.502   7.624  0.3957 -0.0569  0.2132
  661MOL0     C87156   0.220   7.586   7.719  0.7941  0.4362 -0.8601
  661MOL0     C87157   0.348   7.628   7.657  0.0213  0.6902  0.3559
  661MOL0     C87158   0.345   7.657   7.503  0.2714  0.5264  0.1207
  661MOL0     C87159   0.477   7.713   7.455  0.3643  0.1510  0.0218
  661MOL0     C87160   0.506   7.855   7.506  0.8512 -0.0471  0.1348
  661MOL0     C87161   0.590   7.937   7.405 -0.2432  0.8997  0.1520
  661MOL0     C87162   0.739   7.899   7.402  0.0529 -0.0460 -0.7074
  661MOL0     C87163   0.812   7.965   7.292  0.3466 -0.1203  0.6203
  661MOL0    Cl87164   0.750   7.909   7.126  0.0020  0.4661  0.4976
  661MOL0     C87165   0.009   7.513   7.416  0.6691  0.0961 -0.5054
  661MOL0     C87166  -0.117   7.562   7.369 -0.6070 -0.4930  0.3402
  661MOL0     O87167  -0.459   7.547   7.565 -0.5483 -0.1838 -0.5456
  661MOL0     C87168  -0.701   7.583   7.430 -0.3823 -0.5396  0.5708
  661MOL0     C87169  -0.820   7.623   7.366  1.1681  0.1589 -0.1345
  661MOL0     N87170  -0.939   7.534   6.652  0.8127  0.6562  0.0464
  661MOL0     N87171  -0.890   7.531   6.536  0.4030  0.1122  1.0353
  661MOL0     C87172   0.325   7.126   6.291 -0.7679 -0.6858  0.3550
  661MOL0     C87173   0.440   7.056   6.322 -0.4049  0.2190 -0.0856
  661MOL0     C87174   0.840   6.799   6.238 -0.0616  0.0604  0.7886
  661MOL0     C87175   0.879   6.813   6.371  0.2604  0.4561 -0.9028
  661MOL0     C87176   1.004   6.772   6.421  0.4211 -0.0550  0.1505
  661MOL0     C87177   1.098   6.711   6.330 -0.2950  0.1925  0.7832
  661MOL0     O87178   1.225   6.669   6.357 -0.4164 -0.4723 -0.3302
  661MOL0     C87179   1.285   6.699   6.481  0.6955 -0.2382  0.2833
  661MOL0     C87180   1.438   6.683   6.487 -0.2480  0.0922  1.2758
  661MOL0     C87181   1.483   6.538   6.485 -0.7599 -0.7406  0.1516
  661MOL0     C87182   1.612   6.508   6.561 -0.0933 -0.2307  0.2649
  661MOL0     C87183   1.724   6.589   6.512  0.3731 -0.7474 -0.0570
  661MOL0     C87184   1.822   6.639   6.466  0.5386 -0.2686 -1.2733
  661MOL0     C87185   1.051   6.681   6.197 -0.6268  0.2289  0.8664
  661MOL0     C87186   0.926   6.724   6.149 -0.1187  0.2717 -0.0573
  661MOL0     H87187   0.540   6.989   6.010 -0.8508  1.9039 -2.1192
  661MOL0     H87188   0.344   7.115   5.951 -0.6498  3.7890 -0.2746
  661MOL0     H87189   0.066   7.348   6.251 -0.5085 -0.0052  0.3009
  661MOL0     H87190   0.040   7.172   6.284 -0.2097  0.3607 -0.0298
  661MOL0     H87191  -0.046   7.173   6.033  1.2158 -1.2445  1.4350
  661MOL0     H87192  -0.054   7.352   6.063 -0.0336  0.0439 -0.3346
  661MOL0     H87193  -0.189   7.321   6.248  4.4374  0.7020 -1.2260
  661MOL0     H87194  -0.182   7.144   6.226 -0.4225 -1.4436 -3.1778
  661MOL0     H87195  -0.347   7.326   6.051  2.6140  0.1390 -0.9384
  661MOL0     H87196  -0.324   7.158   6.028  1.7867 -0.5638 -0.4999
  661MOL0     H87197  -0.408   7.152   6.304 -1.2324  3.0901  2.3557
  661MOL0     H87198  -0.507   7.144   6.156  0.3211  1.1384 -0.3613
  661MOL0     H87199  -0.568   7.374   6.178 -0.2155 -2.5580 -1.1531
  661MOL0     H87200  -0.441   7.406   6.300  0.0355 -1.2630 -0.0024
  661MOL0     H87201  -0.687   7.237   6.375 -0.3998  0.3709 -0.8678
  661MOL0     H87202  -0.553   7.287   6.481 -0.8684 -0.9279  0.0828
  661MOL0     H87203  -0.754   7.473   6.324  1.2574  1.4270 -0.2068
  661MOL0     H87204  -0.633   7.531   6.440 -0.6224  0.5486  0.7517
  661MOL0     H87205  -0.708   7.300   6.675 -0.4517  1.1946  2.4261
  661MOL0     H87206  -0.843   7.334   6.916 -0.7756  0.2769  1.1392
  661MOL0     H87207  -1.003   7.333   6.852 -0.6947  1.2938  0.4190
  661MOL0     H87208  -1.009   7.576   6.876 -0.1110 -1.6361 -0.7588
  661MOL0     H87209  -0.843   7.579   6.954 -0.3548  0.8546  2.2779
  661MOL0     H87210  -1.092   7.439   7.047 -1.5478  2.7297 -1.7811
  661MOL0     H87211  -0.926   7.428   7.124  1.4279  1.1252 -1.3986
  661MOL0     H87212  -1.062   7.578   7.274 -1.3643 -2.1895  0.6910
  661MOL0     H87213  -1.123   7.664   7.132 -0.4127 -3.0484 -2.9792
  661MOL0     H87214  -0.694   7.826   7.133 -0.2025  1.5510  1.1258
  661MOL0     H87215  -0.490   7.782   7.241 -0.4328 -0.7290  1.2721
  661MOL0     H87216  -0.277   7.671   7.645 -0.3058 -1.1201 -1.5303
  661MOL0     H87217  -0.038   7.631   7.742  3.2392  1.4331 -0.7942
  661MOL0     H87218   0.235   7.517   7.804 -0.4710 -0.9508 -1.7086
  661MOL0     H87219   0.163   7.670   7.759  0.7381 -0.8561  2.0768
  661MOL0     H87220   0.423   7.557   7.692  1.8326  2.6371  0.6732
  661MOL0     H87221   0.369   7.722   7.710 -3.3215  0.8234  1.6756
  661MOL0     H87222   0.265   7.719   7.461  0.4492  1.8057  1.6047
  661MOL0     H87223   0.335   7.561   7.450  1.2497  0.9726 -0.9021
  661MOL0     H87224   0.555   7.641   7.482 -3.1270 -3.5205  1.3029
  661MOL0     H87225   0.475   7.717   7.345 -1.0743  1.0779  0.0557
  661MOL0     H87226   0.537   7.872   7.609 -2.3832  0.5771  1.1191
  661MOL0     H87227   0.411   7.907   7.492  0.5490 -1.3885 -4.1861
  661MOL0     H87228   0.588   8.041   7.438  0.3580  1.2846 -0.9553
  661MOL0     H87229   0.550   7.933   7.303 -0.4590 -0.3107  0.2690
  661MOL0     H87230   0.777   7.930   7.499 -2.8826 -0.6194  0.7383
  661MOL0     H87231   0.744   7.791   7.387 -1.6676 -0.0693 -1.3449
  661MOL0     H87232   0.919   7.951   7.305  0.4065  1.0793  1.5368
  661MOL0     H87233   0.789   8.072   7.299 -2.6414 -0.7171  1.4134
  661MOL0     H87234   0.085   7.475   7.350  0.0192 -2.0603 -0.1038
  661MOL0     H87235  -0.107   7.565   7.261  1.2293  2.5563  0.5021
  661MOL0     H87236  -0.699   7.503   7.502 -1.0355 -0.8045  0.2973
  661MOL0     H87237  -0.911   7.588   7.413  0.0969  0.1163 -2.1581
  661MOL0     H87238   0.281   7.166   6.382  1.3460  0.5791  0.9113
  661MOL0     H87239   0.463   7.039   6.427  0.7237  0.8518 -0.2194
  661MOL0     H87240   0.814   6.857   6.445 -1.1792 -0.3125 -1.6693
  661MOL0     H87241   1.023   6.775   6.528 -0.9705 -3.6172  0.6329
  661MOL0     H87242   1.239   6.650   6.567 -0.0022  0.2551  0.2017
  661MOL0     H87243   1.261   6.805   6.495  2.6702  0.9021 -3.6044
  661MOL0     H87244   1.481   6.736   6.402 -1.6451 -0.7002  0.0254
  661MOL0     H87245   1.463   6.725   6.585  0.0936 -2.2024  2.2453
  661MOL0     H87246   1.502   6.502   6.383  1.3857 -1.2348  0.6684
  661MOL0     H87247   1.405   6.476   6.530 -2.2634  0.0475 -1.2677
  661MOL0     H87248   1.604   6.543   6.664 -1.4709  1.6947 -0.4550
  661MOL0     H87249   1.645   6.404   6.552 -1.8346 -0.6977 -1.3814
  661MOL0     H87250   1.919   6.672   6.435  0.9649  1.4166  1.5118
  661MOL0     H87251   1.122   6.636   6.129  0.5239  2.1680  0.7162
  661MOL0     H87252   0.888   6.727   6.047 -1.0986  2.9437  0.3020
  662MOL0     O87253   8.794   5.759   9.838 -0.2114  0.7926 -0.3073
  662MOL0     C87254   8.697   5.691   9.888 -0.1811 -0.1022  1.3005
  662MOL0     O87255   8.706   5.595   9.983  0.1183 -0.3213  0.3161
  662MOL0     C87256   8.831   5.540  10.012  0.3376 -0.7727  0.6013
  662MOL0     C87257   8.935   5.514   9.918 -0.9013  0.6615 -0.2122
  662MOL0     C87258   9.043   5.426   9.948  0.4696  0.3740 -0.6937
  662MOL0     C87259   9.061   5.382  10.077 -0.0012  0.1031 -1.3300
  662MOL0     O87260   9.173   5.313  10.100 -0.0145 -0.3775  0.1053
  662MOL0     C87261   9.160   5.193  10.178 -0.2299 -1.0239 -0.3578
  662MOL0     C87262   9.221   5.226  10.316  0.1678 -0.0318  0.4293
  662MOL0     C87263   9.363   5.282  10.315  0.3970  0.1063  0.0633
  662MOL0     C87264   9.449   5.180  10.247 -0.8311 -0.0801 -0.7036
  662MOL0     C87265   9.569   5.161  10.334  0.3634  0.1811 -0.6911
  662MOL0     C87266   9.553   5.060  10.452  0.1913  0.4328  0.5528
  662MOL0     C87267   9.675   5.052  10.540 -0.6906  0.3001  0.1009
  662MOL0     C87268   9.658   4.966  10.662  0.7659  0.1898  0.0669
  662MOL0     N87269   9.598   4.834  10.636  0.4662  0.2632 -0.4724
  662MOL0     C87270   9.464   4.808  10.650  0.3908 -0.8247 -0.5965
  662MOL0     C87271   9.455   4.681  10.618  0.1056 -0.9857  0.1701
  662MOL0     C87272   9.322   4.608  10.602  0.1017  0.5256  0.9562
  662MOL0     C87273   9.336   4.454  10.634  0.5586 -0.2435 -0.6290
  662MOL0     C87274   9.300   4.352  10.531 -0.3304 -0.1066  0.1304
  662MOL0     C87275   9.407   4.330  10.412  0.2357  0.2220 -0.4016
  662MOL0     O87276   9.371   4.212  10.353  0.1036  0.0061 -0.4697
  662MOL0     C87277   9.264   4.205  10.271 -0.3344  0.2805 -0.0546
  662MOL0     C87278   9.210   4.315  10.202 -0.7610 -0.4584 -0.6197
  662MOL0     C87279   9.102   4.302  10.117  0.8100 -0.3099 -0.8524
  662MOL0     C87280   9.051   4.171  10.084  0.1573  1.0336  0.5886
  662MOL0     C87281   8.936   4.154   9.991 -0.3042 -0.4353 -0.6030
  662MOL0     O87282   8.911   4.259   9.909 -1.2265 -1.0046  0.0570
  662MOL0     C87283   8.807   4.248   9.819  0.1723 -0.1488 -0.4278
  662MOL0     C87284   8.834   4.221   9.686  0.1504  0.5943 -0.0785
  662MOL0     C87285   8.737   4.188   9.592  0.0883 -0.1144  1.1527
  662MOL0     C87286   8.597   4.196   9.628 -0.0979  0.5370 -1.0816
  662MOL0     O87287   8.518   4.154   9.531 -0.1738  0.3154 -0.1855
  662MOL0     C87288   8.381   4.135   9.571  0.0253  0.5982  0.6014
  662MOL0     C87289   8.292   4.080   9.452  0.3910  0.4503 -0.5215
  662MOL0     C87290   8.195   4.176   9.377  0.2741  0.2704 -0.1603
  662MOL0     C87291   8.150   4.109   9.244 -0.6576  0.7439  0.2637
  662MOL0     C87292   8.029   4.182   9.173  0.0327 -0.0895  0.3302
  662MOL0     C87293   7.986   4.109   9.041  0.6128 -0.3217  0.1075
  662MOL0     C87294   7.943   3.961   9.055 -0.8325 -0.3455 -0.3777
  662MOL0     C87295   8.051   3.865   9.001  0.0118  0.2903  1.0492
  662MOL0    Cl87296   7.997   3.702   8.961  0.1276  0.4309 -0.0099
  662MOL0     C87297   8.569   4.232   9.767  0.1944  0.0592 -0.2951
  662MOL0     C87298   8.676   4.259   9.861  0.6261  0.2912  0.2926
  662MOL0     O87299   8.878   4.046   9.998  0.3975 -0.0135 -0.3624
  662MOL0     C87300   9.112   4.055  10.141 -0.4616  0.8672 -0.2224
  662MOL0     C87301   9.222   4.078  10.229  0.3545 -0.6017 -0.4012
  662MOL0     N87302   9.575   4.636  10.581  0.2294  0.0628 -0.6125
  662MOL0     N87303   9.663   4.722  10.590  0.7101 -0.2331 -0.9310
  662MOL0     C87304   8.956   5.412  10.173 -0.4738  1.3697  0.5757
  662MOL0     C87305   8.851   5.497  10.140 -0.3363  0.4317  0.2191
  662MOL0     C87306   8.559   5.706   9.827 -0.5614 -0.5168 -0.9625
  662MOL0     C87307   8.540   5.799   9.735 -0.5733 -0.1850  0.6298
  662MOL0     C87308   8.412   5.813   9.672 -1.1489 -0.3938  0.1220
  662MOL0     C87309   8.310   5.730   9.701  0.5557  0.0663  0.6984
  662MOL0     O87310   8.193   5.765   9.645  0.2450 -0.4895  0.0924
  662MOL0     C87311   8.074   5.702   9.688 -0.2834  0.1985  1.2053
  662MOL0     C87312   7.952   5.778   9.631  1.2716  0.2849  0.9241
  662MOL0     C87313   7.960   5.802   9.479  1.3209 -0.5969  0.2511
  662MOL0     C87314   7.859   5.710   9.404  0.2408 -0.0190  0.2434
  662MOL0     C87315   7.729   5.775   9.387  0.1062 -1.1211  0.2692
  662MOL0     C87316   7.630   5.843   9.378 -0.5786 -0.4998  0.2228
  662MOL0     C87317   8.327   5.628   9.793 -1.2131  0.9131  0.4686
  662MOL0     C87318   8.455   5.618   9.863 -0.5876 -0.2039  0.5406
  662MOL0     H87319   8.936   5.540   9.812 -1.1522 -0.4681 -0.4994
  662MOL0     H87320   9.108   5.393   9.867 -2.1113  0.1786 -2.8452
  662MOL0     H87321   9.212   5.108  10.133 -0.6267 -3.1216  2.7766
  662MOL0     H87322   9.055   5.163  10.190 -0.6928  1.0794  1.3394
  662MOL0     H87323   9.211   5.146  10.390  1.0947 -1.4790 -0.9506
  662MOL0     H87324   9.149   5.297  10.359 -2.8006 -3.2973  1.2731
  662MOL0     H87325   9.390   5.305  10.418  1.5081 -0.0793 -0.1724
  662MOL0     H87326   9.358   5.373  10.254 -0.4510 -0.1949 -0.3393
  662MOL0     H87327   9.414   5.080  10.219 -1.8622 -0.2087  0.9251
  662MOL0     H87328   9.489   5.226  10.156 -2.6797  0.2988 -1.3675
  662MOL0     H87329   9.604   5.255  10.379 -0.9186  0.2700  0.1589
  662MOL0     H87330   9.654   5.118  10.280  0.2314 -1.1141  0.0860
  662MOL0     H87331   9.543   4.959  10.410  2.3746  1.0875 -1.8352
  662MOL0     H87332   9.471   5.097  10.514 -1.3941  0.4843 -1.4448
  662MOL0     H87333   9.757   5.004  10.486 -1.0015 -1.5357  1.1833
  662MOL0     H87334   9.703   5.157  10.558 -0.3566  0.2694 -0.2217
  662MOL0     H87335   9.578   5.006  10.725 -1.7727 -2.9735 -0.9230
  662MOL0     H87336   9.756   4.957  10.711  1.0284  1.0168 -0.2754
  662MOL0     H87337   9.374   4.865  10.670  1.2428  0.0463  0.9337
  662MOL0     H87338   9.278   4.614  10.502  3.7443 -1.9548 -1.0383
  662MOL0     H87339   9.243   4.653  10.664 -2.4911 -0.8726 -1.1159
  662MOL0     H87340   9.272   4.453  10.723  2.4171 -0.6730  0.7764
  662MOL0     H87341   9.440   4.436  10.663  1.0039 -0.1941 -2.1282
  662MOL0     H87342   9.285   4.260  10.588  3.4551 -1.3747 -0.6147
  662MOL0     H87343   9.206   4.395  10.495 -0.7470 -3.1062 -2.9481
  662MOL0     H87344   9.505   4.327  10.460 -0.1105 -0.0555  0.3092
  662MOL0     H87345   9.424   4.418  10.349 -1.8924 -0.3390 -1.8419
  662MOL0     H87346   9.262   4.409  10.186 -0.4799 -0.2049  1.5556
  662MOL0     H87347   9.058   4.385  10.063 -0.7187  0.0654  0.8741
  662MOL0     H87348   8.931   4.230   9.638 -1.2304  0.9097 -3.0395
  662MOL0     H87349   8.772   4.168   9.491  1.7831  0.2634  1.6280
  662MOL0     H87350   8.339   4.230   9.607 -1.2891  1.4834 -2.8800
  662MOL0     H87351   8.378   4.052   9.642 -2.2136 -0.1902 -0.3232
  662MOL0     H87352   8.232   4.003   9.500  1.5241 -0.6504 -0.8215
  662MOL0     H87353   8.354   4.025   9.380 -0.5825 -0.7410 -0.4728
  662MOL0     H87354   8.233   4.275   9.349 -0.1178  0.8560  1.2699
  662MOL0     H87355   8.103   4.194   9.435 -0.3252  1.3886 -1.4064
  662MOL0     H87356   8.234   4.113   9.173 -0.7496 -3.1194 -0.2436
  662MOL0     H87357   8.122   4.004   9.250 -2.9823  1.1754 -1.5761
  662MOL0     H87358   8.075   4.276   9.143  2.2919 -2.2281 -3.8275
  662MOL0     H87359   7.947   4.197   9.244 -0.6937 -0.2571 -0.4631
  662MOL0     H87360   8.071   4.106   8.973  0.9397  1.5126  0.3772
  662MOL0     H87361   7.897   4.157   8.998  2.7887  0.5489 -3.9164
  662MOL0     H87362   7.902   3.933   9.153 -0.8581  2.0336  0.3452
  662MOL0     H87363   7.862   3.957   8.982 -0.8217 -4.7852 -0.4164
  662MOL0     H87364   8.131   3.850   9.074 -1.4897 -2.6890  2.2423
  662MOL0     H87365   8.094   3.909   8.910 -2.8477 -0.2509 -0.6794
  662MOL0     H87366   8.464   4.233   9.795  0.0782 -1.1705 -0.6160
  662MOL0     H87367   8.643   4.294   9.958  0.3948  1.2084 -0.1057
  662MOL0     H87368   9.088   3.951  10.124  2.6667  0.3168 -1.8823
  662MOL0     H87369   9.291   4.001  10.264  0.5400 -0.2926 -0.0822
  662MOL0     H87370   8.947   5.367  10.271 -1.8040  0.3824  0.0238
  662MOL0     H87371   8.776   5.524  10.214  1.4720  0.6183  2.0674
  662MOL0     H87372   8.613   5.870   9.698 -1.7392  1.5956  1.5937
  662MOL0     H87373   8.396   5.898   9.605  0.1830  0.4397  0.8135
  662MOL0     H87374   8.057   5.698   9.796 -1.8834  1.1578  1.0163
  662MOL0     H87375   8.077   5.597   9.658  0.2114  0.7585 -0.8288
  662MOL0     H87376   7.861   5.723   9.655  0.8940  0.6741  0.4077
  662MOL0     H87377   7.937   5.871   9.687 -0.5466  1.3128 -1.1373
  662MOL0     H87378   8.058   5.771   9.440  0.8560 -1.1102 -0.5354
  662MOL0     H87379   7.942   5.908   9.458 -3.5005 -0.9899  1.1977
  662MOL0     H87380   7.902   5.703   9.304 -0.3494 -2.5614  0.1000
  662MOL0     H87381   7.841   5.609   9.444 -1.2837 -0.7167 -2.0291
  662MOL0     H87382   7.545   5.896   9.339 -0.2637  0.0298  0.2487
  662MOL0     H87383   8.259   5.550   9.824  1.1875 -0.8334  1.6597
  662MOL0     H87384   8.464   5.549   9.946 -2.4945  1.2847  2.0732
  663MOL0     O87385   9.523   4.154   0.730  0.1264 -0.1874  0.0646
  663MOL0     C87386   9.526   4.264   0.784 -1.0080  0.4359 -0.1857
  663MOL0     O87387   9.430   4.354   0.794 -0.2102  0.3972 -0.6186
  663MOL0     C87388   9.309   4.361   0.721 -1.3525 -0.2097  0.3999
  663MOL0     C87389   9.200   4.423   0.784 -0.8517  0.7712  0.6536
  663MOL0     C87390   9.075   4.430   0.720 -0.4837 -0.2273  0.6309
  663MOL0     C87391   9.043   4.359   0.602  0.0050 -0.8402  0.2546
  663MOL0     O87392   8.916   4.390   0.548 -0.2967 -0.5459 -0.2757
  663MOL0     C87393   8.846   4.289   0.478  0.1325  0.6181 -0.0051
  663MOL0     C87394   8.699   4.311   0.463 -0.4570  0.5796  0.3542
  663MOL0     C87395   8.606   4.204   0.403  1.1537  0.2837 -0.5465
  663MOL0     C87396   8.456   4.222   0.443  0.1436 -0.1547 -0.0558
  663MOL0     C87397   8.375   4.127   0.343  0.5700 -0.0695 -0.3268
  663MOL0     C87398   8.234   4.105   0.388  0.3306  0.3895  0.0711
  663MOL0     C87399   8.141   4.050   0.280  0.8042  0.6950  0.4380
  663MOL0     C87400   8.131   4.140   0.165  0.0745  0.0037 -0.8460
  663MOL0     N87401   8.010   4.099   0.092  0.7810 -0.1296  0.1474
  663MOL0     C87402   7.994   4.026  -0.025 -0.6343 -0.2024  0.6760
  663MOL0     C87403   7.865   4.040  -0.058 -0.1606  0.4161 -0.1702
  663MOL0     C87404   7.798   3.988  -0.179 -0.1399 -0.2160  0.2069
  663MOL0     C87405   7.744   4.104  -0.270  0.0755 -0.3470 -0.5467
  663MOL0     C87406   7.681   4.051  -0.407  0.1465 -0.1243  0.4145
  663MOL0     C87407   7.526   4.037  -0.397 -0.1604  0.4727  0.4341
  663MOL0     O87408   7.475   4.019  -0.534 -0.4138  1.0638 -0.1984
  663MOL0     C87409   7.340   3.978  -0.543 -0.5921  0.0592 -0.5540
  663MOL0     C87410   7.298   3.928  -0.661 -1.6469  0.5850  0.5061
  663MOL0     C87411   7.167   3.879  -0.684 -0.6782 -0.2347 -0.2102
  663MOL0     C87412   7.068   3.876  -0.580 -0.2168 -0.0558 -0.4317
  663MOL0     C87413   6.928   3.830  -0.607  0.3746  0.2724 -0.1158
  663MOL0     O87414   6.898   3.778  -0.728 -0.7328 -0.1970  0.1877
  663MOL0     C87415   6.768   3.775  -0.778  0.2364 -0.5707  0.4745
  663MOL0     C87416   6.717   3.656  -0.838 -0.5800 -0.9925 -0.2836
  663MOL0     C87417   6.580   3.638  -0.849  1.0460 -0.2520 -0.4261
  663MOL0     C87418   6.502   3.749  -0.830 -0.4647  1.0504  0.4121
  663MOL0     O87419   6.367   3.749  -0.852  0.1762  0.6621 -0.0165
  663MOL0     C87420   6.281   3.647  -0.795 -0.0292  0.3537  0.1871
  663MOL0     C87421   6.142   3.658  -0.857  0.2707 -0.0609  0.0099
  663MOL0     C87422   6.038   3.664  -0.744 -0.3987 -0.9702 -0.9957
  663MOL0     C87423   5.897   3.636  -0.783  0.8255 -0.1282 -0.0399
  663MOL0     C87424   5.818   3.649  -0.652  0.6670 -0.7992  0.1357
  663MOL0     C87425   5.669   3.649  -0.687 -0.6312 -0.1684 -0.3167
  663MOL0     C87426   5.582   3.645  -0.562 -0.1020 -0.2002  0.1561
  663MOL0     C87427   5.593   3.760  -0.461 -0.3520 -1.2390 -0.4052
  663MOL0    Cl87428   5.551   3.919  -0.536 -0.2117  0.7303  0.1030
  663MOL0     C87429   6.556   3.871  -0.803  0.3183  0.3235 -0.9370
  663MOL0     C87430   6.687   3.887  -0.762 -0.2005 -1.0165 -0.6006
  663MOL0     O87431   6.848   3.868  -0.527 -0.2489 -1.1016  0.6452
  663MOL0     C87432   7.111   3.945  -0.461 -0.5544 -0.2666 -0.5153
  663MOL0     C87433   7.244   3.983  -0.441 -1.0693  0.3228 -0.2736
  663MOL0     N87434   7.795   4.118   0.037 -0.0040  0.3358 -0.7354
  663MOL0     N87435   7.886   4.148   0.131  0.2700 -0.1375 -0.2539
  663MOL0     C87436   9.146   4.282   0.537  0.2771  0.3695  0.3402
  663MOL0     C87437   9.277   4.284   0.603  0.6178 -0.1858 -0.1290
  663MOL0     C87438   9.656   4.305   0.857  0.7267 -0.3699 -0.0545
  663MOL0     C87439   9.660   4.423   0.945  0.1756 -0.7309 -0.0507
  663MOL0     C87440   9.774   4.452   1.020  0.3972 -1.3815 -0.3043
  663MOL0     C87441   9.879   4.371   1.027  0.5470  0.2561 -0.7335
  663MOL0     O87442   9.974   4.399   1.121 -0.7814  0.3764 -0.3529
  663MOL0     C87443  10.074   4.297   1.155 -0.2860  0.4188  0.0026
  663MOL0     C87444  10.196   4.311   1.054  0.1489  0.6957 -0.4738
  663MOL0     C87445  10.275   4.442   1.069  0.1844 -0.2571 -1.0835
  663MOL0     C87446  10.405   4.448   0.985  0.2546  0.3523  0.2468
  663MOL0     C87447  10.509   4.366   1.042 -0.7387  1.2032  0.1011
  663MOL0     C87448  10.590   4.288   1.087  0.0378 -0.1287  0.5782
  663MOL0     C87449   9.886   4.259   0.940 -0.7860 -0.1727  0.1235
  663MOL0     C87450   9.770   4.217   0.863  0.1103  0.7949 -0.1651
  663MOL0     H87451   9.224   4.466   0.881  1.5070  1.9502 -0.3661
  663MOL0     H87452   9.011   4.486   0.788  3.3219  2.3893  2.4868
  663MOL0     H87453   8.848   4.201   0.542  1.7341  0.7245  0.1373
  663MOL0     H87454   8.894   4.264   0.383  1.7426 -1.0891  1.1755
  663MOL0     H87455   8.694   4.407   0.411  0.9755  0.4838 -0.0101
  663MOL0     H87456   8.676   4.340   0.565 -1.0713 -0.3888  0.5013
  663MOL0     H87457   8.644   4.105   0.430  2.0103  1.0433  1.1843
  663MOL0     H87458   8.622   4.208   0.294  1.8647 -1.2690 -0.5304
  663MOL0     H87459   8.441   4.182   0.544  0.2228 -1.4080 -0.5317
  663MOL0     H87460   8.417   4.322   0.421 -3.9090 -1.6573 -0.5300
  663MOL0     H87461   8.419   4.027   0.336  0.0852 -0.2976 -0.0729
  663MOL0     H87462   8.369   4.167   0.241 -0.3694 -0.7107 -0.5364
  663MOL0     H87463   8.188   4.199   0.420  0.6725  0.5474  0.1092
  663MOL0     H87464   8.233   4.035   0.472 -0.9650  0.1885 -0.0902
  663MOL0     H87465   8.156   3.946   0.248 -1.5012  1.2879 -3.1522
  663MOL0     H87466   8.039   4.053   0.319 -1.3503 -5.2319 -3.3455
  663MOL0     H87467   8.216   4.121   0.099  0.5666  0.3879 -0.3362
  663MOL0     H87468   8.124   4.242   0.204 -1.5393 -0.7455  0.9952
  663MOL0     H87469   8.076   3.977  -0.076  0.1371 -0.8895  2.4647
  663MOL0     H87470   7.704   3.941  -0.146 -0.3025  1.0945  1.6892
  663MOL0     H87471   7.865   3.924  -0.238  0.9345  0.1938  0.9491
  663MOL0     H87472   7.830   4.170  -0.284 -1.3960  2.6407  2.8894
  663MOL0     H87473   7.660   4.156  -0.222 -0.2456 -0.9043 -0.4903
  663MOL0     H87474   7.701   4.126  -0.483 -0.6844  1.1965  1.4627
  663MOL0     H87475   7.726   3.954  -0.433  1.9677  0.1458  2.2412
  663MOL0     H87476   7.478   4.127  -0.356 -1.3859 -1.2700  3.1261
  663MOL0     H87477   7.485   3.964  -0.327  0.9581 -1.9969 -1.3417
  663MOL0     H87478   7.360   3.925  -0.750 -1.3143  2.7878  0.6186
  663MOL0     H87479   7.135   3.844  -0.782 -0.2727 -2.5695  0.4404
  663MOL0     H87480   6.779   3.567  -0.841  2.0091  0.7096 -1.0514
  663MOL0     H87481   6.532   3.544  -0.875 -0.4273  1.1606 -3.3042
  663MOL0     H87482   6.293   3.669  -0.688  1.1736  1.4800 -0.1534
  663MOL0     H87483   6.310   3.543  -0.817  0.6784  0.5012  0.4032
  663MOL0     H87484   6.127   3.565  -0.913  2.2035 -1.1331  1.1732
  663MOL0     H87485   6.128   3.740  -0.928  1.5696 -0.1178 -0.3412
  663MOL0     H87486   6.040   3.767  -0.707 -0.5440 -0.7418 -1.6116
  663MOL0     H87487   6.069   3.593  -0.667  0.6396 -0.7878 -1.2320
  663MOL0     H87488   5.863   3.703  -0.862  0.5506 -2.8494 -2.3800
  663MOL0     H87489   5.884   3.533  -0.815  0.5930 -0.3466  0.7319
  663MOL0     H87490   5.828   3.741  -0.594 -2.0870 -1.0079  1.0786
  663MOL0     H87491   5.842   3.571  -0.579 -0.5482  1.2473  2.8894
  663MOL0     H87492   5.643   3.558  -0.742  0.6737 -0.5970 -0.2554
  663MOL0     H87493   5.648   3.734  -0.753  0.8957  2.4605  2.3170
  663MOL0     H87494   5.476   3.637  -0.586 -0.0412 -1.5108  0.2509
  663MOL0     H87495   5.612   3.553  -0.510 -1.3553 -0.9905 -0.4746
  663MOL0     H87496   5.696   3.779  -0.429 -1.0839  0.4636  1.1342
  663MOL0     H87497   5.527   3.736  -0.377  0.0739  0.3169  0.4098
  663MOL0     H87498   6.486   3.953  -0.799 -0.6843 -0.4733 -1.4625
  663MOL0     H87499   6.723   3.987  -0.740 -0.8356 -1.6687  4.3878
  663MOL0     H87500   7.042   3.964  -0.378  0.9790 -1.2532  1.0510
  663MOL0     H87501   7.275   4.023  -0.345  3.1445  0.1020 -1.3411
  663MOL0     H87502   9.116   4.213   0.458 -2.1593 -0.0049  1.4929
  663MOL0     H87503   9.355   4.215   0.571 -1.5243 -2.7354 -0.2091
  663MOL0     H87504   9.571   4.486   0.950 -1.1786 -2.4828 -1.1500
  663MOL0     H87505   9.767   4.518   1.106  0.0372 -3.3206  1.2299
  663MOL0     H87506  10.023   4.201   1.151 -1.9630  1.0947  2.4284
  663MOL0     H87507  10.099   4.301   1.262  0.9370  3.8869 -0.2759
  663MOL0     H87508  10.253   4.218   1.060 -1.1384 -0.0324  1.3638
  663MOL0     H87509  10.164   4.318   0.950  1.1167 -0.6296 -0.8844
  663MOL0     H87510  10.288   4.484   1.169  1.1714  0.0668 -1.3315
  663MOL0     H87511  10.209   4.514   1.020 -1.6484  0.6574  2.3907
  663MOL0     H87512  10.390   4.399   0.889 -1.3510 -0.8924  1.0752
  663MOL0     H87513  10.443   4.550   0.971 -0.7966  0.9455  1.4487
  663MOL0     H87514  10.650   4.219   1.142  1.9428  0.2293 -0.9517
  663MOL0     H87515   9.978   4.201   0.935 -0.1985  0.5854  1.4879
  663MOL0     H87516   9.772   4.122   0.812 -0.8446  0.0176  1.1715
  664MOL0     O87517   6.634   6.670   8.543 -0.1511 -0.4356  0.1213
  664MOL0     C87518   6.608   6.576   8.613 -0.1242 -0.5657  0.0172
  664MOL0     O87519   6.481   6.528   8.644 -0.0492 -0.1550 -0.7465
  664MOL0     C87520   6.367   6.573   8.585 -0.6324  0.3353  0.2158
  664MOL0     C87521   6.290   6.683   8.628 -0.1217  1.2592  0.0078
  664MOL0     C87522   6.163   6.703   8.565 -0.5129  0.0311 -0.0164
  664MOL0     C87523   6.111   6.627   8.457 -0.1074  0.9333 -0.5077
  664MOL0     O87524   5.988   6.639   8.397 -0.5634 -0.0702  0.6581
  664MOL0     C87525   5.890   6.710   8.478 -0.6989 -0.5994 -0.3636
  664MOL0     C87526   5.754   6.668   8.402 -0.7661  0.3290  0.4304
  664MOL0     C87527   5.633   6.728   8.466 -0.6638 -0.3835  0.3480
  664MOL0     C87528   5.506   6.720   8.380 -0.7653 -0.3124 -0.3800
  664MOL0     C87529   5.393   6.809   8.437 -0.4505 -0.9498 -0.1350
  664MOL0     C87530   5.248   6.781   8.387 -0.4577 -0.3061  0.8053
  664MOL0     C87531   5.141   6.874   8.447  0.5820  0.5877 -0.0212
  664MOL0     C87532   4.998   6.816   8.421  0.4931  0.2176 -0.0345
  664MOL0     N87533   4.910   6.931   8.409  0.6661 -0.2479 -0.0237
  664MOL0     C87534   4.858   7.003   8.514 -0.8547 -0.6072 -0.2661
  664MOL0     C87535   4.748   7.070   8.467  0.1657  0.8161  0.2271
  664MOL0     C87536   4.646   7.134   8.559  0.1708  0.3916  0.2041
  664MOL0     C87537   4.685   7.285   8.578  0.3122 -0.2544 -0.7037
  664MOL0     C87538   4.672   7.373   8.461  0.6162 -0.7980  0.4012
  664MOL0     C87539   4.801   7.451   8.433 -0.6469  0.7759  0.1804
  664MOL0     O87540   4.787   7.560   8.348  0.3737  0.0435 -0.0411
  664MOL0     C87541   4.902   7.613   8.299  0.4630 -0.8247  0.1772
  664MOL0     C87542   5.037   7.584   8.349  0.0292 -0.2161  0.3322
  664MOL0     C87543   5.143   7.628   8.277  0.2364 -0.5727  0.4438
  664MOL0     C87544   5.118   7.722   8.167 -0.7416 -1.7285  0.4152
  664MOL0     C87545   5.234   7.778   8.102 -0.4559  0.3190 -0.3977
  664MOL0     O87546   5.355   7.712   8.128  0.5175 -0.6743  0.0214
  664MOL0     C87547   5.468   7.748   8.057 -0.4855 -0.1141 -0.2446
  664MOL0     C87548   5.542   7.638   8.030  0.2762  0.4561  0.0235
  664MOL0     C87549   5.679   7.663   7.992 -0.5982  0.6417 -0.3369
  664MOL0     C87550   5.734   7.791   7.991  0.6815  0.6749  0.6471
  664MOL0     O87551   5.857   7.834   7.945 -0.5407  0.2814 -1.0735
  664MOL0     C87552   5.957   7.738   7.941  0.8534  0.3632 -0.1253
  664MOL0     C87553   5.974   7.682   7.802 -0.4501  0.7803  0.5062
  664MOL0     C87554   6.121   7.657   7.785  0.1750 -0.6571 -0.5603
  664MOL0     C87555   6.161   7.566   7.663  0.8228  0.3683  0.2176
  664MOL0     C87556   6.289   7.505   7.675 -0.3169  0.6663 -0.2531
  664MOL0     C87557   6.328   7.427   7.560 -0.0344  0.0025  0.6748
  664MOL0     C87558   6.481   7.406   7.550 -0.4463 -0.9098  0.4837
  664MOL0     C87559   6.521   7.326   7.425  0.1107  1.1179  0.4582
  664MOL0    Cl87560   6.566   7.439   7.292  0.2149 -0.6563 -0.0591
  664MOL0     C87561   5.657   7.898   8.022  0.6430  0.4736  0.0367
  664MOL0     C87562   5.518   7.875   8.057  0.2457 -0.4259  0.3200
  664MOL0     O87563   5.218   7.862   8.018  0.1358  0.3445  0.6244
  664MOL0     C87564   4.988   7.772   8.139  1.2169  0.5174  0.7328
  664MOL0     C87565   4.880   7.710   8.198 -0.4200  0.6503 -0.2251
  664MOL0     N87566   4.735   7.029   8.334  0.6007 -0.7575 -0.9635
  664MOL0     N87567   4.831   6.950   8.301  0.6710  0.3285  0.9249
  664MOL0     C87568   6.198   6.526   8.413  0.6752 -0.3592 -0.2160
  664MOL0     C87569   6.326   6.500   8.470 -0.3334  0.0564 -0.5803
  664MOL0     C87570   6.721   6.522   8.702  0.5755 -0.8447  0.1742
  664MOL0     C87571   6.696   6.423   8.792 -0.1185 -0.8816 -0.8676
  664MOL0     C87572   6.803   6.351   8.868  0.5749  0.1790  0.0504
  664MOL0     C87573   6.931   6.391   8.843 -0.0716 -0.2413  0.9885
  664MOL0     O87574   7.039   6.339   8.895 -0.1242 -0.5762 -1.1260
  664MOL0     C87575   7.033   6.240   8.998  0.8681 -0.5919  1.6226
  664MOL0     C87576   7.168   6.230   9.059 -0.1100  0.2934  0.5573
  664MOL0     C87577   7.223   6.353   9.129 -0.0512  0.4566  0.0203
  664MOL0     C87578   7.367   6.323   9.174  0.0492 -0.4429 -0.9667
  664MOL0     C87579   7.366   6.225   9.282 -0.2395 -0.2660  0.1256
  664MOL0     C87580   7.369   6.150   9.378  0.1759  0.1077 -0.2487
  664MOL0     C87581   6.955   6.499   8.755 -0.0593  0.0709 -0.5216
  664MOL0     C87582   6.854   6.563   8.686 -0.0118  0.3657  0.2080
  664MOL0     H87583   6.324   6.733   8.719 -1.6179  0.5584  0.9883
  664MOL0     H87584   6.097   6.775   8.611 -1.6306  0.2417 -1.8311
  664MOL0     H87585   5.912   6.816   8.468 -0.2718 -0.8468 -2.5885
  664MOL0     H87586   5.892   6.689   8.586  3.7558 -0.5875 -0.2430
  664MOL0     H87587   5.750   6.565   8.365 -1.7537  1.8921 -4.4527
  664MOL0     H87588   5.752   6.712   8.302 -2.2733 -0.5711  0.0285
  664MOL0     H87589   5.653   6.833   8.486 -0.1021 -0.4413  0.1095
  664MOL0     H87590   5.612   6.694   8.568 -2.2878  0.6659  0.4043
  664MOL0     H87591   5.536   6.767   8.286  1.6210 -1.0523 -0.0603
  664MOL0     H87592   5.479   6.615   8.373  0.1899 -0.7751  1.8581
  664MOL0     H87593   5.409   6.916   8.423  1.7589 -0.9877  1.6104
  664MOL0     H87594   5.405   6.790   8.544  3.9561  1.4834  0.0061
  664MOL0     H87595   5.225   6.678   8.416  3.5331 -1.0360  1.9503
  664MOL0     H87596   5.240   6.792   8.279 -0.7962  0.5132  0.9082
  664MOL0     H87597   5.156   6.902   8.552 -2.4796  1.4742  0.2763
  664MOL0     H87598   5.148   6.966   8.389 -0.9241  1.4769  1.1597
  664MOL0     H87599   4.969   6.748   8.502 -3.1290  0.1628 -1.1815
  664MOL0     H87600   4.992   6.775   8.320 -0.9883 -2.0831  0.9173
  664MOL0     H87601   4.896   7.006   8.615 -1.0302  0.0976 -0.2195
  664MOL0     H87602   4.648   7.087   8.658 -1.7096 -1.3404 -0.5123
  664MOL0     H87603   4.545   7.121   8.519 -0.6781  0.8687  2.0732
  664MOL0     H87604   4.788   7.283   8.616  0.9468 -0.3419 -2.3381
  664MOL0     H87605   4.625   7.325   8.659 -0.5764  2.6275 -2.6365
  664MOL0     H87606   4.640   7.306   8.380 -2.2782  0.1997  0.5961
  664MOL0     H87607   4.592   7.448   8.461  0.3208 -1.1040  0.9573
  664MOL0     H87608   4.867   7.372   8.397  1.9471  1.7296  2.5236
  664MOL0     H87609   4.853   7.488   8.522  1.7232  2.0678 -1.6149
  664MOL0     H87610   5.046   7.523   8.438  0.4411 -1.7441 -0.7100
  664MOL0     H87611   5.244   7.605   8.312  1.5508  0.0681 -2.6174
  664MOL0     H87612   5.501   7.537   8.027  2.6296 -0.5631 -2.4720
  664MOL0     H87613   5.735   7.575   7.960 -3.0364 -0.2989 -2.3793
  664MOL0     H87614   5.937   7.657   8.012 -2.6680 -1.4481 -2.8881
  664MOL0     H87615   6.042   7.793   7.982  2.1976 -1.6026 -0.1292
  664MOL0     H87616   5.939   7.757   7.730 -0.8056  2.0402  1.9491
  664MOL0     H87617   5.921   7.590   7.774 -2.1511  2.0011 -0.5208
  664MOL0     H87618   6.149   7.598   7.873 -0.8742  0.2109  0.3806
  664MOL0     H87619   6.166   7.756   7.786  0.0566 -0.5861  1.3142
  664MOL0     H87620   6.083   7.490   7.650  1.8461 -0.3738 -2.0770
  664MOL0     H87621   6.175   7.620   7.570  1.2013 -0.2244 -0.0780
  664MOL0     H87622   6.298   7.449   7.768 -1.0378  1.3882  0.2682
  664MOL0     H87623   6.364   7.584   7.689 -1.2319  1.3674  0.8936
  664MOL0     H87624   6.304   7.476   7.465  2.4641 -0.1631 -0.1240
  664MOL0     H87625   6.274   7.333   7.561 -1.6205  0.8614 -0.5433
  664MOL0     H87626   6.533   7.502   7.557  2.6109 -2.4667  0.6174
  664MOL0     H87627   6.528   7.354   7.634  0.0416  1.2658  1.6267
  664MOL0     H87628   6.439   7.264   7.387  0.4496  2.0953 -2.0250
  664MOL0     H87629   6.600   7.252   7.446  0.7285  1.5973 -0.1166
  664MOL0     H87630   5.698   7.998   8.015 -0.8220  1.0374 -1.1021
  664MOL0     H87631   5.469   7.965   8.091 -0.2974 -0.5135 -0.2113
  664MOL0     H87632   4.974   7.846   8.061 -0.8832  0.6418  1.1671
  664MOL0     H87633   4.781   7.746   8.170 -0.2458 -0.0892 -1.8929
  664MOL0     H87634   6.170   6.457   8.335  1.5425  2.6498 -3.4636
  664MOL0     H87635   6.391   6.424   8.429  1.3765  0.7743  0.6593
  664MOL0     H87636   6.595   6.392   8.815 -0.1651  1.2691  2.3983
  664MOL0     H87637   6.777   6.274   8.940 -0.7822  0.7367  0.2046
  664MOL0     H87638   7.005   6.147   8.948  1.0358 -1.3683  2.9034
  664MOL0     H87639   6.952   6.256   9.070  0.8201  0.4602  1.3489
  664MOL0     H87640   7.162   6.154   9.138  1.0327 -1.7428 -1.2118
  664MOL0     H87641   7.226   6.193   8.974 -2.8557  1.8311 -2.1396
  664MOL0     H87642   7.153   6.362   9.213  2.8425  0.4852  2.5731
  664MOL0     H87643   7.233   6.443   9.067  0.8757  0.7362  0.5641
  664MOL0     H87644   7.423   6.288   9.086 -0.6149 -1.0925 -1.1368
  664MOL0     H87645   7.403   6.415   9.220 -2.8663  1.6980 -2.6394
  664MOL0     H87646   7.343   6.089   9.461 -1.6180  2.5412  1.1069
  664MOL0     H87647   7.053   6.543   8.741  0.2957  0.2556  1.9407
  664MOL0     H87648   6.875   6.652   8.627 -1.1986  1.5764  1.5157
  665MOL0     O87649   6.282   0.202   9.032  1.4175  0.3022  0.2994
  665MOL0     C87650   6.227   0.292   8.968  0.0644  0.5171 -0.3120
  665MOL0     O87651   6.296   0.385   8.890 -0.2493  0.0648  0.4153
  665MOL0     C87652   6.435   0.372   8.867  0.6834 -0.1453  0.2345
  665MOL0     C87653   6.503   0.491   8.854  0.2545  0.4870  0.6466
  665MOL0     C87654   6.631   0.492   8.794  0.7287 -0.3780  0.5719
  665MOL0     C87655   6.696   0.373   8.763  0.7753  0.0798 -0.4903
  665MOL0     O87656   6.827   0.381   8.719 -0.1455  0.1246  0.1664
  665MOL0     C87657   6.902   0.260   8.712 -0.2397  0.7740  1.0909
  665MOL0     C87658   7.050   0.300   8.695 -0.1436  0.3500 -0.9266
  665MOL0     C87659   7.144   0.188   8.690  0.5528  0.2330 -0.1495
  665MOL0     C87660   7.122   0.100   8.560  0.2581  0.0561  0.2026
  665MOL0     C87661   7.233   0.002   8.555 -0.4882  0.2907 -0.6902
  665MOL0     C87662   7.261  -0.044   8.409  0.0549 -0.2051 -0.0500
  665MOL0     C87663   7.361  -0.153   8.428 -0.4816 -0.3356  0.9652
  665MOL0     C87664   7.402  -0.206   8.295  0.4813  0.4144  0.5257
  665MOL0     N87665   7.463  -0.105   8.212  0.2899 -0.5489  1.0885
  665MOL0     C87666   7.403  -0.048   8.095  0.1874  0.3806 -0.9471
  665MOL0     C87667   7.491   0.044   8.055 -0.2305 -0.2942  0.3393
  665MOL0     C87668   7.502   0.089   7.917  0.3261 -0.5659  0.1304
  665MOL0     C87669   7.525   0.239   7.890  0.8975  0.3133  0.9536
  665MOL0     C87670   7.615   0.317   7.985  0.9362 -0.0306  0.3646
  665MOL0     C87671   7.765   0.304   7.970  0.2742 -0.1296 -0.8602
  665MOL0     O87672   7.794   0.348   7.833 -0.1234  0.1142  0.0891
  665MOL0     C87673   7.917   0.385   7.795  0.2803  0.0950  0.4828
  665MOL0     C87674   7.953   0.396   7.659  0.1283 -0.2284 -0.9406
  665MOL0     C87675   8.076   0.452   7.616  0.6400  0.0117 -0.5453
  665MOL0     C87676   8.179   0.484   7.707  0.8724  0.7868  0.4624
  665MOL0     C87677   8.306   0.540   7.653  0.7039 -0.3508 -0.4027
  665MOL0     O87678   8.405   0.548   7.740 -0.4036  0.1122  0.2504
  665MOL0     C87679   8.515   0.609   7.689 -0.2297 -0.9176 -0.5776
  665MOL0     C87680   8.546   0.739   7.729  0.0728 -0.6343  0.3106
  665MOL0     C87681   8.666   0.798   7.709 -0.0606 -0.4241 -0.2748
  665MOL0     C87682   8.765   0.725   7.648 -0.2800 -0.3332 -0.1446
  665MOL0     O87683   8.888   0.772   7.636 -0.0577  0.2864  0.0259
  665MOL0     C87684   8.903   0.887   7.557 -0.5273  1.1730  0.3544
  665MOL0     C87685   9.039   0.891   7.489  0.7514 -0.6883 -0.2431
  665MOL0     C87686   9.046   0.994   7.377 -0.2017  0.2619 -0.4010
  665MOL0     C87687   9.188   0.997   7.328  1.1986  0.7688  0.5005
  665MOL0     C87688   9.202   1.116   7.234  0.6135  0.9693  0.1729
  665MOL0     C87689   9.322   1.106   7.143  0.5044  0.5769 -0.8180
  665MOL0     C87690   9.369   1.241   7.090 -0.2501  0.8020  0.4340
  665MOL0     C87691   9.479   1.209   6.988 -0.2251  0.7741 -0.0732
  665MOL0    Cl87692   9.529   1.367   6.910  0.0735  0.2663  0.0841
  665MOL0     C87693   8.738   0.604   7.590 -0.3968 -0.1872  0.2761
  665MOL0     C87694   8.611   0.541   7.601 -0.0457  0.5987  0.4174
  665MOL0     O87695   8.316   0.549   7.533 -0.4318  0.8555  0.1428
  665MOL0     C87696   8.145   0.460   7.845 -0.3316  0.5093 -1.2102
  665MOL0     C87697   8.018   0.419   7.876  0.3249  0.4602 -0.1951
  665MOL0     N87698   7.602   0.035   8.134  0.3575 -0.0810 -0.3419
  665MOL0     N87699   7.584  -0.044   8.233 -0.0707 -0.0077  0.3099
  665MOL0     C87700   6.636   0.247   8.789  0.3186 -1.0844  0.4324
  665MOL0     C87701   6.505   0.253   8.839 -0.2939 -0.1177  0.2921
  665MOL0     C87702   6.078   0.300   8.957 -0.6482 -0.6032  0.6454
  665MOL0     C87703   6.008   0.243   9.060  0.4142  0.2892  0.6563
  665MOL0     C87704   5.870   0.252   9.065 -0.4095  0.7570 -1.3015
  665MOL0     C87705   5.801   0.314   8.965 -0.1902  0.0329 -0.3330
  665MOL0     O87706   5.667   0.303   8.973 -0.6196 -1.1581  0.0809
  665MOL0     C87707   5.597   0.432   8.961  0.3515  0.5235 -0.0972
  665MOL0     C87708   5.463   0.420   9.037 -0.1070 -0.0408  0.1835
  665MOL0     C87709   5.353   0.349   8.956 -0.1930 -0.2172 -0.5507
  665MOL0     C87710   5.223   0.326   9.029  0.7803 -0.5467 -0.5100
  665MOL0     C87711   5.119   0.289   8.933  0.4954  0.6794  0.4289
  665MOL0     C87712   5.035   0.247   8.851  0.3531 -0.9904 -0.0342
  665MOL0     C87713   5.867   0.381   8.865  0.1189  0.1201  0.4252
  665MOL0     C87714   6.013   0.366   8.850 -0.0604  0.0684 -1.2314
  665MOL0     H87715   6.454   0.584   8.880  0.3828  0.0940  2.3555
  665MOL0     H87716   6.672   0.589   8.766 -1.1755  0.5356  0.7651
  665MOL0     H87717   6.882   0.205   8.620  2.1806  2.8909 -0.8773
  665MOL0     H87718   6.890   0.194   8.798 -2.5167 -2.5287 -1.4938
  665MOL0     H87719   7.081   0.368   8.775 -2.0553 -0.7242  0.8211
  665MOL0     H87720   7.056   0.350   8.598  3.6992 -0.0427 -1.0506
  665MOL0     H87721   7.133   0.128   8.781 -3.5667 -0.3032 -0.7882
  665MOL0     H87722   7.242   0.231   8.668 -0.3134  2.0326 -0.6388
  665MOL0     H87723   7.023   0.054   8.556  1.0616 -1.7231 -2.7185
  665MOL0     H87724   7.127   0.159   8.468 -1.1387 -2.3755 -1.5559
  665MOL0     H87725   7.210  -0.081   8.623 -1.9835 -1.1008 -2.7611
  665MOL0     H87726   7.320   0.051   8.598 -1.4241 -2.3236  5.0474
  665MOL0     H87727   7.295   0.040   8.348 -2.7784  0.3763 -0.9467
  665MOL0     H87728   7.170  -0.070   8.355 -0.6179  1.7478  0.0854
  665MOL0     H87729   7.449  -0.112   8.479 -1.7325  1.0569  2.0873
  665MOL0     H87730   7.308  -0.232   8.481 -2.5659 -0.7858 -1.5715
  665MOL0     H87731   7.310  -0.244   8.249 -0.1326 -0.9931  2.7603
  665MOL0     H87732   7.466  -0.294   8.305 -1.0351 -0.9001 -0.8406
  665MOL0     H87733   7.311  -0.088   8.053 -0.6919  0.1996  1.0142
  665MOL0     H87734   7.407   0.065   7.867 -2.3871  2.0760  3.5084
  665MOL0     H87735   7.583   0.039   7.863 -0.5738 -2.2734  0.2857
  665MOL0     H87736   7.426   0.286   7.888  0.8632  0.8089 -5.1340
  665MOL0     H87737   7.557   0.258   7.787  1.1865 -3.0488  0.3085
  665MOL0     H87738   7.592   0.424   7.981  1.3023  0.1692  2.3953
  665MOL0     H87739   7.589   0.298   8.090  0.4132  2.3459  0.7254
  665MOL0     H87740   7.804   0.205   7.993  3.9988  1.1190 -1.1776
  665MOL0     H87741   7.808   0.369   8.046 -0.7073 -1.3811  0.8144
  665MOL0     H87742   7.883   0.368   7.581 -2.1233 -2.8370  1.7896
  665MOL0     H87743   8.087   0.457   7.508  0.6400 -1.2748 -0.6262
  665MOL0     H87744   8.474   0.795   7.787  1.5164  0.7421  0.8411
  665MOL0     H87745   8.689   0.891   7.759  0.2425 -0.7860  0.2677
  665MOL0     H87746   8.899   0.975   7.622 -1.4264  0.9035  0.6798
  665MOL0     H87747   8.828   0.873   7.479 -0.0850 -1.8492  0.3419
  665MOL0     H87748   9.059   0.790   7.453 -1.8982 -0.7355 -1.8478
  665MOL0     H87749   9.110   0.911   7.570 -0.1868 -3.6000  1.4763
  665MOL0     H87750   9.021   1.088   7.427 -1.7609 -1.2370  1.8269
  665MOL0     H87751   8.968   0.979   7.302  1.4889 -0.5238 -2.0897
  665MOL0     H87752   9.258   1.006   7.411  1.4770 -3.4418  0.9626
  665MOL0     H87753   9.212   0.905   7.274 -0.4549  2.1586 -2.9036
  665MOL0     H87754   9.215   1.208   7.292  2.1313  0.6199  0.4198
  665MOL0     H87755   9.107   1.125   7.181 -0.5406 -0.4979  1.8541
  665MOL0     H87756   9.312   1.025   7.071  0.7397 -2.3971  2.2702
  665MOL0     H87757   9.396   1.064   7.212 -1.3197 -0.4769  0.5852
  665MOL0     H87758   9.277   1.288   7.052 -1.0166 -2.8630 -2.8669
  665MOL0     H87759   9.407   1.297   7.176 -2.2385 -1.2635  2.8296
  665MOL0     H87760   9.454   1.132   6.915 -1.5980 -0.0746  1.2373
  665MOL0     H87761   9.574   1.177   7.033  0.4554  1.8132 -0.7127
  665MOL0     H87762   8.816   0.545   7.542 -0.2864 -1.3088  1.7550
  665MOL0     H87763   8.597   0.441   7.561 -0.6807  0.1088  1.8129
  665MOL0     H87764   8.221   0.483   7.920 -0.0822 -1.5803 -0.7786
  665MOL0     H87765   7.997   0.392   7.979 -3.8516  0.7327 -0.8178
  665MOL0     H87766   6.676   0.153   8.753  0.5737 -0.5768 -0.6619
  665MOL0     H87767   6.455   0.157   8.850  3.6676 -2.4124  0.0400
  665MOL0     H87768   6.056   0.186   9.139 -2.0235 -0.8876  1.3691
  665MOL0     H87769   5.818   0.213   9.152  0.4640 -1.7336 -1.8133
  665MOL0     H87770   5.597   0.478   8.862  0.2143  1.4404  0.3088
  665MOL0     H87771   5.651   0.509   9.017 -0.2215  2.2536 -1.8117
  665MOL0     H87772   5.479   0.372   9.134 -0.8231 -0.1091  0.2772
  665MOL0     H87773   5.423   0.520   9.059 -1.0225  0.6231 -3.8040
  665MOL0     H87774   5.389   0.256   8.912 -1.0149 -2.2161  2.6589
  665MOL0     H87775   5.318   0.418   8.878 -0.9945  0.1379  0.0983
  665MOL0     H87776   5.239   0.246   9.102 -1.7744 -0.5111  0.1740
  665MOL0     H87777   5.202   0.416   9.088  1.9694  0.3409 -1.3817
  665MOL0     H87778   4.952   0.210   8.794 -0.1566 -3.2649  2.0336
  665MOL0     H87779   5.815   0.424   8.781  0.9624 -1.1469 -0.7946
  665MOL0     H87780   6.077   0.421   8.782  0.0609  0.1765 -1.0313
  666MOL0     O87781   9.939   9.264   2.243 -0.4830  0.2508 -0.5286
  666MOL0     C87782  10.008   9.181   2.188 -1.6308  0.1968 -0.0181
  666MOL0     O87783   9.989   9.043   2.193  0.3826  0.4340 -0.4369
  666MOL0     C87784   9.879   8.983   2.252  0.0341 -0.1779  0.0502
  666MOL0     C87785   9.898   8.863   2.319  0.3246  1.2378  0.8434
  666MOL0     C87786   9.791   8.799   2.380  0.6338 -0.5821 -0.0029
  666MOL0     C87787   9.660   8.857   2.393 -0.5025  0.0738 -0.4414
  666MOL0     O87788   9.562   8.800   2.463 -0.7396  0.7702 -0.2447
  666MOL0     C87789   9.568   8.664   2.518  0.2004 -0.7289  0.8582
  666MOL0     C87790   9.653   8.635   2.642 -0.0431  0.2329 -0.3507
  666MOL0     C87791   9.623   8.731   2.760 -1.0712 -1.1620  0.1146
  666MOL0     C87792   9.486   8.701   2.835 -0.4024 -0.6788  0.1561
  666MOL0     C87793   9.437   8.821   2.924  0.1497  0.6135 -0.1678
  666MOL0     C87794   9.367   8.927   2.841  0.1864  0.2039  0.4129
  666MOL0     C87795   9.323   9.044   2.930 -0.4603  0.8107 -1.0986
  666MOL0     C87796   9.251   9.154   2.852 -0.7464  0.1351  0.5982
  666MOL0     N87797   9.104   9.134   2.827  0.2024  0.5197 -0.5496
  666MOL0     C87798   9.008   9.103   2.924  0.3642  0.2758 -0.0997
  666MOL0     C87799   8.891   9.084   2.862  0.4127 -0.3960  0.0894
  666MOL0     C87800   8.764   9.019   2.915 -0.0128 -0.5438 -0.1659
  666MOL0     C87801   8.736   8.881   2.872  0.0317 -0.2868  0.2041
  666MOL0     C87802   8.645   8.785   2.960 -1.2371  0.3830  0.5703
  666MOL0     C87803   8.505   8.761   2.894 -0.2544 -0.8283 -0.0431
  666MOL0     O87804   8.434   8.675   2.979 -0.4273 -0.8679 -0.3695
  666MOL0     C87805   8.310   8.631   2.943  0.2637 -0.4027 -0.2715
  666MOL0     C87806   8.235   8.682   2.840  0.1985  0.4574 -0.3758
  666MOL0     C87807   8.104   8.645   2.809  0.1856 -0.6463  0.8443
  666MOL0     C87808   8.045   8.532   2.873  0.8350 -0.4421 -1.4108
  666MOL0     C87809   7.908   8.483   2.850 -0.1919  0.4688  0.2797
  666MOL0     O87810   7.862   8.522   2.730  0.4978 -0.4180  0.3602
  666MOL0     C87811   7.734   8.486   2.697  0.3681  0.5538 -0.6246
  666MOL0     C87812   7.618   8.533   2.756 -0.3210 -0.4627 -0.3085
  666MOL0     C87813   7.492   8.499   2.713 -0.0358  0.7067  0.1385
  666MOL0     C87814   7.476   8.400   2.610  0.5924  0.0546 -0.3287
  666MOL0     O87815   7.347   8.377   2.575 -0.0126 -0.0819 -0.5119
  666MOL0     C87816   7.305   8.232   2.564  0.0008 -0.6184 -0.4800
  666MOL0     C87817   7.168   8.225   2.499  0.6329 -0.4240 -0.2201
  666MOL0     C87818   7.107   8.086   2.502 -0.7893 -0.0779  0.0594
  666MOL0     C87819   7.017   8.063   2.375 -0.3494 -0.2007 -0.1783
  666MOL0     C87820   6.890   8.144   2.352  0.1805 -0.9392  0.0574
  666MOL0     C87821   6.787   8.148   2.468 -0.2074  0.3286 -0.3211
  666MOL0     C87822   6.721   8.008   2.504 -0.4172  0.0127  0.2775
  666MOL0     C87823   6.578   8.010   2.542 -0.9102  0.3681  0.1247
  666MOL0    Cl87824   6.584   8.076   2.695  0.2168 -0.4975 -0.3359
  666MOL0     C87825   7.587   8.349   2.554  0.0715  0.9474 -0.1559
  666MOL0     C87826   7.716   8.393   2.600 -0.3064  0.0976  0.0399
  666MOL0     O87827   7.844   8.417   2.926 -0.4397 -0.0472 -0.0094
  666MOL0     C87828   8.120   8.476   2.986  0.4953  0.2033 -1.1898
  666MOL0     C87829   8.253   8.530   3.014  1.0586  0.3222 -0.5799
  666MOL0     N87830   8.912   9.115   2.729 -0.3233 -0.0474  0.2705
  666MOL0     N87831   9.037   9.151   2.710  0.3845  0.2492  0.1663
  666MOL0     C87832   9.641   8.971   2.314 -0.5408  0.3080  0.1519
  666MOL0     C87833   9.749   9.034   2.248  0.3450 -0.7552  0.2240
  666MOL0     C87834  10.113   9.224   2.106 -0.3403 -1.0007  0.2373
  666MOL0     C87835  10.221   9.137   2.060  0.1915 -0.0347  0.0307
  666MOL0     C87836  10.312   9.188   1.968 -0.1922 -0.2228 -0.7458
  666MOL0     C87837  10.302   9.312   1.914  0.1829 -0.2160 -1.0408
  666MOL0     O87838  10.413   9.348   1.832  0.0755  0.8451  0.2997
  666MOL0     C87839  10.417   9.475   1.766 -0.2696  0.0094  0.3473
  666MOL0     C87840  10.541   9.490   1.674 -1.0327  0.3258 -0.4076
  666MOL0     C87841  10.501   9.578   1.554 -0.2217 -0.2147  0.0485
  666MOL0     C87842  10.626   9.653   1.492  0.1637 -0.7396  0.0723
  666MOL0     C87843  10.716   9.561   1.426 -0.5268  0.9288  0.0318
  666MOL0     C87844  10.795   9.479   1.389  0.8227 -0.3755 -0.3223
  666MOL0     C87845  10.198   9.404   1.949 -1.5672  0.7829 -0.1417
  666MOL0     C87846  10.111   9.349   2.041 -0.3300  0.1242 -0.2190
  666MOL0     H87847   9.996   8.815   2.322 -0.0319  0.4392  0.1398
  666MOL0     H87848   9.807   8.699   2.419 -1.6007 -1.8646 -2.1567
  666MOL0     H87849   9.595   8.591   2.440  2.8258  0.1969  0.7912
  666MOL0     H87850   9.468   8.635   2.552 -0.9086 -1.1138 -2.3742
  666MOL0     H87851   9.757   8.639   2.609  0.9050 -0.4568  2.2705
  666MOL0     H87852   9.636   8.532   2.675  2.5397 -0.0593  0.2830
  666MOL0     H87853   9.632   8.835   2.729 -0.0451 -1.9783 -2.6703
  666MOL0     H87854   9.706   8.703   2.826  0.7442  1.7161 -0.7462
  666MOL0     H87855   9.403   8.672   2.770 -2.0556  2.2958  0.7893
  666MOL0     H87856   9.516   8.617   2.899  1.4524  0.5916  1.0561
  666MOL0     H87857   9.525   8.856   2.979  3.9919 -4.0157 -2.5351
  666MOL0     H87858   9.366   8.782   2.997  0.5050 -0.4321 -0.3570
  666MOL0     H87859   9.280   8.887   2.790 -0.7319  3.1021 -0.4727
  666MOL0     H87860   9.439   8.981   2.778 -0.2331  1.0742  0.6531
  666MOL0     H87861   9.262   9.017   3.018  0.5077  2.5572  0.1689
  666MOL0     H87862   9.413   9.096   2.962 -1.1539  1.3413  0.0678
  666MOL0     H87863   9.298   9.159   2.753 -1.4950 -4.3298 -0.1861
  666MOL0     H87864   9.259   9.248   2.907  0.3451  0.6997 -0.4626
  666MOL0     H87865   9.026   9.076   3.027  3.0091  1.2627 -0.2240
  666MOL0     H87866   8.684   9.090   2.892  0.9245  0.3583 -0.7564
  666MOL0     H87867   8.776   9.024   3.024  1.5658  3.1409 -0.3562
  666MOL0     H87868   8.833   8.831   2.862  0.3014 -0.3333  2.6390
  666MOL0     H87869   8.691   8.883   2.772  0.6662  1.1259 -0.0793
  666MOL0     H87870   8.692   8.689   2.981 -0.4561  1.0795  2.2143
  666MOL0     H87871   8.630   8.838   3.055  0.4144  0.3670  0.8595
  666MOL0     H87872   8.512   8.721   2.793 -1.6414 -3.1086  0.6662
  666MOL0     H87873   8.447   8.853   2.882  0.3986 -0.3944  0.0912
  666MOL0     H87874   8.276   8.757   2.774 -1.9567  1.2477 -0.8897
  666MOL0     H87875   8.068   8.701   2.723  1.9545 -1.4061 -0.4480
  666MOL0     H87876   7.628   8.599   2.842 -0.8732 -2.2407  1.2066
  666MOL0     H87877   7.404   8.535   2.764  0.5059  0.3458  1.3520
  666MOL0     H87878   7.295   8.188   2.664 -0.5465  0.9942  0.2124
  666MOL0     H87879   7.372   8.172   2.502  1.3535  1.6119 -1.3041
  666MOL0     H87880   7.185   8.262   2.397  4.1619  1.5707  0.9292
  666MOL0     H87881   7.106   8.300   2.547 -1.9814 -2.0381 -0.8794
  666MOL0     H87882   7.052   8.069   2.595  0.3468 -2.9001  0.3142
  666MOL0     H87883   7.188   8.013   2.505 -0.8348 -0.3158 -2.2425
  666MOL0     H87884   7.073   8.087   2.284  1.3961 -1.3741  0.5290
  666MOL0     H87885   6.994   7.956   2.379  1.6966 -0.6815  0.1189
  666MOL0     H87886   6.854   8.097   2.260 -2.7545  2.7034 -0.8595
  666MOL0     H87887   6.927   8.244   2.330 -1.2891 -0.4495 -0.3041
  666MOL0     H87888   6.697   8.205   2.442 -1.9990 -1.3627  1.8205
  666MOL0     H87889   6.834   8.190   2.557 -0.6867 -1.5891  0.8850
  666MOL0     H87890   6.725   7.941   2.418  0.3891 -1.7237  1.6252
  666MOL0     H87891   6.787   7.961   2.577  0.8407  0.2344 -0.6933
  666MOL0     H87892   6.536   7.910   2.530 -1.1306  0.5834 -1.0227
  666MOL0     H87893   6.524   8.078   2.475 -1.3294 -2.7823 -3.0587
  666MOL0     H87894   7.578   8.271   2.480 -2.0584 -1.0254  2.0102
  666MOL0     H87895   7.795   8.349   2.539 -1.5346  0.5106 -1.9546
  666MOL0     H87896   8.081   8.390   3.040 -0.2468  0.3691 -1.4383
  666MOL0     H87897   8.309   8.478   3.091 -1.3295  0.8182  1.6372
  666MOL0     H87898   9.545   9.020   2.316 -0.4662  0.4690  2.3663
  666MOL0     H87899   9.719   9.119   2.189  1.5787  0.6471  1.5437
  666MOL0     H87900  10.245   9.040   2.100 -0.4904 -0.1704  0.1244
  666MOL0     H87901  10.390   9.126   1.926  1.3538  2.1954 -1.6536
  666MOL0     H87902  10.420   9.564   1.831 -0.2274  1.9045 -2.0882
  666MOL0     H87903  10.329   9.489   1.702  1.3125  3.8666 -1.2790
  666MOL0     H87904  10.623   9.536   1.730 -2.3044  0.3198  1.5265
  666MOL0     H87905  10.590   9.400   1.635  2.9881  2.2918 -0.4123
  666MOL0     H87906  10.430   9.659   1.575 -0.5336 -0.0512 -1.5391
  666MOL0     H87907  10.451   9.520   1.477  2.2721 -0.3095 -1.6255
  666MOL0     H87908  10.593   9.731   1.424 -1.7914 -1.0431  0.6281
  666MOL0     H87909  10.670   9.711   1.574 -3.6295  2.4038  0.1432
  666MOL0     H87910  10.862   9.409   1.345 -0.4499 -0.6386 -1.9770
  666MOL0     H87911  10.184   9.501   1.903 -1.0259 -0.1693 -2.4813
  666MOL0     H87912  10.016   9.399   2.061 -0.2648  0.1777 -0.0439
  667MOL0     O87913   9.073   4.110   7.171 -0.3204 -0.4989 -0.3665
  667MOL0     C87914   9.119   4.112   7.282 -0.0185 -0.2013  0.7747
  667MOL0     O87915   9.071   4.190   7.385  0.7833 -0.3273  0.3513
  667MOL0     C87916   8.967   4.275   7.370 -0.3693 -0.0863  0.8254
  667MOL0     C87917   8.856   4.250   7.294  0.0480  0.1997  0.2134
  667MOL0     C87918   8.744   4.336   7.290  0.3649 -0.0850 -0.4499
  667MOL0     C87919   8.749   4.454   7.367  0.7361 -0.6587  0.2530
  667MOL0     O87920   8.658   4.554   7.347  1.0613 -0.1594 -0.1099
  667MOL0     C87921   8.624   4.644   7.456 -1.0221 -0.4534 -0.3004
  667MOL0     C87922   8.487   4.700   7.421  0.3045 -0.4996 -0.4973
  667MOL0     C87923   8.451   4.832   7.502 -0.0135 -0.5495  0.0959
  667MOL0     C87924   8.298   4.863   7.512 -0.0988  0.3613  0.2789
  667MOL0     C87925   8.284   4.996   7.581 -0.3397  0.0583 -0.4569
  667MOL0     C87926   8.144   5.037   7.599 -0.5234 -0.6820 -0.1581
  667MOL0     C87927   8.123   5.073   7.746 -0.2718 -0.0674 -0.4063
  667MOL0     C87928   7.983   5.124   7.775 -0.9289 -0.2970  0.0793
  667MOL0     N87929   7.946   5.253   7.706 -0.3882 -0.2734  0.5502
  667MOL0     C87930   7.899   5.264   7.577 -0.3106 -0.5070  1.1142
  667MOL0     C87931   7.913   5.395   7.540 -0.7369  0.7414 -0.3978
  667MOL0     C87932   7.872   5.462   7.405 -0.2786 -0.5341 -0.2348
  667MOL0     C87933   7.975   5.445   7.299 -0.5047  0.0323  0.3699
  667MOL0     C87934   7.908   5.421   7.166  0.4567  0.4131  0.4631
  667MOL0     C87935   8.015   5.398   7.061  0.5218 -1.1235 -0.4674
  667MOL0     O87936   7.970   5.459   6.935  0.6076 -0.5988  0.2690
  667MOL0     C87937   7.840   5.462   6.901  0.4408 -0.0282  0.9122
  667MOL0     C87938   7.766   5.583   6.897  0.3914  0.3599  0.7114
  667MOL0     C87939   7.628   5.579   6.847  0.1800  0.0704 -0.5877
  667MOL0     C87940   7.575   5.456   6.807  0.3086 -0.6398  1.3344
  667MOL0     C87941   7.430   5.448   6.769  0.4043 -0.4969 -0.1222
  667MOL0     O87942   7.387   5.336   6.710 -0.4689 -0.4203 -0.4269
  667MOL0     C87943   7.260   5.299   6.725 -0.1350  0.5166 -0.0586
  667MOL0     C87944   7.205   5.207   6.636  0.3308  0.0435 -0.7651
  667MOL0     C87945   7.071   5.172   6.652 -0.1041 -0.1619 -0.1523
  667MOL0     C87946   6.984   5.226   6.757 -0.2440 -0.1649 -0.3848
  667MOL0     O87947   6.851   5.193   6.754 -0.4675  0.4431 -0.9925
  667MOL0     C87948   6.834   5.082   6.841 -0.8939  0.0539  0.8104
  667MOL0     C87949   6.728   5.120   6.946  0.5998  0.7116 -0.3722
  667MOL0     C87950   6.584   5.081   6.906 -0.1792  0.0659 -0.8511
  667MOL0     C87951   6.495   5.171   6.992  0.2416  0.1827 -1.0878
  667MOL0     C87952   6.351   5.124   6.996  0.8458 -0.1099  0.3542
  667MOL0     C87953   6.292   5.100   6.855 -0.3627  1.1669  0.0449
  667MOL0     C87954   6.327   5.206   6.747 -0.3421 -0.1183  0.0384
  667MOL0     C87955   6.247   5.185   6.620 -0.2302 -0.6807 -0.3617
  667MOL0    Cl87956   6.070   5.164   6.610  0.1526 -0.4330  0.2210
  667MOL0     C87957   7.045   5.309   6.855  0.6412 -0.6423 -0.9965
  667MOL0     C87958   7.182   5.335   6.838  0.3153  0.6700 -0.1336
  667MOL0     O87959   7.356   5.549   6.786 -0.5908 -0.8360  0.1315
  667MOL0     C87960   7.651   5.340   6.813  0.1388  0.2957  0.0983
  667MOL0     C87961   7.776   5.344   6.868 -0.8443 -0.7934  0.1600
  667MOL0     N87962   7.948   5.465   7.653  0.1082  0.5814 -0.6039
  667MOL0     N87963   7.974   5.378   7.750 -0.8890  0.6085 -0.4306
  667MOL0     C87964   8.851   4.473   7.456  0.8125  0.3804 -0.4044
  667MOL0     C87965   8.962   4.384   7.459  0.1201  1.0743  0.2137
  667MOL0     C87966   9.234   4.026   7.321  0.2527  0.3211 -0.1832
  667MOL0     C87967   9.267   3.917   7.244  0.0938 -0.4166  0.6004
  667MOL0     C87968   9.374   3.835   7.285 -0.3527 -0.7467  0.4971
  667MOL0     C87969   9.448   3.870   7.396 -0.5141 -0.1362  0.3477
  667MOL0     O87970   9.549   3.791   7.443 -0.1112 -0.4012 -0.3522
  667MOL0     C87971   9.676   3.790   7.367  0.7197 -0.3591 -1.3613
  667MOL0     C87972   9.793   3.745   7.451 -0.2651  1.2412  0.0338
  667MOL0     C87973   9.804   3.596   7.469 -0.4465 -0.4224 -0.0141
  667MOL0     C87974   9.924   3.570   7.562 -0.6715  0.5224  0.2001
  667MOL0     C87975  10.051   3.607   7.493  0.8774  0.2917  0.2277
  667MOL0     C87976  10.145   3.637   7.429  1.1796  0.0570 -0.3752
  667MOL0     C87977   9.415   3.980   7.471 -0.1597 -0.1646  0.3810
  667MOL0     C87978   9.297   4.054   7.442  1.0498  0.2658  0.9373
  667MOL0     H87979   8.835   4.158   7.241  0.9326  0.3771 -0.4565
  667MOL0     H87980   8.663   4.306   7.225  0.7432 -1.6986 -0.2050
  667MOL0     H87981   8.687   4.733   7.463 -2.0183  0.1158  3.2340
  667MOL0     H87982   8.622   4.596   7.554  4.3012  1.7336  1.2367
  667MOL0     H87983   8.404   4.629   7.427  1.5259 -2.0065 -0.9049
  667MOL0     H87984   8.494   4.729   7.316  1.5240 -0.4998 -0.4300
  667MOL0     H87985   8.501   4.924   7.470 -1.2940  0.4266  0.8064
  667MOL0     H87986   8.494   4.822   7.602  2.8567  2.2441 -0.6832
  667MOL0     H87987   8.250   4.868   7.414  0.5890  2.2713 -0.0022
  667MOL0     H87988   8.255   4.781   7.571  1.6207 -1.7413 -1.2238
  667MOL0     H87989   8.331   5.071   7.517 -1.8527  2.3230  0.9420
  667MOL0     H87990   8.325   4.997   7.682 -1.0118  0.9564 -0.1809
  667MOL0     H87991   8.076   4.955   7.576 -1.7949 -0.0973  1.3128
  667MOL0     H87992   8.121   5.120   7.531 -4.3963 -1.0307  0.4903
  667MOL0     H87993   8.138   4.982   7.805  2.4960  0.3997 -0.2475
  667MOL0     H87994   8.205   5.137   7.782  2.3723 -2.1752 -2.2866
  667MOL0     H87995   7.979   5.143   7.882  0.6043 -0.3606  0.1728
  667MOL0     H87996   7.905   5.052   7.748 -1.6657  1.4131 -2.8585
  667MOL0     H87997   7.868   5.181   7.514 -0.9743  0.5747 -0.0086
  667MOL0     H87998   7.884   5.565   7.439 -0.5110 -0.7871  0.6529
  667MOL0     H87999   7.767   5.451   7.377 -0.5838  1.8780 -0.2391
  667MOL0     H88000   8.040   5.361   7.326  0.1552  0.5975  0.5604
  667MOL0     H88001   8.039   5.534   7.293 -2.0729  1.0893 -1.7248
  667MOL0     H88002   7.848   5.330   7.163  0.1370  0.6020  0.9357
  667MOL0     H88003   7.850   5.507   7.132 -1.4830 -1.3912 -1.0633
  667MOL0     H88004   8.028   5.290   7.056 -1.4794 -1.3550 -1.8486
  667MOL0     H88005   8.098   5.462   7.092 -0.2248 -0.2485 -0.2231
  667MOL0     H88006   7.816   5.668   6.942  1.4191  1.0113 -1.4912
  667MOL0     H88007   7.577   5.675   6.843 -1.8099 -0.7660  2.0036
  667MOL0     H88008   7.274   5.160   6.567 -0.4960  0.6555 -2.0453
  667MOL0     H88009   7.030   5.101   6.581 -0.3129 -1.1573  0.9304
  667MOL0     H88010   6.919   5.043   6.897 -0.2148 -0.5805 -0.6144
  667MOL0     H88011   6.803   4.998   6.778  0.2241 -0.0452  0.3631
  667MOL0     H88012   6.736   5.227   6.964  1.0388  0.8057 -1.0961
  667MOL0     H88013   6.762   5.065   7.035  0.9745  1.4983 -0.0266
  667MOL0     H88014   6.558   4.978   6.935 -1.3218  1.2974  3.1549
  667MOL0     H88015   6.570   5.089   6.798  2.2834  1.8036 -1.1235
  667MOL0     H88016   6.531   5.181   7.095  2.3001  0.5398 -1.7999
  667MOL0     H88017   6.505   5.268   6.941  2.3773  0.3103 -0.5098
  667MOL0     H88018   6.285   5.205   7.028 -0.8244 -0.6482 -1.5093
  667MOL0     H88019   6.335   5.040   7.064  0.8913  1.1950  2.0737
  667MOL0     H88020   6.184   5.089   6.868 -0.2577  0.2831  0.2094
  667MOL0     H88021   6.327   5.001   6.825  0.1157  1.1339  0.7071
  667MOL0     H88022   6.303   5.300   6.798 -2.0310 -0.2694 -0.4114
  667MOL0     H88023   6.433   5.209   6.724 -0.4058 -0.6396 -0.3179
  667MOL0     H88024   6.303   5.101   6.579 -0.9538 -1.4780  0.2607
  667MOL0     H88025   6.277   5.273   6.562  1.2356 -1.1503 -0.3580
  667MOL0     H88026   6.981   5.360   6.926  0.4888 -2.2174  0.0488
  667MOL0     H88027   7.227   5.398   6.913  1.4133  0.3405 -0.4849
  667MOL0     H88028   7.602   5.246   6.790 -1.2227  0.6622  1.3425
  667MOL0     H88029   7.835   5.253   6.874 -0.3058 -0.4694 -0.1041
  667MOL0     H88030   8.870   4.571   7.499  1.6180  0.7632 -1.6002
  667MOL0     H88031   9.053   4.394   7.517 -0.2032  1.2937  0.6865
  667MOL0     H88032   9.192   3.894   7.168 -2.6289  1.8135  2.4231
  667MOL0     H88033   9.414   3.752   7.226  1.9875  0.3008  0.4830
  667MOL0     H88034   9.676   3.895   7.335 -3.4060  0.8037  1.6045
  667MOL0     H88035   9.664   3.731   7.276  1.8871 -2.2884 -0.3239
  667MOL0     H88036   9.885   3.774   7.400  1.0686 -6.1517 -3.0805
  667MOL0     H88037   9.787   3.795   7.549  3.1487 -0.7769  1.4629
  667MOL0     H88038   9.832   3.551   7.373  2.3617  1.2234 -0.0603
  667MOL0     H88039   9.715   3.545   7.506  0.9151 -0.8869  2.8857
  667MOL0     H88040   9.918   3.625   7.657 -2.1036 -1.4411  1.3245
  667MOL0     H88041   9.952   3.469   7.595 -1.8744  0.7095  1.9754
  667MOL0     H88042  10.233   3.669   7.377  1.0960  0.1884 -0.4381
  667MOL0     H88043   9.477   3.999   7.557 -3.1353  1.6129  2.2939
  667MOL0     H88044   9.265   4.135   7.508  1.3392  0.7106  0.5424
  668MOL0     O88045   1.741   3.233   7.714  0.1479  0.0021 -0.2870
  668MOL0     C88046   1.785   3.291   7.813 -0.2290  0.9009 -0.4526
  668MOL0     O88047   1.910   3.279   7.866 -0.3547 -0.0759 -0.4662
  668MOL0     C88048   2.010   3.196   7.820  0.4788  1.3145  0.2049
  668MOL0     C88049   2.143   3.231   7.847  0.9338 -0.3760 -0.4258
  668MOL0     C88050   2.256   3.165   7.791  0.5226  0.7744  0.9985
  668MOL0     C88051   2.227   3.036   7.730 -0.3453 -0.5785 -0.3152
  668MOL0     O88052   2.345   2.978   7.696 -0.2004  0.6567  0.5376
  668MOL0     C88053   2.349   2.903   7.578 -0.7141 -0.1884  1.0462
  668MOL0     C88054   2.489   2.885   7.512  0.1129  0.7961 -0.1605
  668MOL0     C88055   2.570   3.010   7.545  0.7926  0.8722  0.7082
  668MOL0     C88056   2.691   3.008   7.466 -0.1435  0.3221 -1.3241
  668MOL0     C88057   2.796   3.109   7.518 -0.0992  0.4890  0.5238
  668MOL0     C88058   2.914   3.105   7.424 -0.0315  0.2336 -0.1935
  668MOL0     C88059   3.017   3.222   7.461 -0.4041  0.1517 -0.4190
  668MOL0     C88060   3.073   3.216   7.609 -1.1064 -0.4849 -0.0297
  668MOL0     N88061   3.136   3.089   7.642  0.2959  0.5995  0.0512
  668MOL0     C88062   3.219   3.009   7.561  0.3222 -1.3106  0.1821
  668MOL0     C88063   3.261   2.906   7.638  1.1632 -0.0850 -0.4301
  668MOL0     C88064   3.346   2.786   7.594  0.4165 -0.0609 -0.1509
  668MOL0     C88065   3.494   2.820   7.578 -0.0126 -0.9077  0.4670
  668MOL0     C88066   3.590   2.698   7.581 -0.1908  0.6942  0.9520
  668MOL0     C88067   3.721   2.730   7.505 -0.4426 -0.0665 -0.7024
  668MOL0     O88068   3.798   2.830   7.575  0.8938  0.2043 -0.1663
  668MOL0     C88069   3.930   2.832   7.546  0.7088  0.2167  0.5184
  668MOL0     C88070   4.005   2.910   7.633  0.3142 -0.3347 -0.0869
  668MOL0     C88071   4.138   2.926   7.606 -0.8465 -0.0428  0.0176
  668MOL0     C88072   4.202   2.849   7.503  0.2928 -0.5661 -0.4893
  668MOL0     C88073   4.354   2.861   7.489  0.0930 -0.0220 -0.1591
  668MOL0     O88074   4.417   2.960   7.548 -0.1974 -0.7527  0.5394
  668MOL0     C88075   4.552   2.968   7.571  0.2509 -0.5586 -0.1805
  668MOL0     C88076   4.601   3.098   7.610  0.9740 -0.6021  0.3722
  668MOL0     C88077   4.734   3.118   7.653 -0.8823 -0.4235  0.3711
  668MOL0     C88078   4.831   3.010   7.636  0.3003 -0.1933 -0.1849
  668MOL0     O88079   4.962   3.035   7.672 -0.4490  0.5001  0.3066
  668MOL0     C88080   5.074   2.963   7.613 -0.1946 -0.3284 -0.3297
  668MOL0     C88081   5.200   3.023   7.670 -0.4161  1.1367 -0.4482
  668MOL0     C88082   5.325   2.937   7.634  0.4496 -0.1915 -0.4051
  668MOL0     C88083   5.442   3.000   7.711  0.0538  0.1505 -0.4547
  668MOL0     C88084   5.573   2.923   7.686 -0.3571 -0.4375 -0.2039
  668MOL0     C88085   5.667   3.005   7.775  0.1683  0.2548  0.7862
  668MOL0     C88086   5.809   2.949   7.746 -0.6119 -0.6926 -0.1883
  668MOL0     C88087   5.913   3.056   7.730 -0.8096 -1.0521 -0.8261
  668MOL0    Cl88088   5.886   3.136   7.579  0.0475 -0.2361  0.5065
  668MOL0     C88089   4.782   2.880   7.611 -0.2935  0.3664 -1.0634
  668MOL0     C88090   4.644   2.862   7.588 -0.4329 -0.0276  0.0964
  668MOL0     O88091   4.409   2.767   7.432  0.1423 -0.3491  0.2128
  668MOL0     C88092   4.132   2.756   7.430 -0.1778 -0.4275  0.5378
  668MOL0     C88093   3.991   2.759   7.449  0.5702  1.3240 -0.2810
  668MOL0     N88094   3.204   2.921   7.761 -0.5951 -0.0496  0.0995
  668MOL0     N88095   3.127   3.029   7.763  0.2169 -0.2180  0.5445
  668MOL0     C88096   2.099   2.989   7.728 -0.4891 -0.8931 -0.4138
  668MOL0     C88097   1.990   3.076   7.758 -0.7686 -0.1480 -0.4059
  668MOL0     C88098   1.688   3.370   7.889 -0.5019  0.5264  0.5335
  668MOL0     C88099   1.551   3.347   7.866 -0.4857 -0.2646  0.8565
  668MOL0     C88100   1.455   3.406   7.946  0.5534  0.2467 -1.2853
  668MOL0     C88101   1.500   3.494   8.049  0.5224  0.3530  0.7627
  668MOL0     O88102   1.398   3.536   8.135 -0.1469 -0.6545  0.7364
  668MOL0     C88103   1.424   3.524   8.274  0.1528  0.2294 -0.3713
  668MOL0     C88104   1.309   3.445   8.339 -0.0818  0.1422  0.0658
  668MOL0     C88105   1.174   3.505   8.299  1.0524 -0.5297  0.1873
  668MOL0     C88106   1.066   3.414   8.356 -0.3817 -0.7871 -0.5417
  668MOL0     C88107   0.939   3.454   8.290 -0.2486  0.3841 -0.3882
  668MOL0     C88108   0.841   3.454   8.224  0.6740 -0.0582 -0.0893
  668MOL0     C88109   1.634   3.526   8.069 -0.0401 -0.1906  1.5686
  668MOL0     C88110   1.730   3.465   7.986  0.0112 -0.0486  0.0749
  668MOL0     H88111   2.152   3.325   7.901 -1.3848 -1.1226  1.3898
  668MOL0     H88112   2.359   3.199   7.793  1.7276 -2.2314 -1.0675
  668MOL0     H88113   2.300   2.962   7.500 -1.5989  1.1834  2.5944
  668MOL0     H88114   2.300   2.806   7.587 -1.7169  0.1722 -0.2089
  668MOL0     H88115   2.479   2.880   7.404  3.3109  3.4349 -0.7065
  668MOL0     H88116   2.540   2.796   7.550  1.1702  0.6759 -1.7719
  668MOL0     H88117   2.598   3.004   7.650  3.6630  2.4494  0.1375
  668MOL0     H88118   2.514   3.102   7.525  3.8077  2.2307 -2.6505
  668MOL0     H88119   2.740   2.910   7.471 -0.6312  0.0113 -2.2886
  668MOL0     H88120   2.664   3.030   7.362  0.0343  2.0847 -1.0143
  668MOL0     H88121   2.833   3.071   7.614  0.3536 -1.4681 -0.3596
  668MOL0     H88122   2.754   3.209   7.525 -2.9691 -0.7068  1.8772
  668MOL0     H88123   2.882   3.114   7.320  0.1110  1.0623 -0.1708
  668MOL0     H88124   2.972   3.012   7.428  2.8918  1.6914 -3.7125
  668MOL0     H88125   3.094   3.215   7.384 -2.4297 -2.1658 -2.4333
  668MOL0     H88126   2.976   3.319   7.433 -1.2917  0.0254  0.4042
  668MOL0     H88127   3.002   3.246   7.687 -1.0639 -2.8817  1.0177
  668MOL0     H88128   3.160   3.283   7.608  0.0360 -1.8466  1.4493
  668MOL0     H88129   3.246   3.020   7.456  1.3399 -1.7354  0.3817
  668MOL0     H88130   3.313   2.719   7.514  0.8836  0.0055 -0.4076
  668MOL0     H88131   3.353   2.720   7.682  0.8242 -0.3254 -0.3773
  668MOL0     H88132   3.516   2.880   7.667 -1.2456  1.0049 -0.4438
  668MOL0     H88133   3.499   2.876   7.484  0.4618 -0.6981  0.6143
  668MOL0     H88134   3.617   2.675   7.685  0.6467  1.6177  0.9558
  668MOL0     H88135   3.541   2.611   7.536 -1.5667  0.7206  2.3135
  668MOL0     H88136   3.709   2.759   7.400  0.6327 -1.0409 -1.1209
  668MOL0     H88137   3.792   2.647   7.511  1.7923  1.3439 -4.1193
  668MOL0     H88138   3.952   2.967   7.709  1.6906 -1.2347  1.6242
  668MOL0     H88139   4.195   2.992   7.671  1.5701 -1.2715 -0.7174
  668MOL0     H88140   4.532   3.182   7.615 -0.7020 -1.8185 -1.2122
  668MOL0     H88141   4.767   3.215   7.687  0.8565 -0.8825  0.1110
  668MOL0     H88142   5.082   2.970   7.505 -1.3027  2.5498 -0.3090
  668MOL0     H88143   5.070   2.861   7.652  0.4068  0.4957  2.0762
  668MOL0     H88144   5.192   3.032   7.779  1.6841 -0.3057 -0.1216
  668MOL0     H88145   5.201   3.118   7.614 -3.1372  0.2276 -2.2259
  668MOL0     H88146   5.337   2.928   7.525  0.5566  1.8709 -0.6165
  668MOL0     H88147   5.305   2.837   7.671 -0.4838  0.2943  0.4408
  668MOL0     H88148   5.453   3.101   7.671  2.3090 -0.0006 -0.3666
  668MOL0     H88149   5.432   3.004   7.820  0.9508  1.0631 -0.3968
  668MOL0     H88150   5.602   2.917   7.581  0.0816 -1.3884 -0.0385
  668MOL0     H88151   5.561   2.819   7.718 -0.0189 -0.6706 -0.8354
  668MOL0     H88152   5.653   2.993   7.883  0.6212 -0.4415  0.7719
  668MOL0     H88153   5.672   3.109   7.741  0.4731 -0.1779 -0.5533
  668MOL0     H88154   5.837   2.884   7.830 -1.0859  1.4606  1.7420
  668MOL0     H88155   5.804   2.874   7.667 -0.3819  0.3870 -1.2531
  668MOL0     H88156   6.010   3.005   7.730 -0.8456 -1.1211 -0.8974
  668MOL0     H88157   5.910   3.122   7.817  0.7809 -1.0891 -0.7143
  668MOL0     H88158   4.849   2.799   7.636  2.3896  2.6192 -0.5107
  668MOL0     H88159   4.616   2.758   7.578  0.3563 -0.2561  0.2078
  668MOL0     H88160   4.184   2.702   7.352  1.2897  2.1780 -0.4164
  668MOL0     H88161   3.948   2.698   7.370  1.7459  0.8718 -0.5870
  668MOL0     H88162   2.077   2.889   7.692  0.7834 -1.2091 -0.3760
  668MOL0     H88163   1.889   3.040   7.740 -1.0346  0.7687 -0.8183
  668MOL0     H88164   1.509   3.284   7.789  0.5058  0.8987 -0.6969
  668MOL0     H88165   1.351   3.375   7.942  0.5107 -0.3081  1.6988
  668MOL0     H88166   1.422   3.619   8.327  0.4198  0.9664 -1.6422
  668MOL0     H88167   1.521   3.474   8.289  0.8829  1.1914 -1.6791
  668MOL0     H88168   1.304   3.346   8.293 -0.2455 -0.3724  1.1562
  668MOL0     H88169   1.322   3.431   8.447 -1.7907 -1.6794  0.0901
  668MOL0     H88170   1.160   3.518   8.192  1.0453 -0.2142  0.2274
  668MOL0     H88171   1.159   3.607   8.335 -3.1738 -0.2362 -1.8612
  668MOL0     H88172   1.084   3.308   8.333 -2.4938 -1.7032  1.5903
  668MOL0     H88173   1.052   3.426   8.463  3.9650 -2.9113  0.5030
  668MOL0     H88174   0.761   3.446   8.154  1.6103  1.7820 -1.4693
  668MOL0     H88175   1.672   3.582   8.154  1.2704  3.1677 -1.0063
  668MOL0     H88176   1.836   3.486   7.997  0.5667 -1.0593 -2.6493
  669MOL0     O88177   1.051   6.803   6.843 -0.1994  0.1143  0.3691
  669MOL0     C88178   1.128   6.900   6.834 -0.5012 -0.3880 -0.2193
  669MOL0     O88179   1.100   7.032   6.821  0.2070  0.6750  0.4116
  669MOL0     C88180   0.973   7.072   6.804  0.6910 -0.8829 -0.5649
  669MOL0     C88181   0.926   7.176   6.897 -0.8242 -0.1434 -0.6689
  669MOL0     C88182   0.802   7.232   6.888  0.8424  0.3256  0.5159
  669MOL0     C88183   0.712   7.184   6.792 -0.1459 -0.0595  0.8689
  669MOL0     O88184   0.586   7.238   6.798  0.0278  0.0688 -0.0258
  669MOL0     C88185   0.517   7.259   6.678 -0.9901 -0.7001 -0.5508
  669MOL0     C88186   0.403   7.348   6.741  0.2759 -0.9249 -0.0150
  669MOL0     C88187   0.288   7.355   6.633  0.3801 -0.5857 -0.4797
  669MOL0     C88188   0.176   7.437   6.690 -0.4062  0.3480 -0.3819
  669MOL0     C88189   0.059   7.416   6.601 -0.1949 -0.1789 -0.2950
  669MOL0     C88190  -0.060   7.495   6.657  0.2423  0.2171 -0.0405
  669MOL0     C88191  -0.044   7.644   6.639 -0.1435 -0.7688 -0.9531
  669MOL0     C88192  -0.068   7.690   6.489  0.1924 -0.0875 -0.3157
  669MOL0     N88193  -0.212   7.701   6.458  0.2468  0.0091 -1.3661
  669MOL0     C88194  -0.299   7.813   6.477 -0.3981  0.3525 -0.0087
  669MOL0     C88195  -0.409   7.780   6.414  0.5305 -0.3471  0.1859
  669MOL0     C88196  -0.538   7.851   6.425  0.4037 -0.2566  0.3045
  669MOL0     C88197  -0.601   7.827   6.563 -0.5307 -0.1826 -0.3000
  669MOL0     C88198  -0.726   7.912   6.595 -0.5985  0.3589  0.7067
  669MOL0     C88199  -0.838   7.917   6.487  0.4271  0.0310 -0.6533
  669MOL0     O88200  -0.947   8.001   6.530 -0.7904 -0.2803  0.5281
  669MOL0     C88201  -1.057   7.952   6.590  0.8127 -0.8603 -0.0883
  669MOL0     C88202  -1.181   8.019   6.569 -0.3485  0.4671 -1.0491
  669MOL0     C88203  -1.291   7.980   6.642  0.7389  0.2570 -0.5263
  669MOL0     C88204  -1.284   7.864   6.730 -0.0897 -0.5852  0.1297
  669MOL0     C88205  -1.390   7.813   6.811  0.8279 -0.2424 -0.4575
  669MOL0     O88206  -1.368   7.724   6.917 -0.3294  0.4278  0.3041
  669MOL0     C88207  -1.473   7.685   6.994  0.5055  0.6263  0.7111
  669MOL0     C88208  -1.560   7.578   6.954  0.2697 -0.8745  0.2655
  669MOL0     C88209  -1.667   7.544   7.041 -0.4783 -0.0356 -0.5516
  669MOL0     C88210  -1.689   7.612   7.161  0.0586 -0.0927  0.0711
  669MOL0     O88211  -1.782   7.579   7.261 -0.2918  0.0665  0.8219
  669MOL0     C88212  -1.786   7.441   7.281 -0.5703  0.3141  0.4392
  669MOL0     C88213  -1.903   7.378   7.209  0.1504  0.3364  0.7769
  669MOL0     C88214  -1.906   7.233   7.175  0.0269  0.3825  0.8319
  669MOL0     C88215  -1.904   7.140   7.294 -0.5262 -0.2390  0.4007
  669MOL0     C88216  -1.906   6.992   7.267 -0.3495  0.1716  0.8422
  669MOL0     C88217  -2.037   6.953   7.192  0.2020  0.3266 -0.6458
  669MOL0     C88218  -2.054   6.805   7.175 -0.2468  0.0816 -0.3100
  669MOL0     C88219  -2.182   6.763   7.102  0.3187 -0.9247  1.1878
  669MOL0    Cl88220  -2.331   6.829   7.188 -0.3563  0.1705  0.3721
  669MOL0     C88221  -1.600   7.716   7.194  0.2046  0.2540  0.0460
  669MOL0     C88222  -1.492   7.751   7.109 -0.5892  0.1639 -0.0034
  669MOL0     O88223  -1.499   7.860   6.782 -0.0571  0.3608  0.1189
  669MOL0     C88224  -1.155   7.803   6.744  0.6187 -0.7806 -0.5925
  669MOL0     C88225  -1.039   7.846   6.682  0.3457  0.1580  0.4188
  669MOL0     N88226  -0.401   7.651   6.372  0.2774 -0.4395 -0.1703
  669MOL0     N88227  -0.284   7.606   6.393 -0.1928  0.0375 -0.1666
  669MOL0     C88228   0.751   7.080   6.699  0.3687 -0.9504 -0.4813
  669MOL0     C88229   0.879   7.022   6.710  0.2336 -0.9747  0.6898
  669MOL0     C88230   1.264   6.865   6.863  0.5988 -0.5913 -0.3509
  669MOL0     C88231   1.353   6.972   6.882 -0.4917  0.3205 -0.6035
  669MOL0     C88232   1.481   6.938   6.897  0.3120 -0.1176 -0.3504
  669MOL0     C88233   1.531   6.803   6.917  0.2379  0.7357 -0.0507
  669MOL0     O88234   1.658   6.766   6.959 -0.4485  0.1737 -0.0906
  669MOL0     C88235   1.747   6.863   7.027  0.1423 -0.3045  0.3994
  669MOL0     C88236   1.864   6.791   7.088  0.6971 -0.5484 -0.1531
  669MOL0     C88237   1.954   6.881   7.178 -0.4081  0.3157 -0.9341
  669MOL0     C88238   2.109   6.851   7.161  1.7245 -0.5676 -0.5058
  669MOL0     C88239   2.190   6.965   7.201  0.2250 -0.4828 -1.0648
  669MOL0     C88240   2.256   7.065   7.233  0.4808 -0.1295 -0.8414
  669MOL0     C88241   1.440   6.710   6.922  0.4201  1.0808  0.2341
  669MOL0     C88242   1.303   6.739   6.895 -0.1894 -0.3897 -0.7273
  669MOL0     H88243   0.985   7.214   6.981 -2.7976 -3.0503  2.2828
  669MOL0     H88244   0.762   7.301   6.961 -2.4401  0.7946 -1.5111
  669MOL0     H88245   0.484   7.168   6.628 -3.1304 -1.3741  1.8523
  669MOL0     H88246   0.578   7.302   6.598  1.1641 -2.4506  0.0394
  669MOL0     H88247   0.436   7.447   6.772 -1.3303 -0.7118  1.1362
  669MOL0     H88248   0.351   7.304   6.828  1.5531 -0.0992  1.2062
  669MOL0     H88249   0.251   7.255   6.610  1.9083 -1.3636  0.2637
  669MOL0     H88250   0.331   7.407   6.547 -0.6841  0.7595 -0.2369
  669MOL0     H88251   0.157   7.395   6.789  1.2701 -0.9060 -0.5544
  669MOL0     H88252   0.203   7.541   6.710  0.9293 -0.3193  1.5091
  669MOL0     H88253   0.033   7.310   6.605  1.6042 -0.6353  2.6481
  669MOL0     H88254   0.084   7.451   6.500  0.3249  0.5829  0.0817
  669MOL0     H88255  -0.076   7.480   6.764 -2.6084  0.8377 -0.3159
  669MOL0     H88256  -0.154   7.461   6.615 -2.3335  0.3567  4.8629
  669MOL0     H88257  -0.114   7.689   6.709  0.3753  0.3446 -1.1304
  669MOL0     H88258   0.057   7.672   6.671 -0.1644  1.4714 -2.6212
  669MOL0     H88259  -0.020   7.637   6.407 -2.5200 -1.2351 -1.2920
  669MOL0     H88260  -0.025   7.791   6.488 -0.8036  0.3852  1.0335
  669MOL0     H88261  -0.277   7.909   6.523  1.5640 -0.3042  0.5423
  669MOL0     H88262  -0.604   7.814   6.346  0.9273 -0.5370 -0.0099
  669MOL0     H88263  -0.515   7.957   6.412  0.3333 -0.0837  1.4818
  669MOL0     H88264  -0.533   7.867   6.639 -0.3297  1.3052 -1.2284
  669MOL0     H88265  -0.617   7.720   6.582 -0.9722 -0.0274  0.2546
  669MOL0     H88266  -0.771   7.886   6.691  1.0332 -2.0138  0.9164
  669MOL0     H88267  -0.695   8.016   6.608  2.7065 -0.4047 -0.0873
  669MOL0     H88268  -0.881   7.823   6.452 -1.0777  1.0861 -1.8002
  669MOL0     H88269  -0.788   7.971   6.405 -1.9580  2.7303 -0.5045
  669MOL0     H88270  -1.169   8.115   6.520 -1.1035  2.4895  2.3566
  669MOL0     H88271  -1.373   8.051   6.646  0.5132  0.0328  4.0399
  669MOL0     H88272  -1.530   7.523   6.865  0.2041 -2.3572  1.1349
  669MOL0     H88273  -1.725   7.453   7.030  1.0011 -1.2017  0.7988
  669MOL0     H88274  -1.793   7.421   7.388  2.2707  0.1567  0.6783
  669MOL0     H88275  -1.692   7.398   7.246  0.1410  0.6412  1.8930
  669MOL0     H88276  -1.926   7.431   7.117  0.0571 -2.6383 -1.0496
  669MOL0     H88277  -1.993   7.379   7.273  1.6551 -1.3600  3.0966
  669MOL0     H88278  -1.813   7.211   7.121  0.2331 -0.4476  1.4946
  669MOL0     H88279  -1.993   7.200   7.118 -0.6049  2.2328  0.6632
  669MOL0     H88280  -1.824   7.164   7.363 -0.2752 -0.4838  0.1991
  669MOL0     H88281  -1.999   7.163   7.343 -0.7258  0.7060 -0.3895
  669MOL0     H88282  -1.895   6.932   7.358 -0.4506 -1.9841 -0.4916
  669MOL0     H88283  -1.823   6.966   7.200 -0.0252  4.7596 -0.8641
  669MOL0     H88284  -2.031   6.984   7.087  0.8481 -0.5817 -0.9008
  669MOL0     H88285  -2.131   6.992   7.231 -0.0885 -2.0993  1.3264
  669MOL0     H88286  -1.963   6.772   7.124 -0.3440  1.3103 -1.3366
  669MOL0     H88287  -2.064   6.745   7.266 -1.9242 -0.5888 -0.9018
  669MOL0     H88288  -2.182   6.654   7.094 -1.6452 -0.7895 -2.0300
  669MOL0     H88289  -2.195   6.802   7.001 -0.6991 -1.8439  0.9428
  669MOL0     H88290  -1.603   7.765   7.290  1.2390 -0.2739  0.3665
  669MOL0     H88291  -1.425   7.832   7.135 -0.6229  0.6215 -1.2685
  669MOL0     H88292  -1.130   7.724   6.814  3.8463  1.0498  0.5694
  669MOL0     H88293  -0.951   7.784   6.695 -0.1860 -0.5093  0.9303
  669MOL0     H88294   0.679   7.028   6.637 -3.0254  2.2981  0.3452
  669MOL0     H88295   0.910   6.936   6.652  2.5297  0.1024  0.1922
  669MOL0     H88296   1.319   7.075   6.868  0.2370  0.3762 -2.1558
  669MOL0     H88297   1.555   7.016   6.909  0.7376 -0.7326  1.3484
  669MOL0     H88298   1.700   6.921   7.107 -2.3705  1.4035 -2.1118
  669MOL0     H88299   1.791   6.931   6.954 -2.0120 -1.0810 -1.7646
  669MOL0     H88300   1.831   6.714   7.158  0.3413 -0.3493 -0.0951
  669MOL0     H88301   1.930   6.746   7.013 -0.0075  0.2182 -1.2652
  669MOL0     H88302   1.934   6.851   7.281 -1.2674 -0.7368 -1.3873
  669MOL0     H88303   1.937   6.988   7.160  2.0277  0.6103 -1.8871
  669MOL0     H88304   2.126   6.762   7.222 -0.7559 -0.4284  0.5041
  669MOL0     H88305   2.136   6.814   7.061 -2.1764  0.1478 -2.0185
  669MOL0     H88306   2.327   7.142   7.256  1.2636 -0.4941 -1.9747
  669MOL0     H88307   1.479   6.614   6.957  2.5051  1.5606 -0.6111
  669MOL0     H88308   1.243   6.649   6.903  0.7230 -1.1064 -1.7260
  670MOL0     O88309   1.728   6.142   5.754  0.4095  0.0796 -0.2451
  670MOL0     C88310   1.736   6.041   5.823 -0.7107 -0.7471 -0.5564
  670MOL0     O88311   1.643   5.941   5.835  0.4999  0.0660  0.1904
  670MOL0     C88312   1.524   5.954   5.772  0.7327  0.5196 -0.6759
  670MOL0     C88313   1.511   5.996   5.637 -0.3733  0.2843  0.3577
  670MOL0     C88314   1.389   5.970   5.574 -0.7187 -1.4301 -0.2426
  670MOL0     C88315   1.277   5.926   5.638  0.7967  0.4800 -0.2715
  670MOL0     O88316   1.153   5.913   5.577 -1.1002  0.6133 -0.0287
  670MOL0     C88317   1.128   5.984   5.458 -0.9892 -0.2323 -0.0155
  670MOL0     C88318   0.975   6.019   5.446  0.4170  0.0439  1.1777
  670MOL0     C88319   0.907   6.072   5.579 -0.3438 -0.9790  0.3708
  670MOL0     C88320   0.930   6.226   5.608  0.7579 -0.0822 -0.3822
  670MOL0     C88321   0.819   6.270   5.702  0.0700 -0.3762 -0.1561
  670MOL0     C88322   0.703   6.331   5.633  0.4498 -0.1615 -0.0655
  670MOL0     C88323   0.612   6.427   5.723  1.2458  0.6778  0.1694
  670MOL0     C88324   0.508   6.507   5.639  0.6858 -0.0359 -0.1562
  670MOL0     N88325   0.397   6.549   5.726  0.2176 -0.4278  0.1843
  670MOL0     C88326   0.411   6.641   5.825  1.3108  0.0823 -0.2624
  670MOL0     C88327   0.310   6.617   5.912  0.5305 -1.1785  0.3993
  670MOL0     C88328   0.283   6.677   6.052  0.6052  0.5244  0.1108
  670MOL0     C88329   0.207   6.582   6.151 -0.1246 -0.2584 -0.0399
  670MOL0     C88330   0.295   6.554   6.276 -0.7908  0.6989  0.3559
  670MOL0     C88331   0.409   6.460   6.224 -0.4553  0.1624  1.3676
  670MOL0     O88332   0.508   6.422   6.328 -0.3950  0.1688  0.5153
  670MOL0     C88333   0.632   6.365   6.292 -0.5807 -0.9497 -0.3441
  670MOL0     C88334   0.697   6.308   6.393 -0.8476 -0.0057  0.0839
  670MOL0     C88335   0.824   6.245   6.375  0.6748 -0.2146  0.8657
  670MOL0     C88336   0.895   6.272   6.254 -0.1605  0.5891 -0.5293
  670MOL0     C88337   1.036   6.234   6.235 -0.0796  0.3128 -0.0917
  670MOL0     O88338   1.115   6.295   6.144 -0.9156  0.2264 -0.0884
  670MOL0     C88339   1.248   6.274   6.138 -1.3181  0.5583 -0.4216
  670MOL0     C88340   1.299   6.233   6.020 -0.2629  0.0588 -0.2955
  670MOL0     C88341   1.438   6.227   5.998 -0.0845  0.5498 -0.4011
  670MOL0     C88342   1.522   6.249   6.106 -0.3618 -0.1552 -1.2675
  670MOL0     O88343   1.660   6.226   6.086  0.5258 -0.0056 -0.0222
  670MOL0     C88344   1.745   6.335   6.117 -0.5826 -0.1405 -0.0347
  670MOL0     C88345   1.811   6.322   6.255  1.0161 -1.2418 -0.0230
  670MOL0     C88346   1.897   6.200   6.260  0.1507  0.2065  0.0957
  670MOL0     C88347   1.924   6.162   6.408  0.4263  0.1104  0.5412
  670MOL0     C88348   2.061   6.207   6.437  0.2825 -0.1718 -0.6157
  670MOL0     C88349   2.066   6.352   6.486  0.4940 -0.1306 -0.5143
  670MOL0     C88350   2.187   6.440   6.457 -0.7008 -0.1523  0.1017
  670MOL0     C88351   2.314   6.369   6.495  0.6189 -0.2055  0.1530
  670MOL0    Cl88352   2.450   6.475   6.468  0.1762 -0.7521  0.2353
  670MOL0     C88353   1.469   6.275   6.228  0.1365 -0.6605 -0.5546
  670MOL0     C88354   1.332   6.290   6.243 -0.0592  0.1817 -0.4267
  670MOL0     O88355   1.064   6.138   6.304  0.0985 -0.8140 -0.2221
  670MOL0     C88356   0.833   6.353   6.151 -0.0412  0.8883  0.8884
  670MOL0     C88357   0.694   6.387   6.164  0.0694  0.9978 -0.1040
  670MOL0     N88358   0.230   6.522   5.854  0.8435  0.3540  0.6723
  670MOL0     N88359   0.278   6.484   5.745  0.2272  0.0001 -0.3212
  670MOL0     C88360   1.286   5.890   5.775 -0.1019 -0.3801 -0.2455
  670MOL0     C88361   1.413   5.903   5.840 -0.4127 -0.4338  0.5351
  670MOL0     C88362   1.865   6.016   5.899  1.1022 -0.1935 -0.0349
  670MOL0     C88363   1.870   5.901   5.990 -0.2129  0.2242  0.1289
  670MOL0     C88364   1.980   5.886   6.074  0.0632  0.5963 -0.2525
  670MOL0     C88365   2.090   5.971   6.071 -0.0660 -0.2263 -0.3285
  670MOL0     O88366   2.198   5.956   6.158  0.3270 -0.2820 -0.0098
  670MOL0     C88367   2.216   5.833   6.225 -0.1834  0.1859 -0.8988
  670MOL0     C88368   2.282   5.714   6.150  0.3344 -1.1788  0.4190
  670MOL0     C88369   2.318   5.600   6.251  0.3396 -0.4367  0.2866
  670MOL0     C88370   2.466   5.572   6.270  0.2461  0.5251  0.4759
  670MOL0     C88371   2.527   5.690   6.325  0.1055 -0.4528  0.0062
  670MOL0     C88372   2.569   5.794   6.370  0.7777  0.4566  0.4188
  670MOL0     C88373   2.089   6.075   5.974  1.0453 -0.1825 -0.4938
  670MOL0     C88374   1.967   6.101   5.906 -0.5774 -1.3464 -0.9387
  670MOL0     H88375   1.592   6.033   5.575 -0.2488 -2.7608 -1.5174
  670MOL0     H88376   1.397   5.985   5.467  0.0071 -1.0998 -0.1460
  670MOL0     H88377   1.151   5.914   5.376  1.8708  0.2133  0.3160
  670MOL0     H88378   1.189   6.074   5.448 -0.0869 -0.8610 -0.2985
  670MOL0     H88379   0.918   5.928   5.424 -1.7008  1.5834 -0.0634
  670MOL0     H88380   0.963   6.083   5.358  0.8355 -1.3627  0.0433
  670MOL0     H88381   0.954   6.023   5.664 -0.0347  0.5099  1.0950
  670MOL0     H88382   0.800   6.057   5.566 -0.4215  1.4093 -3.9993
  670MOL0     H88383   1.029   6.238   5.654 -0.4636  3.1030  1.7413
  670MOL0     H88384   0.931   6.291   5.520  0.9584  0.8710  0.3070
  670MOL0     H88385   0.861   6.353   5.761 -1.2886  0.3462 -0.1847
  670MOL0     H88386   0.802   6.193   5.778  0.4521 -0.4505 -0.1400
  670MOL0     H88387   0.632   6.255   5.599 -2.6778  2.3553  0.3598
  670MOL0     H88388   0.732   6.387   5.544 -0.1341 -1.9013 -1.3954
  670MOL0     H88389   0.557   6.382   5.806 -0.9229 -1.0341 -2.0158
  670MOL0     H88390   0.671   6.508   5.765  0.9130  0.7176  0.5608
  670MOL0     H88391   0.459   6.443   5.565 -1.6210  0.4151  0.8918
  670MOL0     H88392   0.556   6.585   5.580  1.6574 -0.3168  0.2422
  670MOL0     H88393   0.486   6.719   5.833 -0.2761  1.8286 -1.3427
  670MOL0     H88394   0.231   6.773   6.044 -2.7606 -1.2726 -2.5162
  670MOL0     H88395   0.381   6.696   6.095  0.8730 -0.8650  0.1688
  670MOL0     H88396   0.180   6.486   6.107  1.3247 -0.7178  0.0267
  670MOL0     H88397   0.113   6.630   6.181 -0.8309 -1.5561 -0.1280
  670MOL0     H88398   0.335   6.649   6.313 -4.2248  1.9415  1.3318
  670MOL0     H88399   0.237   6.510   6.358  0.9099 -0.0514  1.2131
  670MOL0     H88400   0.453   6.499   6.132  1.3484 -0.3534  1.9776
  670MOL0     H88401   0.363   6.368   6.187 -2.0770  1.6000 -0.4492
  670MOL0     H88402   0.647   6.290   6.488 -2.0213  0.1442 -0.4819
  670MOL0     H88403   0.871   6.186   6.452  1.4569 -2.3961 -1.1579
  670MOL0     H88404   1.225   6.209   5.943  2.3242 -1.8018 -2.3800
  670MOL0     H88405   1.486   6.189   5.908  1.8291 -0.9852  1.1624
  670MOL0     H88406   1.701   6.436   6.115 -0.5119 -0.1263 -1.6117
  670MOL0     H88407   1.821   6.328   6.039 -0.2194  2.9059 -0.0854
  670MOL0     H88408   1.732   6.317   6.330  1.6222  1.7486  0.9731
  670MOL0     H88409   1.868   6.413   6.279  0.0960 -1.3708  3.1582
  670MOL0     H88410   1.987   6.215   6.199 -1.0861  0.2024 -1.8388
  670MOL0     H88411   1.842   6.118   6.213  0.6949  1.7503 -3.5752
  670MOL0     H88412   1.850   6.204   6.476 -0.3882  0.3509 -0.4627
  670MOL0     H88413   1.934   6.055   6.426  2.0185 -0.2282 -1.7624
  670MOL0     H88414   2.129   6.182   6.355 -0.7268 -0.0712 -1.5075
  670MOL0     H88415   2.099   6.145   6.518  1.7833  1.3479 -0.0960
  670MOL0     H88416   2.045   6.340   6.593  2.2780  0.4033 -0.0795
  670MOL0     H88417   1.976   6.406   6.454 -0.9214 -1.8880  0.2729
  670MOL0     H88418   2.202   6.468   6.352  1.6349  0.6186  0.5810
  670MOL0     H88419   2.171   6.533   6.513 -1.6478  1.7747 -3.0713
  670MOL0     H88420   2.326   6.279   6.434 -0.8582  0.4935 -1.2664
  670MOL0     H88421   2.311   6.343   6.601  0.5886  1.1576  0.4989
  670MOL0     H88422   1.527   6.272   6.320 -1.0800  0.3373  0.2895
  670MOL0     H88423   1.296   6.315   6.343 -0.0384 -0.6697 -0.2036
  670MOL0     H88424   0.893   6.394   6.070  1.5531  0.9452  2.0473
  670MOL0     H88425   0.650   6.456   6.093 -0.3620  1.0919  0.2452
  670MOL0     H88426   1.200   5.836   5.814 -0.7498 -0.5103 -1.7697
  670MOL0     H88427   1.427   5.869   5.942 -0.0441  1.2263  1.0653
  670MOL0     H88428   1.787   5.831   5.987 -0.5973  0.6924 -0.4352
  670MOL0     H88429   1.984   5.791   6.127 -1.9555  0.9278  0.5839
  670MOL0     H88430   2.121   5.795   6.262  0.9702 -2.1995 -0.1951
  670MOL0     H88431   2.269   5.858   6.317 -2.1824  0.5153  0.2270
  670MOL0     H88432   2.206   5.685   6.077 -1.4834 -0.6760  2.0466
  670MOL0     H88433   2.364   5.759   6.092  0.1119 -1.6243 -0.2565
  670MOL0     H88434   2.280   5.514   6.195  0.7303 -0.1020 -0.5116
  670MOL0     H88435   2.264   5.604   6.346  0.5013 -0.1696  0.3690
  670MOL0     H88436   2.483   5.485   6.335  2.3628  2.0806  2.1257
  670MOL0     H88437   2.510   5.551   6.172 -1.2984  0.7412 -0.2937
  670MOL0     H88438   2.601   5.886   6.415  3.0349 -0.3196  0.5368
  670MOL0     H88439   2.173   6.142   5.962 -0.9997  2.9076  1.2652
  670MOL0     H88440   1.965   6.198   5.858  3.6737  0.1030  1.3043
  671MOL0     O88441   3.933   2.523   8.677  0.4319  0.2991  0.1466
  671MOL0     C88442   3.951   2.403   8.668  0.3882  0.2486 -0.7674
  671MOL0     O88443   3.867   2.314   8.600  0.0061 -0.4780  0.1606
  671MOL0     C88444   3.729   2.329   8.582  0.3562  0.4631 -0.3104
  671MOL0     C88445   3.652   2.268   8.484 -0.2927 -0.4717 -0.2341
  671MOL0     C88446   3.513   2.295   8.468 -1.2923  0.8242 -0.0140
  671MOL0     C88447   3.443   2.376   8.554 -0.4962  0.9304  0.1652
  671MOL0     O88448   3.311   2.401   8.537  0.0498  0.5858  0.3220
  671MOL0     C88449   3.229   2.453   8.646  0.8466  0.3570  0.1499
  671MOL0     C88450   3.090   2.384   8.645  0.2317 -0.1232 -0.1414
  671MOL0     C88451   3.003   2.393   8.517  1.0255 -0.3880 -0.0490
  671MOL0     C88452   2.966   2.538   8.482 -0.0561 -1.1288  0.3910
  671MOL0     C88453   2.907   2.547   8.341 -1.4190 -0.5467  0.0017
  671MOL0     C88454   2.788   2.645   8.341 -1.0754  1.1235  0.3482
  671MOL0     C88455   2.764   2.673   8.194  0.7522 -0.5701 -0.1351
  671MOL0     C88456   2.638   2.748   8.171 -0.3736 -0.7770 -0.5967
  671MOL0     N88457   2.523   2.670   8.218  0.0892 -0.1325  0.6985
  671MOL0     C88458   2.460   2.569   8.160  0.4872  0.2742  0.3044
  671MOL0     C88459   2.341   2.554   8.222  0.2902 -0.1261  0.4104
  671MOL0     C88460   2.228   2.459   8.192 -0.0060  0.3996  0.2527
  671MOL0     C88461   2.109   2.443   8.281 -0.0785  0.2099 -0.0832
  671MOL0     C88462   2.014   2.563   8.284 -0.1742  0.0621 -0.4092
  671MOL0     C88463   1.900   2.566   8.391  0.5878  0.2273 -0.1735
  671MOL0     O88464   1.830   2.443   8.404 -0.3342  0.4984 -0.2318
  671MOL0     C88465   1.719   2.427   8.476 -0.2994 -0.5534  0.0946
  671MOL0     C88466   1.619   2.328   8.449 -0.2967 -0.1273 -0.0424
  671MOL0     C88467   1.498   2.322   8.511 -0.4537  0.2937 -0.4731
  671MOL0     C88468   1.472   2.407   8.623  0.2096  0.2697  0.7596
  671MOL0     C88469   1.340   2.399   8.684  1.3821 -0.0374  0.1414
  671MOL0     O88470   1.313   2.480   8.796  0.8684  0.1116 -0.0202
  671MOL0     C88471   1.184   2.485   8.835  0.2719 -0.4674  0.6929
  671MOL0     C88472   1.155   2.427   8.956  0.6338  0.5404  0.1388
  671MOL0     C88473   1.021   2.429   9.013 -0.5230  1.0398 -0.5127
  671MOL0     C88474   0.921   2.486   8.936  0.3509 -0.6323 -0.1530
  671MOL0     O88475   0.790   2.476   8.974  1.0247  0.0196 -0.0546
  671MOL0     C88476   0.742   2.538   9.092  0.3083  0.4339 -0.0046
  671MOL0     C88477   0.595   2.535   9.086  0.8948  0.4616 -0.7734
  671MOL0     C88478   0.529   2.392   9.086  0.7567 -0.0412 -0.5133
  671MOL0     C88479   0.565   2.300   9.197 -0.5932 -0.1317 -0.1162
  671MOL0     C88480   0.497   2.345   9.327 -0.1010 -0.1234 -1.0744
  671MOL0     C88481   0.555   2.250   9.440 -0.0293 -0.6043  0.9544
  671MOL0     C88482   0.486   2.273   9.572 -0.1889  0.1670  0.0481
  671MOL0     C88483   0.348   2.214   9.576  0.0630 -0.5970  0.1410
  671MOL0    Cl88484   0.252   2.250   9.716 -0.8882  0.1529 -0.0935
  671MOL0     C88485   0.947   2.555   8.821 -0.7884  0.5650  0.4078
  671MOL0     C88486   1.077   2.556   8.766  0.4646 -0.4391  0.2541
  671MOL0     O88487   1.258   2.315   8.632 -1.7034 -0.3149 -0.2194
  671MOL0     C88488   1.559   2.512   8.655 -0.1497 -0.1535 -0.1521
  671MOL0     C88489   1.688   2.517   8.583  0.2074  0.8011  1.0505
  671MOL0     N88490   2.330   2.657   8.316 -0.3540 -0.1721 -0.5001
  671MOL0     N88491   2.443   2.723   8.318  0.2240  0.1024 -0.6912
  671MOL0     C88492   3.515   2.443   8.660 -0.0186  1.1219  0.4520
  671MOL0     C88493   3.659   2.418   8.663  0.4977  0.5341  0.4253
  671MOL0     C88494   4.073   2.354   8.716 -0.6195  0.5321  0.0287
  671MOL0     C88495   4.091   2.214   8.742  0.1280  0.0065 -0.0553
  671MOL0     C88496   4.221   2.165   8.780 -0.1482 -1.0615 -0.0246
  671MOL0     C88497   4.332   2.250   8.797  0.0642  0.2057 -0.2462
  671MOL0     O88498   4.458   2.208   8.842  0.9074 -0.2754  0.4985
  671MOL0     C88499   4.507   2.077   8.813 -1.0141  0.7971  1.1075
  671MOL0     C88500   4.613   2.101   8.705 -0.2909 -0.5322 -0.1173
  671MOL0     C88501   4.706   1.990   8.671  0.4191 -0.1806  0.3033
  671MOL0     C88502   4.827   2.035   8.577 -0.6750  0.3176  0.2264
  671MOL0     C88503   4.914   1.924   8.530 -0.1204  0.6373  0.0872
  671MOL0     C88504   4.969   1.829   8.479 -0.1146 -0.2609 -0.1147
  671MOL0     C88505   4.309   2.384   8.777  0.1497  0.0892  0.1555
  671MOL0     C88506   4.192   2.434   8.735 -0.1479  0.3199 -0.2264
  671MOL0     H88507   3.711   2.200   8.423  0.7115  1.4026 -1.4433
  671MOL0     H88508   3.462   2.239   8.390  0.7561  0.6506 -1.3253
  671MOL0     H88509   3.229   2.562   8.644  3.4857  0.4098 -0.9853
  671MOL0     H88510   3.267   2.421   8.744 -0.6789 -2.9630 -0.2157
  671MOL0     H88511   3.032   2.422   8.729  2.0175  1.9458  0.2559
  671MOL0     H88512   3.110   2.280   8.672  1.6597  0.7452  2.5902
  671MOL0     H88513   2.914   2.331   8.531  0.5240  0.8160  2.6866
  671MOL0     H88514   3.065   2.348   8.439  1.7305  0.2596  0.1246
  671MOL0     H88515   2.890   2.564   8.555  1.2625 -0.1309  1.4667
  671MOL0     H88516   3.053   2.604   8.491  0.3107 -1.2893 -1.4252
  671MOL0     H88517   2.864   2.451   8.311 -0.0820 -0.6976 -1.6030
  671MOL0     H88518   2.977   2.565   8.259 -0.9502 -0.0444  0.5056
  671MOL0     H88519   2.789   2.739   8.398  0.9996  1.0605  0.4952
  671MOL0     H88520   2.711   2.592   8.397  1.5359  0.7674  4.0558
  671MOL0     H88521   2.856   2.713   8.151  0.6911  2.2951  2.0908
  671MOL0     H88522   2.747   2.582   8.135  0.9870  0.1519 -1.3551
  671MOL0     H88523   2.616   2.773   8.067 -2.2482 -1.1223 -0.3287
  671MOL0     H88524   2.632   2.844   8.224 -1.1552 -0.7318 -0.7535
  671MOL0     H88525   2.496   2.521   8.070 -2.2375 -1.0886 -0.1634
  671MOL0     H88526   2.280   2.362   8.187  0.5041  0.6724  0.2117
  671MOL0     H88527   2.182   2.472   8.093 -0.5110  1.7996  0.6594
  671MOL0     H88528   2.153   2.433   8.381 -1.9477  0.2655  0.7774
  671MOL0     H88529   2.042   2.363   8.249 -1.0420  2.0591 -3.1709
  671MOL0     H88530   2.079   2.649   8.302  1.3219 -1.2125  0.5895
  671MOL0     H88531   1.970   2.571   8.184  3.0179  1.6978 -1.7922
  671MOL0     H88532   1.829   2.637   8.348 -1.7617 -1.2665  1.0519
  671MOL0     H88533   1.949   2.601   8.482  2.1413 -0.4459 -0.7125
  671MOL0     H88534   1.638   2.251   8.376  1.9813  0.5301 -0.2073
  671MOL0     H88535   1.436   2.238   8.481  0.1783 -0.6918  0.8750
  671MOL0     H88536   1.230   2.378   9.017 -0.4953  3.0157  3.8879
  671MOL0     H88537   0.998   2.385   9.109  1.8771  3.2349  1.2006
  671MOL0     H88538   0.769   2.643   9.107 -1.3605  0.9725 -0.6258
  671MOL0     H88539   0.784   2.491   9.182  0.1195  1.2363  0.5136
  671MOL0     H88540   0.552   2.590   9.001 -0.6112  0.9227  0.2444
  671MOL0     H88541   0.569   2.584   9.180 -0.5040 -1.3506 -0.1609
  671MOL0     H88542   0.555   2.347   8.989  0.8684  0.1922 -0.5917
  671MOL0     H88543   0.421   2.411   9.081  0.8886  0.4871 -3.6643
  671MOL0     H88544   0.524   2.204   9.163  0.2547 -0.5329 -0.0151
  671MOL0     H88545   0.674   2.293   9.202 -0.4451  2.1258  1.5279
  671MOL0     H88546   0.389   2.345   9.314  0.0051 -2.1589 -2.3570
  671MOL0     H88547   0.523   2.448   9.356 -4.3832  1.0221 -0.6653
  671MOL0     H88548   0.661   2.274   9.438  0.1876 -1.0485 -3.6285
  671MOL0     H88549   0.531   2.149   9.408 -1.3143  1.0169 -4.2118
  671MOL0     H88550   0.542   2.223   9.651 -0.1844 -0.1720 -0.1654
  671MOL0     H88551   0.479   2.378   9.601  0.6418 -0.5979  3.4985
  671MOL0     H88552   0.355   2.105   9.578 -0.5259 -0.6299  0.9325
  671MOL0     H88553   0.294   2.231   9.482  0.6433  1.7727  0.1530
  671MOL0     H88554   0.869   2.599   8.760 -2.0835  1.8099  2.8558
  671MOL0     H88555   1.094   2.600   8.669 -1.6204 -1.9049 -0.8435
  671MOL0     H88556   1.534   2.580   8.735  0.5886 -2.0288  1.7747
  671MOL0     H88557   1.753   2.600   8.610 -3.9022  4.5236  0.7030
  671MOL0     H88558   3.474   2.512   8.733 -1.7704 -0.5773  1.1642
  671MOL0     H88559   3.706   2.475   8.743  1.9908  2.7748 -1.9128
  671MOL0     H88560   4.012   2.140   8.750  2.0129 -2.2475 -1.0290
  671MOL0     H88561   4.228   2.058   8.797 -3.0061 -1.3403 -0.0505
  671MOL0     H88562   4.436   2.005   8.772  0.1659  0.3759 -0.2703
  671MOL0     H88563   4.564   2.039   8.898 -2.0539 -0.1787  1.3791
  671MOL0     H88564   4.567   2.148   8.618 -1.4974 -0.0505  0.7623
  671MOL0     H88565   4.680   2.174   8.751 -1.3884 -0.8485  2.1316
  671MOL0     H88566   4.664   1.903   8.620  0.0105  0.0622  0.2269
  671MOL0     H88567   4.746   1.958   8.768 -0.5809  2.8149  1.8297
  671MOL0     H88568   4.780   2.079   8.489  0.6087  1.3023  0.0109
  671MOL0     H88569   4.896   2.108   8.618  1.5857 -2.0730  0.9992
  671MOL0     H88570   5.023   1.743   8.445 -1.4684 -2.3701  2.7220
  671MOL0     H88571   4.396   2.450   8.777 -0.5159  0.9944  0.9971
  671MOL0     H88572   4.196   2.542   8.720  1.8885  0.2269 -0.5542
  672MOL0     O88573   9.704   4.832   2.909 -0.2314  0.5703 -0.3820
  672MOL0     C88574   9.728   4.839   2.784  0.8241  0.0287  0.9703
  672MOL0     O88575   9.831   4.903   2.714  0.7860  0.1935 -0.1160
  672MOL0     C88576   9.921   4.990   2.776  0.3666  0.3748  0.5299
  672MOL0     C88577  10.045   4.940   2.823  0.4172  0.1412  0.1879
  672MOL0     C88578  10.131   5.024   2.901 -0.5543 -0.1591  0.8950
  672MOL0     C88579  10.102   5.155   2.906 -0.2407  0.7316  0.3732
  672MOL0     O88580  10.193   5.230   2.980 -0.0766 -0.0368  0.0137
  672MOL0     C88581  10.302   5.293   2.907 -0.1089  0.2271 -0.0330
  672MOL0     C88582  10.259   5.409   2.823  0.0765 -0.3899 -0.3845
  672MOL0     C88583  10.233   5.539   2.904  0.8038  0.0994 -0.2001
  672MOL0     C88584  10.260   5.666   2.821  0.2232 -0.0145 -0.8103
  672MOL0     C88585  10.176   5.661   2.688  0.3907 -0.1410 -0.2398
  672MOL0     C88586  10.155   5.792   2.608 -0.1214  0.8556 -0.2153
  672MOL0     C88587  10.088   5.777   2.472  0.3636 -0.3859 -0.2947
  672MOL0     C88588   9.960   5.699   2.481 -0.4773 -1.0101  0.2260
  672MOL0     N88589   9.981   5.556   2.482 -0.2938  0.4083 -0.8310
  672MOL0     C88590  10.015   5.471   2.379  0.8869  0.2854 -0.1593
  672MOL0     C88591   9.987   5.352   2.433 -1.1363  0.0517  0.0280
  672MOL0     C88592   9.991   5.230   2.344 -1.0655 -0.6797  0.2377
  672MOL0     C88593   9.873   5.137   2.381 -0.1704  0.3939 -0.3962
  672MOL0     C88594   9.739   5.203   2.353  0.4546  0.1939  0.5255
  672MOL0     C88595   9.636   5.090   2.342 -0.4304 -0.4393 -0.6568
  672MOL0     O88596   9.599   5.055   2.212 -0.2531  0.5332  0.0907
  672MOL0     C88597   9.479   4.992   2.192  0.0012  0.5922 -0.1767
  672MOL0     C88598   9.447   4.983   2.051  0.4470  0.1337 -0.7520
  672MOL0     C88599   9.330   4.922   2.016  0.4174 -0.2895  0.0019
  672MOL0     C88600   9.234   4.869   2.107 -0.0694  1.0311 -0.3160
  672MOL0     C88601   9.107   4.806   2.077  0.1984 -0.6613 -0.7997
  672MOL0     O88602   9.072   4.795   1.945 -0.4496  0.1201  0.6991
  672MOL0     C88603   8.948   4.751   1.907  0.4588  1.2505 -0.9308
  672MOL0     C88604   8.884   4.806   1.789 -0.0386  0.0115 -0.8236
  672MOL0     C88605   8.766   4.751   1.744 -0.4630 -0.3551  0.1860
  672MOL0     C88606   8.708   4.644   1.799  0.5288 -0.2590  0.1045
  672MOL0     O88607   8.593   4.597   1.736  0.5682 -0.1277  0.3476
  672MOL0     C88608   8.524   4.482   1.793 -0.3227  1.0486  0.4201
  672MOL0     C88609   8.402   4.443   1.717  0.3453  0.4898 -0.2404
  672MOL0     C88610   8.303   4.556   1.717 -0.1791 -0.3784 -0.8422
  672MOL0     C88611   8.251   4.585   1.854 -0.6288 -0.0547 -0.1345
  672MOL0     C88612   8.102   4.603   1.882 -0.2879  0.1798 -0.0042
  672MOL0     C88613   8.076   4.666   2.019 -0.8858  0.6388 -0.9040
  672MOL0     C88614   7.926   4.653   2.065  0.2249 -0.5966 -0.5625
  672MOL0     C88615   7.902   4.692   2.210  0.1117  0.3866 -0.0458
  672MOL0    Cl88616   8.004   4.595   2.323 -0.2191 -0.6670 -0.1996
  672MOL0     C88617   8.773   4.584   1.914  0.3472  0.0433  0.6579
  672MOL0     C88618   8.896   4.637   1.959  1.0091  0.0331 -0.3848
  672MOL0     O88619   9.039   4.762   2.172  0.0123 -0.4822 -0.5206
  672MOL0     C88620   9.269   4.888   2.245 -0.9183  0.5289  0.0707
  672MOL0     C88621   9.384   4.949   2.283 -0.0633 -0.4451 -1.1610
  672MOL0     N88622   9.946   5.360   2.559 -0.4620 -0.4580 -0.2634
  672MOL0     N88623   9.933   5.480   2.590 -0.6606 -0.6715 -0.0269
  672MOL0     C88624   9.983   5.210   2.851 -0.9810 -0.1672  0.5715
  672MOL0     C88625   9.890   5.119   2.791  0.7170  0.6057 -0.6669
  672MOL0     C88626   9.636   4.767   2.703 -0.1939  0.1317 -0.2149
  672MOL0     C88627   9.671   4.737   2.567  0.6600  0.2692 -0.0393
  672MOL0     C88628   9.583   4.657   2.487  0.5531 -0.8711  0.3581
  672MOL0     C88629   9.463   4.609   2.543  0.4887  0.1451  0.2503
  672MOL0     O88630   9.384   4.527   2.480  0.1838  0.4900  0.6374
  672MOL0     C88631   9.400   4.497   2.334 -0.3953  1.4082 -0.7020
  672MOL0     C88632   9.258   4.467   2.280 -0.1103  0.4325 -0.1245
  672MOL0     C88633   9.196   4.333   2.338 -0.9761  0.4036 -0.1409
  672MOL0     C88634   9.286   4.220   2.377  0.2805 -0.1656  0.0647
  672MOL0     C88635   9.367   4.174   2.264 -0.1777  0.0835 -0.9182
  672MOL0     C88636   9.437   4.150   2.164  0.2331  0.2307  0.2331
  672MOL0     C88637   9.433   4.630   2.679  0.4300  0.4510 -1.2812
  672MOL0     C88638   9.516   4.710   2.760  0.5969  1.1736  0.7338
  672MOL0     H88639  10.066   4.835   2.809  0.7228  0.2608 -0.3017
  672MOL0     H88640  10.217   4.969   2.936 -0.7992 -0.9240  0.3114
  672MOL0     H88641  10.345   5.218   2.840 -1.7726 -0.5735 -0.2595
  672MOL0     H88642  10.379   5.335   2.972  1.7932 -1.2538 -1.2193
  672MOL0     H88643  10.166   5.380   2.773 -0.9851  2.7378 -0.4365
  672MOL0     H88644  10.336   5.418   2.745 -0.6130  4.1565 -0.8142
  672MOL0     H88645  10.309   5.570   2.976  3.4404  3.6274 -4.0133
  672MOL0     H88646  10.129   5.533   2.938  0.0507  0.4733 -2.2758
  672MOL0     H88647  10.249   5.763   2.870  2.3809  0.2541 -0.7591
  672MOL0     H88648  10.366   5.654   2.795  0.4474 -2.2772  0.8145
  672MOL0     H88649  10.082   5.624   2.730  0.3672  1.8880  1.6758
  672MOL0     H88650  10.208   5.588   2.613 -6.5585 -0.6873 -3.4670
  672MOL0     H88651  10.253   5.837   2.592  1.0772 -0.2799  3.0691
  672MOL0     H88652  10.097   5.857   2.675 -0.7706  1.3585 -1.2319
  672MOL0     H88653  10.066   5.877   2.433  0.5256  0.5369  1.8561
  672MOL0     H88654  10.158   5.732   2.401  1.2868 -1.9763  1.5551
  672MOL0     H88655   9.890   5.723   2.401  2.3615  0.7001 -1.9727
  672MOL0     H88656   9.913   5.731   2.574  1.0292  0.4743  0.5375
  672MOL0     H88657  10.059   5.489   2.281 -3.3499 -1.8783 -2.7634
  672MOL0     H88658  10.088   5.180   2.348 -0.2494  0.8816  0.5829
  672MOL0     H88659   9.969   5.255   2.240  0.9258 -3.2654 -0.9184
  672MOL0     H88660   9.883   5.111   2.487  2.1006  0.2903 -0.5750
  672MOL0     H88661   9.875   5.042   2.326 -3.0952 -1.0156  1.6540
  672MOL0     H88662   9.731   5.277   2.433  2.3437 -0.8825  1.8112
  672MOL0     H88663   9.749   5.259   2.260  0.1159 -0.8779 -0.1811
  672MOL0     H88664   9.544   5.129   2.388 -0.7709 -1.7878 -0.1382
  672MOL0     H88665   9.670   5.000   2.394 -0.1812  0.2697  0.4405
  672MOL0     H88666   9.518   5.025   1.980  0.0395  1.3549 -0.4626
  672MOL0     H88667   9.296   4.897   1.916  1.4411 -0.4430 -0.3181
  672MOL0     H88668   8.921   4.884   1.723 -1.4716 -1.0578 -2.9951
  672MOL0     H88669   8.713   4.781   1.654 -4.5904  1.9406  3.0532
  672MOL0     H88670   8.493   4.498   1.896 -0.5683  2.2762  0.1667
  672MOL0     H88671   8.595   4.398   1.799  1.8605  2.7477 -0.4128
  672MOL0     H88672   8.375   4.344   1.755  0.5444 -0.9662 -3.5202
  672MOL0     H88673   8.434   4.425   1.614  2.1466  1.0711  0.1699
  672MOL0     H88674   8.220   4.542   1.647  0.0443  2.4163 -1.8185
  672MOL0     H88675   8.358   4.641   1.677  2.4608 -1.9472 -0.7648
  672MOL0     H88676   8.291   4.520   1.932 -2.7953  1.4675  2.4265
  672MOL0     H88677   8.295   4.683   1.873  2.0197 -1.4085  1.3315
  672MOL0     H88678   8.052   4.508   1.859  6.1126 -3.7104 -0.3900
  672MOL0     H88679   8.055   4.670   1.809 -3.5983 -1.9024 -0.0198
  672MOL0     H88680   8.110   4.770   2.012 -0.0858  0.5169  0.6780
  672MOL0     H88681   8.148   4.626   2.091 -1.2490  4.0237  1.5841
  672MOL0     H88682   7.860   4.693   1.987  0.7033  0.0960 -0.6219
  672MOL0     H88683   7.910   4.545   2.064  0.8429 -0.7945  2.2824
  672MOL0     H88684   7.799   4.686   2.247  0.8304  0.8465  2.1862
  672MOL0     H88685   7.919   4.800   2.213  1.8818  0.1376 -0.0322
  672MOL0     H88686   8.730   4.499   1.966  0.6634 -0.8252 -0.4550
  672MOL0     H88687   8.944   4.577   2.036 -0.3550 -1.3112 -0.5364
  672MOL0     H88688   9.205   4.842   2.320  0.0219 -0.1378  0.4825
  672MOL0     H88689   9.402   4.960   2.389 -3.7076  3.4461 -0.6814
  672MOL0     H88690   9.961   5.315   2.864  1.7790  0.5008  0.6187
  672MOL0     H88691   9.794   5.156   2.756 -0.4227 -0.3253  1.3615
  672MOL0     H88692   9.761   4.772   2.518  1.8548 -0.8429  1.2773
  672MOL0     H88693   9.617   4.628   2.389 -3.5376 -0.9028 -1.2672
  672MOL0     H88694   9.478   4.424   2.311 -0.7107 -0.2157  2.7598
  672MOL0     H88695   9.420   4.590   2.279 -0.3441 -0.0290 -3.2495
  672MOL0     H88696   9.196   4.552   2.311  1.2088  1.4167 -0.0661
  672MOL0     H88697   9.243   4.474   2.172 -3.0585 -0.9266  0.0959
  672MOL0     H88698   9.114   4.294   2.277 -1.2625  2.9041 -1.4654
  672MOL0     H88699   9.147   4.367   2.429  1.1819 -0.5494  1.4785
  672MOL0     H88700   9.349   4.249   2.461 -0.5825  1.4228  0.1992
  672MOL0     H88701   9.217   4.139   2.401 -0.0869  0.9426  3.2096
  672MOL0     H88702   9.488   4.126   2.073 -1.4726  1.1558 -1.0324
  672MOL0     H88703   9.337   4.590   2.709  0.8169  1.1960  1.1475
  672MOL0     H88704   9.486   4.729   2.862  1.5530 -0.9885  1.4735
  673MOL0     O88705   2.352   1.196   1.282  0.6867 -0.1607  0.0845
  673MOL0     C88706   2.380   1.118   1.371  0.8244 -0.3436 -1.0822
  673MOL0     O88707   2.288   1.062   1.459  0.5339 -0.1599  0.2953
  673MOL0     C88708   2.163   1.126   1.486  0.5091  0.7424  1.1116
  673MOL0     C88709   2.134   1.261   1.455  0.6338  0.3106  0.1933
  673MOL0     C88710   2.008   1.302   1.479  0.3544 -0.7595  0.1542
  673MOL0     C88711   1.904   1.234   1.541 -0.2178 -0.9717  0.0032
  673MOL0     O88712   1.785   1.295   1.578  0.0359  0.1396 -0.8884
  673MOL0     C88713   1.690   1.333   1.481  0.2357 -0.0736  0.8137
  673MOL0     C88714   1.630   1.221   1.392  1.4711 -0.4344 -0.1001
  673MOL0     C88715   1.544   1.105   1.464 -0.7670 -0.6757 -1.0403
  673MOL0     C88716   1.438   1.148   1.566 -1.0380  0.6377 -0.0566
  673MOL0     C88717   1.383   1.028   1.640  0.5276 -0.3646  0.1941
  673MOL0     C88718   1.312   0.925   1.551 -0.8454 -0.4790  0.2878
  673MOL0     C88719   1.190   0.850   1.617 -1.3691  0.0441  0.4538
  673MOL0     C88720   1.072   0.945   1.631 -0.0122  0.1589  0.8414
  673MOL0     N88721   0.960   0.873   1.688 -0.1379  0.2080  0.5693
  673MOL0     C88722   0.846   0.843   1.619  0.3806  0.8370 -0.6918
  673MOL0     C88723   0.751   0.847   1.712 -1.1013  0.6024  0.0418
  673MOL0     C88724   0.602   0.834   1.693 -0.6283  0.4534  0.8152
  673MOL0     C88725   0.565   0.684   1.709  0.7353  0.8591 -0.1439
  673MOL0     C88726   0.534   0.648   1.852 -0.8598 -0.8209 -0.1853
  673MOL0     C88727   0.480   0.508   1.890  0.6952  0.6145 -0.1771
  673MOL0     O88728   0.342   0.481   1.846  1.0127 -0.5585 -0.3563
  673MOL0     C88729   0.231   0.535   1.906  1.4438  0.8358 -0.4959
  673MOL0     C88730   0.103   0.485   1.860 -0.2614 -0.5305 -0.1084
  673MOL0     C88731  -0.027   0.528   1.909 -0.0738 -0.3374  0.2083
  673MOL0     C88732  -0.032   0.629   2.006 -0.8250  0.2747  0.6376
  673MOL0     C88733  -0.152   0.679   2.074 -0.1651 -0.4156 -0.5876
  673MOL0     O88734  -0.266   0.646   2.017 -0.0273  0.4640  0.1066
  673MOL0     C88735  -0.388   0.673   2.074 -0.3833  0.0318  0.2898
  673MOL0     C88736  -0.482   0.773   2.031  0.0529  0.5817  0.4812
  673MOL0     C88737  -0.604   0.792   2.097 -0.6192  0.0484 -0.7468
  673MOL0     C88738  -0.632   0.725   2.214  0.9642 -0.2702 -0.8818
  673MOL0     O88739  -0.752   0.740   2.280 -0.3739  0.1551  0.0083
  673MOL0     C88740  -0.864   0.804   2.214 -0.5485  0.4655  0.3092
  673MOL0     C88741  -0.988   0.781   2.293 -0.6526 -0.4275 -0.9307
  673MOL0     C88742  -1.092   0.867   2.221  0.1682 -0.2803  0.2094
  673MOL0     C88743  -1.240   0.837   2.244  0.8366  0.3036  0.1633
  673MOL0     C88744  -1.338   0.943   2.204 -0.5716 -0.2709 -0.6081
  673MOL0     C88745  -1.486   0.889   2.185 -0.6435 -0.1950 -0.0309
  673MOL0     C88746  -1.598   0.985   2.147  0.7422 -0.6129 -0.8147
  673MOL0     C88747  -1.707   0.922   2.076 -0.2234  0.1366 -0.0788
  673MOL0    Cl88748  -1.761   0.775   2.159 -0.2452  0.0181  0.6346
  673MOL0     C88749  -0.534   0.644   2.272  0.2602 -0.4637 -0.3232
  673MOL0     C88750  -0.414   0.606   2.197 -1.0691  0.1633  0.1734
  673MOL0     O88751  -0.139   0.762   2.165 -0.0291  0.4260 -0.3034
  673MOL0     C88752   0.098   0.670   2.058  0.1438  0.3401 -0.3627
  673MOL0     C88753   0.224   0.631   2.010  0.3363  0.2902  0.0090
  673MOL0     N88754   0.806   0.877   1.832  0.4021 -0.4655 -0.4236
  673MOL0     N88755   0.935   0.889   1.819  0.7340 -0.3644  0.0273
  673MOL0     C88756   1.941   1.106   1.579 -0.1102  0.3226  0.0900
  673MOL0     C88757   2.068   1.047   1.548  0.0127 -0.4229 -1.3085
  673MOL0     C88758   2.520   1.080   1.384  1.0096 -0.2426 -0.2025
  673MOL0     C88759   2.559   1.006   1.496 -0.6482  0.0739 -0.1314
  673MOL0     C88760   2.703   0.987   1.519  0.0465 -1.0605  0.8920
  673MOL0     C88761   2.800   1.028   1.424  1.0853  0.2230 -0.8831
  673MOL0     O88762   2.935   1.018   1.427  1.1081  0.4377  0.0897
  673MOL0     C88763   2.988   0.947   1.535 -0.8138  0.6167 -0.6941
  673MOL0     C88764   3.006   1.046   1.656  0.2536 -0.5285 -0.7481
  673MOL0     C88765   3.043   0.966   1.780 -0.4659  0.0293 -0.9528
  673MOL0     C88766   3.191   0.937   1.796 -0.7774 -0.3206 -0.0856
  673MOL0     C88767   3.261   1.057   1.817  0.8018  0.5059 -0.4955
  673MOL0     C88768   3.316   1.155   1.858 -0.2171 -0.0229  0.8648
  673MOL0     C88769   2.753   1.096   1.311 -0.6350  0.4197 -0.2799
  673MOL0     C88770   2.621   1.120   1.297  0.2254 -1.0817 -0.1257
  673MOL0     H88771   2.208   1.324   1.406  2.6577 -2.1648 -0.1421
  673MOL0     H88772   1.990   1.406   1.452  1.1853 -0.4287  0.8165
  673MOL0     H88773   1.740   1.412   1.424  0.8862 -0.8556  0.2768
  673MOL0     H88774   1.608   1.382   1.533 -0.5797  1.6170 -1.8471
  673MOL0     H88775   1.712   1.175   1.336  2.3207 -0.5514  1.1842
  673MOL0     H88776   1.570   1.278   1.321  1.2239  0.6341  0.9276
  673MOL0     H88777   1.604   1.042   1.530 -2.0225  0.5611  1.4166
  673MOL0     H88778   1.504   1.043   1.383 -2.0136 -2.3967  0.7919
  673MOL0     H88779   1.477   1.223   1.635 -2.5737  0.4152  1.1020
  673MOL0     H88780   1.357   1.199   1.512 -2.0609 -0.5766  0.2711
  673MOL0     H88781   1.298   1.064   1.698  0.0997 -0.7930 -0.1644
  673MOL0     H88782   1.468   0.994   1.700 -0.7975  1.9755  3.7466
  673MOL0     H88783   1.375   0.841   1.520 -3.1862 -1.7508 -1.2923
  673MOL0     H88784   1.267   0.981   1.469  1.3484 -0.2368 -0.8227
  673MOL0     H88785   1.162   0.774   1.544  0.3300  0.5480 -0.7797
  673MOL0     H88786   1.203   0.813   1.719  0.4124 -1.1950 -0.1828
  673MOL0     H88787   1.049   1.003   1.542 -0.3069 -0.6007  0.4056
  673MOL0     H88788   1.094   1.019   1.709  1.1898 -0.7653  1.4125
  673MOL0     H88789   0.832   0.825   1.513  1.7528  0.5926 -0.8521
  673MOL0     H88790   0.571   0.867   1.594 -1.5134 -0.5812  0.7300
  673MOL0     H88791   0.535   0.889   1.759 -2.1941 -0.0437 -0.3233
  673MOL0     H88792   0.650   0.626   1.674  0.2394  0.6594 -1.0522
  673MOL0     H88793   0.473   0.651   1.660  1.8693 -4.4497  0.6493
  673MOL0     H88794   0.631   0.656   1.902  0.4053 -4.6501 -1.6411
  673MOL0     H88795   0.465   0.722   1.894  1.6938  1.5259  0.2107
  673MOL0     H88796   0.475   0.516   1.999 -2.3872  0.3902 -0.2136
  673MOL0     H88797   0.543   0.430   1.847  0.1533  1.6064 -3.0243
  673MOL0     H88798   0.107   0.410   1.781  4.1780 -0.7623  0.1000
  673MOL0     H88799  -0.113   0.480   1.863 -0.4863 -0.2503  0.8751
  673MOL0     H88800  -0.454   0.809   1.933 -1.0297  0.3952  0.0829
  673MOL0     H88801  -0.679   0.859   2.054 -0.9144 -0.0513 -0.3904
  673MOL0     H88802  -0.879   0.748   2.122  2.1843 -3.8037  2.1725
  673MOL0     H88803  -0.835   0.907   2.192  0.9188 -0.0801 -0.4245
  673MOL0     H88804  -0.994   0.801   2.400 -1.5518 -0.8584 -0.8879
  673MOL0     H88805  -1.018   0.676   2.286  0.5541 -0.8145 -0.5246
  673MOL0     H88806  -1.073   0.861   2.113  0.2197  1.3483  0.0994
  673MOL0     H88807  -1.084   0.968   2.263  0.6436  0.1453 -0.8639
  673MOL0     H88808  -1.260   0.753   2.178  1.7391  0.8245 -0.8116
  673MOL0     H88809  -1.260   0.811   2.348 -1.8151 -1.7544 -0.7345
  673MOL0     H88810  -1.300   0.994   2.115  1.4476  1.5862  1.2071
  673MOL0     H88811  -1.335   1.017   2.284  3.1547 -0.7816 -0.1198
  673MOL0     H88812  -1.518   0.830   2.271  2.0960 -1.0458  0.5127
  673MOL0     H88813  -1.481   0.825   2.097  0.2549  0.7407 -0.6892
  673MOL0     H88814  -1.632   1.019   2.245  0.4503 -1.8293 -0.4785
  673MOL0     H88815  -1.569   1.065   2.079 -2.0868  1.6280  0.4198
  673MOL0     H88816  -1.680   0.897   1.973  1.1801  0.2706  0.2297
  673MOL0     H88817  -1.796   0.985   2.076  0.4055  1.0537  0.2345
  673MOL0     H88818  -0.549   0.599   2.370 -4.1346  0.7300 -0.2300
  673MOL0     H88819  -0.338   0.543   2.243  1.5224  4.0554  1.7535
  673MOL0     H88820   0.107   0.729   2.149  0.5044 -0.7260  0.3112
  673MOL0     H88821   0.313   0.684   2.041  2.1957 -1.3571 -2.1641
  673MOL0     H88822   1.876   1.043   1.638 -2.6468  3.2401  0.6266
  673MOL0     H88823   2.095   0.954   1.597 -2.6376 -0.2454  0.7407
  673MOL0     H88824   2.489   0.970   1.570 -0.1384 -0.2216  0.2079
  673MOL0     H88825   2.735   0.928   1.604  0.0575  0.8051  2.2440
  673MOL0     H88826   3.091   0.915   1.518 -0.7651  0.0410  0.6000
  673MOL0     H88827   2.934   0.855   1.555  2.1396 -0.7671  1.9359
  673MOL0     H88828   3.086   1.119   1.646  0.0631  0.3556  2.9196
  673MOL0     H88829   2.909   1.096   1.663 -0.6583 -2.1485 -1.0150
  673MOL0     H88830   2.985   0.873   1.784 -0.9488  0.3497 -0.3751
  673MOL0     H88831   3.007   1.007   1.874  2.8119  1.7080 -0.2783
  673MOL0     H88832   3.210   0.868   1.878  0.7742  2.3716  1.9920
  673MOL0     H88833   3.227   0.909   1.696  1.1419  3.2863 -0.5576
  673MOL0     H88834   3.365   1.247   1.884  0.3169  0.1333 -0.6037
  673MOL0     H88835   2.837   1.139   1.258  1.3490 -2.3053  0.4131
  673MOL0     H88836   2.580   1.187   1.222  0.7193  0.7131  1.1262
  674MOL0     O88837  11.235   7.688   8.606 -0.1654  0.0832 -0.3240
  674MOL0     C88838  11.287   7.794   8.645  0.5734 -0.2629 -0.4478
  674MOL0     O88839  11.285   7.839   8.775  0.2313  0.2289  0.7324
  674MOL0     C88840  11.250   7.761   8.883  0.0818 -0.0257 -0.1225
  674MOL0     C88841  11.227   7.832   8.999 -0.0181  0.3091  0.0932
  674MOL0     C88842  11.173   7.771   9.107 -0.6906 -0.5578  0.1734
  674MOL0     C88843  11.145   7.634   9.108  0.2116 -0.6369 -0.1785
  674MOL0     O88844  11.089   7.581   9.217  0.5809 -0.5635  0.0521
  674MOL0     C88845  11.028   7.451   9.210 -0.0121 -0.1860 -0.2757
  674MOL0     C88846  10.929   7.445   9.325 -0.1842 -1.1407  0.0858
  674MOL0     C88847  10.990   7.462   9.466  0.5897 -0.0927  0.4579
  674MOL0     C88848  11.087   7.357   9.517 -0.1142  0.4470  0.1129
  674MOL0     C88849  11.148   7.392   9.662  0.4920  0.0381 -0.0148
  674MOL0     C88850  11.041   7.361   9.773  0.3881 -0.0241  0.0284
  674MOL0     C88851  11.092   7.395   9.910  0.3997 -0.3471  0.3124
  674MOL0     C88852  10.970   7.378  10.013 -0.5001 -0.3428  0.1428
  674MOL0     N88853  10.999   7.396  10.152 -0.1465  0.3782 -0.2848
  674MOL0     C88854  10.941   7.332  10.256 -0.6253 -0.4337 -0.9805
  674MOL0     C88855  10.995   7.398  10.366  0.3704  0.2453 -0.8880
  674MOL0     C88856  10.966   7.357  10.508  0.1668 -0.3499  0.1261
  674MOL0     C88857  10.833   7.297  10.534 -0.4374  0.3074  0.2191
  674MOL0     C88858  10.731   7.409  10.546  0.2163 -0.2772  0.1953
  674MOL0     C88859  10.600   7.347  10.596 -0.0802  0.2501 -0.2523
  674MOL0     O88860  10.607   7.330  10.740  0.3403 -0.1327 -0.1212
  674MOL0     C88861  10.498   7.270  10.802 -0.7320  0.3289 -0.1442
  674MOL0     C88862  10.368   7.250  10.743  0.0357  0.9597  0.1166
  674MOL0     C88863  10.271   7.179  10.817  0.3003 -1.0412  0.0629
  674MOL0     C88864  10.299   7.135  10.949  0.0631 -0.2965 -0.0450
  674MOL0     C88865  10.202   7.059  11.023 -0.2841  0.8802 -0.2220
  674MOL0     O88866  10.224   7.041  11.160  0.8730  0.2623  0.5769
  674MOL0     C88867  10.122   7.005  11.249 -1.1134 -1.2054  0.7768
  674MOL0     C88868  10.148   6.912  11.351  0.1537 -0.5224 -0.3582
  674MOL0     C88869  10.052   6.872  11.441  0.3951  0.5836  0.8154
  674MOL0     C88870   9.918   6.900  11.426  0.2212  0.5339 -0.1912
  674MOL0     O88871   9.818   6.853  11.503  0.0149  0.6487  0.0038
  674MOL0     C88872   9.796   6.703  11.496  0.8969 -0.5360 -0.1786
  674MOL0     C88873   9.880   6.642  11.607 -0.2196  0.0396  0.3756
  674MOL0     C88874   9.858   6.688  11.748 -0.2009  0.7396  0.6749
  674MOL0     C88875   9.909   6.587  11.845 -0.2345  0.5233  0.2302
  674MOL0     C88876   9.912   6.634  11.987  0.1427  0.3332  0.9942
  674MOL0     C88877  10.041   6.720  11.997  1.0724  0.0254 -1.4823
  674MOL0     C88878  10.067   6.762  12.146  0.5641 -0.1445  0.0201
  674MOL0     C88879  10.211   6.807  12.164  0.1191  0.4171 -0.5405
  674MOL0    Cl88880  10.244   6.858  12.334  0.5375 -0.1153  0.2566
  674MOL0     C88881   9.887   6.995  11.329 -0.9581 -0.2007  1.0947
  674MOL0     C88882   9.989   7.044  11.237  0.4307  0.2265  0.2760
  674MOL0     O88883  10.099   7.030  10.960  0.4749 -0.2261  0.0023
  674MOL0     C88884  10.426   7.162  11.009 -0.6272  1.0904 -0.2517
  674MOL0     C88885  10.520   7.229  10.935  0.3898  0.4663  0.9329
  674MOL0     N88886  11.085   7.484  10.329 -0.3984 -0.9168 -0.7710
  674MOL0     N88887  11.096   7.483  10.204 -0.3006  0.0712 -0.0445
  674MOL0     C88888  11.193   7.558   8.997 -1.0096  0.1693 -0.0971
  674MOL0     C88889  11.237   7.620   8.879  0.7113 -0.6997 -0.5823
  674MOL0     C88890  11.333   7.878   8.537 -0.4803 -0.3835  0.4468
  674MOL0     C88891  11.462   7.938   8.553 -0.1639  0.1786  0.6365
  674MOL0     C88892  11.509   8.031   8.461  0.4347  0.8720  0.7234
  674MOL0     C88893  11.430   8.059   8.349  0.4135 -0.1799 -0.4506
  674MOL0     O88894  11.470   8.162   8.279 -0.7352  0.0820  0.7796
  674MOL0     C88895  11.369   8.231   8.206  0.4552  0.0571 -0.3519
  674MOL0     C88896  11.411   8.373   8.163  0.1738 -0.4930 -0.2780
  674MOL0     C88897  11.521   8.348   8.054 -0.6454 -0.2891 -0.3084
  674MOL0     C88898  11.626   8.457   8.063  0.0691  0.3140  0.2851
  674MOL0     C88899  11.686   8.452   7.931  0.5775 -0.4081 -0.5439
  674MOL0     C88900  11.726   8.437   7.816 -0.0648 -0.6415 -0.3365
  674MOL0     C88901  11.314   7.992   8.321 -0.1131 -0.7747 -0.6228
  674MOL0     C88902  11.266   7.903   8.421  0.2165  0.2468 -0.7313
  674MOL0     H88903  11.245   7.939   8.999 -2.1536  0.7343  1.8433
  674MOL0     H88904  11.150   7.830   9.195 -1.2452 -0.2534 -0.1699
  674MOL0     H88905  11.104   7.373   9.223 -0.8506 -0.8231  0.9319
  674MOL0     H88906  10.981   7.436   9.112  0.7975  0.0082 -0.7038
  674MOL0     H88907  10.879   7.347   9.326  0.1947 -1.3753 -1.4555
  674MOL0     H88908  10.844   7.512   9.313  0.3953 -0.4052  0.0216
  674MOL0     H88909  10.907   7.480   9.536 -0.2949 -1.9488 -0.0609
  674MOL0     H88910  11.043   7.558   9.467 -0.3968  0.4771 -0.2015
  674MOL0     H88911  11.031   7.263   9.507 -2.0218  1.5535 -0.0201
  674MOL0     H88912  11.174   7.349   9.451 -0.8846  1.8878 -1.1362
  674MOL0     H88913  11.194   7.491   9.672 -0.2529  0.5261 -1.2428
  674MOL0     H88914  11.236   7.331   9.685 -0.5055 -0.3791  3.2890
  674MOL0     H88915  11.014   7.255   9.779  0.6926 -0.2609 -2.0540
  674MOL0     H88916  10.949   7.413   9.746  0.8928  1.1567  0.5035
  674MOL0     H88917  11.171   7.325   9.938 -0.0234 -0.0172  2.4930
  674MOL0     H88918  11.132   7.496   9.923  1.1484 -0.5794 -0.1119
  674MOL0     H88919  10.923   7.281   9.995  0.6315 -0.7422 -0.7337
  674MOL0     H88920  10.900   7.454   9.978  0.5040 -0.3012 -1.8952
  674MOL0     H88921  10.860   7.260  10.259 -3.4510  2.4888  2.2631
  674MOL0     H88922  10.980   7.441  10.576 -1.9227 -0.3013  0.5474
  674MOL0     H88923  11.043   7.282  10.530  0.0490 -0.7987 -0.9557
  674MOL0     H88924  10.850   7.259  10.635  1.0409  0.5380  0.0776
  674MOL0     H88925  10.792   7.225  10.462 -1.7498 -1.4309  2.5547
  674MOL0     H88926  10.754   7.489  10.616 -1.3881  0.3191  0.0789
  674MOL0     H88927  10.705   7.437  10.443 -1.7215 -0.8037  0.4956
  674MOL0     H88928  10.593   7.252  10.542  1.6232 -0.4487  0.6634
  674MOL0     H88929  10.513   7.410  10.577 -0.7795 -0.2639  1.1237
  674MOL0     H88930  10.349   7.272  10.638 -1.1221 -4.5280 -1.1567
  674MOL0     H88931  10.177   7.147  10.773  0.4381  2.4391 -3.3114
  674MOL0     H88932  10.253   6.885  11.351  0.7455  1.5753 -0.6081
  674MOL0     H88933  10.093   6.810  11.520 -2.0577 -0.0834  1.6414
  674MOL0     H88934   9.831   6.665  11.400  2.1874 -0.9617  0.4404
  674MOL0     H88935   9.690   6.677  11.499  0.8685 -1.0853 -3.1671
  674MOL0     H88936   9.985   6.659  11.579 -0.5913 -3.5921 -4.5372
  674MOL0     H88937   9.862   6.534  11.612 -1.7474  0.2649  0.0959
  674MOL0     H88938   9.753   6.709  11.773 -0.1363  1.0534  0.6945
  674MOL0     H88939   9.917   6.777  11.770 -0.8002  1.3062  0.0798
  674MOL0     H88940   9.838   6.504  11.837 -0.2660  0.7250 -2.1542
  674MOL0     H88941  10.003   6.542  11.811 -1.3205 -0.0433 -2.2619
  674MOL0     H88942   9.929   6.548  12.052 -1.7912 -2.8723 -2.3286
  674MOL0     H88943   9.819   6.679  12.021  0.6926  2.1330  0.2018
  674MOL0     H88944  10.029   6.816  11.945  0.2856  0.8368  0.1055
  674MOL0     H88945  10.122   6.666  11.948 -0.4253 -3.9536  0.0337
  674MOL0     H88946  10.002   6.839  12.189  1.1649  0.1703  0.3885
  674MOL0     H88947  10.030   6.679  12.207  0.4928  0.1258  0.3494
  674MOL0     H88948  10.243   6.894  12.105  2.0989 -0.7779 -1.2874
  674MOL0     H88949  10.272   6.724  12.129  0.1853 -1.5734  3.7115
  674MOL0     H88950   9.790   7.041  11.314 -1.2795 -1.6532 -2.0328
  674MOL0     H88951   9.960   7.123  11.169 -0.0481 -1.4917 -1.6042
  674MOL0     H88952  10.449   7.118  11.106  0.8369 -0.0674 -1.0930
  674MOL0     H88953  10.611   7.247  10.991  0.9616 -3.7796  1.6929
  674MOL0     H88954  11.197   7.451   9.018  1.0625  0.6605  2.6403
  674MOL0     H88955  11.272   7.552   8.802  1.6126  0.3880 -1.1652
  674MOL0     H88956  11.520   7.924   8.643  1.4013  2.3041  0.0313
  674MOL0     H88957  11.605   8.080   8.474 -0.4832  4.4801 -3.6842
  674MOL0     H88958  11.270   8.233   8.252  0.4235 -3.9159  0.1664
  674MOL0     H88959  11.346   8.172   8.116 -2.4854 -0.1283  0.4079
  674MOL0     H88960  11.333   8.442   8.128  0.1139 -0.3232  0.1776
  674MOL0     H88961  11.452   8.406   8.260 -0.2150 -1.2896  0.1663
  674MOL0     H88962  11.465   8.325   7.964 -1.5369 -1.2370  0.4731
  674MOL0     H88963  11.580   8.257   8.066  1.2503  0.9964  0.8429
  674MOL0     H88964  11.582   8.554   8.088  1.7640  1.9777 -2.6434
  674MOL0     H88965  11.713   8.447   8.129  0.4269  0.0941 -0.2220
  674MOL0     H88966  11.765   8.422   7.718 -1.0367  1.0384 -1.0285
  674MOL0     H88967  11.261   8.010   8.227 -0.4431 -1.5320 -0.5916
  674MOL0     H88968  11.187   7.831   8.402 -0.6172  1.4789 -2.1860
  675MOL0     O88969   9.044   4.957   3.925  1.0955 -0.0750 -0.3692
  675MOL0     C88970   9.110   4.911   3.837  0.0884 -0.4029  0.3265
  675MOL0     O88971   9.059   4.842   3.727  0.6552  0.1031  1.0764
  675MOL0     C88972   8.920   4.844   3.707 -0.6294  0.6339  0.2708
  675MOL0     C88973   8.873   4.937   3.612  0.2924 -0.5375 -0.8203
  675MOL0     C88974   8.730   4.933   3.598 -1.1466 -0.0839 -0.1228
  675MOL0     C88975   8.647   4.833   3.659 -0.5759 -0.4679  1.3437
  675MOL0     O88976   8.517   4.810   3.643  0.8409 -0.0242  0.3082
  675MOL0     C88977   8.462   4.847   3.516 -0.3164  0.3529  0.6079
  675MOL0     C88978   8.346   4.761   3.492  0.3607 -0.7619 -0.2818
  675MOL0     C88979   8.281   4.783   3.359  0.2042 -0.0221  0.6900
  675MOL0     C88980   8.202   4.922   3.366 -0.4206 -0.2592  0.0076
  675MOL0     C88981   8.110   4.945   3.245  0.2902  0.1525 -0.3422
  675MOL0     C88982   8.059   5.094   3.245 -0.4558 -0.3976  0.4386
  675MOL0     C88983   7.970   5.127   3.119 -0.3452  0.1489  0.5526
  675MOL0     C88984   7.834   5.083   3.120  0.2077 -0.3809  0.5007
  675MOL0     N88985   7.781   5.088   2.988  1.1524  0.0665 -0.0511
  675MOL0     C88986   7.801   4.995   2.889 -0.2494 -0.1886 -0.7575
  675MOL0     C88987   7.724   5.025   2.786 -0.2496 -0.5663 -0.9055
  675MOL0     C88988   7.731   4.973   2.650  0.0273  0.5382  0.6449
  675MOL0     C88989   7.598   4.955   2.575 -1.0813 -0.6999  0.8505
  675MOL0     C88990   7.510   4.842   2.634  0.1891 -0.1092 -0.0120
  675MOL0     C88991   7.562   4.700   2.632  0.0313  0.2979 -0.1054
  675MOL0     O88992   7.613   4.664   2.494 -0.2851 -0.2823 -0.4632
  675MOL0     C88993   7.550   4.564   2.430 -0.0829  0.4834  0.5730
  675MOL0     C88994   7.416   4.550   2.421 -0.0528  0.4268  0.8451
  675MOL0     C88995   7.354   4.446   2.352 -0.5676  0.1563  0.7063
  675MOL0     C88996   7.426   4.344   2.287  0.5129 -0.3172 -0.1560
  675MOL0     C88997   7.362   4.221   2.237  0.5143 -0.2970 -0.1565
  675MOL0     O88998   7.226   4.208   2.263 -0.2509 -0.4699 -0.0524
  675MOL0     C88999   7.141   4.116   2.212  0.3420 -0.9004  0.4044
  675MOL0     C89000   7.002   4.152   2.210  0.3388  0.1471 -0.6061
  675MOL0     C89001   6.899   4.064   2.162 -0.6762 -0.6109 -0.7695
  675MOL0     C89002   6.935   3.935   2.123 -0.2250 -0.3344 -0.0732
  675MOL0     O89003   6.840   3.851   2.068 -0.3778  0.2859  0.3683
  675MOL0     C89004   6.844   3.706   2.080 -0.0347 -0.6300  0.7769
  675MOL0     C89005   6.700   3.656   2.067  0.7053 -0.3613 -0.0793
  675MOL0     C89006   6.699   3.504   2.063 -0.4243  0.2343 -0.3465
  675MOL0     C89007   6.553   3.463   2.053  0.5527 -0.1545 -0.0267
  675MOL0     C89008   6.549   3.312   2.045 -0.1464  0.4943 -0.1214
  675MOL0     C89009   6.417   3.247   2.009  0.7928 -0.0637  0.1279
  675MOL0     C89010   6.298   3.300   2.095 -0.0062 -0.4255 -0.4677
  675MOL0     C89011   6.302   3.292   2.253  1.5949 -1.2533  0.8899
  675MOL0    Cl89012   6.367   3.141   2.322  0.1639 -0.3399  0.4475
  675MOL0     C89013   7.070   3.895   2.129 -0.0775 -0.4797  0.4159
  675MOL0     C89014   7.167   3.987   2.174 -0.1940 -0.2758  0.7126
  675MOL0     O89015   7.421   4.148   2.166  0.5154  0.3446  0.5961
  675MOL0     C89016   7.574   4.366   2.287 -0.2230 -0.1539  0.3166
  675MOL0     C89017   7.628   4.472   2.358 -1.2036  0.4157 -0.6530
  675MOL0     N89018   7.656   5.140   2.824  0.5488 -0.7065 -0.1286
  675MOL0     N89019   7.693   5.177   2.945  0.5839  0.1255 -1.0625
  675MOL0     C89020   8.708   4.742   3.748 -0.0167 -0.4089  0.3059
  675MOL0     C89021   8.839   4.753   3.774 -0.0942  0.5212 -0.3996
  675MOL0     C89022   9.250   4.935   3.846 -0.0395 -0.0592  0.0273
  675MOL0     C89023   9.334   4.894   3.736 -0.1954 -0.0737 -0.6170
  675MOL0     C89024   9.469   4.916   3.748  0.1463 -0.2189 -0.0933
  675MOL0     C89025   9.528   4.978   3.852 -0.7338 -0.1561  0.6414
  675MOL0     O89026   9.665   4.996   3.823 -0.1930  0.5755 -0.7177
  675MOL0     C89027   9.742   5.075   3.901 -0.8652 -0.4710 -0.4677
  675MOL0     C89028   9.885   5.094   3.837  0.2675 -0.4241  0.0184
  675MOL0     C89029   9.967   5.201   3.902 -1.0547  1.1026 -0.4707
  675MOL0     C89030   9.892   5.333   3.912  0.4597  0.7661  1.1492
  675MOL0     C89031   9.994   5.448   3.889  0.3145  0.0334 -0.4212
  675MOL0     C89032  10.074   5.534   3.866  0.2265 -0.4707  0.7752
  675MOL0     C89033   9.449   5.028   3.960  0.7602 -0.0041 -0.6754
  675MOL0     C89034   9.312   4.999   3.958 -0.2284 -0.0967  0.0136
  675MOL0     H89035   8.947   4.999   3.561  1.1600  0.4690  1.5311
  675MOL0     H89036   8.691   5.007   3.529 -0.4353  3.2038  2.7098
  675MOL0     H89037   8.536   4.820   3.440  0.2825 -3.3689  2.2637
  675MOL0     H89038   8.441   4.954   3.518 -0.5088  0.3176  0.5076
  675MOL0     H89039   8.282   4.780   3.579  1.3051  1.5899 -0.0539
  675MOL0     H89040   8.388   4.660   3.498  0.0130 -1.0175 -1.9010
  675MOL0     H89041   8.216   4.699   3.332  2.9191 -2.5369  1.3276
  675MOL0     H89042   8.356   4.777   3.279  0.0913 -1.1434  0.6552
  675MOL0     H89043   8.134   4.927   3.451  1.7772  2.7481  1.8112
  675MOL0     H89044   8.273   5.006   3.375  0.4079 -0.7933 -1.2263
  675MOL0     H89045   8.023   4.881   3.255  1.0831 -1.1632 -1.4773
  675MOL0     H89046   8.154   4.917   3.149 -1.0104  0.4540 -1.0506
  675MOL0     H89047   8.138   5.167   3.265 -2.3275  0.7591  4.8830
  675MOL0     H89048   8.000   5.109   3.336  1.0067  0.1814  1.3254
  675MOL0     H89049   7.980   5.236   3.117  0.7575  0.0546 -0.5336
  675MOL0     H89050   8.020   5.089   3.029 -0.2780 -0.0695  0.6810
  675MOL0     H89051   7.783   5.166   3.170 -2.6664 -1.9512  0.4135
  675MOL0     H89052   7.809   4.992   3.175 -0.4794 -1.3303 -1.3073
  675MOL0     H89053   7.861   4.906   2.881 -2.7309 -1.9032 -1.7151
  675MOL0     H89054   7.785   4.878   2.652 -1.2504 -0.2942 -1.2639
  675MOL0     H89055   7.787   5.043   2.588 -0.2354  0.0894 -0.1148
  675MOL0     H89056   7.605   4.941   2.466  1.5159 -3.5015  1.2093
  675MOL0     H89057   7.546   5.048   2.595 -3.1555 -2.2063  3.0543
  675MOL0     H89058   7.482   4.866   2.736  2.1288 -0.2922  0.6009
  675MOL0     H89059   7.417   4.842   2.575 -0.1521 -0.1588  0.5232
  675MOL0     H89060   7.482   4.633   2.666 -0.4040  1.7870  1.9631
  675MOL0     H89061   7.640   4.690   2.708  0.0527  0.3946 -0.1149
  675MOL0     H89062   7.349   4.618   2.473 -0.0489  1.7713 -0.8370
  675MOL0     H89063   7.246   4.436   2.358 -0.5168 -0.3986  0.8242
  675MOL0     H89064   6.976   4.236   2.273 -2.0416 -1.0823  0.1554
  675MOL0     H89065   6.794   4.090   2.149 -0.9003 -1.7829 -1.4568
  675MOL0     H89066   6.889   3.685   2.177 -1.5342 -2.0591  1.2033
  675MOL0     H89067   6.889   3.661   1.992  2.4552 -1.1396  2.2262
  675MOL0     H89068   6.657   3.693   1.973  2.0317 -2.6362 -1.6693
  675MOL0     H89069   6.641   3.696   2.150 -1.3732  1.0034 -2.0959
  675MOL0     H89070   6.745   3.459   2.151 -0.8228 -2.0677 -1.2368
  675MOL0     H89071   6.754   3.464   1.977  0.3329 -2.5970  1.3211
  675MOL0     H89072   6.508   3.495   2.147  0.6333 -1.2202  0.3858
  675MOL0     H89073   6.494   3.513   1.975  0.2382 -2.7057 -1.5108
  675MOL0     H89074   6.567   3.284   2.149  1.0981  0.2161 -0.3994
  675MOL0     H89075   6.623   3.269   1.977  0.7757 -0.9924  1.7116
  675MOL0     H89076   6.433   3.139   2.018  3.4054  0.2725  0.0910
  675MOL0     H89077   6.409   3.269   1.902  2.4443 -1.8451 -0.4134
  675MOL0     H89078   6.283   3.405   2.069 -3.3475 -0.8003 -0.3927
  675MOL0     H89079   6.205   3.255   2.059 -1.0599  1.2370  0.0900
  675MOL0     H89080   6.203   3.308   2.298  0.2646 -0.6872 -1.9812
  675MOL0     H89081   6.363   3.373   2.294 -1.8419  1.4187  1.2821
  675MOL0     H89082   7.098   3.795   2.096 -1.1796 -0.4872 -0.6153
  675MOL0     H89083   7.273   3.966   2.167  0.7579  4.0545 -1.1287
  675MOL0     H89084   7.644   4.295   2.244  2.5455  0.7576  3.0645
  675MOL0     H89085   7.736   4.476   2.364 -1.2072 -0.1770 -0.0663
  675MOL0     H89086   8.648   4.681   3.815  0.1002  0.7829  1.5333
  675MOL0     H89087   8.879   4.677   3.840  2.9798 -1.3533 -3.9931
  675MOL0     H89088   9.301   4.852   3.642  0.5217  0.2344 -1.0138
  675MOL0     H89089   9.521   4.899   3.654 -0.9338  1.5728 -1.0649
  675MOL0     H89090   9.751   5.043   4.005 -1.3774  0.1475 -0.2297
  675MOL0     H89091   9.696   5.171   3.924  1.1010  0.1339  1.3140
  675MOL0     H89092   9.942   5.000   3.841 -0.3786 -0.9777 -2.2687
  675MOL0     H89093   9.867   5.124   3.734 -2.1144 -1.2093  0.1416
  675MOL0     H89094  10.063   5.220   3.855 -0.5258 -1.2953 -0.4957
  675MOL0     H89095   9.998   5.157   3.997  1.5775 -0.8052 -2.1093
  675MOL0     H89096   9.823   5.341   3.828  0.1607 -1.8474  1.0549
  675MOL0     H89097   9.831   5.343   4.002 -2.0859  0.1738 -0.4084
  675MOL0     H89098  10.139   5.616   3.846 -1.7639  0.8526 -0.6038
  675MOL0     H89099   9.500   5.067   4.047 -2.5255  0.6263  1.1163
  675MOL0     H89100   9.250   5.055   4.028 -0.0109  2.1070 -1.4751
  676MOL0     O89101   8.326   6.253  10.753  0.1297 -0.0865  0.2910
  676MOL0     C89102   8.372   6.150  10.787  0.1426  0.3009  0.3100
  676MOL0     O89103   8.320   6.034  10.760  0.0725 -0.1238  0.0060
  676MOL0     C89104   8.222   6.007  10.669  0.3687 -0.4514  0.1661
  676MOL0     C89105   8.184   6.094  10.573 -0.8431 -0.5617  0.3815
  676MOL0     C89106   8.076   6.058  10.476 -0.3279  0.4610 -0.6704
  676MOL0     C89107   7.999   5.938  10.494  0.2065 -0.8369  0.5657
  676MOL0     O89108   7.893   5.897  10.415  0.1758 -0.0336 -0.7282
  676MOL0     C89109   7.851   5.970  10.300  0.8049  0.0509 -0.9104
  676MOL0     C89110   7.743   5.893  10.222 -0.3171  0.2807  0.0042
  676MOL0     C89111   7.600   5.924  10.275  0.1639  0.5426 -0.3384
  676MOL0     C89112   7.499   5.840  10.191 -1.2628  0.4364  0.5852
  676MOL0     C89113   7.375   5.817  10.271 -0.4612  0.0893 -0.3157
  676MOL0     C89114   7.268   5.737  10.183  0.0427  0.5841 -0.0218
  676MOL0     C89115   7.305   5.585  10.186  0.1124 -0.7793  0.6977
  676MOL0     C89116   7.206   5.499  10.103  0.0475  1.0742 -0.4699
  676MOL0     N89117   7.069   5.474  10.163  0.1730 -0.3462  0.6011
  676MOL0     C89118   7.030   5.471  10.291  0.9635  0.6488 -0.6850
  676MOL0     C89119   6.895   5.443  10.293 -0.4258 -0.1803  0.3033
  676MOL0     C89120   6.808   5.443  10.414  0.4937  0.7341  0.4713
  676MOL0     C89121   6.783   5.585  10.451 -0.6272 -0.3079  0.4522
  676MOL0     C89122   6.700   5.585  10.579 -1.1434 -0.8179  0.7314
  676MOL0     C89123   6.626   5.716  10.598  0.2204 -0.5538  0.4265
  676MOL0     O89124   6.599   5.730  10.735  0.4304  0.0583 -0.2537
  676MOL0     C89125   6.496   5.816  10.773 -0.2894  0.2654  0.1245
  676MOL0     C89126   6.426   5.794  10.893 -0.1710 -0.3706 -0.1409
  676MOL0     C89127   6.311   5.862  10.933 -1.2495 -0.5563  0.2423
  676MOL0     C89128   6.269   5.970  10.851 -0.7493 -0.0390  0.2121
  676MOL0     C89129   6.151   6.056  10.885 -0.1918 -0.4156  0.0872
  676MOL0     O89130   6.103   6.045  11.012  0.6285 -0.8891 -0.2804
  676MOL0     C89131   5.972   6.088  11.025 -0.7087 -0.0380 -0.5171
  676MOL0     C89132   5.939   6.221  11.056  0.1613 -0.3905 -0.5269
  676MOL0     C89133   5.809   6.252  11.091  0.3101 -1.1691  0.3450
  676MOL0     C89134   5.708   6.152  11.095  0.5805 -0.5063 -0.5745
  676MOL0     O89135   5.585   6.203  11.147 -0.5149  0.2565  0.0466
  676MOL0     C89136   5.484   6.103  11.187 -0.8854  0.7615 -0.3527
  676MOL0     C89137   5.353   6.174  11.215  0.3142 -0.1823 -0.7560
  676MOL0     C89138   5.237   6.082  11.189  0.0604  0.5215  0.8384
  676MOL0     C89139   5.098   6.136  11.230 -0.2986  0.1542  1.0036
  676MOL0     C89140   4.987   6.032  11.217 -0.0496 -1.4740  0.9026
  676MOL0     C89141   4.851   6.099  11.225  0.1116 -0.6185  0.4398
  676MOL0     C89142   4.733   6.001  11.211 -0.3358  0.1940  0.2257
  676MOL0     C89143   4.598   6.080  11.227  0.2189  0.5232 -0.9048
  676MOL0    Cl89144   4.565   6.120  11.405 -0.0418 -0.3296  0.1270
  676MOL0     C89145   5.743   6.017  11.073  0.2739  0.4098 -0.1949
  676MOL0     C89146   5.871   5.987  11.037 -0.1497 -0.2669  0.5187
  676MOL0     O89147   6.094   6.112  10.792  0.1433 -0.6914 -0.0832
  676MOL0     C89148   6.342   5.995  10.734  0.2867  0.4571  0.6104
  676MOL0     C89149   6.455   5.926  10.697 -0.5302  1.1526 -0.3244
  676MOL0     N89150   6.857   5.412  10.166 -0.0985 -0.0647  0.0988
  676MOL0     N89151   6.958   5.439  10.086  0.4052  0.3523 -0.2909
  676MOL0     C89152   8.044   5.850  10.593  0.6622 -0.5257  0.1595
  676MOL0     C89153   8.148   5.889  10.676  0.5336  0.2886 -0.0799
  676MOL0     C89154   8.492   6.156  10.866  0.7226  0.3742 -0.1458
  676MOL0     C89155   8.535   6.048  10.938  0.1812  0.4862  1.5663
  676MOL0     C89156   8.655   6.055  11.018 -0.1742  0.7564  0.2533
  676MOL0     C89157   8.723   6.174  11.032 -0.8685 -0.0149 -0.6205
  676MOL0     O89158   8.831   6.168  11.126  0.0896 -0.4044  0.1009
  676MOL0     C89159   8.940   6.260  11.104 -0.8790  0.7308  0.5273
  676MOL0     C89160   9.015   6.231  10.972 -0.6805 -0.0665  0.4389
  676MOL0     C89161   9.042   6.079  10.947 -0.5746  1.0840 -0.2045
  676MOL0     C89162   9.098   5.991  11.061 -0.0072 -0.0334  0.6308
  676MOL0     C89163   9.125   5.856  10.993 -0.3831  0.9376 -0.9638
  676MOL0     C89164   9.144   5.753  10.935 -0.3296  0.5464 -0.1336
  676MOL0     C89165   8.687   6.284  10.958  0.1594 -0.9630  0.4982
  676MOL0     C89166   8.569   6.269  10.877 -0.0318 -0.6669 -0.2524
  676MOL0     H89167   8.228   6.193  10.562 -4.5149  1.1172 -0.5610
  676MOL0     H89168   8.048   6.142  10.413 -0.1617  0.5005 -0.6927
  676MOL0     H89169   7.933   5.971  10.227  1.4914 -1.6746 -0.2160
  676MOL0     H89170   7.831   6.076  10.319 -0.4254 -0.2995 -0.1497
  676MOL0     H89171   7.771   5.787  10.223 -1.6929 -0.1347 -1.2686
  676MOL0     H89172   7.740   5.934  10.120 -0.6191 -0.2145 -0.1891
  676MOL0     H89173   7.571   6.028  10.264 -0.8068  0.2817 -0.2780
  676MOL0     H89174   7.594   5.898  10.381  2.4818 -0.2792 -0.3301
  676MOL0     H89175   7.475   5.895  10.099  1.2666  3.8967  1.7935
  676MOL0     H89176   7.547   5.745  10.164 -1.9640  0.0433  0.7002
  676MOL0     H89177   7.341   5.919  10.289 -2.7003 -0.4163 -1.3648
  676MOL0     H89178   7.389   5.755  10.361 -0.5990  1.2109  0.5017
  676MOL0     H89179   7.259   5.778  10.082 -0.4919 -0.7685 -0.5525
  676MOL0     H89180   7.168   5.755  10.224  0.1454  1.8810 -0.3041
  676MOL0     H89181   7.402   5.584  10.136 -0.0745 -1.6980  0.3318
  676MOL0     H89182   7.311   5.552  10.290 -2.9652  2.0832  2.0115
  676MOL0     H89183   7.249   5.399  10.089 -3.0486 -0.6912  1.3393
  676MOL0     H89184   7.191   5.548  10.007 -2.5474  2.2106  0.4141
  676MOL0     H89185   7.089   5.472  10.382 -1.2080  1.4319  0.8183
  676MOL0     H89186   6.855   5.393  10.498  1.5295  1.9637  0.6571
  676MOL0     H89187   6.710   5.401  10.390  0.5783  1.6622 -1.7529
  676MOL0     H89188   6.724   5.638  10.375 -1.8159  0.4793  1.8544
  676MOL0     H89189   6.879   5.637  10.460  0.1199 -1.0003 -2.4729
  676MOL0     H89190   6.629   5.501  10.583 -2.5861  0.3501  5.4486
  676MOL0     H89191   6.771   5.569  10.660 -2.2176 -0.5952  1.7333
  676MOL0     H89192   6.532   5.710  10.542 -0.0815 -0.9291  0.9618
  676MOL0     H89193   6.685   5.802  10.568  0.1040 -0.1599  1.2848
  676MOL0     H89194   6.464   5.709  10.949 -0.5788 -1.3924 -1.3730
  676MOL0     H89195   6.259   5.843  11.027  0.6970  5.5744  3.0814
  676MOL0     H89196   6.021   6.291  11.047  0.4246 -0.6990 -0.5723
  676MOL0     H89197   5.786   6.358  11.091  0.2336 -1.1810  1.2473
  676MOL0     H89198   5.521   6.061  11.281 -2.9906  1.1795  0.7286
  676MOL0     H89199   5.474   6.022  11.114 -0.4484  0.2019  0.1861
  676MOL0     H89200   5.346   6.274  11.170  2.1164  1.0083  1.3755
  676MOL0     H89201   5.360   6.195  11.322  1.0354 -0.5182 -0.7295
  676MOL0     H89202   5.247   5.995  11.254 -1.3935  0.6162  1.2120
  676MOL0     H89203   5.238   6.046  11.085 -0.5602  3.3438 -0.2579
  676MOL0     H89204   5.096   6.163  11.336 -2.8051 -0.4434  1.1585
  676MOL0     H89205   5.084   6.218  11.158 -0.1549 -1.2206 -0.6602
  676MOL0     H89206   4.995   5.955  11.295  0.6653 -2.1376  0.1967
  676MOL0     H89207   4.994   5.981  11.120  1.3397  2.8495 -1.5535
  676MOL0     H89208   4.847   6.174  11.145  0.1034  0.4316  1.3940
  676MOL0     H89209   4.843   6.154  11.319 -0.0374 -1.2955  0.8295
  676MOL0     H89210   4.735   5.963  11.108  0.9747  2.9301 -0.8481
  676MOL0     H89211   4.731   5.921  11.286 -1.3682 -0.5739 -0.5831
  676MOL0     H89212   4.523   6.009  11.190  0.5389 -0.9420  1.1461
  676MOL0     H89213   4.580   6.168  11.163 -1.3500 -0.1162 -1.4130
  676MOL0     H89214   5.660   5.946  11.077 -0.6267  1.1368 -3.4211
  676MOL0     H89215   5.903   5.888  11.006  0.2877 -0.4395  1.4829
  676MOL0     H89216   6.307   6.080  10.677 -0.3288 -0.9799 -1.2481
  676MOL0     H89217   6.511   5.955  10.609  1.5492  0.3088  0.6733
  676MOL0     H89218   7.984   5.766  10.628  1.1725  0.8043  4.8289
  676MOL0     H89219   8.175   5.818  10.754  1.0946  0.7015  0.1112
  676MOL0     H89220   8.488   5.951  10.925  0.7226 -0.1417  3.7945
  676MOL0     H89221   8.700   5.963  11.052 -0.9860  0.5824  0.8753
  676MOL0     H89222   9.011   6.250  11.186  0.9068 -2.3335 -1.1959
  676MOL0     H89223   8.919   6.367  11.104 -0.0393  0.9180  1.8399
  676MOL0     H89224   8.948   6.269  10.894  0.7166  4.5673  1.2003
  676MOL0     H89225   9.111   6.284  10.969 -0.5999 -0.1886  0.8197
  676MOL0     H89226   9.103   6.061  10.858 -2.5588 -0.6297 -1.3351
  676MOL0     H89227   8.941   6.039  10.931 -0.7622  1.3635  0.2677
  676MOL0     H89228   9.186   6.043  11.100 -1.1836  1.4186  1.4969
  676MOL0     H89229   9.025   5.981  11.142 -3.2191  0.8365 -1.9259
  676MOL0     H89230   9.152   5.653  10.899 -1.2008  0.1187  0.8351
  676MOL0     H89231   8.744   6.375  10.972  1.4402 -1.5474 -0.6765
  676MOL0     H89232   8.549   6.358  10.818  0.8061  0.9711  1.7878
  677MOL0     O89233   4.771   8.965   6.433  0.1276  0.0383 -0.0786
  677MOL0     C89234   4.730   8.970   6.549 -0.0891  0.3072  0.7652
  677MOL0     O89235   4.792   8.918   6.656  0.3191 -0.0508 -0.2287
  677MOL0     C89236   4.909   8.837   6.651  0.6657 -0.4812 -0.4280
  677MOL0     C89237   4.910   8.722   6.726 -0.0426 -1.0239  0.1247
  677MOL0     C89238   5.028   8.642   6.740 -0.1987 -0.1733 -0.4213
  677MOL0     C89239   5.152   8.686   6.679 -0.4032  0.2397  0.1994
  677MOL0     O89240   5.279   8.629   6.694  0.1744 -0.2237  0.4895
  677MOL0     C89241   5.304   8.551   6.809 -0.5503 -0.0315  0.1974
  677MOL0     C89242   5.335   8.406   6.760  0.4656  1.2599  0.8523
  677MOL0     C89243   5.213   8.351   6.692  0.1034  0.0910 -0.4791
  677MOL0     C89244   5.223   8.209   6.637 -0.7652  0.6460 -0.2301
  677MOL0     C89245   5.102   8.174   6.542  0.9219  0.1790 -0.7526
  677MOL0     C89246   4.958   8.183   6.609 -1.3590  0.3352 -0.0577
  677MOL0     C89247   4.960   8.121   6.747  0.6297 -0.7320 -0.0517
  677MOL0     C89248   4.822   8.118   6.800  0.5537 -0.5999  0.8155
  677MOL0     N89249   4.743   8.244   6.808 -0.6232 -0.3507 -1.3787
  677MOL0     C89250   4.656   8.294   6.719  0.4162  0.1034  0.0845
  677MOL0     C89251   4.628   8.429   6.757  0.0093  0.9273  0.4227
  677MOL0     C89252   4.529   8.519   6.685  0.4896  0.5008  0.4001
  677MOL0     C89253   4.465   8.636   6.765  1.6255 -0.9602  0.4591
  677MOL0     C89254   4.378   8.585   6.885 -0.2667 -0.7104  0.4015
  677MOL0     C89255   4.384   8.667   7.009  0.2887  0.2627 -0.9579
  677MOL0     O89256   4.345   8.805   6.988 -0.1679 -0.2038  0.5850
  677MOL0     C89257   4.209   8.823   6.980 -0.0629 -0.0657 -0.1851
  677MOL0     C89258   4.149   8.816   6.857  0.1061 -0.2408  0.5847
  677MOL0     C89259   4.013   8.850   6.841 -0.3206  0.3807 -0.3180
  677MOL0     C89260   3.936   8.887   6.952  0.0002  0.9156 -1.0507
  677MOL0     C89261   3.795   8.904   6.930  1.1137 -0.4430 -0.0947
  677MOL0     O89262   3.745   8.962   6.807  0.2872  0.1939 -0.1892
  677MOL0     C89263   3.617   8.941   6.748  0.3666  0.3265 -0.0920
  677MOL0     C89264   3.604   9.012   6.633 -0.4579  0.1508 -0.7670
  677MOL0     C89265   3.486   9.021   6.567  0.4350  0.4387  0.9032
  677MOL0     C89266   3.369   8.962   6.620  0.5982 -0.3564  0.2114
  677MOL0     O89267   3.240   8.955   6.567  0.1805 -0.0421  0.7363
  677MOL0     C89268   3.200   9.067   6.485 -0.4013 -0.0839  1.0483
  677MOL0     C89269   3.046   9.090   6.508 -0.3541  0.1131 -0.0550
  677MOL0     C89270   2.978   8.970   6.437 -1.1672  0.4948  0.0098
  677MOL0     C89271   2.825   8.992   6.432  0.3678  0.2639  1.1282
  677MOL0     C89272   2.758   8.862   6.380 -0.9804  0.5993  0.3999
  677MOL0     C89273   2.633   8.901   6.300 -0.1032  0.3741  0.1987
  677MOL0     C89274   2.563   8.772   6.245  0.1029  0.1217 -0.5112
  677MOL0     C89275   2.410   8.788   6.217 -0.1205 -0.0426 -0.5172
  677MOL0    Cl89276   2.390   8.938   6.138  0.2252  0.0861  0.6075
  677MOL0     C89277   3.390   8.871   6.719 -0.9241 -0.0926 -0.0671
  677MOL0     C89278   3.508   8.871   6.795 -0.2634  0.7999 -0.2649
  677MOL0     O89279   3.723   8.844   7.005 -0.0387  0.7357  0.2175
  677MOL0     C89280   3.997   8.905   7.079 -0.1739  0.0060 -0.0798
  677MOL0     C89281   4.136   8.875   7.086  0.4026 -1.2167  0.1024
  677MOL0     N89282   4.710   8.453   6.862  0.7496  0.1709  0.5358
  677MOL0     N89283   4.776   8.343   6.895  0.2177 -0.3946 -0.0961
  677MOL0     C89284   5.135   8.796   6.597 -0.4633  0.8877 -0.2033
  677MOL0     C89285   5.020   8.871   6.576 -0.0640 -1.1153  0.4408
  677MOL0     C89286   4.598   9.026   6.570 -0.4240 -0.0378 -0.0616
  677MOL0     C89287   4.536   9.001   6.695 -0.4319 -1.1221 -0.3532
  677MOL0     C89288   4.406   9.052   6.710  0.0152  0.2458  0.2402
  677MOL0     C89289   4.332   9.115   6.606 -0.3260 -0.7366  0.2258
  677MOL0     O89290   4.198   9.155   6.639  0.5383 -0.9032  0.1183
  677MOL0     C89291   4.103   9.163   6.534  0.7709 -1.1517 -0.3985
  677MOL0     C89292   3.957   9.168   6.585  0.6047 -0.0670 -0.6047
  677MOL0     C89293   3.939   9.313   6.642 -0.6084  0.1184  0.4613
  677MOL0     C89294   3.797   9.323   6.707 -0.9348 -0.3689  0.3045
  677MOL0     C89295   3.704   9.325   6.596  0.0444 -0.5327 -1.2518
  677MOL0     C89296   3.641   9.343   6.501 -0.4280 -0.3116 -0.6838
  677MOL0     C89297   4.399   9.146   6.484  0.5900 -0.9623  0.4191
  677MOL0     C89298   4.527   9.099   6.470 -0.2306 -0.1689  0.6781
  677MOL0     H89299   4.813   8.695   6.767  0.6143 -3.7926 -0.0139
  677MOL0     H89300   5.002   8.553   6.796 -0.7466  1.3488  1.8639
  677MOL0     H89301   5.221   8.548   6.880  0.1890 -2.5588  1.0462
  677MOL0     H89302   5.391   8.592   6.861  0.4763 -0.6871 -0.9593
  677MOL0     H89303   5.352   8.341   6.847 -1.7205  4.8489  4.3231
  677MOL0     H89304   5.420   8.399   6.692 -0.9733  0.6329 -0.9803
  677MOL0     H89305   5.178   8.413   6.609  3.0884 -2.2773 -3.8356
  677MOL0     H89306   5.139   8.349   6.772  1.7233  0.9164  1.1139
  677MOL0     H89307   5.320   8.200   6.587  1.2667 -1.4807  3.6212
  677MOL0     H89308   5.227   8.145   6.726 -0.4823  1.8923  0.6743
  677MOL0     H89309   5.123   8.069   6.516  0.5618 -0.3780  1.0599
  677MOL0     H89310   5.116   8.244   6.460  0.5320  0.5403 -0.5140
  677MOL0     H89311   4.883   8.134   6.546 -1.2268 -0.9423  0.7288
  677MOL0     H89312   4.939   8.290   6.621 -0.4274  0.3467  1.7080
  677MOL0     H89313   5.005   8.022   6.744  0.5728 -0.7417 -1.4641
  677MOL0     H89314   5.019   8.173   6.823  0.6573 -0.2264 -0.4069
  677MOL0     H89315   4.822   8.082   6.903 -1.6518  0.8682  1.4142
  677MOL0     H89316   4.764   8.052   6.734 -1.3036  2.6118 -1.0335
  677MOL0     H89317   4.613   8.240   6.635  0.9850  2.1074 -1.6067
  677MOL0     H89318   4.444   8.470   6.638 -1.5975  0.1599  4.1912
  677MOL0     H89319   4.572   8.576   6.602 -0.2803  0.4190 -0.0577
  677MOL0     H89320   4.403   8.693   6.696  0.5796 -1.3378  1.0665
  677MOL0     H89321   4.532   8.713   6.806 -0.3126 -0.8270  3.6869
  677MOL0     H89322   4.273   8.586   6.855  0.0253  0.9427 -0.7002
  677MOL0     H89323   4.397   8.478   6.902  0.1765 -0.4360  1.7685
  677MOL0     H89324   4.487   8.672   7.045  0.0924 -2.0797  0.0901
  677MOL0     H89325   4.312   8.620   7.077  0.8378  3.4687  2.1149
  677MOL0     H89326   4.211   8.791   6.772 -0.9187  2.9290 -1.2852
  677MOL0     H89327   3.977   8.834   6.740  0.1593 -1.2556 -0.2574
  677MOL0     H89328   3.693   9.054   6.586  1.2998 -0.7515  1.5566
  677MOL0     H89329   3.490   9.091   6.485  1.1649 -0.4169  0.1891
  677MOL0     H89330   3.220   9.054   6.378 -1.7544  0.2197  0.7442
  677MOL0     H89331   3.246   9.158   6.524 -0.7202  0.2417  0.6738
  677MOL0     H89332   3.005   9.185   6.471 -0.5708  0.5432  1.2296
  677MOL0     H89333   3.018   9.093   6.614  0.5051 -0.7482  0.2140
  677MOL0     H89334   3.005   8.873   6.479 -0.4066  0.5481 -0.3308
  677MOL0     H89335   3.000   8.962   6.330 -2.1583 -1.1657 -0.1047
  677MOL0     H89336   2.791   9.011   6.535  1.5823 -1.8089  1.9701
  677MOL0     H89337   2.799   9.072   6.362  1.0461 -0.9698 -0.5763
  677MOL0     H89338   2.737   8.811   6.475  0.2612 -0.1608  0.2906
  677MOL0     H89339   2.819   8.812   6.304 -1.8320  1.0609 -0.6222
  677MOL0     H89340   2.650   8.975   6.222 -1.1246  0.6354  0.2119
  677MOL0     H89341   2.563   8.951   6.367 -0.1502  0.3865  0.1402
  677MOL0     H89342   2.615   8.742   6.154 -1.6742 -0.8970 -1.2474
  677MOL0     H89343   2.564   8.688   6.316  0.1534  0.0783 -0.5628
  677MOL0     H89344   2.348   8.804   6.306 -0.3701  0.4823 -0.7783
  677MOL0     H89345   2.363   8.706   6.161 -2.9576  1.2112 -0.1462
  677MOL0     H89346   3.313   8.806   6.761 -1.8956  3.3063  4.2505
  677MOL0     H89347   3.518   8.816   6.887  0.7958  2.0816  0.4274
  677MOL0     H89348   3.951   8.936   7.172  0.3499  1.9046 -0.4126
  677MOL0     H89349   4.190   8.891   7.179  2.3270 -1.6320 -0.9041
  677MOL0     H89350   5.230   8.821   6.549  0.7952 -1.1798  1.0336
  677MOL0     H89351   5.030   8.954   6.506  1.8231 -1.3877  0.3421
  677MOL0     H89352   4.596   8.970   6.780  2.8023  0.0420 -2.0393
  677MOL0     H89353   4.359   9.037   6.807  0.0229 -2.5831 -0.1142
  677MOL0     H89354   4.125   9.077   6.470  0.9899 -1.2295 -0.2206
  677MOL0     H89355   4.131   9.253   6.479  1.5833 -0.7196  0.6955
  677MOL0     H89356   3.900   9.146   6.494 -0.4227  2.0324 -0.5060
  677MOL0     H89357   3.942   9.090   6.661 -5.4328  2.3955  1.2791
  677MOL0     H89358   3.956   9.386   6.562 -0.0893 -1.1459 -0.6191
  677MOL0     H89359   4.012   9.333   6.721  0.2239  0.0669 -0.2803
  677MOL0     H89360   3.767   9.244   6.776 -1.0437  1.2348  2.1774
  677MOL0     H89361   3.808   9.415   6.764 -1.4286 -1.2194  1.8078
  677MOL0     H89362   3.598   9.379   6.410  2.6768  5.6510 -0.2614
  677MOL0     H89363   4.349   9.207   6.410  1.6629 -0.9779 -0.3540
  677MOL0     H89364   4.552   9.120   6.366 -2.6975  0.8617  0.2327
  678MOL0     O89365   4.794   0.351   4.114  0.1721  0.2678 -0.4635
  678MOL0     C89366   4.747   0.326   4.229 -1.0773 -0.1404  0.9125
  678MOL0     O89367   4.639   0.252   4.254  0.3303  0.8980 -0.1792
  678MOL0     C89368   4.551   0.190   4.173  0.1307  0.8902  0.2216
  678MOL0     C89369   4.466   0.090   4.218  0.2025  1.1314 -0.0630
  678MOL0     C89370   4.371   0.032   4.129  0.3035 -0.6683  0.1719
  678MOL0     C89371   4.371   0.057   3.991  0.6230 -0.1829  0.1945
  678MOL0     O89372   4.291  -0.014   3.897  0.1718 -0.0232  0.4938
  678MOL0     C89373   4.153  -0.006   3.899 -0.6331 -0.0208  0.5107
  678MOL0     C89374   4.081  -0.087   4.010  1.1522 -0.4654 -1.1741
  678MOL0     C89375   3.929  -0.110   3.969  0.1429  0.7337  0.8734
  678MOL0     C89376   3.857  -0.176   4.080  0.1590 -0.0252 -0.0145
  678MOL0     C89377   3.718  -0.228   4.038 -0.2948 -0.1348 -0.6440
  678MOL0     C89378   3.609  -0.121   4.019  0.4521  0.0157  0.0382
  678MOL0     C89379   3.606  -0.013   4.138 -0.1525  0.1645  1.0312
  678MOL0     C89380   3.489   0.090   4.128 -0.2836 -0.0112  0.2614
  678MOL0     N89381   3.532   0.225   4.080 -0.1896 -0.2826  0.3438
  678MOL0     C89382   3.464   0.340   4.125  1.0315 -0.2417  1.2466
  678MOL0     C89383   3.499   0.433   4.035  1.0047 -0.4441  0.4700
  678MOL0     C89384   3.454   0.578   4.031  0.0024  1.3806  0.7549
  678MOL0     C89385   3.367   0.607   3.909  0.0586 -0.4368  1.0811
  678MOL0     C89386   3.320   0.755   3.905 -0.1155  0.6927  0.3823
  678MOL0     C89387   3.209   0.786   3.801 -0.3666 -0.7214 -0.1273
  678MOL0     O89388   3.080   0.741   3.847  0.5484 -0.2334  0.3479
  678MOL0     C89389   2.974   0.765   3.764 -0.3512  0.9795 -0.3078
  678MOL0     C89390   2.861   0.689   3.790  0.5702 -0.5116  0.5191
  678MOL0     C89391   2.752   0.718   3.713 -1.1028 -0.0661 -0.0288
  678MOL0     C89392   2.744   0.829   3.632 -0.8359  0.1118  0.5084
  678MOL0     C89393   2.609   0.859   3.567  0.5202  0.4282  0.7993
  678MOL0     O89394   2.517   0.754   3.552  0.0535  0.9516 -0.1806
  678MOL0     C89395   2.388   0.748   3.511  0.5643  0.0565  1.4595
  678MOL0     C89396   2.312   0.642   3.549  0.4630 -1.1337 -0.2749
  678MOL0     C89397   2.174   0.629   3.512 -1.4578 -0.3082  1.4521
  678MOL0     C89398   2.127   0.707   3.406  0.7273  0.2859 -0.2793
  678MOL0     O89399   2.008   0.663   3.365 -0.1165 -0.4919  0.6909
  678MOL0     C89400   1.949   0.714   3.246 -0.4131  0.1440 -0.2444
  678MOL0     C89401   1.805   0.675   3.239 -0.5546 -0.3360 -0.4262
  678MOL0     C89402   1.723   0.764   3.154 -0.1965  0.0301  0.5331
  678MOL0     C89403   1.576   0.740   3.182 -0.0009 -0.1385  0.3776
  678MOL0     C89404   1.485   0.829   3.097  0.0416  1.0499  0.5566
  678MOL0     C89405   1.341   0.792   3.137  0.1553 -0.2254  1.0558
  678MOL0     C89406   1.262   0.920   3.127  1.1448  0.4513  0.1199
  678MOL0     C89407   1.110   0.877   3.172  0.3791  0.1673 -0.1715
  678MOL0    Cl89408   1.036   0.768   3.056  0.4270  0.1454 -0.0461
  678MOL0     C89409   2.212   0.808   3.347 -0.4834  0.8373 -0.3973
  678MOL0     C89410   2.340   0.826   3.399  0.0825  0.4316  0.8316
  678MOL0     O89411   2.582   0.975   3.523 -0.0178  0.4765 -0.9562
  678MOL0     C89412   2.850   0.908   3.605  0.2098 -0.1878 -0.8924
  678MOL0     C89413   2.960   0.877   3.684 -0.5171 -0.0197 -0.2065
  678MOL0     N89414   3.579   0.380   3.939  0.7081  0.4928 -0.4558
  678MOL0     N89415   3.600   0.254   3.966  0.5719  0.0124 -0.5167
  678MOL0     C89416   4.457   0.153   3.942 -0.5667  0.7513  0.1420
  678MOL0     C89417   4.539   0.223   4.035  0.0082  0.4538  0.2799
  678MOL0     C89418   4.832   0.369   4.347 -0.0140  0.1461 -0.4510
  678MOL0     C89419   4.940   0.453   4.324 -1.6754  0.5424  0.2662
  678MOL0     C89420   5.009   0.487   4.435  0.0315 -1.5680  0.5476
  678MOL0     C89421   4.983   0.446   4.568 -0.0728 -0.0112 -0.1140
  678MOL0     O89422   5.079   0.489   4.656  0.5118  0.7610 -0.5113
  678MOL0     C89423   5.087   0.405   4.771 -0.1305 -0.4065  0.3599
  678MOL0     C89424   5.212   0.432   4.849 -0.2353  0.6042 -1.3748
  678MOL0     C89425   5.337   0.391   4.766 -0.2369 -0.3105  0.2406
  678MOL0     C89426   5.471   0.408   4.841 -0.4736 -0.0606 -0.3209
  678MOL0     C89427   5.478   0.311   4.949 -0.5951 -0.1878 -0.5382
  678MOL0     C89428   5.478   0.219   5.030 -1.2825  0.4993 -0.0754
  678MOL0     C89429   4.868   0.367   4.586 -0.1019  0.1236  1.2863
  678MOL0     C89430   4.785   0.329   4.479  0.1914 -0.4707  0.0182
  678MOL0     H89431   4.465   0.044   4.316 -0.7738  3.0432  0.8700
  678MOL0     H89432   4.304  -0.047   4.161 -2.6974 -0.0089 -3.6728
  678MOL0     H89433   4.132  -0.029   3.794  3.3211  4.4643 -1.6547
  678MOL0     H89434   4.133   0.102   3.902 -0.1823  0.2411 -2.6759
  678MOL0     H89435   4.087  -0.031   4.104  0.1048  2.2802 -2.6254
  678MOL0     H89436   4.128  -0.183   4.030  0.7213 -0.3240  0.7564
  678MOL0     H89437   3.924  -0.185   3.889 -1.4894  0.7285  0.9571
  678MOL0     H89438   3.888  -0.014   3.936  3.4491  2.0972  0.3449
  678MOL0     H89439   3.925  -0.256   4.111 -0.9853 -0.7429  0.7230
  678MOL0     H89440   3.842  -0.116   4.170  0.9052  0.0091  0.0910
  678MOL0     H89441   3.691  -0.288   4.126 -0.4759  2.0864  0.9044
  678MOL0     H89442   3.715  -0.294   3.951  0.1857 -0.7475 -0.2048
  678MOL0     H89443   3.515  -0.172   3.994 -0.3291  1.6778 -0.6033
  678MOL0     H89444   3.640  -0.063   3.931  1.9771 -2.4287 -1.1250
  678MOL0     H89445   3.591  -0.067   4.232  1.5796  0.6436  1.6171
  678MOL0     H89446   3.701   0.041   4.145  0.0555 -0.0286 -0.0741
  678MOL0     H89447   3.441   0.094   4.226 -2.5485  1.4553 -0.8026
  678MOL0     H89448   3.419   0.049   4.053  2.2644 -0.4104 -2.0511
  678MOL0     H89449   3.401   0.343   4.213  2.0143 -1.1809  2.0144
  678MOL0     H89450   3.538   0.648   4.024  2.6035 -1.7093 -1.9096
  678MOL0     H89451   3.406   0.591   4.129 -1.6444  0.7379  0.0725
  678MOL0     H89452   3.279   0.543   3.920 -0.4426  0.2579  1.1630
  678MOL0     H89453   3.424   0.595   3.816 -2.4029 -2.3138 -0.2891
  678MOL0     H89454   3.275   0.787   4.000 -2.7856 -0.0295 -0.5665
  678MOL0     H89455   3.412   0.806   3.873 -1.8851  2.3128 -2.5539
  678MOL0     H89456   3.242   0.744   3.706  1.8383  0.7697 -0.0789
  678MOL0     H89457   3.214   0.895   3.797 -0.5250 -0.7584 -1.6029
  678MOL0     H89458   2.869   0.616   3.870 -2.4220  1.0914  2.4557
  678MOL0     H89459   2.660   0.663   3.731 -0.1887 -2.6079 -2.4261
  678MOL0     H89460   2.338   0.576   3.631 -2.5434 -0.4146  1.3943
  678MOL0     H89461   2.113   0.549   3.552 -5.4109  1.1730 -0.9892
  678MOL0     H89462   1.993   0.664   3.159 -1.7744 -1.8881  0.1463
  678MOL0     H89463   1.963   0.822   3.243 -1.4444  0.2630 -1.9161
  678MOL0     H89464   1.770   0.671   3.343 -2.4804 -0.2139 -1.0191
  678MOL0     H89465   1.802   0.569   3.212 -0.0794 -1.2889  2.8672
  678MOL0     H89466   1.755   0.744   3.051  0.5214 -0.7076  0.8876
  678MOL0     H89467   1.745   0.869   3.175 -2.9250  0.5959  0.8723
  678MOL0     H89468   1.549   0.634   3.174 -1.1976 -0.3121  4.5153
  678MOL0     H89469   1.559   0.753   3.289 -0.9355  0.3029  0.1938
  678MOL0     H89470   1.505   0.816   2.990 -0.4923  0.2497  0.5470
  678MOL0     H89471   1.508   0.928   3.138  0.7023  0.7689  0.8700
  678MOL0     H89472   1.343   0.751   3.239  0.9556  0.3234  1.2791
  678MOL0     H89473   1.296   0.724   3.065 -1.6963  1.2076  0.7825
  678MOL0     H89474   1.304   1.005   3.180  0.2502  0.9379  0.0660
  678MOL0     H89475   1.265   0.962   3.026  0.8094  0.7084  0.2160
  678MOL0     H89476   1.038   0.957   3.191 -2.1328 -2.2598  1.4739
  678MOL0     H89477   1.111   0.829   3.271  0.0749  1.6060  0.5651
  678MOL0     H89478   2.171   0.886   3.283 -0.8777  3.5744  2.8645
  678MOL0     H89479   2.416   0.899   3.374  0.2209  0.1500  0.4263
  678MOL0     H89480   2.844   0.986   3.529 -1.7215 -1.1981 -1.8557
  678MOL0     H89481   3.047   0.943   3.676 -0.7541  0.5835  1.8042
  678MOL0     H89482   4.456   0.189   3.840 -0.2005  0.9784  0.2138
  678MOL0     H89483   4.595   0.306   3.994 -0.1534 -0.1327 -1.2201
  678MOL0     H89484   4.960   0.482   4.221  2.8776 -1.3482  0.3794
  678MOL0     H89485   5.098   0.547   4.421 -0.4461 -1.0858 -0.5073
  678MOL0     H89486   5.093   0.302   4.733  1.2714  0.6957 -2.6854
  678MOL0     H89487   5.002   0.421   4.838 -0.3199 -2.1527  0.5976
  678MOL0     H89488   5.220   0.537   4.878  2.2411  0.4029 -1.0745
  678MOL0     H89489   5.215   0.383   4.946  0.9755  0.4817 -1.4544
  678MOL0     H89490   5.347   0.438   4.668 -0.2046 -0.5372  0.1348
  678MOL0     H89491   5.318   0.285   4.748  0.0637 -0.1991 -0.7931
  678MOL0     H89492   5.548   0.384   4.767 -0.6556  1.2750 -0.9751
  678MOL0     H89493   5.480   0.511   4.875  4.7637 -0.3465 -0.0395
  678MOL0     H89494   5.489   0.141   5.102  1.6076 -0.8749 -1.8269
  678MOL0     H89495   4.844   0.322   4.682  0.2849  0.0770  1.3623
  678MOL0     H89496   4.704   0.259   4.497  0.3657 -1.6812 -3.3042
  679MOL0     O89497   1.293   6.203  10.584 -0.0339 -0.5573  0.2967
  679MOL0     C89498   1.354   6.234  10.481  0.3681 -0.0695  0.2557
  679MOL0     O89499   1.297   6.251  10.363  0.0252 -0.7087 -0.8439
  679MOL0     C89500   1.160   6.247  10.353  0.4255 -0.0065 -1.1405
  679MOL0     C89501   1.084   6.353  10.406 -0.8022  0.8400 -0.9137
  679MOL0     C89502   0.947   6.369  10.382 -0.0891  0.7853  0.5837
  679MOL0     C89503   0.880   6.278  10.291 -0.2905 -0.7266 -0.0787
  679MOL0     O89504   0.740   6.298  10.270 -0.0361  0.4359 -0.1482
  679MOL0     C89505   0.660   6.363  10.363  0.1643 -0.5076  0.3635
  679MOL0     C89506   0.595   6.492  10.309 -0.6952  0.0970 -0.0946
  679MOL0     C89507   0.477   6.527  10.390  0.5193 -0.7749  0.8328
  679MOL0     C89508   0.386   6.621  10.314 -0.3444 -0.2784 -0.6768
  679MOL0     C89509   0.249   6.645  10.384  0.1140 -0.7117 -0.4390
  679MOL0     C89510   0.162   6.517  10.374 -0.5841 -0.1100 -0.5383
  679MOL0     C89511   0.034   6.521  10.449 -0.0907  0.8293  0.4773
  679MOL0     C89512  -0.046   6.387  10.409 -0.3692 -0.3192 -0.5487
  679MOL0     N89513  -0.010   6.273  10.501  0.5101  0.2150 -0.0810
  679MOL0     C89514   0.056   6.161  10.468  0.7043  0.1681  0.2079
  679MOL0     C89515   0.045   6.086  10.584  0.7005 -0.2488 -0.6741
  679MOL0     C89516   0.126   5.965  10.606 -0.1265  0.0261  0.4076
  679MOL0     C89517   0.034   5.841  10.586  0.3369  0.5705  0.0297
  679MOL0     C89518   0.006   5.785  10.448  0.0114  0.0073 -0.9976
  679MOL0     C89519  -0.044   5.635  10.467  0.3527  0.5293  0.1116
  679MOL0     O89520  -0.148   5.636  10.569 -0.4022 -0.2991  0.1556
  679MOL0     C89521  -0.277   5.637  10.524 -0.2568  0.2397  0.1907
  679MOL0     C89522  -0.371   5.583  10.608 -0.2986 -0.7575 -0.1099
  679MOL0     C89523  -0.511   5.572  10.569  0.6268  0.5595 -0.3796
  679MOL0     C89524  -0.558   5.632  10.447 -0.2720  0.5614 -0.0532
  679MOL0     C89525  -0.701   5.640  10.410 -0.8511 -0.0659 -0.5746
  679MOL0     O89526  -0.777   5.600  10.514  0.7061  0.8462  0.3300
  679MOL0     C89527  -0.916   5.603  10.510 -0.1993 -0.1568  0.1645
  679MOL0     C89528  -0.992   5.537  10.415  1.3110 -0.3061 -0.8838
  679MOL0     C89529  -1.132   5.537  10.432  0.4511  0.4673  0.0803
  679MOL0     C89530  -1.199   5.586  10.549 -0.5357  0.2565  0.0835
  679MOL0     O89531  -1.336   5.579  10.563 -0.8087 -0.6345 -0.6046
  679MOL0     C89532  -1.404   5.507  10.457 -0.1950  0.2302 -0.7269
  679MOL0     C89533  -1.547   5.512  10.474  0.4692 -0.2785  0.1510
  679MOL0     C89534  -1.599   5.656  10.505 -0.2415  0.2399 -0.2264
  679MOL0     C89535  -1.743   5.636  10.555 -0.5576 -0.5022  0.0402
  679MOL0     C89536  -1.842   5.596  10.445 -0.1219  0.6682  0.6269
  679MOL0     C89537  -1.987   5.637  10.493 -0.1031 -0.6453 -0.3516
  679MOL0     C89538  -2.100   5.579  10.411  0.4548 -0.5375  0.2753
  679MOL0     C89539  -2.210   5.677  10.376 -0.2133  0.5156  0.6685
  679MOL0    Cl89540  -2.258   5.773  10.520 -0.1685 -0.0587  0.2068
  679MOL0     C89541  -1.118   5.643  10.643 -0.7294  0.7396 -0.3191
  679MOL0     C89542  -0.977   5.656  10.624  0.2139  0.7909 -0.2954
  679MOL0     O89543  -0.729   5.688  10.307 -0.2862 -0.3010  1.0424
  679MOL0     C89544  -0.459   5.681  10.362  0.3938 -0.6896 -0.2025
  679MOL0     C89545  -0.321   5.682  10.400  0.6386 -0.3419 -0.0423
  679MOL0     N89546  -0.042   6.152  10.678  0.1559  0.2030 -0.1654
  679MOL0     N89547  -0.079   6.263  10.623 -0.2628 -0.1061 -0.0230
  679MOL0     C89548   0.958   6.174  10.234  0.8720 -0.0881  0.2313
  679MOL0     C89549   1.093   6.160  10.267  0.4580 -0.2973 -0.1108
  679MOL0     C89550   1.503   6.233  10.490  0.5207  0.4367  0.2016
  679MOL0     C89551   1.575   6.253  10.374  0.1720  0.3434  0.0240
  679MOL0     C89552   1.719   6.253  10.371  0.4660  0.2805 -0.0049
  679MOL0     C89553   1.794   6.233  10.496 -0.2703 -0.4775 -0.2207
  679MOL0     O89554   1.923   6.260  10.502 -0.9580 -0.1172 -0.8485
  679MOL0     C89555   1.998   6.247  10.381 -0.0017  0.5496  0.3155
  679MOL0     C89556   2.146   6.198  10.413  0.8901  0.2172  0.3217
  679MOL0     C89557   2.189   6.095  10.311  0.0997  0.1546 -0.3994
  679MOL0     C89558   2.336   6.054  10.351 -0.0195 -0.0616  0.9020
  679MOL0     C89559   2.400   5.959  10.255 -0.2716  1.4360 -0.1563
  679MOL0     C89560   2.467   5.882  10.189  0.0507  0.7313 -0.9286
  679MOL0     C89561   1.720   6.214  10.614  0.0168  0.3840  0.6436
  679MOL0     C89562   1.579   6.214  10.606 -0.0755  0.9633 -0.5178
  679MOL0     H89563   1.143   6.413  10.475  0.5634  1.0882 -2.2353
  679MOL0     H89564   0.893   6.454  10.424 -1.2532  0.6525 -0.5664
  679MOL0     H89565   0.698   6.384  10.464  0.6250 -1.7003  0.4593
  679MOL0     H89566   0.583   6.289  10.388 -0.2974  0.8930  3.6546
  679MOL0     H89567   0.570   6.491  10.203  3.9577  0.5274 -1.4276
  679MOL0     H89568   0.670   6.572  10.313 -2.1154  1.4474  2.4551
  679MOL0     H89569   0.505   6.582  10.481  0.7008  0.7048 -0.0890
  679MOL0     H89570   0.423   6.436  10.419  0.0935 -1.4506 -1.8281
  679MOL0     H89571   0.443   6.714  10.306  1.4649 -1.2539  0.1970
  679MOL0     H89572   0.378   6.584  10.211 -0.0497  0.5447 -1.0024
  679MOL0     H89573   0.198   6.731  10.340  0.7133  0.8070  1.6762
  679MOL0     H89574   0.276   6.687  10.481  0.4810 -0.1952 -0.7547
  679MOL0     H89575   0.224   6.435  10.411 -1.8483 -0.8589  0.0068
  679MOL0     H89576   0.142   6.501  10.268  0.6131  1.6868 -1.0770
  679MOL0     H89577   0.056   6.531  10.556 -1.9011  0.7833  0.8811
  679MOL0     H89578  -0.022   6.609  10.415 -2.4124 -1.5718 -2.4344
  679MOL0     H89579  -0.036   6.353  10.305  1.3988  2.3254 -1.3493
  679MOL0     H89580  -0.152   6.411  10.416 -0.3717  1.1142 -3.7005
  679MOL0     H89581   0.104   6.141  10.373  0.0126  2.2407 -0.6451
  679MOL0     H89582   0.156   5.985  10.709 -1.5810  1.2227  0.6275
  679MOL0     H89583   0.211   5.960  10.537 -1.0179 -2.4280 -0.6241
  679MOL0     H89584  -0.067   5.861  10.624  0.2633  0.2113  0.0287
  679MOL0     H89585   0.076   5.765  10.654 -1.0960  0.8914  1.3394
  679MOL0     H89586  -0.071   5.843  10.396 -0.0821  1.4066  0.6114
  679MOL0     H89587   0.095   5.784  10.385 -0.6467 -0.0787 -1.9382
  679MOL0     H89588   0.030   5.558  10.486  0.0728 -0.3185 -2.0021
  679MOL0     H89589  -0.081   5.608  10.368 -1.8166  0.2880  0.9166
  679MOL0     H89590  -0.345   5.539  10.704 -0.8531  1.6119  1.2133
  679MOL0     H89591  -0.580   5.510  10.626  3.8094 -3.0334 -0.0664
  679MOL0     H89592  -0.937   5.490  10.334  2.0233  1.8712 -1.7471
  679MOL0     H89593  -1.164   5.488  10.341  1.9863 -0.9251  0.2343
  679MOL0     H89594  -1.380   5.402  10.443  4.7946  1.3002 -2.6132
  679MOL0     H89595  -1.393   5.562  10.363 -4.4439  0.5985 -1.1740
  679MOL0     H89596  -1.569   5.448  10.560 -0.6294 -0.7943 -0.4791
  679MOL0     H89597  -1.607   5.461  10.397  1.7338 -3.5452  1.1469
  679MOL0     H89598  -1.607   5.715  10.413 -2.7451  1.9047  0.9595
  679MOL0     H89599  -1.538   5.702  10.583  0.9345  2.4279 -2.3165
  679MOL0     H89600  -1.730   5.570  10.641  1.2028  0.0348  0.2435
  679MOL0     H89601  -1.789   5.730  10.583 -0.9405 -0.6954  0.0593
  679MOL0     H89602  -1.841   5.491  10.416 -3.2957 -0.0935  2.7771
  679MOL0     H89603  -1.829   5.656  10.355  3.1551 -0.3342  0.3269
  679MOL0     H89604  -1.991   5.746  10.497  2.2496 -0.5537  2.1602
  679MOL0     H89605  -1.998   5.598  10.595  2.4403 -2.9955 -0.8554
  679MOL0     H89606  -2.052   5.547  10.318 -1.3550  1.4748 -1.4787
  679MOL0     H89607  -2.136   5.489  10.461  0.9793  0.8727  3.4041
  679MOL0     H89608  -2.293   5.625  10.328  1.3451 -2.1703  0.6902
  679MOL0     H89609  -2.183   5.752  10.301  0.1147  1.4447  1.6929
  679MOL0     H89610  -1.167   5.688  10.729 -1.2105 -0.6243  0.1517
  679MOL0     H89611  -0.912   5.695  10.702 -1.9202  0.5934  1.7231
  679MOL0     H89612  -0.473   5.727  10.264  1.3183  1.9460  0.8064
  679MOL0     H89613  -0.259   5.719  10.319 -0.1972 -0.7600 -0.9049
  679MOL0     H89614   0.903   6.114  10.162  1.3041 -2.1956  1.5657
  679MOL0     H89615   1.161   6.088  10.222  1.0913 -1.5883  2.7021
  679MOL0     H89616   1.512   6.253  10.286 -1.5632  0.6766  1.2158
  679MOL0     H89617   1.755   6.268  10.269 -2.7641  0.5997 -1.2129
  679MOL0     H89618   1.990   6.342  10.329  0.1779 -0.4539 -1.6346
  679MOL0     H89619   1.954   6.174  10.312  0.1611  0.3623  0.4068
  679MOL0     H89620   2.210   6.286  10.416  0.9105  0.1779  2.3870
  679MOL0     H89621   2.123   6.147  10.507 -2.0893  1.4987  0.4274
  679MOL0     H89622   2.197   6.136  10.210 -1.1392 -0.7162 -0.8783
  679MOL0     H89623   2.131   6.002  10.315  2.0891 -1.1435  3.6936
  679MOL0     H89624   2.392   6.147  10.341  2.0217 -1.3868 -0.9317
  679MOL0     H89625   2.330   6.006  10.449 -2.2024 -1.0433  0.3629
  679MOL0     H89626   2.528   5.820  10.126 -0.7345 -2.1734  0.9535
  679MOL0     H89627   1.766   6.205  10.712 -1.9225  2.3702  1.8382
  679MOL0     H89628   1.521   6.185  10.693  0.4821 -0.2662 -0.5398
  680MOL0     O89629   7.139   0.084  11.122  0.5409  0.0228 -0.1973
  680MOL0     C89630   7.238   0.118  11.051 -0.5454 -0.3858 -0.7215
  680MOL0     O89631   7.236   0.138  10.913 -0.0684  0.6176 -0.2428
  680MOL0     C89632   7.125   0.091  10.855 -0.0745 -0.1168 -0.2773
  680MOL0     C89633   7.018   0.170  10.834  0.4408 -0.3458  0.4312
  680MOL0     C89634   6.906   0.125  10.768 -0.3715  0.8296  0.3276
  680MOL0     C89635   6.896  -0.014  10.724  0.4795  0.2949 -0.1347
  680MOL0     O89636   6.788  -0.078  10.674 -0.6359 -1.4163 -0.5074
  680MOL0     C89637   6.670  -0.008  10.655  0.4108 -0.5322 -0.5624
  680MOL0     C89638   6.555  -0.100  10.602 -0.9159  0.1266  0.3487
  680MOL0     C89639   6.422  -0.032  10.617  0.5166 -0.3920  0.8035
  680MOL0     C89640   6.310  -0.093  10.518  0.0053  0.5838 -0.4488
  680MOL0     C89641   6.168  -0.045  10.558  0.4131 -0.3680  0.0396
  680MOL0     C89642   6.067  -0.140  10.486  0.2268  0.0300 -0.1541
  680MOL0     C89643   6.059  -0.111  10.340 -0.6021 -0.1589  1.2391
  680MOL0     C89644   5.961  -0.200  10.263 -0.3053 -0.1789  0.1561
  680MOL0     N89645   5.827  -0.183  10.314  0.7391  0.6031  0.4504
  680MOL0     C89646   5.754  -0.069  10.322  0.4707  0.7506  0.2302
  680MOL0     C89647   5.659  -0.103  10.404  0.9473 -0.0282 -1.5968
  680MOL0     C89648   5.544  -0.008  10.447  0.4582  0.5135  0.0915
  680MOL0     C89649   5.530   0.014  10.603  0.1938  0.1793 -0.4304
  680MOL0     C89650   5.466  -0.102  10.692  0.3384  0.4044 -0.2677
  680MOL0     C89651   5.326  -0.067  10.717  0.0276  0.4815  0.4586
  680MOL0     O89652   5.245  -0.110  10.600 -0.7465  0.0195  0.0957
  680MOL0     C89653   5.111  -0.092  10.604  0.4979 -0.6336  0.1508
  680MOL0     C89654   5.040  -0.120  10.482  0.8465  0.1564  0.2533
  680MOL0     C89655   4.898  -0.129  10.480  0.2800  0.0901  0.2811
  680MOL0     C89656   4.819  -0.099  10.597 -0.7115 -0.2843 -0.0639
  680MOL0     C89657   4.669  -0.096  10.591  0.7493 -0.1205 -0.0915
  680MOL0     O89658   4.622  -0.085  10.465  0.2854  0.3925  0.3593
  680MOL0     C89659   4.486  -0.077  10.437  0.4759  0.8469 -0.7805
  680MOL0     C89660   4.406  -0.190  10.440  0.2939  0.3229 -0.1201
  680MOL0     C89661   4.269  -0.186  10.401 -0.2578  0.3868 -0.2708
  680MOL0     C89662   4.213  -0.059  10.371 -0.1919  0.0533  0.0142
  680MOL0     O89663   4.078  -0.051  10.345 -0.2952  0.3081  0.4824
  680MOL0     C89664   4.021  -0.132  10.242 -0.6856  0.3297  0.3367
  680MOL0     C89665   3.868  -0.130  10.253 -0.5320  0.0428 -0.0385
  680MOL0     C89666   3.802  -0.203  10.365 -0.1993 -0.0653 -0.5326
  680MOL0     C89667   3.655  -0.162  10.385 -0.6071  0.2438 -0.2377
  680MOL0     C89668   3.613  -0.180  10.529  0.7151  0.7718  0.7067
  680MOL0     C89669   3.461  -0.155  10.546  0.2045  0.2014 -0.8393
  680MOL0     C89670   3.424  -0.198  10.686 -0.9372 -0.0427 -0.4544
  680MOL0     C89671   3.265  -0.210  10.691 -0.6102  0.2588 -0.5366
  680MOL0    Cl89672   3.184  -0.061  10.623  0.2889 -0.0956 -0.3643
  680MOL0     C89673   4.296   0.055  10.355  0.5020  0.5863  0.8270
  680MOL0     C89674   4.432   0.039  10.392  0.5445 -0.0140  0.2032
  680MOL0     O89675   4.605  -0.116  10.696  0.0439 -0.2723  0.6056
  680MOL0     C89676   4.890  -0.056  10.711 -0.1279 -1.3396  0.3281
  680MOL0     C89677   5.035  -0.052  10.717  0.3266  0.2780  0.2016
  680MOL0     N89678   5.662  -0.237  10.429 -0.3340  0.0499 -0.0965
  680MOL0     N89679   5.769  -0.283  10.384 -0.2338 -0.0133  0.0323
  680MOL0     C89680   7.003  -0.092  10.744  0.1172 -0.4139  0.6064
  680MOL0     C89681   7.119  -0.041  10.804 -0.4287  0.0862 -0.0976
  680MOL0     C89682   7.365   0.154  11.119  0.4149  0.4363 -0.3975
  680MOL0     C89683   7.488   0.177  11.046 -0.3293  0.3779 -0.5748
  680MOL0     C89684   7.605   0.210  11.111 -0.1587 -0.4591  0.4033
  680MOL0     C89685   7.606   0.245  11.247  0.4023 -0.2403 -0.5127
  680MOL0     O89686   7.726   0.280  11.291  0.1993  0.6097 -0.0703
  680MOL0     C89687   7.732   0.353  11.417  0.3457  0.1633  0.3391
  680MOL0     C89688   7.875   0.388  11.462 -1.0010 -1.1799  0.3927
  680MOL0     C89689   7.933   0.506  11.379  0.1125  0.1302 -0.0738
  680MOL0     C89690   7.985   0.452  11.239 -0.6277 -0.4641 -0.9722
  680MOL0     C89691   8.041   0.561  11.165  0.4205 -1.2016 -0.0235
  680MOL0     C89692   8.088   0.640  11.085 -0.4305  0.4993 -0.7634
  680MOL0     C89693   7.486   0.222  11.319 -0.1721 -0.0045  0.5245
  680MOL0     C89694   7.365   0.178  11.257  0.0483 -0.2975 -0.1461
  680MOL0     H89695   7.040   0.276  10.847 -1.4019  0.1516 -0.1706
  680MOL0     H89696   6.819   0.187  10.747 -2.8352 -2.2925  0.5953
  680MOL0     H89697   6.695   0.058  10.572  3.2079 -2.2560 -1.2116
  680MOL0     H89698   6.652   0.049  10.747  0.1159  1.3000 -1.7110
  680MOL0     H89699   6.556  -0.186  10.669 -1.4327 -0.0892  0.0889
  680MOL0     H89700   6.574  -0.136  10.501 -1.4027  2.7012 -0.7379
  680MOL0     H89701   6.430   0.075  10.594 -0.2090  0.0847  2.6181
  680MOL0     H89702   6.383  -0.032  10.719  0.6133  1.8918  0.8920
  680MOL0     H89703   6.327  -0.065  10.414  0.3411 -1.2397 -0.9231
  680MOL0     H89704   6.319  -0.200  10.537 -0.5522  0.8951  1.9031
  680MOL0     H89705   6.155   0.058  10.524 -1.3359 -0.5048  0.2042
  680MOL0     H89706   6.153  -0.051  10.666  0.3834  2.0635  0.2137
  680MOL0     H89707   5.976  -0.128  10.544 -1.1578 -4.5510 -0.9545
  680MOL0     H89708   6.111  -0.240  10.499  3.0724  1.1477 -0.4520
  680MOL0     H89709   6.034  -0.005  10.327  0.4042 -0.3047 -4.9273
  680MOL0     H89710   6.156  -0.118  10.290 -0.9968  2.4324 -0.0636
  680MOL0     H89711   5.988  -0.304  10.282 -1.1355 -0.4843 -0.2751
  680MOL0     H89712   5.966  -0.187  10.154 -3.7986 -2.5089 -0.4598
  680MOL0     H89713   5.781   0.024  10.274 -0.8002 -0.5489 -3.3732
  680MOL0     H89714   5.454  -0.046  10.397  1.1633 -1.3604  0.1338
  680MOL0     H89715   5.565   0.083  10.391  2.1243 -1.1360 -2.1456
  680MOL0     H89716   5.458   0.097  10.608 -1.0646 -0.6893 -2.7169
  680MOL0     H89717   5.629   0.042  10.640  0.5068 -1.6246  0.2073
  680MOL0     H89718   5.459  -0.200  10.642 -0.6478  1.0502 -1.4721
  680MOL0     H89719   5.517  -0.100  10.788  0.4644 -1.2457 -0.2788
  680MOL0     H89720   5.310   0.040  10.733 -1.2488  0.3516  0.1290
  680MOL0     H89721   5.293  -0.116  10.809 -0.8198  0.9633  0.4222
  680MOL0     H89722   5.102  -0.151  10.399  3.0714 -1.1909  2.2703
  680MOL0     H89723   4.851  -0.152  10.385  0.2148  0.8098  0.1400
  680MOL0     H89724   4.448  -0.285  10.473 -3.7500 -2.2576 -1.5755
  680MOL0     H89725   4.206  -0.274  10.402  0.3002 -0.1157 -2.5569
  680MOL0     H89726   4.062  -0.233  10.250  1.8886  1.3599  1.3135
  680MOL0     H89727   4.067  -0.086  10.154  1.0560  0.1354  1.0978
  680MOL0     H89728   3.821  -0.162  10.159 -0.1263  0.4590 -0.3891
  680MOL0     H89729   3.836  -0.026  10.267 -0.4445  0.3031 -1.6255
  680MOL0     H89730   3.847  -0.171  10.460 -1.2305  1.1190 -0.4184
  680MOL0     H89731   3.828  -0.309  10.365  0.1966  0.0259 -1.1070
  680MOL0     H89732   3.637  -0.055  10.372 -1.3088  0.1555 -0.0401
  680MOL0     H89733   3.590  -0.221  10.321  0.7802 -0.2413 -1.2456
  680MOL0     H89734   3.662  -0.102  10.589 -1.9323  3.0132  0.1961
  680MOL0     H89735   3.638  -0.283  10.555  3.3458  0.9572 -0.7373
  680MOL0     H89736   3.409  -0.226  10.481  1.1213 -2.4797  1.1639
  680MOL0     H89737   3.439  -0.050  10.524 -0.1519  0.0772 -1.0915
  680MOL0     H89738   3.470  -0.291  10.720 -2.0179  0.3084  2.2267
  680MOL0     H89739   3.448  -0.114  10.751 -0.4157  2.2061 -3.3471
  680MOL0     H89740   3.241  -0.222  10.797 -1.2037  3.1010 -0.2664
  680MOL0     H89741   3.229  -0.298  10.638 -2.3988  1.4904 -1.4622
  680MOL0     H89742   4.250   0.147  10.322 -0.9360 -1.4723 -3.9075
  680MOL0     H89743   4.499   0.125  10.392  1.5300 -0.7363 -1.1067
  680MOL0     H89744   4.838  -0.014  10.796  0.7165 -1.8316  1.1088
  680MOL0     H89745   5.084  -0.025  10.810 -0.7897 -1.4322  1.3282
  680MOL0     H89746   6.980  -0.191  10.706  3.1987 -0.3823 -1.8280
  680MOL0     H89747   7.212  -0.096  10.812 -1.8612 -2.7665 -1.6112
  680MOL0     H89748   7.485   0.165  10.938  2.9151  1.8436 -0.9524
  680MOL0     H89749   7.700   0.211  11.058 -0.4441  1.7866 -0.1469
  680MOL0     H89750   7.691   0.288  11.494 -2.6790  2.4877  0.8884
  680MOL0     H89751   7.675   0.444  11.399 -1.7149 -1.6429 -3.2614
  680MOL0     H89752   7.878   0.416  11.568  1.7799 -2.4506  0.7335
  680MOL0     H89753   7.945   0.305  11.444 -0.0807 -0.5423  0.9425
  680MOL0     H89754   8.012   0.557  11.435 -1.1827  0.1236  1.8485
  680MOL0     H89755   7.856   0.581  11.363  0.6402  0.6851 -0.0708
  680MOL0     H89756   8.051   0.365  11.247  0.1962  0.2542  0.3112
  680MOL0     H89757   7.904   0.410  11.178 -0.5010  0.9158 -2.1603
  680MOL0     H89758   8.096   0.716  11.010 -3.4491  1.5809 -0.1268
  680MOL0     H89759   7.481   0.255  11.422  0.1909  2.2465 -0.1168
  680MOL0     H89760   7.278   0.169  11.320  1.5015 -0.1786  1.9878
  681MOL0     O89761   7.346   4.412   5.390 -0.4863 -0.8893  0.0145
  681MOL0     C89762   7.329   4.524   5.355  0.1224 -0.3002  0.9475
  681MOL0     O89763   7.222   4.568   5.282  1.1317 -0.1541 -0.0773
  681MOL0     C89764   7.140   4.483   5.217 -0.1613  0.5138  0.6589
  681MOL0     C89765   7.175   4.430   5.093 -0.0493 -0.7037 -0.7056
  681MOL0     C89766   7.088   4.337   5.031 -0.6677  0.8485  0.5269
  681MOL0     C89767   6.967   4.300   5.104  0.7517 -0.7336  0.1738
  681MOL0     O89768   6.879   4.207   5.058  0.0751 -0.6255 -0.0406
  681MOL0     C89769   6.925   4.126   4.942  0.3350  0.5640 -0.5108
  681MOL0     C89770   6.846   3.992   4.951 -0.1766 -0.0342 -0.1568
  681MOL0     C89771   6.688   4.019   4.942 -0.3267  0.1239 -0.3110
  681MOL0     C89772   6.602   3.892   4.945 -0.2213  0.6759 -0.5917
  681MOL0     C89773   6.462   3.920   4.881  0.6663  0.0290 -0.8572
  681MOL0     C89774   6.458   3.877   4.740  0.2018  0.3438 -0.3171
  681MOL0     C89775   6.312   3.837   4.697 -1.6996  0.2118 -0.6486
  681MOL0     C89776   6.302   3.803   4.545  0.1741  0.8041 -0.3685
  681MOL0     N89777   6.152   3.802   4.529 -0.8313  0.5226  0.3283
  681MOL0     C89778   6.079   3.690   4.541  0.1900  0.7600  0.0461
  681MOL0     C89779   5.954   3.727   4.535 -0.1343  0.3744 -0.0299
  681MOL0     C89780   5.832   3.643   4.543 -0.0137  0.4740 -0.9346
  681MOL0     C89781   5.741   3.688   4.664  0.5722  0.0321  0.4041
  681MOL0     C89782   5.630   3.783   4.622  0.3281 -0.0899  0.2135
  681MOL0     C89783   5.515   3.729   4.542  0.2777 -0.8345 -0.4620
  681MOL0     O89784   5.428   3.659   4.629 -0.3681 -0.2902 -0.9633
  681MOL0     C89785   5.300   3.643   4.593  0.5822  0.1149 -0.6956
  681MOL0     C89786   5.203   3.602   4.691  0.3770 -0.3342  0.1869
  681MOL0     C89787   5.065   3.584   4.653 -0.2340  0.4499  0.2117
  681MOL0     C89788   5.028   3.589   4.516  0.4440 -0.1029 -0.5439
  681MOL0     C89789   4.882   3.591   4.478  0.1737 -0.5840  0.0049
  681MOL0     O89790   4.797   3.586   4.579 -0.0369 -0.8518 -0.5595
  681MOL0     C89791   4.660   3.569   4.571 -0.6180 -0.4378 -0.7735
  681MOL0     C89792   4.589   3.635   4.668  0.5153  0.2702 -1.0577
  681MOL0     C89793   4.449   3.635   4.662  0.7099 -0.3739 -0.6351
  681MOL0     C89794   4.378   3.564   4.566 -1.3701 -0.7995  0.0236
  681MOL0     O89795   4.243   3.578   4.576 -0.4138  0.2642  0.6708
  681MOL0     C89796   4.161   3.470   4.520  0.7752 -0.5930  0.0699
  681MOL0     C89797   4.012   3.487   4.564  0.6070  0.3436  0.7001
  681MOL0     C89798   3.931   3.585   4.489 -0.1563 -0.6621  0.4265
  681MOL0     C89799   3.900   3.543   4.345  0.6262 -0.0285  0.3599
  681MOL0     C89800   3.817   3.625   4.253  0.2451 -0.7733  0.2355
  681MOL0     C89801   3.804   3.560   4.115  0.0621  0.7756 -0.6183
  681MOL0     C89802   3.761   3.658   4.005 -0.2417  0.4719  0.0797
  681MOL0     C89803   3.762   3.583   3.875  0.0973  0.0352 -0.2427
  681MOL0    Cl89804   3.704   3.684   3.750  0.5266  0.6111  0.0465
  681MOL0     C89805   4.455   3.483   4.478 -0.2808  0.6850  0.5333
  681MOL0     C89806   4.594   3.490   4.478 -0.0667 -0.5861 -0.2507
  681MOL0     O89807   4.846   3.598   4.361 -0.1499 -0.0783 -0.2429
  681MOL0     C89808   5.123   3.599   4.421 -0.9368 -0.6821  0.2570
  681MOL0     C89809   5.259   3.635   4.465  0.4409  0.1186  0.5991
  681MOL0     N89810   5.955   3.867   4.521  0.4525  0.0943 -0.1100
  681MOL0     N89811   6.072   3.911   4.520 -0.1827  0.0029 -0.2438
  681MOL0     C89812   6.931   4.365   5.230  0.4554 -0.3958 -0.2480
  681MOL0     C89813   7.019   4.457   5.286  0.1890  0.9348  0.0317
  681MOL0     C89814   7.440   4.620   5.394  0.4325  0.0417 -0.4207
  681MOL0     C89815   7.574   4.583   5.404  0.3286  0.6966 -0.6619
  681MOL0     C89816   7.675   4.663   5.447 -1.1933  0.3509  0.2777
  681MOL0     C89817   7.638   4.791   5.476 -0.0552 -0.0963 -0.5184
  681MOL0     O89818   7.723   4.886   5.541 -0.7840 -0.1187 -0.1278
  681MOL0     C89819   7.859   4.848   5.583 -0.4590  0.1469  0.0093
  681MOL0     C89820   7.930   4.987   5.611  0.2307 -0.4023  0.1912
  681MOL0     C89821   8.078   4.963   5.666 -0.0093  0.4264  0.4403
  681MOL0     C89822   8.167   4.909   5.559 -0.3308  0.1529  0.7983
  681MOL0     C89823   8.288   4.858   5.626  0.1314  0.2389 -0.2707
  681MOL0     C89824   8.395   4.816   5.665 -0.3444 -0.0235 -0.1762
  681MOL0     C89825   7.516   4.841   5.459  0.0399 -0.2084 -0.1650
  681MOL0     C89826   7.404   4.762   5.413 -0.1659  0.4266  0.1446
  681MOL0     H89827   7.272   4.448   5.048  0.9395 -2.3091  0.6781
  681MOL0     H89828   7.101   4.306   4.928  2.1368 -3.0664  1.8446
  681MOL0     H89829   7.031   4.104   4.959 -0.1557 -0.8265  1.0394
  681MOL0     H89830   6.921   4.175   4.844 -0.3005  1.7233  0.0713
  681MOL0     H89831   6.875   3.940   5.043 -3.0685  1.1479  1.5822
  681MOL0     H89832   6.871   3.923   4.870  0.6481 -1.0092  0.8990
  681MOL0     H89833   6.657   4.069   4.850  0.7179  0.1646 -0.6506
  681MOL0     H89834   6.659   4.089   5.021  1.5422 -0.1980  0.7271
  681MOL0     H89835   6.662   3.818   4.890  0.0903  0.9978 -0.6815
  681MOL0     H89836   6.579   3.851   5.044 -1.4699  0.5310 -0.9248
  681MOL0     H89837   6.439   4.027   4.885  0.8723  0.1415 -2.1697
  681MOL0     H89838   6.387   3.865   4.938  1.2594  0.4454  0.3689
  681MOL0     H89839   6.518   3.786   4.724 -3.3130 -2.0848 -0.7878
  681MOL0     H89840   6.500   3.956   4.677 -2.0568  1.3198 -0.6929
  681MOL0     H89841   6.289   3.753   4.762  3.0456 -1.3058 -0.5455
  681MOL0     H89842   6.255   3.925   4.726  1.5237  2.6546 -1.1126
  681MOL0     H89843   6.337   3.704   4.512 -0.6806  0.2477  0.3277
  681MOL0     H89844   6.346   3.876   4.476  0.3093 -0.5074 -1.7397
  681MOL0     H89845   6.108   3.587   4.555 -1.9065  0.1827  0.5521
  681MOL0     H89846   5.872   3.543   4.563 -3.0905 -1.0490 -1.7480
  681MOL0     H89847   5.784   3.633   4.445  3.0635 -1.1046 -2.4506
  681MOL0     H89848   5.799   3.739   4.741 -0.2016 -0.7608  1.5410
  681MOL0     H89849   5.694   3.601   4.710 -0.6553 -0.3752 -1.5037
  681MOL0     H89850   5.585   3.825   4.712  1.4522  2.0120 -0.1445
  681MOL0     H89851   5.684   3.870   4.585  1.1934 -0.2537  1.0472
  681MOL0     H89852   5.554   3.654   4.473 -0.9685 -0.8755 -1.1562
  681MOL0     H89853   5.472   3.809   4.481 -1.1786 -0.4358  1.0334
  681MOL0     H89854   5.229   3.603   4.797 -1.2612 -0.8948  0.6239
  681MOL0     H89855   5.001   3.569   4.739 -2.5897  1.9644 -1.1478
  681MOL0     H89856   4.649   3.673   4.750  2.3776 -4.9258  0.4417
  681MOL0     H89857   4.386   3.678   4.738 -0.9864 -1.4131 -1.3954
  681MOL0     H89858   4.190   3.382   4.578 -1.9690 -1.7834 -0.2245
  681MOL0     H89859   4.159   3.452   4.412 -0.8982  0.9229 -0.1932
  681MOL0     H89860   4.028   3.526   4.665  3.5253  1.1804  0.0165
  681MOL0     H89861   3.956   3.393   4.555 -0.1682  0.8215  0.4142
  681MOL0     H89862   3.988   3.678   4.477 -1.8804  0.6472  1.8810
  681MOL0     H89863   3.845   3.606   4.553 -0.7375 -0.0964 -0.5286
  681MOL0     H89864   3.993   3.520   4.293  0.9903 -1.3420  1.5245
  681MOL0     H89865   3.844   3.450   4.357  0.2951  0.1704  0.3804
  681MOL0     H89866   3.854   3.727   4.237 -2.2447  0.5626  2.2247
  681MOL0     H89867   3.715   3.639   4.290 -0.7364 -0.4544 -2.3856
  681MOL0     H89868   3.723   3.488   4.123  0.8891  0.0323  2.5373
  681MOL0     H89869   3.904   3.518   4.099  1.1564  2.0324  2.2035
  681MOL0     H89870   3.659   3.695   4.019 -1.6694 -2.4471 -1.6288
  681MOL0     H89871   3.829   3.743   3.996 -0.1715  0.2618 -2.0548
  681MOL0     H89872   3.689   3.501   3.874 -1.3847  1.2537  1.2965
  681MOL0     H89873   3.857   3.548   3.834 -1.2916 -0.4471 -3.3804
  681MOL0     H89874   4.405   3.421   4.404  1.9323 -2.8202  1.7105
  681MOL0     H89875   4.636   3.429   4.399 -0.3909  2.0340 -2.6004
  681MOL0     H89876   5.090   3.613   4.319 -3.0064  0.5782  1.0327
  681MOL0     H89877   5.341   3.654   4.396  1.1999 -1.2417  1.0967
  681MOL0     H89878   6.838   4.335   5.278  0.2487  2.2031  1.1127
  681MOL0     H89879   6.988   4.511   5.375 -0.0053 -0.1874  0.6574
  681MOL0     H89880   7.599   4.483   5.372 -0.1467 -0.3911  2.1362
  681MOL0     H89881   7.774   4.621   5.461 -1.0118 -0.2270 -2.3393
  681MOL0     H89882   7.912   4.795   5.503  2.0352 -0.0911  1.6916
  681MOL0     H89883   7.842   4.789   5.674 -2.4615 -1.3814 -1.2637
  681MOL0     H89884   7.930   5.064   5.533 -2.6758 -1.0830 -0.5934
  681MOL0     H89885   7.871   5.036   5.689  1.0104  0.6568  0.1327
  681MOL0     H89886   8.069   4.896   5.751 -3.1783  1.7871  1.3355
  681MOL0     H89887   8.125   5.058   5.695  1.2351  0.0741 -0.3339
  681MOL0     H89888   8.116   4.839   5.492  1.2078 -1.6242  1.3945
  681MOL0     H89889   8.194   4.997   5.501 -0.4485  3.0642  4.7338
  681MOL0     H89890   8.481   4.764   5.703 -0.7730  0.0236  0.8924
  681MOL0     H89891   7.489   4.945   5.477 -3.1662 -0.7982 -0.9444
  681MOL0     H89892   7.301   4.794   5.399 -0.2606 -0.7091 -2.4145
  682MOL0     O89893   0.540   7.105   5.196 -0.3957 -0.1726  0.3820
  682MOL0     C89894   0.591   7.197   5.265 -0.4829  0.6037 -0.0016
  682MOL0     O89895   0.540   7.319   5.289  0.2881 -0.5528 -0.1827
  682MOL0     C89896   0.404   7.328   5.264  0.6576 -0.4775 -0.5505
  682MOL0     C89897   0.366   7.384   5.144  0.1050  0.2629 -1.2038
  682MOL0     C89898   0.232   7.406   5.109 -0.5133 -0.6106 -1.3797
  682MOL0     C89899   0.130   7.370   5.203 -0.7955  0.5284  0.5724
  682MOL0     O89900   0.001   7.402   5.174  0.4709 -0.0285  0.5922
  682MOL0     C89901  -0.098   7.371   5.265  0.0807  0.1332 -0.6200
  682MOL0     C89902  -0.223   7.375   5.186  0.2300  0.4264 -0.2944
  682MOL0     C89903  -0.253   7.527   5.137  0.1225  0.4540  0.1581
  682MOL0     C89904  -0.395   7.545   5.077 -0.5462 -0.1557 -0.3092
  682MOL0     C89905  -0.417   7.689   5.037 -0.0049 -0.5414  0.0437
  682MOL0     C89906  -0.325   7.743   4.931  0.6905 -0.1064 -0.1663
  682MOL0     C89907  -0.333   7.677   4.795 -0.0890 -0.0307 -0.1982
  682MOL0     C89908  -0.461   7.699   4.726  0.2513  0.2184  0.4295
  682MOL0     N89909  -0.448   7.690   4.581  0.3082  0.5048 -0.4048
  682MOL0     C89910  -0.370   7.772   4.497 -0.6298  0.0192  0.2312
  682MOL0     C89911  -0.428   7.768   4.372 -0.2123  0.3184  0.6673
  682MOL0     C89912  -0.406   7.855   4.251  0.2682  0.3607  0.1974
  682MOL0     C89913  -0.532   7.943   4.203 -0.9502 -0.1171 -0.0209
  682MOL0     C89914  -0.590   7.881   4.075  0.3025  0.5213 -1.1114
  682MOL0     C89915  -0.723   7.939   4.043 -0.0455 -0.1556  0.1607
  682MOL0     O89916  -0.696   8.080   4.011  0.1811 -0.1150  0.2932
  682MOL0     C89917  -0.799   8.156   3.967  0.4381 -0.1772  0.5398
  682MOL0     C89918  -0.808   8.199   3.830 -0.2038 -0.4360 -0.7941
  682MOL0     C89919  -0.923   8.269   3.794  0.8434 -0.1270  0.1446
  682MOL0     C89920  -1.015   8.308   3.889  0.6920 -0.8908 -1.0927
  682MOL0     C89921  -1.152   8.346   3.841  0.0814 -0.3274 -0.0465
  682MOL0     O89922  -1.239   8.384   3.939 -0.4627  0.7377 -0.3501
  682MOL0     C89923  -1.343   8.464   3.903 -0.0169  0.0936  0.0512
  682MOL0     C89924  -1.437   8.438   3.805 -0.3521  0.6566  0.7318
  682MOL0     C89925  -1.533   8.523   3.763  1.5639  0.4649  0.6331
  682MOL0     C89926  -1.547   8.653   3.830 -0.3163 -0.1879  0.0377
  682MOL0     O89927  -1.650   8.745   3.817  0.3153  0.3170 -0.5546
  682MOL0     C89928  -1.772   8.668   3.827  0.1046 -0.5913  0.1635
  682MOL0     C89929  -1.905   8.754   3.825  0.4741  0.6292  1.1989
  682MOL0     C89930  -1.914   8.837   3.694 -0.5332  0.0480  0.5894
  682MOL0     C89931  -2.038   8.926   3.693  0.4256  0.5416  0.4563
  682MOL0     C89932  -2.058   8.992   3.553  0.0760 -0.0509 -0.8185
  682MOL0     C89933  -2.198   9.054   3.507 -0.1811 -0.1840 -0.0326
  682MOL0     C89934  -2.280   8.932   3.451  0.1396 -0.2228 -1.6244
  682MOL0     C89935  -2.417   8.987   3.405 -0.1406  0.5397 -0.6315
  682MOL0    Cl89936  -2.493   8.868   3.294 -0.3728  0.4576 -0.0520
  682MOL0     C89937  -1.462   8.676   3.934 -0.6879 -0.3943 -0.1423
  682MOL0     C89938  -1.358   8.580   3.968 -0.7431 -0.1969 -0.5018
  682MOL0     O89939  -1.168   8.353   3.720  0.7958  0.1852 -0.2332
  682MOL0     C89940  -0.986   8.272   4.020 -0.8570 -1.8532  0.7088
  682MOL0     C89941  -0.881   8.205   4.065 -0.4853  0.0277 -0.0117
  682MOL0     N89942  -0.539   7.681   4.386 -0.0295  0.0335  0.4383
  682MOL0     N89943  -0.540   7.623   4.501  0.2722 -0.0907  0.0085
  682MOL0     C89944   0.173   7.308   5.323  0.1215 -0.3527 -0.2593
  682MOL0     C89945   0.304   7.282   5.355 -0.0086  0.0659 -0.3096
  682MOL0     C89946   0.732   7.183   5.307 -0.2083 -0.4155 -0.2660
  682MOL0     C89947   0.803   7.281   5.378  0.0894  0.0275  0.4219
  682MOL0     C89948   0.933   7.259   5.420 -0.0566  0.0335  1.0435
  682MOL0     C89949   0.988   7.134   5.419 -0.5630 -0.1209 -0.0259
  682MOL0     O89950   1.095   7.100   5.493 -0.4305  0.1471 -0.0630
  682MOL0     C89951   1.187   7.204   5.531 -0.2023  0.2171  0.0234
  682MOL0     C89952   1.297   7.110   5.597 -0.0248 -0.1456 -0.3073
  682MOL0     C89953   1.402   7.193   5.659  0.3283  0.3385 -0.1302
  682MOL0     C89954   1.489   7.111   5.762  1.0149 -0.1492 -0.0283
  682MOL0     C89955   1.626   7.164   5.782  0.2500  0.2129  0.5240
  682MOL0     C89956   1.735   7.212   5.792 -0.5666 -0.5787  0.3219
  682MOL0     C89957   0.916   7.035   5.356 -0.7739  0.4810  0.5239
  682MOL0     C89958   0.794   7.060   5.294 -0.8557 -0.5176 -1.1036
  682MOL0     H89959   0.436   7.421   5.069 -0.1916 -0.3964 -1.8128
  682MOL0     H89960   0.198   7.450   5.015 -6.1275  1.1440  1.0446
  682MOL0     H89961  -0.103   7.441   5.349 -4.3306 -1.4217  0.6876
  682MOL0     H89962  -0.090   7.268   5.300  1.9636  0.2376 -0.6780
  682MOL0     H89963  -0.302   7.349   5.256 -0.8957  2.3168 -0.7718
  682MOL0     H89964  -0.227   7.298   5.108 -1.6751 -0.7568  0.8880
  682MOL0     H89965  -0.179   7.560   5.063  1.2738  0.5578  1.3293
  682MOL0     H89966  -0.255   7.600   5.218 -2.0355  2.4284 -1.5159
  682MOL0     H89967  -0.410   7.475   4.994  0.1753  0.1721 -0.7263
  682MOL0     H89968  -0.468   7.507   5.149  1.2160 -1.6780  0.7650
  682MOL0     H89969  -0.390   7.749   5.125 -0.2278 -3.8484  2.5805
  682MOL0     H89970  -0.517   7.723   5.007  0.9992  4.2308  1.3019
  682MOL0     H89971  -0.222   7.734   4.968  0.0583  1.0372  2.0492
  682MOL0     H89972  -0.338   7.852   4.931 -1.8281 -0.3292  0.9352
  682MOL0     H89973  -0.247   7.715   4.738 -0.4925  0.2551 -0.6221
  682MOL0     H89974  -0.325   7.571   4.817  1.9242 -0.0792 -0.8677
  682MOL0     H89975  -0.487   7.801   4.755  1.8238  1.2833 -1.6522
  682MOL0     H89976  -0.538   7.635   4.769  1.1822 -1.0033  0.3456
  682MOL0     H89977  -0.296   7.846   4.525 -1.7359  0.7907  1.2281
  682MOL0     H89978  -0.387   7.794   4.162  0.1579  0.7328 -0.0853
  682MOL0     H89979  -0.314   7.912   4.270  0.7516  0.0244 -1.0193
  682MOL0     H89980  -0.495   8.042   4.175 -2.4405  0.8154  1.1173
  682MOL0     H89981  -0.599   7.950   4.290  0.8625  0.2119  1.3963
  682MOL0     H89982  -0.528   7.886   3.985  1.0601 -2.6908 -0.9079
  682MOL0     H89983  -0.605   7.773   4.087  0.9952  0.5867  0.7741
  682MOL0     H89984  -0.794   7.934   4.127  0.8731  0.0985  0.9709
  682MOL0     H89985  -0.767   7.894   3.954  0.1036  1.2074 -0.6352
  682MOL0     H89986  -0.739   8.176   3.749 -0.1472  0.6485 -1.0636
  682MOL0     H89987  -0.931   8.295   3.689 -1.8312  0.9620  0.5338
  682MOL0     H89988  -1.436   8.347   3.747  1.0766  2.0276 -1.5146
  682MOL0     H89989  -1.607   8.497   3.687 -1.4347 -1.0714  3.7871
  682MOL0     H89990  -1.769   8.609   3.919 -1.1055  1.5974  1.6976
  682MOL0     H89991  -1.792   8.603   3.742 -4.2426  1.6171 -0.7655
  682MOL0     H89992  -1.899   8.824   3.908  1.7854  3.7826 -1.3393
  682MOL0     H89993  -1.989   8.683   3.825  2.5221 -2.1223 -1.9554
  682MOL0     H89994  -1.911   8.776   3.603 -0.1413  1.5526 -0.4597
  682MOL0     H89995  -1.835   8.912   3.693 -1.6817  1.3591 -1.8137
  682MOL0     H89996  -2.124   8.868   3.726  1.6355 -2.1491 -0.7188
  682MOL0     H89997  -2.032   9.010   3.763 -1.6867  1.7706 -0.7603
  682MOL0     H89998  -2.043   8.917   3.475 -1.4587  2.8845 -4.1711
  682MOL0     H89999  -1.969   9.056   3.547 -0.4052  0.6692 -0.4093
  682MOL0     H90000  -2.178   9.126   3.427  1.0514  1.9734  2.0801
  682MOL0     H90001  -2.249   9.102   3.591  0.1094 -1.0556  0.6583
  682MOL0     H90002  -2.224   8.877   3.375  0.2952 -2.0473 -0.2689
  682MOL0     H90003  -2.307   8.858   3.527  1.5414 -2.0957 -2.8578
  682MOL0     H90004  -2.399   9.085   3.361 -1.4093 -0.2136 -2.9594
  682MOL0     H90005  -2.488   8.999   3.488 -2.6916 -1.5784 -2.3410
  682MOL0     H90006  -1.484   8.765   3.993  2.1441 -1.0346  2.1436
  682MOL0     H90007  -1.302   8.605   4.057  0.9644 -1.1311 -1.2587
  682MOL0     H90008  -1.056   8.304   4.096  0.4657 -0.3418  1.3320
  682MOL0     H90009  -0.876   8.195   4.173 -0.8039 -1.4399 -0.1074
  682MOL0     H90010   0.104   7.265   5.394 -1.7645 -1.7796 -2.7915
  682MOL0     H90011   0.346   7.240   5.447  2.7371  1.4709 -0.8082
  682MOL0     H90012   0.765   7.381   5.394  2.5581  0.6439  2.9897
  682MOL0     H90013   0.978   7.338   5.480 -2.5600  0.7456  2.0956
  682MOL0     H90014   1.152   7.285   5.597 -1.6508  1.0045 -1.6531
  682MOL0     H90015   1.232   7.245   5.440 -2.6135 -2.6381 -2.6235
  682MOL0     H90016   1.263   7.035   5.669  1.5897  0.3712  1.0515
  682MOL0     H90017   1.345   7.046   5.522  0.5693  0.2203 -0.2417
  682MOL0     H90018   1.359   7.285   5.698 -1.8179 -0.9330  0.6698
  682MOL0     H90019   1.468   7.227   5.579  2.9348 -0.9151  1.3360
  682MOL0     H90020   1.435   7.110   5.857  0.8230  2.5565 -0.0333
  682MOL0     H90021   1.501   7.007   5.729 -1.5921  0.1114 -2.1890
  682MOL0     H90022   1.832   7.253   5.806 -1.1498  0.6505  0.8823
  682MOL0     H90023   0.963   6.937   5.363  0.3725  0.9777 -0.1407
  682MOL0     H90024   0.747   6.974   5.247 -0.2789 -2.1883  1.1926
  683MOL0     O90025   8.366   7.365   9.200 -0.2773  0.5535  0.4268
  683MOL0     C90026   8.376   7.472   9.134 -1.1047  0.6722 -0.5127
  683MOL0     O90027   8.271   7.536   9.070 -0.7104  0.0638  0.0875
  683MOL0     C90028   8.146   7.492   9.097 -0.1731 -0.8062 -0.4656
  683MOL0     C90029   8.101   7.464   9.229 -0.1849  0.0734 -0.3159
  683MOL0     C90030   7.959   7.429   9.248 -0.5862  0.1773  0.0332
  683MOL0     C90031   7.863   7.431   9.147 -0.1233 -1.9080  1.2049
  683MOL0     O90032   7.722   7.436   9.161  0.1377  0.4102  0.5193
  683MOL0     C90033   7.675   7.465   9.299 -0.1083 -0.3621  0.2816
  683MOL0     C90034   7.530   7.491   9.284 -0.3406 -0.3240  1.2960
  683MOL0     C90035   7.461   7.536   9.409 -0.2257  0.5674 -1.2573
  683MOL0     C90036   7.319   7.587   9.397 -0.6521  0.4722  0.1336
  683MOL0     C90037   7.257   7.588   9.540  0.2986  0.2815 -0.3276
  683MOL0     C90038   7.141   7.698   9.545 -1.1438 -0.0736 -0.4734
  683MOL0     C90039   7.041   7.676   9.660  1.3531 -0.2911 -0.6702
  683MOL0     C90040   6.915   7.768   9.671 -1.0874  0.4075 -0.4305
  683MOL0     N90041   6.866   7.783   9.533 -0.4722 -0.3099  0.4910
  683MOL0     C90042   6.870   7.895   9.458 -1.0195 -0.6044 -0.9064
  683MOL0     C90043   6.794   7.870   9.352  0.2841 -0.2671  0.7746
  683MOL0     C90044   6.760   7.958   9.238 -0.7821 -0.1612  0.5231
  683MOL0     C90045   6.633   8.046   9.258  0.1302  0.6239  0.1837
  683MOL0     C90046   6.499   7.967   9.244  0.0321 -0.0536 -0.3790
  683MOL0     C90047   6.382   8.047   9.289  0.0596 -0.3727  0.0302
  683MOL0     O90048   6.262   7.989   9.226 -0.4599  0.2382  0.0632
  683MOL0     C90049   6.133   8.004   9.267  0.1441 -0.0632  0.2333
  683MOL0     C90050   6.048   7.909   9.219 -0.0548 -0.8783  0.1594
  683MOL0     C90051   5.916   7.899   9.276  0.3609  0.6147 -0.5953
  683MOL0     C90052   5.869   7.991   9.372  0.1883  0.0838 -0.4250
  683MOL0     C90053   5.732   7.976   9.430  0.4132  0.7163  0.0966
  683MOL0     O90054   5.715   8.029   9.550  1.0167  1.0012 -0.0271
  683MOL0     C90055   5.598   7.995   9.611 -0.2522  0.3907  0.2753
  683MOL0     C90056   5.615   7.969   9.743  0.3019  0.2987 -0.0353
  683MOL0     C90057   5.501   7.942   9.825 -0.4192 -0.0508 -0.6211
  683MOL0     C90058   5.373   7.948   9.767  0.5609 -0.0850 -0.1696
  683MOL0     O90059   5.273   7.913   9.852  0.3750 -0.3411  0.1341
  683MOL0     C90060   5.131   7.940   9.828 -0.2217  0.3716 -1.2100
  683MOL0     C90061   5.054   7.894   9.960  0.2534  0.4194  0.2111
  683MOL0     C90062   4.907   7.868   9.928 -0.2696  0.9554 -0.7475
  683MOL0     C90063   4.837   8.000   9.900  0.2018  1.1199  0.6930
  683MOL0     C90064   4.676   7.983   9.886 -0.7895 -0.2582 -0.0431
  683MOL0     C90065   4.603   7.926  10.011 -0.3871 -0.5094  0.6768
  683MOL0     C90066   4.448   7.932   9.985 -0.3409  0.0524  0.2789
  683MOL0     C90067   4.401   8.075  10.020 -0.5618 -1.3308 -0.0675
  683MOL0    Cl90068   4.390   8.086  10.200  0.0486  0.2075  0.3578
  683MOL0     C90069   5.358   7.997   9.644  0.6886  0.1722  0.3780
  683MOL0     C90070   5.471   8.018   9.561  0.3335 -0.4737 -0.2925
  683MOL0     O90071   5.661   7.908   9.361  0.7010  0.6801 -0.2408
  683MOL0     C90072   5.957   8.095   9.416 -0.0338 -0.3631  1.2941
  683MOL0     C90073   6.088   8.101   9.357 -1.2574 -1.0036 -0.1433
  683MOL0     N90074   6.744   7.741   9.362 -0.3403 -0.7748  0.2754
  683MOL0     N90075   6.781   7.699   9.478  0.5557 -0.0524 -0.4803
  683MOL0     C90076   7.917   7.440   9.014  0.6304  1.0344 -0.1809
  683MOL0     C90077   8.055   7.471   8.991 -0.0246 -0.3680  0.8025
  683MOL0     C90078   8.510   7.521   9.101 -0.5081 -0.0106 -0.5006
  683MOL0     C90079   8.624   7.443   9.112 -0.0386  0.4775 -0.5270
  683MOL0     C90080   8.749   7.509   9.111  0.8121  0.2880  0.1624
  683MOL0     C90081   8.774   7.645   9.085  0.6042  0.3882 -1.1303
  683MOL0     O90082   8.898   7.707   9.068  0.6547  1.1965  0.2361
  683MOL0     C90083   9.018   7.647   9.128  1.2460 -0.1067  0.5669
  683MOL0     C90084   9.098   7.589   9.020 -0.2849  0.0209 -0.1211
  683MOL0     C90085   9.192   7.689   8.948  0.2152 -0.4583 -0.0474
  683MOL0     C90086   9.270   7.638   8.831 -0.5501  0.5560 -0.4671
  683MOL0     C90087   9.360   7.750   8.796 -1.1969  0.1768  0.6627
  683MOL0     C90088   9.430   7.850   8.785 -0.4418  0.0110 -0.2545
  683MOL0     C90089   8.663   7.717   9.049  0.0825  0.1358  0.7783
  683MOL0     C90090   8.538   7.660   9.071  0.1631 -0.3992 -0.8467
  683MOL0     H90091   8.164   7.473   9.316  0.0741  0.4224 -0.5389
  683MOL0     H90092   7.928   7.432   9.352 -3.0215  0.4401 -0.6290
  683MOL0     H90093   7.723   7.555   9.337  0.4738 -0.1620 -0.8818
  683MOL0     H90094   7.690   7.375   9.360 -0.2896  0.1931  1.1499
  683MOL0     H90095   7.482   7.397   9.257  0.9537 -0.4983 -0.6203
  683MOL0     H90096   7.523   7.564   9.202 -1.2694 -2.2956 -0.4771
  683MOL0     H90097   7.529   7.586   9.479 -0.7241 -1.2378  0.6255
  683MOL0     H90098   7.448   7.441   9.462 -3.3474  1.3529 -0.3983
  683MOL0     H90099   7.319   7.690   9.361 -0.5590  0.5122  0.2476
  683MOL0     H90100   7.253   7.528   9.333 -3.1427  1.5397  1.5650
  683MOL0     H90101   7.333   7.603   9.617 -0.3113 -3.6752  1.2891
  683MOL0     H90102   7.215   7.488   9.556  0.5948 -0.2620 -2.5404
  683MOL0     H90103   7.095   7.706   9.446 -0.4980 -0.4141 -0.8074
  683MOL0     H90104   7.199   7.788   9.568  0.4605 -1.4647  1.3393
  683MOL0     H90105   7.009   7.572   9.649 -0.5009  0.3573 -2.0705
  683MOL0     H90106   7.092   7.703   9.753 -1.9765  0.7429  1.0541
  683MOL0     H90107   6.939   7.860   9.726  0.1871 -0.7476  1.0533
  683MOL0     H90108   6.828   7.720   9.718 -0.1804  0.2992  1.2136
  683MOL0     H90109   6.933   7.980   9.481 -1.4664 -0.0544 -1.6666
  683MOL0     H90110   6.751   7.910   9.140  0.6150  2.8841 -1.2585
  683MOL0     H90111   6.840   8.030   9.219  2.5899 -3.5791  0.6644
  683MOL0     H90112   6.623   8.120   9.179 -1.6757 -1.3599 -1.5813
  683MOL0     H90113   6.626   8.105   9.350  0.4156  0.1465  0.5199
  683MOL0     H90114   6.506   7.935   9.140  3.4577 -0.0400 -0.2685
  683MOL0     H90115   6.512   7.878   9.307  1.0475 -1.2395 -2.1843
  683MOL0     H90116   6.393   8.155   9.272 -3.3076 -0.0139 -0.6838
  683MOL0     H90117   6.382   8.043   9.399  4.2271  3.1782  0.4316
  683MOL0     H90118   6.073   7.834   9.145 -4.5369 -0.8518 -1.7406
  683MOL0     H90119   5.840   7.826   9.256  0.3520 -1.7635  5.7219
  683MOL0     H90120   5.715   7.956   9.784 -0.7582 -2.0502  2.1295
  683MOL0     H90121   5.511   7.922   9.931  3.1568 -1.1337 -1.0401
  683MOL0     H90122   5.103   7.880   9.741 -0.3908 -0.1549 -0.7986
  683MOL0     H90123   5.111   8.047   9.816 -1.4676  0.5487  1.6253
  683MOL0     H90124   5.067   7.975  10.032 -1.1634  1.0028 -0.1646
  683MOL0     H90125   5.100   7.801   9.995  2.7557  1.5393  0.1179
  683MOL0     H90126   4.863   7.828  10.021  0.0967  2.3623  0.0624
  683MOL0     H90127   4.886   7.796   9.848 -0.7959 -0.0954  0.2880
  683MOL0     H90128   4.867   8.070   9.978  0.3400 -1.7828  3.4217
  683MOL0     H90129   4.875   8.026   9.800  1.7417 -1.2886  0.5683
  683MOL0     H90130   4.664   7.909   9.806  1.8774 -0.2080 -0.5824
  683MOL0     H90131   4.632   8.075   9.846 -0.0275  0.9109  1.7275
  683MOL0     H90132   4.635   7.967  10.107 -1.0830 -2.0382  1.6063
  683MOL0     H90133   4.635   7.822  10.001  2.8030  0.6356 -3.4384
  683MOL0     H90134   4.416   7.912   9.882 -0.3669  0.6059  0.1754
  683MOL0     H90135   4.399   7.858  10.048 -0.1050  0.1624  0.5913
  683MOL0     H90136   4.300   8.091   9.983 -2.9701 -4.2354  4.3270
  683MOL0     H90137   4.474   8.150   9.987 -0.0478 -0.9039  1.8992
  683MOL0     H90138   5.263   8.011   9.596  0.9553 -2.8948 -1.3278
  683MOL0     H90139   5.471   8.053   9.458 -0.0462 -0.7779 -0.4002
  683MOL0     H90140   5.919   8.173   9.480  2.6769  1.2624  1.0748
  683MOL0     H90141   6.160   8.176   9.389  0.2665 -2.7381  0.7512
  683MOL0     H90142   7.843   7.426   8.936 -1.1438 -1.5727  1.7791
  683MOL0     H90143   8.096   7.499   8.894 -2.3210  2.2658  0.4473
  683MOL0     H90144   8.611   7.339   9.142  0.0873  0.4325 -0.6264
  683MOL0     H90145   8.832   7.442   9.133 -0.5282 -1.3546  0.4625
  683MOL0     H90146   8.983   7.579   9.206 -1.0352  0.3086 -0.0220
  683MOL0     H90147   9.077   7.724   9.179  1.2886 -2.3352  4.1570
  683MOL0     H90148   9.153   7.504   9.061  2.5246  1.3186 -1.0125
  683MOL0     H90149   9.028   7.545   8.948  1.2531 -2.3763 -0.2579
  683MOL0     H90150   9.262   7.744   9.011  1.4351 -0.3722 -1.4242
  683MOL0     H90151   9.131   7.771   8.907  3.4751  0.6537 -3.1750
  683MOL0     H90152   9.333   7.556   8.867 -0.3905  0.0565 -1.8447
  683MOL0     H90153   9.212   7.610   8.743 -0.1178  1.8550 -1.1972
  683MOL0     H90154   9.476   7.946   8.769 -0.8436  0.8494  2.8684
  683MOL0     H90155   8.666   7.821   9.022  0.0752 -0.4223 -1.5419
  683MOL0     H90156   8.451   7.726   9.065 -0.1348 -0.5830  1.0006
  684MOL0     O90157   4.201   8.797   8.337  0.2817 -1.0875  0.5663
  684MOL0     C90158   4.208   8.917   8.350  0.6719 -1.1688 -0.3346
  684MOL0     O90159   4.104   9.010   8.383 -0.0395  0.5183 -0.1370
  684MOL0     C90160   4.001   8.957   8.452  0.3602  1.0551 -0.0689
  684MOL0     C90161   3.874   9.008   8.417 -0.6336 -0.2934 -0.7917
  684MOL0     C90162   3.758   8.962   8.479  0.0863  1.0612 -0.2132
  684MOL0     C90163   3.769   8.884   8.599 -0.6502 -0.3385 -0.6650
  684MOL0     O90164   3.656   8.846   8.666 -0.8937 -0.6293  0.2857
  684MOL0     C90165   3.659   8.911   8.799 -1.0505 -0.0012  0.1186
  684MOL0     C90166   3.528   8.966   8.852 -0.2333 -0.3082  0.9512
  684MOL0     C90167   3.427   8.858   8.881  0.3689 -0.3801  0.5121
  684MOL0     C90168   3.316   8.914   8.965  0.4011  0.0548 -0.2219
  684MOL0     C90169   3.208   8.818   9.020 -0.1214  0.2588 -0.1815
  684MOL0     C90170   3.105   8.869   9.122  0.2546 -0.4703 -0.0114
  684MOL0     C90171   3.045   9.008   9.092 -0.1702  1.0140  0.0638
  684MOL0     C90172   2.936   8.994   8.984  0.1961 -0.4124  0.9167
  684MOL0     N90173   2.829   8.915   9.031 -0.2929  0.0832  0.3149
  684MOL0     C90174   2.811   8.778   9.017 -0.2442  0.2182 -0.5724
  684MOL0     C90175   2.687   8.763   9.072  0.4660 -0.3063 -0.0906
  684MOL0     C90176   2.626   8.635   9.094  0.2070 -0.1677  0.2260
  684MOL0     C90177   2.699   8.545   9.200 -0.4062 -0.2714 -0.2157
  684MOL0     C90178   2.640   8.397   9.205  0.4275  0.3247 -0.2802
  684MOL0     C90179   2.709   8.302   9.108  0.1008 -0.1300 -0.3135
  684MOL0     O90180   2.849   8.278   9.147 -0.0737 -1.1358 -0.3216
  684MOL0     C90181   2.960   8.331   9.078  0.8514 -0.3700  0.6700
  684MOL0     C90182   2.961   8.417   8.958 -0.5967  0.1503 -0.2953
  684MOL0     C90183   3.081   8.459   8.912 -0.1855  0.0127 -0.4299
  684MOL0     C90184   3.204   8.397   8.957 -0.0119 -0.2934  1.3932
  684MOL0     C90185   3.332   8.458   8.912  0.3654 -0.6173 -0.4712
  684MOL0     O90186   3.442   8.423   8.984  0.0405  0.6436 -0.0981
  684MOL0     C90187   3.571   8.435   8.936  0.0669 -0.2988  0.0071
  684MOL0     C90188   3.669   8.384   9.021  0.1509 -0.1778  0.4022
  684MOL0     C90189   3.803   8.406   8.998 -0.1854 -0.3756  0.3728
  684MOL0     C90190   3.847   8.471   8.878  0.3260 -0.7724 -0.2767
  684MOL0     O90191   3.986   8.487   8.856  0.4785  1.2197  0.0337
  684MOL0     C90192   4.015   8.603   8.929  0.0834  0.2772 -0.2253
  684MOL0     C90193   4.163   8.660   8.892  0.1942 -0.1790 -0.4553
  684MOL0     C90194   4.275   8.591   8.968  0.4956  0.2075 -0.7373
  684MOL0     C90195   4.417   8.652   8.932 -0.7532 -0.0517 -0.2879
  684MOL0     C90196   4.539   8.588   9.003 -0.7931 -0.6017 -0.4734
  684MOL0     C90197   4.676   8.625   8.941 -0.2762  0.3703 -0.3065
  684MOL0     C90198   4.791   8.601   9.048 -0.6692  0.8810  0.1744
  684MOL0     C90199   4.926   8.606   8.977 -0.6441 -0.5611  0.5855
  684MOL0    Cl90200   4.936   8.479   8.844  0.0634  0.0293 -0.4111
  684MOL0     C90201   3.748   8.524   8.797  0.0311 -0.2224  0.3857
  684MOL0     C90202   3.615   8.486   8.816  0.5622 -0.7433  0.9980
  684MOL0     O90203   3.332   8.532   8.813 -0.2078  0.0958  0.6563
  684MOL0     C90204   3.202   8.305   9.064 -0.6983  0.7168  0.8569
  684MOL0     C90205   3.081   8.278   9.125  1.0377 -0.7828 -0.4875
  684MOL0     N90206   2.635   8.886   9.111  0.2260 -0.6309  0.1393
  684MOL0     N90207   2.719   8.977   9.093 -1.1655 -0.2003  0.7390
  684MOL0     C90208   3.902   8.848   8.644  0.5385  0.6814 -0.6345
  684MOL0     C90209   4.018   8.885   8.574  0.1968  0.2546 -0.4367
  684MOL0     C90210   4.338   8.972   8.304 -0.3134 -0.5400  0.2306
  684MOL0     C90211   4.457   8.908   8.326 -0.9021  0.5389 -0.5490
  684MOL0     C90212   4.585   8.959   8.298  0.0922 -0.1133 -0.0136
  684MOL0     C90213   4.586   9.079   8.223  0.1195 -0.2009  0.3376
  684MOL0     O90214   4.700   9.141   8.194  0.4593 -0.8333  0.5740
  684MOL0     C90215   4.823   9.122   8.271 -0.7207  0.4757 -0.4508
  684MOL0     C90216   4.929   9.218   8.213 -0.0691  0.5818  1.0827
  684MOL0     C90217   4.928   9.244   8.061 -0.2764 -0.2632  0.0880
  684MOL0     C90218   5.051   9.330   8.025 -0.1827 -0.2914 -0.1354
  684MOL0     C90219   5.009   9.411   7.904  1.3252  0.4290 -0.5965
  684MOL0     C90220   4.973   9.467   7.808 -0.0927  0.3022  0.2770
  684MOL0     C90221   4.463   9.145   8.194 -0.5214 -0.2308 -0.0080
  684MOL0     C90222   4.344   9.090   8.238 -0.3192 -0.5787  0.0455
  684MOL0     H90223   3.878   9.071   8.329  1.4277 -0.3885 -0.8111
  684MOL0     H90224   3.658   8.992   8.451  0.0346  0.5085 -0.6389
  684MOL0     H90225   3.724   8.999   8.792  1.2486 -1.4679  1.6379
  684MOL0     H90226   3.703   8.846   8.875  1.6233  1.1879 -0.2785
  684MOL0     H90227   3.481   9.045   8.792  0.0064  1.3445  2.8455
  684MOL0     H90228   3.553   9.016   8.946  1.1575  1.1833 -0.1630
  684MOL0     H90229   3.479   8.774   8.929  2.6371 -1.1754 -2.9418
  684MOL0     H90230   3.394   8.805   8.791 -0.3400  1.4229 -0.3231
  684MOL0     H90231   3.347   8.969   9.054 -0.5229  4.2294 -2.2230
  684MOL0     H90232   3.266   8.993   8.908 -0.8160  0.3070  1.1507
  684MOL0     H90233   3.258   8.733   9.067  1.4716  1.8797  1.1953
  684MOL0     H90234   3.151   8.788   8.931 -0.1141 -2.1619  0.5574
  684MOL0     H90235   3.161   8.896   9.212 -0.6509  1.5429  0.0148
  684MOL0     H90236   3.027   8.798   9.150 -1.1810  0.9471 -0.2917
  684MOL0     H90237   3.018   9.060   9.184  3.3095  0.0174  1.8131
  684MOL0     H90238   3.128   9.071   9.056  1.0117  0.4737  1.7433
  684MOL0     H90239   2.979   8.949   8.894 -1.4680 -0.3685  0.0780
  684MOL0     H90240   2.896   9.088   8.946 -0.9247 -1.7899 -1.5464
  684MOL0     H90241   2.879   8.701   8.984  2.9310  2.1026  1.0672
  684MOL0     H90242   2.622   8.588   8.996 -1.1877  0.1933  0.0952
  684MOL0     H90243   2.523   8.667   9.112  0.5541  2.4827 -1.8726
  684MOL0     H90244   2.702   8.597   9.297  1.9890 -0.6320 -0.0351
  684MOL0     H90245   2.807   8.542   9.181 -0.5781 -1.1704 -1.0636
  684MOL0     H90246   2.663   8.361   9.305 -1.3126  0.7475  0.3013
  684MOL0     H90247   2.531   8.405   9.195  0.5110  1.4624 -0.4139
  684MOL0     H90248   2.698   8.345   9.008 -0.6650 -1.1316 -0.6814
  684MOL0     H90249   2.665   8.201   9.106  4.5602 -2.3851  1.0295
  684MOL0     H90250   2.869   8.459   8.918 -0.2425  0.7121 -0.5302
  684MOL0     H90251   3.078   8.537   8.836  1.6607  0.4478 -0.1109
  684MOL0     H90252   3.638   8.342   9.116  1.7141 -2.4657 -0.0294
  684MOL0     H90253   3.883   8.376   9.065  1.5787 -0.3014 -1.5771
  684MOL0     H90254   4.006   8.584   9.036  0.7135 -2.1889 -0.5517
  684MOL0     H90255   3.938   8.677   8.906 -1.8975 -0.9308  2.0418
  684MOL0     H90256   4.164   8.768   8.909 -1.1380 -0.3013  0.5865
  684MOL0     H90257   4.187   8.639   8.788 -0.6051 -1.7972 -0.3392
  684MOL0     H90258   4.281   8.484   8.949 -0.2031 -1.0290  4.4189
  684MOL0     H90259   4.257   8.593   9.076 -0.4373 -0.4490 -0.8730
  684MOL0     H90260   4.431   8.637   8.824 -2.6522  1.1046 -0.7368
  684MOL0     H90261   4.398   8.759   8.938 -2.5476 -0.0689 -3.5011
  684MOL0     H90262   4.519   8.482   9.024  2.4099 -1.4563 -1.1880
  684MOL0     H90263   4.539   8.638   9.101  0.2570  0.6084 -1.0624
  684MOL0     H90264   4.676   8.732   8.917  0.2889  1.4106  3.5762
  684MOL0     H90265   4.686   8.564   8.851  1.4298  0.3120 -0.1058
  684MOL0     H90266   4.790   8.671   9.132  2.8350  2.9358 -1.2443
  684MOL0     H90267   4.770   8.501   9.089 -2.7158  0.2755 -2.1708
  684MOL0     H90268   5.004   8.583   9.050  1.3921  0.9870 -0.9682
  684MOL0     H90269   4.944   8.705   8.936  0.5582  0.8721  4.1790
  684MOL0     H90270   3.788   8.558   8.702  1.8714 -0.2286  1.1190
  684MOL0     H90271   3.548   8.508   8.733 -0.2465 -0.2485  1.7713
  684MOL0     H90272   3.298   8.270   9.099  0.8879  1.6791 -2.1807
  684MOL0     H90273   3.085   8.236   9.225 -0.9958  0.0825  0.0127
  684MOL0     H90274   3.919   8.787   8.732 -0.4885  2.0243  0.5477
  684MOL0     H90275   4.113   8.848   8.610  1.1548  2.8463 -0.1016
  684MOL0     H90276   4.461   8.810   8.373 -0.2541  0.4197 -0.8398
  684MOL0     H90277   4.670   8.901   8.333  0.6898  1.2494  0.8966
  684MOL0     H90278   4.847   9.015   8.266  2.1983  1.0171  0.2023
  684MOL0     H90279   4.804   9.151   8.375 -2.1254  0.8685 -0.7866
  684MOL0     H90280   4.907   9.316   8.256 -0.9261  0.4958  0.8540
  684MOL0     H90281   5.028   9.194   8.254  2.3385  2.8747 -2.7940
  684MOL0     H90282   4.840   9.305   8.038 -0.0971  0.5480  1.4443
  684MOL0     H90283   4.922   9.151   8.005 -1.2992 -0.0790 -0.1260
  684MOL0     H90284   5.094   9.393   8.104  1.0760  2.5660 -2.8774
  684MOL0     H90285   5.128   9.261   7.989  0.7580  1.1257 -0.9740
  684MOL0     H90286   4.937   9.531   7.730 -1.8957 -2.4993 -1.3838
  684MOL0     H90287   4.474   9.238   8.139  1.5266 -2.1592 -3.2007
  684MOL0     H90288   4.249   9.140   8.223 -0.3759 -0.2881  1.2316
  685MOL0     O90289   2.528   1.812   1.085 -0.9282  0.5037 -0.6533
  685MOL0     C90290   2.494   1.910   1.147 -0.1824  0.5470  0.6154
  685MOL0     O90291   2.368   1.958   1.146 -0.0939 -0.2681  0.6719
  685MOL0     C90292   2.281   1.899   1.054 -0.1832 -0.0869 -0.0442
  685MOL0     C90293   2.231   1.769   1.077 -1.6176 -0.0794  0.0425
  685MOL0     C90294   2.148   1.722   0.977 -0.4899  0.2801 -0.3081
  685MOL0     C90295   2.095   1.802   0.874 -0.4290  0.0948  0.2157
  685MOL0     O90296   2.006   1.749   0.775  0.1920 -0.5775  0.5012
  685MOL0     C90297   1.937   1.632   0.804  0.4853  0.2355  0.4009
  685MOL0     C90298   1.804   1.622   0.724 -0.5316 -0.7030 -0.3172
  685MOL0     C90299   1.702   1.738   0.752  0.2862  0.1747 -0.3215
  685MOL0     C90300   1.569   1.704   0.679  0.7076  0.3534 -0.5669
  685MOL0     C90301   1.479   1.822   0.649  0.7150  0.0763  1.0194
  685MOL0     C90302   1.349   1.776   0.589 -0.2401  0.1914 -0.0947
  685MOL0     C90303   1.258   1.882   0.527 -0.4269 -0.2707 -0.1908
  685MOL0     C90304   1.214   1.994   0.614 -0.0286  0.0356 -0.2719
  685MOL0     N90305   1.096   1.950   0.690  0.6665  0.2408  0.5217
  685MOL0     C90306   1.015   2.044   0.748  0.3694 -0.0086  0.0519
  685MOL0     C90307   0.933   1.967   0.820 -0.1163 -0.0622  0.2304
  685MOL0     C90308   0.815   2.024   0.888 -0.0181  0.6281 -0.0308
  685MOL0     C90309   0.728   1.926   0.965 -0.1327 -0.6249 -0.2268
  685MOL0     C90310   0.592   2.001   1.014 -0.8070 -0.5380 -0.4685
  685MOL0     C90311   0.503   1.904   1.096  0.4440 -0.1950  0.3478
  685MOL0     O90312   0.464   1.793   1.012 -0.0479  0.2683 -0.9783
  685MOL0     C90313   0.419   1.678   1.071  0.2544 -0.3152 -0.1579
  685MOL0     C90314   0.417   1.565   0.993  0.1728 -0.1927  0.4092
  685MOL0     C90315   0.353   1.441   1.036  0.2646  0.1475 -0.9159
  685MOL0     C90316   0.291   1.443   1.165 -0.3458  0.4030  0.3805
  685MOL0     C90317   0.202   1.330   1.216 -0.3033 -0.9369  0.2331
  685MOL0     O90318   0.131   1.267   1.127  0.1554  0.7262  0.4541
  685MOL0     C90319   0.039   1.165   1.170 -0.4786 -0.0821  0.4756
  685MOL0     C90320   0.019   1.059   1.083  0.0350  0.1061  0.4577
  685MOL0     C90321  -0.058   0.951   1.122  1.0427 -0.4586  0.0880
  685MOL0     C90322  -0.142   0.958   1.235  0.5275 -0.1181 -0.3331
  685MOL0     O90323  -0.242   0.874   1.270  0.3630  0.2763 -0.0652
  685MOL0     C90324  -0.286   0.776   1.175 -0.2801  0.8751  0.4458
  685MOL0     C90325  -0.380   0.680   1.247  0.6499  0.2793  0.2137
  685MOL0     C90326  -0.416   0.560   1.156  1.2053 -0.6007  0.0857
  685MOL0     C90327  -0.492   0.447   1.235  0.6969  1.0321  0.3639
  685MOL0     C90328  -0.504   0.337   1.133  0.7751 -0.2716 -0.0636
  685MOL0     C90329  -0.574   0.226   1.206 -1.1257 -0.3387 -0.8038
  685MOL0     C90330  -0.619   0.112   1.118 -1.6212  0.0574  0.2038
  685MOL0     C90331  -0.735   0.145   1.025  0.8459 -0.2260  0.0602
  685MOL0    Cl90332  -0.847   0.226   1.125  0.3085  0.0919 -0.5562
  685MOL0     C90333  -0.133   1.069   1.318 -0.4956 -0.6545  0.4658
  685MOL0     C90334  -0.052   1.175   1.286 -1.0609 -0.0924 -0.3422
  685MOL0     O90335   0.203   1.299   1.334  0.7910  0.6974 -0.3567
  685MOL0     C90336   0.301   1.555   1.245  0.0298  0.6985  0.0571
  685MOL0     C90337   0.365   1.669   1.194  0.3303  0.1332  0.1000
  685MOL0     N90338   0.939   1.833   0.787 -0.1401 -1.0187 -0.9017
  685MOL0     N90339   1.044   1.819   0.715  0.7410 -1.1443  1.3020
  685MOL0     C90340   2.133   1.939   0.873  0.5222  0.1969  0.5059
  685MOL0     C90341   2.229   1.983   0.961  0.2736 -0.2635 -0.3369
  685MOL0     C90342   2.606   1.976   1.210 -1.3408  0.1575  0.3882
  685MOL0     C90343   2.580   2.041   1.327  0.9060  0.0507 -0.1096
  685MOL0     C90344   2.680   2.091   1.416  0.2148  0.4808  0.7091
  685MOL0     C90345   2.807   2.089   1.376 -0.2145  0.7893 -0.5911
  685MOL0     O90346   2.896   2.138   1.468 -0.3031  0.0339  0.0912
  685MOL0     C90347   3.038   2.115   1.433  0.1527 -0.3132  0.1103
  685MOL0     C90348   3.119   2.106   1.567 -0.5252 -0.6476  0.9010
  685MOL0     C90349   3.092   1.984   1.659  0.2482  0.3333 -0.5739
  685MOL0     C90350   3.200   1.978   1.773  0.2786 -0.0684 -0.5028
  685MOL0     C90351   3.201   1.845   1.830 -0.5847 -0.5842 -0.1170
  685MOL0     C90352   3.204   1.738   1.885 -0.4575  0.9040 -0.0595
  685MOL0     C90353   2.840   2.041   1.246 -0.1995 -0.4005 -0.1497
  685MOL0     C90354   2.745   1.967   1.171 -0.0103 -1.0393  0.2121
  685MOL0     H90355   2.264   1.707   1.159 -0.6978 -0.8105 -0.8612
  685MOL0     H90356   2.129   1.617   0.998  0.9015  0.5172  2.5427
  685MOL0     H90357   1.921   1.621   0.912  1.1109  1.6841  0.6682
  685MOL0     H90358   1.998   1.545   0.778  1.2392  0.5732  1.0200
  685MOL0     H90359   1.764   1.523   0.749 -0.1960 -0.3946  1.5351
  685MOL0     H90360   1.833   1.617   0.618 -0.3215  1.6847 -0.4197
  685MOL0     H90361   1.752   1.830   0.720  0.7575  0.0583  0.0663
  685MOL0     H90362   1.688   1.742   0.860 -0.4616  1.9611 -0.4396
  685MOL0     H90363   1.592   1.654   0.584 -0.9192 -3.6087  0.9018
  685MOL0     H90364   1.519   1.636   0.749 -0.5172  0.9813 -0.8107
  685MOL0     H90365   1.512   1.900   0.580  0.9016 -0.7727  0.1260
  685MOL0     H90366   1.460   1.881   0.739  1.4265  1.0493  0.5525
  685MOL0     H90367   1.287   1.731   0.667 -2.4284  1.5100 -0.9610
  685MOL0     H90368   1.375   1.705   0.509  2.1330  0.2076  0.5950
  685MOL0     H90369   1.327   1.924   0.453  0.5839 -0.4396  0.6365
  685MOL0     H90370   1.179   1.829   0.472  1.2076 -0.6483 -2.3101
  685MOL0     H90371   1.183   2.080   0.553 -3.5139  0.1821  1.4047
  685MOL0     H90372   1.290   2.037   0.680 -1.7175  2.1231  0.4475
  685MOL0     H90373   1.031   2.151   0.749 -0.9806  0.2166 -0.3634
  685MOL0     H90374   0.753   2.064   0.807 -0.7695 -2.7697 -1.3066
  685MOL0     H90375   0.850   2.103   0.954  4.4043 -0.9004 -0.1678
  685MOL0     H90376   0.772   1.887   1.057  1.9404  1.5431 -0.2096
  685MOL0     H90377   0.711   1.838   0.902  1.1794 -0.0386 -1.4450
  685MOL0     H90378   0.626   2.086   1.074  0.1070 -1.3265  0.1683
  685MOL0     H90379   0.535   2.039   0.929  0.1892  2.1779 -0.0244
  685MOL0     H90380   0.422   1.963   1.140  0.3521 -0.5274  0.6276
  685MOL0     H90381   0.564   1.867   1.179  0.8810  0.5293  0.3668
  685MOL0     H90382   0.463   1.571   0.895 -2.1070 -0.3502 -0.7363
  685MOL0     H90383   0.365   1.349   0.979 -3.5415  0.1662 -1.9836
  685MOL0     H90384   0.081   1.048   0.995 -0.2917 -0.3529  0.2832
  685MOL0     H90385  -0.057   0.864   1.056 -0.9057 -1.1824  0.9085
  685MOL0     H90386  -0.208   0.715   1.129 -3.3436 -0.5390 -3.4766
  685MOL0     H90387  -0.335   0.824   1.090  1.4277 -0.2869 -1.2854
  685MOL0     H90388  -0.475   0.724   1.280  0.0332 -0.4825 -0.4876
  685MOL0     H90389  -0.331   0.637   1.334 -3.3362 -1.6277  1.7460
  685MOL0     H90390  -0.325   0.527   1.105  1.2841 -1.0242  0.5022
  685MOL0     H90391  -0.482   0.604   1.080  3.8099  1.5412 -1.1197
  685MOL0     H90392  -0.433   0.407   1.318  0.1630 -3.7316 -1.2243
  685MOL0     H90393  -0.592   0.474   1.271 -0.0192  1.1258 -1.5804
  685MOL0     H90394  -0.407   0.310   1.089  0.1233 -1.2856 -0.9127
  685MOL0     H90395  -0.569   0.356   1.047 -1.0856 -1.7545  0.9496
  685MOL0     H90396  -0.659   0.257   1.268 -1.2288 -1.7828 -0.1857
  685MOL0     H90397  -0.503   0.182   1.277 -2.5117  1.6286  2.0295
  685MOL0     H90398  -0.537   0.085   1.050 -1.7627  0.1362  0.0004
  685MOL0     H90399  -0.654   0.029   1.179 -3.3685  0.9514  0.4761
  685MOL0     H90400  -0.763   0.051   0.975  2.1438  0.8780 -2.9394
  685MOL0     H90401  -0.706   0.212   0.944 -2.1454  1.7717  0.4632
  685MOL0     H90402  -0.209   1.080   1.395 -1.3089  1.3629 -0.5666
  685MOL0     H90403  -0.041   1.270   1.338  0.7313 -1.6739  2.4120
  685MOL0     H90404   0.254   1.564   1.343 -1.6406 -0.7440 -0.5588
  685MOL0     H90405   0.345   1.758   1.253 -2.9103 -1.2615  1.3560
  685MOL0     H90406   2.083   2.007   0.806 -1.8522  0.1888  2.1288
  685MOL0     H90407   2.262   2.087   0.960  0.5034 -0.3127 -2.3556
  685MOL0     H90408   2.479   2.047   1.366 -0.3950 -0.1541 -3.1762
  685MOL0     H90409   2.643   2.118   1.515 -1.9296 -1.8344  0.6489
  685MOL0     H90410   3.066   2.203   1.375  1.0975 -1.5230 -1.3307
  685MOL0     H90411   3.064   2.027   1.374  1.0932  1.3997 -2.1923
  685MOL0     H90412   3.223   2.094   1.535 -1.5739 -1.3147 -2.8254
  685MOL0     H90413   3.111   2.199   1.624 -1.5914 -1.1597  1.6203
  685MOL0     H90414   3.103   1.892   1.602  1.4442 -0.3482  0.6812
  685MOL0     H90415   2.993   1.994   1.704  0.0737  0.1033 -0.9066
  685MOL0     H90416   3.296   2.004   1.729  1.0818  2.4179  2.3800
  685MOL0     H90417   3.176   2.049   1.853  1.4326 -0.9201  0.6325
  685MOL0     H90418   3.209   1.649   1.945 -0.8490  0.6536 -0.3907
  685MOL0     H90419   2.938   2.043   1.200 -1.2055 -0.2018 -2.3946
  685MOL0     H90420   2.774   1.923   1.076 -0.9221  2.4196 -1.8338
  686MOL0     O90421   2.402   6.813   5.100  0.0924  0.3172  0.4593
  686MOL0     C90422   2.477   6.780   5.008  0.6448 -0.6208  0.6767
  686MOL0     O90423   2.451   6.687   4.912 -0.0303 -0.1743  0.4613
  686MOL0     C90424   2.320   6.637   4.928 -0.8718 -0.3968  0.0143
  686MOL0     C90425   2.294   6.542   5.027  0.0794 -0.1731 -0.1246
  686MOL0     C90426   2.161   6.493   5.040  0.1188 -0.7258  0.6181
  686MOL0     C90427   2.062   6.546   4.957 -0.6424  0.0385 -0.3555
  686MOL0     O90428   1.938   6.490   4.984 -0.0910  0.5122  0.8055
  686MOL0     C90429   1.822   6.528   4.903  0.7549  0.2603  0.3219
  686MOL0     C90430   1.713   6.442   4.962 -0.1941 -0.1577  0.6322
  686MOL0     C90431   1.587   6.443   4.874 -0.3406 -1.1511  0.9688
  686MOL0     C90432   1.483   6.342   4.924 -0.5886 -0.2463  0.6410
  686MOL0     C90433   1.379   6.352   4.813  0.5356  0.8602 -0.6785
  686MOL0     C90434   1.248   6.289   4.848  0.2755 -0.0137  0.5521
  686MOL0     C90435   1.132   6.289   4.737 -0.4906 -0.0677 -0.1705
  686MOL0     C90436   1.037   6.409   4.768  0.8724  0.8130  0.3565
  686MOL0     N90437   1.091   6.541   4.730  0.4437  0.3888 -0.6535
  686MOL0     C90438   1.168   6.617   4.818 -0.1137  0.7023  0.5288
  686MOL0     C90439   1.216   6.715   4.742  0.3431 -0.1709 -0.7622
  686MOL0     C90440   1.302   6.837   4.777  0.7499  0.2245 -0.1393
  686MOL0     C90441   1.443   6.802   4.825  0.3480  1.2552  0.2003
  686MOL0     C90442   1.532   6.929   4.851  0.0631 -0.2238 -0.6805
  686MOL0     C90443   1.675   6.907   4.874 -0.3247 -0.4789  0.0244
  686MOL0     O90444   1.727   7.032   4.868  0.1733 -0.7572 -0.0683
  686MOL0     C90445   1.844   7.062   4.928 -0.4725 -0.5432 -0.3614
  686MOL0     C90446   1.880   7.199   4.945  0.1604  0.0210  0.2594
  686MOL0     C90447   2.006   7.241   4.981  0.0138 -0.8898 -0.0351
  686MOL0     C90448   2.107   7.143   5.014 -0.3598  0.3269  0.6454
  686MOL0     C90449   2.235   7.190   5.052 -0.0695 -0.0402 -1.1379
  686MOL0     O90450   2.251   7.321   5.081  0.1774  0.3098 -0.8155
  686MOL0     C90451   2.378   7.361   5.101 -1.0356 -0.2336 -0.0381
  686MOL0     C90452   2.459   7.413   5.000  0.0520 -0.8577  0.1665
  686MOL0     C90453   2.580   7.471   5.022 -0.6647  0.0321  0.6171
  686MOL0     C90454   2.630   7.466   5.149 -0.8970 -0.8083 -0.7205
  686MOL0     O90455   2.756   7.523   5.168 -0.1044  0.4664 -0.0253
  686MOL0     C90456   2.808   7.539   5.299  0.3191  0.2165 -0.6813
  686MOL0     C90457   2.956   7.583   5.302 -0.5455  0.4230 -0.4371
  686MOL0     C90458   2.973   7.713   5.231  0.4612  0.1744  0.0161
  686MOL0     C90459   3.099   7.792   5.287 -0.1625  0.7810  0.2713
  686MOL0     C90460   3.098   7.941   5.243 -0.8234 -0.4196 -0.0393
  686MOL0     C90461   3.120   7.964   5.096 -0.4186 -0.4856  0.7210
  686MOL0     C90462   3.128   8.115   5.047  0.8638  0.4671 -1.1445
  686MOL0     C90463   3.269   8.172   5.060  0.6040 -0.6424 -0.2992
  686MOL0    Cl90464   3.298   8.323   4.963 -0.1165 -0.0180  0.0752
  686MOL0     C90465   2.560   7.416   5.257  0.5847  0.6132 -0.3025
  686MOL0     C90466   2.430   7.377   5.229  0.1947  0.0746 -0.6206
  686MOL0     O90467   2.330   7.112   5.033 -0.9287  0.4544 -0.1681
  686MOL0     C90468   2.074   7.011   5.007  0.3926 -0.6578  0.0114
  686MOL0     C90469   1.949   6.971   4.965  0.3409 -0.5821 -0.3471
  686MOL0     N90470   1.176   6.696   4.614 -0.1702 -0.4853  0.4346
  686MOL0     N90471   1.089   6.603   4.607 -0.6948  0.3940 -0.4401
  686MOL0     C90472   2.094   6.638   4.860 -0.4016  0.8516 -0.2779
  686MOL0     C90473   2.222   6.679   4.840  0.7611  0.1005  0.2487
  686MOL0     C90474   2.598   6.862   4.973  0.4983 -0.4505  0.2262
  686MOL0     C90475   2.611   6.990   5.034 -0.0712  0.4296  0.3566
  686MOL0     C90476   2.706   7.071   5.002 -0.9164 -0.5541 -0.6072
  686MOL0     C90477   2.810   7.030   4.914  0.8481  0.4508 -0.9809
  686MOL0     O90478   2.918   7.108   4.864 -0.3065  0.2322 -0.6007
  686MOL0     C90479   2.916   7.244   4.893  0.6035 -0.8490 -0.0185
  686MOL0     C90480   2.964   7.262   5.038  1.0726 -0.5839 -0.5823
  686MOL0     C90481   3.109   7.206   5.065  0.8972  0.6853  0.2652
  686MOL0     C90482   3.143   7.236   5.207 -1.3908 -0.0808 -0.5724
  686MOL0     C90483   3.254   7.147   5.257 -0.7355 -0.0973 -0.5083
  686MOL0     C90484   3.353   7.087   5.288  0.0046 -0.2076 -0.2466
  686MOL0     C90485   2.800   6.907   4.856  0.2574 -0.3938  0.0048
  686MOL0     C90486   2.693   6.827   4.875  0.5295  0.3235  0.0851
  686MOL0     H90487   2.383   6.501   5.073 -0.0846 -0.3508  0.0340
  686MOL0     H90488   2.138   6.413   5.109  1.9473 -2.1755 -0.3811
  686MOL0     H90489   1.838   6.513   4.796 -2.4752  2.6074 -0.6453
  686MOL0     H90490   1.812   6.636   4.916 -0.5833  0.3095 -0.8895
  686MOL0     H90491   1.704   6.478   5.065 -2.2333  1.9780 -0.2053
  686MOL0     H90492   1.750   6.339   4.966  0.7778  0.1938  1.1756
  686MOL0     H90493   1.611   6.425   4.769  1.9866 -1.9279  1.5706
  686MOL0     H90494   1.545   6.544   4.866  0.6343 -0.8463 -0.6734
  686MOL0     H90495   1.514   6.238   4.910  1.0352  0.4777 -1.8231
  686MOL0     H90496   1.452   6.361   5.027 -0.7759 -0.2203  0.5801
  686MOL0     H90497   1.420   6.305   4.722  1.0306  2.5537 -1.3752
  686MOL0     H90498   1.371   6.456   4.781  1.3327  2.2635  3.1578
  686MOL0     H90499   1.205   6.341   4.934  0.2873 -0.4300  0.8126
  686MOL0     H90500   1.241   6.186   4.885 -1.9584  1.0501  3.4187
  686MOL0     H90501   1.177   6.291   4.637 -1.0115  1.5420 -0.3963
  686MOL0     H90502   1.068   6.201   4.749  2.5935 -2.6084 -1.0901
  686MOL0     H90503   1.000   6.415   4.871  1.7063  1.0211  0.6497
  686MOL0     H90504   0.959   6.390   4.694  2.6552  0.6199 -1.5568
  686MOL0     H90505   1.173   6.616   4.927 -0.9515  0.7458  0.5731
  686MOL0     H90506   1.252   6.900   4.851 -1.8900 -1.4519 -0.3433
  686MOL0     H90507   1.303   6.901   4.688 -1.6425  0.4266 -0.0971
  686MOL0     H90508   1.481   6.733   4.749  0.7842 -0.8542  2.2156
  686MOL0     H90509   1.444   6.748   4.921  1.9025  0.7703 -0.0649
  686MOL0     H90510   1.534   7.000   4.767  0.3164  1.4906  0.7049
  686MOL0     H90511   1.488   6.974   4.940  0.3335 -0.4308 -0.4411
  686MOL0     H90512   1.717   6.843   4.796  2.0405 -0.9575  1.5795
  686MOL0     H90513   1.693   6.850   4.965  1.2291 -3.2907 -1.9209
  686MOL0     H90514   1.803   7.273   4.923  0.6557  1.8362  3.8259
  686MOL0     H90515   2.040   7.344   4.981  3.7038 -1.9350  1.1271
  686MOL0     H90516   2.404   7.417   4.906 -1.9414  3.8013  1.2431
  686MOL0     H90517   2.638   7.517   4.943 -3.4924  1.1274 -0.9739
  686MOL0     H90518   2.812   7.448   5.359  1.6186  1.1271  0.6555
  686MOL0     H90519   2.746   7.611   5.353 -0.3057  2.9462 -4.5649
  686MOL0     H90520   3.017   7.503   5.260 -0.5272  0.4748 -0.5112
  686MOL0     H90521   2.988   7.594   5.406  1.6016 -4.1177 -0.4054
  686MOL0     H90522   2.876   7.764   5.229  0.8392  0.8778 -1.3537
  686MOL0     H90523   2.993   7.687   5.127  3.9103 -2.2623  1.0929
  686MOL0     H90524   3.099   7.770   5.395  2.1586 -1.3330 -0.0644
  686MOL0     H90525   3.188   7.749   5.241 -0.3909  2.9280 -2.3781
  686MOL0     H90526   3.169   8.000   5.301 -2.4504  0.3417  1.2402
  686MOL0     H90527   3.001   7.979   5.273 -1.3686  0.3302 -2.4949
  686MOL0     H90528   3.039   7.919   5.039 -3.0575  2.0335  2.1593
  686MOL0     H90529   3.213   7.914   5.071  0.8293  2.0846 -0.1570
  686MOL0     H90530   3.107   8.107   4.940 -0.0461 -2.5654 -0.8311
  686MOL0     H90531   3.053   8.176   5.098 -0.1593 -0.4196 -1.5492
  686MOL0     H90532   3.340   8.091   5.039 -0.6859 -1.9390  0.1414
  686MOL0     H90533   3.283   8.191   5.167 -2.3033  0.9872 -0.1023
  686MOL0     H90534   2.581   7.425   5.363  0.6180 -1.2100 -0.1181
  686MOL0     H90535   2.362   7.342   5.307  1.1937  2.5333  1.5041
  686MOL0     H90536   2.140   6.934   5.046  1.2413  0.1718  0.2354
  686MOL0     H90537   1.940   6.863   4.968  2.7211 -0.8190  0.0984
  686MOL0     H90538   2.017   6.672   4.791 -1.5864 -3.8503 -1.5957
  686MOL0     H90539   2.236   6.748   4.758 -1.4977  0.5756  0.1910
  686MOL0     H90540   2.529   7.028   5.094 -0.0546 -0.1731  0.7742
  686MOL0     H90541   2.681   7.169   5.044 -0.8993 -0.2560 -1.2849
  686MOL0     H90542   2.819   7.293   4.880  0.5097  0.1309  3.3593
  686MOL0     H90543   2.979   7.306   4.829  0.9029  0.4007  1.4359
  686MOL0     H90544   2.965   7.368   5.064 -1.4490 -0.6196 -0.1079
  686MOL0     H90545   2.896   7.216   5.110 -1.1556  0.0731 -2.1786
  686MOL0     H90546   3.187   7.247   5.001  0.2646  0.1824 -0.8520
  686MOL0     H90547   3.121   7.100   5.039  1.7868 -0.0697  3.3662
  686MOL0     H90548   3.170   7.342   5.212  1.7245 -0.7252 -1.7234
  686MOL0     H90549   3.062   7.211   5.277  1.1228 -0.2869  2.4821
  686MOL0     H90550   3.430   7.025   5.329 -0.8724 -0.9068  0.4044
  686MOL0     H90551   2.891   6.887   4.800 -0.0587  1.0742 -1.0880
  686MOL0     H90552   2.692   6.726   4.837 -1.1544  0.7847 -1.1771
  687MOL0     O90553   7.028   1.075  11.107 -0.5839 -0.3534  0.6417
  687MOL0     C90554   6.970   1.137  11.194 -0.2681 -0.2732  0.8642
  687MOL0     O90555   7.028   1.219  11.283  0.1870 -0.5701 -0.0242
  687MOL0     C90556   7.155   1.262  11.267 -0.3419  0.2055 -0.2646
  687MOL0     C90557   7.204   1.306  11.145  0.4479  0.1749  0.3904
  687MOL0     C90558   7.334   1.355  11.137 -0.1538 -0.3351 -0.5110
  687MOL0     C90559   7.422   1.356  11.245  0.1408 -0.5380  0.1506
  687MOL0     O90560   7.552   1.401  11.237 -0.8581 -0.4178 -0.4355
  687MOL0     C90561   7.612   1.421  11.113  0.3317  0.5522  0.7774
  687MOL0     C90562   7.763   1.460  11.135  0.2314  0.2224 -0.0185
  687MOL0     C90563   7.818   1.489  10.993 -0.1281  0.4580 -0.7689
  687MOL0     C90564   7.963   1.547  11.006 -0.1426  0.5115 -0.0820
  687MOL0     C90565   8.030   1.566  10.866 -0.5401 -0.2333  0.3442
  687MOL0     C90566   8.074   1.431  10.813 -0.4612  0.5088 -0.5202
  687MOL0     C90567   8.171   1.442  10.690 -0.6313 -0.2815  0.3501
  687MOL0     C90568   8.104   1.494  10.564 -0.2855  0.3024  0.2242
  687MOL0     N90569   7.984   1.411  10.543 -0.0684  0.2252 -0.3482
  687MOL0     C90570   7.856   1.458  10.527 -0.1458  0.3113  0.7014
  687MOL0     C90571   7.784   1.363  10.463  0.3417 -0.3672  0.5436
  687MOL0     C90572   7.646   1.371  10.412  0.4521  0.7174 -0.5062
  687MOL0     C90573   7.572   1.242  10.454  0.4734  0.6353  0.3462
  687MOL0     C90574   7.419   1.256  10.425  0.5077  0.4445 -0.2307
  687MOL0     C90575   7.383   1.265  10.283  0.7599 -0.7207  0.5683
  687MOL0     O90576   7.241   1.246  10.267  0.0318 -0.3317  0.1605
  687MOL0     C90577   7.151   1.342  10.320  0.2528  0.4346 -0.0096
  687MOL0     C90578   7.171   1.479  10.291 -0.2366  0.6765  0.4176
  687MOL0     C90579   7.088   1.575  10.356  0.6623 -1.0486 -0.0100
  687MOL0     C90580   6.980   1.526  10.428  0.4882 -0.4299 -0.5322
  687MOL0     C90581   6.886   1.633  10.499  0.2955  0.5777  0.2704
  687MOL0     O90582   6.770   1.580  10.556 -0.7944  0.2898 -0.3764
  687MOL0     C90583   6.683   1.651  10.631  0.0175 -1.0607 -0.7496
  687MOL0     C90584   6.722   1.774  10.703  0.1451  0.0379 -0.1182
  687MOL0     C90585   6.621   1.854  10.765  0.1153  0.7173 -1.0707
  687MOL0     C90586   6.495   1.802  10.782  0.2486 -0.0198 -0.0444
  687MOL0     O90587   6.416   1.881  10.864 -0.5620  0.4730  0.0134
  687MOL0     C90588   6.284   1.816  10.886 -0.5343 -0.2628  0.3116
  687MOL0     C90589   6.196   1.916  10.961  0.0546 -0.0277 -0.0078
  687MOL0     C90590   6.058   1.872  10.975 -0.7348 -0.0799 -0.4412
  687MOL0     C90591   6.000   1.839  10.829  0.3990  0.0522  0.2917
  687MOL0     C90592   5.848   1.839  10.824  0.7304  0.3100 -0.4697
  687MOL0     C90593   5.790   1.792  10.690 -1.1264  0.0948  0.5777
  687MOL0     C90594   5.759   1.916  10.601  0.2755  0.3936 -0.0823
  687MOL0     C90595   5.693   1.879  10.472  0.4675 -0.3035 -0.1126
  687MOL0    Cl90596   5.799   1.781  10.358  0.3110 -0.2465  0.3430
  687MOL0     C90597   6.471   1.667  10.739 -0.2545  0.5480 -0.8375
  687MOL0     C90598   6.554   1.602  10.653 -0.4649 -0.2818 -0.3289
  687MOL0     O90599   6.908   1.752  10.480  0.3135 -0.2923 -0.3986
  687MOL0     C90600   6.969   1.395  10.466 -0.0327 -0.0636  0.6157
  687MOL0     C90601   7.048   1.298  10.405  0.2937  0.5315 -0.5631
  687MOL0     N90602   7.869   1.246  10.450 -0.0436 -0.1655  0.2178
  687MOL0     N90603   7.984   1.285  10.495  0.0501 -0.3488 -0.2895
  687MOL0     C90604   7.380   1.310  11.369 -0.5693  0.2219 -0.2793
  687MOL0     C90605   7.244   1.258  11.377 -0.0250  0.4573 -0.1085
  687MOL0     C90606   6.830   1.131  11.205  0.0397  0.1863  0.2150
  687MOL0     C90607   6.763   1.233  11.278  0.2851  0.9463 -0.7032
  687MOL0     C90608   6.619   1.226  11.299 -0.9270 -0.5517 -0.5208
  687MOL0     C90609   6.549   1.113  11.252 -0.9914  0.2145 -0.0620
  687MOL0     O90610   6.414   1.097  11.241 -0.0103  0.5367  0.7209
  687MOL0     C90611   6.322   1.185  11.316 -0.0564  0.4483  0.9454
  687MOL0     C90612   6.183   1.136  11.302 -0.5031  0.4289 -0.3187
  687MOL0     C90613   6.181   0.994  11.364  0.4817  0.1997 -1.8857
  687MOL0     C90614   6.028   0.948  11.352  0.2349  0.1658  0.1241
  687MOL0     C90615   5.996   0.877  11.481  0.5551 -0.2241  0.3511
  687MOL0     C90616   5.955   0.806  11.574 -0.1063  0.0226  0.1209
  687MOL0     C90617   6.612   1.022  11.163  0.4936 -0.2957 -0.0824
  687MOL0     C90618   6.752   1.033  11.141  0.1980  0.1156  0.8687
  687MOL0     H90619   7.145   1.316  11.055 -0.0907  1.6436  0.8690
  687MOL0     H90620   7.361   1.392  11.038 -1.1652 -0.8545 -1.0004
  687MOL0     H90621   7.572   1.508  11.060  0.5986  0.2212  0.0094
  687MOL0     H90622   7.602   1.335  11.047 -0.2035  0.1933  1.3177
  687MOL0     H90623   7.811   1.378  11.190 -1.7275  0.1263  1.6594
  687MOL0     H90624   7.774   1.549  11.196 -1.4678  0.8827 -0.6107
  687MOL0     H90625   7.757   1.568  10.948 -1.6286 -0.1621  0.0977
  687MOL0     H90626   7.813   1.401  10.928  0.4398 -0.8065  0.8388
  687MOL0     H90627   7.942   1.641  11.058 -3.9186  0.7914 -1.7762
  687MOL0     H90628   8.029   1.484  11.065 -3.3252 -4.5133 -1.2013
  687MOL0     H90629   8.119   1.629  10.878  0.4016 -0.7215 -3.1570
  687MOL0     H90630   7.960   1.612  10.796 -1.2151 -2.9711 -0.9078
  687MOL0     H90631   7.985   1.371  10.791 -0.0545 -0.0128 -0.7757
  687MOL0     H90632   8.131   1.381  10.892 -0.9691  2.2269  1.0127
  687MOL0     H90633   8.257   1.504  10.716 -0.7691 -0.6450  1.7245
  687MOL0     H90634   8.219   1.346  10.669 -0.3276  0.0704 -0.6170
  687MOL0     H90635   8.187   1.478  10.494  2.2085  2.4341  2.4451
  687MOL0     H90636   8.090   1.602  10.567 -1.9181  0.0986  1.7721
  687MOL0     H90637   7.816   1.558  10.538 -1.1593  0.1794 -1.3093
  687MOL0     H90638   7.642   1.372  10.303 -1.5814  1.1523 -0.4686
  687MOL0     H90639   7.597   1.462  10.450  0.7978  0.3058  1.0215
  687MOL0     H90640   7.591   1.202  10.554 -0.3839  1.5682  0.9014
  687MOL0     H90641   7.598   1.166  10.379 -4.6403  0.4210 -1.6487
  687MOL0     H90642   7.366   1.169  10.465  0.8382  1.1593  1.8911
  687MOL0     H90643   7.374   1.338  10.482 -0.4738 -0.1811 -0.0865
  687MOL0     H90644   7.425   1.175  10.238  3.4809 -0.5276  2.5228
  687MOL0     H90645   7.398   1.363  10.236 -1.9906 -0.0654  0.8600
  687MOL0     H90646   7.241   1.509  10.213  0.3115 -0.6499  0.3761
  687MOL0     H90647   7.100   1.682  10.349  0.4303 -1.0645 -0.7615
  687MOL0     H90648   6.823   1.811  10.689 -0.6017  1.8027 -1.1305
  687MOL0     H90649   6.646   1.944  10.819  3.1900  0.6077 -2.1068
  687MOL0     H90650   6.291   1.724  10.944 -1.1786 -0.8635 -0.5421
  687MOL0     H90651   6.231   1.814  10.790  0.7484  0.8778 -0.4530
  687MOL0     H90652   6.194   2.014  10.913  0.8430 -1.2545 -2.7456
  687MOL0     H90653   6.244   1.935  11.058  0.0873 -0.2259  0.0165
  687MOL0     H90654   6.012   1.955  11.029 -0.9781 -0.2324 -0.4124
  687MOL0     H90655   6.053   1.790  11.046  4.1330 -0.0733  0.2391
  687MOL0     H90656   6.043   1.907  10.756 -3.5767 -0.4204 -2.8568
  687MOL0     H90657   6.035   1.736  10.812  0.2041  0.1719 -0.9404
  687MOL0     H90658   5.813   1.937  10.856 -1.6224 -0.9934  1.2671
  687MOL0     H90659   5.814   1.770  10.902 -0.6396 -0.3358 -1.6062
  687MOL0     H90660   5.704   1.728  10.710 -0.4436 -1.2775 -0.6621
  687MOL0     H90661   5.863   1.738  10.629  0.0171  0.1122  1.8973
  687MOL0     H90662   5.685   1.977  10.654 -0.6484 -0.6996 -0.0768
  687MOL0     H90663   5.855   1.967  10.584  2.3312 -2.9038  0.8088
  687MOL0     H90664   5.655   1.969  10.423 -0.0218  1.0306  2.5116
  687MOL0     H90665   5.611   1.807  10.484  1.1781 -1.1052  0.1088
  687MOL0     H90666   6.377   1.620  10.765  1.1485 -1.2224  1.4574
  687MOL0     H90667   6.523   1.504  10.618  2.0124 -1.9006  1.6592
  687MOL0     H90668   6.887   1.364  10.529 -1.8706  3.5215  0.2214
  687MOL0     H90669   7.040   1.192  10.426  4.3252  0.3847  0.9670
  687MOL0     H90670   7.440   1.323  11.458 -0.0802 -1.0135 -0.4052
  687MOL0     H90671   7.200   1.220  11.468 -3.1387  0.7815 -1.3258
  687MOL0     H90672   6.814   1.315  11.329 -0.2225 -0.7891  2.9357
  687MOL0     H90673   6.570   1.308  11.350  0.6725 -0.6264  1.2907
  687MOL0     H90674   6.308   1.282  11.267 -1.8872  0.3362  1.1840
  687MOL0     H90675   6.342   1.190  11.423 -0.5021  1.1688  1.0047
  687MOL0     H90676   6.124   1.215  11.349  0.3953  2.8712 -3.0265
  687MOL0     H90677   6.165   1.125  11.195  1.8996  0.2721 -0.7685
  687MOL0     H90678   6.225   0.994  11.464  1.4472 -0.8016 -2.2946
  687MOL0     H90679   6.226   0.925  11.292 -3.2176 -2.4187 -2.0101
  687MOL0     H90680   5.964   1.036  11.344  1.1134  0.7655 -0.4808
  687MOL0     H90681   6.021   0.880  11.267  1.6305 -0.8241  0.7535
  687MOL0     H90682   5.940   0.736  11.654 -1.0309  1.7133  1.4830
  687MOL0     H90683   6.563   0.953  11.095 -0.9488  1.3026 -0.7435
  687MOL0     H90684   6.789   0.967  11.063 -2.2302  3.1474 -3.2999
  688MOL0     O90685   7.765  10.584   0.134 -0.3173  0.5606  0.0130
  688MOL0     C90686   7.787  10.697   0.106  0.6086  0.9490 -0.2073
  688MOL0     O90687   7.716  10.800   0.142  0.5709 -0.1335 -0.1145
  688MOL0     C90688   7.613  10.777   0.234 -0.7551  0.2243 -0.2820
  688MOL0     C90689   7.500  10.704   0.201 -0.2437 -0.0728  0.5197
  688MOL0     C90690   7.405  10.695   0.298 -0.3714  0.6144 -1.0066
  688MOL0     C90691   7.423  10.744   0.427 -0.5632 -0.0934 -0.3343
  688MOL0     O90692   7.325  10.731   0.519  0.5821  0.0820  0.1622
  688MOL0     C90693   7.239  10.848   0.540 -0.3256  0.0986 -0.3279
  688MOL0     C90694   7.093  10.794   0.567  0.5912 -0.3018 -0.1904
  688MOL0     C90695   6.990  10.911   0.568  0.1352  0.3061 -0.3074
  688MOL0     C90696   6.846  10.868   0.585  0.7980  0.1940 -0.2963
  688MOL0     C90697   6.749  10.992   0.576  0.0118  0.0696 -0.1079
  688MOL0     C90698   6.745  11.057   0.447  1.0694 -0.4527  0.8366
  688MOL0     C90699   6.749  11.221   0.461 -0.3957  0.3952  0.1528
  688MOL0     C90700   6.784  11.278   0.320 -0.0318 -0.1581 -0.1001
  688MOL0     N90701   6.665  11.313   0.245  0.7242 -0.5916  1.0582
  688MOL0     C90702   6.606  11.439   0.244 -0.3523  0.3557 -0.3005
  688MOL0     C90703   6.503  11.420   0.169 -0.6857 -0.4730 -1.0055
  688MOL0     C90704   6.404  11.532   0.129 -0.7006  0.1831 -0.0637
  688MOL0     C90705   6.282  11.522   0.223 -0.3079  0.0209 -0.5952
  688MOL0     C90706   6.173  11.619   0.180 -0.3507 -0.3592 -0.6265
  688MOL0     C90707   6.037  11.609   0.250  1.1189  0.5983 -0.6625
  688MOL0     O90708   5.951  11.707   0.193  0.4204 -0.3892 -0.2168
  688MOL0     C90709   5.824  11.733   0.244  0.5244 -0.8144 -0.4151
  688MOL0     C90710   5.749  11.826   0.186 -0.1991  0.4226  0.6461
  688MOL0     C90711   5.610  11.841   0.212 -0.3530 -0.4683 -1.0408
  688MOL0     C90712   5.550  11.768   0.318  0.5635 -0.1512  1.4478
  688MOL0     C90713   5.411  11.809   0.371 -0.6149 -0.4984 -0.2611
  688MOL0     O90714   5.364  11.725   0.465  0.3875 -0.1393 -0.2113
  688MOL0     C90715   5.231  11.751   0.507 -0.0419  0.1797 -0.6403
  688MOL0     C90716   5.195  11.807   0.627 -0.4664 -0.9468  0.1692
  688MOL0     C90717   5.061  11.842   0.658 -0.4290  0.3241 -0.4166
  688MOL0     C90718   4.968  11.831   0.558 -0.6646  0.2177  0.8360
  688MOL0     O90719   4.839  11.877   0.583  0.6174  0.3330  0.3555
  688MOL0     C90720   4.741  11.868   0.478 -0.2963 -0.1815  0.4152
  688MOL0     C90721   4.603  11.922   0.515  0.7881 -0.5430 -0.6727
  688MOL0     C90722   4.504  11.887   0.408 -0.2218  0.5974  0.2060
  688MOL0     C90723   4.351  11.914   0.439 -0.5228 -0.2899 -0.4386
  688MOL0     C90724   4.264  11.884   0.311  0.3199 -0.2629  0.6040
  688MOL0     C90725   4.258  11.988   0.195 -0.4873  0.4405 -0.4781
  688MOL0     C90726   4.202  12.115   0.255  0.6955 -0.2594  0.5775
  688MOL0     C90727   4.142  12.219   0.160 -0.4580  0.4043  0.0321
  688MOL0    Cl90728   4.260  12.270   0.033 -0.4704 -0.0911  0.2897
  688MOL0     C90729   5.011  11.763   0.439  0.4532  0.5497  0.2522
  688MOL0     C90730   5.138  11.718   0.417  0.6660 -0.2096  0.3273
  688MOL0     O90731   5.364  11.920   0.346  0.1053 -0.0804 -0.4493
  688MOL0     C90732   5.632  11.666   0.375 -0.2597 -0.0971 -0.7225
  688MOL0     C90733   5.762  11.657   0.342 -0.6604  0.8827  0.0252
  688MOL0     N90734   6.498  11.290   0.116 -0.9079  0.6024 -0.6350
  688MOL0     N90735   6.599  11.227   0.169 -0.1309 -0.8293 -0.7572
  688MOL0     C90736   7.541  10.814   0.464 -0.3502  0.1814  0.4197
  688MOL0     C90737   7.638  10.816   0.370 -0.7155  0.1676  0.4629
  688MOL0     C90738   7.911  10.718   0.024 -0.3719  0.4713 -0.6348
  688MOL0     C90739   7.968  10.849   0.008  0.6387  0.2472 -0.4089
  688MOL0     C90740   8.082  10.869  -0.069 -0.0667  0.1395  0.7473
  688MOL0     C90741   8.140  10.757  -0.142 -0.6868 -0.5730 -0.1133
  688MOL0     O90742   8.257  10.783  -0.206  0.9170  0.0977  0.5154
  688MOL0     C90743   8.283  10.701  -0.322  0.2900  0.0340 -0.1429
  688MOL0     C90744   8.175  10.699  -0.430  0.2495  0.2303  0.7081
  688MOL0     C90745   8.160  10.833  -0.508 -0.7918  0.7802  0.4381
  688MOL0     C90746   8.206  10.816  -0.660 -0.0957  0.4016  0.1209
  688MOL0     C90747   8.358  10.809  -0.664 -0.6271 -0.5133 -0.2448
  688MOL0     C90748   8.481  10.790  -0.663  0.4227 -0.1257 -0.0461
  688MOL0     C90749   8.083  10.631  -0.125 -0.0369 -0.2688  0.6441
  688MOL0     C90750   7.976  10.615  -0.042 -0.2179 -0.0529  0.3557
  688MOL0     H90751   7.502  10.657   0.103  1.7793  2.5194 -0.7948
  688MOL0     H90752   7.306  10.657   0.274 -1.6085  2.2043  1.1316
  688MOL0     H90753   7.241  10.901   0.444 -3.4272  0.7816 -0.1284
  688MOL0     H90754   7.267  10.920   0.618  1.5286  1.3532 -2.0406
  688MOL0     H90755   7.103  10.745   0.664  1.3502  0.2139 -0.0016
  688MOL0     H90756   7.050  10.730   0.489  1.2029  1.1811 -1.8149
  688MOL0     H90757   7.005  10.959   0.470  2.2177 -0.0710 -0.2147
  688MOL0     H90758   7.015  10.987   0.642 -3.0182  1.4394 -0.2523
  688MOL0     H90759   6.823  10.790   0.512 -2.0429  0.7897 -0.1581
  688MOL0     H90760   6.829  10.824   0.683 -1.3445 -0.3173 -0.8456
  688MOL0     H90761   6.765  11.056   0.663  0.1490 -1.1895  0.8199
  688MOL0     H90762   6.648  10.956   0.595 -1.1844  2.8970 -0.6067
  688MOL0     H90763   6.660  11.028   0.384  4.0095 -0.7778 -3.4202
  688MOL0     H90764   6.830  11.035   0.382  0.6179  0.1098  0.0260
  688MOL0     H90765   6.661  11.268   0.505  0.3198 -1.2326  3.6033
  688MOL0     H90766   6.824  11.243   0.537 -2.3618 -0.1711  2.3677
  688MOL0     H90767   6.836  11.205   0.258 -2.2847 -2.1974  0.2760
  688MOL0     H90768   6.847  11.367   0.330 -0.6905  0.4817 -1.4467
  688MOL0     H90769   6.628  11.537   0.286 -0.3542  0.5378 -0.7135
  688MOL0     H90770   6.380  11.520   0.023  1.4542  0.4817 -0.6259
  688MOL0     H90771   6.442  11.633   0.142  1.0408 -0.2676 -1.3260
  688MOL0     H90772   6.298  11.537   0.330  0.5652 -2.1248 -0.3641
  688MOL0     H90773   6.243  11.420   0.220 -2.1552  0.6203  0.9107
  688MOL0     H90774   6.220  11.718   0.179  0.9361 -0.9513 -0.5795
  688MOL0     H90775   6.152  11.606   0.074 -1.5908  0.8336 -0.5629
  688MOL0     H90776   6.041  11.622   0.359  3.7088  1.9984 -0.8518
  688MOL0     H90777   5.983  11.516   0.229  1.6455 -0.2764  1.5839
  688MOL0     H90778   5.793  11.884   0.106 -1.2020 -1.7247 -1.6162
  688MOL0     H90779   5.548  11.913   0.158  0.8790  0.4119 -1.3106
  688MOL0     H90780   5.274  11.829   0.698 -2.0360  1.8612  1.1919
  688MOL0     H90781   5.024  11.854   0.759 -1.0534 -3.8499  0.0553
  688MOL0     H90782   4.736  11.768   0.433 -0.9685  0.4353 -0.9572
  688MOL0     H90783   4.772  11.924   0.389  0.5224 -0.5437  0.4690
  688MOL0     H90784   4.606  12.028   0.541  2.4668 -0.7941  0.2747
  688MOL0     H90785   4.570  11.872   0.607 -5.4088  0.5468 -1.8458
  688MOL0     H90786   4.514  11.779   0.392 -3.3855  0.1760  0.4179
  688MOL0     H90787   4.533  11.945   0.320 -1.4767  2.5966  1.0436
  688MOL0     H90788   4.328  11.852   0.526 -0.5380  1.7872  1.1456
  688MOL0     H90789   4.350  12.020   0.469 -1.8684 -0.4669  0.2170
  688MOL0     H90790   4.165  11.889   0.357 -0.7517  1.3192 -1.6840
  688MOL0     H90791   4.278  11.781   0.276 -1.4374 -0.1992 -0.4084
  688MOL0     H90792   4.190  11.968   0.112 -2.0128  2.0455  0.3240
  688MOL0     H90793   4.361  12.002   0.159 -0.1681  0.4042  0.4027
  688MOL0     H90794   4.121  12.089   0.325 -0.6631 -0.4531 -1.0155
  688MOL0     H90795   4.267  12.166   0.327 -0.4521  0.2308  1.3004
  688MOL0     H90796   4.112  12.307   0.218  1.1846 -0.2178  1.9563
  688MOL0     H90797   4.055  12.180   0.106  1.0641  1.1974 -3.2820
  688MOL0     H90798   4.945  11.726   0.361  1.4585  1.2962 -0.9956
  688MOL0     H90799   5.173  11.674   0.324  1.3805  0.9055  0.0504
  688MOL0     H90800   5.584  11.603   0.450  0.0309 -1.8506 -1.9787
  688MOL0     H90801   5.815  11.573   0.385 -2.5254  1.0633  2.9396
  688MOL0     H90802   7.562  10.835   0.569  2.2377  1.2685 -0.2542
  688MOL0     H90803   7.732  10.860   0.403 -0.5036  1.2293 -1.3735
  688MOL0     H90804   7.931  10.937   0.059  2.0352  0.7350 -0.2208
  688MOL0     H90805   8.126  10.963  -0.099  0.3078 -0.5023 -0.8237
  688MOL0     H90806   8.307  10.600  -0.287  1.5907  0.2147 -0.4574
  688MOL0     H90807   8.376  10.738  -0.364 -0.3676  1.2432 -0.5836
  688MOL0     H90808   8.213  10.624  -0.500  1.5049  0.3403  1.2429
  688MOL0     H90809   8.076  10.670  -0.393 -0.4930  0.0582 -1.3089
  688MOL0     H90810   8.208  10.921  -0.465 -0.6078  1.0941 -0.3750
  688MOL0     H90811   8.055  10.862  -0.515 -0.5421  1.3761 -2.1380
  688MOL0     H90812   8.159  10.737  -0.718  2.6966 -2.0338  0.9006
  688MOL0     H90813   8.195  10.912  -0.711  1.4710  0.8474  0.5687
  688MOL0     H90814   8.582  10.763  -0.641  0.4163 -2.3179 -2.2905
  688MOL0     H90815   8.115  10.539  -0.173  0.3817  0.1211  0.1653
  688MOL0     H90816   7.937  10.514  -0.044  2.3116 -1.1444 -2.2086
  689MOL0     O90817   0.110   4.643   2.682 -0.4779  0.0879  0.0030
  689MOL0     C90818   0.224   4.595   2.696  0.2663 -0.1077 -0.9969
  689MOL0     O90819   0.261   4.514   2.803 -0.0372 -0.6866 -0.1325
  689MOL0     C90820   0.165   4.477   2.896  0.3908 -0.0830  1.4823
  689MOL0     C90821   0.091   4.571   2.970  0.0889 -0.4687  0.1325
  689MOL0     C90822  -0.003   4.517   3.064 -0.1120  0.6845  0.5507
  689MOL0     C90823  -0.008   4.377   3.088  0.5408 -0.9134  0.3936
  689MOL0     O90824  -0.085   4.316   3.185 -0.5440 -0.2271 -0.3947
  689MOL0     C90825  -0.200   4.386   3.224  0.4748 -0.7309 -1.0285
  689MOL0     C90826  -0.266   4.304   3.331  0.5451 -0.6034  0.0494
  689MOL0     C90827  -0.391   4.375   3.389 -1.0780  0.0869  0.2745
  689MOL0     C90828  -0.473   4.265   3.462 -0.2356 -0.5750 -0.6366
  689MOL0     C90829  -0.589   4.308   3.552  0.0972 -0.1244 -0.6949
  689MOL0     C90830  -0.679   4.409   3.479  0.3291 -0.4296  0.6686
  689MOL0     C90831  -0.742   4.371   3.342 -0.2204 -1.1189  0.7268
  689MOL0     C90832  -0.836   4.250   3.361  1.1904  0.3180 -0.4831
  689MOL0     N90833  -0.949   4.278   3.460 -0.9376  0.0198  0.8467
  689MOL0     C90834  -0.970   4.250   3.590  0.1981 -0.0387 -0.4757
  689MOL0     C90835  -1.071   4.319   3.635 -0.4724 -0.2034 -0.6846
  689MOL0     C90836  -1.110   4.350   3.783  0.8865  0.0640  0.3677
  689MOL0     C90837  -1.262   4.378   3.795 -0.3962 -0.0786  0.0237
  689MOL0     C90838  -1.343   4.243   3.797 -0.8083 -0.9414 -0.1779
  689MOL0     C90839  -1.492   4.271   3.801  0.6337  0.7129 -0.1140
  689MOL0     O90840  -1.582   4.157   3.800  0.5782  0.9480 -0.4833
  689MOL0     C90841  -1.716   4.174   3.826  0.6778  1.0873 -0.1590
  689MOL0     C90842  -1.793   4.067   3.873  0.1377  0.6753 -0.3711
  689MOL0     C90843  -1.929   4.069   3.897 -0.2045 -0.2563 -0.4448
  689MOL0     C90844  -1.994   4.193   3.873 -0.3895  0.1877  0.6750
  689MOL0     C90845  -2.133   4.208   3.910 -0.1058 -0.1350  0.1754
  689MOL0     O90846  -2.193   4.334   3.879  0.6843  0.7184 -0.4908
  689MOL0     C90847  -2.330   4.358   3.896 -0.0414 -0.0697  0.6211
  689MOL0     C90848  -2.382   4.403   4.006  0.5268  0.2883 -0.2779
  689MOL0     C90849  -2.518   4.430   4.008  0.4614 -0.0120 -0.0105
  689MOL0     C90850  -2.606   4.393   3.912 -0.6742 -0.4947 -0.3587
  689MOL0     O90851  -2.735   4.433   3.942 -0.8462 -0.5788  0.4563
  689MOL0     C90852  -2.833   4.379   3.865  0.3346  0.8127  0.4179
  689MOL0     C90853  -2.961   4.452   3.912 -0.3720  0.1176  0.2401
  689MOL0     C90854  -3.086   4.427   3.829  1.0555 -0.0205 -1.0285
  689MOL0     C90855  -3.207   4.500   3.894  0.0096 -0.0366 -0.1399
  689MOL0     C90856  -3.318   4.546   3.800 -1.3734 -0.1483 -0.3122
  689MOL0     C90857  -3.387   4.434   3.738 -0.3052  0.5758 -0.0925
  689MOL0     C90858  -3.516   4.486   3.664 -0.0074 -1.0349  0.8421
  689MOL0     C90859  -3.634   4.522   3.736  0.0832  0.6441 -0.1759
  689MOL0    Cl90860  -3.696   4.386   3.832  0.5365 -0.3652 -0.0683
  689MOL0     C90861  -2.556   4.329   3.798  0.4284 -0.9631 -0.2034
  689MOL0     C90862  -2.421   4.312   3.794 -0.0925  0.0212  0.6648
  689MOL0     O90863  -2.191   4.109   3.952  0.0515  0.8557  0.1108
  689MOL0     C90864  -1.923   4.300   3.819 -0.5404  0.1167 -0.5123
  689MOL0     C90865  -1.789   4.292   3.796  0.2686  0.2579 -0.9267
  689MOL0     N90866  -1.122   4.392   3.521 -0.3866 -0.3079 -1.1075
  689MOL0     N90867  -1.038   4.367   3.427  0.5761 -0.7992 -0.7177
  689MOL0     C90868   0.082   4.294   3.019 -0.3013 -0.0642  0.4315
  689MOL0     C90869   0.165   4.341   2.927  0.0401  0.5547  0.6281
  689MOL0     C90870   0.329   4.650   2.615  0.1856 -0.1235 -0.8388
  689MOL0     C90871   0.298   4.763   2.544  0.6451 -0.1679 -0.1603
  689MOL0     C90872   0.397   4.806   2.462 -0.2885  0.2978  0.1068
  689MOL0     C90873   0.534   4.759   2.469 -0.7173  0.5017 -0.3494
  689MOL0     O90874   0.639   4.819   2.398 -0.3596  0.1238 -0.0040
  689MOL0     C90875   0.618   4.924   2.305  0.9358  0.1652 -0.5557
  689MOL0     C90876   0.751   4.964   2.228  0.3545 -0.9831  0.0160
  689MOL0     C90877   0.870   5.002   2.323 -0.4871 -0.4774  0.1052
  689MOL0     C90878   0.993   5.047   2.243  0.0319 -0.0684  0.0636
  689MOL0     C90879   1.104   5.103   2.329 -0.3589  0.5326 -0.1596
  689MOL0     C90880   1.191   5.138   2.411 -0.7091 -0.1118  0.0754
  689MOL0     C90881   0.563   4.663   2.563  0.1733  0.0315  0.4131
  689MOL0     C90882   0.459   4.604   2.633 -0.6959  0.3557  0.0167
  689MOL0     H90883   0.079   4.678   2.957  1.8643 -0.2450  0.0333
  689MOL0     H90884  -0.055   4.585   3.131  0.1665  2.1671 -0.6777
  689MOL0     H90885  -0.265   4.393   3.136 -3.2932  1.1176  1.6131
  689MOL0     H90886  -0.195   4.487   3.265 -1.2985  0.0345 -2.5077
  689MOL0     H90887  -0.192   4.282   3.408  2.2140 -1.6877 -1.7441
  689MOL0     H90888  -0.294   4.207   3.289 -0.3162  0.3367 -1.7009
  689MOL0     H90889  -0.457   4.405   3.307 -0.8322 -1.2952 -0.4576
  689MOL0     H90890  -0.365   4.459   3.454  0.6893  0.7750 -1.2322
  689MOL0     H90891  -0.516   4.197   3.387 -4.0980  3.1933 -2.2936
  689MOL0     H90892  -0.408   4.209   3.530 -2.1729 -1.2940  0.7061
  689MOL0     H90893  -0.554   4.354   3.645  2.2470 -1.0677 -0.9870
  689MOL0     H90894  -0.647   4.218   3.576  0.0973 -0.8121 -2.9909
  689MOL0     H90895  -0.620   4.498   3.454 -0.7634  0.7643  2.1333
  689MOL0     H90896  -0.762   4.438   3.544 -2.2962 -2.3886 -1.5362
  689MOL0     H90897  -0.801   4.454   3.301  2.4163 -0.2359 -1.5728
  689MOL0     H90898  -0.670   4.339   3.266  0.3597  1.4916  0.0628
  689MOL0     H90899  -0.772   4.167   3.395  2.2974  1.3079 -0.0603
  689MOL0     H90900  -0.883   4.228   3.265  1.8001  0.6636 -0.8674
  689MOL0     H90901  -0.902   4.183   3.643  1.1121 -2.1991 -4.0051
  689MOL0     H90902  -1.054   4.436   3.820 -1.4448  1.3120  1.2128
  689MOL0     H90903  -1.089   4.270   3.855  2.7251  0.7316  0.6414
  689MOL0     H90904  -1.290   4.446   3.714 -0.2830  1.2054  1.0302
  689MOL0     H90905  -1.277   4.429   3.891  0.2194 -1.4058  0.8486
  689MOL0     H90906  -1.323   4.189   3.704  2.7776  1.3449 -0.9547
  689MOL0     H90907  -1.308   4.191   3.886 -1.4728  2.3168  2.1625
  689MOL0     H90908  -1.526   4.330   3.715  0.2302  1.9754  0.8728
  689MOL0     H90909  -1.512   4.321   3.897  0.3550  0.8216 -0.2285
  689MOL0     H90910  -1.739   3.972   3.880 -1.7878 -0.6504 -2.2468
  689MOL0     H90911  -1.970   3.974   3.931 -0.5526  0.0991  0.1296
  689MOL0     H90912  -2.320   4.426   4.093  0.2781 -0.8772  0.2335
  689MOL0     H90913  -2.537   4.482   4.101  3.3889 -1.6836  1.6850
  689MOL0     H90914  -2.841   4.273   3.892 -1.5038  0.9309  0.4914
  689MOL0     H90915  -2.832   4.385   3.756  0.5322 -4.8168 -0.1785
  689MOL0     H90916  -2.932   4.558   3.918  2.3795 -0.6433  2.2244
  689MOL0     H90917  -2.977   4.417   4.014  1.2707  0.3248  0.5950
  689MOL0     H90918  -3.094   4.318   3.824 -0.6826  0.0649 -0.7429
  689MOL0     H90919  -3.086   4.458   3.724  0.0690  1.3850 -0.6440
  689MOL0     H90920  -3.262   4.427   3.955 -1.8467  0.2803 -1.3366
  689MOL0     H90921  -3.172   4.582   3.956  0.2254 -0.3212  0.1166
  689MOL0     H90922  -3.268   4.603   3.721 -1.7778 -2.5179 -2.4096
  689MOL0     H90923  -3.393   4.609   3.848  0.4060  2.6517 -0.9468
  689MOL0     H90924  -3.414   4.358   3.812  0.2470  0.0494 -0.4280
  689MOL0     H90925  -3.320   4.382   3.670  0.7792 -0.2023  1.5294
  689MOL0     H90926  -3.482   4.574   3.610 -2.8577 -0.1228  0.3431
  689MOL0     H90927  -3.553   4.406   3.600 -1.5825 -1.6542  2.4236
  689MOL0     H90928  -3.713   4.563   3.672  0.7367  0.2733 -1.2386
  689MOL0     H90929  -3.600   4.590   3.815  4.2757 -1.1864 -0.1549
  689MOL0     H90930  -2.610   4.289   3.713  3.2513 -0.9706 -2.1497
  689MOL0     H90931  -2.377   4.267   3.705  0.2228  0.6951  0.4744
  689MOL0     H90932  -1.982   4.387   3.794 -0.3641  0.9540  1.7389
  689MOL0     H90933  -1.738   4.377   3.753 -1.7333  1.1922 -1.5635
  689MOL0     H90934   0.095   4.187   3.035  0.2411 -0.6797 -3.2135
  689MOL0     H90935   0.217   4.266   2.868  0.7553  0.9501  0.7394
  689MOL0     H90936   0.200   4.807   2.527  2.0206  2.7853 -1.3198
  689MOL0     H90937   0.367   4.890   2.399  1.1992  3.8389  3.6591
  689MOL0     H90938   0.576   5.012   2.355  0.1340 -1.2809  1.4352
  689MOL0     H90939   0.549   4.880   2.233 -0.0400 -1.8924  1.5280
  689MOL0     H90940   0.774   4.874   2.171 -2.8982 -0.6983 -2.0091
  689MOL0     H90941   0.730   5.049   2.162 -2.4515  0.0346  2.0101
  689MOL0     H90942   0.884   4.917   2.391 -0.4039  0.3783  1.1671
  689MOL0     H90943   0.846   5.090   2.383  1.5925 -1.4035  2.4900
  689MOL0     H90944   1.025   4.956   2.192 -0.3286 -1.6771  2.5169
  689MOL0     H90945   0.966   5.119   2.165 -2.5189  0.1413  1.0238
  689MOL0     H90946   1.262   5.185   2.476  0.0087 -1.0173 -0.0223
  689MOL0     H90947   0.664   4.640   2.595  1.0461  0.1643 -2.0045
  689MOL0     H90948   0.495   4.537   2.710  0.6891  0.1355 -0.7920
  690MOL0     O90949  10.359   2.330   0.446 -1.2152  0.2420 -0.1359
  690MOL0     C90950  10.309   2.225   0.410 -0.0832  0.1985  0.5847
  690MOL0     O90951  10.182   2.182   0.438 -0.4523 -0.2715  0.5427
  690MOL0     C90952  10.118   2.212   0.554 -0.1478 -0.9815  0.3120
  690MOL0     C90953   9.975   2.221   0.553 -0.3094  0.4550  0.0772
  690MOL0     C90954   9.907   2.270   0.661  0.4765 -0.0694 -0.4856
  690MOL0     C90955   9.975   2.288   0.790 -0.0820  0.2022 -0.7560
  690MOL0     O90956   9.937   2.311   0.917  0.8055 -0.1063  0.5316
  690MOL0     C90957   9.827   2.392   0.927 -0.0730  0.4028  0.0603
  690MOL0     C90958   9.890   2.541   0.931  0.2422 -1.1098  0.0611
  690MOL0     C90959   9.791   2.652   0.930 -0.6696  0.2692  0.0454
  690MOL0     C90960   9.717   2.669   1.060 -0.3711 -0.2918 -0.7544
  690MOL0     C90961   9.598   2.765   1.065 -0.2078 -0.3579 -0.9859
  690MOL0     C90962   9.483   2.723   1.155 -0.4518 -0.8570  0.5661
  690MOL0     C90963   9.421   2.588   1.103 -0.6842  0.4735 -0.2317
  690MOL0     C90964   9.290   2.560   1.182  0.5462 -0.2159 -0.1956
  690MOL0     N90965   9.182   2.650   1.137  0.7364  0.0562  0.3913
  690MOL0     C90966   9.141   2.678   1.009  1.1346  0.4625  0.2361
  690MOL0     C90967   9.029   2.763   1.021 -0.1271 -0.1489  0.0464
  690MOL0     C90968   8.975   2.835   0.899  0.5041  0.1887 -0.4918
  690MOL0     C90969   9.074   2.933   0.839  0.1501 -0.5224 -0.0322
  690MOL0     C90970   9.022   2.996   0.714 -0.9982 -0.1075  1.4860
  690MOL0     C90971   8.878   3.049   0.704 -0.1616 -0.6899  0.6513
  690MOL0     O90972   8.794   2.936   0.692  0.4915  0.2531  0.0696
  690MOL0     C90973   8.666   2.950   0.642  0.3882  0.1356 -0.9831
  690MOL0     C90974   8.602   3.076   0.652  0.3834 -0.2505  0.3953
  690MOL0     C90975   8.481   3.101   0.588  0.3094 -0.9608  0.0498
  690MOL0     C90976   8.412   2.992   0.530 -0.4818 -0.0967  0.6933
  690MOL0     C90977   8.285   3.004   0.459  0.6072  0.6339 -0.3209
  690MOL0     O90978   8.238   3.131   0.438 -0.2349  0.1214 -1.2936
  690MOL0     C90979   8.128   3.152   0.364  1.0320  0.4148 -0.6809
  690MOL0     C90980   8.140   3.188   0.230  0.5949  0.0685  0.2707
  690MOL0     C90981   8.023   3.222   0.150  0.2652  0.2288 -0.9624
  690MOL0     C90982   7.895   3.201   0.207 -0.2580  0.1627  0.1179
  690MOL0     O90983   7.783   3.237   0.133 -0.8305  0.2895 -0.8555
  690MOL0     C90984   7.761   3.149   0.026 -0.7223 -0.7569 -0.8868
  690MOL0     C90985   7.658   3.042   0.067  0.2006 -0.5312  0.8113
  690MOL0     C90986   7.528   3.102   0.117 -0.7997 -0.1712 -0.7733
  690MOL0     C90987   7.416   2.995   0.123 -0.3188 -0.3559  0.2325
  690MOL0     C90988   7.282   3.053   0.165 -0.2638  0.5631 -0.6868
  690MOL0     C90989   7.178   2.942   0.174 -0.1926 -0.2772 -0.3540
  690MOL0     C90990   7.047   2.996   0.245  0.6208 -0.8632 -0.2216
  690MOL0     C90991   6.928   2.902   0.246 -0.2477  0.2897  0.3140
  690MOL0    Cl90992   6.794   2.978   0.327 -0.4187  0.1354 -0.5157
  690MOL0     C90993   7.877   3.157   0.335 -0.2288 -0.1628  0.2609
  690MOL0     C90994   7.991   3.130   0.415  0.7974 -0.4094  0.3374
  690MOL0     O90995   8.224   2.904   0.413 -0.1669 -0.6134  0.0580
  690MOL0     C90996   8.479   2.875   0.521  0.1509  0.2817 -1.7136
  690MOL0     C90997   8.602   2.848   0.573  0.2401 -0.2591 -0.8403
  690MOL0     N90998   9.012   2.786   1.155  0.3324 -1.1062 -0.2478
  690MOL0     N90999   9.116   2.736   1.219 -0.1498  0.1861 -0.0563
  690MOL0     C91000  10.113   2.280   0.787 -0.4201 -0.2529  0.4624
  690MOL0     C91001  10.187   2.238   0.674 -0.3241  0.0665 -0.6155
  690MOL0     C91002  10.401   2.131   0.353 -0.1765 -0.4858 -0.2318
  690MOL0     C91003  10.508   2.172   0.263  0.1497  0.2121  0.3903
  690MOL0     C91004  10.603   2.075   0.218 -0.0663  0.4266  0.8136
  690MOL0     C91005  10.590   1.935   0.251  0.5500 -0.3892  0.1764
  690MOL0     O91006  10.674   1.843   0.191  0.3220  0.3113  0.4574
  690MOL0     C91007  10.730   1.748   0.289 -0.1685  0.9362  0.1589
  690MOL0     C91008  10.870   1.783   0.327 -0.4422 -0.1990  0.0633
  690MOL0     C91009  10.963   1.747   0.214 -0.2550 -0.1975  1.5599
  690MOL0     C91010  11.108   1.777   0.248 -0.2722  0.1343 -0.6672
  690MOL0     C91011  11.126   1.919   0.264  0.4967  0.8039 -0.5600
  690MOL0     C91012  11.131   2.043   0.284 -0.8437  0.1743  0.0108
  690MOL0     C91013  10.480   1.898   0.324  0.5684  0.3501  0.1033
  690MOL0     C91014  10.391   1.994   0.381  0.3111 -0.1768  1.1033
  690MOL0     H91015   9.924   2.192   0.462  2.1961  0.5655 -1.4511
  690MOL0     H91016   9.800   2.269   0.645  0.5190  1.4333 -1.0055
  690MOL0     H91017   9.766   2.369   1.015  1.6050 -2.8732  0.4878
  690MOL0     H91018   9.757   2.365   0.847 -0.2343  0.9311  0.0173
  690MOL0     H91019   9.951   2.559   0.841  0.1827  2.3761  0.5839
  690MOL0     H91020   9.955   2.552   1.018  2.5536 -1.0034 -1.5774
  690MOL0     H91021   9.727   2.647   0.841 -0.8752  0.9271  0.1478
  690MOL0     H91022   9.842   2.747   0.908  1.8217 -0.8324  0.7637
  690MOL0     H91023   9.694   2.567   1.091 -0.2980  0.5357  2.3820
  690MOL0     H91024   9.796   2.709   1.124 -0.5155  0.6332 -1.1398
  690MOL0     H91025   9.549   2.762   0.967  0.4637  2.0245 -1.4565
  690MOL0     H91026   9.639   2.862   1.093 -1.1443  0.0634 -1.0485
  690MOL0     H91027   9.404   2.798   1.158  0.9751  0.6706  2.2588
  690MOL0     H91028   9.527   2.708   1.254  0.6591 -0.0847  0.2105
  690MOL0     H91029   9.421   2.569   0.995  1.0367  2.4804 -0.6420
  690MOL0     H91030   9.482   2.506   1.143 -1.8272  0.3192  1.2619
  690MOL0     H91031   9.309   2.576   1.288  0.1546 -0.2510 -0.1208
  690MOL0     H91032   9.259   2.456   1.169 -1.4435  0.1908  0.9427
  690MOL0     H91033   9.182   2.630   0.920 -1.4144 -1.6634  0.0943
  690MOL0     H91034   8.882   2.887   0.923  0.3415 -0.5097  0.4435
  690MOL0     H91035   8.953   2.765   0.818  0.5480 -0.3662 -0.0294
  690MOL0     H91036   9.160   2.875   0.805 -0.2224 -0.3330 -1.3439
  690MOL0     H91037   9.114   3.006   0.911 -2.9438 -1.4765  2.9449
  690MOL0     H91038   9.089   3.077   0.684  0.0030 -1.6469 -0.7646
  690MOL0     H91039   9.032   2.921   0.635  0.3787  1.2643  0.2940
  690MOL0     H91040   8.862   3.125   0.627 -1.0318 -1.8816 -0.3957
  690MOL0     H91041   8.867   3.112   0.793  4.2981  1.9269 -0.3145
  690MOL0     H91042   8.636   3.156   0.717  3.3751 -1.2472  0.1812
  690MOL0     H91043   8.448   3.205   0.594  1.1876 -0.3876 -3.1521
  690MOL0     H91044   8.240   3.199   0.188  2.0757  4.0511  4.1206
  690MOL0     H91045   8.027   3.264   0.051  0.6451  1.7192 -0.3408
  690MOL0     H91046   7.854   3.098   0.000 -0.6053 -0.5261 -0.9212
  690MOL0     H91047   7.726   3.212  -0.056 -0.1553  3.5632  1.8726
  690MOL0     H91048   7.704   2.978   0.143  5.5387  0.8845 -0.8004
  690MOL0     H91049   7.641   2.976  -0.018  0.3813  1.7451 -1.0727
  690MOL0     H91050   7.497   3.181   0.049 -0.4971 -1.7715 -2.8541
  690MOL0     H91051   7.540   3.142   0.219  0.2804  1.4974 -1.5093
  690MOL0     H91052   7.399   2.974   0.017 -2.5437 -0.2811  0.5310
  690MOL0     H91053   7.448   2.910   0.185  3.3815  0.1088 -0.7625
  690MOL0     H91054   7.260   3.146   0.112  0.3318  0.2891 -1.4302
  690MOL0     H91055   7.308   3.088   0.266 -3.4928  1.3985 -0.0270
  690MOL0     H91056   7.199   2.855   0.238 -4.0037 -0.7025  0.5869
  690MOL0     H91057   7.151   2.905   0.075 -1.0947  2.1551 -1.0666
  690MOL0     H91058   7.065   3.035   0.345 -3.0120  3.1582 -0.8179
  690MOL0     H91059   7.019   3.088   0.192  0.6193 -0.5121  0.3875
  690MOL0     H91060   6.951   2.811   0.301 -2.5447 -0.5924 -0.0758
  690MOL0     H91061   6.890   2.886   0.145 -1.0791  0.4407  0.6012
  690MOL0     H91062   7.777   3.135   0.372  0.6735  0.1957  3.1863
  690MOL0     H91063   7.994   3.099   0.519  1.2697 -3.3468 -0.4658
  690MOL0     H91064   8.428   2.791   0.475  0.2356 -1.6646  1.4178
  690MOL0     H91065   8.650   2.751   0.568 -1.0323 -0.9775  0.2891
  690MOL0     H91066  10.169   2.315   0.873  0.5701  0.4524 -0.4496
  690MOL0     H91067  10.293   2.225   0.691 -0.3674 -1.8224 -1.5024
  690MOL0     H91068  10.512   2.280   0.263 -0.8253  0.4231  4.8018
  690MOL0     H91069  10.685   2.093   0.149 -0.7495 -2.8385 -1.0611
  690MOL0     H91070  10.732   1.655   0.233  2.2422  1.6390 -1.0486
  690MOL0     H91071  10.678   1.749   0.385 -1.3977  1.8150 -0.4857
  690MOL0     H91072  10.876   1.889   0.355  3.1456 -0.0905 -0.6180
  690MOL0     H91073  10.894   1.725   0.416  1.4651 -0.8781 -0.8410
  690MOL0     H91074  10.943   1.794   0.117 -0.3501 -1.6907  0.8210
  690MOL0     H91075  10.948   1.639   0.207 -1.2159  0.0341 -2.5596
  690MOL0     H91076  11.132   1.719   0.339  0.8029 -0.7318 -1.4706
  690MOL0     H91077  11.186   1.738   0.181  0.1405 -1.7373  0.7857
  690MOL0     H91078  11.129   2.148   0.307  1.1493  0.0846  0.7619
  690MOL0     H91079  10.474   1.790   0.337  2.1525  0.2820  0.4730
  690MOL0     H91080  10.303   1.967   0.438 -1.1676 -1.5549 -1.6258
  691MOL0     O91081   7.789   1.595   4.007  0.3765 -0.2033  0.3835
  691MOL0     C91082   7.830   1.568   4.113 -1.1704  0.0280 -0.6725
  691MOL0     O91083   7.758   1.588   4.228  0.6412 -0.7675 -0.6619
  691MOL0     C91084   7.627   1.623   4.223  0.2577  0.3332 -0.0318
  691MOL0     C91085   7.583   1.739   4.154  0.3976 -1.0632 -0.5507
  691MOL0     C91086   7.450   1.784   4.163 -0.7377  0.6268 -0.3963
  691MOL0     C91087   7.353   1.728   4.247  0.1222 -0.7554 -0.0976
  691MOL0     O91088   7.227   1.783   4.256  0.8051  0.4168  0.1781
  691MOL0     C91089   7.137   1.732   4.353  0.5094 -0.8042  0.7947
  691MOL0     C91090   7.020   1.831   4.371 -0.2909 -0.1989 -0.4981
  691MOL0     C91091   6.921   1.819   4.253 -0.6030  0.7551 -0.1331
  691MOL0     C91092   6.858   1.678   4.251 -0.1409 -0.1562  0.8779
  691MOL0     C91093   6.724   1.680   4.174 -0.2882 -0.1052  0.3515
  691MOL0     C91094   6.722   1.759   4.040  0.6767 -0.0023  0.5521
  691MOL0     C91095   6.585   1.739   3.963 -0.5066  0.1382  0.3414
  691MOL0     C91096   6.483   1.856   3.999  0.0209  0.0642  0.5171
  691MOL0     N91097   6.473   1.865   4.143  0.0678  0.1800 -0.4734
  691MOL0     C91098   6.522   1.960   4.220 -0.4018 -0.5587  0.7362
  691MOL0     C91099   6.456   1.949   4.337 -0.1093 -0.3139 -0.7834
  691MOL0     C91100   6.477   2.035   4.458  0.6026  0.4206 -0.2187
  691MOL0     C91101   6.621   2.051   4.509  0.4800  0.9621 -0.2492
  691MOL0     C91102   6.682   1.921   4.567 -0.4016 -0.5738  0.0565
  691MOL0     C91103   6.591   1.853   4.665  0.3898 -0.7589 -0.3750
  691MOL0     O91104   6.650   1.737   4.738 -0.2166  0.4082 -0.2039
  691MOL0     C91105   6.558   1.679   4.826 -0.2688 -1.1798 -0.2438
  691MOL0     C91106   6.615   1.655   4.956  0.3702  0.3075  1.3630
  691MOL0     C91107   6.539   1.570   5.039  0.2143  0.0641 -0.3143
  691MOL0     C91108   6.411   1.528   5.006 -0.1988 -0.2816 -0.5442
  691MOL0     C91109   6.321   1.459   5.104 -0.1952  0.0531  0.5059
  691MOL0     O91110   6.237   1.378   5.056  0.1709  0.5579 -0.1663
  691MOL0     C91111   6.130   1.333   5.133 -0.7551  0.2656 -0.3516
  691MOL0     C91112   6.065   1.404   5.234 -0.4400  0.3421 -1.0813
  691MOL0     C91113   5.952   1.347   5.291  0.0575 -0.6168  0.0824
  691MOL0     C91114   5.913   1.220   5.258  0.0061 -0.0947  1.1344
  691MOL0     O91115   5.812   1.177   5.343 -0.6616 -0.0180  0.2887
  691MOL0     C91116   5.763   1.043   5.331  0.1869 -0.1522 -0.0987
  691MOL0     C91117   5.678   1.020   5.204 -0.5895 -0.5517  0.3399
  691MOL0     C91118   5.621   0.880   5.195 -0.2084 -0.4368  0.1137
  691MOL0     C91119   5.511   0.878   5.087  0.4422  1.0014  0.2284
  691MOL0     C91120   5.387   0.807   5.141 -0.0972  0.2933 -0.8957
  691MOL0     C91121   5.398   0.651   5.130  0.4898  0.5654 -0.9165
  691MOL0     C91122   5.276   0.589   5.200 -0.4870 -0.3567  0.0056
  691MOL0     C91123   5.286   0.598   5.357 -0.1335 -0.6388  0.0212
  691MOL0    Cl91124   5.167   0.489   5.440  0.2725 -0.0311 -0.2452
  691MOL0     C91125   5.983   1.150   5.163 -0.2764 -0.6447  0.1898
  691MOL0     C91126   6.091   1.203   5.094  0.0089  0.5204 -0.5153
  691MOL0     O91127   6.343   1.476   5.222  0.4855  0.3317  0.3707
  691MOL0     C91128   6.364   1.538   4.874  0.1287 -0.3137 -0.2601
  691MOL0     C91129   6.441   1.620   4.792 -0.0589  0.2338  0.0042
  691MOL0     N91130   6.371   1.844   4.330  0.2031  0.3915 -0.2468
  691MOL0     N91131   6.372   1.800   4.211 -1.3050 -0.3600  0.3179
  691MOL0     C91132   7.396   1.609   4.318 -0.1239  0.2457  0.6973
  691MOL0     C91133   7.529   1.566   4.306  0.1726  0.5700 -0.7089
  691MOL0     C91134   7.966   1.494   4.125  0.2443 -0.1315 -0.0206
  691MOL0     C91135   8.029   1.438   4.010  0.1411 -0.4222  0.3519
  691MOL0     C91136   8.146   1.370   4.023 -0.1938 -0.2602  0.1969
  691MOL0     C91137   8.224   1.367   4.140  0.9889 -0.0362  0.5247
  691MOL0     O91138   8.343   1.304   4.157  0.1705 -0.5601 -0.4652
  691MOL0     C91139   8.413   1.256   4.038  1.2969 -0.1616 -0.2869
  691MOL0     C91140   8.566   1.238   4.076 -0.5383  1.0347  0.8340
  691MOL0     C91141   8.616   1.377   4.116 -0.2337  0.6896  0.4613
  691MOL0     C91142   8.747   1.371   4.186 -0.9128 -0.2480 -0.1185
  691MOL0     C91143   8.796   1.503   4.234  0.3434  0.8685  0.2375
  691MOL0     C91144   8.839   1.597   4.287 -0.3624 -0.7086 -0.3208
  691MOL0     C91145   8.166   1.434   4.248 -0.0672 -0.2439  0.3475
  691MOL0     C91146   8.036   1.488   4.241  0.0600  0.2175  0.2710
  691MOL0     H91147   7.656   1.794   4.095 -0.2379 -0.0692 -0.4467
  691MOL0     H91148   7.415   1.872   4.110 -1.9735  1.8326  2.2212
  691MOL0     H91149   7.201   1.733   4.442  1.8711 -0.7118 -0.1644
  691MOL0     H91150   7.104   1.631   4.327  0.7744 -1.0921  1.5515
  691MOL0     H91151   7.070   1.927   4.357  0.5791 -0.9720 -3.3982
  691MOL0     H91152   6.968   1.827   4.468 -0.8888  3.5684 -0.5019
  691MOL0     H91153   6.974   1.852   4.163  0.1430  2.0073  0.7284
  691MOL0     H91154   6.836   1.886   4.266 -0.8113  0.8175 -1.6492
  691MOL0     H91155   6.931   1.616   4.197 -0.2028  0.2766  0.2893
  691MOL0     H91156   6.840   1.628   4.347  0.7273 -1.9093  0.1793
  691MOL0     H91157   6.641   1.720   4.233 -1.9202  1.2096 -2.5715
  691MOL0     H91158   6.704   1.574   4.155  0.0756 -0.1169  0.0131
  691MOL0     H91159   6.795   1.729   3.964 -2.8743  0.3713 -3.3920
  691MOL0     H91160   6.735   1.868   4.048 -2.6035  0.4564  0.8854
  691MOL0     H91161   6.600   1.743   3.855 -3.6573 -1.5108 -0.2626
  691MOL0     H91162   6.546   1.641   3.990 -1.6970  0.8943  1.5332
  691MOL0     H91163   6.387   1.828   3.953  0.1168  0.3479  0.1411
  691MOL0     H91164   6.509   1.947   3.944 -2.0176 -0.1954 -0.9965
  691MOL0     H91165   6.605   2.024   4.192 -0.1900 -1.0420  0.2386
  691MOL0     H91166   6.409   1.994   4.533  1.1074  1.1677  0.6635
  691MOL0     H91167   6.446   2.133   4.421 -1.7593 -0.6050 -1.2111
  691MOL0     H91168   6.604   2.121   4.592  0.9607 -2.6261  3.2211
  691MOL0     H91169   6.687   2.093   4.433  0.7595  0.9291 -0.0271
  691MOL0     H91170   6.720   1.873   4.476  0.5175  0.7724 -0.2923
  691MOL0     H91171   6.774   1.953   4.616 -0.6749 -2.5622  2.0063
  691MOL0     H91172   6.499   1.817   4.618  0.3323  0.4666 -1.2616
  691MOL0     H91173   6.566   1.928   4.741  1.0554 -2.3055  1.4361
  691MOL0     H91174   6.714   1.688   4.987  0.9064  0.6368 -0.5649
  691MOL0     H91175   6.587   1.554   5.135 -0.3625 -2.1498 -0.3420
  691MOL0     H91176   6.109   1.494   5.277  2.0879 -2.1589  2.1369
  691MOL0     H91177   5.891   1.398   5.366 -1.5040  1.6763 -2.5611
  691MOL0     H91178   5.704   1.028   5.422  3.5541  1.8867  2.6798
  691MOL0     H91179   5.845   0.971   5.340  0.9759  0.2422 -3.1093
  691MOL0     H91180   5.731   1.042   5.112  3.7069 -2.8825  1.9709
  691MOL0     H91181   5.595   1.092   5.206  0.1314  0.3003  0.0763
  691MOL0     H91182   5.599   0.865   5.301 -0.1026  4.2627  0.9813
  691MOL0     H91183   5.693   0.804   5.162 -0.0939 -0.4239  0.3329
  691MOL0     H91184   5.479   0.974   5.046 -2.7797 -0.1810 -0.2797
  691MOL0     H91185   5.552   0.832   4.997  0.1846  1.2666 -0.0263
  691MOL0     H91186   5.300   0.842   5.084 -0.1299  0.2506 -0.8709
  691MOL0     H91187   5.370   0.850   5.240  0.7222 -2.1201  0.3854
  691MOL0     H91188   5.496   0.628   5.175 -0.4420  0.7545  1.3714
  691MOL0     H91189   5.384   0.630   5.024  1.6424  0.9285 -1.1540
  691MOL0     H91190   5.182   0.630   5.162  0.1945  2.0259  0.7244
  691MOL0     H91191   5.290   0.483   5.179 -0.1703 -0.3211  0.0412
  691MOL0     H91192   5.257   0.702   5.373 -1.2099 -0.7358 -1.1210
  691MOL0     H91193   5.388   0.583   5.394  0.1656  0.6356 -0.2441
  691MOL0     H91194   5.945   1.051   5.139  1.0990 -1.5693  1.6297
  691MOL0     H91195   6.138   1.132   5.028 -0.3101  1.4885 -1.8255
  691MOL0     H91196   6.271   1.488   4.847  0.5828 -1.6960  0.6173
  691MOL0     H91197   6.404   1.641   4.692 -0.4417  1.0380  0.3011
  691MOL0     H91198   7.327   1.568   4.391  1.1094 -1.4647  0.9635
  691MOL0     H91199   7.564   1.482   4.365  1.6542  3.1476  2.3621
  691MOL0     H91200   7.975   1.436   3.916  0.4689 -2.2570  0.1782
  691MOL0     H91201   8.171   1.306   3.940 -0.5779  1.8504 -1.6430
  691MOL0     H91202   8.401   1.322   3.952 -0.4845  0.1896  0.1948
  691MOL0     H91203   8.374   1.160   4.005 -2.5343  1.7923 -2.0334
  691MOL0     H91204   8.569   1.161   4.153  5.0664 -1.8026 -1.6396
  691MOL0     H91205   8.623   1.207   3.988  0.0793  0.3027  1.4816
  691MOL0     H91206   8.546   1.429   4.181  1.1658  3.2115  0.1030
  691MOL0     H91207   8.634   1.429   4.021 -0.8164  0.5444  0.2684
  691MOL0     H91208   8.737   1.301   4.269  1.0217 -1.3525 -0.7518
  691MOL0     H91209   8.823   1.331   4.118  0.4810  0.1465  1.1558
  691MOL0     H91210   8.868   1.694   4.322 -0.1766 -0.3637 -1.3992
  691MOL0     H91211   8.229   1.431   4.336  1.3490  0.1285 -0.6258
  691MOL0     H91212   7.996   1.543   4.326  0.0614 -1.1237  1.1803
  692MOL0     O91213  10.770   2.079   2.831 -0.6437  0.0555  0.4460
  692MOL0     C91214  10.780   2.180   2.895 -0.7625  0.1911  0.6940
  692MOL0     O91215  10.894   2.254   2.925 -0.0365 -0.7984  0.1933
  692MOL0     C91216  11.008   2.187   2.903 -0.9430 -0.8561  0.4202
  692MOL0     C91217  11.049   2.136   2.774 -0.5945 -0.0799 -0.2873
  692MOL0     C91218  11.175   2.079   2.756 -1.0626 -0.7247  0.2078
  692MOL0     C91219  11.269   2.077   2.870  0.2580 -0.5470  0.2796
  692MOL0     O91220  11.401   2.023   2.870  0.3056  0.3367 -0.4845
  692MOL0     C91221  11.458   1.959   2.753  0.1087  0.0548 -0.3370
  692MOL0     C91222  11.594   1.896   2.794  0.1380  1.0839  0.3143
  692MOL0     C91223  11.652   1.812   2.687  0.5190  0.5414 -0.5991
  692MOL0     C91224  11.800   1.779   2.724  0.0350  0.0607 -0.4859
  692MOL0     C91225  11.861   1.659   2.658 -1.0278  0.1528  0.4932
  692MOL0     C91226  12.005   1.633   2.702 -0.0735 -0.1381 -0.5638
  692MOL0     C91227  12.055   1.495   2.663  0.4603 -0.1590 -0.8026
  692MOL0     C91228  12.034   1.470   2.517  0.5479 -0.1766  0.4882
  692MOL0     N91229  12.095   1.348   2.469  0.3474  0.3761 -0.1268
  692MOL0     C91230  12.223   1.340   2.426 -0.9313 -0.1125 -0.0164
  692MOL0     C91231  12.238   1.225   2.366  0.6899 -0.0834 -0.8680
  692MOL0     C91232  12.369   1.175   2.304 -0.2923 -0.1484  0.6529
  692MOL0     C91233  12.356   1.032   2.261 -1.1438 -0.6027 -0.0798
  692MOL0     C91234  12.484   0.972   2.220  0.3232 -0.0003  0.0559
  692MOL0     C91235  12.557   0.916   2.334  0.1588 -0.5709 -0.3440
  692MOL0     O91236  12.632   1.022   2.407  0.5573  0.3629  0.1112
  692MOL0     C91237  12.749   0.984   2.471  0.2221 -0.8281 -0.0006
  692MOL0     C91238  12.809   1.091   2.544 -0.3531 -0.2223  0.0096
  692MOL0     C91239  12.933   1.065   2.611  0.2992  0.2510 -0.4490
  692MOL0     C91240  12.990   0.936   2.617  0.6710  0.5275 -0.2935
  692MOL0     C91241  13.107   0.912   2.692  0.2216  1.8210 -0.4349
  692MOL0     O91242  13.160   1.023   2.757 -0.3533  0.1780  0.1422
  692MOL0     C91243  13.274   1.012   2.829 -0.0589  0.6139  0.9093
  692MOL0     C91244  13.386   0.942   2.775 -0.0562  0.1641  0.0426
  692MOL0     C91245  13.499   0.930   2.848  0.2690  0.2602  0.3957
  692MOL0     C91246  13.526   1.008   2.959  0.6438  0.2214  0.3248
  692MOL0     O91247  13.649   0.980   3.023 -0.3461 -0.1399 -0.1460
  692MOL0     C91248  13.714   1.082   3.089  0.1060 -0.4730 -0.6861
  692MOL0     C91249  13.738   1.200   2.988  0.5896  0.6269  0.1911
  692MOL0     C91250  13.860   1.277   3.030  0.2410  0.1139  0.3876
  692MOL0     C91251  13.888   1.399   2.931  0.6467  0.8528  0.0367
  692MOL0     C91252  14.024   1.459   2.956 -0.0219  0.8644  0.2839
  692MOL0     C91253  14.014   1.567   3.062  0.0816  0.5006  0.6844
  692MOL0     C91254  14.139   1.665   3.071  0.3502 -0.2110  0.2590
  692MOL0     C91255  14.120   1.799   2.996  0.1750 -0.4678  0.0809
  692MOL0    Cl91256  14.143   1.768   2.817  0.2406  0.0599 -0.1577
  692MOL0     C91257  13.428   1.089   3.007  0.7569  0.1389  0.4600
  692MOL0     C91258  13.295   1.092   2.947 -1.1991  0.1460  0.1826
  692MOL0     O91259  13.151   0.799   2.692  0.5539 -0.4195  0.1582
  692MOL0     C91260  12.918   0.830   2.552  0.3114  0.4532 -0.3231
  692MOL0     C91261  12.802   0.856   2.477 -0.3877  0.5021  0.8083
  692MOL0     N91262  12.114   1.160   2.375 -0.6368  1.0392 -0.2750
  692MOL0     N91263  12.031   1.238   2.443 -0.0687 -0.1872  0.4326
  692MOL0     C91264  11.212   2.113   3.000 -0.2241 -0.5821  0.1928
  692MOL0     C91265  11.085   2.161   3.015  0.5175  0.6056 -1.0351
  692MOL0     C91266  10.653   2.231   2.959  0.0582 -0.1199 -0.4608
  692MOL0     C91267  10.654   2.343   3.043  0.0805 -0.1204 -0.3376
  692MOL0     C91268  10.536   2.388   3.099 -0.5477 -0.9129 -0.3817
  692MOL0     C91269  10.415   2.329   3.089 -0.4073  0.7444  0.3860
  692MOL0     O91270  10.296   2.379   3.125  0.5521  0.1874  0.0421
  692MOL0     C91271  10.301   2.458   3.244 -0.6464  1.0706 -0.1757
  692MOL0     C91272  10.173   2.447   3.322  0.1185  0.6233 -0.3912
  692MOL0     C91273  10.055   2.476   3.225  0.7857 -0.5728  0.0596
  692MOL0     C91274   9.921   2.501   3.299 -0.1472 -0.6546 -0.1179
  692MOL0     C91275   9.808   2.507   3.200  0.6308  0.6934 -0.1465
  692MOL0     C91276   9.707   2.513   3.126  0.2335 -0.9855  0.1721
  692MOL0     C91277  10.412   2.210   3.007  0.0251  0.7226  0.2552
  692MOL0     C91278  10.535   2.164   2.947  1.3227 -0.0445 -0.0901
  692MOL0     H91279  10.972   2.143   2.698  0.7207  1.2642 -1.5456
  692MOL0     H91280  11.206   2.044   2.659 -2.2699 -0.9031 -0.1345
  692MOL0     H91281  11.470   2.037   2.677 -3.4130 -0.7115 -1.8801
  692MOL0     H91282  11.391   1.881   2.719  0.2658 -1.5722  2.7644
  692MOL0     H91283  11.585   1.830   2.880 -0.8893 -0.2735 -0.7887
  692MOL0     H91284  11.664   1.980   2.802  0.1219  1.1373 -0.0820
  692MOL0     H91285  11.648   1.866   2.593 -0.4047  0.8566 -0.3874
  692MOL0     H91286  11.610   1.713   2.665  0.9761 -0.3712  2.1344
  692MOL0     H91287  11.853   1.868   2.689 -0.7585  0.5400 -0.4785
  692MOL0     H91288  11.807   1.778   2.833 -1.0002  2.8070 -0.3276
  692MOL0     H91289  11.853   1.655   2.549 -3.3667 -2.8425  0.6367
  692MOL0     H91290  11.799   1.571   2.682  0.3147 -0.7576  0.7404
  692MOL0     H91291  12.016   1.638   2.811 -0.4061 -2.4582 -0.3617
  692MOL0     H91292  12.082   1.701   2.663 -1.2934  0.7770 -1.4215
  692MOL0     H91293  12.165   1.491   2.669  0.4899 -0.6749 -1.5250
  692MOL0     H91294  12.011   1.408   2.713 -0.6006 -0.2998 -1.9326
  692MOL0     H91295  12.078   1.558   2.468  3.0673 -1.2190  0.7721
  692MOL0     H91296  11.929   1.461   2.487  1.2255  0.1883 -2.2677
  692MOL0     H91297  12.301   1.415   2.435 -1.5473  0.2713  3.2867
  692MOL0     H91298  12.451   1.191   2.375 -0.4889  0.1350  0.8190
  692MOL0     H91299  12.390   1.240   2.219 -0.7006  0.4030  0.9640
  692MOL0     H91300  12.296   1.048   2.171 -0.3051  0.1481 -0.5261
  692MOL0     H91301  12.303   0.964   2.328  2.0748 -2.5190  0.6841
  692MOL0     H91302  12.459   0.880   2.166  5.2866 -0.7858 -1.3461
  692MOL0     H91303  12.540   1.031   2.147 -0.9948  0.1909 -0.8462
  692MOL0     H91304  12.631   0.848   2.291 -1.8433 -1.9500 -1.7964
  692MOL0     H91305  12.498   0.860   2.407  2.5568 -0.0073  2.1928
  692MOL0     H91306  12.758   1.187   2.543 -0.2021 -0.1065  1.3296
  692MOL0     H91307  12.981   1.150   2.659  0.0013  1.1019 -1.6252
  692MOL0     H91308  13.385   0.877   2.688  1.7274 -0.1554  0.2316
  692MOL0     H91309  13.575   0.863   2.808 -1.3559 -2.3066  1.3537
  692MOL0     H91310  13.810   1.049   3.129  0.0293  1.1458  0.9562
  692MOL0     H91311  13.654   1.125   3.169 -0.9637 -1.0309 -1.1632
  692MOL0     H91312  13.647   1.260   2.995 -0.7148 -1.4553  2.2512
  692MOL0     H91313  13.756   1.151   2.892  0.4137  0.3618  0.2927
  692MOL0     H91314  13.945   1.208   3.031  1.6278  1.7156 -0.3687
  692MOL0     H91315  13.849   1.325   3.128 -1.2812  3.2319 -1.1388
  692MOL0     H91316  13.891   1.369   2.826 -1.8847  0.0419  0.1287
  692MOL0     H91317  13.824   1.486   2.913  1.8987  1.0484 -4.6915
  692MOL0     H91318  14.050   1.502   2.859 -1.2795 -1.7812 -1.3352
  692MOL0     H91319  14.100   1.387   2.988 -0.4553  0.5862  0.6885
  692MOL0     H91320  14.000   1.517   3.159 -0.6020  1.6758  1.2132
  692MOL0     H91321  13.928   1.629   3.035  0.6205  1.0659  0.2248
  692MOL0     H91322  14.183   1.675   3.170  1.9075 -0.8008 -0.3363
  692MOL0     H91323  14.215   1.622   3.004 -1.2062  3.3838 -4.3639
  692MOL0     H91324  14.186   1.867   3.051  0.8541  1.5683 -3.0070
  692MOL0     H91325  14.020   1.839   3.013  1.0237  1.9500 -0.2121
  692MOL0     H91326  13.430   1.161   3.088  0.1572  2.8794 -1.7938
  692MOL0     H91327  13.224   1.167   2.982  0.0005  1.3654  0.0637
  692MOL0     H91328  12.947   0.727   2.569 -2.6003 -0.1375  2.0039
  692MOL0     H91329  12.780   0.766   2.421  3.1978 -0.3490  0.5086
  692MOL0     H91330  11.277   2.099   3.086  0.3504  1.2959  0.1179
  692MOL0     H91331  11.057   2.194   3.115 -1.2174 -0.0394 -1.2621
  692MOL0     H91332  10.753   2.385   3.055 -0.7540  2.6107 -2.0149
  692MOL0     H91333  10.554   2.479   3.156 -1.6575 -0.5806 -0.5312
  692MOL0     H91334  10.325   2.562   3.220 -1.5790  1.0990 -1.0524
  692MOL0     H91335  10.389   2.433   3.303 -2.1158  2.7875  2.9951
  692MOL0     H91336  10.168   2.342   3.353  2.4820  0.2666 -1.0683
  692MOL0     H91337  10.171   2.503   3.416  1.6749  0.3593 -0.1780
  692MOL0     H91338  10.048   2.391   3.158 -0.9978 -1.0044  0.7522
  692MOL0     H91339  10.076   2.569   3.170 -1.6702  0.1303  0.1936
  692MOL0     H91340   9.904   2.424   3.374 -2.9077 -0.0746 -0.0294
  692MOL0     H91341   9.926   2.590   3.362  0.6569 -0.7435 -0.0398
  692MOL0     H91342   9.609   2.514   3.081 -1.3496 -2.4792  3.2469
  692MOL0     H91343  10.328   2.152   2.970  3.1382 -2.0803 -3.1335
  692MOL0     H91344  10.528   2.075   2.886 -0.8968  0.7428 -1.0918
  693MOL0     O91345   5.551   8.858   9.624  0.2170 -0.5286 -0.2664
  693MOL0     C91346   5.608   8.814   9.721  0.2385  0.3653 -1.0625
  693MOL0     O91347   5.553   8.788   9.836 -0.2546  0.4800  1.0885
  693MOL0     C91348   5.422   8.824   9.856  0.0621  0.0826 -0.4716
  693MOL0     C91349   5.314   8.755   9.805  0.4584  0.3291  0.3300
  693MOL0     C91350   5.185   8.781   9.854 -0.2825 -0.8072 -0.3091
  693MOL0     C91351   5.167   8.884   9.953 -0.3105 -0.3839 -0.3014
  693MOL0     O91352   5.043   8.902  10.005  0.3424 -0.7869  0.0047
  693MOL0     C91353   5.013   9.017  10.091 -0.7502  0.0322 -0.3821
  693MOL0     C91354   4.869   9.035  10.115 -0.0141  0.1423  0.5057
  693MOL0     C91355   4.807   8.912  10.194  0.6821  0.9477 -0.1337
  693MOL0     C91356   4.665   8.862  10.166  0.0602  0.0808  0.3613
  693MOL0     C91357   4.558   8.972  10.145 -0.5024 -1.2190 -0.4395
  693MOL0     C91358   4.418   8.916  10.153 -0.2867 -0.6764 -0.3336
  693MOL0     C91359   4.336   9.034  10.105  0.6060  0.0907  0.1625
  693MOL0     C91360   4.195   8.995  10.074  0.8587  0.9051  0.1994
  693MOL0     N91361   4.121   8.963  10.203 -0.3290 -0.6791 -0.4464
  693MOL0     C91362   4.085   9.046  10.306  0.2146 -0.0030 -0.4674
  693MOL0     C91363   4.004   8.971  10.375  0.3894 -0.7681 -0.0213
  693MOL0     C91364   3.912   9.009  10.495 -0.4927  0.1188  1.0952
  693MOL0     C91365   3.766   8.976  10.467  0.0229  0.2573 -0.2276
  693MOL0     C91366   3.725   9.009  10.317  0.0608  0.1529 -0.8798
  693MOL0     C91367   3.569   8.994  10.307 -0.3126  0.1236 -0.2922
  693MOL0     O91368   3.531   9.017  10.169 -0.6122  0.5607  0.2649
  693MOL0     C91369   3.400   9.030  10.125  0.6498 -1.2026  0.3253
  693MOL0     C91370   3.375   9.065   9.984 -0.1345 -0.8262 -1.2101
  693MOL0     C91371   3.248   9.065   9.936 -1.0872  0.3951  0.1391
  693MOL0     C91372   3.138   9.020  10.017 -0.3174  0.0839 -0.2491
  693MOL0     C91373   2.997   9.013   9.962 -0.2053 -0.3968 -1.1310
  693MOL0     O91374   2.906   8.936  10.026 -0.7212  0.4560 -0.3677
  693MOL0     C91375   2.771   8.953  10.023 -0.4597  1.0653  0.2445
  693MOL0     C91376   2.691   8.846  10.069 -0.6163 -0.1580 -0.9982
  693MOL0     C91377   2.549   8.861  10.078 -0.5842 -0.3219  0.4382
  693MOL0     C91378   2.492   8.986  10.050  0.8837 -0.6393  1.1084
  693MOL0     O91379   2.361   9.021  10.047 -0.0644 -0.7963  0.3371
  693MOL0     C91380   2.257   8.922  10.070  1.0424 -1.1289 -0.3436
  693MOL0     C91381   2.119   8.985  10.063  0.0045 -0.2172  0.1631
  693MOL0     C91382   2.084   9.009   9.920  0.7828 -0.1215  0.5621
  693MOL0     C91383   1.953   9.089   9.904 -0.7066  0.2625 -0.5086
  693MOL0     C91384   1.915   9.105   9.752 -0.6348  0.0229 -1.1772
  693MOL0     C91385   1.763   9.106   9.722  0.1404 -0.6002  0.5005
  693MOL0     C91386   1.671   9.234   9.753 -0.4125 -0.3215 -0.8128
  693MOL0     C91387   1.539   9.222   9.681 -0.1403 -0.3018 -0.3279
  693MOL0    Cl91388   1.455   9.077   9.735 -0.4212 -0.1119 -0.3516
  693MOL0     C91389   2.575   9.092  10.004 -0.3377 -0.8350  0.2220
  693MOL0     C91390   2.717   9.072   9.989  0.4635 -1.2968 -0.0356
  693MOL0     O91391   2.977   9.079   9.862  0.9947  0.1605  0.2304
  693MOL0     C91392   3.167   8.982  10.146  0.6961  0.1074 -0.0195
  693MOL0     C91393   3.292   8.991  10.203  0.1182 -1.1274  0.5254
  693MOL0     N91394   4.016   8.841  10.349  0.3960  0.2482 -0.3217
  693MOL0     N91395   4.076   8.841  10.239 -0.1618  0.4739  0.6643
  693MOL0     C91396   5.275   8.964   9.985 -0.4491  0.8452 -0.3786
  693MOL0     C91397   5.405   8.931   9.946  0.1742  0.5703 -0.2246
  693MOL0     C91398   5.763   8.809   9.726  0.7813 -0.2987 -0.9687
  693MOL0     C91399   5.831   8.835   9.613  0.1113  0.5246  0.6188
  693MOL0     C91400   5.966   8.835   9.611  0.1674 -0.2640  0.5412
  693MOL0     C91401   6.037   8.799   9.721  0.4084  0.1765 -0.1489
  693MOL0     O91402   6.174   8.812   9.715 -0.2493 -0.5278  0.2165
  693MOL0     C91403   6.260   8.769   9.819 -0.9976 -0.0838  0.6277
  693MOL0     C91404   6.406   8.755   9.750  0.0620 -0.3357  0.6020
  693MOL0     C91405   6.485   8.889   9.765  0.4558  0.4778 -0.4717
  693MOL0     C91406   6.598   8.892   9.673 -0.6462  0.1205  0.3219
  693MOL0     C91407   6.696   8.786   9.715 -0.9087 -0.2439  0.0642
  693MOL0     C91408   6.784   8.703   9.742  0.9739  0.5519  0.0822
  693MOL0     C91409   5.974   8.768   9.840 -0.2422  0.1362  0.6398
  693MOL0     C91410   5.834   8.776   9.845 -0.5374 -0.5315 -0.3014
  693MOL0     H91411   5.332   8.681   9.728 -3.0701  2.2249 -2.6086
  693MOL0     H91412   5.096   8.727   9.821 -1.9994  2.4552 -1.4385
  693MOL0     H91413   5.064   9.110  10.063  2.3901 -1.9970 -2.0995
  693MOL0     H91414   5.052   9.008  10.193  1.6649  2.0386 -1.0237
  693MOL0     H91415   4.828   9.060  10.016  2.6803  0.8122 -0.5381
  693MOL0     H91416   4.855   9.130  10.169 -0.7611  1.7716 -2.3384
  693MOL0     H91417   4.808   8.937  10.300  1.2927  2.2217 -0.4197
  693MOL0     H91418   4.869   8.823  10.176 -2.6274 -1.4412 -0.5494
  693MOL0     H91419   4.666   8.802  10.074  0.9105  2.0074 -0.9660
  693MOL0     H91420   4.644   8.808  10.258  1.2164  0.1572  0.6900
  693MOL0     H91421   4.576   9.019  10.048 -1.6966 -0.3629 -0.2723
  693MOL0     H91422   4.571   9.047  10.223 -3.1945 -2.2705  1.1396
  693MOL0     H91423   4.394   8.889  10.256  1.2896 -1.1044 -0.0596
  693MOL0     H91424   4.411   8.828  10.089 -0.2963 -2.5147  2.0557
  693MOL0     H91425   4.335   9.114  10.180 -2.4929  0.4391 -0.1379
  693MOL0     H91426   4.371   9.093  10.020  1.0975 -2.8085 -1.8005
  693MOL0     H91427   4.193   8.901  10.018  3.8030  1.4102 -0.9701
  693MOL0     H91428   4.140   9.069  10.015  2.2019  0.4199 -1.7632
  693MOL0     H91429   4.103   9.153  10.314  4.8383 -0.7019  1.9389
  693MOL0     H91430   3.926   9.116  10.510 -1.7412  0.2568  1.4215
  693MOL0     H91431   3.936   8.956  10.587 -0.1276  1.8866  2.0464
  693MOL0     H91432   3.708   9.035  10.539 -0.1449 -1.7825  1.4016
  693MOL0     H91433   3.760   8.868  10.483 -1.5658 -0.2104 -3.2148
  693MOL0     H91434   3.746   9.114  10.296 -2.0742  0.3754 -2.2944
  693MOL0     H91435   3.767   8.936  10.248  0.3447 -2.1782  1.6281
  693MOL0     H91436   3.520   9.066  10.374  0.8766  2.1887 -1.5284
  693MOL0     H91437   3.541   8.893  10.336  1.5755 -1.2406 -2.8536
  693MOL0     H91438   3.471   9.083   9.936  0.1042 -1.3961 -0.9586
  693MOL0     H91439   3.248   9.097   9.832  3.1084 -0.2358 -0.2579
  693MOL0     H91440   2.739   8.753  10.096  0.2435  0.7099  0.6176
  693MOL0     H91441   2.479   8.790  10.121 -1.0380 -1.1407 -1.5457
  693MOL0     H91442   2.278   8.880  10.169  0.4641 -0.2119  0.1804
  693MOL0     H91443   2.261   8.837  10.001 -1.7804 -1.5279 -0.1415
  693MOL0     H91444   2.126   9.079  10.119  1.8599  0.1702 -0.6423
  693MOL0     H91445   2.044   8.917  10.104  2.7638 -3.8418 -0.2197
  693MOL0     H91446   2.083   8.905   9.887 -2.1503  0.5636 -1.9536
  693MOL0     H91447   2.157   9.076   9.873  0.7841  0.2757  1.1135
  693MOL0     H91448   1.865   9.041   9.949  0.3497 -1.2188  0.0656
  693MOL0     H91449   1.965   9.183   9.959 -0.9381 -1.4601  2.7853
  693MOL0     H91450   1.945   9.013   9.701 -2.8733 -1.6956  0.3991
  693MOL0     H91451   1.958   9.199   9.715 -1.2341  1.2130  0.9937
  693MOL0     H91452   1.712   9.024   9.775 -1.5378  0.4386  0.5361
  693MOL0     H91453   1.745   9.085   9.617 -0.9620 -1.3642  0.8236
  693MOL0     H91454   1.663   9.251   9.860  4.2758  2.9388 -0.6996
  693MOL0     H91455   1.722   9.324   9.719  0.0701  0.2037  1.1925
  693MOL0     H91456   1.559   9.213   9.573 -4.0403 -2.7431 -1.0477
  693MOL0     H91457   1.481   9.313   9.700  2.6437  1.2319  1.4703
  693MOL0     H91458   2.532   9.189   9.982  1.8563  0.0253 -0.5673
  693MOL0     H91459   2.768   9.163   9.959  0.2080 -0.9655  0.5152
  693MOL0     H91460   3.080   8.951  10.204  1.8099  0.2434  1.8091
  693MOL0     H91461   3.315   8.961  10.305  1.4149 -2.2811 -0.0785
  693MOL0     H91462   5.276   9.040  10.063  0.0453 -0.2304  0.7085
  693MOL0     H91463   5.500   8.964   9.987  1.7248 -1.8589 -1.6708
  693MOL0     H91464   5.774   8.869   9.527 -0.5802  0.5436  1.0673
  693MOL0     H91465   6.024   8.856   9.522  1.6761 -2.5223  0.8993
  693MOL0     H91466   6.236   8.665   9.844  0.1006 -0.3270  0.7318
  693MOL0     H91467   6.242   8.825   9.911 -1.0791 -0.9910  1.1813
  693MOL0     H91468   6.455   8.675   9.807 -2.1250 -1.7147  0.6393
  693MOL0     H91469   6.393   8.714   9.650 -1.2670 -1.9305  1.3919
  693MOL0     H91470   6.514   8.886   9.870  1.8334  1.0531 -0.8199
  693MOL0     H91471   6.410   8.965   9.742 -0.7356 -0.3378  0.5238
  693MOL0     H91472   6.567   8.868   9.571 -3.2340 -2.7609  1.6092
  693MOL0     H91473   6.651   8.987   9.667  1.3918 -0.8986  1.0039
  693MOL0     H91474   6.843   8.613   9.749  3.6970  2.3184  1.5116
  693MOL0     H91475   6.019   8.730   9.931 -1.5756 -2.8593  0.1852
  693MOL0     H91476   5.788   8.750   9.940  0.0413 -0.2639  0.0540
  694MOL0     O91477   3.625   8.247   2.311  0.5023  0.3834 -0.0484
  694MOL0     C91478   3.688   8.156   2.258 -0.0863  0.0723  0.3871
  694MOL0     O91479   3.675   8.028   2.285 -0.2470 -0.0860 -0.6678
  694MOL0     C91480   3.588   7.970   2.379 -0.3992 -0.1890 -0.2607
  694MOL0     C91481   3.593   7.833   2.379 -0.5547  0.4605 -0.2031
  694MOL0     C91482   3.513   7.755   2.456  0.8863 -0.3444  0.6063
  694MOL0     C91483   3.429   7.815   2.555 -0.3952  0.6669  0.3828
  694MOL0     O91484   3.343   7.731   2.624 -0.1434  0.8476 -0.2731
  694MOL0     C91485   3.235   7.771   2.705  0.0409 -0.0481  0.3984
  694MOL0     C91486   3.177   7.662   2.790 -0.1909 -0.0289  0.4273
  694MOL0     C91487   3.067   7.717   2.882 -0.1592  0.5482 -0.4858
  694MOL0     C91488   3.016   7.610   2.978  0.2107  0.2349  0.3760
  694MOL0     C91489   2.907   7.658   3.087 -0.4082  0.6872 -0.2239
  694MOL0     C91490   2.958   7.787   3.149 -0.2940  0.3413 -0.1611
  694MOL0     C91491   2.891   7.813   3.282  0.6456 -0.1029  0.1959
  694MOL0     C91492   2.948   7.932   3.369 -0.3690 -0.3067 -0.5484
  694MOL0     N91493   2.944   8.067   3.300 -0.2320  0.1397  0.2863
  694MOL0     C91494   2.825   8.125   3.269  0.3665 -0.9263  0.0089
  694MOL0     C91495   2.864   8.208   3.160  0.9486  0.0045 -0.0781
  694MOL0     C91496   2.790   8.291   3.058  0.9095 -0.1748 -0.8579
  694MOL0     C91497   2.759   8.210   2.935  0.1494  0.6259  0.6218
  694MOL0     C91498   2.659   8.096   2.967  0.3035  0.1871  0.3692
  694MOL0     C91499   2.517   8.152   3.006  0.3470 -0.1776 -0.6671
  694MOL0     O91500   2.493   8.103   3.148 -0.6754  0.2913 -0.8635
  694MOL0     C91501   2.364   8.085   3.202 -0.2280 -0.8552 -0.4589
  694MOL0     C91502   2.351   8.029   3.329 -0.6956  0.3113 -0.0136
  694MOL0     C91503   2.231   8.014   3.394 -0.1859 -0.3239  0.3053
  694MOL0     C91504   2.110   8.053   3.329 -0.1237 -0.2615  0.0151
  694MOL0     C91505   1.984   8.037   3.398 -0.1223 -1.6174 -0.6092
  694MOL0     O91506   1.979   7.988   3.526  0.1178  0.2209  0.6059
  694MOL0     C91507   1.855   7.987   3.585  0.0816  0.7882  1.0958
  694MOL0     C91508   1.758   7.889   3.563  0.1434  0.3435 -0.6665
  694MOL0     C91509   1.626   7.911   3.614  0.1834  0.3198  1.2370
  694MOL0     C91510   1.591   8.034   3.683  0.6958 -0.2694  0.0501
  694MOL0     O91511   1.464   8.066   3.736 -0.0216  0.4266  0.0541
  694MOL0     C91512   1.352   7.997   3.679  0.2462  0.3300 -0.7571
  694MOL0     C91513   1.248   7.980   3.793  0.9186 -0.0571 -0.2111
  694MOL0     C91514   1.122   7.894   3.763  0.3006 -0.2456 -0.0757
  694MOL0     C91515   1.145   7.745   3.773 -0.0030 -0.0706  0.0200
  694MOL0     C91516   1.009   7.653   3.771  0.0672  0.0020  0.0894
  694MOL0     C91517   0.901   7.709   3.672 -0.4855  1.0509 -0.2232
  694MOL0     C91518   0.785   7.606   3.647 -0.2825  0.1419 -0.3974
  694MOL0     C91519   0.687   7.657   3.543  0.5679 -0.5132  0.1475
  694MOL0    Cl91520   0.596   7.778   3.621  0.0219  0.0476 -0.1784
  694MOL0     C91521   1.694   8.126   3.697 -0.1235 -0.5119  1.6965
  694MOL0     C91522   1.823   8.106   3.650  1.0943 -0.4114 -0.1351
  694MOL0     O91523   1.883   8.075   3.342 -0.1128 -0.3948  0.0289
  694MOL0     C91524   2.121   8.110   3.196  1.4612  0.6348 -0.1843
  694MOL0     C91525   2.247   8.125   3.136  0.5010  0.3389  0.2550
  694MOL0     N91526   2.998   8.216   3.147 -0.3942 -0.1989  0.1274
  694MOL0     N91527   3.045   8.124   3.224 -0.0285  0.2673 -0.5938
  694MOL0     C91528   3.419   7.955   2.564 -0.0296 -0.8430  0.5342
  694MOL0     C91529   3.489   8.033   2.469 -0.3857  0.7311 -0.2424
  694MOL0     C91530   3.799   8.198   2.170 -0.0985  0.3349  1.5094
  694MOL0     C91531   3.878   8.107   2.103  0.6949 -0.1648 -0.1788
  694MOL0     C91532   3.993   8.143   2.022  1.3810  0.0701 -0.8463
  694MOL0     C91533   4.013   8.275   1.999 -0.0346  0.6392  0.2854
  694MOL0     O91534   4.103   8.324   1.916 -0.7323  0.4230 -0.3679
  694MOL0     C91535   4.207   8.231   1.872 -0.1143 -0.8608 -0.9609
  694MOL0     C91536   4.327   8.319   1.824  0.3668 -0.0632 -0.0934
  694MOL0     C91537   4.453   8.239   1.767 -0.2811  0.0905  0.1327
  694MOL0     C91538   4.577   8.313   1.780 -0.1859 -0.0418 -0.0457
  694MOL0     C91539   4.585   8.430   1.695 -1.0617 -0.3331 -0.1006
  694MOL0     C91540   4.584   8.537   1.637 -0.6546  0.9451 -0.9290
  694MOL0     C91541   3.934   8.367   2.054 -0.5086 -0.6877 -0.2506
  694MOL0     C91542   3.833   8.337   2.143 -0.5111 -0.3549 -1.4306
  694MOL0     H91543   3.667   7.785   2.316  0.8787  0.8572  1.0957
  694MOL0     H91544   3.526   7.647   2.455 -2.0284 -0.8162  2.3205
  694MOL0     H91545   3.169   7.821   2.634 -0.7169 -0.6780  0.6508
  694MOL0     H91546   3.284   7.845   2.768 -0.5244  0.4291  0.2857
  694MOL0     H91547   3.257   7.607   2.840  0.0598 -0.1887 -0.1406
  694MOL0     H91548   3.151   7.584   2.717  2.3613 -0.5277 -0.0370
  694MOL0     H91549   2.983   7.758   2.825 -0.8760 -0.8852 -0.5056
  694MOL0     H91550   3.113   7.797   2.941  1.0426 -0.8971  0.6094
  694MOL0     H91551   2.981   7.522   2.924  0.3928  0.3643  0.0475
  694MOL0     H91552   3.096   7.565   3.038  0.4568 -2.1295 -1.5688
  694MOL0     H91553   2.901   7.581   3.164 -2.8756  0.8625 -0.1619
  694MOL0     H91554   2.812   7.673   3.035  0.1191  2.1474 -0.8305
  694MOL0     H91555   2.945   7.868   3.075 -0.0013  1.2467  0.7531
  694MOL0     H91556   3.065   7.782   3.170 -0.3481 -2.0143 -0.2569
  694MOL0     H91557   2.783   7.821   3.272  0.8051  1.8154 -0.3710
  694MOL0     H91558   2.926   7.738   3.354 -1.9457  0.2818  1.9746
  694MOL0     H91559   3.051   7.909   3.397 -0.2735  0.0283 -0.6168
  694MOL0     H91560   2.881   7.928   3.455 -0.6785 -0.7854 -0.8085
  694MOL0     H91561   2.731   8.092   3.311  1.2040 -0.2424  2.5575
  694MOL0     H91562   2.860   8.372   3.033  0.3718  1.4882  2.4929
  694MOL0     H91563   2.704   8.333   3.109  2.1484 -1.9760  3.1491
  694MOL0     H91564   2.848   8.161   2.895 -0.1891 -0.0781  0.7260
  694MOL0     H91565   2.715   8.271   2.855  0.5003  2.6247  1.8810
  694MOL0     H91566   2.647   8.026   2.884 -1.6600 -4.0230  3.8433
  694MOL0     H91567   2.695   8.036   3.050  1.0126 -0.4991 -0.4238
  694MOL0     H91568   2.444   8.115   2.933 -3.1692  1.0015  1.9253
  694MOL0     H91569   2.498   8.260   3.006 -3.5603 -0.7053  0.5528
  694MOL0     H91570   2.437   7.986   3.380 -3.0304 -0.3877  3.7348
  694MOL0     H91571   2.230   7.975   3.496 -1.3541 -0.8574  0.1120
  694MOL0     H91572   1.786   7.805   3.501 -0.9551  0.8808 -1.9358
  694MOL0     H91573   1.563   7.828   3.585  1.0764  0.7502 -2.3103
  694MOL0     H91574   1.381   7.894   3.654  1.6391  1.0193 -2.1418
  694MOL0     H91575   1.304   8.038   3.590  2.2360 -0.7975 -2.4135
  694MOL0     H91576   1.222   8.082   3.823 -0.9563 -0.8259  0.8911
  694MOL0     H91577   1.295   7.931   3.878 -0.4800 -2.6572 -0.8407
  694MOL0     H91578   1.067   7.908   3.670 -1.8305 -3.2360  0.5997
  694MOL0     H91579   1.046   7.934   3.830 -3.3342 -0.4672 -3.6787
  694MOL0     H91580   1.215   7.712   3.696 -1.0771 -1.4610 -0.4034
  694MOL0     H91581   1.189   7.732   3.873 -1.3562  0.4698  0.7126
  694MOL0     H91582   0.974   7.639   3.874 -0.5971 -3.9266 -0.5309
  694MOL0     H91583   1.023   7.549   3.743 -4.6211 -0.8689  0.1712
  694MOL0     H91584   0.952   7.734   3.578  1.7929 -0.7273  0.4555
  694MOL0     H91585   0.852   7.794   3.721  0.2621  0.6217  1.3338
  694MOL0     H91586   0.833   7.511   3.625  4.0066  2.0908 -0.3939
  694MOL0     H91587   0.734   7.596   3.743 -0.0689  0.4201 -0.2526
  694MOL0     H91588   0.622   7.577   3.508 -2.6879  2.1418 -0.4222
  694MOL0     H91589   0.737   7.692   3.452  2.5678  1.6951  1.9531
  694MOL0     H91590   1.675   8.222   3.743 -1.1071 -0.3037  0.8946
  694MOL0     H91591   1.900   8.180   3.667  1.4964 -1.1158  1.2556
  694MOL0     H91592   2.032   8.149   3.148  1.9695  3.3552  0.9115
  694MOL0     H91593   2.250   8.167   3.036 -2.5602  0.4608  0.1121
  694MOL0     H91594   3.344   8.007   2.623  1.3765 -0.0342  1.6804
  694MOL0     H91595   3.465   8.139   2.467 -0.4679  0.7088 -1.7341
  694MOL0     H91596   3.877   8.002   2.131  1.9814 -0.5734 -1.5238
  694MOL0     H91597   4.059   8.068   1.979  2.7270  0.5097  0.4024
  694MOL0     H91598   4.170   8.169   1.790  0.0544  2.7796 -4.1277
  694MOL0     H91599   4.244   8.167   1.952  2.0091  1.6993  0.2791
  694MOL0     H91600   4.282   8.395   1.760 -1.3634  0.0821  1.2236
  694MOL0     H91601   4.356   8.368   1.918  0.7437 -0.0047 -0.2387
  694MOL0     H91602   4.435   8.206   1.665 -1.0857  1.5166 -0.2229
  694MOL0     H91603   4.471   8.151   1.829  0.5888  1.0144  1.2524
  694MOL0     H91604   4.584   8.344   1.885  2.7069  1.0252 -0.4470
  694MOL0     H91605   4.666   8.250   1.765  0.4410  1.1475 -1.5653
  694MOL0     H91606   4.574   8.627   1.580  0.0708 -0.3050 -3.1382
  694MOL0     H91607   3.962   8.468   2.026 -1.4958 -0.3405 -0.0206
  694MOL0     H91608   3.779   8.419   2.189  0.3654 -0.5703  0.0819
  695MOL0     O91609  10.928   2.819   9.894  0.1395  0.5471  0.2695
  695MOL0     C91610  10.964   2.909   9.972  0.0643  1.1315  0.3938
  695MOL0     O91611  10.892   3.018  10.006 -0.2779 -0.1203  1.0178
  695MOL0     C91612  10.761   3.036   9.954  0.2507  0.3898  0.1266
  695MOL0     C91613  10.649   2.937   9.931 -0.9255 -1.0943 -0.0770
  695MOL0     C91614  10.523   2.986   9.882 -0.6618  1.1839 -0.7112
  695MOL0     C91615  10.492   3.123   9.879 -0.2284  0.2973  0.7254
  695MOL0     O91616  10.360   3.143   9.839  0.4753 -1.0540 -0.3451
  695MOL0     C91617  10.310   3.271   9.850  0.1466 -0.0256  0.0678
  695MOL0     C91618  10.169   3.288   9.796  0.1167 -0.0485 -0.3310
  695MOL0     C91619  10.160   3.311   9.649  0.4151  0.6423  0.3880
  695MOL0     C91620  10.200   3.187   9.569  0.4941 -0.6089  0.3658
  695MOL0     C91621  10.123   3.052   9.599  0.1821 -0.1817  0.0658
  695MOL0     C91622  10.147   2.951   9.486 -0.2092  0.6218  0.1953
  695MOL0     C91623  10.126   2.807   9.521  0.0272 -0.1793  0.6702
  695MOL0     C91624   9.983   2.762   9.523  0.4598 -0.4981 -0.6918
  695MOL0     N91625   9.916   2.769   9.401  0.2202 -0.1407 -0.0514
  695MOL0     C91626   9.797   2.835   9.370  0.2983 -0.0685 -1.0196
  695MOL0     C91627   9.777   2.814   9.239 -0.2442 -0.7670 -0.5410
  695MOL0     C91628   9.678   2.877   9.148 -0.0168  0.7391  0.0698
  695MOL0     C91629   9.558   2.779   9.140 -0.6731  0.2750 -0.0699
  695MOL0     C91630   9.456   2.853   9.048  0.3975  1.0499  1.8610
  695MOL0     C91631   9.316   2.794   9.026 -0.7174 -1.2265  0.1989
  695MOL0     O91632   9.319   2.651   8.988 -0.9884  0.2070  0.0184
  695MOL0     C91633   9.200   2.583   8.989 -0.1893  0.2766  0.4871
  695MOL0     C91634   9.202   2.452   8.938 -0.8390 -0.1392 -0.0935
  695MOL0     C91635   9.086   2.378   8.925 -0.2978 -0.6734  0.2871
  695MOL0     C91636   8.965   2.435   8.952 -0.6959  0.2759 -0.4012
  695MOL0     C91637   8.839   2.358   8.925  0.1918  0.0542  0.4121
  695MOL0     O91638   8.727   2.390   9.003 -0.1362  0.4578 -0.1672
  695MOL0     C91639   8.613   2.326   8.964  0.3714  0.3233 -0.4829
  695MOL0     C91640   8.543   2.256   9.063  0.0395  0.6551 -0.2084
  695MOL0     C91641   8.412   2.194   9.035 -0.7410  0.9310  0.0909
  695MOL0     C91642   8.357   2.190   8.912  1.0644 -0.4885  0.7202
  695MOL0     O91643   8.250   2.114   8.888  0.0354  0.6801  0.7511
  695MOL0     C91644   8.173   2.122   8.767  0.2818 -0.3835 -0.5474
  695MOL0     C91645   8.038   2.047   8.803  0.5927 -0.7462 -0.2722
  695MOL0     C91646   8.044   1.897   8.787 -0.4224  0.4242  0.3780
  695MOL0     C91647   7.951   1.833   8.894 -0.0677 -0.8737 -1.0726
  695MOL0     C91648   7.904   1.692   8.874 -0.2164 -0.1790  0.1440
  695MOL0     C91649   7.829   1.642   9.000  0.3522  1.1920  0.3002
  695MOL0     C91650   7.796   1.489   9.007 -0.1473 -0.2236 -0.0473
  695MOL0     C91651   7.702   1.456   9.127  0.4955  0.1182 -0.1231
  695MOL0    Cl91652   7.649   1.281   9.127  0.0475 -0.1597 -0.9688
  695MOL0     C91653   8.414   2.273   8.815 -0.8632  0.1297 -0.0965
  695MOL0     C91654   8.544   2.333   8.840  0.3546  0.0346  0.1931
  695MOL0     O91655   8.841   2.285   8.825 -0.1484 -0.8361  0.2170
  695MOL0     C91656   8.958   2.556   9.013 -0.6090  0.2692  0.0498
  695MOL0     C91657   9.079   2.641   9.030  1.0007 -0.2011 -0.7925
  695MOL0     N91658   9.874   2.732   9.186 -0.0811  0.1228 -0.2358
  695MOL0     N91659   9.950   2.709   9.287 -0.3940 -0.2717  0.7274
  695MOL0     C91660  10.593   3.210   9.914 -0.1053  0.1400 -0.4844
  695MOL0     C91661  10.722   3.165   9.954 -0.4799 -1.5187  0.8795
  695MOL0     C91662  11.089   2.874  10.049  0.0014  0.5945 -1.4250
  695MOL0     C91663  11.143   2.980  10.140  0.2272 -0.8990 -0.0790
  695MOL0     C91664  11.252   2.962  10.219  0.4781 -0.2437 -0.1933
  695MOL0     C91665  11.316   2.836  10.223 -0.2135  0.3555  0.5241
  695MOL0     O91666  11.426   2.808  10.302 -0.2411  0.3177 -0.1472
  695MOL0     C91667  11.466   2.891  10.412 -0.7468 -0.2538 -0.3359
  695MOL0     C91668  11.563   2.821  10.518 -0.1920 -1.0027 -0.6405
  695MOL0     C91669  11.502   2.691  10.573  0.7071  0.3172  0.8267
  695MOL0     C91670  11.367   2.701  10.643 -0.7202  0.2047 -0.0440
  695MOL0     C91671  11.326   2.584  10.728 -0.0310  1.0335 -0.3052
  695MOL0     C91672  11.274   2.492  10.786  0.2757 -0.6807 -0.1780
  695MOL0     C91673  11.271   2.730  10.130 -0.2872 -0.8317 -0.4638
  695MOL0     C91674  11.162   2.753  10.043 -1.2249 -0.7131 -0.5210
  695MOL0     H91675  10.670   2.832   9.949  2.6634 -0.4541  0.2615
  695MOL0     H91676  10.449   2.911   9.855  0.0655  0.4242 -0.6296
  695MOL0     H91677  10.381   3.346   9.813  1.6544  0.0648  2.8692
  695MOL0     H91678  10.296   3.301   9.954 -0.7804 -2.4140  0.6866
  695MOL0     H91679  10.115   3.371   9.842  2.0739  0.7097  0.7097
  695MOL0     H91680  10.107   3.202   9.823 -2.0520  0.9518 -1.7983
  695MOL0     H91681  10.217   3.398   9.617 -1.3193  1.7002  0.0077
  695MOL0     H91682  10.053   3.336   9.641  0.3035  0.2114  0.5045
  695MOL0     H91683  10.172   3.227   9.471  0.6085 -0.0476  0.5593
  695MOL0     H91684  10.308   3.173   9.571  0.6846  0.6033 -0.3815
  695MOL0     H91685  10.016   3.074   9.603 -0.2232  0.1033 -5.0854
  695MOL0     H91686  10.162   3.013   9.693 -0.4166  0.2595  0.5010
  695MOL0     H91687  10.251   2.957   9.456 -1.4894  2.5513 -4.7609
  695MOL0     H91688  10.100   2.969   9.389  0.3194 -1.0924 -0.4120
  695MOL0     H91689  10.198   2.754   9.458  1.3265  0.8519  1.2240
  695MOL0     H91690  10.155   2.790   9.625  2.0092 -1.3702 -0.0313
  695MOL0     H91691   9.931   2.823   9.598  1.2263  1.0699 -1.3881
  695MOL0     H91692   9.988   2.660   9.562  4.6034 -0.9539 -1.9556
  695MOL0     H91693   9.736   2.899   9.433  1.0299 -1.1851  0.8874
  695MOL0     H91694   9.724   2.880   9.049  2.7345 -1.2360  1.1878
  695MOL0     H91695   9.648   2.978   9.178 -1.8673  0.8881 -1.9796
  695MOL0     H91696   9.515   2.761   9.239  0.5363  0.0070  0.4224
  695MOL0     H91697   9.592   2.678   9.117 -1.2935 -0.7864  3.1728
  695MOL0     H91698   9.432   2.954   9.084 -2.0513 -0.1419  3.8475
  695MOL0     H91699   9.500   2.845   8.948 -0.8293  2.1632  1.1943
  695MOL0     H91700   9.261   2.851   8.952  3.6491  2.2817 -0.7629
  695MOL0     H91701   9.270   2.799   9.125  0.5247 -0.5857  0.7647
  695MOL0     H91702   9.295   2.401   8.915 -1.6003 -1.2972 -0.7001
  695MOL0     H91703   9.086   2.273   8.895  0.8304 -1.0582  1.5227
  695MOL0     H91704   8.571   2.245   9.168  2.5238  1.5547 -0.7251
  695MOL0     H91705   8.378   2.131   9.116  1.3469  1.3331  1.3490
  695MOL0     H91706   8.215   2.079   8.675 -2.6986  1.7107 -3.1066
  695MOL0     H91707   8.147   2.226   8.745 -2.0584  0.2133  3.9026
  695MOL0     H91708   7.958   2.085   8.739 -0.1771 -1.0270  0.5011
  695MOL0     H91709   8.009   2.082   8.903  1.7312  1.2418 -0.5825
  695MOL0     H91710   8.142   1.849   8.798 -1.8660 -2.3791  2.1880
  695MOL0     H91711   7.992   1.868   8.695 -1.7350 -0.7230  1.4384
  695MOL0     H91712   8.015   1.832   8.982  0.2189  1.6495 -1.2001
  695MOL0     H91713   7.869   1.902   8.916  2.5432  1.5506  1.8877
  695MOL0     H91714   7.987   1.626   8.846 -0.4204  0.3321 -1.8025
  695MOL0     H91715   7.837   1.685   8.788 -2.1822 -1.0797  1.6705
  695MOL0     H91716   7.735   1.698   8.993 -2.9896 -4.0053 -1.8397
  695MOL0     H91717   7.895   1.663   9.085 -1.1205 -2.5593  2.5922
  695MOL0     H91718   7.747   1.457   8.914  3.1747 -0.0794 -2.0355
  695MOL0     H91719   7.893   1.440   9.017  0.2602  1.0617  4.1735
  695MOL0     H91720   7.610   1.515   9.129  0.2388 -0.2706  1.5040
  695MOL0     H91721   7.761   1.471   9.218  0.0244  2.3776 -0.1306
  695MOL0     H91722   8.376   2.271   8.713  0.8416 -1.1641 -0.7446
  695MOL0     H91723   8.576   2.395   8.756 -2.3471  0.3552 -0.7237
  695MOL0     H91724   8.866   2.601   9.048 -1.0670  1.0348 -1.9827
  695MOL0     H91725   9.080   2.743   9.068  2.4821  0.6233 -2.8834
  695MOL0     H91726  10.569   3.314   9.897  0.3884 -0.1373 -3.3696
  695MOL0     H91727  10.807   3.230   9.973 -0.2581 -1.6049  0.2179
  695MOL0     H91728  11.110   3.083  10.139  1.9113 -0.2924 -2.3389
  695MOL0     H91729  11.302   3.036  10.281  0.6300  2.1118 -2.9118
  695MOL0     H91730  11.378   2.918  10.471 -0.5949 -4.3210  2.1000
  695MOL0     H91731  11.511   2.985  10.379 -0.8057  0.3651  1.2575
  695MOL0     H91732  11.659   2.795  10.471 -0.1491  0.7128 -1.5981
  695MOL0     H91733  11.580   2.888  10.603  1.1534 -2.6191  0.4354
  695MOL0     H91734  11.571   2.644  10.645  1.3813 -1.2778 -0.7787
  695MOL0     H91735  11.496   2.624  10.487 -1.6219  1.8478 -0.3051
  695MOL0     H91736  11.376   2.780  10.718 -2.4468  3.2659 -2.7742
  695MOL0     H91737  11.288   2.731  10.573 -0.8839 -1.7322 -0.7711
  695MOL0     H91738  11.226   2.404  10.825  0.6157 -1.5611 -1.6682
  695MOL0     H91739  11.328   2.639  10.117  0.7145 -0.2212 -0.4486
  695MOL0     H91740  11.130   2.674   9.976  1.0191 -0.1038 -2.4593
  696MOL0     O91741   6.992  10.850   7.015  0.6713 -0.2701  0.3278
  696MOL0     C91742   7.076  10.778   7.055 -0.0326 -0.6599 -0.2835
  696MOL0     O91743   7.061  10.680   7.152 -0.1367 -0.4669 -0.0676
  696MOL0     C91744   6.935  10.651   7.204  0.6476  1.2095  0.2370
  696MOL0     C91745   6.832  10.749   7.231  0.2779 -0.0095  0.0673
  696MOL0     C91746   6.702  10.720   7.277 -0.1255  0.1805 -0.0100
  696MOL0     C91747   6.670  10.580   7.291 -0.2986 -0.4137  0.7891
  696MOL0     O91748   6.560  10.523   7.327  1.0808 -0.2493 -0.3938
  696MOL0     C91749   6.457  10.615   7.359  0.3046  0.1549 -0.3828
  696MOL0     C91750   6.353  10.549   7.442  0.2489 -1.1343 -0.9337
  696MOL0     C91751   6.280  10.442   7.380  0.0397  0.5277 -0.3825
  696MOL0     C91752   6.222  10.330   7.466  0.2720  1.4616 -0.3182
  696MOL0     C91753   6.138  10.369   7.587  0.2500  0.4461 -0.1462
  696MOL0     C91754   6.030  10.463   7.548 -0.5508  0.1002 -0.3308
  696MOL0     C91755   5.946  10.479   7.677  0.5402  0.4134 -0.0346
  696MOL0     C91756   5.811  10.527   7.633  0.7521 -0.6015  0.3475
  696MOL0     N91757   5.737  10.573   7.743  0.9659  0.0873  0.4984
  696MOL0     C91758   5.610  10.536   7.776 -0.2677 -0.9256  0.0021
  696MOL0     C91759   5.574  10.613   7.881 -0.1583 -0.0453 -1.2959
  696MOL0     C91760   5.452  10.609   7.965  0.1850 -0.0160  0.0898
  696MOL0     C91761   5.418  10.744   8.035 -0.3312  0.3942 -0.9643
  696MOL0     C91762   5.286  10.747   8.116 -0.1977 -0.3999 -0.4388
  696MOL0     C91763   5.156  10.721   8.035 -0.0443  0.8176 -0.1702
  696MOL0     O91764   5.060  10.729   8.137  0.0960 -0.2730 -0.4716
  696MOL0     C91765   4.939  10.693   8.100  0.6611 -0.0595  0.8197
  696MOL0     C91766   4.854  10.794   8.070  0.1092 -0.0227 -0.2129
  696MOL0     C91767   4.726  10.754   8.032 -0.7977 -0.0425 -0.1618
  696MOL0     C91768   4.678  10.622   8.042 -0.9095  0.0560  0.7575
  696MOL0     C91769   4.545  10.588   8.016 -0.0376  0.2091 -0.2253
  696MOL0     O91770   4.501  10.456   8.037 -0.6220 -0.3888  0.7528
  696MOL0     C91771   4.364  10.431   8.045 -0.4230 -0.1343 -0.3764
  696MOL0     C91772   4.294  10.458   8.164 -0.5992  0.5005  0.4169
  696MOL0     C91773   4.156  10.441   8.167  0.0577 -0.5659  0.0619
  696MOL0     C91774   4.080  10.394   8.058 -0.6227  0.5011 -0.1440
  696MOL0     O91775   3.945  10.368   8.060  0.2630 -0.7628 -0.1039
  696MOL0     C91776   3.874  10.348   8.182 -0.4026 -0.7530 -0.3678
  696MOL0     C91777   3.775  10.240   8.159  0.5561 -0.0687  0.2420
  696MOL0     C91778   3.666  10.227   8.256  1.4020 -0.3501 -0.7859
  696MOL0     C91779   3.567  10.121   8.220  0.1500 -0.4979  0.3854
  696MOL0     C91780   3.477  10.099   8.339 -0.2917  0.2597 -0.0972
  696MOL0     C91781   3.378   9.997   8.292  0.2015 -0.6684 -0.0264
  696MOL0     C91782   3.247  10.002   8.375  0.1644 -1.0095  0.3454
  696MOL0     C91783   3.128   9.936   8.321 -0.8369 -0.3364  0.0943
  696MOL0    Cl91784   2.984   9.960   8.427 -0.3484 -0.2236 -0.3275
  696MOL0     C91785   4.156  10.358   7.940 -0.2196  0.3278 -0.7859
  696MOL0     C91786   4.294  10.373   7.936 -0.2920  0.0214 -0.2813
  696MOL0     O91787   4.468  10.677   7.978 -0.0266  1.1525 -0.5676
  696MOL0     C91788   4.767  10.519   8.076 -0.7267  0.4099 -0.8936
  696MOL0     C91789   4.906  10.559   8.098  0.3442  0.5040 -0.5667
  696MOL0     N91790   5.674  10.697   7.907 -0.4948 -0.2360 -0.0340
  696MOL0     N91791   5.776  10.670   7.834 -0.6610  0.6606  0.0124
  696MOL0     C91792   6.774  10.483   7.263 -0.1428  0.1994 -1.0651
  696MOL0     C91793   6.907  10.520   7.233  0.4841  0.0964 -0.1713
  696MOL0     C91794   7.212  10.797   6.993  0.1181  0.0749  0.3716
  696MOL0     C91795   7.243  10.906   6.917  0.1352 -0.1128  0.4993
  696MOL0     C91796   7.381  10.927   6.874  0.7034 -0.3736 -0.2161
  696MOL0     C91797   7.481  10.837   6.909 -0.5525  0.1727  0.1343
  696MOL0     O91798   7.610  10.865   6.875 -0.2464 -0.0242  0.1303
  696MOL0     C91799   7.634  10.831   6.741 -0.3830 -0.5965  0.5326
  696MOL0     C91800   7.778  10.787   6.712  0.3503 -0.3079  0.8282
  696MOL0     C91801   7.803  10.645   6.772 -0.1977 -0.7353 -0.1559
  696MOL0     C91802   7.931  10.602   6.722 -0.3177 -0.6720 -0.1950
  696MOL0     C91803   8.046  10.646   6.816 -0.7553  0.9193  0.3701
  696MOL0     C91804   8.114  10.693   6.912  0.1205  0.3144  0.1663
  696MOL0     C91805   7.438  10.721   6.978 -0.6426 -0.4389  0.2192
  696MOL0     C91806   7.310  10.707   7.016 -1.2021 -0.6174  0.4712
  696MOL0     H91807   6.853  10.855   7.219  0.6021  0.1452  1.7474
  696MOL0     H91808   6.627  10.798   7.283 -3.0905 -2.5911  3.0676
  696MOL0     H91809   6.410  10.677   7.282 -1.3596  1.0993  1.3239
  696MOL0     H91810   6.489  10.691   7.432 -1.4347  0.3205  0.2420
  696MOL0     H91811   6.284  10.628   7.471  0.5515 -0.8882 -0.8796
  696MOL0     H91812   6.396  10.514   7.536  0.2210 -2.0319 -1.2352
  696MOL0     H91813   6.334  10.389   7.301 -1.2166  0.8514 -1.4943
  696MOL0     H91814   6.196  10.494   7.334  0.1298  0.5518 -0.5214
  696MOL0     H91815   6.176  10.258   7.397  1.0310  1.6585 -1.0490
  696MOL0     H91816   6.305  10.274   7.509 -0.4009  0.8137  0.1704
  696MOL0     H91817   6.205  10.417   7.660 -1.2385  1.8532  0.3649
  696MOL0     H91818   6.088  10.288   7.639  3.9501 -1.4030  0.8965
  696MOL0     H91819   5.965  10.406   7.482  1.1419 -2.0175 -0.2888
  696MOL0     H91820   6.057  10.566   7.521  1.4007 -0.2431  0.1450
  696MOL0     H91821   5.920  10.391   7.736 -0.2454  0.6699  0.0157
  696MOL0     H91822   5.996  10.560   7.732  1.9743  0.1186 -0.8635
  696MOL0     H91823   5.756  10.455   7.572 -0.4763  1.0953 -0.6437
  696MOL0     H91824   5.814  10.615   7.568 -4.1128  1.8007  2.8527
  696MOL0     H91825   5.547  10.466   7.720 -0.3547 -1.5135  0.8228
  696MOL0     H91826   5.467  10.526   8.035  1.1915 -0.3658 -0.5142
  696MOL0     H91827   5.370  10.575   7.900 -3.0646  0.0592  3.7557
  696MOL0     H91828   5.429  10.826   7.963  0.1023 -1.3214 -2.9711
  696MOL0     H91829   5.494  10.765   8.111 -2.2447  0.8326  0.9091
  696MOL0     H91830   5.293  10.668   8.191 -2.8268 -0.0671  0.2891
  696MOL0     H91831   5.275  10.836   8.178 -2.5985 -2.3559  2.2381
  696MOL0     H91832   5.150  10.621   7.992  1.1155  0.5729  0.2071
  696MOL0     H91833   5.147  10.787   7.948  2.2484 -0.4645 -1.4714
  696MOL0     H91834   4.885  10.898   8.076  3.6614 -0.9288 -0.3754
  696MOL0     H91835   4.668  10.840   8.001 -1.3708 -0.7880 -1.2437
  696MOL0     H91836   4.355  10.492   8.247  2.1564 -0.9787 -0.8849
  696MOL0     H91837   4.112  10.466   8.263  0.8834  1.1395  0.0305
  696MOL0     H91838   3.834  10.438   8.228  0.3232 -2.0951  3.2846
  696MOL0     H91839   3.948  10.310   8.253  3.2714  0.2725 -3.3140
  696MOL0     H91840   3.825  10.143   8.147  0.4476 -0.3849  2.1197
  696MOL0     H91841   3.729  10.249   8.060  3.9434 -2.6833 -1.7841
  696MOL0     H91842   3.616  10.323   8.273 -0.5052 -1.5416  0.9064
  696MOL0     H91843   3.710  10.190   8.349  3.4345 -1.3426 -2.0901
  696MOL0     H91844   3.519  10.158   8.128  0.1492  1.2350  1.0386
  696MOL0     H91845   3.628  10.036   8.189  2.3741  1.7620 -1.9278
  696MOL0     H91846   3.432  10.192   8.374  0.0029 -0.4080  2.1962
  696MOL0     H91847   3.533  10.054   8.421 -1.2591 -1.6537 -0.4279
  696MOL0     H91848   3.423   9.898   8.308 -3.7667 -3.2011 -2.6281
  696MOL0     H91849   3.351  10.011   8.187 -0.8223 -0.7576  0.2145
  696MOL0     H91850   3.278   9.954   8.468  2.2346  0.2932  0.4101
  696MOL0     H91851   3.224  10.107   8.395  2.8172  0.2187 -2.2090
  696MOL0     H91852   3.146   9.831   8.298 -0.7994 -0.7769  1.9573
  696MOL0     H91853   3.115   9.985   8.224  1.4473  0.5597  0.1791
  696MOL0     H91854   4.107  10.327   7.848 -1.3532  2.0282 -0.7987
  696MOL0     H91855   4.348  10.345   7.846  2.2107  0.1483  1.0930
  696MOL0     H91856   4.737  10.414   8.071 -0.1002 -0.1058  3.0754
  696MOL0     H91857   4.978  10.483   8.124 -0.8362 -0.8747 -1.1779
  696MOL0     H91858   6.737  10.381   7.262  0.3582 -0.0137 -3.3226
  696MOL0     H91859   6.985  10.444   7.234 -0.8977 -1.3941  1.8671
  696MOL0     H91860   7.175  10.980   6.875 -0.9489 -2.1607 -1.6334
  696MOL0     H91861   7.415  11.002   6.803 -0.4891 -2.8614 -3.6697
  696MOL0     H91862   7.615  10.916   6.675 -1.6370 -3.7592 -3.5765
  696MOL0     H91863   7.568  10.749   6.713 -2.1891  0.0872  2.4651
  696MOL0     H91864   7.785  10.769   6.604  0.5202 -0.1283  0.8095
  696MOL0     H91865   7.847  10.861   6.753 -1.3170  1.6158  0.3172
  696MOL0     H91866   7.727  10.574   6.738  0.1237 -0.4819 -1.4684
  696MOL0     H91867   7.805  10.640   6.881 -0.9514 -4.2811 -0.1824
  696MOL0     H91868   7.923  10.493   6.722 -1.5372 -0.6628 -2.7508
  696MOL0     H91869   7.952  10.629   6.618  2.4709  1.1846  0.7582
  696MOL0     H91870   8.169  10.752   6.982  0.3566 -0.1858  0.4065
  696MOL0     H91871   7.509  10.646   7.011  0.4478  0.9397  1.0963
  696MOL0     H91872   7.295  10.626   7.087 -0.2978  1.0842  2.7234
  697MOL0     O91873   9.998   4.785   0.588  0.0460 -0.0972  0.1507
  697MOL0     C91874   9.982   4.811   0.711 -0.3531  0.3921 -0.0963
  697MOL0     O91875   9.856   4.826   0.775  0.4328 -0.2537  0.2150
  697MOL0     C91876   9.743   4.803   0.708 -0.4340 -0.1212  0.1718
  697MOL0     C91877   9.697   4.900   0.624 -0.1184  0.1654  0.3712
  697MOL0     C91878   9.568   4.891   0.556  0.3192  0.7736 -0.8897
  697MOL0     C91879   9.493   4.773   0.583 -0.3310  0.0759 -0.1816
  697MOL0     O91880   9.372   4.750   0.511  0.3338  0.9631 -0.3834
  697MOL0     C91881   9.255   4.729   0.598 -0.8704  0.4916 -0.1653
  697MOL0     C91882   9.202   4.863   0.650  0.7075 -0.0815 -0.5095
  697MOL0     C91883   9.095   4.826   0.766  0.5442 -0.4084 -0.4763
  697MOL0     C91884   9.000   4.931   0.813 -1.2109  1.0417 -0.2172
  697MOL0     C91885   8.912   4.895   0.925  0.1995 -0.8662  0.1273
  697MOL0     C91886   8.829   4.764   0.913  0.2422 -0.3450  0.2586
  697MOL0     C91887   8.708   4.756   0.826  0.1224  0.4894  1.0173
  697MOL0     C91888   8.636   4.622   0.864  0.3252 -0.1124  0.6644
  697MOL0     N91889   8.520   4.607   0.790  0.3962  0.1998  0.0991
  697MOL0     C91890   8.514   4.601   0.654  0.2495  0.1220  0.2583
  697MOL0     C91891   8.380   4.570   0.640 -0.2783 -0.5108  0.2424
  697MOL0     C91892   8.315   4.538   0.503 -0.6095  0.0935 -0.3108
  697MOL0     C91893   8.219   4.642   0.469 -0.5645 -0.2018  1.8117
  697MOL0     C91894   8.295   4.757   0.401 -0.0786  0.1499 -0.3584
  697MOL0     C91895   8.188   4.851   0.353 -0.0310 -0.8268 -0.9652
  697MOL0     O91896   8.174   4.866   0.216 -0.3658  0.3498  0.5507
  697MOL0     C91897   8.063   4.938   0.163 -0.0256 -0.1438  1.8315
  697MOL0     C91898   7.976   5.012   0.240  0.3302 -0.2780 -0.5686
  697MOL0     C91899   7.877   5.091   0.182 -0.1863 -0.2762  1.1629
  697MOL0     C91900   7.852   5.087   0.041  0.5868  0.6633 -0.3561
  697MOL0     C91901   7.744   5.172  -0.012 -0.8045 -0.3463  0.2470
  697MOL0     O91902   7.735   5.174  -0.148  0.0683  0.8420  0.4705
  697MOL0     C91903   7.615   5.206  -0.209  0.2174 -0.5491 -0.7136
  697MOL0     C91904   7.597   5.319  -0.286 -0.1107 -0.5524 -0.2925
  697MOL0     C91905   7.482   5.347  -0.357  0.1309 -0.4616 -0.3717
  697MOL0     C91906   7.381   5.251  -0.369  0.1246  0.0519 -0.5029
  697MOL0     O91907   7.266   5.274  -0.443 -0.3556 -0.4314 -0.3990
  697MOL0     C91908   7.293   5.262  -0.581  0.5717  1.0012  1.3158
  697MOL0     C91909   7.165   5.285  -0.664 -0.2601  0.3478 -0.4013
  697MOL0     C91910   7.084   5.166  -0.676  0.1482 -0.0405 -0.3105
  697MOL0     C91911   7.030   5.117  -0.537 -0.7086  0.0835  0.3756
  697MOL0     C91912   6.892   5.046  -0.558 -0.2082  0.5173 -0.1519
  697MOL0     C91913   6.829   4.989  -0.421  0.3543 -0.2549  1.4016
  697MOL0     C91914   6.675   4.979  -0.438  0.1972  0.4554 -0.6441
  697MOL0     C91915   6.618   4.926  -0.301  0.6220  0.5330  0.0501
  697MOL0    Cl91916   6.725   4.811  -0.219  0.4007  0.0231 -0.3415
  697MOL0     C91917   7.389   5.141  -0.286  0.6785  0.5447  0.0480
  697MOL0     C91918   7.514   5.113  -0.216  0.9779 -0.0763 -0.5505
  697MOL0     O91919   7.668   5.224   0.070  0.5238 -0.5241  0.4227
  697MOL0     C91920   7.935   4.995  -0.028  0.7445 -0.6347 -0.1166
  697MOL0     C91921   8.037   4.923   0.029 -0.3109 -0.9551 -0.5233
  697MOL0     N91922   8.324   4.555   0.760  0.3315 -0.5625  1.0277
  697MOL0     N91923   8.405   4.576   0.849  0.2227 -0.8538  0.4329
  697MOL0     C91924   9.540   4.668   0.661  0.8740  0.1728  1.4797
  697MOL0     C91925   9.662   4.687   0.715 -0.8461 -0.5141 -0.8636
  697MOL0     C91926  10.099   4.813   0.799  0.2077  0.0485  0.0150
  697MOL0     C91927  10.098   4.814   0.948 -0.8203  0.7632  0.9488
  697MOL0     C91928  10.224   4.841   1.015  0.0029 -0.0953 -0.5765
  697MOL0     C91929  10.349   4.844   0.948  0.0247  0.1756 -0.4026
  697MOL0     O91930  10.461   4.873   1.020  0.6359 -0.0821 -0.7841
  697MOL0     C91931  10.459   4.840   1.163  0.2412  0.0191 -0.1472
  697MOL0     C91932  10.588   4.858   1.247  0.1326  0.3332 -0.2102
  697MOL0     C91933  10.695   4.757   1.226 -0.7863  0.2904  0.1379
  697MOL0     C91934  10.818   4.774   1.314 -0.0648  0.3530 -0.1217
  697MOL0     C91935  10.916   4.860   1.254  0.6268  0.7476 -1.2366
  697MOL0     C91936  10.995   4.942   1.212  1.2182 -1.0133  0.5266
  697MOL0     C91937  10.354   4.829   0.812 -0.3421  0.7581  0.0858
  697MOL0     C91938  10.237   4.799   0.744 -0.0011  0.1296 -0.0535
  697MOL0     H91939   9.747   4.996   0.612 -1.5701  1.0647  1.1179
  697MOL0     H91940   9.532   4.968   0.488 -1.5409  1.8947  1.2299
  697MOL0     H91941   9.281   4.661   0.680  5.9177 -1.5216 -3.2403
  697MOL0     H91942   9.187   4.676   0.532 -1.8076  0.1925  1.0013
  697MOL0     H91943   9.147   4.906   0.566 -1.3009 -2.0028 -0.2720
  697MOL0     H91944   9.277   4.932   0.690 -0.6597  1.3793 -0.3875
  697MOL0     H91945   9.151   4.793   0.854  0.3436  1.6974  0.4984
  697MOL0     H91946   9.034   4.740   0.736  1.2010 -0.6469 -1.1884
  697MOL0     H91947   9.070   5.011   0.839  0.9024 -1.0430  0.9137
  697MOL0     H91948   8.938   4.955   0.727  2.2787 -0.0970 -3.2886
  697MOL0     H91949   8.853   4.987   0.937  1.5625  0.1342 -0.5719
  697MOL0     H91950   8.984   4.875   1.005 -0.6368  0.2880  1.2263
  697MOL0     H91951   8.790   4.729   1.008 -2.4164 -1.9983 -1.3189
  697MOL0     H91952   8.902   4.684   0.894  0.9984  0.2706  0.5362
  697MOL0     H91953   8.643   4.844   0.835  1.2085  1.3767  0.3707
  697MOL0     H91954   8.742   4.744   0.723 -0.8884 -1.9819  0.9058
  697MOL0     H91955   8.616   4.619   0.971 -1.2960 -2.4382  0.3716
  697MOL0     H91956   8.699   4.533   0.850  1.1838  0.3889  1.2364
  697MOL0     H91957   8.587   4.619   0.576  0.1613  1.9676  0.5712
  697MOL0     H91958   8.279   4.435   0.512  3.4046 -1.4704  0.1114
  697MOL0     H91959   8.395   4.540   0.428  0.8051 -1.7011  1.0280
  697MOL0     H91960   8.174   4.682   0.560 -4.0968 -1.4322  0.7637
  697MOL0     H91961   8.145   4.608   0.397 -0.9736  0.6243  1.8410
  697MOL0     H91962   8.362   4.798   0.476 -4.0110  0.9900  3.1216
  697MOL0     H91963   8.348   4.718   0.313 -1.3359  0.8028 -1.4503
  697MOL0     H91964   8.215   4.948   0.396 -0.3275 -0.2635 -1.9867
  697MOL0     H91965   8.090   4.828   0.396  0.3937  0.1251  0.5965
  697MOL0     H91966   7.987   5.027   0.347  3.2117 -2.1512 -0.4654
  697MOL0     H91967   7.823   5.162   0.245 -0.4061 -0.5751  1.3154
  697MOL0     H91968   7.680   5.389  -0.284 -0.3690 -0.2294  2.8271
  697MOL0     H91969   7.468   5.438  -0.415  2.7419  1.5182  1.8349
  697MOL0     H91970   7.328   5.162  -0.608  0.3272  1.6193 -1.7144
  697MOL0     H91971   7.371   5.329  -0.618  0.3703  0.4561 -0.1860
  697MOL0     H91972   7.192   5.309  -0.767  0.6440 -2.1494 -0.8265
  697MOL0     H91973   7.106   5.368  -0.627 -0.8057  0.0841 -0.6754
  697MOL0     H91974   7.142   5.090  -0.730  4.3023  1.9529  0.9542
  697MOL0     H91975   6.995   5.183  -0.738 -0.8489 -3.6078 -0.0993
  697MOL0     H91976   7.110   5.056  -0.497 -1.4900 -2.4615 -1.6807
  697MOL0     H91977   7.012   5.203  -0.472  0.6187  1.3977 -0.8993
  697MOL0     H91978   6.909   4.974  -0.638 -1.8333  0.3168 -0.3532
  697MOL0     H91979   6.815   5.109  -0.604 -0.4786  0.3185  0.0216
  697MOL0     H91980   6.858   5.043  -0.331  0.5042 -3.5326  3.5040
  697MOL0     H91981   6.881   4.897  -0.390  1.2187 -0.3535 -0.2053
  697MOL0     H91982   6.633   5.079  -0.452 -2.8031 -0.7947 -1.4920
  697MOL0     H91983   6.638   4.917  -0.521 -0.4737 -0.5384  0.3734
  697MOL0     H91984   6.519   4.881  -0.314  2.1975 -2.8346 -1.5878
  697MOL0     H91985   6.595   5.009  -0.234 -0.2141 -2.7232  4.2906
  697MOL0     H91986   7.312   5.066  -0.274 -1.0913  2.4198  1.0252
  697MOL0     H91987   7.527   5.023  -0.157  3.3983  0.6701  0.1957
  697MOL0     H91988   7.908   4.969  -0.130 -3.0615 -2.1766  1.0987
  697MOL0     H91989   8.101   4.859  -0.030  1.0174  1.2842 -1.6459
  697MOL0     H91990   9.499   4.568   0.665  0.9582 -0.3912 -3.9880
  697MOL0     H91991   9.715   4.615   0.777 -0.9305  0.0321 -0.1458
  697MOL0     H91992  10.003   4.828   0.998 -2.5240  0.2910 -1.9221
  697MOL0     H91993  10.202   4.868   1.118 -1.4138 -3.3042  0.0884
  697MOL0     H91994  10.426   4.737   1.179  0.6828 -0.1155 -0.1088
  697MOL0     H91995  10.387   4.906   1.214  0.1389  0.5162 -0.9218
  697MOL0     H91996  10.644   4.948   1.218  3.5493 -1.8888 -1.1299
  697MOL0     H91997  10.565   4.856   1.354 -1.5736 -1.5883 -0.5453
  697MOL0     H91998  10.709   4.752   1.118 -3.0807  0.3637 -0.2205
  697MOL0     H91999  10.666   4.659   1.267  3.1209 -1.2937 -0.4776
  697MOL0     H92000  10.790   4.812   1.413  0.8623 -2.7339  1.4616
  697MOL0     H92001  10.871   4.679   1.330 -2.6707 -2.1206 -4.2992
  697MOL0     H92002  11.069   5.013   1.182  0.3631 -0.9419 -1.5869
  697MOL0     H92003  10.454   4.826   0.770  0.7435  0.3916  2.5170
  697MOL0     H92004  10.248   4.788   0.636  0.1865  2.4178 -0.3183
  698MOL0     O92005  10.961   9.414   2.146  0.3794 -0.5140 -0.0202
  698MOL0     C92006  10.872   9.482   2.091 -0.4328  0.2194  0.1346
  698MOL0     O92007  10.884   9.536   1.966 -0.6510  0.2997  0.3006
  698MOL0     C92008  10.999   9.543   1.892  0.6585 -0.6481 -0.7952
  698MOL0     C92009  11.124   9.531   1.943 -0.7469 -0.1957  0.9359
  698MOL0     C92010  11.233   9.546   1.852 -0.5183  0.4372 -1.4434
  698MOL0     C92011  11.226   9.562   1.710  0.5320  1.1972 -0.0747
  698MOL0     O92012  11.334   9.581   1.621  0.9135  1.5574 -0.1804
  698MOL0     C92013  11.465   9.591   1.682 -0.0908  0.1613 -0.2481
  698MOL0     C92014  11.574   9.603   1.576  0.2062 -0.7689  0.4382
  698MOL0     C92015  11.712   9.576   1.635 -0.4901 -0.7876  0.7380
  698MOL0     C92016  11.821   9.588   1.525 -0.0413 -0.0728 -0.0430
  698MOL0     C92017  11.965   9.572   1.581  0.1341  0.2416  0.9432
  698MOL0     C92018  12.070   9.600   1.468  0.4373  0.5729 -0.2180
  698MOL0     C92019  12.207   9.556   1.518 -0.7358  0.0018  0.1406
  698MOL0     C92020  12.323   9.590   1.415  0.6013  0.1453 -0.6372
  698MOL0     N92021  12.451   9.576   1.486 -0.5101  0.3262  0.2482
  698MOL0     C92022  12.554   9.667   1.462 -0.4655  0.1007 -0.1242
  698MOL0     C92023  12.657   9.614   1.530 -0.2126 -0.1798  0.5137
  698MOL0     C92024  12.791   9.681   1.552  0.2981 -0.7351  0.7670
  698MOL0     C92025  12.795   9.806   1.643  0.1569 -0.1468 -0.0123
  698MOL0     C92026  12.800   9.774   1.793  0.2421  0.5385  0.3505
  698MOL0     C92027  12.668   9.712   1.847 -0.0563  0.2304 -0.5336
  698MOL0     O92028  12.601   9.843   1.876 -0.1729  0.2305  0.0705
  698MOL0     C92029  12.473   9.834   1.914 -0.6404  0.0438 -0.3327
  698MOL0     C92030  12.442   9.923   2.014  0.0011  0.4646  0.0325
  698MOL0     C92031  12.318   9.915   2.066  0.8172 -0.6997 -0.1664
  698MOL0     C92032  12.217   9.835   2.017  0.5126 -0.4685  0.1336
  698MOL0     C92033  12.085   9.818   2.083 -0.2939 -1.4731 -0.3619
  698MOL0     O92034  12.001   9.716   2.046  0.1144 -0.5055  0.1417
  698MOL0     C92035  11.867   9.740   2.043  0.0800 -0.0733  0.6933
  698MOL0     C92036  11.779   9.659   2.114  0.7305  0.1572  0.0961
  698MOL0     C92037  11.641   9.675   2.114 -0.1673 -0.0721 -0.0556
  698MOL0     C92038  11.587   9.779   2.041 -0.1767 -0.0717 -0.8964
  698MOL0     O92039  11.448   9.803   2.020  0.1205  0.3143 -0.0226
  698MOL0     C92040  11.346   9.767   2.116  0.2204 -0.7347  0.2729
  698MOL0     C92041  11.361   9.836   2.246 -0.7079 -0.2258  0.1191
  698MOL0     C92042  11.259   9.773   2.344 -0.5198 -0.0890  0.3717
  698MOL0     C92043  11.117   9.813   2.299  0.0732  0.1467  0.5257
  698MOL0     C92044  11.017   9.814   2.412 -0.5976  0.2505  0.0821
  698MOL0     C92045  10.869   9.838   2.368 -0.0703 -0.2586  0.4454
  698MOL0     C92046  10.765   9.841   2.488  0.1532 -0.4154  0.4376
  698MOL0     C92047  10.627   9.878   2.439 -0.1484  0.7312 -0.4268
  698MOL0    Cl92048  10.607  10.052   2.461 -0.3823 -0.3860 -0.0732
  698MOL0     C92049  11.672   9.855   1.952  0.0620 -0.5656 -0.0174
  698MOL0     C92050  11.813   9.842   1.955 -0.1623 -0.0517  0.2260
  698MOL0     O92051  12.057   9.912   2.162  0.9181 -0.4624 -0.2472
  698MOL0     C92052  12.246   9.746   1.915 -0.2964 -0.7718 -0.4476
  698MOL0     C92053  12.384   9.727   1.871  0.0485 -0.7011  0.3195
  698MOL0     N92054  12.622   9.501   1.601 -0.5176 -0.0429  0.4022
  698MOL0     N92055  12.500   9.472   1.562 -0.3591  0.8345  1.8669
  698MOL0     C92056  11.095   9.575   1.670 -0.2096 -0.1901  0.0025
  698MOL0     C92057  10.981   9.565   1.757  0.0533  0.0178 -0.0346
  698MOL0     C92058  10.739   9.493   2.148 -0.5806  0.6595 -0.3090
  698MOL0     C92059  10.627   9.543   2.081 -0.3829 -0.2494 -0.1356
  698MOL0     C92060  10.516   9.568   2.152 -0.1432 -0.6855 -0.7607
  698MOL0     C92061  10.500   9.529   2.286  0.5992 -0.1254 -0.8456
  698MOL0     O92062  10.384   9.568   2.348  0.1898 -0.2894  0.3705
  698MOL0     C92063  10.294   9.460   2.387  0.3330 -0.1249  0.0626
  698MOL0     C92064  10.189   9.513   2.487  0.7079  0.1794 -0.1875
  698MOL0     C92065  10.107   9.393   2.526 -1.1687  1.2172 -0.0739
  698MOL0     C92066   9.966   9.406   2.593 -0.1678  0.2999  0.0055
  698MOL0     C92067   9.954   9.514   2.695  0.4714  0.1765 -0.0503
  698MOL0     C92068   9.944   9.611   2.766  0.0190 -0.9567 -0.6115
  698MOL0     C92069  10.603   9.475   2.358 -0.4830 -0.0398  0.9382
  698MOL0     C92070  10.726   9.454   2.289 -0.0044 -0.9374  0.9501
  698MOL0     H92071  11.150   9.510   2.046 -0.9065  0.9018  1.2102
  698MOL0     H92072  11.333   9.555   1.894 -2.1284  3.1452  2.3606
  698MOL0     H92073  11.479   9.500   1.741 -1.0508 -0.2719 -0.6621
  698MOL0     H92074  11.469   9.678   1.748 -0.2876 -0.7842  1.0416
  698MOL0     H92075  11.552   9.706   1.544 -0.8853 -0.0238  3.2770
  698MOL0     H92076  11.563   9.523   1.502  1.0501 -0.4686 -0.0360
  698MOL0     H92077  11.718   9.478   1.682 -0.7205 -1.6748 -1.0037
  698MOL0     H92078  11.725   9.655   1.710 -1.4557 -0.0772  0.1899
  698MOL0     H92079  11.809   9.503   1.457  2.2012  0.6043 -1.3950
  698MOL0     H92080  11.802   9.685   1.476  0.7234 -0.7046 -1.6879
  698MOL0     H92081  11.973   9.466   1.605  0.6784  0.3196  1.1257
  698MOL0     H92082  11.988   9.611   1.681 -0.1201 -0.4649  1.2827
  698MOL0     H92083  12.070   9.709   1.458  0.3308  0.5483 -0.4797
  698MOL0     H92084  12.040   9.558   1.372  0.8743  1.6710 -0.8597
  698MOL0     H92085  12.238   9.612   1.606 -0.4187  0.4120 -0.2261
  698MOL0     H92086  12.208   9.449   1.539 -0.9251  0.1708  1.0222
  698MOL0     H92087  12.304   9.689   1.373 -1.3853 -0.6961 -1.8360
  698MOL0     H92088  12.326   9.525   1.327  1.6033 -0.0174 -0.4930
  698MOL0     H92089  12.560   9.760   1.407  3.0082  0.0276 -0.0828
  698MOL0     H92090  12.826   9.713   1.454 -0.0817 -2.6972 -0.0579
  698MOL0     H92091  12.866   9.607   1.580  2.4993  1.3929  0.8001
  698MOL0     H92092  12.713   9.872   1.615 -0.6539 -0.5793  1.2517
  698MOL0     H92093  12.890   9.852   1.619 -0.0375 -0.6750 -1.9616
  698MOL0     H92094  12.880   9.700   1.804  0.7637  1.3099  2.0099
  698MOL0     H92095  12.830   9.870   1.835 -2.4161  2.8015 -2.4624
  698MOL0     H92096  12.682   9.651   1.936  0.7836  0.0216 -0.8070
  698MOL0     H92097  12.609   9.665   1.767 -3.3698  0.1049  1.7658
  698MOL0     H92098  12.521   9.990   2.046  3.7069 -3.2488 -0.6554
  698MOL0     H92099  12.291   9.985   2.144  0.1937  1.1476 -1.9536
  698MOL0     H92100  11.819   9.581   2.177  0.2739 -0.6966 -0.6496
  698MOL0     H92101  11.574   9.620   2.179 -0.4484  1.0450  0.6327
  698MOL0     H92102  11.346   9.660   2.135 -1.4822 -0.9041 -0.4872
  698MOL0     H92103  11.244   9.784   2.080  0.1324 -1.9691 -0.0861
  698MOL0     H92104  11.351   9.945   2.234  0.0713  0.0725  1.8066
  698MOL0     H92105  11.461   9.822   2.288 -0.4941 -0.4703 -0.4764
  698MOL0     H92106  11.278   9.801   2.448  0.8297  0.3721  0.0272
  698MOL0     H92107  11.273   9.665   2.332  0.4795 -0.4060  3.4504
  698MOL0     H92108  11.117   9.912   2.254 -1.3621  1.0170  2.3460
  698MOL0     H92109  11.082   9.743   2.222 -1.8047  1.7142 -0.1067
  698MOL0     H92110  11.047   9.892   2.483 -2.5438  1.5087 -0.4067
  698MOL0     H92111  11.017   9.715   2.460  3.0479 -0.4659 -1.0630
  698MOL0     H92112  10.853   9.754   2.299  1.7477  0.4991 -0.9872
  698MOL0     H92113  10.860   9.932   2.313 -1.2963 -0.1199  0.8625
  698MOL0     H92114  10.762   9.739   2.529 -1.1930 -0.4086  0.3831
  698MOL0     H92115  10.796   9.903   2.573  0.4218  0.1627 -0.0817
  698MOL0     H92116  10.553   9.830   2.503 -1.6292  1.4376 -1.5568
  698MOL0     H92117  10.607   9.855   2.334 -2.1308  0.0176  0.0721
  698MOL0     H92118  11.623   9.937   1.900 -1.8763 -2.3901 -1.2092
  698MOL0     H92119  11.890   9.901   1.906 -1.5523  1.6488 -0.0317
  698MOL0     H92120  12.180   9.668   1.878 -1.5903 -0.5422  1.2635
  698MOL0     H92121  12.417   9.656   1.796 -0.1529  2.5660 -3.1675
  698MOL0     H92122  11.075   9.595   1.566  2.1993  3.4431  0.0332
  698MOL0     H92123  10.878   9.567   1.723  0.1209 -1.7079 -0.4146
  698MOL0     H92124  10.625   9.580   1.979 -2.9097  2.5155  0.8018
  698MOL0     H92125  10.423   9.610   2.117 -0.6984 -0.9915  0.2858
  698MOL0     H92126  10.355   9.384   2.438  0.3532  0.0878  0.3514
  698MOL0     H92127  10.245   9.409   2.303  1.3893  1.2605 -1.4631
  698MOL0     H92128  10.242   9.559   2.571  1.3170  2.5176 -1.7484
  698MOL0     H92129  10.113   9.581   2.446  0.4179  0.0204  0.0881
  698MOL0     H92130  10.175   9.344   2.597 -0.7135  0.7524 -0.8103
  698MOL0     H92131  10.103   9.328   2.438  0.5225 -0.3392  0.9155
  698MOL0     H92132   9.889   9.412   2.516  1.8756 -0.9251 -2.2934
  698MOL0     H92133   9.954   9.308   2.640 -1.2320  1.0159  1.2592
  698MOL0     H92134   9.938   9.690   2.839 -2.1102 -0.1286 -1.6136
  698MOL0     H92135  10.587   9.431   2.457  3.0883  2.3543  2.8017
  698MOL0     H92136  10.810   9.412   2.344 -0.6192 -0.7093  2.1027
  699MOL0     O92137   6.609   9.152  10.737  0.3293  0.1353 -0.0320
  699MOL0     C92138   6.664   9.250  10.682 -0.3511 -0.0806 -0.3528
  699MOL0     O92139   6.601   9.342  10.593  0.1484  0.2385  0.0877
  699MOL0     C92140   6.474   9.311  10.574 -0.2564  0.2887  0.0625
  699MOL0     C92141   6.379   9.403  10.614 -0.0355 -0.4981 -0.8873
  699MOL0     C92142   6.248   9.373  10.587  0.1904 -0.4347  1.1371
  699MOL0     C92143   6.210   9.256  10.517  0.5363 -0.2765 -0.6060
  699MOL0     O92144   6.076   9.233  10.477 -0.6126  0.0266 -0.2658
  699MOL0     C92145   5.975   9.277  10.566 -0.5371 -0.6228 -0.4966
  699MOL0     C92146   5.836   9.242  10.498 -0.7000  0.5262  0.7312
  699MOL0     C92147   5.719   9.304  10.576 -0.2216  0.0049  0.8646
  699MOL0     C92148   5.698   9.450  10.559 -0.4847  1.0619 -0.1527
  699MOL0     C92149   5.649   9.494  10.423  1.4316 -0.0710 -0.2499
  699MOL0     C92150   5.524   9.419  10.375  0.1289 -0.5120 -0.1508
  699MOL0     C92151   5.458   9.488  10.248  0.0353  1.1796 -1.1524
  699MOL0     C92152   5.350   9.588  10.284 -0.6892  0.2057 -0.0248
  699MOL0     N92153   5.271   9.621  10.168 -0.4888 -0.5428  0.4718
  699MOL0     C92154   5.309   9.723  10.083 -0.0634  0.0454  1.1665
  699MOL0     C92155   5.229   9.711   9.973 -0.3203 -0.2952 -0.1570
  699MOL0     C92156   5.244   9.780   9.840  0.4817  0.2881  0.0821
  699MOL0     C92157   5.373   9.738   9.773 -0.5395  0.4497 -0.6647
  699MOL0     C92158   5.492   9.819   9.810  0.6178 -0.3687  1.0073
  699MOL0     C92159   5.490   9.968   9.776  0.5483 -0.3740 -0.7912
  699MOL0     O92160   5.444   9.988   9.648  0.1655  0.5108  0.8449
  699MOL0     C92161   5.374  10.110   9.630 -0.7819 -0.8408  0.3545
  699MOL0     C92162   5.352  10.210   9.731 -0.1630  1.3684 -0.0249
  699MOL0     C92163   5.280  10.321   9.704  0.4166  0.0928 -0.0016
  699MOL0     C92164   5.223  10.339   9.580  0.3336  0.4888  0.2156
  699MOL0     C92165   5.138  10.450   9.535  0.6828 -0.0069 -0.6652
  699MOL0     O92166   5.087  10.451   9.410 -1.4604 -0.0710  0.1973
  699MOL0     C92167   4.997  10.546   9.365  1.1394  0.0092  0.1513
  699MOL0     C92168   5.004  10.577   9.231 -0.1968  0.4052  0.4420
  699MOL0     C92169   4.926  10.673   9.169 -0.1046 -0.3347 -0.0834
  699MOL0     C92170   4.827  10.745   9.246 -0.5296  0.3866 -0.8493
  699MOL0     O92171   4.737  10.831   9.187 -0.0448 -0.1385  0.1468
  699MOL0     C92172   4.620  10.771   9.127 -0.1202 -0.0174 -0.1688
  699MOL0     C92173   4.637  10.780   8.974  0.3213  0.5274  0.1939
  699MOL0     C92174   4.503  10.788   8.904 -0.3284  0.0871  0.3544
  699MOL0     C92175   4.388  10.695   8.930 -0.3416 -0.0666 -0.2251
  699MOL0     C92176   4.275  10.702   8.831  1.0430 -0.5240  0.0499
  699MOL0     C92177   4.208  10.847   8.825 -0.4141  1.0528  0.7013
  699MOL0     C92178   4.080  10.862   8.750  0.0051  0.2086 -0.6790
  699MOL0     C92179   4.099  10.865   8.598  0.5233  0.6941 -0.5249
  699MOL0    Cl92180   4.145  10.706   8.528 -0.1578  0.1481 -0.1231
  699MOL0     C92181   4.820  10.707   9.381  0.1715 -0.2176  0.2151
  699MOL0     C92182   4.903  10.614   9.443 -0.6867 -0.2476 -0.4057
  699MOL0     O92183   5.111  10.532   9.625  0.0143 -0.0136  0.9894
  699MOL0     C92184   5.257  10.245   9.478  0.7684  0.0973 -0.6061
  699MOL0     C92185   5.323  10.126   9.505  1.1177  0.6624 -0.2043
  699MOL0     N92186   5.144   9.600   9.995  0.0405  0.2004  0.4244
  699MOL0     N92187   5.169   9.549  10.117  0.5942 -0.2469 -0.1637
  699MOL0     C92188   6.305   9.167  10.476  0.5370  0.0940  0.2646
  699MOL0     C92189   6.441   9.198  10.502  0.2001  0.7176 -0.5343
  699MOL0     C92190   6.811   9.251  10.699  0.1428 -0.6088 -0.3108
  699MOL0     C92191   6.881   9.372  10.701  0.1560  0.4762 -0.9825
  699MOL0     C92192   7.015   9.382  10.715 -0.2850  0.0590 -0.2598
  699MOL0     C92193   7.095   9.271  10.739  0.5019  0.3473 -0.1364
  699MOL0     O92194   7.230   9.285  10.748 -0.0392  0.5643 -0.1245
  699MOL0     C92195   7.296   9.232  10.633 -0.2648 -0.3565  0.0530
  699MOL0     C92196   7.389   9.111  10.664 -0.3382  0.3472  0.1557
  699MOL0     C92197   7.523   9.138  10.717  0.9364  0.0245 -0.2920
  699MOL0     C92198   7.614   9.021  10.699 -0.0509 -0.1061  0.0541
  699MOL0     C92199   7.747   9.063  10.748 -0.1273  0.1514 -0.1596
  699MOL0     C92200   7.859   9.116  10.778  0.5988 -0.5708 -0.3190
  699MOL0     C92201   7.026   9.142  10.743  0.5979  0.2108  0.5498
  699MOL0     C92202   6.886   9.136  10.717 -0.1143 -0.5477  0.2031
  699MOL0     H92203   6.400   9.486  10.680  0.3226 -1.5467  0.3449
  699MOL0     H92204   6.178   9.454  10.602 -1.5927 -2.3442  3.8320
  699MOL0     H92205   5.971   9.386  10.575 -2.3122 -0.8220  2.9546
  699MOL0     H92206   5.988   9.233  10.665  0.8986  1.0700  0.1214
  699MOL0     H92207   5.841   9.133  10.483 -1.3983  0.2962  2.0778
  699MOL0     H92208   5.837   9.277  10.395  3.4304  1.5816  0.9334
  699MOL0     H92209   5.727   9.281  10.683 -1.1658  0.6544  1.0891
  699MOL0     H92210   5.631   9.251  10.537  0.5521 -0.9476  0.3823
  699MOL0     H92211   5.622   9.486  10.629 -1.8526 -0.5179 -0.7735
  699MOL0     H92212   5.794   9.498  10.581 -1.0964  2.7654 -1.0355
  699MOL0     H92213   5.732   9.476  10.354  1.3206  0.1638 -0.4501
  699MOL0     H92214   5.636   9.603  10.426 -0.7227 -0.2741 -0.6358
  699MOL0     H92215   5.459   9.409  10.462  1.8645  0.6356  1.3436
  699MOL0     H92216   5.554   9.319  10.341 -0.9021 -0.7167 -0.4876
  699MOL0     H92217   5.542   9.537  10.197  2.5623 -0.9563  0.7218
  699MOL0     H92218   5.411   9.411  10.187  0.7821 -0.0236 -0.2425
  699MOL0     H92219   5.401   9.674  10.329  0.1682 -1.1925  1.8009
  699MOL0     H92220   5.274   9.547  10.351 -0.7196 -2.0704 -1.3572
  699MOL0     H92221   5.389   9.796  10.089  0.0214  0.5590 -3.2500
  699MOL0     H92222   5.252   9.889   9.851  1.4058  0.2753 -0.3676
  699MOL0     H92223   5.159   9.759   9.775  1.3164 -1.0348 -0.6312
  699MOL0     H92224   5.346   9.732   9.667 -1.6071 -2.8252 -0.3107
  699MOL0     H92225   5.386   9.631   9.792 -0.5353  0.8881  2.2640
  699MOL0     H92226   5.508   9.806   9.917  2.7390 -2.2926  0.5556
  699MOL0     H92227   5.577   9.768   9.763  0.8573 -2.0855  3.1187
  699MOL0     H92228   5.590  10.011   9.780 -1.0218  3.7677 -0.7333
  699MOL0     H92229   5.427  10.024   9.847 -0.1947 -1.2749 -0.7230
  699MOL0     H92230   5.395  10.212   9.830  2.1822 -0.7074 -0.8790
  699MOL0     H92231   5.280  10.406   9.771 -2.3347  0.3396 -0.1999
  699MOL0     H92232   5.082  10.512   9.191  0.9403  1.1554  1.3572
  699MOL0     H92233   4.942  10.695   9.064 -3.5340  1.0276 -0.4388
  699MOL0     H92234   4.541  10.842   9.154 -1.2928 -1.5723  0.6032
  699MOL0     H92235   4.592  10.676   9.173 -1.3121  0.7705  0.8001
  699MOL0     H92236   4.691  10.692   8.936 -1.4321 -0.0872 -0.9898
  699MOL0     H92237   4.690  10.873   8.951  1.4635  0.4061  2.1045
  699MOL0     H92238   4.527  10.776   8.798  1.8566 -0.1992  0.8350
  699MOL0     H92239   4.461  10.886   8.931  0.1199  0.0334  1.3254
  699MOL0     H92240   4.412  10.589   8.930 -2.5401 -0.6047  0.2111
  699MOL0     H92241   4.361  10.724   9.032  0.2257  1.3708 -0.4523
  699MOL0     H92242   4.201  10.636   8.876  0.8280  0.3330  0.9946
  699MOL0     H92243   4.304  10.673   8.729 -4.0970  0.9996 -2.1434
  699MOL0     H92244   4.281  10.906   8.769  0.7864 -0.1638  0.9240
  699MOL0     H92245   4.194  10.874   8.930 -1.6436 -4.1411  2.1990
  699MOL0     H92246   4.012  10.784   8.787 -0.1152  1.0835  1.0650
  699MOL0     H92247   4.042  10.959   8.782  0.4053  0.2243 -0.2397
  699MOL0     H92248   4.162  10.950   8.569  0.7958 -0.0057 -2.0625
  699MOL0     H92249   4.004  10.891   8.551 -2.0781 -1.6116  2.9781
  699MOL0     H92250   4.747  10.758   9.443  0.0593  3.6393 -2.6769
  699MOL0     H92251   4.887  10.593   9.548  0.5231  0.9164  0.0410
  699MOL0     H92252   5.206  10.245   9.383  2.1574  0.0360 -1.3822
  699MOL0     H92253   5.331  10.050   9.428 -2.1839  2.3737 -2.4889
  699MOL0     H92254   6.272   9.082  10.418  1.4956  0.4236 -0.7980
  699MOL0     H92255   6.510   9.118  10.478  0.8854  1.0839  0.1547
  699MOL0     H92256   6.821   9.462  10.695 -1.4944 -0.3501  1.2487
  699MOL0     H92257   7.062   9.480  10.713  1.7018 -0.8496 -0.1706
  699MOL0     H92258   7.356   9.310  10.585  0.5594 -1.4011 -0.6320
  699MOL0     H92259   7.227   9.210  10.551  0.2573 -1.7343 -0.0315
  699MOL0     H92260   7.339   9.044  10.734  1.2517 -1.4457 -0.3382
  699MOL0     H92261   7.410   9.055  10.572  0.3827 -0.0034  0.5224
  699MOL0     H92262   7.519   9.148  10.826 -0.8179 -4.0008  0.2086
  699MOL0     H92263   7.570   9.227  10.674  3.2066 -0.6756  0.5840
  699MOL0     H92264   7.590   8.929  10.754 -0.2991 -0.2911 -0.3577
  699MOL0     H92265   7.616   8.988  10.594 -1.7958 -0.7486  0.1824
  699MOL0     H92266   7.953   9.160  10.802  0.6437 -1.6060  1.6208
  699MOL0     H92267   7.087   9.052  10.751  2.0103  0.9645 -1.2658
  699MOL0     H92268   6.848   9.034  10.724  1.1976 -0.9622  2.1896
  700MOL0     O92269   9.361   2.738   3.258  0.5786 -0.0717  0.2583
  700MOL0     C92270   9.435   2.717   3.351  0.1033  0.3873 -0.1309
  700MOL0     O92271   9.446   2.596   3.418  0.2085 -0.1929  0.5426
  700MOL0     C92272   9.356   2.491   3.396  0.0473 -0.4486  0.1732
  700MOL0     C92273   9.376   2.385   3.307  0.2537  0.3386  0.4211
  700MOL0     C92274   9.279   2.291   3.287 -0.4207  0.1986  0.2717
  700MOL0     C92275   9.166   2.288   3.359 -0.7844  0.1175 -0.8450
  700MOL0     O92276   9.079   2.183   3.338 -0.0705 -0.4597 -0.0268
  700MOL0     C92277   8.958   2.226   3.277 -0.3543 -0.4451  0.0591
  700MOL0     C92278   8.928   2.139   3.160 -0.0594 -0.1107  0.4926
  700MOL0     C92279   8.789   2.157   3.106  0.7008 -0.2835 -0.9464
  700MOL0     C92280   8.762   2.036   3.015  0.7134 -0.3625 -0.3293
  700MOL0     C92281   8.614   2.025   2.966 -0.7035  0.2763 -1.2247
  700MOL0     C92282   8.599   1.940   2.833 -0.4004  0.1176 -0.3666
  700MOL0     C92283   8.470   1.988   2.769 -0.4799 -0.8724 -0.8556
  700MOL0     C92284   8.447   1.929   2.631 -0.3956 -0.3493 -0.4299
  700MOL0     N92285   8.335   1.986   2.559  0.5492 -0.0503 -0.5690
  700MOL0     C92286   8.299   1.950   2.431 -0.2650 -0.2159 -0.3727
  700MOL0     C92287   8.170   1.988   2.426  0.9956 -0.1509  0.3786
  700MOL0     C92288   8.083   1.989   2.308  0.3478 -0.8965 -0.0586
  700MOL0     C92289   8.079   2.123   2.227 -1.2934  0.1537 -0.4109
  700MOL0     C92290   8.029   2.091   2.079  1.3226 -0.3559  0.1439
  700MOL0     C92291   7.874   2.069   2.061 -0.4511 -0.5510 -0.0035
  700MOL0     O92292   7.857   2.062   1.919  0.7326 -0.5274  0.9157
  700MOL0     C92293   7.735   2.025   1.875 -0.0542 -0.4830  0.4143
  700MOL0     C92294   7.726   1.946   1.764  0.3478  0.1425  0.3922
  700MOL0     C92295   7.595   1.911   1.716 -0.2452 -0.9969  0.7629
  700MOL0     C92296   7.472   1.940   1.780 -0.8392 -0.4092  0.1620
  700MOL0     C92297   7.336   1.913   1.730 -0.3482 -1.1241 -0.0960
  700MOL0     O92298   7.234   1.976   1.799  0.2952  0.1156  1.2299
  700MOL0     C92299   7.106   1.952   1.763  0.6491 -0.8106 -0.4646
  700MOL0     C92300   7.049   1.952   1.635 -0.5616 -0.3682 -0.0533
  700MOL0     C92301   6.915   1.935   1.610 -0.2170 -0.2779 -0.9218
  700MOL0     C92302   6.831   1.928   1.722 -0.2547  0.4391  0.2989
  700MOL0     O92303   6.696   1.917   1.717 -0.3118 -0.7493 -0.2750
  700MOL0     C92304   6.644   1.812   1.634  1.0820 -0.3385  0.2802
  700MOL0     C92305   6.496   1.801   1.672 -1.0044 -0.4654 -0.0219
  700MOL0     C92306   6.421   1.921   1.603  0.9642  0.1618 -0.5448
  700MOL0     C92307   6.272   1.926   1.630  0.1044  0.1383  0.0171
  700MOL0     C92308   6.201   2.042   1.556  0.0454  0.4551 -0.7295
  700MOL0     C92309   6.061   2.070   1.606  0.0004  0.1029  1.0713
  700MOL0     C92310   5.968   2.127   1.502 -0.6564  0.0509 -0.0144
  700MOL0     C92311   5.826   2.109   1.547 -0.0078  0.9635 -0.6057
  700MOL0    Cl92312   5.805   2.224   1.688 -0.0151  0.1184 -0.4233
  700MOL0     C92313   6.877   1.936   1.847 -0.1718  0.6137 -0.6094
  700MOL0     C92314   7.015   1.941   1.874 -0.2229 -0.5876 -0.9558
  700MOL0     O92315   7.334   1.822   1.650 -0.8607 -0.1278 -0.1607
  700MOL0     C92316   7.485   2.011   1.901  0.2392 -0.6006 -0.9896
  700MOL0     C92317   7.616   2.063   1.940 -0.0223 -0.6824  0.7283
  700MOL0     N92318   8.142   2.051   2.547  0.1931 -0.0702 -0.1544
  700MOL0     N92319   8.235   2.050   2.631 -0.3174 -0.0043 -0.4820
  700MOL0     C92320   9.138   2.385   3.460 -1.0089 -0.2173  0.2094
  700MOL0     C92321   9.235   2.485   3.474  0.2047  0.3659  0.3238
  700MOL0     C92322   9.515   2.835   3.399 -0.0353  1.9372 -0.1067
  700MOL0     C92323   9.513   2.961   3.342  0.5619 -0.5314 -0.1340
  700MOL0     C92324   9.576   3.079   3.395 -0.6726  0.9083 -0.6979
  700MOL0     C92325   9.660   3.066   3.508 -0.3381  0.2194 -0.1851
  700MOL0     O92326   9.726   3.169   3.567  0.5394 -1.0864 -0.4881
  700MOL0     C92327   9.723   3.302   3.517 -0.4927  0.5705  0.3280
  700MOL0     C92328   9.846   3.321   3.413  0.7116  0.1640  0.2376
  700MOL0     C92329   9.846   3.453   3.337  0.8205 -0.8658 -0.0603
  700MOL0     C92330   9.989   3.501   3.301  0.9310  0.4043 -0.6746
  700MOL0     C92331  10.032   3.400   3.208  0.1904 -0.2564 -0.0664
  700MOL0     C92332  10.093   3.331   3.127  0.7240  0.3766 -0.2805
  700MOL0     C92333   9.672   2.934   3.560 -0.3223 -0.3613 -0.7790
  700MOL0     C92334   9.598   2.822   3.511  0.3251  0.0405 -0.8346
  700MOL0     H92335   9.467   2.368   3.250 -0.9099 -0.0290 -1.4305
  700MOL0     H92336   9.272   2.224   3.202 -0.9449 -2.6826  2.4123
  700MOL0     H92337   8.965   2.330   3.244 -1.7696 -0.5132 -0.5073
  700MOL0     H92338   8.877   2.208   3.349  1.8963 -1.5082  2.5019
  700MOL0     H92339   8.951   2.034   3.178 -1.1095 -0.7549 -1.6716
  700MOL0     H92340   8.994   2.170   3.079 -3.2818  1.4247 -1.7431
  700MOL0     H92341   8.786   2.248   3.045  0.6682  0.1352 -0.3234
  700MOL0     H92342   8.710   2.167   3.181  1.2523 -0.9167 -0.2691
  700MOL0     H92343   8.817   2.059   2.923 -0.1863 -0.6323 -0.9476
  700MOL0     H92344   8.802   1.947   3.063 -0.9798 -1.1692 -0.3325
  700MOL0     H92345   8.583   2.126   2.939  0.3719  1.0153  0.1865
  700MOL0     H92346   8.545   1.987   3.042 -1.3965  0.1649 -1.8986
  700MOL0     H92347   8.607   1.832   2.852  0.1915  0.0342 -1.0412
  700MOL0     H92348   8.681   1.946   2.761 -0.4732 -0.8878 -0.5564
  700MOL0     H92349   8.384   1.966   2.832 -0.9635  2.7368 -0.0376
  700MOL0     H92350   8.479   2.096   2.757 -1.9261 -0.3885  1.7416
  700MOL0     H92351   8.427   1.824   2.650  0.1540 -1.1345 -3.5066
  700MOL0     H92352   8.542   1.940   2.578 -0.0459  0.2257  0.3005
  700MOL0     H92353   8.358   1.910   2.349 -0.7351 -4.1451  1.0169
  700MOL0     H92354   7.981   1.974   2.344  0.5561 -3.1608 -0.2292
  700MOL0     H92355   8.117   1.914   2.235 -0.5431 -0.0034 -1.4473
  700MOL0     H92356   8.179   2.169   2.224  0.2929 -2.8830  1.3530
  700MOL0     H92357   8.005   2.192   2.267 -0.8363  0.3630  0.0842
  700MOL0     H92358   8.058   2.176   2.017  1.0501 -0.7531 -0.5509
  700MOL0     H92359   8.089   2.010   2.037 -0.2315 -0.9479 -1.0772
  700MOL0     H92360   7.818   2.157   2.095  1.7009  0.7787  0.3275
  700MOL0     H92361   7.841   1.973   2.102  0.7956 -0.8493  0.3443
  700MOL0     H92362   7.818   1.916   1.715 -0.1627 -2.1050  0.7107
  700MOL0     H92363   7.595   1.862   1.620  0.9601  2.1673 -0.9827
  700MOL0     H92364   7.108   1.979   1.547 -2.0497  1.0149 -0.6779
  700MOL0     H92365   6.873   1.937   1.510 -1.4040 -0.0978 -0.4350
  700MOL0     H92366   6.692   1.717   1.657  1.0366 -1.0127 -2.1110
  700MOL0     H92367   6.657   1.832   1.527  2.7886  4.0562  1.0709
  700MOL0     H92368   6.485   1.805   1.781 -1.0493  1.2288 -0.0737
  700MOL0     H92369   6.459   1.708   1.628  0.2054 -0.8834 -0.2055
  700MOL0     H92370   6.422   1.898   1.496 -2.2088 -2.1065 -0.2381
  700MOL0     H92371   6.479   2.009   1.632 -0.4333  0.5664  1.1843
  700MOL0     H92372   6.230   1.832   1.593 -0.4307 -0.6609  2.4192
  700MOL0     H92373   6.249   1.938   1.737  1.4374  0.0757  0.3208
  700MOL0     H92374   6.202   2.027   1.448  1.6722  0.0706 -0.6905
  700MOL0     H92375   6.255   2.136   1.567  0.0954  0.4020 -0.4953
  700MOL0     H92376   6.072   2.148   1.682 -0.7562  0.7073  0.5650
  700MOL0     H92377   6.021   1.972   1.633 -1.8130  0.3674 -0.4591
  700MOL0     H92378   5.994   2.230   1.479  1.0084 -0.1357  0.8756
  700MOL0     H92379   5.979   2.071   1.408 -1.9027  1.8150 -1.2775
  700MOL0     H92380   5.794   2.006   1.566  2.1387 -0.2752 -3.1482
  700MOL0     H92381   5.768   2.148   1.463  2.2652  1.8070 -1.8535
  700MOL0     H92382   6.809   1.921   1.931 -0.0871 -1.0311 -0.8218
  700MOL0     H92383   7.058   1.911   1.969  1.6112 -3.0210 -2.4298
  700MOL0     H92384   7.400   2.041   1.960  0.7920 -0.6856 -0.1293
  700MOL0     H92385   7.633   2.112   2.035 -0.0015 -0.6523  0.7091
  700MOL0     H92386   9.056   2.372   3.531 -1.1820  1.2941  0.3353
  700MOL0     H92387   9.224   2.558   3.553  1.0182  1.5571 -0.6278
  700MOL0     H92388   9.439   2.984   3.265  1.2242  4.7182  0.4133
  700MOL0     H92389   9.554   3.173   3.345  0.3095  2.3208  1.3711
  700MOL0     H92390   9.745   3.365   3.603  2.6633  0.2855 -0.1592
  700MOL0     H92391   9.632   3.333   3.464 -0.6729 -1.0935 -0.4190
  700MOL0     H92392   9.932   3.331   3.480  0.1418 -0.1947  1.0461
  700MOL0     H92393   9.854   3.235   3.347  2.8618  1.4922 -1.3757
  700MOL0     H92394   9.815   3.530   3.409 -0.7008 -0.8585 -0.6849
  700MOL0     H92395   9.780   3.471   3.252  0.6439  1.2374  0.4584
  700MOL0     H92396   9.978   3.601   3.257 -0.6741  0.2243 -0.7367
  700MOL0     H92397  10.044   3.503   3.396 -1.1438 -3.0823  0.7828
  700MOL0     H92398  10.148   3.267   3.060  0.2504 -2.2214  1.6715
  700MOL0     H92399   9.734   2.920   3.648  1.7460  0.8288 -1.9556
  700MOL0     H92400   9.618   2.727   3.561 -1.1419  0.3258  0.3456
  701MOL0     O92401   1.485  10.982   9.178  0.2789 -0.1105  0.0170
  701MOL0     C92402   1.567  10.923   9.250  0.0418 -0.2086 -0.4604
  701MOL0     O92403   1.541  10.843   9.364 -0.8930 -0.0455  0.2880
  701MOL0     C92404   1.424  10.852   9.423  0.4402 -0.3625  0.3065
  701MOL0     C92405   1.392  10.942   9.529  0.5838  0.4420  0.4379
  701MOL0     C92406   1.265  10.938   9.579  0.1057 -0.5519  0.1216
  701MOL0     C92407   1.166  10.835   9.543 -0.0759 -0.4130  0.4642
  701MOL0     O92408   1.043  10.820   9.601 -0.4796 -0.4244 -0.0280
  701MOL0     C92409   0.990  10.934   9.674  0.7505  1.0712  0.5246
  701MOL0     C92410   0.849  10.914   9.735  0.6304 -0.1997 -0.0023
  701MOL0     C92411   0.740  10.909   9.614  0.5090 -0.3883  0.2770
  701MOL0     C92412   0.600  10.914   9.671  0.1269 -0.5016 -0.0897
  701MOL0     C92413   0.491  10.925   9.566  0.5386 -0.2401  0.9113
  701MOL0     C92414   0.348  10.939   9.630 -0.4367  0.2987  0.7371
  701MOL0     C92415   0.240  10.919   9.516 -0.1743 -0.6278  0.3558
  701MOL0     C92416   0.101  10.915   9.572  0.1932 -0.4532 -1.4166
  701MOL0     N92417  -0.023  10.911   9.480  0.0221 -0.7320 -0.4623
  701MOL0     C92418  -0.091  10.802   9.442 -0.0616  0.2996 -1.0748
  701MOL0     C92419  -0.193  10.857   9.373 -0.4607  0.0787 -0.4908
  701MOL0     C92420  -0.302  10.774   9.303 -0.1044  0.7547 -0.3925
  701MOL0     C92421  -0.433  10.813   9.363  0.0180  0.0979  0.0117
  701MOL0     C92422  -0.540  10.721   9.299  1.3563 -0.0887  0.3651
  701MOL0     C92423  -0.678  10.728   9.366 -0.2180 -0.1573  0.9675
  701MOL0     O92424  -0.769  10.643   9.288 -0.0031 -0.2861 -0.2214
  701MOL0     C92425  -0.908  10.634   9.314 -1.0314 -0.0125  0.3133
  701MOL0     C92426  -0.970  10.526   9.249 -0.2498 -0.7698 -0.0997
  701MOL0     C92427  -1.102  10.516   9.251 -0.0269 -0.4284  1.4904
  701MOL0     C92428  -1.190  10.611   9.300 -0.3454 -0.1702 -0.1594
  701MOL0     C92429  -1.333  10.617   9.286  0.5080 -0.5659 -0.6334
  701MOL0     O92430  -1.412  10.684   9.376 -0.4516 -0.4480  0.2278
  701MOL0     C92431  -1.552  10.658   9.384 -0.2092 -0.6469  0.6834
  701MOL0     C92432  -1.597  10.544   9.454 -0.5619  0.1402 -0.0364
  701MOL0     C92433  -1.739  10.537   9.476  0.3755  0.1171  0.6665
  701MOL0     C92434  -1.833  10.629   9.426 -0.7772 -0.7277  1.2557
  701MOL0     O92435  -1.965  10.610   9.448  0.5143 -0.5972 -0.1781
  701MOL0     C92436  -2.060  10.726   9.449 -0.3385  0.8452 -0.4744
  701MOL0     C92437  -2.181  10.688   9.535  0.4081 -0.5029  0.7465
  701MOL0     C92438  -2.260  10.808   9.579  0.3680 -1.0121  0.3148
  701MOL0     C92439  -2.338  10.780   9.706  0.1750 -1.0690  0.6541
  701MOL0     C92440  -2.435  10.900   9.718  1.0042 -0.3737 -1.1585
  701MOL0     C92441  -2.499  10.903   9.861 -0.1795  0.1744  0.8362
  701MOL0     C92442  -2.596  10.791   9.871 -0.0652  0.0709  0.1223
  701MOL0     C92443  -2.736  10.822   9.821  0.3495 -0.2579  1.1835
  701MOL0    Cl92444  -2.857  10.696   9.861  0.1656 -0.0583  0.2483
  701MOL0     C92445  -1.780  10.745   9.363  0.1374 -0.7303 -0.2721
  701MOL0     C92446  -1.643  10.761   9.343  0.2154  0.2067  0.1183
  701MOL0     O92447  -1.376  10.568   9.189  0.0607 -0.3479  0.2701
  701MOL0     C92448  -1.128  10.725   9.361  0.0724 -0.8405 -0.5167
  701MOL0     C92449  -0.989  10.736   9.369 -0.0499 -0.0174  0.1765
  701MOL0     N92450  -0.176  10.993   9.351  0.1619  0.1478 -0.4710
  701MOL0     N92451  -0.074  11.030   9.432 -0.4368  0.6453  0.8287
  701MOL0     C92452   1.208  10.744   9.444 -0.1983  0.3003  1.0336
  701MOL0     C92453   1.326  10.769   9.373 -0.1942  0.0158 -0.1928
  701MOL0     C92454   1.709  10.940   9.214  0.2377  0.4084  0.4816
  701MOL0     C92455   1.747  10.999   9.097 -0.0472 -0.7582  0.0155
  701MOL0     C92456   1.882  11.022   9.068  0.0013 -0.1275  0.6035
  701MOL0     C92457   1.981  10.968   9.144 -0.3069 -0.5133 -0.5201
  701MOL0     O92458   2.113  10.989   9.111 -0.4820 -0.1303 -0.8637
  701MOL0     C92459   2.215  10.909   9.181 -0.5880 -0.3811 -0.7516
  701MOL0     C92460   2.351  10.960   9.134 -0.6347 -0.2955 -0.3060
  701MOL0     C92461   2.368  10.933   8.982 -0.3024 -0.2757 -0.0917
  701MOL0     C92462   2.517  10.933   8.947  0.2210  0.0730  0.0384
  701MOL0     C92463   2.586  11.059   8.953  0.8632  0.0562  1.0846
  701MOL0     C92464   2.661  11.155   8.952  0.8641  0.5390  0.0666
  701MOL0     C92465   1.945  10.896   9.266  0.0798 -0.3816  0.0891
  701MOL0     C92466   1.811  10.879   9.296 -0.5266 -0.5469  0.9379
  701MOL0     H92467   1.452  11.026   9.562 -1.6266  1.8092  1.1469
  701MOL0     H92468   1.246  11.012   9.656  0.1701  0.7813 -1.0937
  701MOL0     H92469   0.993  11.012   9.596 -0.8706  1.2740  0.6271
  701MOL0     H92470   1.060  10.958   9.754  0.2796 -0.0904  1.3028
  701MOL0     H92471   0.822  10.997   9.802 -1.3437 -0.0484 -0.9290
  701MOL0     H92472   0.844  10.816   9.783 -3.5188 -1.1710 -1.9406
  701MOL0     H92473   0.755  10.819   9.555 -2.1544 -0.7169 -0.0284
  701MOL0     H92474   0.745  10.990   9.541  1.0121 -1.0420 -0.4229
  701MOL0     H92475   0.587  10.835   9.746  4.3888 -0.2239  1.1927
  701MOL0     H92476   0.596  11.005   9.732 -0.8610  0.1243 -1.0541
  701MOL0     H92477   0.506  10.839   9.501  0.4724  1.1099 -0.9669
  701MOL0     H92478   0.520  11.009   9.501  1.1831 -2.0204 -1.2146
  701MOL0     H92479   0.332  11.031   9.687 -1.7075 -1.2321  3.0197
  701MOL0     H92480   0.339  10.854   9.698  1.1544 -1.7545 -1.4477
  701MOL0     H92481   0.249  10.995   9.439 -0.4876  0.8729  1.7507
  701MOL0     H92482   0.263  10.825   9.464  1.2667 -0.8627  1.3671
  701MOL0     H92483   0.098  11.007   9.631  2.2443  0.4824 -2.6573
  701MOL0     H92484   0.093  10.832   9.643  0.1565  2.2322  2.0036
  701MOL0     H92485  -0.081  10.697   9.466 -1.5512  0.1537 -0.9702
  701MOL0     H92486  -0.281  10.668   9.324 -0.1140  0.6843 -0.7306
  701MOL0     H92487  -0.291  10.802   9.198 -0.6745 -0.5539 -0.8296
  701MOL0     H92488  -0.459  10.919   9.351 -2.2620 -0.0034  2.8481
  701MOL0     H92489  -0.431  10.800   9.471 -0.4863  0.3385  0.0535
  701MOL0     H92490  -0.548  10.751   9.194 -0.8636 -1.5897  0.0501
  701MOL0     H92491  -0.505  10.617   9.306 -0.0825 -0.5678  0.7236
  701MOL0     H92492  -0.709  10.833   9.364 -0.8034 -0.2544  2.7071
  701MOL0     H92493  -0.674  10.699   9.472  0.4662  2.0767  1.6083
  701MOL0     H92494  -0.903  10.460   9.195  0.0636  1.4434 -2.6084
  701MOL0     H92495  -1.143  10.430   9.199  2.5621 -0.2350 -1.1742
  701MOL0     H92496  -1.530  10.462   9.479 -2.8593 -1.1374  2.4640
  701MOL0     H92497  -1.791  10.461   9.533 -1.2028  2.6752  2.8312
  701MOL0     H92498  -2.088  10.744   9.344 -0.9608  0.3386 -0.3987
  701MOL0     H92499  -2.013  10.813   9.496 -1.8021  1.4867 -0.1414
  701MOL0     H92500  -2.145  10.649   9.631 -3.0911 -1.5425  1.8056
  701MOL0     H92501  -2.245  10.613   9.486  0.6148 -0.5004  0.4709
  701MOL0     H92502  -2.320  10.858   9.502 -1.0355 -1.5103  1.0405
  701MOL0     H92503  -2.192  10.881   9.624  2.3771 -1.7340 -1.3847
  701MOL0     H92504  -2.403  10.694   9.687  1.0942 -1.3366 -1.4397
  701MOL0     H92505  -2.270  10.761   9.790  0.5724  0.1147  0.6161
  701MOL0     H92506  -2.513  10.902   9.641 -1.3684  1.9539  1.0904
  701MOL0     H92507  -2.376  10.991   9.707 -0.2408  0.8870  1.5823
  701MOL0     H92508  -2.553  10.996   9.879  2.7799  1.7568  2.3703
  701MOL0     H92509  -2.422  10.892   9.939  0.6284 -0.4803 -0.0312
  701MOL0     H92510  -2.558  10.700   9.824  2.2035  1.1792 -0.3054
  701MOL0     H92511  -2.597  10.766   9.978  0.8807 -1.0458 -0.1122
  701MOL0     H92512  -2.733  10.830   9.712  3.4207 -0.2782  1.1885
  701MOL0     H92513  -2.773  10.918   9.857  0.8191 -0.4870  2.3079
  701MOL0     H92514  -1.844  10.827   9.333  0.9210 -0.5790 -1.6573
  701MOL0     H92515  -1.602  10.845   9.289 -1.2679  0.6905 -0.2888
  701MOL0     H92516  -1.199  10.804   9.385 -2.9260 -2.7274 -2.4879
  701MOL0     H92517  -0.945  10.819   9.425  1.0658  0.5337 -1.4149
  701MOL0     H92518   1.137  10.666   9.417 -0.4529  0.9034 -0.1186
  701MOL0     H92519   1.347  10.703   9.290 -2.4179  0.3013 -1.0529
  701MOL0     H92520   1.673  11.030   9.024  0.9027  1.5586 -0.0514
  701MOL0     H92521   1.901  11.069   8.972  1.3248 -1.3992  0.2133
  701MOL0     H92522   2.190  10.806   9.153 -0.2711 -0.8361  0.6038
  701MOL0     H92523   2.214  10.913   9.290  0.4884 -1.1981 -0.7023
  701MOL0     H92524   2.369  11.064   9.160  0.7238 -0.5531 -0.1560
  701MOL0     H92525   2.424  10.898   9.186  4.4460  3.6135 -1.9324
  701MOL0     H92526   2.320  11.012   8.923 -0.7105 -1.0495 -0.8252
  701MOL0     H92527   2.318  10.838   8.959  0.3892 -0.4220 -1.1053
  701MOL0     H92528   2.582  10.872   9.010  0.5915 -0.5606 -0.9278
  701MOL0     H92529   2.520  10.897   8.844 -1.8655 -0.4514  0.1151
  701MOL0     H92530   2.729  11.238   8.957  1.4979  0.4142 -3.5939
  701MOL0     H92531   2.021  10.848   9.327 -0.7998 -1.7712  0.1391
  701MOL0     H92532   1.784  10.834   9.391 -1.8171  2.0828  1.9572
  702MOL0     O92533   2.841  11.006   0.142 -0.1450 -0.2872 -0.6835
  702MOL0     C92534   2.885  10.899   0.181 -0.1170 -0.3565 -0.3680
  702MOL0     O92535   2.802  10.790   0.203  0.2655  1.1227 -0.0423
  702MOL0     C92536   2.660  10.793   0.175  0.5900 -0.6200 -0.7869
  702MOL0     C92537   2.565  10.738   0.267  0.4500  1.2156  0.3362
  702MOL0     C92538   2.423  10.728   0.241 -0.5408  0.5085 -0.8766
  702MOL0     C92539   2.371  10.774   0.116  0.4510 -0.5934 -0.1892
  702MOL0     O92540   2.233  10.762   0.071 -0.1000  0.0854 -0.6744
  702MOL0     C92541   2.142  10.709   0.166  0.3757  0.1783 -0.2007
  702MOL0     C92542   2.009  10.704   0.093 -0.4977  0.3130  0.1475
  702MOL0     C92543   1.902  10.613   0.162 -0.3598  0.1980  0.9915
  702MOL0     C92544   1.772  10.608   0.079  0.2360  1.4953  0.5257
  702MOL0     C92545   1.658  10.612   0.172 -0.0062 -0.5007  0.2056
  702MOL0     C92546   1.526  10.595   0.085  1.1273 -0.6470 -0.4008
  702MOL0     C92547   1.409  10.620   0.185  0.2253  1.0519 -0.4302
  702MOL0     C92548   1.364  10.491   0.255  0.4643 -0.4361 -0.6168
  702MOL0     N92549   1.313  10.394   0.156  0.6390  0.1329 -0.5887
  702MOL0     C92550   1.260  10.275   0.193  0.1619  0.8159  0.0546
  702MOL0     C92551   1.228  10.207   0.079 -0.2315  0.1079  0.2274
  702MOL0     C92552   1.185  10.064   0.043  0.5642  0.1608 -0.3068
  702MOL0     C92553   1.044  10.030   0.102  0.5111 -0.4291 -0.7957
  702MOL0     C92554   0.955   9.955  -0.006 -0.0340 -0.8738 -0.4444
  702MOL0     C92555   0.818   9.903   0.039 -0.4935  0.8494  0.3781
  702MOL0     O92556   0.832   9.787   0.123  0.6904 -0.0959  0.5850
  702MOL0     C92557   0.713   9.722   0.151  0.5188 -0.1473 -0.1198
  702MOL0     C92558   0.585   9.764   0.118 -1.2224 -0.1016  0.3305
  702MOL0     C92559   0.468   9.687   0.139  0.3382 -0.2590  0.3344
  702MOL0     C92560   0.484   9.565   0.214  0.3280  0.2892 -0.5725
  702MOL0     C92561   0.365   9.483   0.231  0.4874  0.3768  0.2571
  702MOL0     O92562   0.386   9.346   0.225  0.3826  0.2660  0.3297
  702MOL0     C92563   0.267   9.266   0.253  0.0818 -0.3348 -0.0445
  702MOL0     C92564   0.229   9.168   0.163  0.3109  0.0302 -0.1112
  702MOL0     C92565   0.122   9.082   0.181 -0.0706  0.0295  0.4686
  702MOL0     C92566   0.049   9.092   0.301 -0.1226  0.8681  0.1636
  702MOL0     O92567  -0.063   9.015   0.326  0.1702  1.0339 -0.8760
  702MOL0     C92568  -0.118   8.916   0.238  0.0638  0.0607 -1.1235
  702MOL0     C92569  -0.257   8.869   0.276  0.4601  0.2603 -0.4857
  702MOL0     C92570  -0.303   8.752   0.187  0.6748 -1.1375 -0.3566
  702MOL0     C92571  -0.448   8.702   0.227  0.5998 -0.7392  0.1301
  702MOL0     C92572  -0.511   8.596   0.133 -0.1257  0.0025 -0.8254
  702MOL0     C92573  -0.661   8.566   0.165 -0.4532 -0.3205  0.0744
  702MOL0     C92574  -0.699   8.443   0.086  0.3576 -0.9390  1.0064
  702MOL0     C92575  -0.772   8.480  -0.049  0.1220  0.1697 -0.2262
  702MOL0    Cl92576  -0.914   8.586  -0.027 -0.2491  0.1495  0.1178
  702MOL0     C92577   0.084   9.188   0.393  0.3931 -0.4963 -0.4347
  702MOL0     C92578   0.201   9.267   0.375 -0.2508  0.4274 -0.8205
  702MOL0     O92579   0.264   9.538   0.246 -0.7888 -0.9520 -0.7508
  702MOL0     C92580   0.616   9.520   0.264 -0.1258  0.5476 -0.7131
  702MOL0     C92581   0.722   9.602   0.233 -0.4438 -0.2507 -0.4392
  702MOL0     N92582   1.243  10.305  -0.021  0.2577  0.4635  0.1345
  702MOL0     N92583   1.301  10.410   0.021 -0.6459 -0.2245 -0.2606
  702MOL0     C92584   2.470  10.842   0.036 -0.3004  0.4459  0.7539
  702MOL0     C92585   2.607  10.858   0.064 -0.8351  0.1411 -1.1757
  702MOL0     C92586   3.027  10.888   0.210  0.9642  0.4414  0.3867
  702MOL0     C92587   3.076  10.760   0.259  0.9169  0.0699  0.0661
  702MOL0     C92588   3.209  10.739   0.279 -0.3658  0.2633 -0.0549
  702MOL0     C92589   3.297  10.844   0.261  0.1404 -0.7039 -0.1424
  702MOL0     O92590   3.427  10.840   0.294 -0.3555 -0.8650  0.6250
  702MOL0     C92591   3.485  10.747   0.380  1.0694  0.1022 -0.6270
  702MOL0     C92592   3.632  10.764   0.382 -0.7634  0.2412 -0.8764
  702MOL0     C92593   3.706  10.651   0.469 -0.2038 -0.3980  0.3855
  702MOL0     C92594   3.850  10.677   0.468 -1.0546 -0.7626 -0.8953
  702MOL0     C92595   3.911  10.606   0.580  0.3700  0.2051 -1.0273
  702MOL0     C92596   3.949  10.548   0.679 -0.4229 -0.1616 -0.9201
  702MOL0     C92597   3.249  10.964   0.220 -0.5575  0.8431  0.2239
  702MOL0     C92598   3.119  10.987   0.191  0.6696  0.2286  0.2117
  702MOL0     H92599   2.599  10.694   0.360 -0.7418  2.1389  1.2364
  702MOL0     H92600   2.357  10.689   0.318  3.1660 -1.3041  1.7165
  702MOL0     H92601   2.134  10.770   0.257 -2.8556  0.1391 -0.3319
  702MOL0     H92602   2.180  10.609   0.188 -0.8404 -0.0137  1.1378
  702MOL0     H92603   2.034  10.651   0.001 -1.9400  0.5113 -0.3842
  702MOL0     H92604   1.969  10.803   0.067 -2.4284 -0.5525 -0.3413
  702MOL0     H92605   1.878  10.652   0.261 -3.1935 -1.7031  1.1500
  702MOL0     H92606   1.946  10.514   0.179 -0.5586  0.1286  1.1034
  702MOL0     H92607   1.764  10.694   0.012  0.4708  1.1688  0.0796
  702MOL0     H92608   1.771  10.516   0.021 -0.9970  1.2981  0.8274
  702MOL0     H92609   1.646  10.709   0.221 -3.2391  0.6471 -2.4513
  702MOL0     H92610   1.660  10.529   0.244 -4.7250  0.6336  2.0468
  702MOL0     H92611   1.528  10.495   0.040 -0.5736 -1.0317  0.3200
  702MOL0     H92612   1.531  10.670   0.005 -1.1961  0.9242  0.8393
  702MOL0     H92613   1.430  10.705   0.250  0.8528  1.1414 -0.7362
  702MOL0     H92614   1.323  10.644   0.122  0.5886  0.3458 -1.2215
  702MOL0     H92615   1.293  10.524   0.332  2.2550 -1.1968  1.4764
  702MOL0     H92616   1.443  10.470   0.328  0.3988  4.1975  1.1274
  702MOL0     H92617   1.253  10.231   0.291  1.9373 -0.4178 -0.3195
  702MOL0     H92618   1.265  10.008   0.093 -0.9118 -0.8713  0.9781
  702MOL0     H92619   1.184  10.046  -0.065  0.0346 -1.0570 -0.1248
  702MOL0     H92620   0.985  10.119   0.126  0.8050 -0.6634  0.8867
  702MOL0     H92621   1.047   9.969   0.192 -2.1712 -2.1307 -1.7294
  702MOL0     H92622   0.938  10.031  -0.083 -1.7967 -0.5320  0.2206
  702MOL0     H92623   1.010   9.863  -0.027  1.0637 -0.0920 -1.0406
  702MOL0     H92624   0.763   9.877  -0.052 -1.0505  0.7952  0.7240
  702MOL0     H92625   0.765   9.984   0.091 -0.2375 -1.2188  4.2973
  702MOL0     H92626   0.575   9.848   0.049  1.5181 -0.0970 -0.1508
  702MOL0     H92627   0.371   9.718   0.102  0.5745  0.8134  0.5944
  702MOL0     H92628   0.284   9.158   0.071  2.7037  2.8194  0.8870
  702MOL0     H92629   0.110   9.004   0.106 -1.4755  2.0372 -1.5262
  702MOL0     H92630  -0.049   8.831   0.237  1.6585  1.2704  0.4445
  702MOL0     H92631  -0.119   8.953   0.135  2.3012  0.4653 -1.0450
  702MOL0     H92632  -0.321   8.957   0.279  1.4555  0.9849 -0.0287
  702MOL0     H92633  -0.262   8.842   0.382 -2.0140  2.9050  0.2066
  702MOL0     H92634  -0.235   8.667   0.197  0.3732 -1.1736  1.8497
  702MOL0     H92635  -0.298   8.770   0.079 -0.7620  0.6854 -0.1651
  702MOL0     H92636  -0.441   8.665   0.330 -0.1043  0.6284  0.7013
  702MOL0     H92637  -0.518   8.786   0.219 -2.3219 -2.9770  0.2577
  702MOL0     H92638  -0.441   8.512   0.142  1.2905  1.2176 -0.2738
  702MOL0     H92639  -0.524   8.635   0.032  0.5047 -1.2266 -1.3998
  702MOL0     H92640  -0.726   8.650   0.139  0.5631 -0.1873 -2.3423
  702MOL0     H92641  -0.666   8.563   0.274 -0.7665  1.1504  0.1175
  702MOL0     H92642  -0.616   8.376   0.065  1.6072  0.8010  0.0907
  702MOL0     H92643  -0.773   8.388   0.144 -0.1710 -0.7484  0.5161
  702MOL0     H92644  -0.802   8.386  -0.094 -3.1162  1.4983 -1.1061
  702MOL0     H92645  -0.702   8.532  -0.116  1.3762 -1.2491 -0.0705
  702MOL0     H92646   0.029   9.187   0.487  1.0604 -0.9955 -0.0316
  702MOL0     H92647   0.234   9.325   0.461 -0.8171 -0.0565 -0.2632
  702MOL0     H92648   0.634   9.426   0.315 -2.3232  0.3148 -0.2416
  702MOL0     H92649   0.822   9.587   0.273  0.6430  2.6037 -1.8349
  702MOL0     H92650   2.444  10.893  -0.056 -0.3556 -0.8961 -0.0091
  702MOL0     H92651   2.664  10.915  -0.009  0.4288  1.8467  1.0399
  702MOL0     H92652   3.012  10.678   0.287  1.8744 -0.6517  0.1950
  702MOL0     H92653   3.240  10.642   0.317 -1.3515 -0.5771 -1.3022
  702MOL0     H92654   3.466  10.646   0.342 -2.3594 -0.3785  1.8524
  702MOL0     H92655   3.443  10.752   0.481  0.8749 -0.7956 -0.6506
  702MOL0     H92656   3.666  10.761   0.278  1.9709  1.2299 -0.1075
  702MOL0     H92657   3.660  10.864   0.417  0.2996  0.1401 -1.3934
  702MOL0     H92658   3.688  10.566   0.401 -1.7006  1.1613 -1.2644
  702MOL0     H92659   3.669  10.639   0.571  1.2073  1.1688  1.1253
  702MOL0     H92660   3.902  10.639   0.379 -0.9450  1.2403 -1.7399
  702MOL0     H92661   3.871  10.784   0.476 -0.7922 -0.8691 -0.1420
  702MOL0     H92662   3.995  10.499   0.762 -0.8539  0.5609 -0.2346
  702MOL0     H92663   3.314  11.051   0.218  1.5772 -0.6980 -0.8351
  702MOL0     H92664   3.077  11.085   0.169 -1.2744  0.2253  3.3287
  703MOL0     O92665   9.535   6.283   6.716  0.6604  0.0883 -0.4210
  703MOL0     C92666   9.516   6.251   6.833 -0.2472 -0.2238  0.2160
  703MOL0     O92667   9.609   6.182   6.916  0.8694  0.4836 -0.2334
  703MOL0     C92668   9.745   6.156   6.887 -0.3427  0.2823  0.6862
  703MOL0     C92669   9.816   6.208   6.787 -0.4280 -0.0066 -0.6020
  703MOL0     C92670   9.954   6.196   6.772 -0.9514 -0.4835 -1.1247
  703MOL0     C92671  10.025   6.125   6.873  0.8143 -0.2320  0.1679
  703MOL0     O92672  10.163   6.138   6.855 -0.0648 -0.4629 -0.1560
  703MOL0     C92673  10.244   6.107   6.967  0.2227  0.0941 -0.8530
  703MOL0     C92674  10.399   6.109   6.932  0.7246 -0.4365  0.4414
  703MOL0     C92675  10.484   6.061   7.050  0.4175  0.1233  0.3937
  703MOL0     C92676  10.621   6.059   7.016 -0.2231 -0.2499  1.2739
  703MOL0     C92677  10.706   6.008   7.131 -0.2426 -0.1464  0.4196
  703MOL0     C92678  10.859   6.009   7.111  0.1195  0.1278  0.2705
  703MOL0     C92679  10.934   5.950   7.235  0.4441  0.2821  0.1718
  703MOL0     C92680  11.086   5.953   7.208 -0.0949  0.4229  0.0437
  703MOL0     N92681  11.170   5.899   7.318 -0.3925 -0.8592  0.2869
  703MOL0     C92682  11.130   5.807   7.410 -0.8845  0.2876 -1.1681
  703MOL0     C92683  11.228   5.811   7.505 -0.7101 -0.1805 -0.7331
  703MOL0     C92684  11.236   5.729   7.637 -0.1242 -0.5113 -0.2225
  703MOL0     C92685  11.333   5.796   7.739  0.6749 -0.9192  0.0126
  703MOL0     C92686  11.383   5.698   7.838 -0.3896  0.1548  0.1952
  703MOL0     C92687  11.495   5.753   7.926 -0.3173 -0.0147  0.4544
  703MOL0     O92688  11.601   5.780   7.831  0.2379 -0.6164 -1.1756
  703MOL0     C92689  11.711   5.718   7.863 -0.9263  0.5002  0.2826
  703MOL0     C92690  11.829   5.789   7.866  0.2353  0.1042  1.4126
  703MOL0     C92691  11.954   5.722   7.892 -0.6568  0.0905 -0.0228
  703MOL0     C92692  11.955   5.580   7.912 -0.1021 -0.0192  0.0443
  703MOL0     C92693  12.080   5.503   7.949 -0.2904  0.6594 -0.2221
  703MOL0     O92694  12.202   5.566   7.935  0.5516  0.0831  0.1569
  703MOL0     C92695  12.308   5.523   8.003 -0.6946  1.3095  0.4693
  703MOL0     C92696  12.330   5.580   8.125  0.1964 -0.1238 -0.5768
  703MOL0     C92697  12.445   5.547   8.199 -0.1045  1.0396  0.0759
  703MOL0     C92698  12.536   5.453   8.141 -0.5711  1.5132 -0.1410
  703MOL0     O92699  12.657   5.412   8.191  0.1763 -0.4144  0.0410
  703MOL0     C92700  12.706   5.467   8.322 -0.3523  0.4683 -0.1180
  703MOL0     C92701  12.835   5.553   8.300  0.5795  0.1784  0.2598
  703MOL0     C92702  12.897   5.565   8.438 -0.2230 -0.1398 -0.1750
  703MOL0     C92703  13.033   5.635   8.426  0.0375 -0.1818  0.2905
  703MOL0     C92704  13.147   5.547   8.368 -0.8085 -0.4780 -0.3283
  703MOL0     C92705  13.201   5.456   8.476  1.0374  0.8495  0.2429
  703MOL0     C92706  13.319   5.367   8.415 -0.0235  0.3974  0.4383
  703MOL0     C92707  13.381   5.272   8.522  1.0370 -0.5000  0.3699
  703MOL0    Cl92708  13.525   5.195   8.445 -0.1049 -0.2740 -0.4094
  703MOL0     C92709  12.517   5.404   8.015 -0.0113  0.9868 -0.2002
  703MOL0     C92710  12.402   5.436   7.942 -0.1930 -0.3867 -0.8166
  703MOL0     O92711  12.066   5.384   7.985 -0.2503  0.0728 -0.8160
  703MOL0     C92712  11.830   5.513   7.903 -0.4867  0.3053 -0.5114
  703MOL0     C92713  11.715   5.583   7.869  0.1998  0.4230 -0.6154
  703MOL0     N92714  11.335   5.886   7.457  0.3700 -0.1883 -0.0049
  703MOL0     N92715  11.299   5.932   7.341  0.1420 -0.4285  0.0255
  703MOL0     C92716   9.947   6.073   6.976  0.1484 -1.0910  0.4099
  703MOL0     C92717   9.809   6.083   6.981 -0.7636  0.1585 -0.3358
  703MOL0     C92718   9.381   6.294   6.888 -0.5974  0.2637  0.8983
  703MOL0     C92719   9.341   6.240   7.010  0.4602  0.4986  0.4045
  703MOL0     C92720   9.218   6.279   7.057  0.2690  0.6078  0.4330
  703MOL0     C92721   9.142   6.380   6.998 -0.3259  0.5756  0.3481
  703MOL0     O92722   9.021   6.414   7.058 -0.4518  0.6475 -0.1099
  703MOL0     C92723   8.930   6.478   6.973  0.0431  1.0174 -0.5659
  703MOL0     C92724   8.892   6.408   6.841  0.3348 -0.0874  0.3872
  703MOL0     C92725   8.759   6.470   6.783 -0.1255  0.6743 -0.0270
  703MOL0     C92726   8.642   6.426   6.860 -0.2751 -0.1539  0.3230
  703MOL0     C92727   8.510   6.458   6.795 -0.2721 -1.1662  0.4337
  703MOL0     C92728   8.411   6.497   6.731 -0.2497  0.5278  0.2412
  703MOL0     C92729   9.193   6.441   6.885 -1.1172 -1.2492  0.8126
  703MOL0     C92730   9.308   6.396   6.827  0.5554 -0.1166 -0.3263
  703MOL0     H92731   9.767   6.265   6.708  0.6924  2.9007  0.6729
  703MOL0     H92732  10.003   6.225   6.679  2.6419  1.6541  1.1836
  703MOL0     H92733  10.214   6.008   7.002 -0.3098  1.0242  1.5159
  703MOL0     H92734  10.222   6.179   7.047  2.4555  2.2317 -2.0463
  703MOL0     H92735  10.422   6.213   6.909 -0.7605 -0.4111 -1.1727
  703MOL0     H92736  10.404   6.038   6.848 -2.0651 -2.2514  1.6612
  703MOL0     H92737  10.437   5.963   7.063 -1.7247  0.9712 -0.4271
  703MOL0     H92738  10.473   6.122   7.140 -1.5132  1.1829 -0.4860
  703MOL0     H92739  10.632   5.998   6.926  2.3273  2.3898 -0.3963
  703MOL0     H92740  10.656   6.159   6.986  0.5057 -0.7569  0.3930
  703MOL0     H92741  10.678   5.907   7.162  0.3403 -0.8492 -1.2161
  703MOL0     H92742  10.686   6.079   7.211 -2.3641  1.3784 -1.3268
  703MOL0     H92743  10.909   6.100   7.078  0.8609  0.1397  1.3553
  703MOL0     H92744  10.887   5.943   7.028  0.5462  0.2829  0.2881
  703MOL0     H92745  10.912   6.021   7.316 -1.1070  0.1616 -0.1000
  703MOL0     H92746  10.888   5.854   7.259 -0.5314  0.7562  0.2748
  703MOL0     H92747  11.096   6.059   7.184  2.6711 -0.1900 -1.9971
  703MOL0     H92748  11.111   5.894   7.119 -1.0964 -1.9698  1.2387
  703MOL0     H92749  11.034   5.756   7.415 -1.4835  1.3494 -1.4501
  703MOL0     H92750  11.283   5.636   7.603 -0.1799 -1.1789  1.4627
  703MOL0     H92751  11.133   5.708   7.665 -0.4669  1.0407 -0.2561
  703MOL0     H92752  11.289   5.878   7.797  1.2405  1.2188 -2.3787
  703MOL0     H92753  11.418   5.837   7.683  0.2710  0.7561  0.5777
  703MOL0     H92754  11.298   5.674   7.903 -2.4462  0.1135 -2.3383
  703MOL0     H92755  11.420   5.610   7.783 -0.7238 -0.4868  0.9667
  703MOL0     H92756  11.524   5.685   8.007 -1.8781  0.4307  1.4234
  703MOL0     H92757  11.464   5.848   7.970  1.1871  1.1967 -0.9413
  703MOL0     H92758  11.832   5.897   7.855  0.1314  0.1606  1.9114
  703MOL0     H92759  12.045   5.777   7.912  0.2439 -0.6108 -1.9092
  703MOL0     H92760  12.252   5.645   8.163 -0.7046 -1.9630  0.8863
  703MOL0     H92761  12.443   5.591   8.298 -2.3983  0.5992  0.2976
  703MOL0     H92762  12.732   5.385   8.390 -0.5470  0.5878  0.0984
  703MOL0     H92763  12.627   5.532   8.361  0.8257  0.9206  1.6236
  703MOL0     H92764  12.809   5.654   8.267  3.3395  0.9290  0.0551
  703MOL0     H92765  12.906   5.496   8.239  0.8087 -1.1340  1.6978
  703MOL0     H92766  12.903   5.464   8.481 -1.1840 -0.0296  0.2518
  703MOL0     H92767  12.826   5.620   8.501 -1.0966  1.2171 -2.2405
  703MOL0     H92768  13.014   5.719   8.358  0.8497 -2.5038 -3.0515
  703MOL0     H92769  13.054   5.664   8.529  0.2825 -2.4105  0.9229
  703MOL0     H92770  13.223   5.623   8.345 -4.0340  3.3603  0.7180
  703MOL0     H92771  13.122   5.486   8.281 -0.3998 -0.5648 -0.3904
  703MOL0     H92772  13.124   5.381   8.496  1.4092 -0.5099 -2.7559
  703MOL0     H92773  13.235   5.519   8.558  1.4739  2.5180 -1.1590
  703MOL0     H92774  13.275   5.312   8.331  2.3669  0.2910 -0.8244
  703MOL0     H92775  13.394   5.437   8.378  1.4055 -0.9158  0.7401
  703MOL0     H92776  13.303   5.195   8.533  0.7767 -0.8705 -2.9326
  703MOL0     H92777  13.404   5.310   8.622  0.8793  0.1521  0.1603
  703MOL0     H92778  12.587   5.338   7.966 -0.8674 -0.2602  0.1920
  703MOL0     H92779  12.365   5.392   7.850  1.0595  0.4952 -1.7709
  703MOL0     H92780  11.830   5.407   7.922  1.3712  0.5391  1.0779
  703MOL0     H92781  11.625   5.524   7.859 -0.0878  0.6438  0.5383
  703MOL0     H92782   9.988   6.024   7.064 -0.8973 -1.5527  0.6485
  703MOL0     H92783   9.752   6.047   7.067  0.9368  0.6769  1.0590
  703MOL0     H92784   9.395   6.168   7.071 -1.6996 -0.6559  1.0362
  703MOL0     H92785   9.185   6.251   7.157 -1.3695 -1.1510 -0.5441
  703MOL0     H92786   8.965   6.577   6.943  0.0398  2.0400  2.5119
  703MOL0     H92787   8.842   6.495   7.036 -0.8646 -0.1107 -1.4764
  703MOL0     H92788   8.964   6.420   6.760 -0.3112 -3.1796 -0.7656
  703MOL0     H92789   8.892   6.300   6.854 -0.8765 -0.2567 -0.8240
  703MOL0     H92790   8.739   6.449   6.678  2.1740 -1.3357 -0.1355
  703MOL0     H92791   8.768   6.578   6.790  2.0243  0.5681 -0.4738
  703MOL0     H92792   8.645   6.319   6.882 -0.1325  0.2037  2.2005
  703MOL0     H92793   8.640   6.482   6.954 -0.5820  2.4615 -1.1387
  703MOL0     H92794   8.321   6.522   6.678 -1.3143  0.3534  1.9164
  703MOL0     H92795   9.137   6.523   6.841 -0.3968 -0.6925  0.9111
  703MOL0     H92796   9.341   6.439   6.733 -0.5281  0.1305 -0.6089
  704MOL0     O92797   6.346  10.828   4.077  0.2312  0.2789 -0.1097
  704MOL0     C92798   6.329  10.715   4.118 -0.4726 -0.2254  0.4984
  704MOL0     O92799   6.432  10.629   4.143  0.3142  0.2396  0.6096
  704MOL0     C92800   6.563  10.675   4.116 -0.2734  1.2501  1.1378
  704MOL0     C92801   6.616  10.675   3.985  0.9258  0.3594 -0.1182
  704MOL0     C92802   6.738  10.746   3.960  0.6017 -0.2402  0.4668
  704MOL0     C92803   6.821  10.792   4.063 -0.2348  0.1277 -1.1011
  704MOL0     O92804   6.937  10.854   4.040 -0.0709  0.5008 -0.5021
  704MOL0     C92805   6.971  10.886   3.903  0.2462  0.0016 -0.9034
  704MOL0     C92806   7.110  10.931   3.911  0.0372 -0.1395  0.4399
  704MOL0     C92807   7.210  10.821   3.965  0.7694 -1.4269 -0.4978
  704MOL0     C92808   7.349  10.867   3.947  0.6007  0.1499  0.0515
  704MOL0     C92809   7.456  10.762   4.007 -0.8523  0.5053 -0.5145
  704MOL0     C92810   7.599  10.798   3.973  0.1329  0.2386 -0.0910
  704MOL0     C92811   7.697  10.769   4.079 -0.8749  0.4960 -0.0352
  704MOL0     C92812   7.696  10.626   4.119 -0.0940  0.6619  0.2103
  704MOL0     N92813   7.728  10.606   4.260  0.6206 -0.9691 -0.1042
  704MOL0     C92814   7.647  10.641   4.362 -0.3082 -0.4186  0.1206
  704MOL0     C92815   7.699  10.591   4.470 -0.1020  0.5666 -0.0974
  704MOL0     C92816   7.642  10.585   4.607  0.6050 -1.0535  0.7679
  704MOL0     C92817   7.631  10.445   4.661  0.8858  0.4142 -0.1559
  704MOL0     C92818   7.588  10.441   4.814  0.2094  0.6788 -1.4787
  704MOL0     C92819   7.441  10.487   4.841  0.7719  0.4532 -0.1229
  704MOL0     O92820   7.345  10.409   4.761 -0.0204 -0.0438 -0.2607
  704MOL0     C92821   7.212  10.422   4.784 -0.1496  0.3848  0.6301
  704MOL0     C92822   7.135  10.345   4.696  0.3219  0.1608 -0.1135
  704MOL0     C92823   7.000  10.352   4.696 -0.2283  0.0651 -0.4080
  704MOL0     C92824   6.934  10.419   4.800 -0.8286 -1.9738  0.0674
  704MOL0     C92825   6.788  10.428   4.802 -0.1161 -0.5163 -0.2341
  704MOL0     O92826   6.726  10.479   4.915  0.6009  0.3769 -0.1472
  704MOL0     C92827   6.590  10.475   4.929  0.1379  0.2550 -0.6969
  704MOL0     C92828   6.542  10.450   5.058 -0.0340  0.8478 -0.6651
  704MOL0     C92829   6.412  10.409   5.074 -1.2228 -0.2321  0.0923
  704MOL0     C92830   6.321  10.412   4.970  0.5972 -0.1186 -0.2292
  704MOL0     O92831   6.181  10.385   4.992 -0.2621  0.5097 -0.0477
  704MOL0     C92832   6.138  10.369   5.127  0.3711  0.4443 -0.5838
  704MOL0     C92833   5.992  10.384   5.145  0.1850 -0.5631  0.1975
  704MOL0     C92834   5.961  10.532   5.153 -0.7616  0.5636  0.3245
  704MOL0     C92835   5.813  10.540   5.166 -0.0418  0.1479  0.3954
  704MOL0     C92836   5.770  10.682   5.180 -0.1697 -0.8677  0.2639
  704MOL0     C92837   5.620  10.685   5.214  0.0914 -0.0474 -0.8094
  704MOL0     C92838   5.563  10.825   5.186  0.0112  0.1904  0.1245
  704MOL0     C92839   5.410  10.851   5.203  0.1325  0.0394 -0.8375
  704MOL0    Cl92840   5.385  11.018   5.250 -0.4159  0.1449  0.2394
  704MOL0     C92841   6.359  10.457   4.845  0.1603  1.0252 -0.1680
  704MOL0     C92842   6.497  10.482   4.821  1.2987  0.0262  0.2196
  704MOL0     O92843   6.733  10.382   4.703  0.9560  0.2294  0.3694
  704MOL0     C92844   7.010  10.506   4.882  0.7650  0.7993  0.1595
  704MOL0     C92845   7.146  10.515   4.865  0.4167 -1.4054  0.2614
  704MOL0     N92846   7.810  10.514   4.435  0.3027 -0.6319  0.2289
  704MOL0     N92847   7.828  10.525   4.310  0.8176 -0.1013  0.1672
  704MOL0     C92848   6.773  10.785   4.185  0.7291  0.0685  0.2201
  704MOL0     C92849   6.646  10.721   4.213 -0.5756 -0.9877  0.2113
  704MOL0     C92850   6.189  10.662   4.129  0.5044 -0.4510 -0.0830
  704MOL0     C92851   6.166  10.537   4.172  0.5698 -0.2361  0.4783
  704MOL0     C92852   6.038  10.491   4.185  0.2568  0.0581  0.2878
  704MOL0     C92853   5.932  10.579   4.164  0.2263  0.2806  0.4196
  704MOL0     O92854   5.803  10.518   4.166 -0.4551  1.0828  0.8401
  704MOL0     C92855   5.685  10.595   4.171 -0.6237  0.1217  0.7726
  704MOL0     C92856   5.588  10.586   4.054 -0.0542 -0.5170  0.1385
  704MOL0     C92857   5.467  10.672   4.093  0.3810  0.5052 -1.0322
  704MOL0     C92858   5.340  10.616   4.033  0.4828  0.5249 -0.7582
  704MOL0     C92859   5.362  10.607   3.879 -0.5775 -0.3992  0.0727
  704MOL0     C92860   5.384  10.600   3.757 -0.8103  0.6225  0.8843
  704MOL0     C92861   5.957  10.711   4.119 -0.4217  0.0618  0.5741
  704MOL0     C92862   6.087  10.756   4.096 -0.7706 -0.2667  0.5298
  704MOL0     H92863   6.556  10.635   3.904  2.6107  0.3826 -1.4336
  704MOL0     H92864   6.767  10.741   3.856  1.1310 -0.4317  0.6174
  704MOL0     H92865   6.914  10.969   3.861 -1.4229  0.2725  1.6921
  704MOL0     H92866   6.962  10.798   3.839  0.1420 -0.6757  0.0267
  704MOL0     H92867   7.101  11.018   3.976  0.1877  1.1507 -1.1946
  704MOL0     H92868   7.147  10.971   3.816 -1.4028  1.4088  0.4792
  704MOL0     H92869   7.194  10.731   3.906  1.0321 -0.8168 -1.5400
  704MOL0     H92870   7.182  10.800   4.069  1.8918  2.8274  0.8784
  704MOL0     H92871   7.364  10.882   3.839 -1.4189 -1.6374 -0.5442
  704MOL0     H92872   7.368  10.961   3.998 -2.1280  0.2080  1.1032
  704MOL0     H92873   7.445  10.674   3.943  2.0724  0.5550 -1.2364
  704MOL0     H92874   7.446  10.734   4.112  1.5155  1.0644 -0.0897
  704MOL0     H92875   7.605  10.906   3.960  0.6588  0.2562  0.2766
  704MOL0     H92876   7.628  10.736   3.887  0.1711 -1.5462  1.1572
  704MOL0     H92877   7.797  10.781   4.036 -1.8443 -0.0964 -2.6528
  704MOL0     H92878   7.681  10.831   4.168  1.5854  0.3751  0.5403
  704MOL0     H92879   7.766  10.568   4.058  1.0627  1.5548  0.6407
  704MOL0     H92880   7.603  10.569   4.112  0.9535 -1.2191  0.9147
  704MOL0     H92881   7.560  10.706   4.366  1.3732  2.0175 -1.1785
  704MOL0     H92882   7.545  10.636   4.609  2.1148  2.3377 -1.5620
  704MOL0     H92883   7.717  10.643   4.662 -0.2674 -0.0141  0.9048
  704MOL0     H92884   7.727  10.394   4.652 -0.5798 -2.2798 -2.4288
  704MOL0     H92885   7.565  10.386   4.596  3.8322 -1.7563 -1.3993
  704MOL0     H92886   7.612  10.346   4.862  0.0764  1.8289  1.0429
  704MOL0     H92887   7.654  10.503   4.876  1.2151 -1.2492 -0.5338
  704MOL0     H92888   7.433  10.594   4.820 -2.7637  0.1249 -1.1320
  704MOL0     H92889   7.425  10.475   4.949  2.7296 -1.3381  0.0272
  704MOL0     H92890   7.189  10.284   4.625 -1.0618  1.9501 -2.8601
  704MOL0     H92891   6.937  10.295   4.629 -1.3896  2.2373 -1.2657
  704MOL0     H92892   6.599  10.457   5.150  0.2896  0.6647 -0.8498
  704MOL0     H92893   6.387  10.376   5.175 -1.8841  0.3331  0.1233
  704MOL0     H92894   6.184  10.442   5.194  0.9624  0.3618 -0.8951
  704MOL0     H92895   6.167  10.269   5.161  0.7526  1.2476  1.5963
  704MOL0     H92896   5.960  10.345   5.242  2.4438 -0.0893  1.1970
  704MOL0     H92897   5.928  10.334   5.071 -0.5865 -0.0328  0.4881
  704MOL0     H92898   5.989  10.591   5.065  0.6460  0.1696  0.4761
  704MOL0     H92899   5.997  10.584   5.242 -6.5214  2.7163  1.8583
  704MOL0     H92900   5.761  10.505   5.077  0.7049  0.6970 -0.2640
  704MOL0     H92901   5.791  10.478   5.254  3.3541 -1.9734 -0.0506
  704MOL0     H92902   5.781  10.736   5.086 -2.2431 -0.6926  0.0747
  704MOL0     H92903   5.829  10.732   5.257 -0.1870 -2.1487  1.1274
  704MOL0     H92904   5.599  10.654   5.317 -3.4561  2.2578 -0.6314
  704MOL0     H92905   5.564  10.621   5.145 -0.0007  0.0968 -0.8702
  704MOL0     H92906   5.626  10.886   5.251  1.8466 -1.9659  0.4809
  704MOL0     H92907   5.589  10.859   5.085 -0.2511  1.7873  0.5646
  704MOL0     H92908   5.377  10.791   5.289 -0.7329  0.9364 -0.5155
  704MOL0     H92909   5.352  10.828   5.113  1.1871 -0.6722 -1.3437
  704MOL0     H92910   6.276  10.469   4.775  1.1642  3.3834 -1.0674
  704MOL0     H92911   6.521  10.518   4.722 -0.8028 -0.1707 -0.4098
  704MOL0     H92912   6.962  10.562   4.961 -0.9727  0.3415 -0.5251
  704MOL0     H92913   7.209  10.582   4.922  0.2083  2.0442 -3.1747
  704MOL0     H92914   6.829  10.836   4.263 -0.6881  1.8691  0.1227
  704MOL0     H92915   6.618  10.728   4.318  0.1640 -0.6672  0.3926
  704MOL0     H92916   6.256  10.481   4.195  2.1669  2.4411  1.2489
  704MOL0     H92917   6.024  10.384   4.199  1.1577 -0.0010  0.8208
  704MOL0     H92918   5.714  10.697   4.197 -1.4206  0.9295 -1.3417
  704MOL0     H92919   5.634  10.553   4.259 -0.2750 -1.5635  0.2147
  704MOL0     H92920   5.647  10.638   3.977  3.0538 -0.1869  2.5178
  704MOL0     H92921   5.559  10.484   4.031  0.2852 -0.5220 -0.2876
  704MOL0     H92922   5.487  10.774   4.061  1.9823  0.8794  0.9178
  704MOL0     H92923   5.445  10.672   4.200 -1.2722 -0.9994 -1.3241
  704MOL0     H92924   5.317  10.522   4.085  0.1338  0.4195 -1.0998
  704MOL0     H92925   5.260  10.687   4.053  0.2306  0.5371 -1.7481
  704MOL0     H92926   5.400  10.584   3.652  0.9127 -0.4800  1.2756
  704MOL0     H92927   5.871  10.769   4.086 -1.3731 -1.2822  0.5683
  704MOL0     H92928   6.093  10.864   4.086 -1.3947 -0.2306  0.5143
  705MOL0     O92929   3.153   0.998   6.950 -0.5611  0.3478 -0.1768
  705MOL0     C92930   3.195   0.953   7.057 -0.4808  0.6836 -0.3624
  705MOL0     O92931   3.132   0.963   7.179 -0.5613 -0.8472  0.2939
  705MOL0     C92932   3.006   1.020   7.200  1.3854 -0.0797  0.3305
  705MOL0     C92933   2.960   1.132   7.132 -1.0374  0.2716 -0.0909
  705MOL0     C92934   2.832   1.184   7.148  0.0425  1.1124  0.4501
  705MOL0     C92935   2.743   1.119   7.239 -0.1238 -1.2532 -0.0943
  705MOL0     O92936   2.620   1.174   7.262  0.6854  0.6832 -0.0624
  705MOL0     C92937   2.576   1.179   7.398 -0.3316 -0.2640  0.2046
  705MOL0     C92938   2.592   1.322   7.446  0.8409  0.4594 -0.3682
  705MOL0     C92939   2.499   1.431   7.390  0.5487  0.2048 -0.4881
  705MOL0     C92940   2.347   1.407   7.436  0.1782  0.7741  0.0513
  705MOL0     C92941   2.266   1.542   7.416 -0.3543  1.4389  0.2181
  705MOL0     C92942   2.122   1.534   7.431 -0.8173  0.2462 -0.7205
  705MOL0     C92943   2.022   1.610   7.350 -0.4764  0.3984 -0.0669
  705MOL0     C92944   2.033   1.756   7.386  0.3512  0.4822  0.1999
  705MOL0     N92945   1.913   1.821   7.322 -0.9331 -0.8422  0.2265
  705MOL0     C92946   1.804   1.865   7.387  0.6153 -0.1083 -0.8062
  705MOL0     C92947   1.718   1.913   7.300  0.5504  0.4225  0.8290
  705MOL0     C92948   1.593   1.984   7.322  0.7444  0.4825 -0.7246
  705MOL0     C92949   1.479   1.918   7.247 -0.6751 -0.8858 -0.7538
  705MOL0     C92950   1.407   1.801   7.314  0.3903  0.5509  0.0084
  705MOL0     C92951   1.284   1.743   7.243 -0.7702  0.7075  0.0486
  705MOL0     O92952   1.197   1.851   7.205 -0.7404  0.0362  0.0113
  705MOL0     C92953   1.059   1.832   7.193 -0.3940  0.0387 -0.0244
  705MOL0     C92954   0.981   1.951   7.164  0.8066 -0.0386  0.8705
  705MOL0     C92955   0.840   1.949   7.158 -0.2288 -0.3448 -0.1436
  705MOL0     C92956   0.775   1.829   7.158 -0.1931 -0.1429  0.3457
  705MOL0     C92957   0.624   1.821   7.168  0.1639  0.4835  0.2868
  705MOL0     O92958   0.563   1.933   7.118  0.0805  0.3361  0.1114
  705MOL0     C92959   0.431   1.963   7.149  0.4161  0.2509 -0.2045
  705MOL0     C92960   0.366   2.056   7.066 -0.3084  0.1020 -0.6201
  705MOL0     C92961   0.236   2.099   7.099  0.2487  1.4699 -0.3633
  705MOL0     C92962   0.167   2.046   7.209 -0.3170 -1.3962 -0.1552
  705MOL0     O92963   0.036   2.094   7.225  0.3214  0.6511 -0.2649
  705MOL0     C92964  -0.013   2.071   7.356 -0.4684  0.9379  0.0944
  705MOL0     C92965  -0.148   2.132   7.376  0.7705  0.3317  0.4846
  705MOL0     C92966  -0.150   2.279   7.425  0.2095 -0.4307  0.0270
  705MOL0     C92967  -0.084   2.368   7.315  0.4163 -0.8014 -1.4414
  705MOL0     C92968  -0.100   2.521   7.343  0.7976  0.0912 -0.2848
  705MOL0     C92969   0.002   2.575   7.446 -0.5218 -0.4411  0.7887
  705MOL0     C92970   0.013   2.730   7.448 -1.4295  0.6239 -0.4786
  705MOL0     C92971  -0.124   2.787   7.498 -0.3242 -0.9239  0.4001
  705MOL0    Cl92972  -0.231   2.831   7.358 -0.1498  0.1568  0.3908
  705MOL0     C92973   0.234   1.965   7.297 -0.2007 -0.2692 -0.7619
  705MOL0     C92974   0.363   1.921   7.272  0.2392  0.2027  0.5326
  705MOL0     O92975   0.576   1.721   7.207 -0.3071  0.0377 -0.0250
  705MOL0     C92976   0.847   1.706   7.188  0.2137 -0.2276  0.5416
  705MOL0     C92977   0.990   1.713   7.208  0.6911  0.2267 -0.0474
  705MOL0     N92978   1.785   1.902   7.174 -0.4948  0.7258  0.3529
  705MOL0     N92979   1.909   1.862   7.192  0.0161  0.1784  0.4312
  705MOL0     C92980   2.783   0.996   7.294 -0.0480 -0.3400 -1.4928
  705MOL0     C92981   2.914   0.946   7.273  0.0182  0.1204 -0.6257
  705MOL0     C92982   3.321   0.865   7.042 -0.6059 -1.0158 -0.0307
  705MOL0     C92983   3.350   0.751   7.116  0.4236  0.0400  0.2569
  705MOL0     C92984   3.462   0.678   7.096  0.3317 -0.1656  0.4434
  705MOL0     C92985   3.558   0.724   7.012  0.2920 -0.3782 -0.2398
  705MOL0     O92986   3.666   0.645   6.981 -1.4932  0.1400 -0.2149
  705MOL0     C92987   3.768   0.668   6.886  0.1379  0.0187  0.8419
  705MOL0     C92988   3.832   0.534   6.864 -0.0228  0.1916 -0.9889
  705MOL0     C92989   3.925   0.494   6.977 -0.0996 -0.3246  0.6991
  705MOL0     C92990   4.004   0.369   6.944 -0.5194  0.3211  0.1312
  705MOL0     C92991   4.094   0.367   6.831  0.5061  0.2098 -0.8016
  705MOL0     C92992   4.176   0.359   6.742 -0.7355  1.6268 -0.7888
  705MOL0     C92993   3.544   0.847   6.947 -0.2819 -0.2652 -0.1287
  705MOL0     C92994   3.424   0.916   6.955  0.1216  0.8146  0.4964
  705MOL0     H92995   3.040   1.180   7.077  1.7768 -1.4493  2.2769
  705MOL0     H92996   2.795   1.269   7.092 -0.1675  1.3996  1.0185
  705MOL0     H92997   2.627   1.108   7.463 -1.5962 -1.7558 -0.3565
  705MOL0     H92998   2.471   1.146   7.397 -0.2782 -0.7696 -3.3816
  705MOL0     H92999   2.699   1.346   7.440  0.4452  3.1305  1.5020
  705MOL0     H93000   2.563   1.308   7.551 -0.4421  1.5821 -0.5426
  705MOL0     H93001   2.516   1.432   7.282 -0.4477 -0.4242 -0.6660
  705MOL0     H93002   2.528   1.524   7.439  0.9580 -0.7998  1.2618
  705MOL0     H93003   2.301   1.330   7.374  1.0990 -0.9894  1.4805
  705MOL0     H93004   2.356   1.369   7.538 -1.2731  1.5043  0.4855
  705MOL0     H93005   2.295   1.582   7.319 -3.5631  0.5373 -1.2459
  705MOL0     H93006   2.291   1.622   7.487 -1.6697  2.0142  0.0649
  705MOL0     H93007   2.094   1.537   7.537 -0.3439  0.7036 -0.6028
  705MOL0     H93008   2.095   1.434   7.399  3.6290 -1.5223  0.2162
  705MOL0     H93009   2.038   1.603   7.242  0.5442 -0.8550  0.1442
  705MOL0     H93010   1.922   1.573   7.371 -0.0900 -0.3278  0.5131
  705MOL0     H93011   2.121   1.811   7.350 -0.5262  0.1802 -2.6864
  705MOL0     H93012   2.022   1.767   7.494 -0.0659  2.5994 -0.0095
  705MOL0     H93013   1.807   1.863   7.495  2.5846 -2.6708 -0.7893
  705MOL0     H93014   1.612   2.084   7.283  1.4865  0.6525  0.0283
  705MOL0     H93015   1.571   1.998   7.429  0.6698  0.3057 -0.7161
  705MOL0     H93016   1.514   1.880   7.150  0.8718 -1.5012  0.0143
  705MOL0     H93017   1.408   1.999   7.227  1.0625  0.8062 -0.3654
  705MOL0     H93018   1.474   1.715   7.325  0.7677  1.0329  2.0277
  705MOL0     H93019   1.375   1.840   7.412 -0.2388  0.5118 -0.1744
  705MOL0     H93020   1.226   1.673   7.305  0.3991 -1.0776 -0.7855
  705MOL0     H93021   1.320   1.676   7.164  1.8743 -2.4579  3.5965
  705MOL0     H93022   1.029   2.047   7.145 -0.2893  0.0511 -1.8874
  705MOL0     H93023   0.797   2.048   7.149  2.2646  0.8591  0.3172
  705MOL0     H93024   0.419   2.114   6.992  2.5050  0.2656  1.3690
  705MOL0     H93025   0.180   2.168   7.036 -1.4685 -0.0457 -0.5764
  705MOL0     H93026   0.045   2.114   7.438 -0.8339 -0.4781  1.1325
  705MOL0     H93027  -0.008   1.965   7.383 -1.2065  1.0427  0.6827
  705MOL0     H93028  -0.199   2.081   7.458  3.0123  0.1454  1.8355
  705MOL0     H93029  -0.211   2.115   7.288 -0.3107  0.4898  1.2158
  705MOL0     H93030  -0.092   2.283   7.517  0.4672 -1.7937 -0.0575
  705MOL0     H93031  -0.251   2.317   7.445  1.3254  2.7838  0.0976
  705MOL0     H93032   0.022   2.347   7.298  1.2109  0.9956  0.8710
  705MOL0     H93033  -0.140   2.353   7.222 -1.9603  4.1933 -1.1539
  705MOL0     H93034  -0.202   2.539   7.379  0.1621  0.1114 -1.9863
  705MOL0     H93035  -0.091   2.573   7.247  2.0283  1.1982  0.4028
  705MOL0     H93036   0.099   2.529   7.426  0.0078  1.4916 -1.4315
  705MOL0     H93037  -0.037   2.532   7.539 -0.4581 -0.3282  0.8667
  705MOL0     H93038   0.090   2.754   7.522 -3.1999 -1.7265  2.3501
  705MOL0     H93039   0.043   2.772   7.352 -0.0851  1.8397  0.4410
  705MOL0     H93040  -0.096   2.874   7.559 -2.9415 -0.1956  0.7352
  705MOL0     H93041  -0.163   2.711   7.567  1.9627 -2.8589 -0.3443
  705MOL0     H93042   0.199   1.938   7.396  2.2073  0.0556  0.2476
  705MOL0     H93043   0.399   1.852   7.348  1.3271  2.1281  1.8686
  705MOL0     H93044   0.806   1.607   7.202 -3.8761  1.2168  0.3189
  705MOL0     H93045   1.036   1.616   7.227  0.7957 -0.1205 -1.8592
  705MOL0     H93046   2.713   0.932   7.347 -0.1454 -0.6625 -2.0088
  705MOL0     H93047   2.945   0.850   7.313  3.6020  0.4162 -2.2884
  705MOL0     H93048   3.281   0.712   7.190  1.8115  0.3825  1.8055
  705MOL0     H93049   3.480   0.588   7.156  2.9110  0.4266  0.6812
  705MOL0     H93050   3.844   0.743   6.909 -0.0279  1.8969 -3.6679
  705MOL0     H93051   3.720   0.700   6.793  0.7272  0.2429  0.6120
  705MOL0     H93052   3.760   0.454   6.846  1.4301 -1.0737 -1.3871
  705MOL0     H93053   3.897   0.544   6.777  1.0956  0.3495 -0.1545
  705MOL0     H93054   3.869   0.477   7.069 -2.6127  0.9513 -0.5122
  705MOL0     H93055   4.001   0.572   6.991  0.7076 -0.9473 -0.0410
  705MOL0     H93056   4.064   0.350   7.034 -2.1232 -3.3272  0.6278
  705MOL0     H93057   3.934   0.288   6.924  1.1194 -0.8892 -0.9890
  705MOL0     H93058   4.241   0.345   6.657  0.0967  1.3049 -0.1191
  705MOL0     H93059   3.619   0.892   6.883 -0.2916  0.8686  0.6427
  705MOL0     H93060   3.416   1.009   6.901 -1.7671  1.3197  1.5387
  706MOL0     O93061   2.907   3.880   0.279 -0.1439 -0.2000 -1.0377
  706MOL0     C93062   2.999   3.850   0.202 -0.1821  0.0744  0.1476
  706MOL0     O93063   3.014   3.906   0.083  0.8258 -0.4863  0.6057
  706MOL0     C93064   2.921   4.009   0.042  0.5453  0.5325 -0.4568
  706MOL0     C93065   2.976   4.140   0.041 -0.1902 -0.0465 -0.8722
  706MOL0     C93066   2.904   4.242  -0.012 -0.1887 -0.0355 -0.3072
  706MOL0     C93067   2.771   4.226  -0.054  0.2100 -0.2722 -0.7426
  706MOL0     O93068   2.702   4.342  -0.093  0.4958  0.2953  0.5850
  706MOL0     C93069   2.767   4.445  -0.164  0.3858 -0.4959  0.2101
  706MOL0     C93070   2.666   4.531  -0.249 -0.6409  0.4654 -0.0446
  706MOL0     C93071   2.729   4.635  -0.343  1.0214 -0.1271  0.5631
  706MOL0     C93072   2.621   4.688  -0.443 -0.2438 -0.2089  1.1876
  706MOL0     C93073   2.680   4.784  -0.547 -0.1773  0.6282 -0.4098
  706MOL0     C93074   2.604   4.792  -0.677  0.3220  0.4691 -0.3474
  706MOL0     C93075   2.472   4.869  -0.686  0.2209  0.3723 -1.6327
  706MOL0     C93076   2.482   5.012  -0.654  0.0224  0.3703  0.1670
  706MOL0     N93077   2.364   5.088  -0.702 -0.2927 -0.3103  0.6935
  706MOL0     C93078   2.368   5.158  -0.824  0.4204  0.6371  0.9891
  706MOL0     C93079   2.233   5.182  -0.852 -0.3574  0.4597  0.2040
  706MOL0     C93080   2.176   5.223  -0.988  0.3081  0.0555 -0.4141
  706MOL0     C93081   2.071   5.328  -0.981 -0.5629 -0.6121  0.3552
  706MOL0     C93082   2.005   5.360  -1.113 -1.2082 -0.3021  0.3459
  706MOL0     C93083   2.085   5.438  -1.219 -0.7420 -0.8614 -0.8979
  706MOL0     O93084   2.193   5.361  -1.250  0.1829  0.8485  0.7293
  706MOL0     C93085   2.301   5.427  -1.295  0.1792 -0.7222  0.5595
  706MOL0     C93086   2.413   5.344  -1.297  0.2867  0.4750  0.0129
  706MOL0     C93087   2.535   5.396  -1.330 -0.2764  0.3942  0.1896
  706MOL0     C93088   2.548   5.536  -1.367 -0.0749  1.0330  0.1865
  706MOL0     C93089   2.681   5.595  -1.398 -0.9620 -0.2019  0.2942
  706MOL0     O93090   2.781   5.507  -1.409 -0.4617  0.0443  0.1770
  706MOL0     C93091   2.901   5.532  -1.449 -0.2034  0.3451  0.5304
  706MOL0     C93092   2.977   5.419  -1.489  0.1620 -0.2831  0.5932
  706MOL0     C93093   3.108   5.427  -1.546  0.0186 -0.1011 -0.8893
  706MOL0     C93094   3.177   5.550  -1.549  0.0921 -0.1836  0.2476
  706MOL0     O93095   3.307   5.563  -1.593 -0.1016  0.2627 -0.6052
  706MOL0     C93096   3.327   5.533  -1.731 -0.7242 -0.0140  1.4066
  706MOL0     C93097   3.450   5.608  -1.788  0.0538  0.3380  0.0163
  706MOL0     C93098   3.575   5.520  -1.792 -0.1857 -0.3574 -0.2121
  706MOL0     C93099   3.705   5.608  -1.820 -0.3366  0.1978 -0.2178
  706MOL0     C93100   3.834   5.532  -1.833 -0.0720 -0.3107 -0.1933
  706MOL0     C93101   3.944   5.614  -1.897  0.3682 -0.1804  0.0074
  706MOL0     C93102   4.079   5.531  -1.898  0.0695  0.8327  0.7752
  706MOL0     C93103   4.188   5.614  -1.961  0.4668 -0.7722 -0.0154
  706MOL0    Cl93104   4.347   5.547  -1.964 -0.3932 -0.2080  0.5574
  706MOL0     C93105   3.103   5.658  -1.516  0.2694 -0.1672 -0.4328
  706MOL0     C93106   2.972   5.655  -1.463  0.0257 -0.2951 -0.2008
  706MOL0     O93107   2.684   5.717  -1.421 -0.9918  0.0171 -0.4160
  706MOL0     C93108   2.426   5.615  -1.367  0.5278  0.2022  0.0915
  706MOL0     C93109   2.304   5.552  -1.348 -0.3093 -0.0816 -0.2316
  706MOL0     N93110   2.159   5.145  -0.742  0.3347  0.1919  0.4925
  706MOL0     N93111   2.236   5.094  -0.652  0.1666  0.2990  0.0083
  706MOL0     C93112   2.713   4.100  -0.039 -0.2737 -0.0560  0.8707
  706MOL0     C93113   2.788   3.992   0.010 -0.7145  0.6218  0.7079
  706MOL0     C93114   3.104   3.755   0.244  0.9002  0.3881  0.5100
  706MOL0     C93115   3.085   3.662   0.340 -0.6022  0.1217  0.7822
  706MOL0     C93116   3.183   3.570   0.381  0.8393  0.9186  0.2898
  706MOL0     C93117   3.299   3.568   0.302  0.4073  0.7414 -0.6041
  706MOL0     O93118   3.396   3.482   0.348  0.4187 -0.0303 -0.5658
  706MOL0     C93119   3.533   3.492   0.294 -0.0969 -0.1196  0.3238
  706MOL0     C93120   3.611   3.604   0.371 -0.0688  0.9015 -0.3147
  706MOL0     C93121   3.766   3.570   0.361  0.2853 -0.0567  0.8221
  706MOL0     C93122   3.815   3.456   0.444 -0.1284 -0.5550  1.0121
  706MOL0     C93123   3.888   3.354   0.364 -0.5884  0.8639  0.1357
  706MOL0     C93124   3.957   3.281   0.300  0.2042  0.4237 -0.6724
  706MOL0     C93125   3.332   3.663   0.208  0.6155 -1.1615 -0.5451
  706MOL0     C93126   3.229   3.755   0.181  0.2639  0.0573  0.3440
  706MOL0     H93127   3.073   4.169   0.080 -0.7778  2.0533 -0.8173
  706MOL0     H93128   2.938   4.345  -0.018 -0.7991  0.2899  1.2892
  706MOL0     H93129   2.835   4.388  -0.227  3.1794  1.0931  1.5946
  706MOL0     H93130   2.829   4.516  -0.108 -0.5876  1.3941 -0.9962
  706MOL0     H93131   2.606   4.577  -0.170 -1.0041 -0.1597  0.0489
  706MOL0     H93132   2.595   4.472  -0.308 -0.8505  2.0440 -1.4469
  706MOL0     H93133   2.806   4.596  -0.410 -1.0282 -1.0433 -1.3813
  706MOL0     H93134   2.762   4.716  -0.277 -2.4688  0.6734  1.5629
  706MOL0     H93135   2.574   4.600  -0.489  1.2321 -0.5689  0.3027
  706MOL0     H93136   2.537   4.742  -0.398  0.0809  0.7701  0.6641
  706MOL0     H93137   2.780   4.753  -0.579  0.4336  0.8021  1.2475
  706MOL0     H93138   2.703   4.881  -0.502  1.5603  0.5787 -1.1187
  706MOL0     H93139   2.585   4.689  -0.708  0.0037  0.2420  0.5786
  706MOL0     H93140   2.673   4.845  -0.743 -0.2484  2.0003  0.2260
  706MOL0     H93141   2.438   4.860  -0.790 -0.8755  2.3604 -1.5010
  706MOL0     H93142   2.400   4.825  -0.616  0.2350  1.4031 -0.9502
  706MOL0     H93143   2.571   5.045  -0.709  1.3945 -1.3119  1.2693
  706MOL0     H93144   2.502   5.021  -0.547  1.5290 -1.6713  0.1102
  706MOL0     H93145   2.449   5.186  -0.890 -1.1348 -0.9917 -1.8052
  706MOL0     H93146   2.145   5.127  -1.028  2.4028 -2.1521  2.8054
  706MOL0     H93147   2.262   5.267  -1.039 -0.2136  1.6562 -0.0028
  706MOL0     H93148   2.118   5.416  -0.936  1.6886 -0.8909 -1.3028
  706MOL0     H93149   1.994   5.279  -0.919 -1.7501 -0.6706 -1.1116
  706MOL0     H93150   1.961   5.270  -1.158 -0.6084  0.7648 -2.5940
  706MOL0     H93151   1.914   5.419  -1.095 -2.6066 -1.6928 -1.6937
  706MOL0     H93152   2.117   5.534  -1.178  0.8497 -1.4772 -0.6030
  706MOL0     H93153   2.028   5.470  -1.306 -0.2607  0.4479 -0.7430
  706MOL0     H93154   2.397   5.240  -1.271 -0.7036  0.9316  1.3422
  706MOL0     H93155   2.626   5.337  -1.319 -0.0497  0.6574 -0.2489
  706MOL0     H93156   2.942   5.318  -1.476 -0.3755 -0.3645 -1.1894
  706MOL0     H93157   3.154   5.332  -1.570 -1.2619 -1.6249  2.1370
  706MOL0     H93158   3.244   5.559  -1.798  0.4844  1.6477  0.4840
  706MOL0     H93159   3.341   5.424  -1.728 -4.8561 -0.7688  0.1207
  706MOL0     H93160   3.473   5.691  -1.721 -0.7068  1.3330 -0.9045
  706MOL0     H93161   3.426   5.645  -1.888 -1.5666  0.2206  0.3380
  706MOL0     H93162   3.562   5.441  -1.867 -0.5850  0.0562 -0.5798
  706MOL0     H93163   3.596   5.474  -1.695  2.9350  0.8923 -0.1729
  706MOL0     H93164   3.680   5.670  -1.907  0.8677  1.7762  0.5096
  706MOL0     H93165   3.721   5.691  -1.751 -0.0796  1.4864 -1.7782
  706MOL0     H93166   3.828   5.440  -1.893  2.6636 -0.2681 -0.6409
  706MOL0     H93167   3.869   5.498  -1.735 -1.1708  1.5374  0.8845
  706MOL0     H93168   3.956   5.705  -1.838  0.1804 -1.3447  1.9264
  706MOL0     H93169   3.918   5.631  -2.002  0.3230  0.6100  0.1422
  706MOL0     H93170   4.116   5.512  -1.796 -0.4535  0.8032  0.9621
  706MOL0     H93171   4.070   5.433  -1.945  1.6088  0.3023  1.5172
  706MOL0     H93172   4.180   5.716  -1.921 -2.6504 -0.5421 -0.9140
  706MOL0     H93173   4.154   5.631  -2.063 -1.1035 -0.5432  0.5045
  706MOL0     H93174   3.153   5.751  -1.540  1.9856 -0.5901  1.2327
  706MOL0     H93175   2.923   5.749  -1.440 -1.5217 -0.1303 -3.5092
  706MOL0     H93176   2.428   5.717  -1.406 -2.1818 -0.4390 -1.9943
  706MOL0     H93177   2.220   5.618  -1.363 -0.1881 -0.0318 -0.7105
  706MOL0     H93178   2.610   4.087  -0.070 -0.2212  2.8007 -0.8245
  706MOL0     H93179   2.735   3.898   0.015 -0.4719  0.2627 -1.8212
  706MOL0     H93180   2.989   3.659   0.390 -0.3822 -1.4623  1.1859
  706MOL0     H93181   3.165   3.492   0.454  1.0602  0.1012 -0.5065
  706MOL0     H93182   3.562   3.502   0.189  1.0527 -4.1713  0.0707
  706MOL0     H93183   3.572   3.395   0.328 -0.4963 -1.5082 -2.8767
  706MOL0     H93184   3.589   3.700   0.323  3.3139  0.3520 -3.4642
  706MOL0     H93185   3.580   3.606   0.475 -1.2896 -0.4058 -0.6152
  706MOL0     H93186   3.811   3.664   0.395 -0.7170  0.0676  1.8669
  706MOL0     H93187   3.805   3.554   0.260  5.5370  0.4939  2.4458
  706MOL0     H93188   3.882   3.493   0.522  2.2845 -0.7375 -0.8611
  706MOL0     H93189   3.731   3.406   0.494 -1.5707  1.5381  0.8083
  706MOL0     H93190   4.022   3.215   0.246  2.6358  2.0160  0.1682
  706MOL0     H93191   3.430   3.658   0.163  0.8052 -2.2400 -0.0454
  706MOL0     H93192   3.250   3.839   0.116  0.9027  0.7124  1.3563
  707MOL0     O93193   0.128   6.157   0.271 -0.4331  0.1968 -0.5795
  707MOL0     C93194   0.142   6.248   0.355 -0.8131  0.0323  0.2227
  707MOL0     O93195   0.049   6.341   0.401  0.3489 -0.4703 -0.7406
  707MOL0     C93196  -0.085   6.310   0.388  0.0555  0.4344 -0.4545
  707MOL0     C93197  -0.145   6.185   0.410 -0.3066  0.2744 -0.0771
  707MOL0     C93198  -0.291   6.165   0.383 -1.1619  0.2508 -0.4471
  707MOL0     C93199  -0.371   6.275   0.348 -0.0542  0.0929 -0.1772
  707MOL0     O93200  -0.503   6.255   0.303  0.1049 -0.1006 -0.1682
  707MOL0     C93201  -0.596   6.360   0.281  0.2421  0.3328 -0.6696
  707MOL0     C93202  -0.730   6.280   0.301  0.8628 -0.4104 -0.6356
  707MOL0     C93203  -0.833   6.383   0.265 -0.0579  0.3281  0.4007
  707MOL0     C93204  -0.968   6.309   0.281  0.2116 -0.3956 -1.2085
  707MOL0     C93205  -1.083   6.398   0.238 -0.5296  0.1542  0.5034
  707MOL0     C93206  -1.086   6.392   0.083 -0.0540  0.2707 -0.5038
  707MOL0     C93207  -1.218   6.459   0.044 -0.3432  0.4788 -0.1629
  707MOL0     C93208  -1.232   6.441  -0.103  0.9255  0.8664 -0.1391
  707MOL0     N93209  -1.360   6.505  -0.143  0.1061  0.3777 -0.0924
  707MOL0     C93210  -1.385   6.642  -0.178 -0.0557  0.4656 -0.0762
  707MOL0     C93211  -1.518   6.649  -0.213  0.1490 -0.3531 -0.6410
  707MOL0     C93212  -1.595   6.774  -0.267 -0.2274 -0.1875 -1.3010
  707MOL0     C93213  -1.667   6.751  -0.399 -0.0060  0.4766  0.4874
  707MOL0     C93214  -1.725   6.866  -0.471 -0.4784 -1.4949  0.7998
  707MOL0     C93215  -1.615   6.970  -0.516  0.4476 -0.7475  0.2663
  707MOL0     O93216  -1.683   7.081  -0.583 -0.4652  0.2338  0.0534
  707MOL0     C93217  -1.604   7.171  -0.649 -0.1111 -0.2407  0.5670
  707MOL0     C93218  -1.464   7.176  -0.658 -0.1551 -0.8059 -0.5175
  707MOL0     C93219  -1.397   7.265  -0.743 -0.2392 -0.3209  0.9463
  707MOL0     C93220  -1.466   7.356  -0.823 -0.2596  0.3999  0.0987
  707MOL0     C93221  -1.408   7.444  -0.917  0.5465 -0.1702 -1.0772
  707MOL0     O93222  -1.472   7.558  -0.958  0.0629 -0.4792 -0.8796
  707MOL0     C93223  -1.401   7.634  -1.049 -0.1956  0.2452  0.2328
  707MOL0     C93224  -1.391   7.592  -1.181  0.4938 -0.7961  0.0498
  707MOL0     C93225  -1.338   7.665  -1.283  0.0782  0.0683 -0.3884
  707MOL0     C93226  -1.276   7.786  -1.252  0.7866  0.1165 -0.3330
  707MOL0     O93227  -1.223   7.861  -1.351  0.3407  0.1156  0.3728
  707MOL0     C93228  -1.230   8.004  -1.339  0.0340  0.0024 -0.4868
  707MOL0     C93229  -1.203   8.089  -1.467 -0.1823  0.3955  0.8392
  707MOL0     C93230  -1.085   8.036  -1.549 -0.0418  0.2049 -0.0504
  707MOL0     C93231  -1.082   8.116  -1.679 -0.1333  0.2970  0.4724
  707MOL0     C93232  -0.978   8.060  -1.789  0.5161 -0.5768 -0.2113
  707MOL0     C93233  -0.973   8.161  -1.897  0.1546 -0.4246  0.0313
  707MOL0     C93234  -0.885   8.283  -1.874 -0.0968 -0.5601 -0.3640
  707MOL0     C93235  -0.945   8.406  -1.937 -0.2069  0.5494 -0.4948
  707MOL0    Cl93236  -1.096   8.465  -1.849 -0.4674  0.2443 -0.2063
  707MOL0     C93237  -1.270   7.825  -1.112  0.0300  0.4019  0.4393
  707MOL0     C93238  -1.333   7.744  -1.013 -0.2417 -0.7673  0.4469
  707MOL0     O93239  -1.295   7.415  -0.939 -0.9783  0.4379  0.5960
  707MOL0     C93240  -1.605   7.362  -0.802  0.0586 -0.5513  0.3196
  707MOL0     C93241  -1.674   7.281  -0.711 -0.9083  0.9935 -0.3003
  707MOL0     N93242  -1.570   6.524  -0.191  1.2889  0.1503  0.7445
  707MOL0     N93243  -1.478   6.438  -0.159  0.0336  0.2343  0.6168
  707MOL0     C93244  -0.301   6.398   0.339 -0.0754  0.6491  0.0873
  707MOL0     C93245  -0.162   6.418   0.358  0.2745  0.0284 -0.8711
  707MOL0     C93246   0.276   6.277   0.406 -0.2659  0.4288  0.7685
  707MOL0     C93247   0.382   6.196   0.359  0.0517 -0.1703 -0.1300
  707MOL0     C93248   0.513   6.228   0.407  0.4761  0.5197 -0.0093
  707MOL0     C93249   0.541   6.339   0.482 -1.2019  0.1508 -0.0769
  707MOL0     O93250   0.663   6.379   0.515  0.0118  0.6743  0.3160
  707MOL0     C93251   0.782   6.299   0.473 -0.4632  0.9289 -0.6513
  707MOL0     C93252   0.904   6.354   0.545 -0.3879 -0.6035 -0.2250
  707MOL0     C93253   1.041   6.282   0.518  0.1208 -0.0471 -0.2985
  707MOL0     C93254   1.147   6.353   0.605  0.2800 -0.2554  0.7420
  707MOL0     C93255   1.201   6.479   0.544  0.2453 -0.6584  0.0353
  707MOL0     C93256   1.241   6.581   0.495 -0.3647  0.3976 -0.6961
  707MOL0     C93257   0.430   6.417   0.524 -0.4521  0.1723 -0.2696
  707MOL0     C93258   0.302   6.381   0.493  0.2316 -0.3714  0.4158
  707MOL0     H93259  -0.082   6.106   0.449 -0.7117 -1.0389 -1.9389
  707MOL0     H93260  -0.335   6.066   0.391  1.3575 -0.9516 -0.4360
  707MOL0     H93261  -0.569   6.404   0.185  2.0791  0.7798  0.0136
  707MOL0     H93262  -0.590   6.433   0.362  1.5617 -3.4723  3.0210
  707MOL0     H93263  -0.744   6.253   0.406 -1.2942  3.7853  0.3763
  707MOL0     H93264  -0.743   6.199   0.229  0.1086 -0.1072 -0.8512
  707MOL0     H93265  -0.814   6.426   0.166  3.5674 -1.4202  0.1621
  707MOL0     H93266  -0.834   6.467   0.335  1.0065  1.4180 -0.8233
  707MOL0     H93267  -0.971   6.210   0.234 -0.0413  1.4330 -5.5439
  707MOL0     H93268  -0.973   6.288   0.388 -1.9591 -1.2663 -1.4347
  707MOL0     H93269  -1.055   6.497   0.275  0.7462 -0.4862  1.3375
  707MOL0     H93270  -1.163   6.345   0.291  0.6346 -1.3019  0.9108
  707MOL0     H93271  -1.081   6.291   0.041 -2.5281  0.4261 -1.3408
  707MOL0     H93272  -1.006   6.456   0.045 -0.7515  1.4041 -0.1248
  707MOL0     H93273  -1.302   6.412   0.098  0.6711  0.1329  1.1656
  707MOL0     H93274  -1.222   6.565   0.070 -0.4905  0.1752  1.1512
  707MOL0     H93275  -1.235   6.333  -0.121 -4.4029  0.6386  0.5922
  707MOL0     H93276  -1.147   6.480  -0.161  0.2796 -0.9539 -2.4849
  707MOL0     H93277  -1.298   6.705  -0.193  0.4651 -0.5106 -1.3028
  707MOL0     H93278  -1.521   6.855  -0.275 -1.1734  0.6404 -1.8457
  707MOL0     H93279  -1.667   6.799  -0.188  1.5075  0.5706  0.1287
  707MOL0     H93280  -1.744   6.674  -0.390  1.0979 -1.3012 -3.2918
  707MOL0     H93281  -1.583   6.708  -0.454  0.2193 -1.4287  2.1873
  707MOL0     H93282  -1.784   6.823  -0.552  0.5864 -1.9799  0.2532
  707MOL0     H93283  -1.795   6.920  -0.407  2.7810  1.9354  1.8190
  707MOL0     H93284  -1.545   6.928  -0.589 -0.3406 -1.9284  0.1770
  707MOL0     H93285  -1.563   7.022  -0.435  0.7508  1.6666 -1.3767
  707MOL0     H93286  -1.396   7.106  -0.612  2.7348  3.1841  1.9872
  707MOL0     H93287  -1.290   7.266  -0.761 -0.6067  0.6418 -1.5670
  707MOL0     H93288  -1.430   7.497  -1.216  2.2170 -0.6434 -2.5902
  707MOL0     H93289  -1.322   7.615  -1.378  0.6660 -0.6885  0.0937
  707MOL0     H93290  -1.160   8.052  -1.270  1.4200 -0.8325 -1.2616
  707MOL0     H93291  -1.329   8.029  -1.301 -0.1099  0.6313 -1.2336
  707MOL0     H93292  -1.191   8.195  -1.442 -1.0141  0.2632  1.8589
  707MOL0     H93293  -1.295   8.079  -1.525 -0.3715  1.2969  0.9600
  707MOL0     H93294  -1.095   7.928  -1.565 -0.0231  0.3461 -1.1133
  707MOL0     H93295  -0.996   8.053  -1.487 -0.2692  3.6567 -0.4891
  707MOL0     H93296  -1.182   8.108  -1.722  1.1171  2.6389 -3.3448
  707MOL0     H93297  -1.060   8.222  -1.660 -0.0134  0.4970 -0.7548
  707MOL0     H93298  -1.018   7.965  -1.826 -2.9912  0.8846 -0.5290
  707MOL0     H93299  -0.876   8.049  -1.749  0.9389  0.8791 -0.8264
  707MOL0     H93300  -1.076   8.191  -1.919  0.2902  0.4893  0.6362
  707MOL0     H93301  -0.931   8.114  -1.987  0.9379 -0.3007  0.3251
  707MOL0     H93302  -0.893   8.306  -1.767  2.2460 -0.4442 -0.1683
  707MOL0     H93303  -0.788   8.256  -1.915 -0.4034 -3.2852  0.4882
  707MOL0     H93304  -0.963   8.379  -2.042 -0.1331 -2.1781  0.1452
  707MOL0     H93305  -0.870   8.485  -1.946  0.4988 -0.1537 -0.8872
  707MOL0     H93306  -1.239   7.926  -1.087 -0.2555  0.6707 -0.2538
  707MOL0     H93307  -1.311   7.770  -0.910  2.7117  1.9686 -0.6819
  707MOL0     H93308  -1.671   7.432  -0.853  2.0117  3.7741  3.1098
  707MOL0     H93309  -1.781   7.289  -0.701 -1.0677  3.5549 -2.8861
  707MOL0     H93310  -0.357   6.485   0.307 -3.3636 -0.3702  2.5252
  707MOL0     H93311  -0.126   6.515   0.326 -1.6352  1.7087  1.6464
  707MOL0     H93312   0.369   6.099   0.313  1.8143 -0.3998 -0.2149
  707MOL0     H93313   0.582   6.150   0.376  0.2187  0.7916 -1.3470
  707MOL0     H93314   0.799   6.292   0.365  0.3691 -0.3723 -0.4573
  707MOL0     H93315   0.770   6.195   0.502  0.9228  0.8779 -0.1806
  707MOL0     H93316   0.913   6.462   0.530  4.6537 -0.9606 -1.4933
  707MOL0     H93317   0.882   6.345   0.651 -0.0686  3.1065  0.2871
  707MOL0     H93318   1.068   6.292   0.412 -1.1986  0.4812 -0.6154
  707MOL0     H93319   1.036   6.175   0.540  1.2104  0.3283  2.0366
  707MOL0     H93320   1.094   6.382   0.696  0.9880 -1.0498  1.4200
  707MOL0     H93321   1.227   6.288   0.642 -1.1923 -1.7129  1.4820
  707MOL0     H93322   1.267   6.680   0.461  0.9132  0.2929 -0.0881
  707MOL0     H93323   0.453   6.502   0.588  1.5870 -0.8512  0.4381
  707MOL0     H93324   0.224   6.446   0.530  0.2430 -1.2223  2.0377
  708MOL0     O93325   6.344   9.605  10.899 -0.1269  0.4975  0.5653
  708MOL0     C93326   6.421   9.698  10.906 -0.8064  0.5922  0.2085
  708MOL0     O93327   6.387   9.831  10.885 -0.1244 -0.3767  0.4794
  708MOL0     C93328   6.255   9.853  10.847 -0.4207 -0.4089 -0.5410
  708MOL0     C93329   6.203   9.815  10.723  0.2967 -0.3887  0.0143
  708MOL0     C93330   6.072   9.839  10.696 -0.5596 -0.0631  0.6422
  708MOL0     C93331   5.983   9.893  10.780  0.3229 -0.1208 -0.8675
  708MOL0     O93332   5.865   9.916  10.725 -0.1503 -0.7118  0.1461
  708MOL0     C93333   5.745   9.868  10.788  0.3355  0.5741  0.7246
  708MOL0     C93334   5.654   9.823  10.677 -0.3308 -0.0648  1.5334
  708MOL0     C93335   5.508   9.782  10.731 -1.4013 -0.1242  0.9094
  708MOL0     C93336   5.416   9.778  10.612  1.1410  0.1985  0.1254
  708MOL0     C93337   5.279   9.755  10.669 -0.1362  0.2046 -0.6491
  708MOL0     C93338   5.176   9.782  10.575  0.6504  0.2194  0.4686
  708MOL0     C93339   5.120   9.921  10.586  0.7847 -0.5570  0.3197
  708MOL0     C93340   4.964   9.925  10.558 -1.4354  0.7545  0.3897
  708MOL0     N93341   4.933   9.933  10.418  0.1546  0.9184 -0.3544
  708MOL0     C93342   4.942   9.838  10.318  0.1447  0.2173 -0.5575
  708MOL0     C93343   4.888   9.883  10.213  0.9464  0.6152  0.1826
  708MOL0     C93344   4.870   9.812  10.084  0.5767  0.0421  0.6873
  708MOL0     C93345   4.717   9.810  10.057 -0.1327  0.2355 -0.4966
  708MOL0     C93346   4.687   9.720   9.939 -0.1826  0.3807 -0.3287
  708MOL0     C93347   4.542   9.714   9.911  0.2759 -1.4924  0.1168
  708MOL0     O93348   4.517   9.644   9.787  0.0294  0.8759 -0.7729
  708MOL0     C93349   4.388   9.645   9.743 -0.5625 -0.3294  0.2706
  708MOL0     C93350   4.283   9.722   9.793 -0.9989  0.9895  0.4892
  708MOL0     C93351   4.161   9.700   9.737  0.2660  1.1450 -0.1259
  708MOL0     C93352   4.144   9.621   9.619  1.0391 -0.3334 -0.5995
  708MOL0     C93353   4.001   9.620   9.567 -0.5330 -0.1081  0.2903
  708MOL0     O93354   3.907   9.701   9.616 -0.2445 -0.4441 -0.0077
  708MOL0     C93355   3.776   9.689   9.587 -0.1198 -0.7609 -1.3838
  708MOL0     C93356   3.692   9.764   9.677 -0.0188  0.3185 -0.1295
  708MOL0     C93357   3.553   9.760   9.650  0.3430 -0.4324 -0.2487
  708MOL0     C93358   3.500   9.717   9.523 -0.5099  1.1071  0.6820
  708MOL0     O93359   3.367   9.746   9.480 -0.0985  0.3298  0.0458
  708MOL0     C93360   3.324   9.880   9.503  0.4660  0.0088 -0.5224
  708MOL0     C93361   3.197   9.936   9.427  0.0113 -0.3498 -0.8277
  708MOL0     C93362   3.071   9.927   9.510  0.7178  0.5725 -0.6926
  708MOL0     C93363   2.943   9.953   9.425 -0.6286 -0.7114 -0.6189
  708MOL0     C93364   2.818   9.931   9.505  0.2637 -0.4420  0.1881
  708MOL0     C93365   2.700   9.913   9.410 -0.3821 -0.5283 -0.0796
  708MOL0     C93366   2.654  10.045   9.352 -0.5737 -0.7473  0.7828
  708MOL0     C93367   2.548  10.006   9.239 -0.1329 -0.6189  0.8520
  708MOL0    Cl93368   2.484  10.150   9.139 -0.0994  0.0325  0.2449
  708MOL0     C93369   3.580   9.637   9.443 -0.6615 -0.3769 -0.5876
  708MOL0     C93370   3.719   9.631   9.470 -0.4764  0.4602 -0.0504
  708MOL0     O93371   3.988   9.538   9.477  0.5426 -0.4630  0.1199
  708MOL0     C93372   4.249   9.544   9.578 -0.1085 -0.3575  0.5651
  708MOL0     C93373   4.377   9.555   9.642  0.4560 -0.2089 -0.3710
  708MOL0     N93374   4.858  10.019  10.235  0.2325  0.1203 -0.6588
  708MOL0     N93375   4.899  10.047  10.356 -0.3263  0.8779  0.5421
  708MOL0     C93376   6.030   9.943  10.906 -0.5853  0.2670 -0.1635
  708MOL0     C93377   6.169   9.921  10.935 -0.7004  0.1314 -0.8643
  708MOL0     C93378   6.560   9.668  10.941 -0.3640 -1.1979  0.0466
  708MOL0     C93379   6.652   9.773  10.929 -1.0299 -0.4669 -0.0339
  708MOL0     C93380   6.785   9.746  10.954 -1.1907  0.6826  0.7590
  708MOL0     C93381   6.833   9.611  10.993 -0.1096 -0.0025 -0.6572
  708MOL0     O93382   6.966   9.577  11.004  0.8054 -0.7558 -0.1477
  708MOL0     C93383   7.079   9.673  10.997  0.8743  0.8114 -0.9311
  708MOL0     C93384   7.204   9.589  10.965 -0.0848  0.1903 -0.3634
  708MOL0     C93385   7.249   9.517  11.090 -0.6574  0.1041  0.5949
  708MOL0     C93386   7.367   9.415  11.068  0.1266  0.0330 -0.6765
  708MOL0     C93387   7.487   9.484  11.011  0.1262 -0.5262  0.8748
  708MOL0     C93388   7.575   9.542  10.949  0.4541  1.1171  0.4625
  708MOL0     C93389   6.733   9.513  11.008  0.3340 -0.0372 -0.0670
  708MOL0     C93390   6.602   9.539  10.977  0.0503  0.2660  1.1866
  708MOL0     H93391   6.266   9.759  10.654  0.4048 -0.5404  0.2359
  708MOL0     H93392   6.023   9.796  10.609  0.1258 -0.6582  0.5405
  708MOL0     H93393   5.696   9.947  10.846  0.6286  1.1330  0.2140
  708MOL0     H93394   5.762   9.787  10.860 -0.9721  0.4262  0.9031
  708MOL0     H93395   5.694   9.740  10.618 -1.0252  0.9234 -0.4366
  708MOL0     H93396   5.654   9.903  10.603 -2.1071 -2.8867 -1.8142
  708MOL0     H93397   5.480   9.862  10.800  0.0338  1.2302 -0.0201
  708MOL0     H93398   5.506   9.684  10.780 -0.4393 -1.0804 -0.9076
  708MOL0     H93399   5.418   9.876  10.563  0.5402  0.9475  1.5280
  708MOL0     H93400   5.439   9.704  10.536  0.5719  0.6319 -0.4761
  708MOL0     H93401   5.273   9.814  10.761  1.7989  0.8513 -0.8808
  708MOL0     H93402   5.274   9.648  10.692  2.8359 -0.0447 -0.7927
  708MOL0     H93403   5.086   9.722  10.590  0.1713  0.2661 -1.9055
  708MOL0     H93404   5.220   9.779  10.475  2.8655  0.0608  1.3874
  708MOL0     H93405   5.141   9.952  10.689  0.7932  1.7119 -0.3135
  708MOL0     H93406   5.166   9.993  10.517 -0.1538 -2.0145 -1.9665
  708MOL0     H93407   4.934  10.021  10.601 -0.3934  1.1189  0.3497
  708MOL0     H93408   4.913   9.837  10.597 -0.5496 -0.8991 -1.9237
  708MOL0     H93409   4.991   9.741  10.325  1.9922  1.1974  1.0032
  708MOL0     H93410   4.921   9.716  10.095  0.8203 -0.0013 -0.6552
  708MOL0     H93411   4.919   9.864  10.001 -1.5112  1.5245  0.2826
  708MOL0     H93412   4.681   9.913  10.060  0.3643  0.3886  1.3099
  708MOL0     H93413   4.670   9.764  10.145  0.5901 -0.8940 -0.6746
  708MOL0     H93414   4.740   9.750   9.848  0.3513  1.9823  0.4762
  708MOL0     H93415   4.729   9.626   9.976 -2.0550  0.5281  2.5326
  708MOL0     H93416   4.510   9.818   9.905  2.2552 -0.6625  2.2998
  708MOL0     H93417   4.492   9.665   9.995  0.8809 -1.4845  0.4863
  708MOL0     H93418   4.289   9.797   9.871  1.4400  2.6992 -1.1774
  708MOL0     H93419   4.083   9.757   9.787 -2.2618 -3.2014  1.4650
  708MOL0     H93420   3.748   9.812   9.756 -1.5666  4.0942 -1.0922
  708MOL0     H93421   3.476   9.800   9.716 -2.4154 -4.0439 -0.9440
  708MOL0     H93422   3.397   9.953   9.467 -1.5339  1.5558 -1.6489
  708MOL0     H93423   3.306   9.894   9.610 -3.0850  2.6713 -1.2752
  708MOL0     H93424   3.187   9.901   9.323  1.6788  0.8650 -1.4306
  708MOL0     H93425   3.212  10.043   9.413  0.2759 -0.2071  0.4559
  708MOL0     H93426   3.073   9.991   9.598 -3.0980 -1.8767  1.4531
  708MOL0     H93427   3.059   9.822   9.538  1.1097 -0.2271 -3.2211
  708MOL0     H93428   2.957  10.055   9.387 -1.5010 -0.2153  0.3389
  708MOL0     H93429   2.952   9.875   9.348  0.2070 -0.4111 -0.8286
  708MOL0     H93430   2.809  10.015   9.575 -1.5245  0.3150 -0.8608
  708MOL0     H93431   2.826   9.839   9.565 -1.2390  0.6295  2.1823
  708MOL0     H93432   2.623   9.875   9.476  1.4499  1.0200  3.1724
  708MOL0     H93433   2.715   9.837   9.332 -1.5045  0.3298 -1.1834
  708MOL0     H93434   2.606  10.108   9.428  1.2613  0.1845  1.2216
  708MOL0     H93435   2.740  10.098   9.311 -2.4604 -0.3127 -3.0725
  708MOL0     H93436   2.461   9.946   9.269  0.7926 -3.7897 -2.0479
  708MOL0     H93437   2.605   9.945   9.168  0.1742 -1.3902  1.7381
  708MOL0     H93438   3.541   9.580   9.359 -1.0077 -3.0009  1.2202
  708MOL0     H93439   3.772   9.581   9.390  0.7094 -0.6351  1.3488
  708MOL0     H93440   4.253   9.491   9.484 -0.0237 -0.1120  0.4281
  708MOL0     H93441   4.464   9.510   9.596 -0.9921 -3.4466 -0.1950
  708MOL0     H93442   5.973   9.988  10.987  0.0188  2.9208 -1.1073
  708MOL0     H93443   6.208   9.958  11.029  0.2298 -0.8210 -0.8584
  708MOL0     H93444   6.630   9.871  10.889  1.3967  0.3951  0.5306
  708MOL0     H93445   6.856   9.826  10.935 -1.8601  1.1417  0.1504
  708MOL0     H93446   7.094   9.722  11.093  0.0257 -0.8048  0.0717
  708MOL0     H93447   7.061   9.745  10.917 -0.9511  3.9191  2.0691
  708MOL0     H93448   7.188   9.519  10.883  0.0827  0.8617 -0.9748
  708MOL0     H93449   7.289   9.647  10.926  1.5800 -0.7422  1.6820
  708MOL0     H93450   7.160   9.476  11.137 -2.9223  2.7010 -1.1435
  708MOL0     H93451   7.290   9.598  11.151  0.5192  3.0194 -3.5711
  708MOL0     H93452   7.397   9.365  11.161 -2.6567 -1.5586 -0.5120
  708MOL0     H93453   7.338   9.336  10.998  4.6540 -0.4570 -2.2759
  708MOL0     H93454   7.634   9.600  10.881 -1.5743  1.1346 -1.3843
  708MOL0     H93455   6.756   9.420  11.057 -1.9648 -0.7160 -0.1560
  708MOL0     H93456   6.530   9.457  10.974  0.6761 -0.2844  1.0364
  709MOL0     O93457  10.876  10.843   4.314 -0.0157 -0.8057 -0.0199
  709MOL0     C93458  10.791  10.762   4.330  0.0872  0.4115 -0.1488
  709MOL0     O93459  10.801  10.645   4.400  0.0312 -0.5289  0.1119
  709MOL0     C93460  10.926  10.609   4.424 -0.6873 -0.6112  0.4082
  709MOL0     C93461  10.997  10.540   4.327  0.0792  0.7892  0.9130
  709MOL0     C93462  11.130  10.504   4.352 -0.2671  0.1928 -0.2341
  709MOL0     C93463  11.189  10.534   4.473  0.6697 -0.2436  0.1381
  709MOL0     O93464  11.313  10.496   4.509  0.5926 -0.3539 -0.0545
  709MOL0     C93465  11.350  10.359   4.522 -0.9960  0.2692  0.7368
  709MOL0     C93466  11.496  10.332   4.553  0.1071 -0.5301 -0.0375
  709MOL0     C93467  11.598  10.362   4.453 -0.4237  0.6450  0.8182
  709MOL0     C93468  11.594  10.515   4.411 -0.2812  1.4868 -0.2923
  709MOL0     C93469  11.726  10.559   4.341  0.7340  0.1806  0.7508
  709MOL0     C93470  11.765  10.488   4.211 -0.1626 -0.5058  0.2130
  709MOL0     C93471  11.664  10.524   4.100  0.1607 -0.2025  0.0175
  709MOL0     C93472  11.728  10.639   4.012  0.9528 -0.0513 -0.1178
  709MOL0     N93473  11.839  10.586   3.933  0.0722  0.6355 -0.1392
  709MOL0     C93474  11.974  10.612   3.944 -0.4670 -0.3839 -0.9470
  709MOL0     C93475  12.035  10.558   3.845 -0.8599 -0.2122  0.0603
  709MOL0     C93476  12.170  10.602   3.787 -0.9381  0.1458 -0.1143
  709MOL0     C93477  12.297  10.543   3.856 -0.1351  0.1141  0.2495
  709MOL0     C93478  12.325  10.600   3.997  0.0862  0.1999 -0.2860
  709MOL0     C93479  12.471  10.596   4.024 -0.1549 -0.5922  0.6559
  709MOL0     O93480  12.539  10.696   3.948  0.3695  0.5041  0.0911
  709MOL0     C93481  12.671  10.680   3.934 -0.3622 -0.9178 -0.4874
  709MOL0     C93482  12.736  10.747   3.824 -0.0654 -0.2854  0.6564
  709MOL0     C93483  12.874  10.775   3.832 -0.0015  0.0886  0.3628
  709MOL0     C93484  12.949  10.717   3.933  1.3000 -0.5164 -0.2649
  709MOL0     C93485  13.089  10.737   3.927  0.0329  0.9231 -0.1868
  709MOL0     O93486  13.159  10.732   4.049  0.9659  0.2429  0.2736
  709MOL0     C93487  13.293  10.724   4.041  0.3044 -0.4512 -0.2007
  709MOL0     C93488  13.357  10.611   3.978 -0.0474 -0.0836  0.0186
  709MOL0     C93489  13.493  10.595   3.990 -0.1908 -1.1845 -0.0320
  709MOL0     C93490  13.574  10.698   4.033  0.1535 -0.8945 -0.0918
  709MOL0     O93491  13.707  10.669   4.020 -0.1132 -0.2236 -0.2111
  709MOL0     C93492  13.795  10.681   4.132  0.4825 -0.8378  0.5810
  709MOL0     C93493  13.925  10.623   4.076 -0.5908  0.3840  0.1085
  709MOL0     C93494  14.032  10.600   4.193  0.2942  0.0061 -0.1218
  709MOL0     C93495  14.113  10.723   4.231 -0.1077  0.2863  0.2346
  709MOL0     C93496  14.167  10.718   4.367  0.1911 -1.0091  0.1956
  709MOL0     C93497  14.238  10.844   4.398 -0.8318 -0.2134  0.1560
  709MOL0     C93498  14.296  10.849   4.537  0.1647 -0.2065  1.0075
  709MOL0     C93499  14.371  10.984   4.563  0.0027 -0.3016 -1.1499
  709MOL0    Cl93500  14.453  10.969   4.711  0.1203  0.3933 -0.4265
  709MOL0     C93501  13.512  10.808   4.100 -0.2195 -0.1698  0.3607
  709MOL0     C93502  13.375  10.821   4.105 -0.4272  0.5847  0.5608
  709MOL0     O93503  13.141  10.759   3.818  0.3734 -0.1721  0.2044
  709MOL0     C93504  12.888  10.622   4.024  0.7059 -0.4920 -0.5073
  709MOL0     C93505  12.754  10.622   4.034 -0.0484  1.5609 -0.4973
  709MOL0     N93506  11.948  10.480   3.781 -0.8817  0.1132  1.6023
  709MOL0     N93507  11.829  10.509   3.824  0.3384 -0.0339 -0.6765
  709MOL0     C93508  11.122  10.610   4.564  0.6766  0.0168 -0.9464
  709MOL0     C93509  10.992  10.648   4.535  0.8314  1.0529  0.0603
  709MOL0     C93510  10.663  10.792   4.264 -0.3122 -0.3072 -0.7812
  709MOL0     C93511  10.541  10.730   4.304 -0.4337 -0.3012  0.3472
  709MOL0     C93512  10.423  10.771   4.246  0.1193  0.4429  0.5228
  709MOL0     C93513  10.417  10.867   4.143 -0.5596  0.4829  0.0480
  709MOL0     O93514  10.298  10.897   4.092  0.1259  0.0166 -0.0684
  709MOL0     C93515  10.300  10.974   3.960  0.3119 -1.5803 -0.6612
  709MOL0     C93516  10.173  10.957   3.883 -0.4747  0.2741  0.8335
  709MOL0     C93517  10.151  10.806   3.858  0.6996  0.0949 -0.2676
  709MOL0     C93518  10.037  10.805   3.756  0.3435  1.2688 -0.4113
  709MOL0     C93519  10.007  10.670   3.738 -0.0910 -0.0342 -0.3830
  709MOL0     C93520  10.001  10.552   3.721  0.6778 -0.2872 -0.9329
  709MOL0     C93521  10.535  10.937   4.116  0.6176 -0.4863  0.1352
  709MOL0     C93522  10.658  10.899   4.164 -0.0793  0.3715 -0.4016
  709MOL0     H93523  10.951  10.518   4.232 -0.9627 -0.3543  1.6478
  709MOL0     H93524  11.179  10.451   4.271 -0.1476  0.2909 -0.2255
  709MOL0     H93525  11.328  10.317   4.423 -2.0755  2.2386  0.0716
  709MOL0     H93526  11.291  10.305   4.596  1.7065 -2.4383  1.0895
  709MOL0     H93527  11.505  10.225   4.573  0.3468 -0.2046  1.7861
  709MOL0     H93528  11.530  10.379   4.646  1.2187 -2.1287  0.3915
  709MOL0     H93529  11.583  10.298   4.366  2.9756  0.8249 -0.0336
  709MOL0     H93530  11.698  10.334   4.487  0.6782  3.4449  0.1679
  709MOL0     H93531  11.502  10.538   4.356  0.5911  1.2022 -1.9193
  709MOL0     H93532  11.592  10.570   4.506  1.6176  2.6371 -0.8703
  709MOL0     H93533  11.800  10.551   4.421  0.2735  0.1351  1.1767
  709MOL0     H93534  11.716  10.665   4.317 -1.1448 -0.0463  0.3508
  709MOL0     H93535  11.761  10.379   4.219  1.8247 -0.6730 -0.5562
  709MOL0     H93536  11.865  10.523   4.183  0.2961 -3.2852 -2.0341
  709MOL0     H93537  11.651  10.437   4.035  0.8300  0.2831 -0.7951
  709MOL0     H93538  11.570  10.569   4.134 -0.8195 -0.9818 -1.5324
  709MOL0     H93539  11.760  10.724   4.074  2.1104  0.4265 -1.3164
  709MOL0     H93540  11.647  10.673   3.946  1.1245  2.1514  0.7061
  709MOL0     H93541  12.017  10.679   4.018 -3.2155  0.5065 -0.0510
  709MOL0     H93542  12.181  10.710   3.774  2.6520  0.1398  1.4962
  709MOL0     H93543  12.164  10.561   3.686 -1.1492  0.4798 -0.2369
  709MOL0     H93544  12.383  10.570   3.794 -0.8530  0.2091 -0.7407
  709MOL0     H93545  12.293  10.434   3.866 -1.7245  0.3607  3.4056
  709MOL0     H93546  12.295  10.705   4.006 -1.5705 -0.1768 -1.0783
  709MOL0     H93547  12.270  10.554   4.080  0.5654  3.9642  2.3844
  709MOL0     H93548  12.501  10.501   3.979 -0.5395 -0.8966  1.0319
  709MOL0     H93549  12.499  10.613   4.129 -0.0843 -1.2918  0.7508
  709MOL0     H93550  12.667  10.787   3.751  1.7163 -0.9051 -1.4664
  709MOL0     H93551  12.926  10.839   3.762  1.9305 -2.9153 -1.1742
  709MOL0     H93552  13.291  10.533   3.942  0.6545  0.2095 -2.0356
  709MOL0     H93553  13.536  10.516   3.930  0.4046 -0.3532 -0.7212
  709MOL0     H93554  13.757  10.622   4.216 -0.0842  0.9608  1.6312
  709MOL0     H93555  13.802  10.784   4.167  0.6725 -0.7124  0.1861
  709MOL0     H93556  13.964  10.692   4.000 -0.8361  0.6483  0.2212
  709MOL0     H93557  13.919  10.524   4.030  4.4881 -1.7060  3.0839
  709MOL0     H93558  14.104  10.527   4.155 -0.1131 -1.6682  2.1035
  709MOL0     H93559  13.992  10.560   4.286  1.1009  0.6161  0.5092
  709MOL0     H93560  14.198  10.732   4.164 -0.7367 -0.7059 -0.7245
  709MOL0     H93561  14.043  10.806   4.215  0.5662  0.2390 -4.1060
  709MOL0     H93562  14.233  10.634   4.389  1.6483  0.6702  2.6925
  709MOL0     H93563  14.082  10.712   4.435 -1.9815 -0.5917 -2.3185
  709MOL0     H93564  14.168  10.928   4.387 -2.4370 -1.5651 -0.4802
  709MOL0     H93565  14.320  10.856   4.327  1.8786  0.2295  3.1751
  709MOL0     H93566  14.218  10.846   4.613 -0.6419 -1.2722  0.1625
  709MOL0     H93567  14.364  10.764   4.549  2.1707  1.4952  2.8866
  709MOL0     H93568  14.293  11.060   4.554  1.9289  1.7171 -1.5372
  709MOL0     H93569  14.435  10.998   4.475 -0.4804  4.7034 -0.9837
  709MOL0     H93570  13.570  10.890   4.140 -1.0394  0.8294 -0.4486
  709MOL0     H93571  13.325  10.909   4.144 -3.7072 -0.1128 -1.6459
  709MOL0     H93572  12.949  10.563   4.092 -1.0153 -1.7593 -0.0205
  709MOL0     H93573  12.715  10.562   4.116  0.4602  1.5479 -0.2601
  709MOL0     H93574  11.160  10.625   4.665  1.3509 -2.1516 -0.8294
  709MOL0     H93575  10.944  10.695   4.620  1.6042  0.7835  0.6536
  709MOL0     H93576  10.547  10.656   4.383  2.4354 -1.5189 -0.8682
  709MOL0     H93577  10.330  10.725   4.278  0.1575  0.5565  0.7970
  709MOL0     H93578  10.387  10.959   3.895  1.5332 -2.5566  1.1278
  709MOL0     H93579  10.298  11.081   3.983 -2.5309 -1.6238 -0.3149
  709MOL0     H93580  10.089  10.997   3.942  1.0572  1.6501  2.1632
  709MOL0     H93581  10.172  11.014   3.790 -2.8773  1.2532  1.3598
  709MOL0     H93582  10.125  10.756   3.951 -3.1409  2.7680  0.2865
  709MOL0     H93583  10.243  10.761   3.817  0.6570 -0.6596  0.4407
  709MOL0     H93584   9.949  10.854   3.799  1.3648  1.4816  1.5729
  709MOL0     H93585  10.070  10.854   3.664 -2.0555 -1.0690 -2.6814
  709MOL0     H93586   9.981  10.447   3.718  0.7985 -0.2981 -1.4830
  709MOL0     H93587  10.536  11.007   4.033  0.7423 -2.2594 -1.4473
  709MOL0     H93588  10.751  10.950   4.140  0.2051 -0.4254 -1.0541
  710MOL0     O93589   4.221   1.803   7.407  0.0335  0.5961  0.3311
  710MOL0     C93590   4.249   1.775   7.290  0.0469 -0.2228 -0.2678
  710MOL0     O93591   4.168   1.797   7.179  0.8036  0.4904 -0.1609
  710MOL0     C93592   4.034   1.820   7.176 -0.0160  0.0304 -0.1147
  710MOL0     C93593   3.974   1.807   7.043 -0.1033 -0.1053 -0.3886
  710MOL0     C93594   3.834   1.827   7.035 -0.0539  0.1784 -0.0653
  710MOL0     C93595   3.753   1.855   7.146  0.6116  0.2486  0.1062
  710MOL0     O93596   3.619   1.844   7.120  0.9175  0.1506 -0.0499
  710MOL0     C93597   3.528   1.883   7.223 -0.0958 -0.7379  0.3091
  710MOL0     C93598   3.399   1.914   7.142  0.0017 -0.0189 -1.1525
  710MOL0     C93599   3.308   1.988   7.242 -0.1586 -0.3495 -0.2529
  710MOL0     C93600   3.188   2.041   7.164 -0.2579  0.4892 -0.6642
  710MOL0     C93601   3.112   2.139   7.260  1.1785  0.8902 -0.3739
  710MOL0     C93602   2.962   2.109   7.297 -0.2229 -0.2361 -0.1659
  710MOL0     C93603   2.945   2.032   7.426  0.1303  0.0159  0.1058
  710MOL0     C93604   2.809   1.972   7.436  0.4149 -0.1899 -0.5117
  710MOL0     N93605   2.720   2.075   7.493  1.0519  0.3058 -0.3111
  710MOL0     C93606   2.612   2.124   7.429 -0.8489  0.1316 -0.0687
  710MOL0     C93607   2.529   2.154   7.535  0.4256  0.7052  0.6490
  710MOL0     C93608   2.389   2.209   7.533  1.0400  0.3026  0.0999
  710MOL0     C93609   2.293   2.086   7.525  0.3415  0.0426 -0.0165
  710MOL0     C93610   2.153   2.109   7.462  0.1816  0.2454  0.5708
  710MOL0     C93611   2.163   2.138   7.313 -0.2150  0.5529  0.9810
  710MOL0     O93612   2.193   2.265   7.274 -0.9908  0.2053 -0.0879
  710MOL0     C93613   2.107   2.364   7.315 -0.1050  0.1033 -0.0493
  710MOL0     C93614   1.964   2.354   7.312 -0.6128  0.3084  1.0803
  710MOL0     C93615   1.886   2.460   7.357  0.3663  0.0032 -0.1638
  710MOL0     C93616   1.944   2.578   7.405 -0.7440  0.6987  0.4422
  710MOL0     C93617   1.857   2.683   7.463 -0.3696 -0.6958  0.3104
  710MOL0     O93618   1.722   2.658   7.494 -0.4045 -0.5929  0.0413
  710MOL0     C93619   1.658   2.748   7.576  1.5526  0.3984  0.3810
  710MOL0     C93620   1.700   2.788   7.706 -0.1207 -0.0052  0.5594
  710MOL0     C93621   1.626   2.889   7.766  0.5855  0.0019 -0.3750
  710MOL0     C93622   1.499   2.940   7.716 -0.4319 -0.1533  0.0119
  710MOL0     O93623   1.437   3.036   7.790  0.4195  0.2925 -0.4479
  710MOL0     C93624   1.294   3.023   7.781  0.0483 -0.5470  0.0937
  710MOL0     C93625   1.249   3.063   7.925 -0.3886  0.2676  1.2475
  710MOL0     C93626   1.100   3.045   7.941 -0.5318  0.5161 -0.3598
  710MOL0     C93627   1.060   3.077   8.091 -0.3461 -0.1119  0.2856
  710MOL0     C93628   0.904   3.061   8.104 -0.2355  0.6240 -0.3854
  710MOL0     C93629   0.857   3.082   8.242  0.0277 -0.8230 -0.1042
  710MOL0     C93630   0.710   3.128   8.252 -0.5717  0.1667  0.4120
  710MOL0     C93631   0.659   3.157   8.399 -0.7213  0.1616 -0.1674
  710MOL0    Cl93632   0.510   3.260   8.399  0.5418  0.1755  0.2075
  710MOL0     C93633   1.467   2.891   7.586  0.6346 -0.1021 -0.2794
  710MOL0     C93634   1.542   2.792   7.518  0.8781 -0.7460  0.8489
  710MOL0     O93635   1.919   2.778   7.509 -0.0680 -0.4545 -0.4965
  710MOL0     C93636   2.082   2.590   7.393 -0.7930  0.0790 -0.4963
  710MOL0     C93637   2.160   2.487   7.341  0.0238  0.6193  0.9230
  710MOL0     N93638   2.591   2.131   7.658  0.9960  0.4994 -0.0556
  710MOL0     N93639   2.706   2.096   7.627 -0.7933  0.2604 -0.7483
  710MOL0     C93640   3.812   1.872   7.269 -0.0008 -0.8443 -0.0330
  710MOL0     C93641   3.942   1.853   7.282 -0.2337 -0.0338  0.3433
  710MOL0     C93642   4.388   1.733   7.253  0.0983  0.3384  1.1167
  710MOL0     C93643   4.473   1.664   7.333  0.5765  0.0267  0.1084
  710MOL0     C93644   4.595   1.619   7.290 -0.7970 -0.1123  0.2016
  710MOL0     C93645   4.647   1.647   7.164  0.1679 -0.9454  0.3162
  710MOL0     O93646   4.772   1.620   7.118  0.9080 -0.8166 -0.4149
  710MOL0     C93647   4.864   1.549   7.198  0.1503  0.9780  0.0054
  710MOL0     C93648   4.928   1.619   7.315  0.1259 -0.1545 -0.3668
  710MOL0     C93649   4.988   1.753   7.271  0.5548  0.7247 -0.3131
  710MOL0     C93650   5.075   1.810   7.378  0.7149  0.0335  0.3085
  710MOL0     C93651   5.161   1.921   7.344  0.3594  0.2526 -0.1678
  710MOL0     C93652   5.246   2.006   7.330 -0.4000  0.3440  0.9986
  710MOL0     C93653   4.561   1.725   7.085 -0.1788 -0.1536 -0.7288
  710MOL0     C93654   4.438   1.768   7.125 -0.7572  0.2956  0.6331
  710MOL0     H93655   4.041   1.771   6.966  0.5058  2.5372 -1.2117
  710MOL0     H93656   3.784   1.822   6.939 -0.7451  0.1906  0.2882
  710MOL0     H93657   3.566   1.970   7.277 -0.5582 -0.7638  0.6880
  710MOL0     H93658   3.510   1.801   7.294  0.8883 -1.5231 -0.3220
  710MOL0     H93659   3.354   1.825   7.099 -1.0636 -0.3690  0.5869
  710MOL0     H93660   3.430   1.984   7.064  0.8990  0.3332 -0.5089
  710MOL0     H93661   3.360   2.068   7.295 -1.5398 -2.2865  4.6495
  710MOL0     H93662   3.272   1.918   7.318  3.0190 -0.2684  1.4871
  710MOL0     H93663   3.214   2.111   7.084  0.6092  1.7722  0.6806
  710MOL0     H93664   3.125   1.959   7.129  1.9836 -1.4762 -0.3750
  710MOL0     H93665   3.108   2.235   7.208 -0.9290  0.4794 -1.0909
  710MOL0     H93666   3.170   2.161   7.350 -0.7845  3.6286  0.3611
  710MOL0     H93667   2.909   2.054   7.218  0.6589 -0.2190 -0.7867
  710MOL0     H93668   2.913   2.205   7.316 -1.7633 -1.0142 -0.0596
  710MOL0     H93669   3.026   1.958   7.421 -2.0089 -2.6001  1.6451
  710MOL0     H93670   2.965   2.098   7.511  0.5856 -1.9080  1.5625
  710MOL0     H93671   2.810   1.883   7.499 -0.4627 -0.0457 -0.2853
  710MOL0     H93672   2.772   1.924   7.345 -0.3437  1.3706 -1.0701
  710MOL0     H93673   2.583   2.117   7.324 -0.8107 -2.8014  0.0210
  710MOL0     H93674   2.376   2.271   7.444 -1.4575 -1.0545 -0.5679
  710MOL0     H93675   2.365   2.257   7.629  0.1035 -0.0441  0.0509
  710MOL0     H93676   2.264   2.050   7.624 -1.8253  1.6629  0.0166
  710MOL0     H93677   2.339   2.000   7.475 -1.5171 -2.0766  1.6609
  710MOL0     H93678   2.097   2.016   7.477 -0.7722  0.6849 -0.1612
  710MOL0     H93679   2.092   2.191   7.502 -2.0974 -0.2916 -1.5587
  710MOL0     H93680   2.074   2.102   7.261 -0.1526  1.2995  0.3359
  710MOL0     H93681   2.240   2.082   7.259  1.5757  1.9676  1.9060
  710MOL0     H93682   1.929   2.258   7.276  4.0188 -0.9848 -0.6005
  710MOL0     H93683   1.778   2.455   7.353  0.3965  0.1383 -1.5823
  710MOL0     H93684   1.784   2.735   7.748 -0.8642 -1.9875 -0.3177
  710MOL0     H93685   1.658   2.926   7.863  0.2241 -1.4632  0.3354
  710MOL0     H93686   1.253   2.922   7.770  0.6213 -0.5539 -2.7623
  710MOL0     H93687   1.249   3.095   7.712 -0.6933  0.2687  1.3949
  710MOL0     H93688   1.276   3.168   7.941 -0.0437  0.4969 -0.5214
  710MOL0     H93689   1.300   2.994   7.992  4.0009  1.0248 -0.9030
  710MOL0     H93690   1.064   2.947   7.909 -2.0074  1.0440 -0.4104
  710MOL0     H93691   1.060   3.111   7.863 -0.0346 -1.5753 -2.5311
  710MOL0     H93692   1.101   3.009   8.166 -0.7177 -0.6744 -0.0124
  710MOL0     H93693   1.080   3.180   8.122  0.0923 -1.2223  4.2684
  710MOL0     H93694   0.879   2.958   8.077 -2.7784  0.9254  0.5242
  710MOL0     H93695   0.851   3.132   8.040 -4.2909  1.3658  3.3131
  710MOL0     H93696   0.924   3.156   8.286 -1.0245 -0.8804  1.6998
  710MOL0     H93697   0.869   2.984   8.288  4.2451 -1.1552 -1.4906
  710MOL0     H93698   0.690   3.217   8.192 -3.3517 -0.1310  0.7692
  710MOL0     H93699   0.646   3.051   8.209  0.3850 -0.5259  0.2021
  710MOL0     H93700   0.752   3.187   8.448 -0.0153 -1.2726 -0.5575
  710MOL0     H93701   0.618   3.062   8.435 -3.0617  1.1089 -0.1960
  710MOL0     H93702   1.384   2.931   7.530 -1.0010 -1.8906  0.7397
  710MOL0     H93703   1.520   2.767   7.415  1.8474  0.7697  0.2312
  710MOL0     H93704   2.134   2.678   7.430  1.7345 -0.8636 -1.5644
  710MOL0     H93705   2.268   2.481   7.350  0.5686 -2.6570 -3.8210
  710MOL0     H93706   3.756   1.907   7.355 -0.8211 -2.3995  0.1031
  710MOL0     H93707   3.977   1.867   7.383 -1.3396 -1.2146  0.9127
  710MOL0     H93708   4.450   1.622   7.430 -1.3514 -0.1458 -0.3960
  710MOL0     H93709   4.652   1.553   7.356  0.9152  1.2693  0.1561
  710MOL0     H93710   4.935   1.513   7.124 -2.1255 -0.2409 -1.7103
  710MOL0     H93711   4.814   1.461   7.238  0.3692  1.2559  0.9116
  710MOL0     H93712   4.856   1.626   7.397 -0.1292 -1.2109 -0.4884
  710MOL0     H93713   5.014   1.565   7.354 -0.1093  1.1942  2.2447
  710MOL0     H93714   4.904   1.818   7.247 -1.3543 -2.2409 -2.3433
  710MOL0     H93715   5.048   1.736   7.181  0.7227  1.3437 -0.3229
  710MOL0     H93716   5.014   1.840   7.464 -0.5584  1.5764 -1.0869
  710MOL0     H93717   5.150   1.743   7.422 -1.6234 -0.0579  4.6848
  710MOL0     H93718   5.325   2.077   7.320  0.8235 -1.0388  0.4050
  710MOL0     H93719   4.591   1.732   6.981 -2.8881  1.4701 -1.5081
  710MOL0     H93720   4.377   1.814   7.048  1.8034 -0.0925 -1.8175
  711MOL0     O93721   4.224   0.230   8.551 -0.1029 -0.2717 -0.3545
  711MOL0     C93722   4.209   0.129   8.484 -0.1372  0.1501  0.0408
  711MOL0     O93723   4.310   0.072   8.407  0.5036 -0.0396  0.3894
  711MOL0     C93724   4.434   0.128   8.423  0.4717 -0.1347  0.5666
  711MOL0     C93725   4.457   0.220   8.313 -0.0271  0.5102  0.4912
  711MOL0     C93726   4.567   0.306   8.323 -0.7849 -0.2106  0.7300
  711MOL0     C93727   4.657   0.293   8.438  0.0036 -0.7890  1.1494
  711MOL0     O93728   4.760   0.384   8.452  0.0690  0.1057 -0.1658
  711MOL0     C93729   4.839   0.386   8.326 -0.2523 -0.9495  0.4276
  711MOL0     C93730   4.954   0.278   8.332  0.1408 -0.3705  0.6306
  711MOL0     C93731   5.052   0.314   8.439  0.3936 -0.6330 -0.2216
  711MOL0     C93732   5.189   0.238   8.429  0.2273 -0.0043 -0.1012
  711MOL0     C93733   5.276   0.270   8.555 -0.1852  0.3513 -0.0715
  711MOL0     C93734   5.420   0.211   8.535 -0.3880  0.7333  0.1582
  711MOL0     C93735   5.425   0.068   8.492  0.5505  0.4490 -0.3810
  711MOL0     C93736   5.560   0.011   8.515 -0.1377 -0.1009  0.0756
  711MOL0     N93737   5.589  -0.052   8.645 -0.7286 -0.6107 -0.6283
  711MOL0     C93738   5.594   0.018   8.767 -0.3432  0.9215  0.1145
  711MOL0     C93739   5.596  -0.076   8.862 -0.0744  0.7004  0.0466
  711MOL0     C93740   5.597  -0.033   9.005  0.0077  0.6175 -0.3829
  711MOL0     C93741   5.461  -0.033   9.076 -0.7690  0.8793 -0.0292
  711MOL0     C93742   5.431  -0.155   9.163 -0.4816  0.2952 -0.3273
  711MOL0     C93743   5.287  -0.183   9.162  0.5443 -0.0235  0.4846
  711MOL0     O93744   5.223  -0.071   9.222  0.3263  0.2973  0.1664
  711MOL0     C93745   5.088  -0.062   9.209 -0.4391  0.2590  0.1111
  711MOL0     C93746   5.011  -0.171   9.171  0.4433  0.5901  0.9801
  711MOL0     C93747   4.868  -0.171   9.174 -0.0116  0.3260 -0.4604
  711MOL0     C93748   4.803  -0.047   9.208  1.0617 -0.4482  0.3555
  711MOL0     C93749   4.651  -0.033   9.219 -0.4587  1.0401 -0.9926
  711MOL0     O93750   4.594   0.077   9.275 -1.0537 -0.2309 -0.4076
  711MOL0     C93751   4.463   0.080   9.302  0.3646  0.3876  0.4208
  711MOL0     C93752   4.379   0.149   9.220 -0.5412  0.4462 -0.2113
  711MOL0     C93753   4.249   0.178   9.257  0.6073 -0.0604  0.3629
  711MOL0     C93754   4.196   0.141   9.380  1.1549 -0.0611  0.4091
  711MOL0     O93755   4.068   0.154   9.420  0.3802  0.1804 -0.2664
  711MOL0     C93756   3.978   0.242   9.343 -0.6420  0.5882 -0.6705
  711MOL0     C93757   3.847   0.231   9.419  0.0021 -0.7763 -0.9136
  711MOL0     C93758   3.750   0.115   9.386 -0.2741 -0.0941  0.1756
  711MOL0     C93759   3.608   0.142   9.441 -1.2020  0.4415 -0.0478
  711MOL0     C93760   3.506   0.034   9.417 -0.1529  0.9494  0.0756
  711MOL0     C93761   3.371   0.061   9.476  0.3712  0.3903 -0.4546
  711MOL0     C93762   3.294  -0.062   9.524 -0.3533 -0.2402  1.4506
  711MOL0     C93763   3.162  -0.027   9.602 -0.0689  0.2817  1.1548
  711MOL0    Cl93764   3.198   0.068   9.748 -0.1432  0.0682  0.2170
  711MOL0     C93765   4.288   0.075   9.471  0.6225 -0.3162 -0.1241
  711MOL0     C93766   4.414   0.037   9.426 -0.2673  0.2190  0.6482
  711MOL0     O93767   4.589  -0.132   9.185  0.0154 -0.5327  0.7025
  711MOL0     C93768   4.884   0.065   9.237  0.1468  1.3371 -0.6517
  711MOL0     C93769   5.024   0.048   9.237 -0.1481 -0.8634 -0.2114
  711MOL0     N93770   5.584  -0.203   8.801  0.3700 -0.1202 -0.5053
  711MOL0     N93771   5.567  -0.180   8.668 -0.0226 -0.3876 -0.6863
  711MOL0     C93772   4.626   0.201   8.537  0.0088 -0.3690 -0.5236
  711MOL0     C93773   4.514   0.115   8.528  0.1150  0.0630 -0.5851
  711MOL0     C93774   4.074   0.068   8.475 -0.4736 -0.1857  0.1574
  711MOL0     C93775   4.073  -0.070   8.432  0.5842  0.0703  0.3834
  711MOL0     C93776   3.950  -0.132   8.393  0.5640 -1.2469  1.2088
  711MOL0     C93777   3.826  -0.060   8.407 -0.5536  0.4134  1.0469
  711MOL0     O93778   3.704  -0.103   8.369 -0.6039  0.2455  0.5039
  711MOL0     C93779   3.695  -0.243   8.324  0.3047  0.3659 -0.7717
  711MOL0     C93780   3.706  -0.345   8.442  0.8667  0.2366  0.5603
  711MOL0     C93781   3.631  -0.304   8.566  0.0471 -0.5747  0.1323
  711MOL0     C93782   3.535  -0.409   8.617 -1.3635  0.0463  0.7762
  711MOL0     C93783   3.416  -0.409   8.531  0.3017 -0.2781 -0.5384
  711MOL0     C93784   3.329  -0.395   8.455 -0.0580 -0.8745 -0.0444
  711MOL0     C93785   3.822   0.070   8.460 -0.7420  0.3581 -0.2775
  711MOL0     C93786   3.947   0.132   8.488 -0.4377 -0.2288 -0.7302
  711MOL0     H93787   4.394   0.235   8.226  1.1012  1.3232 -0.2147
  711MOL0     H93788   4.590   0.386   8.253  0.6094  0.2336  1.6513
  711MOL0     H93789   4.876   0.488   8.314  1.1043 -1.3912  0.6293
  711MOL0     H93790   4.785   0.374   8.231 -0.5789  2.1002  0.1212
  711MOL0     H93791   4.995   0.280   8.230 -1.6033  1.6891 -0.1068
  711MOL0     H93792   4.913   0.178   8.352 -1.3854  0.2290  0.5740
  711MOL0     H93793   5.004   0.302   8.536 -0.7315  0.4118 -0.6159
  711MOL0     H93794   5.075   0.421   8.437 -0.0559 -0.5405 -1.5064
  711MOL0     H93795   5.177   0.129   8.426 -2.0003  0.1972 -1.9399
  711MOL0     H93796   5.246   0.267   8.340 -0.6613  0.6094 -0.4880
  711MOL0     H93797   5.230   0.229   8.645  2.0977  0.5939  1.2602
  711MOL0     H93798   5.279   0.379   8.559  0.4670  0.3007  1.4317
  711MOL0     H93799   5.476   0.236   8.626 -1.7155  4.8287  0.0525
  711MOL0     H93800   5.468   0.257   8.448  1.0003 -1.3068 -0.2021
  711MOL0     H93801   5.359   0.007   8.554 -0.6977  2.2396  0.1283
  711MOL0     H93802   5.396   0.065   8.387 -0.6808 -0.3770 -0.0434
  711MOL0     H93803   5.635   0.086   8.487  0.6842 -0.6710  0.6885
  711MOL0     H93804   5.576  -0.056   8.430 -0.2658  2.2456 -1.9143
  711MOL0     H93805   5.599   0.126   8.779 -0.7164  1.1256 -1.3726
  711MOL0     H93806   5.634   0.068   9.024 -2.2290  1.5978 -0.9012
  711MOL0     H93807   5.669  -0.099   9.055 -2.7079 -2.5974 -0.3531
  711MOL0     H93808   5.385  -0.007   9.002 -2.8003  4.6539  3.0242
  711MOL0     H93809   5.439   0.053   9.140 -1.7458  1.4504 -1.0999
  711MOL0     H93810   5.497  -0.232   9.120  1.1910  2.3351 -1.6068
  711MOL0     H93811   5.460  -0.134   9.266 -1.9880 -3.6359  1.0980
  711MOL0     H93812   5.266  -0.269   9.226 -4.3677  0.3112 -0.2837
  711MOL0     H93813   5.267  -0.194   9.056  1.9651  0.6120  0.1166
  711MOL0     H93814   5.057  -0.267   9.154  0.7421  0.7906  0.6487
  711MOL0     H93815   4.803  -0.247   9.133 -0.5355 -0.1590  1.2026
  711MOL0     H93816   4.423   0.200   9.135  1.3294  1.6506  1.3759
  711MOL0     H93817   4.188   0.238   9.189 -1.9647  2.3069  4.3472
  711MOL0     H93818   3.965   0.207   9.241  0.9373  0.8666 -1.0015
  711MOL0     H93819   4.010   0.347   9.347 -1.6979  0.9072 -0.4154
  711MOL0     H93820   3.793   0.320   9.385 -1.4475  0.0711  3.1063
  711MOL0     H93821   3.867   0.234   9.526  2.6560 -2.1343 -1.2928
  711MOL0     H93822   3.797   0.020   9.412  1.4228  0.3790 -1.0362
  711MOL0     H93823   3.738   0.111   9.278  0.3317  0.6823  0.0710
  711MOL0     H93824   3.622   0.161   9.547 -0.8763  2.5710 -0.4200
  711MOL0     H93825   3.568   0.233   9.395 -0.3180  0.3574 -1.0340
  711MOL0     H93826   3.546  -0.061   9.455  1.6418  0.6987 -2.1654
  711MOL0     H93827   3.502   0.011   9.310  2.7921 -2.1305  0.4435
  711MOL0     H93828   3.309   0.103   9.396  1.9134  3.1806 -0.3038
  711MOL0     H93829   3.371   0.136   9.556 -2.1409 -1.5615  1.5236
  711MOL0     H93830   3.269  -0.122   9.436 -0.3911  1.6539  0.1175
  711MOL0     H93831   3.364  -0.128   9.577 -0.7116  0.5839  3.0310
  711MOL0     H93832   3.112  -0.121   9.629 -0.5325 -0.1829 -1.0695
  711MOL0     H93833   3.089   0.015   9.531  1.2536 -0.8264 -0.9733
  711MOL0     H93834   4.261   0.046   9.572  2.3106  1.1668  0.8238
  711MOL0     H93835   4.491   0.007   9.496 -0.5412  1.2448  1.4320
  711MOL0     H93836   4.844   0.161   9.267 -3.5228  0.9942 -3.6287
  711MOL0     H93837   5.080   0.138   9.259 -0.2474 -1.0747  0.9981
  711MOL0     H93838   4.694   0.201   8.622  2.9931  2.4744 -2.6518
  711MOL0     H93839   4.480   0.052   8.609  2.1266  1.8294  1.7846
  711MOL0     H93840   4.164  -0.129   8.421  0.0950 -0.4515 -1.1633
  711MOL0     H93841   3.953  -0.232   8.351 -2.7437 -1.4586  1.2196
  711MOL0     H93842   3.764  -0.259   8.241  3.2616  1.4298  1.2960
  711MOL0     H93843   3.594  -0.239   8.283 -0.0243  1.8279  0.1225
  711MOL0     H93844   3.662  -0.443   8.424  1.8063 -0.9094  3.9070
  711MOL0     H93845   3.812  -0.366   8.459  1.3782  2.7962  0.9328
  711MOL0     H93846   3.567  -0.216   8.552  0.8148 -0.1683 -0.9309
  711MOL0     H93847   3.698  -0.269   8.645  0.2398 -1.2109  0.2592
  711MOL0     H93848   3.590  -0.499   8.643 -1.0443  0.4296  1.4447
  711MOL0     H93849   3.495  -0.377   8.713  0.8835  1.3297  1.3692
  711MOL0     H93850   3.260  -0.374   8.377 -0.5412 -0.7638  0.4113
  711MOL0     H93851   3.728   0.123   8.472 -0.3898  0.6756  1.4173
  711MOL0     H93852   3.949   0.236   8.519  1.8528 -0.3694 -0.2477
  712MOL0     O93853  10.896   8.326   5.580  0.3112  0.4536 -0.1683
  712MOL0     C93854  10.915   8.239   5.668 -0.0686  0.9238 -0.0655
  712MOL0     O93855  10.819   8.163   5.728 -0.2257  0.4181  0.7254
  712MOL0     C93856  10.683   8.167   5.708  0.0994  0.7796 -1.1835
  712MOL0     C93857  10.611   8.268   5.650  0.2497  0.1582 -0.2601
  712MOL0     C93858  10.473   8.246   5.620  0.3615 -0.5719 -0.0280
  712MOL0     C93859  10.412   8.120   5.639 -0.1387 -0.4286 -0.4191
  712MOL0     O93860  10.276   8.087   5.606  0.4485 -0.2541 -0.7485
  712MOL0     C93861  10.229   8.130   5.475  0.0552  0.2841  0.4916
  712MOL0     C93862  10.133   8.244   5.502  0.2097 -0.2015  0.4963
  712MOL0     C93863  10.022   8.194   5.600 -1.1964  0.5016  0.9437
  712MOL0     C93864   9.911   8.295   5.584 -0.2021  0.4581 -0.0091
  712MOL0     C93865   9.791   8.255   5.667  0.2937  0.2571 -0.0028
  712MOL0     C93866   9.674   8.249   5.573  0.9391 -0.2096 -0.4495
  712MOL0     C93867   9.538   8.232   5.655 -0.1338  0.3935  0.5556
  712MOL0     C93868   9.422   8.218   5.556 -0.6111  0.4478  0.2256
  712MOL0     N93869   9.286   8.211   5.604 -0.9499 -0.3104 -0.1759
  712MOL0     C93870   9.175   8.281   5.563 -0.1336 -0.5957 -0.3109
  712MOL0     C93871   9.068   8.215   5.614 -0.3085 -0.4321  0.8790
  712MOL0     C93872   8.923   8.244   5.577  0.9065  0.3878  0.1019
  712MOL0     C93873   8.834   8.295   5.695 -0.1432  0.9243  0.3622
  712MOL0     C93874   8.702   8.348   5.629 -0.2677  1.1194  0.4341
  712MOL0     C93875   8.568   8.348   5.707  0.2311  2.0516  0.4940
  712MOL0     O93876   8.475   8.382   5.606  0.5735 -0.6331 -0.7647
  712MOL0     C93877   8.344   8.354   5.622 -0.2243  0.6100 -1.0120
  712MOL0     C93878   8.292   8.303   5.745  0.0002  0.3383 -0.3619
  712MOL0     C93879   8.154   8.279   5.761  0.1949 -0.6920 -0.2195
  712MOL0     C93880   8.060   8.307   5.653 -0.0313 -1.1714  0.3109
  712MOL0     C93881   7.915   8.279   5.655  0.1077  0.4747  0.9695
  712MOL0     O93882   7.865   8.191   5.752 -0.6699 -1.1818 -0.3456
  712MOL0     C93883   7.725   8.169   5.750 -0.4253 -0.1165  0.0397
  712MOL0     C93884   7.646   8.198   5.870  0.4261 -0.3077 -0.3628
  712MOL0     C93885   7.505   8.205   5.866  0.6597  0.1745  0.4666
  712MOL0     C93886   7.435   8.189   5.747 -0.5806  0.7258  0.5462
  712MOL0     O93887   7.301   8.227   5.740 -0.2032  0.8737 -0.6470
  712MOL0     C93888   7.213   8.169   5.633  0.3915 -0.0462  0.2503
  712MOL0     C93889   7.087   8.113   5.704  0.6674 -0.4717  0.5884
  712MOL0     C93890   7.119   7.997   5.801 -0.3556  0.8549 -0.5487
  712MOL0     C93891   6.997   7.911   5.848  0.3331  0.1123  0.1468
  712MOL0     C93892   7.043   7.779   5.911  0.3763  1.0458 -0.3230
  712MOL0     C93893   6.933   7.689   5.964 -0.7003 -0.5716 -0.3510
  712MOL0     C93894   6.852   7.616   5.853  0.3957 -0.3168  0.2350
  712MOL0     C93895   6.726   7.549   5.921 -0.4581  0.4363  1.4236
  712MOL0    Cl93896   6.612   7.477   5.793 -0.1402 -0.2655 -0.1238
  712MOL0     C93897   7.509   8.158   5.634  0.2819  0.6653  0.3908
  712MOL0     C93898   7.651   8.143   5.634  0.7698 -0.9204 -0.0354
  712MOL0     O93899   7.847   8.326   5.558  0.4960 -0.3567  0.3400
  712MOL0     C93900   8.117   8.356   5.537 -0.3533 -0.8408  0.5844
  712MOL0     C93901   8.253   8.375   5.516  0.0242  0.3057  0.3546
  712MOL0     N93902   9.111   8.126   5.710 -0.2008  0.1442 -0.1960
  712MOL0     N93903   9.243   8.128   5.702  0.3498 -0.4403  0.4884
  712MOL0     C93904  10.487   8.022   5.701  1.5591 -0.3914  0.4060
  712MOL0     C93905  10.620   8.048   5.742  0.2398  0.1603  0.6024
  712MOL0     C93906  11.053   8.199   5.710 -0.4088  0.7707 -0.5124
  712MOL0     C93907  11.070   8.144   5.842  0.1406 -0.1106 -0.8986
  712MOL0     C93908  11.201   8.119   5.890 -0.3131 -0.1337  0.1594
  712MOL0     C93909  11.315   8.131   5.806  0.2577  0.4507  1.0856
  712MOL0     O93910  11.447   8.136   5.850  0.1920 -0.4881  0.5933
  712MOL0     C93911  11.471   8.173   5.986 -0.6521 -0.6166  0.4572
  712MOL0     C93912  11.609   8.234   5.988 -0.2458 -0.8183 -0.4449
  712MOL0     C93913  11.732   8.149   5.984  0.6520  0.2330 -0.1726
  712MOL0     C93914  11.721   8.017   5.893 -0.3282  0.1846 -0.0908
  712MOL0     C93915  11.848   7.944   5.866 -0.2315 -0.6886  0.0404
  712MOL0     C93916  11.944   7.879   5.836  0.1162  0.3511  0.0668
  712MOL0     C93917  11.293   8.188   5.673 -0.2019  0.6336 -0.7248
  712MOL0     C93918  11.166   8.218   5.633 -0.0156 -0.2757  0.4985
  712MOL0     H93919  10.657   8.365   5.633  0.5812  0.1624  0.6145
  712MOL0     H93920  10.412   8.322   5.573  0.6756  0.6434  1.4305
  712MOL0     H93921  10.174   8.046   5.430 -0.2740  0.3141  0.8369
  712MOL0     H93922  10.311   8.158   5.408 -0.3743  0.1740 -0.0889
  712MOL0     H93923  10.096   8.274   5.404  1.0078 -0.0976  0.2150
  712MOL0     H93924  10.192   8.329   5.536  0.8375 -0.6216  0.4773
  712MOL0     H93925  10.059   8.197   5.703  1.5984 -0.9104  0.0657
  712MOL0     H93926   9.994   8.089   5.582  0.3124  0.2814 -0.2377
  712MOL0     H93927   9.944   8.394   5.617  0.9343  0.5688 -1.3689
  712MOL0     H93928   9.883   8.298   5.478  1.0099  0.4619 -0.3504
  712MOL0     H93929   9.769   8.340   5.734  0.2506 -0.2844  0.6806
  712MOL0     H93930   9.796   8.158   5.718 -2.5095 -0.6743 -1.3140
  712MOL0     H93931   9.686   8.158   5.513 -1.2521 -0.3793 -0.7048
  712MOL0     H93932   9.657   8.331   5.502  1.7240 -0.6319 -1.1441
  712MOL0     H93933   9.549   8.153   5.730  1.7282  1.2039  1.2148
  712MOL0     H93934   9.523   8.325   5.710 -0.9197  1.0186 -0.6871
  712MOL0     H93935   9.451   8.122   5.513 -2.4248  0.2865 -0.7496
  712MOL0     H93936   9.428   8.305   5.490 -1.9061 -1.6060 -2.8271
  712MOL0     H93937   9.158   8.357   5.489 -0.2235  0.8917  1.1750
  712MOL0     H93938   8.871   8.158   5.535  0.8354  0.3487  0.2667
  712MOL0     H93939   8.931   8.319   5.498  0.2989  0.8820  0.4979
  712MOL0     H93940   8.893   8.371   5.747  1.0670 -0.1900  0.6559
  712MOL0     H93941   8.826   8.210   5.763 -0.4804 -0.8655 -1.7941
  712MOL0     H93942   8.714   8.447   5.583 -0.2652  1.4473  1.1268
  712MOL0     H93943   8.694   8.288   5.538  1.5153  3.5379 -1.4412
  712MOL0     H93944   8.567   8.422   5.788  0.9674  1.0037  1.4913
  712MOL0     H93945   8.537   8.248   5.739 -0.2932  1.7671 -0.8359
  712MOL0     H93946   8.350   8.288   5.836 -1.4220 -2.4395  0.2151
  712MOL0     H93947   8.117   8.242   5.856 -3.2516  0.5796 -0.9259
  712MOL0     H93948   7.702   8.225   5.959 -0.1985  1.5401 -0.4842
  712MOL0     H93949   7.447   8.229   5.955 -1.3958 -3.2407  0.2218
  712MOL0     H93950   7.257   8.082   5.583  0.2198  0.3963 -0.6850
  712MOL0     H93951   7.203   8.233   5.545  2.4862  1.6187  1.1348
  712MOL0     H93952   7.021   8.078   5.624  2.3849 -0.8260 -0.7581
  712MOL0     H93953   7.026   8.189   5.753 -3.7019 -1.4046 -2.7092
  712MOL0     H93954   7.169   8.042   5.888  2.7521  0.2602 -1.8767
  712MOL0     H93955   7.196   7.933   5.757 -0.8490 -0.4374  0.3840
  712MOL0     H93956   6.927   7.969   5.909 -2.2277 -1.4035 -1.1652
  712MOL0     H93957   6.938   7.894   5.758  0.5385  1.5944 -0.2917
  712MOL0     H93958   7.103   7.808   5.998  0.1536  2.4764 -0.6101
  712MOL0     H93959   7.111   7.720   5.848 -0.4707 -0.6879  0.3409
  712MOL0     H93960   6.864   7.758   6.013  0.2664  1.2065 -1.3752
  712MOL0     H93961   6.983   7.612   6.024 -0.0696 -0.6875 -1.0112
  712MOL0     H93962   6.820   7.686   5.775  2.5279 -0.4689 -0.8687
  712MOL0     H93963   6.903   7.539   5.794  0.0060 -1.1024  0.9038
  712MOL0     H93964   6.661   7.617   5.978 -0.7037  1.3579  0.0796
  712MOL0     H93965   6.761   7.467   5.985  1.3223 -0.3211 -0.4291
  712MOL0     H93966   7.446   8.142   5.547  0.1723  0.9183  0.4230
  712MOL0     H93967   7.693   8.100   5.543 -0.4510 -1.1742 -0.4996
  712MOL0     H93968   8.062   8.373   5.445  1.6283 -1.3116 -0.7686
  712MOL0     H93969   8.291   8.405   5.419 -0.8631 -1.0151 -0.4387
  712MOL0     H93970  10.436   7.932   5.736 -1.7189  1.1433  0.0055
  712MOL0     H93971  10.670   7.967   5.794  2.0678 -0.8730 -2.4776
  712MOL0     H93972  10.988   8.121   5.908 -1.5948  0.4757 -2.7206
  712MOL0     H93973  11.221   8.079   5.989  2.5126  1.0720  0.1635
  712MOL0     H93974  11.463   8.086   6.052 -0.5032 -1.3042 -0.4027
  712MOL0     H93975  11.415   8.262   6.014  0.4846  0.0115  0.7677
  712MOL0     H93976  11.622   8.307   5.907  0.5383  0.5336  0.8366
  712MOL0     H93977  11.631   8.293   6.078 -4.5226  0.6120 -0.1233
  712MOL0     H93978  11.764   8.120   6.084  2.8083  0.2132 -0.8149
  712MOL0     H93979  11.814   8.188   5.923  0.7533 -3.5979 -2.8566
  712MOL0     H93980  11.659   7.945   5.947  2.1731 -0.5243  2.0674
  712MOL0     H93981  11.670   8.044   5.800 -0.8027 -0.9423 -0.1722
  712MOL0     H93982  12.028   7.817   5.811  0.2151 -0.5124  2.2236
  712MOL0     H93983  11.383   8.224   5.624  1.4493  0.2088  1.8325
  712MOL0     H93984  11.159   8.278   5.542  0.4340  0.2410  0.8026
  713MOL0     O93985   2.364   4.423   7.361 -0.5766 -0.2311 -0.4557
  713MOL0     C93986   2.399   4.314   7.303 -1.0760  0.1899 -1.3449
  713MOL0     O93987   2.522   4.258   7.328 -0.1917 -0.2931  0.3441
  713MOL0     C93988   2.631   4.319   7.385 -0.4943 -0.6058 -0.4731
  713MOL0     C93989   2.626   4.415   7.488 -0.4294  0.2633  0.1110
  713MOL0     C93990   2.747   4.461   7.556 -0.1051  0.3475  0.5647
  713MOL0     C93991   2.874   4.415   7.512 -0.3164 -0.0236  0.3382
  713MOL0     O93992   2.984   4.442   7.588  0.3738 -0.7337  0.7155
  713MOL0     C93993   3.004   4.573   7.647 -0.2877  0.3675  0.2753
  713MOL0     C93994   3.148   4.589   7.685  0.0236 -0.4465  0.5088
  713MOL0     C93995   3.205   4.478   7.777 -0.2086 -0.3415  0.6082
  713MOL0     C93996   3.340   4.517   7.827 -0.5341  0.2466  0.3798
  713MOL0     C93997   3.447   4.415   7.873 -0.1619  0.3118  0.1990
  713MOL0     C93998   3.402   4.318   7.977 -0.5927  1.1356  0.1899
  713MOL0     C93999   3.445   4.353   8.112 -0.2671 -0.0694  0.8625
  713MOL0     C94000   3.381   4.268   8.232  0.5401 -0.0065  0.0815
  713MOL0     N94001   3.238   4.241   8.213  0.3612  0.0380 -0.2605
  713MOL0     C94002   3.146   4.338   8.220  0.3200 -0.3613  0.1288
  713MOL0     C94003   3.033   4.281   8.174 -0.3885  0.1432 -0.3012
  713MOL0     C94004   2.903   4.352   8.137 -0.8476  0.4430  0.5742
  713MOL0     C94005   2.796   4.272   8.055 -0.1097  0.8620  0.4453
  713MOL0     C94006   2.839   4.238   7.916 -0.4024 -0.1987 -0.5633
  713MOL0     C94007   2.736   4.164   7.831 -0.1472 -0.7903  0.1655
  713MOL0     O94008   2.610   4.243   7.837  1.1331  0.4554 -0.4211
  713MOL0     C94009   2.500   4.182   7.779  0.8801  0.3676  0.4644
  713MOL0     C94010   2.489   4.049   7.760 -0.4398  0.4201  0.5460
  713MOL0     C94011   2.384   3.996   7.691  1.2111  0.3484  0.0969
  713MOL0     C94012   2.273   4.079   7.646 -1.1625  0.4929  1.1160
  713MOL0     C94013   2.156   4.029   7.573 -0.8255 -0.9036  0.9198
  713MOL0     O94014   2.054   4.113   7.551  0.2731 -0.3486 -0.1349
  713MOL0     C94015   1.936   4.067   7.500  0.0125 -0.5596 -0.7416
  713MOL0     C94016   1.934   4.032   7.364  0.6918  0.0689 -0.3953
  713MOL0     C94017   1.816   3.973   7.304 -0.3636  0.5244  0.1757
  713MOL0     C94018   1.699   3.954   7.383 -0.1605 -0.2140  0.4650
  713MOL0     O94019   1.577   3.927   7.337  0.0756 -0.2014  0.4446
  713MOL0     C94020   1.546   4.000   7.214 -0.1991 -0.2338 -0.0714
  713MOL0     C94021   1.482   3.907   7.113 -0.5930  0.5142 -0.5544
  713MOL0     C94022   1.364   3.825   7.156 -0.1634  0.6402 -0.4909
  713MOL0     C94023   1.239   3.892   7.106 -0.3134  0.0257 -0.4850
  713MOL0     C94024   1.110   3.855   7.184 -0.0362  0.7561 -1.2153
  713MOL0     C94025   0.980   3.917   7.118  0.5765  0.2420  0.2556
  713MOL0     C94026   0.848   3.892   7.207 -0.8839 -0.4293  0.1733
  713MOL0     C94027   0.720   3.910   7.129  0.1591 -0.5914 -0.3088
  713MOL0    Cl94028   0.581   3.939   7.250 -0.2405  0.5268  0.1639
  713MOL0     C94029   1.704   3.991   7.520 -0.0981  0.7185  1.2294
  713MOL0     C94030   1.816   4.050   7.575 -0.5764  0.4458  0.7750
  713MOL0     O94031   2.170   3.916   7.534 -0.1921  1.0128 -0.1133
  713MOL0     C94032   2.291   4.220   7.660  0.9844 -1.1482 -0.4083
  713MOL0     C94033   2.394   4.266   7.733 -0.2986  0.3605  0.1792
  713MOL0     N94034   3.063   4.149   8.132  0.4599  0.4294 -0.0838
  713MOL0     N94035   3.186   4.133   8.159  0.0564  0.5978 -0.2831
  713MOL0     C94036   2.879   4.308   7.417 -0.3831 -0.2149  0.4997
  713MOL0     C94037   2.758   4.261   7.357 -0.3467 -0.5283  0.4020
  713MOL0     C94038   2.323   4.257   7.191  0.5626  0.3721 -0.1332
  713MOL0     C94039   2.385   4.183   7.092 -0.1943  1.1555 -0.0946
  713MOL0     C94040   2.310   4.141   6.977 -0.1439  0.9824  0.4304
  713MOL0     C94041   2.177   4.172   6.965  0.7675  0.0213 -0.1124
  713MOL0     O94042   2.094   4.140   6.856 -0.2934  0.2381  0.3317
  713MOL0     C94043   2.082   3.991   6.837 -0.3085  0.0400 -0.1251
  713MOL0     C94044   1.978   3.939   6.740  0.2238 -1.0795 -0.4216
  713MOL0     C94045   1.842   4.000   6.773 -0.2133 -0.5310 -0.2213
  713MOL0     C94046   1.734   3.961   6.671  0.0028 -0.2058  0.4993
  713MOL0     C94047   1.723   4.074   6.573  0.1883  0.7396  0.0936
  713MOL0     C94048   1.713   4.164   6.496  0.0661  0.1345  0.0989
  713MOL0     C94049   2.118   4.255   7.063  0.3908  0.6467 -0.7114
  713MOL0     C94050   2.192   4.290   7.178  0.7482  0.5654  0.9758
  713MOL0     H94051   2.535   4.454   7.531 -1.1374 -2.7245  1.5603
  713MOL0     H94052   2.728   4.531   7.637  3.8873  2.1450  0.1481
  713MOL0     H94053   2.926   4.586   7.723 -1.0072  1.6301 -0.6501
  713MOL0     H94054   2.987   4.645   7.567 -0.0875  0.4548  0.3108
  713MOL0     H94055   3.146   4.680   7.747 -5.0284 -1.5346  2.3950
  713MOL0     H94056   3.203   4.603   7.592 -1.0160  1.3219  0.1010
  713MOL0     H94057   3.211   4.385   7.719  2.4567 -1.2684  2.1863
  713MOL0     H94058   3.141   4.458   7.863 -0.6568 -1.2638  0.0728
  713MOL0     H94059   3.395   4.564   7.745  1.6111 -0.5806  1.2745
  713MOL0     H94060   3.327   4.591   7.906 -0.3487  1.8015 -0.9936
  713MOL0     H94061   3.544   4.459   7.897  0.4144 -0.1892 -1.0729
  713MOL0     H94062   3.470   4.361   7.780  1.4011 -0.7798  1.1676
  713MOL0     H94063   3.444   4.219   7.959 -1.0943  1.0878 -0.8240
  713MOL0     H94064   3.293   4.311   7.974 -0.5721  0.2361  1.0437
  713MOL0     H94065   3.554   4.359   8.108 -0.2820  2.6324  1.8960
  713MOL0     H94066   3.415   4.457   8.127 -0.5399 -0.0016 -0.0986
  713MOL0     H94067   3.397   4.306   8.333  0.2247 -0.1666  0.1928
  713MOL0     H94068   3.435   4.173   8.225  1.0100  0.2592  0.0923
  713MOL0     H94069   3.156   4.446   8.224  0.7602 -0.2570 -2.2182
  713MOL0     H94070   2.936   4.435   8.075 -2.7306 -0.6507 -2.0703
  713MOL0     H94071   2.859   4.391   8.229 -1.6570 -0.1128  0.4374
  713MOL0     H94072   2.705   4.333   8.060  0.3472  1.5187  0.9072
  713MOL0     H94073   2.782   4.172   8.096  0.9471  0.5239  0.0085
  713MOL0     H94074   2.846   4.334   7.864 -0.3103 -0.7961 -1.6900
  713MOL0     H94075   2.934   4.184   7.914  0.3894  1.1298  0.1001
  713MOL0     H94076   2.726   4.070   7.886 -2.9317 -0.4997  0.2770
  713MOL0     H94077   2.791   4.140   7.740  4.3063  0.6899  2.1678
  713MOL0     H94078   2.568   3.982   7.793  1.7637  1.9530 -1.2905
  713MOL0     H94079   2.377   3.888   7.689 -0.8681  0.1710  4.8944
  713MOL0     H94080   2.024   4.058   7.309  1.7587 -0.8879  0.8138
  713MOL0     H94081   1.831   3.951   7.199  0.3888  1.8712 -0.0205
  713MOL0     H94082   1.632   4.045   7.162 -1.4389  2.6441  0.1625
  713MOL0     H94083   1.471   4.080   7.221 -0.2376 -0.3803  1.4385
  713MOL0     H94084   1.560   3.831   7.104  0.4238  1.4700  0.0208
  713MOL0     H94085   1.465   3.956   7.017 -1.0995 -1.2958 -1.4190
  713MOL0     H94086   1.362   3.816   7.265  0.7932  1.1833 -0.4228
  713MOL0     H94087   1.359   3.726   7.110 -3.2257  0.3335  0.2825
  713MOL0     H94088   1.254   3.999   7.122  3.2168 -0.4289  0.0390
  713MOL0     H94089   1.235   3.874   6.998  3.0942 -2.4195 -0.3549
  713MOL0     H94090   1.104   3.890   7.287  0.8716  2.0007 -1.5614
  713MOL0     H94091   1.092   3.750   7.158  1.3958  1.2653 -4.7988
  713MOL0     H94092   0.971   3.864   7.023 -1.0960  0.0269  0.5010
  713MOL0     H94093   1.002   4.023   7.099  1.3814  0.1771  0.7569
  713MOL0     H94094   0.856   3.786   7.234  1.7133 -0.3156  0.1480
  713MOL0     H94095   0.853   3.965   7.287 -1.2550 -0.1231 -0.0808
  713MOL0     H94096   0.693   3.826   7.065 -1.1535  0.0412 -0.6218
  713MOL0     H94097   0.731   3.992   7.057 -0.6053 -0.2358 -0.0285
  713MOL0     H94098   1.617   3.993   7.585 -2.8177  1.1121 -2.1315
  713MOL0     H94099   1.804   4.072   7.680 -3.4794 -4.8177  1.9309
  713MOL0     H94100   2.216   4.281   7.611  0.1549 -0.6360  1.3838
  713MOL0     H94101   2.404   4.374   7.740  0.1152  0.2962  0.6185
  713MOL0     H94102   2.972   4.263   7.381 -1.6429 -2.9435  0.4308
  713MOL0     H94103   2.772   4.188   7.278  1.4629  1.8378 -1.6379
  713MOL0     H94104   2.490   4.156   7.096 -0.3892  0.4852  1.7630
  713MOL0     H94105   2.352   4.097   6.888 -0.0400  1.1164  0.4115
  713MOL0     H94106   2.059   3.943   6.932 -0.5960  0.8203  0.2068
  713MOL0     H94107   2.174   3.934   6.823 -1.0310 -2.0754  2.8432
  713MOL0     H94108   2.010   3.965   6.638 -0.3447  0.9804 -0.1314
  713MOL0     H94109   1.959   3.833   6.758  0.3602 -0.5780  3.5652
  713MOL0     H94110   1.853   4.109   6.780  1.1426 -0.7499  2.3502
  713MOL0     H94111   1.811   3.957   6.869 -2.3629 -3.6981 -2.1390
  713MOL0     H94112   1.761   3.865   6.626 -0.1790 -0.2573  0.4993
  713MOL0     H94113   1.639   3.952   6.723 -0.0991  0.6568  0.4711
  713MOL0     H94114   1.733   4.236   6.419  2.5879  1.5614  1.9451
  713MOL0     H94115   2.017   4.295   7.049 -0.4788 -1.3898 -0.5656
  713MOL0     H94116   2.137   4.354   7.246 -2.1771 -0.8354  0.0733
  714MOL0     O94117   7.937   3.354   3.020  0.1428  0.3455 -0.0020
  714MOL0     C94118   8.027   3.345   3.100  0.5053  0.3678  0.1156
  714MOL0     O94119   8.056   3.225   3.164 -0.6772  0.7501  0.5054
  714MOL0     C94120   7.987   3.108   3.133 -0.2492 -0.4924 -0.6391
  714MOL0     C94121   8.048   2.991   3.096 -0.7695 -0.7166  0.1185
  714MOL0     C94122   7.979   2.870   3.089  0.5975 -0.7659  0.5662
  714MOL0     C94123   7.850   2.858   3.126  0.2283 -0.7980 -0.0569
  714MOL0     O94124   7.781   2.742   3.130  0.2557 -0.0625  0.3500
  714MOL0     C94125   7.728   2.710   3.002 -0.6123  0.9548 -0.2390
  714MOL0     C94126   7.579   2.670   3.016 -0.2841 -0.6462 -0.3559
  714MOL0     C94127   7.519   2.629   2.886  0.1717  0.0727  0.4150
  714MOL0     C94128   7.374   2.577   2.906  0.1899 -1.0184  0.9608
  714MOL0     C94129   7.310   2.572   2.769  0.5044  0.6800 -0.2334
  714MOL0     C94130   7.170   2.512   2.766 -0.5314 -0.0517  0.1097
  714MOL0     C94131   7.111   2.473   2.633  0.1204 -0.9127  0.2159
  714MOL0     C94132   6.979   2.393   2.634  0.4991 -0.9042  0.7137
  714MOL0     N94133   6.936   2.390   2.488 -0.0657 -0.0125 -0.3946
  714MOL0     C94134   6.992   2.317   2.390  0.1484  0.4847  0.2349
  714MOL0     C94135   6.908   2.326   2.287 -0.4567 -0.2907 -0.5144
  714MOL0     C94136   6.936   2.277   2.156 -1.2430  0.2696  0.2324
  714MOL0     C94137   6.973   2.386   2.062  0.4296 -0.7626  0.0080
  714MOL0     C94138   7.072   2.500   2.105 -0.9789 -0.3473 -0.0917
  714MOL0     C94139   7.101   2.584   1.976  0.5315  0.0985 -0.2570
  714MOL0     O94140   7.194   2.681   2.023 -0.8093  0.3093  0.3273
  714MOL0     C94141   7.219   2.794   1.946  0.3053 -0.8546 -0.2921
  714MOL0     C94142   7.177   2.799   1.815 -0.5465 -0.1494  0.4741
  714MOL0     C94143   7.177   2.916   1.749  0.4278 -1.0013 -0.2366
  714MOL0     C94144   7.238   3.033   1.801  0.4119 -0.4591  0.6572
  714MOL0     C94145   7.233   3.154   1.732  0.1893  0.6892  1.0100
  714MOL0     O94146   7.156   3.166   1.619  1.0800 -0.0279 -0.1350
  714MOL0     C94147   7.180   3.280   1.544  0.0283 -0.0260 -1.3325
  714MOL0     C94148   7.077   3.367   1.507  0.0555  0.3305 -0.9641
  714MOL0     C94149   7.103   3.482   1.446  0.3055  0.3032 -0.0584
  714MOL0     C94150   7.227   3.510   1.387 -0.4680 -0.4618  0.2086
  714MOL0     O94151   7.257   3.617   1.310 -0.6841 -0.3822  0.1676
  714MOL0     C94152   7.301   3.733   1.374  0.0131 -1.0459  0.6934
  714MOL0     C94153   7.340   3.842   1.284 -0.0782 -0.1423  1.0526
  714MOL0     C94154   7.492   3.828   1.249 -0.0827  0.8035  0.1899
  714MOL0     C94155   7.534   3.912   1.128  0.8810 -0.6124  0.2327
  714MOL0     C94156   7.689   3.925   1.114  1.1738  0.7823  0.1389
  714MOL0     C94157   7.728   4.046   1.024 -0.2630  0.0152 -0.1737
  714MOL0     C94158   7.712   4.022   0.878  0.5520 -0.2353  0.5704
  714MOL0     C94159   7.820   3.948   0.795  0.4608  0.6125 -0.2418
  714MOL0    Cl94160   7.786   3.779   0.790 -0.1748  0.1908 -0.2493
  714MOL0     C94161   7.335   3.421   1.420  0.6482 -0.5520  0.1340
  714MOL0     C94162   7.308   3.304   1.499  0.3497 -0.0717  0.2600
  714MOL0     O94163   7.301   3.248   1.773 -0.3789  0.6222 -0.6581
  714MOL0     C94164   7.296   3.018   1.930 -0.2640  0.3514  0.1863
  714MOL0     C94165   7.281   2.903   2.002 -0.3243  0.6424 -0.5374
  714MOL0     N94166   6.799   2.400   2.321  0.7486  0.7438 -0.6122
  714MOL0     N94167   6.818   2.433   2.439  0.2746  0.2049  0.4258
  714MOL0     C94168   7.781   2.977   3.161  0.0134 -0.4894  0.1917
  714MOL0     C94169   7.856   3.100   3.174  0.2394  0.3752 -0.3537
  714MOL0     C94170   8.128   3.448   3.117  0.1100 -0.0880 -0.3037
  714MOL0     C94171   8.106   3.571   3.059  0.2329  0.0495 -0.0081
  714MOL0     C94172   8.193   3.681   3.063 -0.5690 -0.2403  0.0354
  714MOL0     C94173   8.317   3.656   3.114  0.2976 -0.1923 -0.1910
  714MOL0     O94174   8.422   3.745   3.116  0.6973  0.1239  0.0918
  714MOL0     C94175   8.545   3.704   3.051  0.6104 -0.8763 -0.9280
  714MOL0     C94176   8.665   3.720   3.148 -0.3020  0.1294  0.8417
  714MOL0     C94177   8.753   3.856   3.134  1.0233  0.0714  0.0614
  714MOL0     C94178   8.691   3.977   3.205 -1.0437 -0.2194  0.0105
  714MOL0     C94179   8.785   4.090   3.207  0.4264 -0.2236 -0.1472
  714MOL0     C94180   8.855   4.179   3.217  0.3080 -0.1246  0.5976
  714MOL0     C94181   8.342   3.537   3.192  0.0012  0.3842 -0.1419
  714MOL0     C94182   8.248   3.434   3.190 -0.5793  0.8533  0.5081
  714MOL0     H94183   8.157   2.990   3.087 -0.7761  1.4809 -0.6150
  714MOL0     H94184   8.027   2.778   3.055  0.7052 -0.9274  1.1396
  714MOL0     H94185   7.781   2.623   2.959  2.5549  2.0583  1.1046
  714MOL0     H94186   7.741   2.787   2.925  0.2451 -0.5548 -1.6932
  714MOL0     H94187   7.528   2.749   3.071  0.8569 -0.4472  0.4507
  714MOL0     H94188   7.577   2.583   3.082 -0.9740 -0.4004 -0.0518
  714MOL0     H94189   7.573   2.544   2.844 -2.0082 -2.0621  1.6506
  714MOL0     H94190   7.533   2.716   2.822 -2.2641  1.2429  1.3586
  714MOL0     H94191   7.372   2.480   2.958 -2.1779 -1.2769  0.4722
  714MOL0     H94192   7.309   2.647   2.959 -0.2750 -0.5447 -0.2069
  714MOL0     H94193   7.368   2.518   2.693 -1.4050 -0.2366 -1.1288
  714MOL0     H94194   7.307   2.670   2.720 -0.2701  1.0726  0.5712
  714MOL0     H94195   7.107   2.585   2.817 -1.0977  0.3664 -1.1337
  714MOL0     H94196   7.175   2.413   2.813  2.4089 -0.0465 -0.0029
  714MOL0     H94197   7.078   2.561   2.577 -0.3736 -1.3094 -0.1200
  714MOL0     H94198   7.189   2.418   2.579  0.6404 -0.5893  0.6328
  714MOL0     H94199   6.897   2.424   2.699  0.5955 -3.0301  1.9223
  714MOL0     H94200   7.006   2.301   2.686 -0.3376  0.8746  4.6573
  714MOL0     H94201   7.087   2.264   2.389 -0.7060 -1.1360  0.6783
  714MOL0     H94202   6.857   2.216   2.111  1.0421 -1.6312 -1.4951
  714MOL0     H94203   7.019   2.207   2.162 -1.1993  0.4234  1.9817
  714MOL0     H94204   6.882   2.438   2.030  0.1176 -1.5651 -0.4438
  714MOL0     H94205   7.007   2.339   1.970 -2.1222 -1.0830 -0.8498
  714MOL0     H94206   7.029   2.554   2.190 -3.6706 -0.7944 -1.0802
  714MOL0     H94207   7.164   2.452   2.139 -1.2147 -2.3760 -2.0893
  714MOL0     H94208   7.010   2.630   1.937 -0.1084 -0.5494  0.4360
  714MOL0     H94209   7.143   2.530   1.890 -0.7734  0.5754 -1.2228
  714MOL0     H94210   7.130   2.716   1.764  0.1027 -0.1111 -0.2066
  714MOL0     H94211   7.134   2.912   1.649  2.6066  1.7080 -1.4065
  714MOL0     H94212   6.975   3.345   1.537 -0.0329  1.1350 -0.6578
  714MOL0     H94213   7.025   3.551   1.414  1.7818  2.1326  0.1316
  714MOL0     H94214   7.382   3.710   1.444  0.5403  1.1921  0.8929
  714MOL0     H94215   7.222   3.769   1.440  0.6027 -0.3238  1.0251
  714MOL0     H94216   7.330   3.941   1.329 -0.9178 -0.3890  1.4284
  714MOL0     H94217   7.280   3.839   1.193 -0.9769 -0.3458  1.6326
  714MOL0     H94218   7.517   3.723   1.232  0.4162  0.8832  0.4220
  714MOL0     H94219   7.549   3.878   1.327  2.8720 -1.1328 -0.5802
  714MOL0     H94220   7.496   3.869   1.036  0.6293  1.0648 -0.4848
  714MOL0     H94221   7.490   4.010   1.146  2.1184  0.2287 -1.1117
  714MOL0     H94222   7.729   3.839   1.060 -1.5598  1.0756 -2.5982
  714MOL0     H94223   7.720   3.934   1.219 -1.9158  1.2674  1.1343
  714MOL0     H94224   7.830   4.082   1.043 -0.5662  1.5662 -1.1922
  714MOL0     H94225   7.672   4.132   1.062 -1.5168 -1.6593  1.9520
  714MOL0     H94226   7.615   3.976   0.860 -0.6162  2.0992  0.5377
  714MOL0     H94227   7.701   4.123   0.837  0.9853 -0.2259  0.4721
  714MOL0     H94228   7.916   3.968   0.845  0.1525 -2.5632  1.8786
  714MOL0     H94229   7.833   3.984   0.693  0.6106  2.4839  0.3952
  714MOL0     H94230   7.435   3.437   1.380  1.0650  1.6354  1.8521
  714MOL0     H94231   7.393   3.239   1.517  0.4596 -1.0002 -2.9721
  714MOL0     H94232   7.348   3.099   1.981  1.7841  1.4573 -3.2753
  714MOL0     H94233   7.331   2.897   2.098 -0.7219  3.2660 -0.0968
  714MOL0     H94234   7.678   2.974   3.195 -0.7491  3.5819 -1.2573
  714MOL0     H94235   7.813   3.190   3.216  1.8982  1.0266  0.0246
  714MOL0     H94236   8.005   3.582   3.020 -1.4402 -0.6633  3.6887
  714MOL0     H94237   8.169   3.782   3.030 -0.0920  0.6678  2.2461
  714MOL0     H94238   8.554   3.768   2.963 -0.6984  0.8508  0.1381
  714MOL0     H94239   8.550   3.600   3.017  2.3127 -0.3063 -2.6134
  714MOL0     H94240   8.635   3.712   3.253 -0.0381  0.8837  0.9830
  714MOL0     H94241   8.728   3.637   3.114  0.1260  0.3727  1.0433
  714MOL0     H94242   8.761   3.874   3.027 -0.5146 -2.1404 -0.4967
  714MOL0     H94243   8.849   3.829   3.179  1.3702 -2.4813 -1.9973
  714MOL0     H94244   8.597   3.998   3.153  0.7488  2.4096 -2.4613
  714MOL0     H94245   8.675   3.950   3.310 -0.3291  1.6668  0.6627
  714MOL0     H94246   8.934   4.251   3.226 -0.9729  1.6478 -1.3080
  714MOL0     H94247   8.436   3.527   3.246 -0.4404 -0.1803  0.5469
  714MOL0     H94248   8.291   3.344   3.232 -1.4632  0.4574  0.5863
  715MOL0     O94249  10.908   5.744   5.114 -0.2298 -0.4642  0.0733
  715MOL0     C94250  10.971   5.701   5.022 -0.6010 -0.0632  0.6580
  715MOL0     O94251  10.943   5.713   4.886  0.3463 -0.1095 -0.1707
  715MOL0     C94252  10.829   5.777   4.850 -1.0604  0.9443 -0.1383
  715MOL0     C94253  10.711   5.759   4.919 -0.8654 -0.0173  0.0653
  715MOL0     C94254  10.597   5.833   4.880  0.3911 -0.5278  0.2649
  715MOL0     C94255  10.595   5.915   4.772 -0.4055  0.4252 -0.8329
  715MOL0     O94256  10.494   5.999   4.738  0.3832  0.1256 -0.0488
  715MOL0     C94257  10.374   6.015   4.820 -0.4081  0.8155  0.0363
  715MOL0     C94258  10.276   6.120   4.763 -0.3362 -0.7962  0.1458
  715MOL0     C94259  10.156   6.146   4.852 -1.0149 -0.4488 -0.2455
  715MOL0     C94260  10.069   6.028   4.892  0.6178  0.2896  0.6489
  715MOL0     C94261   9.987   5.947   4.779  0.2641 -0.6616 -0.1163
  715MOL0     C94262   9.913   6.025   4.674 -0.0530 -0.5389  0.8917
  715MOL0     C94263   9.823   6.132   4.743  0.2878 -0.0457 -0.3640
  715MOL0     C94264   9.755   6.213   4.640 -0.5287 -0.5166  0.5406
  715MOL0     N94265   9.636   6.285   4.681  0.0940 -0.2256  0.4159
  715MOL0     C94266   9.511   6.226   4.676 -0.1679  0.0244 -0.6471
  715MOL0     C94267   9.423   6.326   4.668 -0.4224  0.1679 -0.0228
  715MOL0     C94268   9.273   6.315   4.682  1.0696  0.8203 -0.1205
  715MOL0     C94269   9.225   6.346   4.825  0.2186  0.3134 -0.4296
  715MOL0     C94270   9.074   6.311   4.842 -0.0553 -0.2706  0.5472
  715MOL0     C94271   9.032   6.375   4.965 -0.3203 -1.1478  0.2003
  715MOL0     O94272   8.898   6.339   4.981 -0.4453 -0.0772  1.0409
  715MOL0     C94273   8.809   6.422   5.029 -0.2026  0.0695 -0.9194
  715MOL0     C94274   8.673   6.383   5.004  0.0397  0.6110  0.3971
  715MOL0     C94275   8.570   6.472   5.027  0.5496 -0.3209  0.4181
  715MOL0     C94276   8.599   6.599   5.074  0.4991 -0.0275  0.2367
  715MOL0     C94277   8.491   6.699   5.102 -0.5101  0.0216 -0.4499
  715MOL0     O94278   8.364   6.668   5.093 -0.2526  0.1586 -0.3903
  715MOL0     C94279   8.257   6.746   5.134  0.3241  0.1142 -1.0907
  715MOL0     C94280   8.128   6.688   5.125  0.0372  0.4350  0.6625
  715MOL0     C94281   8.012   6.758   5.147 -0.5764  0.0085  0.3257
  715MOL0     C94282   8.023   6.893   5.187 -0.1379 -0.0382  0.9819
  715MOL0     O94283   7.918   6.979   5.179  0.5451  0.2089 -0.3983
  715MOL0     C94284   7.816   6.947   5.074  0.1920 -0.6255 -0.1550
  715MOL0     C94285   7.738   7.071   5.037 -0.4504  0.5508 -0.2721
  715MOL0     C94286   7.629   7.011   4.943 -0.2829 -0.0863  0.6629
  715MOL0     C94287   7.554   7.127   4.888  0.5339  0.2943 -0.3505
  715MOL0     C94288   7.489   7.088   4.758 -0.0526 -1.3730 -1.0105
  715MOL0     C94289   7.397   7.193   4.685 -1.0403  0.4827 -0.2649
  715MOL0     C94290   7.467   7.330   4.676  0.0615 -0.6695  0.9062
  715MOL0     C94291   7.367   7.431   4.629 -0.3382  0.2711 -0.5373
  715MOL0    Cl94292   7.333   7.410   4.458 -0.2381  0.0620  0.0234
  715MOL0     C94293   8.141   6.951   5.212 -0.4292 -0.3828 -0.3209
  715MOL0     C94294   8.252   6.872   5.196 -0.1867 -0.8955 -0.6250
  715MOL0     O94295   8.528   6.810   5.142  0.3671 -0.6770 -1.1482
  715MOL0     C94296   8.730   6.627   5.123  0.5992 -0.7121 -0.0992
  715MOL0     C94297   8.837   6.532   5.112  0.3298 -0.1578 -0.1860
  715MOL0     N94298   9.499   6.446   4.662  0.4749  0.3267 -0.1697
  715MOL0     N94299   9.612   6.423   4.690 -0.3490  0.6032 -0.1962
  715MOL0     C94300  10.704   5.928   4.694  1.0216 -0.0237  0.6162
  715MOL0     C94301  10.830   5.866   4.739  0.0762  0.0763  0.0819
  715MOL0     C94302  11.095   5.632   5.062  0.8813  0.5358  0.0543
  715MOL0     C94303  11.152   5.538   4.979 -0.4456 -0.7183  0.6212
  715MOL0     C94304  11.269   5.471   5.016 -0.3205  0.7431  0.4081
  715MOL0     C94305  11.331   5.489   5.138 -0.1901 -0.5797 -0.8242
  715MOL0     O94306  11.444   5.431   5.177  0.1762 -0.0760  0.2741
  715MOL0     C94307  11.545   5.397   5.081 -0.3984  0.2281 -0.2911
  715MOL0     C94308  11.637   5.279   5.139  0.7972 -0.7279  0.2453
  715MOL0     C94309  11.774   5.266   5.082  0.1919  0.0378 -0.0027
  715MOL0     C94310  11.875   5.203   5.182 -0.1986 -0.5256 -0.2209
  715MOL0     C94311  11.836   5.060   5.204  0.4288 -0.0057 -0.5446
  715MOL0     C94312  11.826   4.941   5.212  0.2600  0.1122  0.7037
  715MOL0     C94313  11.269   5.590   5.218 -0.6038  0.2208  0.8411
  715MOL0     C94314  11.154   5.655   5.185  1.0039 -0.3607 -0.3604
  715MOL0     H94315  10.697   5.689   5.001 -1.4849  1.1007  0.9496
  715MOL0     H94316  10.504   5.829   4.936 -0.8630 -0.7598 -1.7243
  715MOL0     H94317  10.400   6.053   4.919 -0.0455  1.6810 -0.3853
  715MOL0     H94318  10.315   5.922   4.827 -2.9003  2.4185  2.7568
  715MOL0     H94319  10.236   6.085   4.667 -1.1734 -1.1984  0.6213
  715MOL0     H94320  10.332   6.210   4.739 -0.6197 -0.3241  1.2001
  715MOL0     H94321  10.094   6.220   4.802  0.2476  2.0617  1.6937
  715MOL0     H94322  10.203   6.180   4.945  3.0155 -3.6545 -0.8180
  715MOL0     H94323  10.124   5.956   4.953  0.7282  0.8768  1.2440
  715MOL0     H94324   9.991   6.068   4.957  1.4427  1.3301  1.0187
  715MOL0     H94325   9.917   5.885   4.834  2.2680 -0.7573  2.5355
  715MOL0     H94326  10.059   5.880   4.730  1.9367  0.3470  0.8396
  715MOL0     H94327   9.862   5.957   4.606  2.5748 -0.3216 -1.5049
  715MOL0     H94328   9.992   6.072   4.614 -3.0946  0.3406 -2.7740
  715MOL0     H94329   9.750   6.078   4.804 -0.7767 -0.6207 -2.0623
  715MOL0     H94330   9.872   6.204   4.809  1.0719 -0.2736 -0.6905
  715MOL0     H94331   9.724   6.145   4.560  1.9542  0.3156 -1.2731
  715MOL0     H94332   9.822   6.289   4.598  0.1834 -1.2102  0.3886
  715MOL0     H94333   9.489   6.120   4.686  4.8008 -1.0974  1.5053
  715MOL0     H94334   9.235   6.221   4.641  2.7732  1.3308 -3.0804
  715MOL0     H94335   9.223   6.386   4.616  3.6330  2.7490 -0.1156
  715MOL0     H94336   9.238   6.450   4.857  0.4644  0.7709 -1.9445
  715MOL0     H94337   9.279   6.281   4.895 -0.5479 -0.4903 -0.5726
  715MOL0     H94338   9.008   6.351   4.764 -0.6339 -1.4399  0.4083
  715MOL0     H94339   9.062   6.202   4.839  1.0443 -0.5913  3.7873
  715MOL0     H94340   9.046   6.482   4.947 -0.9059 -1.2012 -0.6500
  715MOL0     H94341   9.098   6.345   5.046  0.8814 -2.2998 -1.1588
  715MOL0     H94342   8.656   6.294   4.945  2.2078  1.3908 -1.5615
  715MOL0     H94343   8.465   6.457   5.003  0.1785 -1.4456  2.4853
  715MOL0     H94344   8.126   6.585   5.091  3.7244 -0.1648  1.7759
  715MOL0     H94345   7.913   6.715   5.135  0.0081 -1.4910  0.7462
  715MOL0     H94346   7.737   6.887   5.118 -3.8466  3.2985 -1.3403
  715MOL0     H94347   7.862   6.911   4.982 -0.1102  3.3002 -2.0521
  715MOL0     H94348   7.804   7.141   4.985  1.3522 -0.1888  0.9429
  715MOL0     H94349   7.692   7.114   5.126 -2.8865  1.0403 -1.6674
  715MOL0     H94350   7.571   6.928   4.986 -0.2196 -1.7630 -2.2024
  715MOL0     H94351   7.679   6.964   4.858 -0.4789 -0.2095  0.6147
  715MOL0     H94352   7.478   7.145   4.965  2.9431  0.1769  2.2299
  715MOL0     H94353   7.612   7.218   4.872  2.8323 -0.9113  0.7579
  715MOL0     H94354   7.425   7.000   4.774 -1.6348  0.1233  1.5063
  715MOL0     H94355   7.566   7.077   4.682  0.7129  1.0322 -0.6600
  715MOL0     H94356   7.301   7.210   4.735 -1.1873  2.9378 -1.2442
  715MOL0     H94357   7.389   7.153   4.584 -0.0597 -0.1622 -0.0991
  715MOL0     H94358   7.509   7.370   4.769 -1.4149  0.7901  0.9712
  715MOL0     H94359   7.545   7.324   4.599  0.2142 -1.6572  1.1241
  715MOL0     H94360   7.412   7.529   4.650 -0.7401  0.5263 -0.8666
  715MOL0     H94361   7.276   7.415   4.687  0.8153  0.6560  1.4675
  715MOL0     H94362   8.155   7.057   5.228 -1.3142 -0.2151 -0.6118
  715MOL0     H94363   8.343   6.929   5.209  0.8112 -1.6303 -3.6168
  715MOL0     H94364   8.745   6.723   5.171 -2.4049  1.0472 -2.3197
  715MOL0     H94365   8.932   6.578   5.136 -0.8959  2.2296  0.4727
  715MOL0     H94366  10.701   5.990   4.605  0.1410 -2.2116 -0.9699
  715MOL0     H94367  10.924   5.885   4.687 -0.0310 -0.2281 -0.2294
  715MOL0     H94368  11.120   5.534   4.875  0.5655 -2.2615  0.3404
  715MOL0     H94369  11.304   5.387   4.958 -2.2375 -1.0462  1.7148
  715MOL0     H94370  11.599   5.489   5.061 -3.1424  2.2109  0.7821
  715MOL0     H94371  11.517   5.359   4.982  1.6596  1.2670 -1.3391
  715MOL0     H94372  11.648   5.305   5.245 -2.3476  1.2786  0.2051
  715MOL0     H94373  11.590   5.180   5.135  1.7487 -1.3529  2.5301
  715MOL0     H94374  11.802   5.371   5.069 -0.0397  0.3983  2.0505
  715MOL0     H94375  11.770   5.209   4.988  0.8551  0.7232 -0.4533
  715MOL0     H94376  11.973   5.218   5.135 -0.5409  0.6530 -0.5866
  715MOL0     H94377  11.891   5.265   5.270  5.8941 -0.3790 -1.0027
  715MOL0     H94378  11.806   4.835   5.212  2.1653 -0.3543 -2.0254
  715MOL0     H94379  11.309   5.618   5.315 -2.3240  3.1035  0.8332
  715MOL0     H94380  11.120   5.735   5.250  3.2795 -0.5305  1.1747
  716MOL0     O94381   2.190   8.935   4.672 -0.1780 -0.3757  0.2521
  716MOL0     C94382   2.248   8.872   4.576 -0.5840 -0.6415 -0.3389
  716MOL0     O94383   2.197   8.764   4.508 -0.2173 -0.4025  0.3772
  716MOL0     C94384   2.067   8.733   4.492  0.2481 -0.2665 -0.6345
  716MOL0     C94385   2.037   8.679   4.365  0.8577 -0.8051  0.3041
  716MOL0     C94386   1.906   8.644   4.332  0.0685  0.3017 -0.2284
  716MOL0     C94387   1.798   8.668   4.419 -1.0198  0.3153 -0.0444
  716MOL0     O94388   1.670   8.647   4.364 -0.0983  0.1448 -0.4937
  716MOL0     C94389   1.553   8.689   4.439 -0.8073  0.3990 -0.1890
  716MOL0     C94390   1.425   8.702   4.357 -0.0546  0.1588 -0.3487
  716MOL0     C94391   1.392   8.842   4.297 -0.3947 -0.1271 -1.6086
  716MOL0     C94392   1.239   8.861   4.290  0.0652  0.1991  0.7168
  716MOL0     C94393   1.195   8.962   4.193 -0.2208 -0.2136 -0.2290
  716MOL0     C94394   1.204   9.098   4.264  0.2560 -0.4677  0.3335
  716MOL0     C94395   1.192   9.214   4.163 -0.5850 -0.3485 -0.2937
  716MOL0     C94396   1.306   9.230   4.057  0.8393 -0.5204  0.0748
  716MOL0     N94397   1.437   9.201   4.119 -0.2747  0.4025  0.3223
  716MOL0     C94398   1.504   9.083   4.114 -0.2094  0.3032 -0.2630
  716MOL0     C94399   1.611   9.085   4.192 -0.0397 -0.6620 -0.7926
  716MOL0     C94400   1.726   8.995   4.212  0.1846 -0.0174 -0.1956
  716MOL0     C94401   1.856   9.087   4.195 -0.3383 -0.6916  0.7576
  716MOL0     C94402   1.985   9.034   4.266 -0.1197 -0.0662  0.9468
  716MOL0     C94403   1.993   9.085   4.408 -0.3942  0.5329 -0.1170
  716MOL0     O94404   2.010   9.230   4.411 -0.1934 -0.4017 -0.3053
  716MOL0     C94405   2.127   9.296   4.410 -0.7860 -0.7933  1.1033
  716MOL0     C94406   2.130   9.428   4.433  0.6371  0.2389  0.3326
  716MOL0     C94407   2.245   9.504   4.432  0.4419  0.0419  0.0130
  716MOL0     C94408   2.373   9.452   4.426  0.3722  0.3049 -0.6237
  716MOL0     C94409   2.490   9.534   4.445 -0.2336 -0.5433 -0.6406
  716MOL0     O94410   2.600   9.472   4.487 -0.8270  0.0712 -0.3009
  716MOL0     C94411   2.726   9.531   4.467 -0.4170  0.8798  0.0014
  716MOL0     C94412   2.828   9.434   4.461  0.0624  0.5544 -0.3883
  716MOL0     C94413   2.962   9.473   4.453 -0.3898  0.1055 -0.7692
  716MOL0     C94414   2.998   9.604   4.469  0.2115 -0.0714 -1.9484
  716MOL0     O94415   3.123   9.639   4.521 -0.0687  0.2938 -0.5090
  716MOL0     C94416   3.208   9.699   4.413  0.3470  0.4474 -0.1874
  716MOL0     C94417   3.332   9.608   4.395  0.1195  0.0802  0.0717
  716MOL0     C94418   3.415   9.654   4.272 -0.3330  0.4609  0.4638
  716MOL0     C94419   3.506   9.541   4.227 -0.0482  0.3298  0.2990
  716MOL0     C94420   3.642   9.555   4.273 -0.5240 -0.0744 -0.0473
  716MOL0     C94421   3.738   9.448   4.213  0.2047 -0.1865  0.0878
  716MOL0     C94422   3.886   9.493   4.237  0.0470 -0.1255 -0.1304
  716MOL0     C94423   3.972   9.388   4.169  0.7932 -0.6428 -0.3067
  716MOL0    Cl94424   4.147   9.399   4.238 -0.1168 -0.6464  0.3732
  716MOL0     C94425   2.895   9.706   4.479  0.0903  0.6369 -0.4827
  716MOL0     C94426   2.764   9.665   4.479  0.0091  0.7136  1.2176
  716MOL0     O94427   2.477   9.655   4.426  0.3254  0.3559 -0.1819
  716MOL0     C94428   2.371   9.318   4.403  0.2105  0.6514  0.7039
  716MOL0     C94429   2.249   9.239   4.387  0.4926 -0.8009  1.2098
  716MOL0     N94430   1.595   9.199   4.266 -1.0397 -0.2658 -0.2070
  716MOL0     N94431   1.498   9.276   4.219 -0.1207  0.4798  0.3637
  716MOL0     C94432   1.833   8.711   4.551  0.2059  0.1328  0.4900
  716MOL0     C94433   1.965   8.727   4.584 -1.0730  0.1589 -0.6737
  716MOL0     C94434   2.382   8.907   4.542 -0.3467 -0.4724 -0.7330
  716MOL0     C94435   2.437   9.020   4.602  1.0653  0.5165  0.0131
  716MOL0     C94436   2.564   9.059   4.581  0.0551  0.2727  0.2813
  716MOL0     C94437   2.635   9.014   4.478 -0.5286  0.6248  1.2883
  716MOL0     O94438   2.752   9.078   4.450 -0.1451 -0.4274  0.2548
  716MOL0     C94439   2.875   8.999   4.480  0.4505  0.3274  0.0937
  716MOL0     C94440   2.957   9.068   4.578  0.1168  0.7472  0.2646
  716MOL0     C94441   3.108   9.023   4.589 -0.1396  1.3341 -0.5771
  716MOL0     C94442   3.192   9.091   4.477  0.2939 -0.8341  0.1384
  716MOL0     C94443   3.274   9.202   4.525 -0.3257 -0.7988  0.5593
  716MOL0     C94444   3.342   9.288   4.572 -0.8184  0.1967 -0.8401
  716MOL0     C94445   2.582   8.913   4.398 -0.0758  0.3818 -0.6057
  716MOL0     C94446   2.459   8.849   4.436  0.3563  0.7694 -0.6861
  716MOL0     H94447   2.116   8.652   4.295  3.1409  2.0836  1.5338
  716MOL0     H94448   1.865   8.609   4.238  0.4312  2.0944 -1.1001
  716MOL0     H94449   1.572   8.790   4.475  1.8968 -0.1773  0.2192
  716MOL0     H94450   1.537   8.615   4.518  0.0862 -0.9529 -1.2181
  716MOL0     H94451   1.337   8.681   4.419 -0.1817  1.6934  0.0154
  716MOL0     H94452   1.430   8.626   4.279  4.6693 -0.8386  0.6002
  716MOL0     H94453   1.432   8.839   4.196 -0.2310  1.8782 -1.6283
  716MOL0     H94454   1.425   8.919   4.368 -0.8019 -3.2970  2.4667
  716MOL0     H94455   1.191   8.768   4.257 -0.2202  0.5622  0.0742
  716MOL0     H94456   1.198   8.866   4.391  2.4035  0.2038  1.7099
  716MOL0     H94457   1.094   8.932   4.161  0.0563 -0.9864 -0.4064
  716MOL0     H94458   1.251   8.956   4.099 -1.8796 -1.7575 -1.1822
  716MOL0     H94459   1.294   9.116   4.322  0.0884  0.9606  0.2036
  716MOL0     H94460   1.119   9.102   4.333 -1.2827 -2.8438 -1.2746
  716MOL0     H94461   1.099   9.190   4.109 -0.7960  2.8685 -1.5853
  716MOL0     H94462   1.187   9.308   4.219  1.7290 -1.3807  1.8645
  716MOL0     H94463   1.304   9.332   4.019 -1.9670 -0.9143 -1.0376
  716MOL0     H94464   1.296   9.166   3.969  1.1041 -1.2174  0.5367
  716MOL0     H94465   1.479   9.001   4.048  1.6168 -0.4404 -0.0857
  716MOL0     H94466   1.716   8.910   4.144 -1.8328 -0.5502  0.6804
  716MOL0     H94467   1.716   8.959   4.315 -3.2526 -2.4147 -1.1986
  716MOL0     H94468   1.837   9.195   4.207  0.8907 -0.3925  0.1597
  716MOL0     H94469   1.874   9.073   4.088 -1.0190  1.5382  0.2916
  716MOL0     H94470   1.988   8.925   4.257 -0.2957 -0.1368  1.6424
  716MOL0     H94471   2.072   9.064   4.207  0.9842 -0.0350  2.5081
  716MOL0     H94472   2.082   9.037   4.449  1.6639  2.6933 -1.7323
  716MOL0     H94473   1.909   9.048   4.467 -2.1345  1.6866 -1.7167
  716MOL0     H94474   2.035   9.480   4.439  0.9593  0.6558  2.5660
  716MOL0     H94475   2.230   9.612   4.440  1.3389  0.1181  0.8746
  716MOL0     H94476   2.806   9.329   4.445  2.5190 -0.7103  3.2446
  716MOL0     H94477   3.037   9.396   4.437 -1.8728 -1.3912 -0.8135
  716MOL0     H94478   3.243   9.798   4.440  1.8225 -0.3129  0.8282
  716MOL0     H94479   3.149   9.705   4.321  0.0283 -0.5638 -0.0682
  716MOL0     H94480   3.294   9.507   4.379  1.7140 -0.3200 -1.4882
  716MOL0     H94481   3.378   9.605   4.494  0.1123 -0.6785  0.0554
  716MOL0     H94482   3.472   9.747   4.274  0.9772 -0.3119  0.4071
  716MOL0     H94483   3.337   9.683   4.201 -1.7107 -0.8181  1.3845
  716MOL0     H94484   3.477   9.441   4.261  1.6313  0.1136  1.1965
  716MOL0     H94485   3.510   9.545   4.118  5.3505  0.9288  0.2789
  716MOL0     H94486   3.646   9.545   4.382 -0.1043 -1.3279 -0.1616
  716MOL0     H94487   3.685   9.649   4.239 -0.1110 -0.7049 -1.3445
  716MOL0     H94488   3.719   9.425   4.108  1.1566 -2.0020  0.2694
  716MOL0     H94489   3.718   9.349   4.256 -0.8494 -0.7506 -1.5813
  716MOL0     H94490   3.924   9.591   4.206 -0.2235  0.7051  2.0354
  716MOL0     H94491   3.904   9.485   4.344 -0.7664  1.9745  0.2079
  716MOL0     H94492   3.971   9.402   4.061  2.7813  0.3166 -0.2336
  716MOL0     H94493   3.928   9.288   4.179  0.8478 -0.6626 -0.2618
  716MOL0     H94494   2.920   9.807   4.512 -1.1198  0.6771  0.3791
  716MOL0     H94495   2.690   9.742   4.499  2.5791  3.5752  0.5252
  716MOL0     H94496   2.467   9.275   4.373 -0.0116  1.0625 -0.6761
  716MOL0     H94497   2.269   9.134   4.373  0.8427 -0.6752  0.7563
  716MOL0     H94498   1.756   8.712   4.628 -2.3824 -2.0047 -1.8411
  716MOL0     H94499   2.002   8.757   4.682  0.3956 -2.9498 -0.1560
  716MOL0     H94500   2.368   9.081   4.659 -0.4153 -0.4342 -0.6975
  716MOL0     H94501   2.602   9.150   4.626 -3.4824  2.1977 -0.2412
  716MOL0     H94502   2.919   8.995   4.380  0.4978 -1.8338  0.1581
  716MOL0     H94503   2.863   8.896   4.517  4.8495  0.9477  4.1445
  716MOL0     H94504   2.946   9.174   4.553  1.3116  0.6220 -0.8989
  716MOL0     H94505   2.920   9.039   4.676  2.4728 -3.4073  0.1197
  716MOL0     H94506   3.102   8.914   4.577  0.0081  1.3987 -1.3042
  716MOL0     H94507   3.153   9.050   4.684  1.0614 -0.0241 -0.7363
  716MOL0     H94508   3.253   9.014   4.428  1.0726 -0.5160  0.5764
  716MOL0     H94509   3.129   9.131   4.397  2.6751  1.4333 -0.7422
  716MOL0     H94510   3.389   9.375   4.614 -0.0911 -1.9470  3.3192
  716MOL0     H94511   2.641   8.883   4.312 -1.2695 -1.7022 -0.7466
  716MOL0     H94512   2.414   8.773   4.374  1.6740  0.0507 -0.7877
  717MOL0     O94513  10.837   5.353   5.227 -1.4236  0.5137  0.1271
  717MOL0     C94514  10.836   5.292   5.332 -0.6255 -0.1624 -1.2321
  717MOL0     O94515  10.736   5.249   5.410 -0.2579  0.3717  0.9160
  717MOL0     C94516  10.615   5.219   5.354  0.5827 -0.0287  0.1850
  717MOL0     C94517  10.508   5.216   5.449 -0.8823  0.0002 -0.1213
  717MOL0     C94518  10.379   5.175   5.410  0.2711  1.1317 -0.0670
  717MOL0     C94519  10.355   5.153   5.280  0.7601 -0.2769  0.1585
  717MOL0     O94520  10.228   5.152   5.233 -0.4918 -0.0344 -0.0793
  717MOL0     C94521  10.159   5.032   5.272  0.4170 -0.7926 -0.7690
  717MOL0     C94522  10.015   5.037   5.237  0.6686 -0.4966  0.3037
  717MOL0     C94523   9.934   4.925   5.302 -1.2627  0.1020 -0.0725
  717MOL0     C94524   9.804   4.895   5.228 -0.5584  0.2166  0.4925
  717MOL0     C94525   9.695   4.999   5.244  0.4228 -0.2371 -0.5471
  717MOL0     C94526   9.696   5.132   5.171  0.0780  0.0998 -0.3154
  717MOL0     C94527   9.570   5.217   5.190  0.8481  0.2366  0.5646
  717MOL0     C94528   9.582   5.336   5.095 -0.5390 -0.1158  0.1923
  717MOL0     N94529   9.478   5.432   5.115 -0.3214 -0.1692  0.3156
  717MOL0     C94530   9.490   5.560   5.169 -0.3119 -0.4444 -0.9126
  717MOL0     C94531   9.374   5.626   5.138  0.1285 -0.5128  0.6079
  717MOL0     C94532   9.348   5.777   5.163 -1.1614  0.1255  1.5112
  717MOL0     C94533   9.222   5.804   5.248 -0.1323  1.0262  0.5771
  717MOL0     C94534   9.180   5.948   5.220 -0.0487  0.2734  0.3475
  717MOL0     C94535   9.049   5.981   5.294 -0.4484  0.1468  0.2390
  717MOL0     O94536   9.028   6.124   5.270  0.0850  0.3866  0.7475
  717MOL0     C94537   8.916   6.180   5.342 -0.2614 -1.0996  0.1419
  717MOL0     C94538   8.918   6.320   5.354  0.3284  0.3721  0.4707
  717MOL0     C94539   8.816   6.391   5.416  0.5671 -0.6795  0.2358
  717MOL0     C94540   8.706   6.322   5.467 -0.3325 -0.8941  0.5493
  717MOL0     C94541   8.605   6.406   5.528 -0.9410  0.2246  0.0228
  717MOL0     O94542   8.629   6.536   5.529  0.4381 -0.8615  0.4188
  717MOL0     C94543   8.533   6.624   5.562  0.6872  0.1067 -0.7918
  717MOL0     C94544   8.535   6.688   5.694  0.3815  0.9488 -0.3217
  717MOL0     C94545   8.432   6.775   5.731  0.0223  0.3267  0.2146
  717MOL0     C94546   8.327   6.792   5.643  0.3172 -0.0391 -0.5514
  717MOL0     O94547   8.221   6.878   5.681 -0.4881 -0.3628 -0.2261
  717MOL0     C94548   8.107   6.814   5.727 -0.3219  0.0186  0.5598
  717MOL0     C94549   7.993   6.847   5.630  0.5112 -0.4050  0.9208
  717MOL0     C94550   7.881   6.741   5.626 -1.1885  0.0081  0.1946
  717MOL0     C94551   7.802   6.769   5.496  0.5160  0.4432  0.6207
  717MOL0     C94552   7.681   6.679   5.490 -1.1964  0.1002 -0.0590
  717MOL0     C94553   7.578   6.723   5.401  0.8939 -1.1563 -0.0720
  717MOL0     C94554   7.459   6.618   5.387 -0.3502  0.3054 -0.5697
  717MOL0     C94555   7.370   6.658   5.277 -0.4409  0.4587  0.0137
  717MOL0    Cl94556   7.242   6.539   5.262  0.4182  0.2633  0.5697
  717MOL0     C94557   8.328   6.734   5.517  0.1155  0.8582 -0.5389
  717MOL0     C94558   8.431   6.660   5.471  0.0058  0.1637 -1.3885
  717MOL0     O94559   8.501   6.348   5.551  0.4048  0.2524  0.0968
  717MOL0     C94560   8.702   6.184   5.468 -0.5674 -0.3835 -0.0940
  717MOL0     C94561   8.802   6.118   5.399  1.0707 -0.5384  1.2228
  717MOL0     N94562   9.295   5.536   5.063 -0.4242  0.1236  0.3350
  717MOL0     N94563   9.360   5.425   5.047 -0.6638 -0.0601  0.0255
  717MOL0     C94564  10.457   5.164   5.184 -0.3456 -0.1148 -0.2025
  717MOL0     C94565  10.595   5.189   5.223  0.8519  0.4304  0.4324
  717MOL0     C94566  10.968   5.294   5.403 -0.0797 -0.1034  0.5212
  717MOL0     C94567  10.982   5.290   5.539  0.1122  0.7033 -0.0766
  717MOL0     C94568  11.103   5.283   5.600 -0.9970  0.3388 -0.8240
  717MOL0     C94569  11.222   5.289   5.525  0.2526  0.0632  0.1048
  717MOL0     O94570  11.334   5.304   5.604  0.1263 -0.7188  0.3735
  717MOL0     C94571  11.451   5.357   5.550 -1.0372 -0.1371  0.2450
  717MOL0     C94572  11.553   5.396   5.659 -0.3141  0.5969  0.3855
  717MOL0     C94573  11.655   5.286   5.697  0.0388  0.2827 -0.3443
  717MOL0     C94574  11.605   5.170   5.776  0.7559  0.0274  0.5644
  717MOL0     C94575  11.720   5.123   5.845  0.1586 -0.3866  0.1029
  717MOL0     C94576  11.814   5.092   5.904  0.0787 -0.3947  0.7775
  717MOL0     C94577  11.206   5.294   5.387  0.9484  0.1254  1.0349
  717MOL0     C94578  11.081   5.291   5.324  0.1096  0.1237  0.2371
  717MOL0     H94579  10.533   5.242   5.551 -2.1018  0.7453  0.0127
  717MOL0     H94580  10.316   5.176   5.499  3.8872  0.3394  2.7444
  717MOL0     H94581  10.167   5.020   5.380  0.9785  1.1613 -0.5379
  717MOL0     H94582  10.197   4.941   5.225 -3.6996 -1.6207 -2.9560
  717MOL0     H94583  10.005   5.037   5.128 -0.0005  1.6110  0.3140
  717MOL0     H94584   9.980   5.134   5.275  1.5256  0.1467 -0.4879
  717MOL0     H94585   9.916   4.949   5.407 -1.8410  1.4576 -0.4692
  717MOL0     H94586   9.988   4.830   5.303 -0.2061  0.6846 -0.3573
  717MOL0     H94587   9.817   4.883   5.120  3.5366  1.0691  0.7356
  717MOL0     H94588   9.757   4.797   5.245  1.7250 -1.4482 -1.9073
  717MOL0     H94589   9.685   5.029   5.349 -0.3603 -0.0115 -0.6792
  717MOL0     H94590   9.597   4.965   5.211 -0.2933  2.3138 -1.2866
  717MOL0     H94591   9.722   5.125   5.065  0.3287  1.0793 -0.3298
  717MOL0     H94592   9.782   5.183   5.216  0.6028 -0.5921 -0.5139
  717MOL0     H94593   9.482   5.159   5.163  1.0031 -0.2293  1.0458
  717MOL0     H94594   9.565   5.256   5.292  1.7496  0.9648  0.3493
  717MOL0     H94595   9.577   5.287   4.998  0.7019  0.9091 -0.4117
  717MOL0     H94596   9.679   5.386   5.102  1.0033 -2.7097 -1.2432
  717MOL0     H94597   9.567   5.606   5.229 -1.8392  1.1865 -0.1003
  717MOL0     H94598   9.322   5.813   5.063  1.3067  1.2727  1.2076
  717MOL0     H94599   9.443   5.813   5.203  0.9145 -1.1023 -1.8764
  717MOL0     H94600   9.229   5.778   5.354 -1.6428  2.3871  1.0534
  717MOL0     H94601   9.144   5.735   5.216 -0.2543  2.2091 -1.8769
  717MOL0     H94602   9.251   6.026   5.247  0.5024  1.2627 -3.3547
  717MOL0     H94603   9.159   5.959   5.113  2.7513 -1.1749 -0.4359
  717MOL0     H94604   9.049   5.935   5.394  1.2951 -1.2935 -0.3750
  717MOL0     H94605   8.970   5.926   5.242 -1.5574  1.3670  0.5915
  717MOL0     H94606   9.006   6.370   5.314  0.3953  0.8531  1.2010
  717MOL0     H94607   8.818   6.499   5.408  0.2834 -0.7799 -1.4833
  717MOL0     H94608   8.618   6.671   5.761 -0.0137  1.7790  0.4025
  717MOL0     H94609   8.437   6.825   5.828 -0.9999  0.4953  0.1876
  717MOL0     H94610   8.075   6.835   5.830 -1.4590 -0.5108  0.3345
  717MOL0     H94611   8.132   6.708   5.718 -1.3051 -0.2501  0.8057
  717MOL0     H94612   8.043   6.852   5.533  1.4026  0.2373  1.4031
  717MOL0     H94613   7.943   6.943   5.643 -0.9255 -0.7796 -1.3193
  717MOL0     H94614   7.821   6.750   5.717 -3.1227  1.4043 -1.1224
  717MOL0     H94615   7.930   6.644   5.622  2.6159  1.6695  1.4131
  717MOL0     H94616   7.776   6.876   5.496  0.4065  0.4342  2.0387
  717MOL0     H94617   7.862   6.761   5.405 -0.1290  1.3024  0.1015
  717MOL0     H94618   7.634   6.657   5.587 -0.5156  2.3454  0.8548
  717MOL0     H94619   7.722   6.583   5.460 -0.5361 -0.8038  3.2844
  717MOL0     H94620   7.620   6.749   5.304 -2.0963 -1.1260 -1.4588
  717MOL0     H94621   7.531   6.813   5.442 -0.8337 -1.2292 -1.7667
  717MOL0     H94622   7.501   6.520   5.363 -0.9379 -1.5125  4.6852
  717MOL0     H94623   7.407   6.605   5.482 -0.6376  1.2868 -0.5858
  717MOL0     H94624   7.424   6.672   5.183 -1.0351 -1.2695 -0.6118
  717MOL0     H94625   7.316   6.749   5.302 -0.2547  0.2789  1.1068
  717MOL0     H94626   8.242   6.754   5.454  0.1306  0.6264 -0.6356
  717MOL0     H94627   8.439   6.624   5.369 -0.6981  1.7272 -2.0215
  717MOL0     H94628   8.613   6.131   5.503 -1.1514  1.3146  1.1151
  717MOL0     H94629   8.802   6.011   5.381  1.4833 -0.4160  0.4297
  717MOL0     H94630  10.424   5.151   5.082 -2.7197  2.0383  0.1949
  717MOL0     H94631  10.664   5.199   5.140 -2.0804  0.1427 -2.2724
  717MOL0     H94632  10.892   5.281   5.598 -1.6122  5.1595 -1.5544
  717MOL0     H94633  11.124   5.254   5.702 -2.9123  0.5716 -0.3267
  717MOL0     H94634  11.426   5.451   5.500 -1.8007  0.6289  1.9863
  717MOL0     H94635  11.506   5.303   5.472  1.0731  3.1589 -0.7568
  717MOL0     H94636  11.609   5.479   5.615  2.5988 -1.0907  0.6495
  717MOL0     H94637  11.505   5.423   5.754  1.8513  1.2812  1.3630
  717MOL0     H94638  11.731   5.344   5.749  0.4612  0.5965 -1.2794
  717MOL0     H94639  11.709   5.248   5.610  1.1378 -1.0951  0.9132
  717MOL0     H94640  11.519   5.188   5.841  1.3436 -1.0741  1.7207
  717MOL0     H94641  11.571   5.093   5.706 -0.0281 -1.0951  2.1066
  717MOL0     H94642  11.901   5.056   5.955 -0.7069  0.6719  3.0033
  717MOL0     H94643  11.288   5.288   5.317  2.0567 -0.1031  2.3151
  717MOL0     H94644  11.067   5.290   5.216  0.3876 -0.5700  0.1990
  718MOL0     O94645   8.302   5.150   4.421 -0.0570  0.1726 -0.4237
  718MOL0     C94646   8.248   5.189   4.319  0.8550  0.3863 -1.0128
  718MOL0     O94647   8.291   5.286   4.230 -0.1087 -0.1358  0.1228
  718MOL0     C94648   8.420   5.334   4.227 -0.4033 -0.4042  0.7840
  718MOL0     C94649   8.428   5.467   4.170 -0.3637  1.3928  1.0605
  718MOL0     C94650   8.548   5.516   4.132 -0.5316  0.6559  0.1772
  718MOL0     C94651   8.666   5.442   4.158  0.0365  0.8864  0.0486
  718MOL0     O94652   8.794   5.479   4.114  0.2210 -0.2579 -0.2231
  718MOL0     C94653   8.817   5.598   4.040  0.5978  0.2270  0.1649
  718MOL0     C94654   8.965   5.589   3.995  0.9514 -0.6175 -0.8815
  718MOL0     C94655   8.988   5.462   3.923 -0.5290  0.5837  0.5397
  718MOL0     C94656   9.123   5.452   3.863 -0.0848 -0.8651  0.3766
  718MOL0     C94657   9.158   5.330   3.783 -1.0317 -1.1470  0.3418
  718MOL0     C94658   9.285   5.340   3.688 -0.3465  0.1417 -0.5131
  718MOL0     C94659   9.413   5.367   3.773 -0.7076  0.3055  0.6081
  718MOL0     C94660   9.536   5.333   3.675 -0.3926 -0.9838 -0.2380
  718MOL0     N94661   9.615   5.453   3.635 -0.3772 -0.1409 -1.0280
  718MOL0     C94662   9.582   5.529   3.525  0.0989  0.2468 -1.1604
  718MOL0     C94663   9.625   5.655   3.553  0.1540 -0.9247  1.0292
  718MOL0     C94664   9.565   5.761   3.467  1.1250  0.3783  0.2063
  718MOL0     C94665   9.412   5.764   3.479  0.7372  0.1125  0.3815
  718MOL0     C94666   9.365   5.870   3.378  0.7902 -0.5221  0.1894
  718MOL0     C94667   9.217   5.873   3.358  0.2161  0.6350  0.5498
  718MOL0     O94668   9.188   5.866   3.216  0.1309  0.5830  0.0243
  718MOL0     C94669   9.124   5.755   3.158  0.1071 -0.1945  0.3867
  718MOL0     C94670   9.136   5.626   3.213  0.3794 -0.2180  1.1765
  718MOL0     C94671   9.084   5.525   3.136  0.2705  0.1030 -0.2719
  718MOL0     C94672   9.030   5.547   3.006 -0.1152  0.7608 -0.9473
  718MOL0     C94673   8.947   5.452   2.941  0.0163  0.2627  0.3405
  718MOL0     O94674   8.914   5.473   2.809 -0.2240  0.3754 -0.4784
  718MOL0     C94675   8.837   5.381   2.750 -0.5710  0.0256 -0.0859
  718MOL0     C94676   8.712   5.413   2.693 -0.1543  0.1989  0.7184
  718MOL0     C94677   8.621   5.326   2.644 -0.3277 -0.2636  1.2382
  718MOL0     C94678   8.649   5.188   2.653 -0.4078 -0.2385  0.3988
  718MOL0     O94679   8.570   5.082   2.623  0.8604 -1.1811 -0.1344
  718MOL0     C94680   8.473   5.115   2.511 -0.6966  0.3953 -0.2376
  718MOL0     C94681   8.391   4.992   2.491  0.0742  0.1489  1.2494
  718MOL0     C94682   8.249   5.031   2.452 -0.0095 -0.3743  0.0350
  718MOL0     C94683   8.227   5.100   2.317  0.4518  0.3965 -1.0797
  718MOL0     C94684   8.145   5.227   2.328 -0.3504 -1.4928  0.6866
  718MOL0     C94685   8.000   5.190   2.348  0.6981 -0.2849  0.7393
  718MOL0     C94686   7.912   5.314   2.374 -0.5050  0.0336  0.2343
  718MOL0     C94687   7.765   5.290   2.400 -0.3698 -0.3415  0.0578
  718MOL0    Cl94688   7.676   5.205   2.285 -0.3540 -0.0974  0.2162
  718MOL0     C94689   8.772   5.150   2.704 -0.3551  0.3460 -0.5056
  718MOL0     C94690   8.862   5.244   2.747  0.0882 -1.3163  0.5215
  718MOL0     O94691   8.909   5.361   3.006 -0.2357  0.0550  0.7130
  718MOL0     C94692   9.052   5.674   2.950 -0.1581  0.4348 -0.1562
  718MOL0     C94693   9.086   5.777   3.034 -0.1511  0.6125 -0.7886
  718MOL0     N94694   9.674   5.655   3.681  0.8102  0.0828  0.4745
  718MOL0     N94695   9.673   5.530   3.725 -0.5357 -0.2393  0.0278
  718MOL0     C94696   8.662   5.321   4.225 -0.0725  0.0104  1.2793
  718MOL0     C94697   8.535   5.268   4.254  0.7625 -0.4597  0.8790
  718MOL0     C94698   8.121   5.130   4.292 -0.6178 -0.1928 -0.0078
  718MOL0     C94699   8.033   5.188   4.199 -0.8843  0.4247 -0.4013
  718MOL0     C94700   7.907   5.140   4.190 -0.4075 -1.4298 -0.1302
  718MOL0     C94701   7.855   5.039   4.271 -0.9484 -1.4205  0.1033
  718MOL0     O94702   7.723   5.026   4.263 -0.2349  0.5542  0.4326
  718MOL0     C94703   7.657   4.946   4.361 -0.7428 -0.5263  0.1898
  718MOL0     C94704   7.507   4.938   4.316  0.0346 -0.4201  0.0549
  718MOL0     C94705   7.419   4.890   4.435  1.0040 -0.1056 -0.4200
  718MOL0     C94706   7.427   4.738   4.461 -0.2135 -0.0268 -0.0509
  718MOL0     C94707   7.536   4.704   4.557  0.1154 -0.2216 -0.1564
  718MOL0     C94708   7.635   4.677   4.624 -0.1527  0.8465 -0.5203
  718MOL0     C94709   7.950   4.973   4.350 -0.1267 -0.6374 -0.8388
  718MOL0     C94710   8.080   5.015   4.362 -0.6761 -0.1398 -0.3408
  718MOL0     H94711   8.331   5.514   4.156 -1.0770 -0.5637 -1.3997
  718MOL0     H94712   8.548   5.612   4.081  1.5328  0.1158 -0.9423
  718MOL0     H94713   8.804   5.693   4.093 -0.5930  1.7112 -2.6101
  718MOL0     H94714   8.741   5.594   3.962 -0.7993 -0.4750  1.5033
  718MOL0     H94715   9.032   5.607   4.079  1.3909  2.4868 -1.7974
  718MOL0     H94716   8.980   5.669   3.922 -1.7194 -1.1715 -2.1485
  718MOL0     H94717   8.911   5.453   3.845  0.3882  0.3605 -0.3678
  718MOL0     H94718   8.984   5.373   3.987  2.8008  0.0698  0.2359
  718MOL0     H94719   9.116   5.538   3.796 -0.3308 -1.3854 -0.2707
  718MOL0     H94720   9.194   5.454   3.947 -0.9562  0.2366  1.1119
  718MOL0     H94721   9.071   5.307   3.721 -2.6140  2.1044  1.1679
  718MOL0     H94722   9.161   5.239   3.843 -0.2381 -0.4495  1.4022
  718MOL0     H94723   9.268   5.412   3.609 -1.6587  2.1529  1.4962
  718MOL0     H94724   9.296   5.244   3.637 -1.1545  1.3492 -3.0906
  718MOL0     H94725   9.416   5.470   3.810  0.7765  0.1495  0.9915
  718MOL0     H94726   9.415   5.300   3.860 -0.9621  0.4876  0.7563
  718MOL0     H94727   9.496   5.289   3.583 -1.9870  1.3376 -0.7670
  718MOL0     H94728   9.593   5.257   3.728  1.5833  0.5636 -0.0427
  718MOL0     H94729   9.534   5.503   3.431  0.7199  0.3959 -1.5221
  718MOL0     H94730   9.572   5.732   3.361  1.0066 -0.4613  0.4188
  718MOL0     H94731   9.609   5.860   3.479  2.5844 -0.3997  1.6761
  718MOL0     H94732   9.383   5.804   3.577 -0.2833  1.2924 -0.3893
  718MOL0     H94733   9.361   5.670   3.456  0.9989 -0.3206  1.4542
  718MOL0     H94734   9.407   5.962   3.420 -1.7698 -0.0124  1.8560
  718MOL0     H94735   9.412   5.848   3.281 -1.0392 -0.5978 -0.7116
  718MOL0     H94736   9.180   5.964   3.407 -0.0365 -0.0819  1.7316
  718MOL0     H94737   9.171   5.788   3.408  0.7374 -0.4494 -0.7744
  718MOL0     H94738   9.170   5.598   3.312 -0.8213 -0.7349  1.4585
  718MOL0     H94739   9.079   5.427   3.183 -1.7365 -0.2238 -1.0920
  718MOL0     H94740   8.689   5.519   2.681  3.1695  1.0369  0.8128
  718MOL0     H94741   8.533   5.365   2.594 -1.4069 -2.8804  0.9311
  718MOL0     H94742   8.538   5.125   2.424 -1.0183 -2.8324 -0.9510
  718MOL0     H94743   8.411   5.204   2.528  2.3739  2.4836  0.8048
  718MOL0     H94744   8.386   4.930   2.581  2.6186 -0.5226  1.0024
  718MOL0     H94745   8.439   4.935   2.411  1.7312 -0.3001  2.5132
  718MOL0     H94746   8.215   5.095   2.534  1.2076  0.8016 -0.3403
  718MOL0     H94747   8.190   4.939   2.448 -2.0735  0.9260 -1.0925
  718MOL0     H94748   8.327   5.110   2.274  0.7471 -2.6943 -1.3029
  718MOL0     H94749   8.173   5.036   2.247 -1.5038  0.4592  0.2804
  718MOL0     H94750   8.161   5.283   2.235 -1.3827 -0.3632  1.1614
  718MOL0     H94751   8.189   5.283   2.412  0.7799 -1.7244  0.2663
  718MOL0     H94752   7.991   5.123   2.434  0.8382  0.8987  1.7096
  718MOL0     H94753   7.957   5.129   2.268 -1.9081 -1.1906  2.7017
  718MOL0     H94754   7.958   5.370   2.456  1.1999 -0.7448 -0.1489
  718MOL0     H94755   7.914   5.392   2.297  0.9159 -0.7395 -0.5486
  718MOL0     H94756   7.725   5.391   2.411  0.0347  0.1332 -2.3907
  718MOL0     H94757   7.754   5.239   2.497  0.4560  1.1293  0.9572
  718MOL0     H94758   8.798   5.045   2.703  4.3311  1.0824  3.4842
  718MOL0     H94759   8.960   5.211   2.780 -0.2989 -2.2198  0.8139
  718MOL0     H94760   9.018   5.700   2.850  0.7140 -2.2285 -1.2238
  718MOL0     H94761   9.087   5.882   3.006  0.6053  2.3948  4.6835
  718MOL0     H94762   8.750   5.258   4.234 -0.2243 -0.2738  0.8354
  718MOL0     H94763   8.518   5.169   4.295 -0.4079 -0.4818  0.3652
  718MOL0     H94764   8.062   5.277   4.144 -0.2234 -0.1994 -1.1027
  718MOL0     H94765   7.838   5.203   4.135  0.5345 -1.9891 -2.0435
  718MOL0     H94766   7.661   4.982   4.464  2.1719 -3.8080  1.4685
  718MOL0     H94767   7.700   4.845   4.354  0.3166 -0.0464 -0.5825
  718MOL0     H94768   7.479   5.039   4.283 -1.4064 -1.1778 -1.1427
  718MOL0     H94769   7.495   4.864   4.237  0.4208  0.1373 -0.5429
  718MOL0     H94770   7.315   4.900   4.402  0.2159 -4.1734  0.3262
  718MOL0     H94771   7.436   4.947   4.527 -1.3977 -0.5873  0.3764
  718MOL0     H94772   7.327   4.707   4.494 -2.3599  2.4816 -3.4666
  718MOL0     H94773   7.454   4.690   4.366 -0.8544 -0.4540 -0.0248
  718MOL0     H94774   7.718   4.667   4.691  1.2980  1.0052 -2.2205
  718MOL0     H94775   7.923   4.888   4.412 -0.0456 -0.7332 -0.9352
  718MOL0     H94776   8.142   4.967   4.437 -0.9936  0.1530  0.1095
  719MOL0     O94777   2.738   5.940   5.288  0.2894 -1.3326  0.2763
  719MOL0     C94778   2.827   5.856   5.301 -0.2917  0.2391  1.0116
  719MOL0     O94779   2.823   5.730   5.236 -0.4024  0.4861 -0.4070
  719MOL0     C94780   2.734   5.720   5.132 -0.2062 -0.4136  0.3661
  719MOL0     C94781   2.597   5.702   5.150  0.5657  0.4358 -0.8284
  719MOL0     C94782   2.511   5.709   5.040 -0.4485 -0.9800 -0.4364
  719MOL0     C94783   2.558   5.738   4.908 -0.4773  0.4582 -0.5198
  719MOL0     O94784   2.462   5.762   4.817 -0.6326  0.6492  0.2916
  719MOL0     C94785   2.506   5.756   4.680  0.0965 -0.0886  0.2479
  719MOL0     C94786   2.376   5.729   4.599 -0.5510 -0.3258  0.2370
  719MOL0     C94787   2.281   5.855   4.578 -0.0697 -0.0401  0.0996
  719MOL0     C94788   2.162   5.811   4.485 -0.1081 -0.1237  0.8620
  719MOL0     C94789   2.074   5.935   4.445 -1.0498  1.7706  0.6057
  719MOL0     C94790   1.998   5.916   4.317 -0.2072 -0.1343  0.6244
  719MOL0     C94791   1.898   6.028   4.284 -0.1233 -0.2362 -0.5218
  719MOL0     C94792   1.823   6.034   4.153 -0.6467  0.6161 -0.2674
  719MOL0     N94793   1.767   5.902   4.123  0.1520  0.2230  0.0082
  719MOL0     C94794   1.821   5.785   4.067  1.6328  1.0417 -0.0085
  719MOL0     C94795   1.719   5.685   4.073  0.1601 -0.1260  0.2113
  719MOL0     C94796   1.725   5.536   4.025 -0.3179  0.8605  0.0082
  719MOL0     C94797   1.664   5.448   4.142 -0.4468  0.0003 -0.4438
  719MOL0     C94798   1.768   5.433   4.258 -0.6313 -0.2090  0.1174
  719MOL0     C94799   1.707   5.359   4.376  0.2445  0.0838 -0.0695
  719MOL0     O94800   1.663   5.231   4.334  0.1243 -0.1057 -0.4691
  719MOL0     C94801   1.561   5.163   4.395  0.6160  0.3046  0.0096
  719MOL0     C94802   1.501   5.059   4.328 -1.2766  0.2617  0.1898
  719MOL0     C94803   1.390   5.001   4.376  0.1351  0.5377 -0.1406
  719MOL0     C94804   1.329   5.044   4.495 -0.2052 -0.3698  0.7360
  719MOL0     C94805   1.203   4.965   4.536  0.7073 -0.7470 -0.3875
  719MOL0     O94806   1.170   4.845   4.470  0.5207  0.2830  0.0133
  719MOL0     C94807   1.052   4.799   4.512  0.6876  0.7407 -0.9170
  719MOL0     C94808   1.050   4.679   4.580  0.9504  0.0685  0.0648
  719MOL0     C94809   0.936   4.632   4.637  0.8514  0.7886 -1.0277
  719MOL0     C94810   0.807   4.694   4.629 -0.8215  0.0870 -0.3802
  719MOL0     O94811   0.700   4.657   4.698 -0.9518 -0.1641  0.0292
  719MOL0     C94812   0.563   4.693   4.666 -0.0794  0.4023  0.5239
  719MOL0     C94813   0.470   4.597   4.734  0.3774 -0.3557 -0.2957
  719MOL0     C94814   0.455   4.620   4.882 -0.4934  0.2715 -0.4927
  719MOL0     C94815   0.378   4.504   4.940 -0.2515 -0.2575 -0.2584
  719MOL0     C94816   0.328   4.539   5.081 -0.6174  1.1247 -1.2822
  719MOL0     C94817   0.227   4.652   5.095 -0.2549 -0.9909 -0.0933
  719MOL0     C94818   0.153   4.673   5.232 -0.0643 -0.4470 -0.3798
  719MOL0     C94819   0.062   4.557   5.266  0.6977  0.1219 -0.1520
  719MOL0    Cl94820  -0.051   4.531   5.132 -0.1858 -0.4415 -0.1650
  719MOL0     C94821   0.807   4.807   4.557 -1.0327 -0.5083  0.3521
  719MOL0     C94822   0.924   4.860   4.489 -0.1303  1.2817  0.5836
  719MOL0     O94823   1.152   5.006   4.637 -0.0084 -0.5162 -0.4950
  719MOL0     C94824   1.388   5.154   4.562  0.4873 -0.1983  0.1615
  719MOL0     C94825   1.505   5.211   4.517  0.4668 -0.2687  0.1199
  719MOL0     N94826   1.608   5.746   4.119 -0.0022 -0.7853  0.1224
  719MOL0     N94827   1.638   5.872   4.161  0.1991 -0.1376  0.0303
  719MOL0     C94828   2.698   5.753   4.892  0.0009  0.3473 -0.3897
  719MOL0     C94829   2.785   5.746   5.004  0.0774 -0.4228 -0.1987
  719MOL0     C94830   2.952   5.884   5.387 -0.2614 -1.0798 -0.2337
  719MOL0     C94831   3.050   5.789   5.404  0.2675 -0.0333  0.2201
  719MOL0     C94832   3.168   5.810   5.470 -0.2418 -0.4164  0.8588
  719MOL0     C94833   3.192   5.931   5.539  0.7929  1.0259  0.8043
  719MOL0     O94834   3.303   5.948   5.614  0.5335 -0.1447  0.8816
  719MOL0     C94835   3.389   6.055   5.592 -0.4951 -0.1768  0.6841
  719MOL0     C94836   3.542   6.021   5.584  0.2448  0.1733  0.0529
  719MOL0     C94837   3.594   5.971   5.720 -0.7461 -0.2802 -0.1127
  719MOL0     C94838   3.731   5.911   5.718 -0.7526 -0.3983 -0.8617
  719MOL0     C94839   3.728   5.791   5.642 -0.6355  0.3541 -0.0561
  719MOL0     C94840   3.711   5.701   5.566 -0.5329  0.2514  0.1195
  719MOL0     C94841   3.092   6.033   5.519 -0.2987  0.8373  0.3237
  719MOL0     C94842   2.975   6.013   5.445 -0.3638  0.3642 -0.0199
  719MOL0     H94843   2.575   5.681   5.254  0.5228  1.3165 -0.6517
  719MOL0     H94844   2.404   5.688   5.045 -0.3719 -1.1651  1.6420
  719MOL0     H94845   2.573   5.669   4.672  0.9127  0.5825 -0.3729
  719MOL0     H94846   2.560   5.842   4.640  2.1467 -0.9974  0.9270
  719MOL0     H94847   2.330   5.637   4.636 -3.2501  0.4964 -0.8097
  719MOL0     H94848   2.412   5.691   4.502  2.4481 -2.3929  1.9742
  719MOL0     H94849   2.338   5.943   4.548  0.0729 -0.5068 -1.0521
  719MOL0     H94850   2.224   5.879   4.668 -0.3563  1.0970 -0.3687
  719MOL0     H94851   2.200   5.767   4.392 -1.2587  0.0523  0.2860
  719MOL0     H94852   2.112   5.730   4.537 -4.5849  2.2148  0.6536
  719MOL0     H94853   2.129   6.025   4.415 -3.0425  2.2915 -1.9186
  719MOL0     H94854   2.006   5.960   4.527 -2.9928  0.1659 -0.4086
  719MOL0     H94855   1.948   5.820   4.335 -0.1272 -0.4051 -0.5190
  719MOL0     H94856   2.068   5.901   4.234 -0.1383 -0.1182  0.6792
  719MOL0     H94857   1.831   6.011   4.369  3.4919  0.3266  2.6873
  719MOL0     H94858   1.959   6.118   4.290  0.4813 -0.7319  1.6429
  719MOL0     H94859   1.894   6.071   4.078  0.3764 -0.6255  0.0358
  719MOL0     H94860   1.748   6.113   4.149 -1.6924 -0.2665  1.2324
  719MOL0     H94861   1.923   5.761   4.039  0.8371 -1.1889 -1.1697
  719MOL0     H94862   1.830   5.512   4.007 -0.1364 -0.1570  2.1668
  719MOL0     H94863   1.665   5.527   3.934 -0.2079 -0.4241  0.0459
  719MOL0     H94864   1.627   5.353   4.102 -1.1833 -0.1405  0.5236
  719MOL0     H94865   1.576   5.494   4.188  0.1969  0.1120  0.7014
  719MOL0     H94866   1.852   5.379   4.215 -1.4958 -3.1968  1.9264
  719MOL0     H94867   1.804   5.534   4.282 -1.6404  1.3974 -4.1811
  719MOL0     H94868   1.617   5.406   4.416 -0.9320 -1.0956 -1.2427
  719MOL0     H94869   1.773   5.356   4.463  0.3520  2.5305 -0.0005
  719MOL0     H94870   1.531   5.036   4.226 -2.5674  1.1989 -0.4250
  719MOL0     H94871   1.340   4.918   4.326 -0.0982  0.9911 -0.6610
  719MOL0     H94872   1.142   4.622   4.591 -0.0281 -1.3890  1.1974
  719MOL0     H94873   0.937   4.538   4.691 -0.9353  0.5878 -1.2765
  719MOL0     H94874   0.561   4.706   4.557 -1.8209  0.3812  0.5311
  719MOL0     H94875   0.537   4.791   4.706  0.4845  0.4660  0.7461
  719MOL0     H94876   0.489   4.491   4.719 -2.4797 -0.9779 -0.0651
  719MOL0     H94877   0.367   4.620   4.706 -0.7817 -1.5036  2.6164
  719MOL0     H94878   0.410   4.714   4.915  0.9407  0.3588  1.4217
  719MOL0     H94879   0.556   4.632   4.924 -0.3150  2.7337 -1.4966
  719MOL0     H94880   0.290   4.473   4.882  3.7227 -2.6459 -5.8784
  719MOL0     H94881   0.450   4.422   4.944 -0.4958 -0.5593 -1.6491
  719MOL0     H94882   0.413   4.554   5.149 -1.9203  3.4142 -0.0134
  719MOL0     H94883   0.288   4.444   5.116  1.1274  0.8401  0.0933
  719MOL0     H94884   0.156   4.643   5.012 -0.8430 -1.2319  0.4292
  719MOL0     H94885   0.277   4.747   5.078 -0.9767  0.0869  3.1154
  719MOL0     H94886   0.232   4.668   5.307 -1.6777 -1.8900  1.3326
  719MOL0     H94887   0.102   4.769   5.239  0.0716 -0.4839  1.9324
  719MOL0     H94888   0.005   4.571   5.358 -0.1924  1.7368 -0.8967
  719MOL0     H94889   0.118   4.463   5.260 -1.6603 -1.2959 -4.3787
  719MOL0     H94890   0.716   4.866   4.548  1.3716  3.8949  1.8724
  719MOL0     H94891   0.933   4.949   4.427  0.4186  0.2307 -0.9067
  719MOL0     H94892   1.336   5.184   4.652  1.5749 -4.6455  2.6156
  719MOL0     H94893   1.561   5.290   4.566  1.3141 -0.1348 -1.0352
  719MOL0     H94894   2.730   5.787   4.794 -2.2794  1.3215 -0.8447
  719MOL0     H94895   2.889   5.773   4.992  0.8751 -1.7210  2.9006
  719MOL0     H94896   3.031   5.702   5.342  0.9885  0.8691 -1.3039
  719MOL0     H94897   3.248   5.737   5.467 -0.0734 -0.6639  5.3797
  719MOL0     H94898   3.367   6.124   5.674 -0.0869  2.8538 -1.5775
  719MOL0     H94899   3.377   6.112   5.499 -2.6841  1.7055  2.0170
  719MOL0     H94900   3.562   5.959   5.496  2.7866  4.3556 -2.6557
  719MOL0     H94901   3.593   6.114   5.559 -1.2710  1.6302  2.0402
  719MOL0     H94902   3.519   5.901   5.756  0.2282 -1.6364 -0.6307
  719MOL0     H94903   3.594   6.061   5.782 -0.9604 -1.1422  1.1590
  719MOL0     H94904   3.800   5.985   5.676 -1.2778 -2.7441 -7.0315
  719MOL0     H94905   3.762   5.888   5.820 -0.0269  1.8755 -0.5111
  719MOL0     H94906   3.688   5.617   5.503 -0.5001  1.1493 -1.1236
  719MOL0     H94907   3.120   6.131   5.554  1.2661 -0.0247  1.6159
  719MOL0     H94908   2.909   6.094   5.416  3.7657  3.7984 -0.7931
  720MOL0     O94909   3.331   2.688   5.688 -0.4947 -0.8506 -0.3276
  720MOL0     C94910   3.406   2.780   5.662 -1.1404 -0.1727  0.8464
  720MOL0     O94911   3.373   2.905   5.638  0.2127  0.2381 -0.1653
  720MOL0     C94912   3.254   2.947   5.689  0.3723  0.1481 -0.9991
  720MOL0     C94913   3.267   3.083   5.737  0.4211  0.3080  0.1899
  720MOL0     C94914   3.157   3.146   5.799 -0.3559 -0.8965 -0.1888
  720MOL0     C94915   3.031   3.080   5.804  1.1230  0.6353  0.0123
  720MOL0     O94916   2.920   3.136   5.856 -0.3860  0.0290 -0.2438
  720MOL0     C94917   2.913   3.275   5.889  0.0040 -0.5286  0.4408
  720MOL0     C94918   2.772   3.301   5.929 -0.0096 -0.4485  0.1893
  720MOL0     C94919   2.696   3.343   5.804 -0.1315  0.2249 -0.3661
  720MOL0     C94920   2.558   3.394   5.839  0.8675  0.6463  0.1190
  720MOL0     C94921   2.486   3.438   5.708  0.1104  0.0132 -0.7572
  720MOL0     C94922   2.339   3.466   5.759 -0.9666 -0.1256 -0.0652
  720MOL0     C94923   2.239   3.489   5.647 -0.5559  0.5001 -0.0657
  720MOL0     C94924   2.192   3.358   5.572 -0.3021  0.0799 -0.7416
  720MOL0     N94925   2.078   3.385   5.481  0.9357  0.2641 -0.6913
  720MOL0     C94926   2.037   3.314   5.376 -0.1137 -0.1288  0.4010
  720MOL0     C94927   1.913   3.357   5.339 -0.7134 -0.3360 -0.7072
  720MOL0     C94928   1.841   3.315   5.215  0.1796  0.0247  0.3890
  720MOL0     C94929   1.712   3.247   5.241 -0.5523 -1.0610 -0.2621
  720MOL0     C94930   1.722   3.092   5.279  0.3854 -0.5129 -0.9469
  720MOL0     C94931   1.755   3.051   5.422 -0.7418 -0.5593  0.2420
  720MOL0     O94932   1.731   2.906   5.451 -0.6307  0.2435 -0.4982
  720MOL0     C94933   1.601   2.874   5.481 -0.8090  0.3879 -0.1595
  720MOL0     C94934   1.569   2.739   5.462 -0.1427  0.2930  0.2245
  720MOL0     C94935   1.443   2.688   5.493  0.3444 -0.5123  0.9674
  720MOL0     C94936   1.339   2.766   5.546  0.1096 -0.2766 -0.0155
  720MOL0     C94937   1.208   2.703   5.587 -0.8441 -0.7789 -0.4135
  720MOL0     O94938   1.213   2.577   5.634 -0.0112 -0.7617  0.0806
  720MOL0     C94939   1.107   2.517   5.689  0.2381 -0.5966 -0.4558
  720MOL0     C94940   1.131   2.443   5.806  0.8286 -0.0516  0.0565
  720MOL0     C94941   1.029   2.364   5.856  0.1018  1.2680  1.4466
  720MOL0     C94942   0.897   2.367   5.809  0.7054 -0.4794 -0.8002
  720MOL0     O94943   0.808   2.280   5.860  0.0852 -0.4829 -0.4532
  720MOL0     C94944   0.787   2.284   6.006  0.7176  0.3661  0.5507
  720MOL0     C94945   0.667   2.185   6.044 -0.2083  0.0032 -0.7333
  720MOL0     C94946   0.522   2.246   6.046  0.5042  0.2935 -0.3915
  720MOL0     C94947   0.483   2.337   6.165 -1.0310  0.4732  0.1856
  720MOL0     C94948   0.336   2.386   6.158  1.1294 -0.1361  0.0621
  720MOL0     C94949   0.305   2.467   6.037 -0.0816 -0.0951  0.1022
  720MOL0     C94950   0.157   2.479   6.006 -0.0965 -0.9697  0.1658
  720MOL0     C94951   0.083   2.562   6.109 -0.3670 -0.1553  0.1832
  720MOL0    Cl94952  -0.079   2.613   6.051  0.1364  0.0954 -0.0485
  720MOL0     C94953   0.873   2.445   5.698  0.6298 -0.4554 -0.4762
  720MOL0     C94954   0.982   2.508   5.624  0.3377 -0.6472 -0.5025
  720MOL0     O94955   1.105   2.777   5.578 -0.5224 -0.3523  0.2571
  720MOL0     C94956   1.373   2.905   5.569 -0.7039  0.8652  0.0218
  720MOL0     C94957   1.501   2.952   5.538 -0.0235  0.1762 -0.4871
  720MOL0     N94958   1.875   3.458   5.423 -0.3329  0.4050  0.3222
  720MOL0     N94959   1.972   3.466   5.515  0.0239 -0.0677  0.0650
  720MOL0     C94960   3.020   2.948   5.759  1.0486  0.5138  0.8336
  720MOL0     C94961   3.130   2.884   5.702  0.4601  0.1756  0.0663
  720MOL0     C94962   3.549   2.750   5.626 -0.0513  0.6841 -0.2644
  720MOL0     C94963   3.636   2.846   5.568  0.1996 -0.6139  0.1718
  720MOL0     C94964   3.773   2.819   5.535  0.9007 -0.3677 -0.0905
  720MOL0     C94965   3.813   2.688   5.535 -0.2177  0.7040 -0.3617
  720MOL0     O94966   3.945   2.640   5.504  0.2614  0.3066 -0.4332
  720MOL0     C94967   4.055   2.725   5.475 -0.2483 -0.5011 -0.6857
  720MOL0     C94968   4.187   2.649   5.497  0.5783 -0.9684 -0.1762
  720MOL0     C94969   4.294   2.753   5.514 -0.6572  0.0819  0.4285
  720MOL0     C94970   4.426   2.689   5.544 -0.2636 -1.2069 -0.5519
  720MOL0     C94971   4.482   2.607   5.429 -0.4245 -0.1778 -0.6393
  720MOL0     C94972   4.533   2.538   5.341 -0.3318  0.1271  0.3787
  720MOL0     C94973   3.730   2.593   5.586 -1.1711  1.4672 -0.5240
  720MOL0     C94974   3.603   2.625   5.643 -0.1835 -0.5060 -0.8662
  720MOL0     H94975   3.365   3.127   5.717  1.5594 -2.1919 -0.0673
  720MOL0     H94976   3.147   3.249   5.830 -3.7702 -1.3598  0.7413
  720MOL0     H94977   2.934   3.332   5.797 -1.4887  0.9116  0.9611
  720MOL0     H94978   2.980   3.295   5.973  2.2603 -1.5424 -0.9846
  720MOL0     H94979   2.772   3.390   5.993  3.5243 -1.4689  1.8499
  720MOL0     H94980   2.725   3.219   5.984 -0.1318  0.9014  2.2074
  720MOL0     H94981   2.694   3.261   5.731  1.3280  0.4970 -0.7458
  720MOL0     H94982   2.739   3.430   5.754 -1.4992  1.1556  0.0343
  720MOL0     H94983   2.500   3.321   5.895  0.9262  0.1533 -0.4512
  720MOL0     H94984   2.569   3.485   5.899  2.6131  1.5152 -1.3932
  720MOL0     H94985   2.505   3.370   5.625  4.4617 -3.9330  2.9574
  720MOL0     H94986   2.522   3.534   5.669  4.0530 -1.2176 -0.5600
  720MOL0     H94987   2.339   3.555   5.823  0.9121  0.5764 -0.9798
  720MOL0     H94988   2.299   3.382   5.818  2.5381 -1.3152  0.8287
  720MOL0     H94989   2.150   3.539   5.686 -1.2360  0.7692 -1.8505
  720MOL0     H94990   2.287   3.559   5.578 -0.1697  0.0118 -0.2971
  720MOL0     H94991   2.168   3.273   5.637  2.1198 -0.8769 -0.9833
  720MOL0     H94992   2.276   3.325   5.510  0.9726  2.3308 -0.3363
  720MOL0     H94993   2.092   3.240   5.318 -2.6752 -0.6709 -1.5029
  720MOL0     H94994   1.907   3.269   5.141 -0.1689  1.9788 -1.2261
  720MOL0     H94995   1.812   3.402   5.155 -5.6149 -2.5875 -1.2705
  720MOL0     H94996   1.644   3.252   5.156  0.8462 -0.3093 -1.3617
  720MOL0     H94997   1.674   3.304   5.327 -1.2391 -0.3479 -1.0289
  720MOL0     H94998   1.621   3.058   5.255  0.0197  1.0225 -1.6629
  720MOL0     H94999   1.801   3.042   5.222  0.0963 -1.1216 -0.8229
  720MOL0     H95000   1.706   3.121   5.491  1.4931  2.1016 -0.7154
  720MOL0     H95001   1.860   3.075   5.444 -0.8254  2.7225 -2.1762
  720MOL0     H95002   1.645   2.674   5.422  1.0402  1.6743  0.1728
  720MOL0     H95003   1.438   2.581   5.477 -2.1016 -0.5222  1.4595
  720MOL0     H95004   1.228   2.431   5.853  1.0379 -1.6434 -0.7145
  720MOL0     H95005   1.056   2.291   5.931 -2.3418 -0.7787  0.5024
  720MOL0     H95006   0.758   2.383   6.041  0.2423  1.1852 -1.9894
  720MOL0     H95007   0.877   2.250   6.059  2.0507  0.2682 -1.6676
  720MOL0     H95008   0.683   2.158   6.149  2.0415  1.2255 -0.6984
  720MOL0     H95009   0.664   2.106   5.969  2.1312 -1.7747  0.9196
  720MOL0     H95010   0.442   2.171   6.041  0.3596  0.3896  0.3174
  720MOL0     H95011   0.520   2.312   5.960  0.8878  2.7140  1.3607
  720MOL0     H95012   0.492   2.282   6.259 -3.4202  0.4896  0.4845
  720MOL0     H95013   0.540   2.430   6.165 -2.1616  1.2194 -1.5149
  720MOL0     H95014   0.309   2.451   6.242  2.9052  0.1322  0.4747
  720MOL0     H95015   0.274   2.296   6.156 -0.1756  0.7515 -0.3616
  720MOL0     H95016   0.347   2.416   5.950  0.9089  1.1408 -0.1763
  720MOL0     H95017   0.345   2.568   6.031  1.2082 -0.6725 -2.0250
  720MOL0     H95018   0.137   2.523   5.908  3.4046  1.2915  0.2897
  720MOL0     H95019   0.108   2.382   6.007 -0.7965 -0.6235  1.2622
  720MOL0     H95020   0.145   2.648   6.135  1.4180 -1.3745  0.1071
  720MOL0     H95021   0.075   2.500   6.199  1.7356 -1.1021 -0.2262
  720MOL0     H95022   0.775   2.461   5.655  0.1857 -2.4031 -0.2846
  720MOL0     H95023   0.956   2.569   5.537 -0.5377  1.2629  1.0233
  720MOL0     H95024   1.299   2.977   5.602 -0.7825  0.2599  1.2169
  720MOL0     H95025   1.520   3.056   5.563  2.9074  0.4101 -3.1615
  720MOL0     H95026   2.922   2.902   5.747  1.5932 -0.5989  0.5723
  720MOL0     H95027   3.118   2.789   5.653  1.5511 -0.4346  0.9353
  720MOL0     H95028   3.605   2.950   5.573 -0.7272 -0.8458 -0.5265
  720MOL0     H95029   3.835   2.890   5.480  2.1532 -1.8311 -0.6389
  720MOL0     H95030   4.047   2.818   5.534 -0.2476 -0.5073 -0.6757
  720MOL0     H95031   4.043   2.745   5.368 -3.6478 -2.9219 -0.9212
  720MOL0     H95032   4.175   2.580   5.580 -0.1418  1.9502  2.3375
  720MOL0     H95033   4.224   2.592   5.411  1.6932  0.6697 -0.8443
  720MOL0     H95034   4.265   2.824   5.592 -0.6551 -1.0914  1.5305
  720MOL0     H95035   4.304   2.803   5.417 -0.1425 -0.7253  0.0554
  720MOL0     H95036   4.505   2.762   5.561 -0.4475 -1.6824  3.0943
  720MOL0     H95037   4.411   2.630   5.635 -1.2453 -0.4313 -0.1900
  720MOL0     H95038   4.582   2.478   5.266 -2.3486 -1.0432 -0.0680
  720MOL0     H95039   3.773   2.495   5.601 -2.0219  1.0753 -0.5833
  720MOL0     H95040   3.540   2.558   5.700 -1.3631  1.5244  0.3420
  721MOL0     O95041   6.012   3.222   9.324  0.2137 -0.2971 -0.6636
  721MOL0     C95042   6.097   3.303   9.296 -0.7985 -0.0098 -0.7821
  721MOL0     O95043   6.081   3.428   9.252 -0.5127  0.1189  1.1067
  721MOL0     C95044   5.953   3.472   9.219  0.5440  0.6431  0.1818
  721MOL0     C95045   5.849   3.380   9.172 -0.1970  0.2298  0.8584
  721MOL0     C95046   5.727   3.445   9.147  0.7100  0.3002  0.1061
  721MOL0     C95047   5.690   3.576   9.181  0.0878  0.9465  0.4798
  721MOL0     O95048   5.568   3.636   9.177  0.3665  0.0582 -0.5192
  721MOL0     C95049   5.461   3.575   9.107  0.2411  0.4000 -1.0492
  721MOL0     C95050   5.381   3.673   9.021  0.0858  0.8381  0.9691
  721MOL0     C95051   5.459   3.732   8.895  0.7569  0.0141 -0.3085
  721MOL0     C95052   5.373   3.827   8.812  0.1558 -0.2996  0.8238
  721MOL0     C95053   5.446   3.861   8.677 -0.4820  0.4890 -0.6253
  721MOL0     C95054   5.559   3.961   8.690 -0.0908  1.3440  0.7805
  721MOL0     C95055   5.525   4.103   8.744  0.7140 -0.0337  0.8592
  721MOL0     C95056   5.442   4.179   8.642 -0.0851 -0.0951 -0.1918
  721MOL0     N95057   5.302   4.191   8.685  0.3823 -0.3547 -0.1283
  721MOL0     C95058   5.247   4.289   8.768 -0.3419  0.4960 -0.3361
  721MOL0     C95059   5.114   4.264   8.771  0.7381 -0.1568 -0.5094
  721MOL0     C95060   5.010   4.312   8.863  0.9755  0.3321  0.2291
  721MOL0     C95061   4.922   4.410   8.797 -0.1855 -0.1844 -0.5287
  721MOL0     C95062   4.797   4.459   8.880 -0.4737 -0.9578 -0.0460
  721MOL0     C95063   4.706   4.541   8.789 -0.2879  0.6722 -0.1505
  721MOL0     O95064   4.597   4.599   8.867 -0.2529 -0.4564 -0.6584
  721MOL0     C95065   4.616   4.712   8.943 -0.4535  0.0873 -0.5936
  721MOL0     C95066   4.735   4.789   8.929 -0.5626 -0.1267 -0.5504
  721MOL0     C95067   4.763   4.900   9.006 -0.6699  0.2117  1.3590
  721MOL0     C95068   4.687   4.928   9.122 -0.7269  0.3578  0.4699
  721MOL0     C95069   4.729   5.038   9.204  0.4216  1.1162  0.0002
  721MOL0     O95070   4.693   5.048   9.335  0.3519 -0.0978 -0.1022
  721MOL0     C95071   4.726   5.165   9.403  0.5975  0.1181  0.0798
  721MOL0     C95072   4.848   5.199   9.463 -0.6880 -0.3321  0.5671
  721MOL0     C95073   4.874   5.314   9.533  0.1101 -0.1635  0.1947
  721MOL0     C95074   4.760   5.382   9.578  0.8355 -0.0578 -0.2450
  721MOL0     O95075   4.760   5.484   9.666  0.9392 -0.1309  0.2282
  721MOL0     C95076   4.895   5.520   9.725 -0.5569 -0.5486  0.0201
  721MOL0     C95077   4.979   5.613   9.626  0.6442 -0.0624  0.1128
  721MOL0     C95078   5.126   5.623   9.659  0.8625  0.3232  0.6428
  721MOL0     C95079   5.156   5.651   9.803  0.1681 -0.0435  0.2322
  721MOL0     C95080   5.309   5.654   9.812 -1.1720  0.0051 -1.1839
  721MOL0     C95081   5.354   5.695   9.955 -0.2337  1.1239 -0.4637
  721MOL0     C95082   5.506   5.691   9.961 -0.9991 -0.3193 -0.4219
  721MOL0     C95083   5.565   5.735  10.095 -0.4048  0.5921 -0.2325
  721MOL0    Cl95084   5.477   5.633  10.215  0.5615  0.1440 -0.1821
  721MOL0     C95085   4.634   5.350   9.532 -0.6528  0.2484 -0.6598
  721MOL0     C95086   4.615   5.245   9.440 -0.1667 -0.4154  0.1871
  721MOL0     O95087   4.800   5.114   9.146  0.3808 -0.0219 -0.1692
  721MOL0     C95088   4.580   4.838   9.149 -0.8367  0.7615  0.3786
  721MOL0     C95089   4.543   4.736   9.057  0.3799 -0.7350 -0.1639
  721MOL0     N95090   5.089   4.161   8.692 -0.2567  0.8990  0.3700
  721MOL0     N95091   5.199   4.112   8.645  0.2485 -0.8106 -0.1118
  721MOL0     C95092   5.792   3.655   9.236 -0.8354  0.5128  0.7752
  721MOL0     C95093   5.925   3.608   9.245  0.9859  0.5990 -0.7709
  721MOL0     C95094   6.240   3.270   9.318  0.0178  0.0754  0.2642
  721MOL0     C95095   6.334   3.350   9.256  0.0133  0.4703  0.7683
  721MOL0     C95096   6.471   3.325   9.271  0.4892 -0.3583 -0.3018
  721MOL0     C95097   6.520   3.215   9.341 -0.7509 -0.0046 -1.0656
  721MOL0     O95098   6.655   3.192   9.345 -0.3821  0.0574 -0.3244
  721MOL0     C95099   6.695   3.059   9.384 -0.0877 -0.7251 -0.1197
  721MOL0     C95100   6.838   3.022   9.365 -0.3346  0.2270 -0.2928
  721MOL0     C95101   6.874   3.041   9.217 -0.0457 -0.2006  0.5936
  721MOL0     C95102   6.992   2.951   9.175 -0.5579  0.2093 -0.4806
  721MOL0     C95103   7.002   2.953   9.030 -0.0739  0.5017  0.3547
  721MOL0     C95104   7.020   2.960   8.914  0.0879 -0.8050  0.4632
  721MOL0     C95105   6.421   3.132   9.403 -0.7597  0.5176 -0.4210
  721MOL0     C95106   6.283   3.157   9.384  0.2227  0.3567  0.1025
  721MOL0     H95107   5.867   3.279   9.138  2.1001  1.6260 -2.5826
  721MOL0     H95108   5.650   3.384   9.100 -0.2563  1.0336  0.7219
  721MOL0     H95109   5.407   3.520   9.185 -0.8565  1.8279 -0.7530
  721MOL0     H95110   5.492   3.497   9.037  1.6848 -1.2323  1.2672
  721MOL0     H95111   5.343   3.760   9.076  0.2753 -0.6369  3.6203
  721MOL0     H95112   5.286   3.627   8.990  0.1988  0.8570  0.5955
  721MOL0     H95113   5.482   3.643   8.835 -1.7057 -1.6373  0.9989
  721MOL0     H95114   5.550   3.781   8.930  0.6054 -1.1682  2.0003
  721MOL0     H95115   5.274   3.786   8.795  0.5910 -1.0908  0.1419
  721MOL0     H95116   5.359   3.917   8.874 -4.5667 -1.0259  1.1215
  721MOL0     H95117   5.375   3.903   8.604  1.0981  0.1004 -2.4711
  721MOL0     H95118   5.473   3.765   8.632  0.5019  0.4482  0.0262
  721MOL0     H95119   5.617   3.964   8.596  1.8636 -4.4308  1.4060
  721MOL0     H95120   5.630   3.919   8.761 -0.0875  1.3253  0.7660
  721MOL0     H95121   5.481   4.101   8.844  0.8411 -0.2411  0.9107
  721MOL0     H95122   5.618   4.158   8.757  1.7520 -0.9043 -2.0648
  721MOL0     H95123   5.437   4.131   8.544 -0.3340  0.8389 -0.6412
  721MOL0     H95124   5.491   4.275   8.627 -2.4304  0.9027 -2.1551
  721MOL0     H95125   5.314   4.364   8.808 -0.0269 -0.9913  2.1330
  721MOL0     H95126   5.037   4.339   8.965  0.2544 -0.9001  0.7757
  721MOL0     H95127   4.943   4.228   8.886 -1.3747  2.3963  1.4391
  721MOL0     H95128   4.880   4.373   8.703 -1.5169  2.0504 -0.8807
  721MOL0     H95129   4.984   4.496   8.774 -3.0157  1.9830 -0.5927
  721MOL0     H95130   4.742   4.371   8.912 -2.2475 -0.0028 -0.3371
  721MOL0     H95131   4.836   4.529   8.955  2.3125 -1.2750 -1.0623
  721MOL0     H95132   4.660   4.466   8.724 -0.2123 -0.3536  0.9406
  721MOL0     H95133   4.769   4.613   8.735 -0.1894 -0.3374 -1.4304
  721MOL0     H95134   4.811   4.770   8.853 -0.1423  0.0561 -0.1814
  721MOL0     H95135   4.853   4.950   8.971 -0.1820 -2.6744 -2.1485
  721MOL0     H95136   4.931   5.136   9.432 -1.5988 -1.9522  1.3073
  721MOL0     H95137   4.975   5.338   9.567  0.8555 -2.7035  0.0272
  721MOL0     H95138   4.939   5.422   9.747 -2.6392 -2.2009 -2.5806
  721MOL0     H95139   4.873   5.580   9.814  1.1054  1.5009 -0.8498
  721MOL0     H95140   4.928   5.709   9.622 -2.7824 -1.7321 -0.7283
  721MOL0     H95141   4.982   5.570   9.525  2.6630 -0.1795  0.1788
  721MOL0     H95142   5.167   5.701   9.594  0.3640 -2.8504 -3.9213
  721MOL0     H95143   5.171   5.528   9.628 -2.5888 -2.0532  2.2211
  721MOL0     H95144   5.123   5.748   9.842  0.9802 -0.2267  1.4333
  721MOL0     H95145   5.106   5.569   9.856  0.2081 -0.5640 -0.5095
  721MOL0     H95146   5.362   5.721   9.744 -0.2600 -0.1651 -0.6544
  721MOL0     H95147   5.348   5.552   9.802  1.6774  0.5869  2.2783
  721MOL0     H95148   5.311   5.623  10.025  1.8981 -1.7368 -1.8829
  721MOL0     H95149   5.318   5.794   9.985  1.1201  1.1404  1.2289
  721MOL0     H95150   5.542   5.589   9.942 -0.5195 -0.3777  0.7310
  721MOL0     H95151   5.559   5.764   9.899  2.9284 -1.5929  1.1164
  721MOL0     H95152   5.546   5.841  10.116 -1.5400  1.1127 -3.3736
  721MOL0     H95153   5.672   5.722  10.116 -1.0034 -0.7997  2.4345
  721MOL0     H95154   4.545   5.396   9.574 -1.1951  0.9695 -2.5180
  721MOL0     H95155   4.516   5.221   9.403 -0.5408  0.9770  0.2186
  721MOL0     H95156   4.511   4.852   9.231 -1.5171 -1.0436  0.1338
  721MOL0     H95157   4.459   4.674   9.087  0.4471  0.0772  1.8755
  721MOL0     H95158   5.767   3.757   9.264 -1.9316  0.3229  0.5115
  721MOL0     H95159   5.999   3.672   9.292 -0.3652  1.2246  0.5958
  721MOL0     H95160   6.310   3.428   9.185 -0.3314  0.1304  0.5062
  721MOL0     H95161   6.531   3.400   9.220 -1.3527  3.4641  2.6752
  721MOL0     H95162   6.638   2.994   9.317 -1.6967 -0.5769  1.0444
  721MOL0     H95163   6.670   3.049   9.490  0.4546  3.2219  0.5298
  721MOL0     H95164   6.911   3.066   9.433 -2.3067  0.7055  1.6097
  721MOL0     H95165   6.853   2.918   9.394 -0.6887 -0.1083 -1.2507
  721MOL0     H95166   6.901   3.143   9.188  1.5032 -1.3955 -2.6828
  721MOL0     H95167   6.786   3.016   9.156  0.9561  1.7877 -1.8431
  721MOL0     H95168   7.080   2.996   9.222 -0.1418  0.2439 -1.2766
  721MOL0     H95169   6.980   2.844   9.196 -0.0472  0.5908  2.1033
  721MOL0     H95170   7.052   2.963   8.812  2.0741 -1.8868  1.0190
  721MOL0     H95171   6.464   3.055   9.466 -1.9215  1.0525  1.0819
  721MOL0     H95172   6.212   3.098   9.442 -0.3323  1.1334  0.2362
  722MOL0     O95173   2.028  10.028  10.426 -0.2277  0.0159 -0.3295
  722MOL0     C95174   2.147  10.002  10.429 -0.4883  1.1551 -0.1964
  722MOL0     O95175   2.205   9.872  10.401 -0.1645  0.7285 -0.5734
  722MOL0     C95176   2.130   9.753  10.372 -1.7025 -0.4294  0.0249
  722MOL0     C95177   2.167   9.630  10.438  0.1798 -0.0732  0.5546
  722MOL0     C95178   2.110   9.505  10.379  0.5098 -0.3007 -0.3723
  722MOL0     C95179   2.027   9.507  10.272  0.5915 -0.1098 -0.4857
  722MOL0     O95180   1.980   9.384  10.223 -0.2775 -0.3857  0.4373
  722MOL0     C95181   1.851   9.381  10.154  0.6823  0.6127  0.4533
  722MOL0     C95182   1.743   9.287  10.217  0.2273 -0.1664 -0.0145
  722MOL0     C95183   1.600   9.288  10.163 -0.3737 -0.1290  0.2755
  722MOL0     C95184   1.533   9.425  10.202 -1.0455  0.0153  0.2323
  722MOL0     C95185   1.385   9.414  10.181 -0.0026 -0.2198 -0.5169
  722MOL0     C95186   1.320   9.545  10.228 -1.1796 -0.3663 -0.5038
  722MOL0     C95187   1.170   9.547  10.188  1.1573  0.4785  0.7488
  722MOL0     C95188   1.174   9.600  10.042  0.3310  0.2737  0.3135
  722MOL0     N95189   1.039   9.618   9.987  0.4273  0.7756  0.4983
  722MOL0     C95190   0.980   9.734   9.946 -0.1511  0.2596 -0.0854
  722MOL0     C95191   0.850   9.712   9.920 -0.4799  0.0146 -0.6825
  722MOL0     C95192   0.749   9.821   9.871 -0.0348 -0.7815 -0.2789
  722MOL0     C95193   0.757   9.847   9.723  0.4280  0.1354  0.4911
  722MOL0     C95194   0.858   9.956   9.681  0.1333  0.1360  0.6710
  722MOL0     C95195   0.882   9.962   9.522 -0.4242 -0.7540  0.4757
  722MOL0     O95196   0.770  10.012   9.446 -0.0340 -0.8132  0.1595
  722MOL0     C95197   0.787  10.110   9.349 -0.0372 -0.0172  0.2793
  722MOL0     C95198   0.673  10.187   9.318 -0.0021  0.2767 -0.4008
  722MOL0     C95199   0.683  10.280   9.220  0.2343  0.4539  0.0095
  722MOL0     C95200   0.795  10.281   9.134 -0.4195 -0.9631  0.2679
  722MOL0     C95201   0.798  10.379   9.017 -0.4100  0.0783 -0.1866
  722MOL0     O95202   0.684  10.409   8.947  0.3256  0.7145  0.5706
  722MOL0     C95203   0.694  10.504   8.842  0.9174 -1.2371 -0.0361
  722MOL0     C95204   0.819  10.670   8.857 -0.6075 -1.2100  1.1843
  722MOL0     C95205   0.825  10.824   8.705  0.7370  0.2695 -0.1023
  722MOL0     C95206   0.717  10.795   8.535  0.1429 -0.2682  0.2096
  722MOL0     O95207   0.722  10.882   8.434 -0.7827 -0.0638  0.0642
  722MOL0     C95208   0.796  11.004   8.472  0.1614  0.7980  0.3888
  722MOL0     C95209   0.804  11.123   8.366  1.1495 -0.1989 -0.0725
  722MOL0     C95210   0.655  11.155   8.321  0.4901  0.4146  0.2581
  722MOL0     C95211   0.648  11.258   8.205  0.3305  0.0594  0.4138
  722MOL0     C95212   0.704  11.395   8.237  0.2911 -0.2318  0.0444
  722MOL0     C95213   0.635  11.462   8.344  0.5361  0.6718  0.1991
  722MOL0     C95214   0.481  11.480   8.326 -0.9750 -0.9284 -0.0596
  722MOL0     C95215   0.431  11.554   8.447  0.0923 -0.1403  0.4192
  722MOL0    Cl95216   0.269  11.525   8.462  0.4640 -0.1246  0.1992
  722MOL0     C95217   0.578  10.633   8.514 -0.0047 -0.2354  0.1481
  722MOL0     C95218   0.574  10.483   8.672 -0.3626  0.6119 -0.5563
  722MOL0     O95219   0.910  10.433   8.995 -0.0230  0.6283  0.0254
  722MOL0     C95220   0.908  10.205   9.168  0.5367 -0.6466  0.0155
  722MOL0     C95221   0.903  10.128   9.276 -0.2295 -0.0270 -0.0186
  722MOL0     N95222   0.830   9.566   9.929 -0.1611 -0.6115 -0.0472
  722MOL0     N95223   0.943   9.517   9.969 -0.2150  0.0939  0.1048
  722MOL0     C95224   1.981   9.635  10.224  0.2346  0.1055 -0.3170
  722MOL0     C95225   2.030   9.755  10.275 -0.9159  0.3513  0.1588
  722MOL0     C95226   2.244  10.110  10.436 -0.1707  0.6336  0.3320
  722MOL0     C95227   2.370  10.072  10.475 -0.1787 -0.2845 -0.1809
  722MOL0     C95228   2.477  10.161  10.477 -0.1456  0.8398 -0.0407
  722MOL0     C95229   2.450  10.292  10.439  0.9785 -0.2572  0.1332
  722MOL0     O95230   2.556  10.380  10.460  0.1665 -0.3157  0.3553
  722MOL0     C95231   2.520  10.514  10.489  0.0290  0.4262  0.8121
  722MOL0     C95232   2.641  10.602  10.508 -1.0019  0.5876 -0.0031
  722MOL0     C95233   2.701  10.600  10.651  0.3544 -0.1139  0.2920
  722MOL0     C95234   2.859  10.617  10.650  0.1020  0.0012  0.0945
  722MOL0     C95235   2.932  10.489  10.600  1.0753 -0.3959  0.2092
  722MOL0     C95236   2.992  10.384  10.578  0.0596 -0.2555  0.2589
  722MOL0     C95237   2.322  10.323  10.389 -1.1431  0.2988  0.3151
  722MOL0     C95238   2.223  10.240  10.381  0.4587  0.7981 -0.2731
  722MOL0     H95239   2.245   9.639  10.512  1.5193  2.9502 -1.0217
  722MOL0     H95240   2.133   9.411  10.428  2.7778  0.8409  0.9469
  722MOL0     H95241   1.853   9.356  10.047  0.3029 -0.8451  0.7592
  722MOL0     H95242   1.808   9.481  10.142  1.7297  0.7902 -2.9171
  722MOL0     H95243   1.731   9.308  10.324  0.3906  2.9883 -0.5336
  722MOL0     H95244   1.772   9.183  10.198  1.4237  0.4510 -1.7692
  722MOL0     H95245   1.548   9.204  10.210  1.7783 -2.0338 -0.5341
  722MOL0     H95246   1.606   9.268  10.056  1.9611 -2.2260  0.6923
  722MOL0     H95247   1.546   9.435  10.310  2.6024 -0.7075  0.0033
  722MOL0     H95248   1.584   9.508  10.151  0.6650 -1.1878 -0.1308
  722MOL0     H95249   1.341   9.328  10.232 -0.2405  0.0647 -0.2358
  722MOL0     H95250   1.365   9.392  10.076 -2.6623  0.0131 -0.1395
  722MOL0     H95251   1.373   9.630  10.186  1.9752 -1.8657  0.1335
  722MOL0     H95252   1.326   9.543  10.337  0.5647 -2.2863 -0.5705
  722MOL0     H95253   1.140   9.442  10.197 -0.7691  0.9586  0.3333
  722MOL0     H95254   1.121   9.616  10.257  0.8093 -0.0671  1.0643
  722MOL0     H95255   1.225   9.529   9.975  1.3570  0.6337  0.6941
  722MOL0     H95256   1.221   9.698  10.045  1.5090 -0.2574  0.0290
  722MOL0     H95257   1.029   9.830   9.942 -1.3863  0.9127 -0.1211
  722MOL0     H95258   0.769   9.919   9.915  0.1551  0.2120 -2.4124
  722MOL0     H95259   0.653   9.777   9.898 -1.6042  0.9850 -2.5600
  722MOL0     H95260   0.660   9.894   9.703 -0.1871 -0.4559  1.9223
  722MOL0     H95261   0.754   9.757   9.661 -0.2245  0.5693 -0.1176
  722MOL0     H95262   0.806  10.048   9.706  0.6335  1.0078 -1.2671
  722MOL0     H95263   0.955   9.942   9.729  0.7953 -0.5521 -0.7879
  722MOL0     H95264   0.915   9.864   9.487 -2.5210 -1.6406  0.8259
  722MOL0     H95265   0.970  10.026   9.512 -0.7559 -0.2767  0.5687
  722MOL0     H95266   0.585  10.162   9.377 -0.3310 -0.3135 -1.1215
  722MOL0     H95267   0.601  10.351   9.209 -1.4155 -1.3695  0.1240
  722MOL0     H95268   0.884  10.684   8.942 -0.2328  0.9418  0.6046
  722MOL0     H95269   0.891  10.908   8.723  2.6890 -0.4194 -3.2104
  722MOL0     H95270   0.900  10.980   8.494  1.0680  2.1522 -2.0523
  722MOL0     H95271   0.764  11.049   8.566  0.4198  1.6476  0.0806
  722MOL0     H95272   0.863  11.076   8.287  3.3838 -0.1796  1.4794
  722MOL0     H95273   0.861  11.205   8.411 -0.3735  0.4918  0.6777
  722MOL0     H95274   0.594  11.191   8.405 -1.7237 -1.0705 -0.6171
  722MOL0     H95275   0.621  11.059   8.283 -0.5742  0.5418  0.8458
  722MOL0     H95276   0.703  11.211   8.123 -1.7931  1.6027 -2.0696
  722MOL0     H95277   0.541  11.259   8.182  0.3795 -0.5335  0.1286
  722MOL0     H95278   0.693  11.457   8.147  0.7392  2.2650  1.6070
  722MOL0     H95279   0.811  11.398   8.262  0.1694  0.0157  0.5522
  722MOL0     H95280   0.674  11.564   8.350 -0.4890  1.0166  1.5134
  722MOL0     H95281   0.647  11.404   8.436  2.1263 -1.6586 -1.3560
  722MOL0     H95282   0.474  11.548   8.241  5.8628  4.3146  2.6625
  722MOL0     H95283   0.424  11.387   8.315  0.4533 -1.5220 -3.2740
  722MOL0     H95284   0.432  11.663   8.443 -4.0254  0.0499 -3.4975
  722MOL0     H95285   0.474  11.512   8.539 -0.4740 -2.3304 -0.2312
  722MOL0     H95286   0.499  10.611   8.442 -0.7346 -4.5325  1.9584
  722MOL0     H95287   0.505  10.400   8.659 -1.2717  0.8134  2.1540
  722MOL0     H95288   0.993  10.221   9.102 -0.2787  0.9943 -0.6791
  722MOL0     H95289   0.995  10.077   9.299 -0.5515 -1.2459 -1.2712
  722MOL0     H95290   1.925   9.653  10.132  2.0790  1.6863 -1.2029
  722MOL0     H95291   2.015   9.845  10.216  3.7559 -1.2156 -4.1470
  722MOL0     H95292   2.384   9.972  10.515  0.4014 -0.0403  0.2444
  722MOL0     H95293   2.577  10.133  10.508  0.0544  1.1063 -0.4396
  722MOL0     H95294   2.479  10.519  10.590  2.0970 -0.9921  1.7701
  722MOL0     H95295   2.465  10.556  10.403  0.9763  1.6556  0.7784
  722MOL0     H95296   2.715  10.563  10.438  0.6906  0.1259  1.9203
  722MOL0     H95297   2.614  10.703  10.476  2.3508  1.8022  0.5258
  722MOL0     H95298   2.668  10.509  10.702 -2.6958 -0.9465 -2.8093
  722MOL0     H95299   2.667  10.683  10.713  2.3724  0.3885  0.7990
  722MOL0     H95300   2.890  10.712  10.605  1.4305 -0.0047  0.9566
  722MOL0     H95301   2.884  10.639  10.754 -1.3306 -0.0757  0.4778
  722MOL0     H95302   3.036  10.289  10.553  1.6959  0.0235  1.8435
  722MOL0     H95303   2.299  10.412  10.329  1.0901 -0.0454 -1.1634
  722MOL0     H95304   2.126  10.268  10.341 -0.3030 -2.5985 -1.1188
  723MOL0     O95305  11.255   6.485   8.385  0.1396 -0.0602 -0.0212
  723MOL0     C95306  11.249   6.428   8.491  0.2950  0.2757 -0.0245
  723MOL0     O95307  11.141   6.414   8.569  0.1123  0.1171 -0.0945
  723MOL0     C95308  11.012   6.447   8.530  0.2640  0.3605 -0.0836
  723MOL0     C95309  10.913   6.392   8.613 -0.6408  0.1868 -0.2322
  723MOL0     C95310  10.780   6.427   8.600  0.2573  0.0281 -0.2172
  723MOL0     C95311  10.740   6.510   8.497 -0.3881 -0.9366 -0.2369
  723MOL0     O95312  10.607   6.537   8.486 -0.3083 -0.2620 -0.4867
  723MOL0     C95313  10.568   6.671   8.453 -0.0992  1.5639  0.5518
  723MOL0     C95314  10.404   6.701   8.477 -0.1966  0.2624  0.8130
  723MOL0     C95315  10.323   6.567   8.479 -0.3426 -0.1067 -0.3081
  723MOL0     C95316  10.170   6.606   8.498  0.7943  0.1388 -0.1480
  723MOL0     C95317  10.071   6.494   8.475  0.4085  0.5282  0.2300
  723MOL0     C95318  10.081   6.408   8.341 -0.7446  0.5507 -0.3492
  723MOL0     C95319   9.951   6.318   8.325 -0.6770 -0.3941  0.1684
  723MOL0     C95320   9.923   6.207   8.429  0.0459  0.4929  0.0439
  723MOL0     N95321   9.837   6.104   8.382  0.6035 -0.3301 -0.1844
  723MOL0     C95322   9.706   6.124   8.338 -0.2004 -1.1147 -0.0513
  723MOL0     C95323   9.664   6.012   8.275  0.3467 -1.3724  0.7195
  723MOL0     C95324   9.524   5.999   8.207 -0.0998 -0.3691 -0.1099
  723MOL0     C95325   9.510   5.864   8.137 -0.1437 -0.7063  0.0574
  723MOL0     C95326   9.372   5.808   8.121 -0.0071  0.0298  0.5085
  723MOL0     C95327   9.325   5.818   7.975 -0.6677  0.2806 -0.9513
  723MOL0     O95328   9.308   5.961   7.944 -0.3591 -0.1420  0.6924
  723MOL0     C95329   9.184   6.013   7.915  0.7897  0.4638 -0.6837
  723MOL0     C95330   9.080   6.010   8.004  0.4905 -0.0015  0.4122
  723MOL0     C95331   8.957   6.074   7.974  0.4658  0.0257 -0.0901
  723MOL0     C95332   8.927   6.130   7.846  1.1272 -0.2277  0.1326
  723MOL0     C95333   8.784   6.184   7.812 -0.9993  0.0112 -0.3698
  723MOL0     O95334   8.753   6.230   7.687  0.5895  0.3259  0.4596
  723MOL0     C95335   8.614   6.274   7.668 -0.1475 -0.4202  0.3954
  723MOL0     C95336   8.544   6.219   7.558 -0.8293 -0.4272 -0.3536
  723MOL0     C95337   8.420   6.282   7.528 -0.7441  0.1833 -0.2763
  723MOL0     C95338   8.365   6.385   7.606  0.6042  0.2179 -0.7847
  723MOL0     O95339   8.247   6.447   7.584 -0.5590 -0.5329 -0.0393
  723MOL0     C95340   8.252   6.520   7.464  0.2637 -0.0177 -0.4641
  723MOL0     C95341   8.147   6.626   7.475  0.6240  0.3492 -0.2223
  723MOL0     C95342   8.160   6.735   7.377  0.4026  0.0125  0.1762
  723MOL0     C95343   8.073   6.846   7.434 -0.3240  0.4265 -0.1083
  723MOL0     C95344   8.078   6.963   7.337 -0.1206 -0.8001 -0.1882
  723MOL0     C95345   8.009   7.082   7.415 -0.6177 -0.6162 -1.1024
  723MOL0     C95346   7.857   7.064   7.455  0.4451  0.1410 -0.4407
  723MOL0     C95347   7.774   7.191   7.439 -1.0336  0.0814  0.4104
  723MOL0    Cl95348   7.845   7.299   7.559 -0.1169 -0.3041  0.2843
  723MOL0     C95349   8.433   6.429   7.718 -0.4139 -0.4919 -0.2562
  723MOL0     C95350   8.552   6.373   7.748 -0.5037 -0.4610 -0.9484
  723MOL0     O95351   8.707   6.173   7.901  0.0067  0.4888 -0.9076
  723MOL0     C95352   9.031   6.125   7.754  1.0382  0.1088  0.4190
  723MOL0     C95353   9.156   6.074   7.794  0.3617  0.0369  1.0656
  723MOL0     N95354   9.760   5.918   8.298  0.1784 -0.2787  0.3419
  723MOL0     N95355   9.861   5.975   8.353  0.0161  0.1424  0.2779
  723MOL0     C95356  10.837   6.562   8.409  0.2941  1.5342 -0.3762
  723MOL0     C95357  10.970   6.535   8.433 -0.2628  0.3031 -0.0816
  723MOL0     C95358  11.384   6.396   8.542 -0.2333  0.3406 -0.7067
  723MOL0     C95359  11.409   6.351   8.673 -0.0312  0.1848  0.5828
  723MOL0     C95360  11.535   6.343   8.736  0.2308 -0.3612  1.7251
  723MOL0     C95361  11.646   6.378   8.651 -0.1012  0.1569  0.1272
  723MOL0     O95362  11.770   6.376   8.703 -0.3266 -0.5697 -0.0583
  723MOL0     C95363  11.869   6.467   8.662  0.1565  0.3888  0.5035
  723MOL0     C95364  11.906   6.529   8.799  0.2792  0.2426  0.2901
  723MOL0     C95365  11.797   6.614   8.848 -0.0099 -0.5133 -0.3539
  723MOL0     C95366  11.846   6.699   8.965 -0.5119  0.4219  0.3597
  723MOL0     C95367  11.748   6.793   8.996  0.3166  0.6280  0.1560
  723MOL0     C95368  11.673   6.888   8.997  0.5299  0.9905  0.5126
  723MOL0     C95369  11.624   6.396   8.511  0.2207  0.2642 -0.7957
  723MOL0     C95370  11.494   6.412   8.459 -0.2670  0.3075 -0.8503
  723MOL0     H95371  10.951   6.337   8.698  2.0079  2.2712  0.0754
  723MOL0     H95372  10.713   6.379   8.671 -0.2170 -0.9284 -1.2878
  723MOL0     H95373  10.588   6.684   8.346 -0.3738  0.1011  0.3065
  723MOL0     H95374  10.624   6.747   8.509  2.1573 -0.6803  1.4893
  723MOL0     H95375  10.377   6.779   8.404  2.1878  2.5565  2.2272
  723MOL0     H95376  10.389   6.730   8.581  1.1395  0.4526  0.9647
  723MOL0     H95377  10.358   6.504   8.561 -1.5422 -5.2682 -3.2786
  723MOL0     H95378  10.339   6.516   8.384  0.4365  0.2331 -0.3739
  723MOL0     H95379  10.168   6.634   8.603  0.6730 -2.3970  0.6077
  723MOL0     H95380  10.128   6.691   8.444  0.6744  1.6974  2.2838
  723MOL0     H95381   9.964   6.512   8.493 -0.1061 -1.5659 -0.5483
  723MOL0     H95382  10.094   6.422   8.554  2.1401 -0.0738 -0.7827
  723MOL0     H95383  10.169   6.343   8.341 -0.5150  0.8453  0.7083
  723MOL0     H95384  10.092   6.471   8.252 -0.5016  0.0478 -0.6830
  723MOL0     H95385   9.869   6.385   8.299 -0.5613  0.3247  1.5115
  723MOL0     H95386   9.967   6.263   8.232  0.4257 -1.1384  0.7712
  723MOL0     H95387   9.894   6.244   8.527  0.9813 -1.5756  1.1619
  723MOL0     H95388  10.018   6.155   8.445  0.5276  0.6474 -2.0086
  723MOL0     H95389   9.653   6.219   8.342 -2.3491 -2.2765  1.8476
  723MOL0     H95390   9.523   6.076   8.130  0.2991 -0.7690 -0.5202
  723MOL0     H95391   9.441   6.016   8.276  0.2218  0.0769  0.1777
  723MOL0     H95392   9.561   5.795   8.205 -0.0618 -0.3499  0.3631
  723MOL0     H95393   9.565   5.877   8.044 -2.5102  2.6914 -1.0332
  723MOL0     H95394   9.379   5.708   8.164 -1.3610  0.3794  1.6383
  723MOL0     H95395   9.310   5.859   8.195 -0.9947 -1.5025  0.7927
  723MOL0     H95396   9.227   5.769   7.975  0.0658 -1.4509  1.6684
  723MOL0     H95397   9.389   5.770   7.901 -0.3558  1.9294 -1.7918
  723MOL0     H95398   9.092   5.970   8.104 -0.4605  0.4168  0.7103
  723MOL0     H95399   8.889   6.090   8.057 -0.2523 -1.2242 -0.4041
  723MOL0     H95400   8.589   6.144   7.494  2.1343  0.8293  0.0953
  723MOL0     H95401   8.366   6.230   7.449  1.5992 -1.5440 -0.8327
  723MOL0     H95402   8.238   6.447   7.383  0.6563 -0.3996 -0.1941
  723MOL0     H95403   8.351   6.565   7.451 -0.2500  0.9063 -1.3232
  723MOL0     H95404   8.158   6.661   7.578  0.9857  0.5203 -0.3174
  723MOL0     H95405   8.046   6.584   7.469  1.4743 -1.6531 -1.6911
  723MOL0     H95406   8.112   6.712   7.281 -0.2704  3.0063 -0.2966
  723MOL0     H95407   8.264   6.767   7.363  0.2124 -0.0090 -1.4867
  723MOL0     H95408   7.969   6.817   7.451 -0.8538  1.6604 -1.1166
  723MOL0     H95409   8.110   6.861   7.536 -1.3468 -0.0865  0.3549
  723MOL0     H95410   8.041   6.947   7.235  0.1767 -0.0897 -0.4125
  723MOL0     H95411   8.183   6.985   7.313 -0.7451  0.3383 -2.1054
  723MOL0     H95412   8.035   7.176   7.366  2.6661 -0.9516 -0.2211
  723MOL0     H95413   8.060   7.101   7.509 -2.9832  1.2398 -0.0820
  723MOL0     H95414   7.812   6.984   7.394 -1.5143 -0.1112  1.2405
  723MOL0     H95415   7.856   7.032   7.559 -2.4365 -1.8562 -0.9541
  723MOL0     H95416   7.669   7.176   7.465 -0.7503 -1.5498  0.7166
  723MOL0     H95417   7.784   7.232   7.338 -1.5441  0.4317  0.4954
  723MOL0     H95418   8.388   6.495   7.792  0.9119 -0.1098  0.2447
  723MOL0     H95419   8.603   6.403   7.839  0.4504 -3.0174 -0.5474
  723MOL0     H95420   9.006   6.155   7.653  1.7061 -2.0344 -0.4498
  723MOL0     H95421   9.235   6.086   7.720  1.2074  1.7037  2.1925
  723MOL0     H95422  10.807   6.612   8.318 -2.2491  0.2881 -0.3157
  723MOL0     H95423  11.035   6.596   8.371 -2.8403  3.0217 -0.3373
  723MOL0     H95424  11.319   6.338   8.733 -0.7064 -2.1375 -0.7617
  723MOL0     H95425  11.543   6.307   8.838 -0.0985 -2.1620  1.1466
  723MOL0     H95426  11.828   6.542   8.594  2.4293  0.0230 -1.4134
  723MOL0     H95427  11.953   6.415   8.616 -1.7274 -2.2314 -0.2090
  723MOL0     H95428  11.914   6.449   8.873  0.8788  2.0977  2.3400
  723MOL0     H95429  11.998   6.589   8.793 -1.8880  3.8149  0.4453
  723MOL0     H95430  11.713   6.551   8.877  0.3392 -1.0512 -0.4980
  723MOL0     H95431  11.759   6.679   8.769 -0.7213 -0.2002  0.2303
  723MOL0     H95432  11.869   6.637   9.052  4.6911  0.0227 -0.9650
  723MOL0     H95433  11.942   6.747   8.944 -0.9686  0.8702 -0.8482
  723MOL0     H95434  11.608   6.973   8.998 -2.0004 -0.7485 -1.7852
  723MOL0     H95435  11.715   6.416   8.455  1.9613 -0.3535  1.6887
  723MOL0     H95436  11.488   6.435   8.353 -0.1698 -1.7190 -1.3399
  724MOL0     O95437  11.150   1.746   2.046  0.3594 -0.4014  0.3181
  724MOL0     C95438  11.168   1.692   2.161 -0.3548 -0.4725  0.4710
  724MOL0     O95439  11.092   1.710   2.262  0.4371  0.2835 -0.6631
  724MOL0     C95440  10.975   1.783   2.264 -0.2086  0.6969 -0.6846
  724MOL0     C95441  10.879   1.800   2.167 -0.2655  0.3190  0.9081
  724MOL0     C95442  10.759   1.872   2.175  0.1863 -0.1064 -0.7943
  724MOL0     C95443  10.729   1.939   2.294 -0.0222 -0.1015  0.1468
  724MOL0     O95444  10.626   2.020   2.326  0.5115 -0.2386  0.1323
  724MOL0     C95445  10.510   2.015   2.245  0.6084  0.7299 -0.1061
  724MOL0     C95446  10.423   1.895   2.278 -0.9281 -0.1182 -0.0378
  724MOL0     C95447  10.327   1.872   2.165 -1.2788  0.1607 -0.3013
  724MOL0     C95448  10.226   1.984   2.136  0.1061  0.0237  0.2262
  724MOL0     C95449  10.152   2.053   2.253 -0.1137  0.7081  0.0894
  724MOL0     C95450  10.091   1.960   2.352  0.4606  0.1705 -1.4967
  724MOL0     C95451   9.994   2.037   2.453 -0.4349  0.4736  0.0758
  724MOL0     C95452   9.877   1.958   2.493  0.3120 -0.8341  0.5765
  724MOL0     N95453   9.913   1.826   2.564  0.2580  1.1856  1.0187
  724MOL0     C95454   9.953   1.710   2.504 -0.0877 -0.5989  0.6241
  724MOL0     C95455   9.964   1.615   2.598  0.2186  0.5081  0.3427
  724MOL0     C95456  10.014   1.478   2.578  0.1485 -0.0945 -0.4363
  724MOL0     C95457   9.905   1.384   2.511  0.1396  0.0036  1.1681
  724MOL0     C95458   9.918   1.385   2.357 -0.1959  0.3731  0.0164
  724MOL0     C95459   9.812   1.296   2.296 -1.6029  0.8725  0.1600
  724MOL0     O95460   9.690   1.362   2.331 -0.1084  0.2150  0.1500
  724MOL0     C95461   9.577   1.291   2.313  0.8816  0.4329 -0.2874
  724MOL0     C95462   9.528   1.228   2.189 -0.4826 -0.1966 -0.2784
  724MOL0     C95463   9.402   1.170   2.175  0.3233  0.3401  0.0212
  724MOL0     C95464   9.316   1.178   2.283  0.7677  0.8078  0.0917
  724MOL0     C95465   9.190   1.099   2.288  0.1439 -0.0165 -1.0498
  724MOL0     O95466   9.161   1.012   2.190  0.0839  0.7163  0.2975
  724MOL0     C95467   9.049   0.926   2.213  0.5570 -1.2901 -0.5999
  724MOL0     C95468   8.927   0.949   2.142  0.2709  0.8396  0.3120
  724MOL0     C95469   8.823   0.856   2.141 -0.5354  0.2175  0.0509
  724MOL0     C95470   8.842   0.736   2.209 -1.2921  0.3947  0.2467
  724MOL0     O95471   8.761   0.630   2.223  0.6282 -0.2236  0.3003
  724MOL0     C95472   8.621   0.659   2.238 -0.6086  0.1448  0.4493
  724MOL0     C95473   8.531   0.546   2.284  0.2981  0.2837 -0.0158
  724MOL0     C95474   8.530   0.422   2.187 -0.9573 -0.5134  0.2135
  724MOL0     C95475   8.419   0.317   2.213 -0.3258  0.5729 -0.0154
  724MOL0     C95476   8.453   0.178   2.158  0.0572 -0.4870  0.1340
  724MOL0     C95477   8.326   0.093   2.150 -0.1961  0.3778  0.3633
  724MOL0     C95478   8.367  -0.043   2.097  0.5118 -0.2434 -0.0834
  724MOL0     C95479   8.390  -0.048   1.940  1.3366 -1.0775 -0.3371
  724MOL0    Cl95480   8.236  -0.023   1.860  0.1185  0.0841  0.2158
  724MOL0     C95481   8.959   0.719   2.287  0.4685 -0.0284  0.6961
  724MOL0     C95482   9.058   0.816   2.288  0.1558 -0.2341 -0.3379
  724MOL0     O95483   9.110   1.138   2.377 -0.0330  0.2127 -0.2369
  724MOL0     C95484   9.360   1.238   2.407 -0.6133  0.3940  0.5046
  724MOL0     C95485   9.482   1.297   2.418 -0.1228  0.6014 -0.3551
  724MOL0     N95486   9.910   1.673   2.717 -0.3535  0.5138  0.1321
  724MOL0     N95487   9.894   1.798   2.691  0.0046  0.6760 -0.2755
  724MOL0     C95488  10.828   1.919   2.401 -0.2356  0.8331  0.2653
  724MOL0     C95489  10.943   1.844   2.385 -0.3338  0.0376  0.1675
  724MOL0     C95490  11.302   1.625   2.192 -0.0096 -0.0167  0.1572
  724MOL0     C95491  11.325   1.583   2.323 -1.1468 -0.2701  0.3333
  724MOL0     C95492  11.425   1.495   2.354 -0.1743 -0.4867 -0.1531
  724MOL0     C95493  11.512   1.450   2.259 -0.3341 -0.3076  0.7991
  724MOL0     O95494  11.622   1.371   2.281  0.6611 -0.1688  0.9397
  724MOL0     C95495  11.660   1.319   2.410  0.1931 -0.5243 -0.0562
  724MOL0     C95496  11.694   1.178   2.401 -0.1456  0.3971  0.5164
  724MOL0     C95497  11.584   1.080   2.369  1.0187 -0.1167  0.3645
  724MOL0     C95498  11.595   0.936   2.416 -0.0409  0.8028  0.0820
  724MOL0     C95499  11.691   0.869   2.324 -0.0153 -0.8216  0.0536
  724MOL0     C95500  11.782   0.812   2.274 -0.3116 -0.0814  0.1088
  724MOL0     C95501  11.501   1.499   2.135  0.0687 -0.0821  0.1773
  724MOL0     C95502  11.395   1.589   2.098  0.3863 -0.3408 -0.3782
  724MOL0     H95503  10.903   1.747   2.075 -0.4329  2.2089 -0.2801
  724MOL0     H95504  10.686   1.873   2.095 -1.9473 -1.2963  1.0019
  724MOL0     H95505  10.527   2.026   2.138 -0.8171  1.3927 -0.2838
  724MOL0     H95506  10.451   2.104   2.270  1.6041  0.8402  2.1820
  724MOL0     H95507  10.368   1.907   2.372 -2.5010 -1.7673 -0.6787
  724MOL0     H95508  10.482   1.803   2.289  1.7915  1.4234 -0.9662
  724MOL0     H95509  10.265   1.787   2.194 -2.7094  0.5491 -2.0372
  724MOL0     H95510  10.383   1.856   2.072  0.9248  1.0408  0.8017
  724MOL0     H95511  10.284   2.059   2.082  0.8014  0.3133  1.3476
  724MOL0     H95512  10.155   1.964   2.055 -0.4879  2.5677  0.0030
  724MOL0     H95513  10.066   2.110   2.216 -1.9189 -0.9212  1.5091
  724MOL0     H95514  10.216   2.129   2.298  1.8317  1.7658 -4.0310
  724MOL0     H95515  10.171   1.932   2.421 -0.3821  3.1722  0.9062
  724MOL0     H95516  10.049   1.865   2.318  2.4492 -1.9928  1.5225
  724MOL0     H95517  10.053   2.058   2.542 -1.7185  0.9067  0.8594
  724MOL0     H95518   9.956   2.129   2.407  0.3583  0.1373 -1.2948
  724MOL0     H95519   9.815   1.932   2.406  1.0884 -1.2859  0.1462
  724MOL0     H95520   9.822   2.023   2.561 -1.3163 -2.0170  0.4473
  724MOL0     H95521   9.973   1.707   2.397  1.8849  0.0851  0.9289
  724MOL0     H95522  10.027   1.447   2.682 -0.7639 -4.2453 -1.3966
  724MOL0     H95523  10.115   1.481   2.537  1.0639 -0.7729  1.6358
  724MOL0     H95524   9.804   1.412   2.541  0.2388  1.5217  0.2216
  724MOL0     H95525   9.916   1.282   2.548 -0.7979  0.3262  2.3843
  724MOL0     H95526   9.905   1.487   2.320  0.7501  1.6569  2.9471
  724MOL0     H95527  10.021   1.359   2.331 -0.2855  1.6275 -1.8518
  724MOL0     H95528   9.818   1.190   2.326  2.5019  0.6557 -0.7622
  724MOL0     H95529   9.824   1.294   2.187 -0.7329 -0.9043  0.2507
  724MOL0     H95530   9.598   1.225   2.106 -0.6403  2.4409 -0.5883
  724MOL0     H95531   9.380   1.106   2.091 -0.2687 -0.0666  0.4739
  724MOL0     H95532   8.912   1.035   2.078 -2.2328 -2.7663 -4.5902
  724MOL0     H95533   8.726   0.875   2.096 -1.4455  1.0969  2.2258
  724MOL0     H95534   8.590   0.681   2.136 -1.2991 -1.8810  0.1641
  724MOL0     H95535   8.602   0.754   2.289 -2.0978  1.3301 -2.1080
  724MOL0     H95536   8.431   0.586   2.301 -0.1559  0.3392 -2.4649
  724MOL0     H95537   8.568   0.503   2.378  1.6415  0.2133 -0.5460
  724MOL0     H95538   8.627   0.371   2.187 -1.2838 -1.4345 -3.6557
  724MOL0     H95539   8.528   0.460   2.085  1.5376 -0.9977 -0.0943
  724MOL0     H95540   8.394   0.317   2.319  0.8964 -1.3563  0.3195
  724MOL0     H95541   8.327   0.347   2.161 -2.4757 -1.8409  2.1239
  724MOL0     H95542   8.528   0.126   2.218 -1.0681 -1.1797  0.9811
  724MOL0     H95543   8.491   0.189   2.056 -0.8947  0.9681 -0.1103
  724MOL0     H95544   8.253   0.122   2.073  0.5720  0.1513 -0.4712
  724MOL0     H95545   8.271   0.083   2.244  2.6809  1.0253  2.2359
  724MOL0     H95546   8.447  -0.079   2.163  1.1400  1.4793  0.1283
  724MOL0     H95547   8.270  -0.087   2.123 -1.8740  4.6976  0.6018
  724MOL0     H95548   8.434  -0.147   1.919  3.4766  0.3545 -3.3101
  724MOL0     H95549   8.467   0.025   1.914  1.1143 -0.4501  0.7418
  724MOL0     H95550   8.967   0.629   2.348  0.0632 -2.1646 -2.1856
  724MOL0     H95551   9.147   0.790   2.345 -0.0737  0.4376  0.3482
  724MOL0     H95552   9.299   1.242   2.497  0.2718  0.1975  1.1328
  724MOL0     H95553   9.507   1.348   2.510  3.4018 -1.7537  0.2171
  724MOL0     H95554  10.808   1.961   2.499 -1.8053  1.1871 -0.1791
  724MOL0     H95555  11.003   1.830   2.475  0.6009  0.5036 -0.3753
  724MOL0     H95556  11.263   1.608   2.408 -1.3060  1.6708 -0.2883
  724MOL0     H95557  11.422   1.469   2.460 -2.9079 -3.3344 -0.7779
  724MOL0     H95558  11.603   1.338   2.502  0.7388 -1.2533  0.4347
  724MOL0     H95559  11.756   1.367   2.429  0.5439  0.0795 -2.9434
  724MOL0     H95560  11.774   1.158   2.328 -0.5208 -2.9320  0.8514
  724MOL0     H95561  11.737   1.155   2.499  0.0539  1.1839  0.6181
  724MOL0     H95562  11.571   1.084   2.260 -1.3546 -3.9181  0.3423
  724MOL0     H95563  11.495   1.110   2.426  0.6806  1.4176 -0.8991
  724MOL0     H95564  11.637   0.920   2.515 -3.1037 -2.4178  1.0618
  724MOL0     H95565  11.503   0.878   2.428  2.1106 -2.2719  4.1353
  724MOL0     H95566  11.861   0.757   2.228 -1.2543 -0.8760 -0.5891
  724MOL0     H95567  11.580   1.476   2.063 -0.5301  1.9326 -1.2280
  724MOL0     H95568  11.375   1.609   1.993 -1.3379  2.0083  0.3100
  725MOL0     O95569  11.263   2.237   5.660  0.4770  0.5713 -0.3072
  725MOL0     C95570  11.319   2.195   5.758 -0.4629 -0.2032  0.0727
  725MOL0     O95571  11.452   2.174   5.772 -0.3392  0.8001 -0.9734
  725MOL0     C95572  11.548   2.210   5.685  0.0849  0.3906  0.8375
  725MOL0     C95573  11.545   2.271   5.559 -0.0644  0.0879  0.0650
  725MOL0     C95574  11.664   2.307   5.498  1.2569  0.9877 -0.3654
  725MOL0     C95575  11.791   2.285   5.551  0.1939 -0.6283  0.0855
  725MOL0     O95576  11.907   2.334   5.497 -0.5160 -0.1421 -0.7754
  725MOL0     C95577  11.920   2.281   5.364  0.1895  0.1159 -0.3250
  725MOL0     C95578  12.050   2.188   5.349 -0.1797 -0.0199  0.1642
  725MOL0     C95579  12.051   2.089   5.457  0.3424  0.8027  0.1809
  725MOL0     C95580  12.162   1.973   5.452 -0.7012  0.3576  0.1915
  725MOL0     C95581  12.310   2.020   5.480  0.9013  0.6230  0.2539
  725MOL0     C95582  12.379   2.090   5.352 -0.5636 -0.0465 -1.0343
  725MOL0     C95583  12.521   2.132   5.389 -0.7674  0.5169 -0.2507
  725MOL0     C95584  12.593   2.160   5.263  0.0694  0.4627  0.9516
  725MOL0     N95585  12.742   2.141   5.273  0.3687  0.8809 -0.3966
  725MOL0     C95586  12.830   2.242   5.239 -0.2520 -0.1014 -0.1422
  725MOL0     C95587  12.955   2.184   5.236  0.5031 -0.3071  0.8401
  725MOL0     C95588  13.083   2.252   5.192  0.6634 -0.0139 -0.9647
  725MOL0     C95589  13.210   2.179   5.236  0.1403  0.0239  0.9253
  725MOL0     C95590  13.312   2.187   5.131 -0.6535  0.8554  0.4440
  725MOL0     C95591  13.443   2.131   5.188  0.8242  0.3434 -0.0185
  725MOL0     O95592  13.432   1.989   5.193  0.6709 -0.7804  0.0321
  725MOL0     C95593  13.539   1.915   5.228 -0.2448  0.5183  0.2963
  725MOL0     C95594  13.513   1.790   5.273  0.1027  0.3032 -0.4220
  725MOL0     C95595  13.611   1.710   5.324 -0.0195 -0.4443 -0.2439
  725MOL0     C95596  13.748   1.750   5.324 -0.2902 -0.0865  0.2368
  725MOL0     C95597  13.855   1.657   5.379 -0.3838  0.0954  1.1820
  725MOL0     O95598  13.981   1.700   5.391  0.0427 -0.6275 -0.3322
  725MOL0     C95599  14.076   1.602   5.381 -0.3501  0.0573 -1.3367
  725MOL0     C95600  14.132   1.567   5.257 -0.5788  1.4438  0.1529
  725MOL0     C95601  14.234   1.469   5.248 -0.7190  0.6908 -0.5231
  725MOL0     C95602  14.278   1.409   5.368 -0.1163 -0.2230  0.1809
  725MOL0     O95603  14.360   1.304   5.346  0.2671  0.4471  0.4793
  725MOL0     C95604  14.378   1.224   5.465  0.7112 -0.0575  0.9487
  725MOL0     C95605  14.449   1.100   5.427  0.6109 -0.0745 -0.0372
  725MOL0     C95606  14.589   1.100   5.498 -0.5463  0.5972  0.1536
  725MOL0     C95607  14.673   0.990   5.429 -0.0448 -0.6166  0.6178
  725MOL0     C95608  14.819   1.011   5.479 -0.1577  0.2887  0.1777
  725MOL0     C95609  14.900   0.907   5.406 -0.4457  0.1905  0.4424
  725MOL0     C95610  15.052   0.940   5.427  0.2332  1.4771 -0.0311
  725MOL0     C95611  15.144   0.839   5.352 -0.7821  0.0900 -0.2016
  725MOL0    Cl95612  15.125   0.673   5.407 -0.4111  0.0892  0.0880
  725MOL0     C95613  14.238   1.462   5.498  0.3027  0.0590  0.6094
  725MOL0     C95614  14.137   1.562   5.502  0.7148  0.3541  0.1460
  725MOL0     O95615  13.824   1.532   5.393 -0.4946 -0.0160 -0.1358
  725MOL0     C95616  13.773   1.871   5.273 -0.1679 -0.9671  0.2906
  725MOL0     C95617  13.674   1.953   5.219  0.2834  0.6333  0.1092
  725MOL0     N95618  12.932   2.052   5.275 -0.0613 -0.4532  0.6815
  725MOL0     N95619  12.809   2.028   5.300  0.4103  0.5244  0.1426
  725MOL0     C95620  11.795   2.232   5.678  0.0920  0.4377  0.2744
  725MOL0     C95621  11.678   2.186   5.740 -0.9927 -0.0148  0.3519
  725MOL0     C95622  11.244   2.167   5.878  0.2977  0.2827 -0.1824
  725MOL0     C95623  11.101   2.202   5.876 -0.4577  0.6244  0.0706
  725MOL0     C95624  11.011   2.162   5.972 -0.6654 -0.3154 -0.4416
  725MOL0     C95625  11.066   2.084   6.083  0.4466  0.9560 -0.8959
  725MOL0     O95626  10.985   2.017   6.182  0.8554  0.0412 -0.3469
  725MOL0     C95627  10.862   2.083   6.217 -2.0275 -0.0287  0.2927
  725MOL0     C95628  10.882   2.211   6.292  0.2880  0.6181 -0.6956
  725MOL0     C95629  10.964   2.196   6.421 -0.0374 -0.3722  0.0498
  725MOL0     C95630  10.892   2.148   6.545  0.3408  0.9048 -0.1483
  725MOL0     C95631  10.786   2.248   6.579 -0.1060 -0.5850 -0.1297
  725MOL0     C95632  10.702   2.336   6.610  0.0047 -0.5795 -0.4010
  725MOL0     C95633  11.206   2.052   6.082 -0.5396 -0.3385  0.0958
  725MOL0     C95634  11.301   2.092   5.984  0.8201  0.3947  0.1449
  725MOL0     H95635  11.452   2.286   5.506 -0.7412 -0.2696  1.1084
  725MOL0     H95636  11.653   2.358   5.403 -0.2289 -1.1657 -1.4344
  725MOL0     H95637  11.939   2.369   5.303 -0.0974 -1.0821 -2.2125
  725MOL0     H95638  11.830   2.228   5.332 -0.7043  0.7235  1.0683
  725MOL0     H95639  12.136   2.252   5.371 -0.1424 -0.1819  0.4949
  725MOL0     H95640  12.057   2.143   5.250 -3.9555  1.3084 -0.8883
  725MOL0     H95641  11.961   2.028   5.455  1.0507 -0.3425  1.4089
  725MOL0     H95642  12.054   2.145   5.551 -2.9172  1.6557 -0.1093
  725MOL0     H95643  12.142   1.901   5.532  2.8189  0.9962  1.8210
  725MOL0     H95644  12.159   1.921   5.356 -2.1507 -1.2733  1.0412
  725MOL0     H95645  12.374   1.935   5.501  4.0908  2.3988 -1.5365
  725MOL0     H95646  12.302   2.089   5.565  0.2815 -1.0555  1.6090
  725MOL0     H95647  12.325   2.177   5.316  0.3217  1.7745  1.7055
  725MOL0     H95648  12.375   2.017   5.271 -2.0367  3.3748 -4.3319
  725MOL0     H95649  12.531   2.209   5.466 -1.3591 -0.8753  1.2911
  725MOL0     H95650  12.581   2.050   5.429  0.9796  1.7181 -0.2974
  725MOL0     H95651  12.569   2.261   5.230 -1.1718 -0.1688 -0.1801
  725MOL0     H95652  12.561   2.089   5.186  2.2024 -0.0179  0.4257
  725MOL0     H95653  12.810   2.346   5.212 -1.4849 -0.7864 -2.0788
  725MOL0     H95654  13.080   2.354   5.232 -6.5663 -0.0296 -0.0849
  725MOL0     H95655  13.071   2.258   5.083  0.6005  0.8189 -0.9186
  725MOL0     H95656  13.178   2.075   5.240  0.9359 -0.5936 -3.6211
  725MOL0     H95657  13.262   2.213   5.326 -0.9811  2.9402  0.5862
  725MOL0     H95658  13.278   2.132   5.042  3.1281  0.6292 -1.0555
  725MOL0     H95659  13.325   2.292   5.102 -1.7819  1.0263  0.5003
  725MOL0     H95660  13.472   2.174   5.285  1.0946 -1.3703  0.6958
  725MOL0     H95661  13.527   2.160   5.124  1.5853 -0.8609  0.3964
  725MOL0     H95662  13.413   1.749   5.274  0.3146 -0.6195  3.9632
  725MOL0     H95663  13.581   1.611   5.358  0.7908 -1.8156 -3.2075
  725MOL0     H95664  14.099   1.628   5.173  2.8856  4.1659  0.5285
  725MOL0     H95665  14.279   1.426   5.159  2.1725 -1.6538  1.8432
  725MOL0     H95666  14.281   1.203   5.511  0.0928 -1.8510 -1.0187
  725MOL0     H95667  14.438   1.279   5.537 -0.6196  1.3605  1.0215
  725MOL0     H95668  14.461   1.086   5.319 -1.3248 -4.4829  0.0924
  725MOL0     H95669  14.392   1.014   5.462  0.4861  0.9614  2.5380
  725MOL0     H95670  14.590   1.075   5.605 -0.5842  0.2060  0.0637
  725MOL0     H95671  14.639   1.194   5.472  2.4612 -1.3339 -1.7498
  725MOL0     H95672  14.639   0.887   5.442  2.2746 -1.8096 -1.6607
  725MOL0     H95673  14.665   1.011   5.321 -0.3325 -1.0722  0.5497
  725MOL0     H95674  14.819   0.991   5.586 -2.2924 -2.1969 -0.1705
  725MOL0     H95675  14.850   1.111   5.450 -1.6393  0.2129 -1.9198
  725MOL0     H95676  14.881   0.923   5.299 -1.8835 -0.0498  0.6476
  725MOL0     H95677  14.877   0.805   5.438  2.4099 -1.0741 -1.0749
  725MOL0     H95678  15.083   1.037   5.388  1.0411  0.2777 -2.6354
  725MOL0     H95679  15.066   0.939   5.536  2.8873  0.4426 -0.2897
  725MOL0     H95680  15.249   0.865   5.370 -0.4915 -2.4314  2.3648
  725MOL0     H95681  15.120   0.848   5.246  0.5976 -0.3919 -0.5710
  725MOL0     H95682  14.271   1.436   5.598  0.7633  2.0482  1.0307
  725MOL0     H95683  14.112   1.620   5.590  0.9594  1.2760 -0.3720
  725MOL0     H95684  13.873   1.911   5.261 -0.0228 -1.4450 -0.1428
  725MOL0     H95685  13.690   2.050   5.172 -1.1895  1.1758  0.6521
  725MOL0     H95686  11.883   2.214   5.739 -0.2407 -0.3988  0.5259
  725MOL0     H95687  11.675   2.129   5.832  0.6071 -1.3966 -0.3985
  725MOL0     H95688  11.055   2.257   5.794 -2.3371 -0.4314  0.3765
  725MOL0     H95689  10.911   2.204   5.958 -0.6413 -0.6522 -1.7736
  725MOL0     H95690  10.818   2.009   6.285 -1.5331  0.3604  1.0441
  725MOL0     H95691  10.803   2.099   6.125  2.6316  0.3184 -2.9706
  725MOL0     H95692  10.915   2.295   6.232  1.3129 -0.9250 -2.3893
  725MOL0     H95693  10.777   2.233   6.313  0.2409 -1.3525  1.7566
  725MOL0     H95694  11.000   2.296   6.448 -2.3899  0.3228  0.8648
  725MOL0     H95695  11.055   2.140   6.395  0.0198 -0.7740  1.0651
  725MOL0     H95696  10.850   2.047   6.544  0.7276  0.6420  2.3937
  725MOL0     H95697  10.959   2.153   6.631 -1.2336 -1.2587  1.3324
  725MOL0     H95698  10.639   2.417   6.640  2.1567  2.3881 -3.2376
  725MOL0     H95699  11.240   1.992   6.166 -0.9519  2.7282  2.6392
  725MOL0     H95700  11.404   2.057   5.985 -0.0273 -2.2975  0.1492
  726MOL0     O95701   9.606   6.015   7.812  0.7977  0.4555 -0.0822
  726MOL0     C95702   9.656   5.913   7.774 -0.3301 -1.1164 -0.8023
  726MOL0     O95703   9.788   5.894   7.789  0.4067 -0.3972 -0.3077
  726MOL0     C95704   9.870   5.992   7.833  0.3865 -0.2375 -0.0861
  726MOL0     C95705   9.958   6.078   7.762  0.1901 -0.3432 -0.3016
  726MOL0     C95706  10.049   6.166   7.809 -0.4997 -0.4556  0.1467
  726MOL0     C95707  10.070   6.169   7.944 -0.5411 -0.7395  0.6267
  726MOL0     O95708  10.159   6.255   8.000 -0.0265 -0.3488  0.7926
  726MOL0     C95709  10.257   6.201   8.097 -0.6971  0.1897  0.3737
  726MOL0     C95710  10.379   6.296   8.111  0.4983 -0.3131 -0.3004
  726MOL0     C95711  10.510   6.230   8.146  0.9927 -0.3392  0.4757
  726MOL0     C95712  10.602   6.323   8.219  0.8034 -0.2660 -0.1999
  726MOL0     C95713  10.745   6.275   8.226 -0.0936 -0.2363 -0.4431
  726MOL0     C95714  10.806   6.213   8.107  0.1379  0.9553  1.1834
  726MOL0     C95715  10.963   6.197   8.105 -0.0366 -0.6062  0.6703
  726MOL0     C95716  11.010   6.132   8.235  0.1071 -0.7354  0.8240
  726MOL0     N95717  11.149   6.083   8.216  0.9262  0.0218  0.2211
  726MOL0     C95718  11.256   6.159   8.180  0.1003 -0.5876 -0.5860
  726MOL0     C95719  11.357   6.072   8.185 -0.6927 -0.0372 -0.3778
  726MOL0     C95720  11.507   6.112   8.173 -0.1028 -0.3505  0.1214
  726MOL0     C95721  11.527   6.207   8.052  0.1180 -0.3791  0.6716
  726MOL0     C95722  11.503   6.129   7.915 -0.6610 -0.5567  0.0329
  726MOL0     C95723  11.521   6.219   7.793  0.5378 -0.5893  0.2596
  726MOL0     O95724  11.412   6.317   7.797  0.1319  0.3388  0.3289
  726MOL0     C95725  11.284   6.278   7.764 -0.7029  0.4627  0.6668
  726MOL0     C95726  11.249   6.164   7.700  0.2075  0.4652  0.6872
  726MOL0     C95727  11.119   6.146   7.659 -0.2692 -0.0947  0.2726
  726MOL0     C95728  11.016   6.238   7.693  0.8125 -0.0280 -1.2448
  726MOL0     C95729  10.873   6.205   7.663 -0.1739 -0.2560 -0.3620
  726MOL0     O95730  10.783   6.293   7.695 -0.7533  0.4453 -1.0107
  726MOL0     C95731  10.659   6.269   7.644  0.1376  0.5573 -0.0075
  726MOL0     C95732  10.543   6.228   7.730 -0.8034  0.2688  0.4261
  726MOL0     C95733  10.420   6.221   7.674 -0.2054  0.0615 -0.4212
  726MOL0     C95734  10.401   6.237   7.538  0.2086 -0.2429 -0.2725
  726MOL0     O95735  10.270   6.239   7.502 -0.3153 -0.4107 -0.1907
  726MOL0     C95736  10.236   6.219   7.363 -0.5192  0.4301 -0.1647
  726MOL0     C95737  10.091   6.202   7.336 -0.6857  0.2550 -0.6005
  726MOL0     C95738  10.012   6.329   7.370  0.2090  0.3652 -0.2417
  726MOL0     C95739   9.863   6.316   7.325 -0.2489  0.0619 -0.4730
  726MOL0     C95740   9.783   6.430   7.398 -0.1930 -0.2801  0.3066
  726MOL0     C95741   9.652   6.465   7.333  0.5074  0.0526  0.2067
  726MOL0     C95742   9.542   6.352   7.314 -0.0529  0.2070 -0.3451
  726MOL0     C95743   9.496   6.295   7.445 -0.2249  0.7816 -0.8495
  726MOL0    Cl95744   9.378   6.166   7.412 -0.1151 -0.2321  0.1235
  726MOL0     C95745  10.513   6.238   7.457 -0.0083 -0.1822  0.3707
  726MOL0     C95746  10.641   6.261   7.504 -0.5121 -0.6746 -0.3691
  726MOL0     O95747  10.849   6.093   7.614  0.4820  0.1564 -0.1469
  726MOL0     C95748  11.048   6.358   7.758  0.3127 -0.8628  0.7112
  726MOL0     C95749  11.178   6.372   7.798 -0.4265 -0.2951 -0.0605
  726MOL0     N95750  11.314   5.944   8.206  0.6038 -0.5839  0.2662
  726MOL0     N95751  11.189   5.950   8.228  0.2439  0.6408 -0.6833
  726MOL0     C95752   9.986   6.087   8.029 -0.4230  0.3783  0.5735
  726MOL0     C95753   9.894   6.007   7.969  0.4418  0.7408  0.7276
  726MOL0     C95754   9.592   5.819   7.684  0.9641  0.4152 -0.2840
  726MOL0     C95755   9.467   5.844   7.636  0.2855  0.0283 -0.1538
  726MOL0     C95756   9.407   5.749   7.552  0.1632 -0.3039  0.0208
  726MOL0     C95757   9.476   5.634   7.510  0.3171 -0.3670  0.6535
  726MOL0     O95758   9.405   5.564   7.412 -0.6828 -0.9470  0.4224
  726MOL0     C95759   9.444   5.433   7.360  0.2345 -0.5759 -0.4355
  726MOL0     C95760   9.376   5.385   7.238 -0.2469  0.1514 -0.0688
  726MOL0     C95761   9.221   5.391   7.236  0.4956  0.1765 -0.1728
  726MOL0     C95762   9.134   5.323   7.340  0.2487  0.5785  0.1224
  726MOL0     C95763   8.994   5.362   7.324  0.1736  0.9567 -0.4875
  726MOL0     C95764   8.884   5.407   7.296  0.2979  0.2836  0.0901
  726MOL0     C95765   9.603   5.610   7.563 -0.0823  0.6827 -0.3434
  726MOL0     C95766   9.658   5.695   7.655  0.2652 -0.5004  0.7619
  726MOL0     H95767   9.955   6.077   7.654 -0.9565  0.2233 -0.2868
  726MOL0     H95768  10.106   6.226   7.739 -1.1696  0.1033  0.0607
  726MOL0     H95769  10.286   6.120   8.030 -0.1759  1.0586 -0.4768
  726MOL0     H95770  10.222   6.170   8.196  1.0058  1.1773  1.3241
  726MOL0     H95771  10.358   6.368   8.190  0.3391 -0.8924  0.1977
  726MOL0     H95772  10.389   6.350   8.017 -0.2428  1.9249  0.8464
  726MOL0     H95773  10.554   6.187   8.056 -1.6169 -2.5576  0.1219
  726MOL0     H95774  10.492   6.149   8.217  0.4612  2.4565  3.7957
  726MOL0     H95775  10.604   6.424   8.178 -3.1268 -0.6062 -1.6026
  726MOL0     H95776  10.557   6.337   8.318 -1.4160  0.7163 -1.2817
  726MOL0     H95777  10.739   6.196   8.302  1.8912  1.9485  2.1752
  726MOL0     H95778  10.806   6.357   8.264  1.5924 -1.9149  0.7066
  726MOL0     H95779  10.778   6.271   8.018 -1.1729 -1.3043  0.0217
  726MOL0     H95780  10.774   6.109   8.099  1.3957  0.6412 -0.3896
  726MOL0     H95781  10.989   6.136   8.018  0.4904  0.9043 -0.2574
  726MOL0     H95782  11.000   6.299   8.101 -4.3016  1.1881  1.1583
  726MOL0     H95783  10.949   6.047   8.267 -0.7841 -0.6410 -0.5278
  726MOL0     H95784  11.007   6.208   8.314  0.6802  2.7680 -2.2473
  726MOL0     H95785  11.269   6.259   8.140  1.6261  0.5037  2.3382
  726MOL0     H95786  11.566   6.023   8.151 -1.9825 -1.0921 -2.3573
  726MOL0     H95787  11.543   6.160   8.265 -0.7656  0.0234  0.1934
  726MOL0     H95788  11.629   6.245   8.059 -0.6704  1.8701  0.8853
  726MOL0     H95789  11.456   6.290   8.059 -0.1775 -0.7620  3.2860
  726MOL0     H95790  11.585   6.057   7.906  0.6120  0.8235  0.2800
  726MOL0     H95791  11.412   6.067   7.913  1.8797 -4.7054  1.2519
  726MOL0     H95792  11.508   6.160   7.701 -3.4838  0.7431 -0.1873
  726MOL0     H95793  11.614   6.276   7.807 -1.0808  2.4666 -0.5726
  726MOL0     H95794  11.324   6.098   7.657  2.7634  1.9491  2.5925
  726MOL0     H95795  11.092   6.058   7.601  2.2051 -2.4448  2.4262
  726MOL0     H95796  10.555   6.221   7.838  2.6771 -0.4561  0.1302
  726MOL0     H95797  10.335   6.196   7.737 -1.9173  0.6767 -2.3712
  726MOL0     H95798  10.295   6.134   7.327 -1.2521 -0.1777  0.0409
  726MOL0     H95799  10.266   6.307   7.306 -3.7989 -0.7561 -4.1937
  726MOL0     H95800  10.061   6.112   7.391 -1.9609 -0.0363 -1.7321
  726MOL0     H95801  10.085   6.184   7.228  2.1065  0.4344 -0.8681
  726MOL0     H95802  10.057   6.420   7.327  0.7448  1.6100  2.7210
  726MOL0     H95803  10.018   6.345   7.478 -3.3118  0.9924 -0.0133
  726MOL0     H95804   9.854   6.325   7.216 -1.5019 -0.1323 -0.3966
  726MOL0     H95805   9.825   6.216   7.347  0.1172 -0.0698 -0.4310
  726MOL0     H95806   9.854   6.514   7.398  0.6703 -0.9947  0.5303
  726MOL0     H95807   9.775   6.394   7.501 -0.6326 -1.0133  0.0263
  726MOL0     H95808   9.670   6.499   7.230  0.2287 -0.5774 -0.0548
  726MOL0     H95809   9.602   6.543   7.391 -2.2465 -1.5057  0.1048
  726MOL0     H95810   9.458   6.394   7.258  1.8767 -0.1912 -3.8523
  726MOL0     H95811   9.590   6.274   7.254  0.6185  1.8161 -1.9847
  726MOL0     H95812   9.446   6.363   7.514  0.0150 -0.4323  0.5513
  726MOL0     H95813   9.583   6.259   7.501 -1.9877  0.6700  2.0010
  726MOL0     H95814  10.505   6.241   7.349 -0.9602 -1.5126  0.3808
  726MOL0     H95815  10.727   6.276   7.441 -0.0694  2.6260  0.8085
  726MOL0     H95816  10.967   6.425   7.785 -0.4007 -1.9917  1.4287
  726MOL0     H95817  11.216   6.467   7.834  0.0828 -0.7592  0.6631
  726MOL0     H95818  10.021   6.076   8.132  0.8428 -0.1869  0.1117
  726MOL0     H95819   9.839   5.938   8.033  1.0108 -0.2059  0.2222
  726MOL0     H95820   9.405   5.930   7.660  0.0169 -0.6515  1.8226
  726MOL0     H95821   9.308   5.772   7.514  1.5802  1.4383 -2.9725
  726MOL0     H95822   9.418   5.359   7.437  0.2117 -0.0427  0.0738
  726MOL0     H95823   9.551   5.433   7.337  0.1807  1.0560 -0.8042
  726MOL0     H95824   9.405   5.441   7.149  1.1673  0.2178  0.4123
  726MOL0     H95825   9.408   5.281   7.228  1.4035  0.6585 -0.3354
  726MOL0     H95826   9.186   5.359   7.138 -1.3560 -0.5115  0.6699
  726MOL0     H95827   9.205   5.498   7.251  3.5697  0.8497 -0.9139
  726MOL0     H95828   9.146   5.215   7.334  0.7009  0.6532 -0.3909
  726MOL0     H95829   9.169   5.357   7.438  2.6532 -2.7129  0.5836
  726MOL0     H95830   8.783   5.428   7.269 -0.7127 -1.7546  1.9511
  726MOL0     H95831   9.655   5.519   7.535  0.5155  0.2080  2.0277
  726MOL0     H95832   9.750   5.663   7.703  0.6331 -3.5635 -1.6510
  727MOL0     O95833   9.946   5.132   0.648 -0.4875  0.6333 -0.4879
  727MOL0     C95834   9.934   5.215   0.744  0.9667 -0.0747  1.2197
  727MOL0     O95835   9.817   5.283   0.784  0.4022  0.0237  0.2294
  727MOL0     C95836   9.699   5.269   0.713 -0.8473  0.1484 -0.1390
  727MOL0     C95837   9.583   5.280   0.793  0.4843  0.1494  1.0303
  727MOL0     C95838   9.451   5.282   0.732 -0.2114 -0.7453  1.1437
  727MOL0     C95839   9.447   5.277   0.593 -0.0107  0.6511  1.0442
  727MOL0     O95840   9.321   5.279   0.537 -0.5247 -0.5296 -0.5650
  727MOL0     C95841   9.305   5.215   0.406 -0.4238 -0.4170 -0.2987
  727MOL0     C95842   9.159   5.187   0.391  0.4215  0.2347  0.6330
  727MOL0     C95843   9.077   5.312   0.387 -0.7316 -0.0656  1.0610
  727MOL0     C95844   8.926   5.291   0.365 -0.0893  0.2328 -0.9277
  727MOL0     C95845   8.850   5.421   0.359  0.1051 -0.1270  0.4192
  727MOL0     C95846   8.699   5.390   0.343 -0.8472  0.5898  0.0145
  727MOL0     C95847   8.632   5.530   0.378  0.2384  0.2481  0.5006
  727MOL0     C95848   8.485   5.518   0.344 -0.5699 -0.4158 -0.3471
  727MOL0     N95849   8.401   5.644   0.346 -0.5715 -0.1964  0.7090
  727MOL0     C95850   8.418   5.757   0.409  0.7186 -0.8408 -0.0456
  727MOL0     C95851   8.327   5.844   0.356  0.1072  0.5346 -0.2515
  727MOL0     C95852   8.301   5.979   0.409  1.0440  0.6001  0.0626
  727MOL0     C95853   8.188   6.039   0.340  0.5437 -0.2087  0.3959
  727MOL0     C95854   8.142   6.170   0.417 -0.3520  0.2652 -0.1838
  727MOL0     C95855   8.012   6.241   0.355 -0.4934 -0.2282  0.1412
  727MOL0     O95856   8.047   6.285   0.217  0.0356  0.1567 -0.2840
  727MOL0     C95857   7.936   6.340   0.157 -0.8028  0.0579  0.0348
  727MOL0     C95858   7.960   6.441   0.064  0.0981 -0.0417  0.3055
  727MOL0     C95859   7.857   6.496  -0.023 -0.5849 -1.0822  0.3145
  727MOL0     C95860   7.728   6.441  -0.010 -0.6510  0.1681  0.1646
  727MOL0     C95861   7.618   6.482  -0.106  0.2117 -0.2657  0.7534
  727MOL0     O95862   7.660   6.549  -0.221  0.0629 -0.1131  0.6340
  727MOL0     C95863   7.579   6.546  -0.335 -0.1507 -0.4201 -1.0291
  727MOL0     C95864   7.525   6.422  -0.376 -0.3751  0.8706  0.2104
  727MOL0     C95865   7.444   6.434  -0.489 -0.1331 -0.3521  0.9685
  727MOL0     C95866   7.426   6.551  -0.567 -0.9795 -0.3968  0.3394
  727MOL0     O95867   7.333   6.560  -0.676 -0.3682  0.4405 -0.2949
  727MOL0     C95868   7.315   6.683  -0.746 -0.0885  0.9014  0.0533
  727MOL0     C95869   7.160   6.719  -0.760 -1.0526 -0.0208  0.6673
  727MOL0     C95870   7.089   6.767  -0.635 -0.6566  0.1902  0.0422
  727MOL0     C95871   6.946   6.811  -0.676 -0.2774  0.4807 -0.8852
  727MOL0     C95872   6.845   6.692  -0.679 -0.5965 -0.4969  0.3732
  727MOL0     C95873   6.777   6.662  -0.545 -0.3556 -0.6588 -0.3186
  727MOL0     C95874   6.715   6.520  -0.543 -0.5175  0.0186  0.6838
  727MOL0     C95875   6.609   6.512  -0.656 -0.6743  1.2045 -0.0891
  727MOL0    Cl95876   6.526   6.360  -0.611  0.1626 -0.2010  0.4792
  727MOL0     C95877   7.507   6.665  -0.533 -0.3225 -0.0124 -0.6218
  727MOL0     C95878   7.576   6.658  -0.413  0.3252  0.4471  1.6265
  727MOL0     O95879   7.502   6.442  -0.085 -0.3640  0.1873  0.0509
  727MOL0     C95880   7.700   6.339   0.086  0.6171 -0.0511 -0.0961
  727MOL0     C95881   7.804   6.294   0.165  1.6991  0.1549  0.4848
  727MOL0     N95882   8.260   5.780   0.251  0.3688  0.2981  0.1648
  727MOL0     N95883   8.303   5.656   0.253  0.4164 -0.3062 -0.5558
  727MOL0     C95884   9.564   5.272   0.512  0.5743 -0.3842  0.1965
  727MOL0     C95885   9.688   5.267   0.576 -1.1412  0.1577  0.6594
  727MOL0     C95886  10.055   5.232   0.826  0.0964 -0.1191  0.1847
  727MOL0     C95887  10.175   5.177   0.798 -1.0979 -0.2973  0.7287
  727MOL0     C95888  10.298   5.207   0.877 -0.0564  0.5084 -0.3368
  727MOL0     C95889  10.289   5.306   0.983  0.4459 -0.5543  0.5244
  727MOL0     O95890  10.381   5.308   1.084 -0.0827 -0.8175 -0.4688
  727MOL0     C95891  10.507   5.242   1.052  0.3179  0.2702  0.0020
  727MOL0     C95892  10.615   5.295   1.138  0.2627 -0.3412 -0.0224
  727MOL0     C95893  10.756   5.258   1.071 -0.8807 -0.4737  0.4746
  727MOL0     C95894  10.863   5.298   1.162 -0.3621  0.1106 -0.0330
  727MOL0     C95895  10.859   5.437   1.221  0.2735 -0.3641  1.0844
  727MOL0     C95896  10.830   5.554   1.255 -0.4493  0.1731 -0.1961
  727MOL0     C95897  10.174   5.372   1.004  0.9080 -0.4682 -0.4743
  727MOL0     C95898  10.061   5.342   0.918 -0.6355  0.0204 -0.1120
  727MOL0     H95899   9.592   5.291   0.900 -0.3318  3.3042  0.8838
  727MOL0     H95900   9.354   5.272   0.779 -0.7727  0.9614  0.4320
  727MOL0     H95901   9.354   5.118   0.392 -2.9358 -1.5852 -1.5354
  727MOL0     H95902   9.345   5.276   0.324  2.2720 -2.8955 -1.0115
  727MOL0     H95903   9.111   5.132   0.473 -3.1086 -1.5961 -2.3806
  727MOL0     H95904   9.132   5.125   0.305 -0.4437  1.9150 -0.3462
  727MOL0     H95905   9.109   5.388   0.315  0.9218  2.2405  3.9583
  727MOL0     H95906   9.093   5.352   0.488 -3.3756  0.5774  1.2999
  727MOL0     H95907   8.918   5.235   0.271 -1.7790  0.4413 -0.9318
  727MOL0     H95908   8.877   5.232   0.443  0.3383  0.7602 -0.2456
  727MOL0     H95909   8.879   5.475   0.268  2.2728 -2.0977 -0.1554
  727MOL0     H95910   8.869   5.469   0.455  0.3849  0.0399  0.2841
  727MOL0     H95911   8.659   5.320   0.417 -0.5294  0.7350  0.3219
  727MOL0     H95912   8.672   5.339   0.250 -0.5779 -2.0060  1.2516
  727MOL0     H95913   8.639   5.556   0.483 -2.6590  0.1613  0.7981
  727MOL0     H95914   8.676   5.607   0.314 -2.3709  0.8566 -0.7372
  727MOL0     H95915   8.439   5.440   0.406 -2.2757 -0.0716 -1.1136
  727MOL0     H95916   8.495   5.478   0.243  2.6168  0.1465 -0.3499
  727MOL0     H95917   8.478   5.772   0.498 -1.6154 -3.0492  2.0696
  727MOL0     H95918   8.396   6.030   0.391  1.1438  1.1945  2.0760
  727MOL0     H95919   8.288   5.967   0.517  5.1338 -2.6591  0.4727
  727MOL0     H95920   8.092   5.987   0.335  0.8512 -0.6921 -0.7606
  727MOL0     H95921   8.223   6.077   0.244  1.2762 -1.8277 -0.0214
  727MOL0     H95922   8.134   6.141   0.522 -2.3907  2.3145  0.3215
  727MOL0     H95923   8.224   6.239   0.392  2.4964 -2.8176  0.0173
  727MOL0     H95924   7.992   6.330   0.414  2.8921 -0.4303  1.8869
  727MOL0     H95925   7.931   6.168   0.366  0.3664 -1.5163 -1.6561
  727MOL0     H95926   8.065   6.467   0.059  0.0401  0.7834  2.4757
  727MOL0     H95927   7.894   6.567  -0.096  0.8255  0.1028  2.0953
  727MOL0     H95928   7.530   6.336  -0.311  0.8258 -0.9235 -2.0958
  727MOL0     H95929   7.383   6.352  -0.525  0.9529 -1.7916  2.2859
  727MOL0     H95930   7.348   6.662  -0.848 -0.3460  2.3004 -0.3376
  727MOL0     H95931   7.373   6.769  -0.712  1.4202 -0.8547  2.2810
  727MOL0     H95932   7.113   6.629  -0.801  1.4295 -1.0498 -0.1305
  727MOL0     H95933   7.166   6.792  -0.841  0.5816 -1.2669 -0.4108
  727MOL0     H95934   7.147   6.847  -0.588 -0.6559  0.5767 -0.5966
  727MOL0     H95935   7.084   6.684  -0.564  3.5618 -1.7744 -1.5851
  727MOL0     H95936   6.913   6.892  -0.612 -0.2564  0.8409 -1.3248
  727MOL0     H95937   6.954   6.844  -0.780 -0.3085  0.1725 -0.9883
  727MOL0     H95938   6.887   6.606  -0.731 -0.7961 -0.0295 -0.5837
  727MOL0     H95939   6.759   6.717  -0.742  1.1797  2.3285 -1.1603
  727MOL0     H95940   6.696   6.734  -0.530  0.1889  0.3756 -2.0503
  727MOL0     H95941   6.840   6.672  -0.456 -1.6000 -2.5756  0.8617
  727MOL0     H95942   6.789   6.441  -0.553 -0.7235 -0.5110  2.8411
  727MOL0     H95943   6.669   6.500  -0.445  0.8421  0.0402  1.3481
  727MOL0     H95944   6.654   6.508  -0.755  1.3099  3.4453  0.6236
  727MOL0     H95945   6.541   6.597  -0.646 -1.1261  1.3082 -3.2278
  727MOL0     H95946   7.526   6.754  -0.592 -2.0176  3.2312  3.2852
  727MOL0     H95947   7.644   6.740  -0.395 -0.3210  1.3908  0.0205
  727MOL0     H95948   7.595   6.311   0.091  0.5609  0.1662 -0.0321
  727MOL0     H95949   7.775   6.210   0.227  3.5815 -0.9470 -0.0417
  727MOL0     H95950   9.564   5.270   0.403  1.2362  4.0573 -0.0746
  727MOL0     H95951   9.771   5.253   0.508 -0.3882  1.3280  1.2967
  727MOL0     H95952  10.181   5.097   0.725 -0.7979 -0.1985  0.6400
  727MOL0     H95953  10.390   5.152   0.859  2.2650  4.3148 -1.2005
  727MOL0     H95954  10.538   5.278   0.954  1.2108  1.4751  0.7120
  727MOL0     H95955  10.502   5.133   1.066 -1.5490  0.4419  0.9654
  727MOL0     H95956  10.604   5.402   1.156 -0.3144 -0.5341  0.8158
  727MOL0     H95957  10.621   5.253   1.239  3.6198 -0.8901 -0.3207
  727MOL0     H95958  10.769   5.306   0.974 -2.5680 -2.6573 -0.9479
  727MOL0     H95959  10.766   5.149   1.069 -1.9083 -0.5930  1.0429
  727MOL0     H95960  10.848   5.228   1.246  0.7600 -3.1115 -2.3090
  727MOL0     H95961  10.958   5.279   1.111 -1.1176  4.2736 -3.5245
  727MOL0     H95962  10.801   5.654   1.281 -1.3804 -0.8642  3.2706
  727MOL0     H95963  10.168   5.449   1.081  0.7518 -0.7668 -0.1881
  727MOL0     H95964   9.981   5.415   0.927 -0.2949  0.7732 -2.4066
  728MOL0     O95965  10.272   0.233  11.303 -0.6388  0.0444 -0.3609
  728MOL0     C95966  10.274   0.223  11.428  0.2088  0.8280 -0.3675
  728MOL0     O95967  10.174   0.189  11.508  0.8871  0.3874  0.0527
  728MOL0     C95968  10.050   0.179  11.442  0.4524  1.3624  0.0869
  728MOL0     C95969   9.994   0.061  11.422  0.3605  0.5300  0.5454
  728MOL0     C95970   9.877   0.040  11.345 -0.2444 -0.2371  0.2298
  728MOL0     C95971   9.834   0.151  11.267 -0.4039 -0.5507 -0.3969
  728MOL0     O95972   9.748   0.146  11.160 -0.5187  0.1936 -0.5889
  728MOL0     C95973   9.630   0.073  11.192  0.6789  0.7406  0.5042
  728MOL0     C95974   9.545   0.089  11.065  0.2963  1.1852 -0.0857
  728MOL0     C95975   9.398   0.042  11.096 -0.8186 -0.5264 -0.2652
  728MOL0     C95976   9.397  -0.089  11.173 -0.2467 -0.1854 -0.3406
  728MOL0     C95977   9.457  -0.204  11.080  0.3845  0.3270  0.0315
  728MOL0     C95978   9.401  -0.223  10.936 -0.3376  0.8527  0.7479
  728MOL0     C95979   9.256  -0.268  10.931 -0.8695  0.2124 -0.2117
  728MOL0     C95980   9.259  -0.422  10.923  0.7785 -0.3722  0.2634
  728MOL0     N95981   9.115  -0.466  10.909  0.4378 -0.0608  0.7891
  728MOL0     C95982   9.033  -0.483  11.017  0.1009  0.3047  0.3710
  728MOL0     C95983   8.915  -0.530  10.964  0.5770 -0.3575  0.3310
  728MOL0     C95984   8.780  -0.572  11.011 -0.0137  0.3185 -0.3851
  728MOL0     C95985   8.781  -0.656  11.149  0.7836  0.1992 -0.7127
  728MOL0     C95986   8.674  -0.769  11.148  0.2932  0.4443 -0.3211
  728MOL0     C95987   8.730  -0.893  11.070  0.4500  0.1562  0.1030
  728MOL0     O95988   8.624  -0.991  11.069  0.1661 -0.4940  0.0695
  728MOL0     C95989   8.520  -0.986  10.975 -0.2080 -0.1918  0.5615
  728MOL0     C95990   8.506  -0.898  10.859 -0.2488  0.1267  0.2456
  728MOL0     C95991   8.396  -0.902  10.768 -0.3884  0.8265 -1.2448
  728MOL0     C95992   8.299  -1.003  10.778  0.4459 -0.2447  0.2280
  728MOL0     C95993   8.187  -1.004  10.674 -1.3286 -0.6574  0.2555
  728MOL0     O95994   8.195  -0.915  10.568  0.0488  0.2466 -0.5956
  728MOL0     C95995   8.096  -0.935  10.470 -0.3617 -0.7219 -0.2449
  728MOL0     C95996   8.089  -1.064  10.405 -0.3910 -0.2738  0.2065
  728MOL0     C95997   7.978  -1.075  10.321 -0.1551 -0.9113  0.3348
  728MOL0     C95998   7.882  -0.973  10.297  0.0056  0.0742 -0.3292
  728MOL0     O95999   7.778  -0.976  10.206  0.4471  0.1646  0.0987
  728MOL0     C96000   7.763  -1.087  10.121  0.3737  0.2549  0.2216
  728MOL0     C96001   7.677  -1.060  10.000 -0.5281 -0.2547  0.1929
  728MOL0     C96002   7.582  -1.171   9.954 -0.0600  0.3648 -0.5388
  728MOL0     C96003   7.499  -1.149   9.823  0.2748 -0.0558  0.0209
  728MOL0     C96004   7.365  -1.095   9.845 -0.1601 -0.0839 -0.0868
  728MOL0     C96005   7.285  -1.084   9.715 -0.4543  0.3810 -0.6455
  728MOL0     C96006   7.149  -1.010   9.732  0.1854 -0.3194  0.4875
  728MOL0     C96007   7.053  -1.047   9.615  1.2848 -0.0444 -0.1050
  728MOL0    Cl96008   6.909  -0.941   9.617  0.5132  0.2696 -0.4495
  728MOL0     C96009   7.897  -0.860  10.360  0.5023  0.4946 -0.1375
  728MOL0     C96010   8.000  -0.844  10.459 -0.0612 -0.4249  0.0957
  728MOL0     O96011   8.088  -1.070  10.701 -0.3798  0.3848  0.3183
  728MOL0     C96012   8.308  -1.086  10.899 -1.1380  0.4493  0.0092
  728MOL0     C96013   8.415  -1.079  10.992  0.0903  0.5091 -0.0780
  728MOL0     N96014   8.935  -0.548  10.828 -0.3195  0.2048  0.1039
  728MOL0     N96015   9.058  -0.516  10.794  0.5628 -0.5076 -0.3506
  728MOL0     C96016   9.883   0.282  11.308 -1.1559 -0.1406 -0.3924
  728MOL0     C96017   9.983   0.292  11.406 -0.8729 -0.8476 -0.4228
  728MOL0     C96018  10.403   0.254  11.497  0.0001  1.6232 -0.3953
  728MOL0     C96019  10.524   0.227  11.436 -0.6642  0.1036  0.2812
  728MOL0     C96020  10.641   0.266  11.506 -0.3241 -0.3501  0.2415
  728MOL0     C96021  10.644   0.325  11.630 -0.3739 -0.2717  0.2813
  728MOL0     O96022  10.774   0.329  11.685  0.2058  0.4316 -0.2223
  728MOL0     C96023  10.802   0.430  11.786  0.9773  0.6595  0.2427
  728MOL0     C96024  10.912   0.524  11.737 -0.2158  0.0600  0.1204
  728MOL0     C96025  11.043   0.451  11.722  0.5782  0.0823  0.6324
  728MOL0     C96026  11.148   0.529  11.633 -0.3161 -0.5669 -0.3989
  728MOL0     C96027  11.280   0.454  11.636  1.7178  0.4253  0.3723
  728MOL0     C96028  11.383   0.393  11.635 -0.2714 -0.5931 -0.4288
  728MOL0     C96029  10.519   0.354  11.690 -0.5526 -0.0102 -0.5746
  728MOL0     C96030  10.400   0.318  11.624 -0.2272 -0.1415 -0.4347
  728MOL0     H96031  10.040  -0.024  11.472  1.5981  1.1113  0.4014
  728MOL0     H96032   9.851  -0.065  11.340  1.7028 -0.7040 -1.6608
  728MOL0     H96033   9.580   0.121  11.277  1.6228  1.2300  0.7953
  728MOL0     H96034   9.648  -0.033  11.212 -4.6990 -1.4261 -3.6278
  728MOL0     H96035   9.580   0.015  10.992 -1.3739  0.0032  0.2446
  728MOL0     H96036   9.543   0.195  11.040 -1.4580  1.6180  1.6842
  728MOL0     H96037   9.342   0.047  11.002 -2.6181 -2.3717  0.6128
  728MOL0     H96038   9.356   0.124  11.155 -2.0668 -0.6098 -0.9909
  728MOL0     H96039   9.443  -0.082  11.272 -3.0130 -0.3899  1.0507
  728MOL0     H96040   9.292  -0.115  11.193 -0.5167  1.2478  0.2371
  728MOL0     H96041   9.448  -0.300  11.131 -1.5364  0.9624  0.9668
  728MOL0     H96042   9.565  -0.189  11.068  0.1439  0.1168 -4.3114
  728MOL0     H96043   9.472  -0.296  10.896 -0.4126  0.1729  1.8253
  728MOL0     H96044   9.411  -0.132  10.875  3.6784 -0.7513 -1.3932
  728MOL0     H96045   9.204  -0.238  11.023  0.1157 -1.5840  0.9965
  728MOL0     H96046   9.207  -0.230  10.841  0.1767 -0.2850 -1.0105
  728MOL0     H96047   9.306  -0.463  11.013 -0.2863  1.1394  1.5627
  728MOL0     H96048   9.321  -0.460  10.841 -0.8099 -1.0201 -0.6658
  728MOL0     H96049   9.047  -0.453  11.120  0.2802  0.1263  0.3989
  728MOL0     H96050   8.735  -0.644  10.942  1.9098 -0.0309 -1.3378
  728MOL0     H96051   8.721  -0.480  11.020 -0.2451 -0.0155  2.4057
  728MOL0     H96052   8.765  -0.597  11.240 -2.8274 -1.6811  0.0431
  728MOL0     H96053   8.876  -0.707  11.168  0.0905 -1.0290 -0.4875
  728MOL0     H96054   8.641  -0.809  11.244  0.8124  1.2124  0.1955
  728MOL0     H96055   8.581  -0.729  11.106 -1.8194  0.5993  3.9804
  728MOL0     H96056   8.815  -0.927  11.131  1.7796  2.4698 -0.3223
  728MOL0     H96057   8.768  -0.869  10.970 -1.0294  0.7245 -0.3431
  728MOL0     H96058   8.579  -0.819  10.842  1.7886 -1.3508  1.6354
  728MOL0     H96059   8.395  -0.832  10.684  0.0731 -0.0274 -1.9817
  728MOL0     H96060   8.173  -1.133  10.408 -0.4386 -0.3142  0.6067
  728MOL0     H96061   7.969  -1.170  10.270  2.3205 -0.4307 -1.1741
  728MOL0     H96062   7.737  -1.171  10.185 -1.3860  0.4994 -0.1263
  728MOL0     H96063   7.860  -1.126  10.088 -0.0734 -0.7146  0.0201
  728MOL0     H96064   7.750  -1.033   9.923 -0.2443 -1.9454 -0.1840
  728MOL0     H96065   7.615  -0.971  10.014  1.5376  0.7254  6.4569
  728MOL0     H96066   7.511  -1.186  10.036  1.9199 -1.0270  1.0314
  728MOL0     H96067   7.640  -1.263   9.944  1.9859  1.6127 -0.7113
  728MOL0     H96068   7.549  -1.074   9.760 -2.4230  0.6366 -1.4273
  728MOL0     H96069   7.492  -1.242   9.766  1.0699  0.6515 -1.2934
  728MOL0     H96070   7.371  -1.003   9.903 -0.8851 -0.5809  0.8111
  728MOL0     H96071   7.313  -1.156   9.920  0.4907 -0.0285  0.4117
  728MOL0     H96072   7.260  -1.185   9.681 -0.3306  0.8317 -2.1244
  728MOL0     H96073   7.343  -1.026   9.643 -3.7088  0.5241 -3.3945
  728MOL0     H96074   7.097  -1.027   9.827 -1.7333  0.3918 -0.3796
  728MOL0     H96075   7.171  -0.904   9.723 -1.5733 -0.0928 -2.4565
  728MOL0     H96076   7.010  -1.146   9.629 -1.5370  1.1319  0.0574
  728MOL0     H96077   7.114  -1.038   9.524  4.7640 -1.4894  1.8994
  728MOL0     H96078   7.839  -0.773  10.330 -0.7593 -1.0742 -2.5676
  728MOL0     H96079   8.007  -0.746  10.504  3.3576 -0.3559 -0.3154
  728MOL0     H96080   8.233  -1.164  10.899 -0.5559 -0.1247 -0.5027
  728MOL0     H96081   8.417  -1.144  11.079 -3.1141  0.4866  0.1058
  728MOL0     H96082   9.850   0.374  11.260  0.2212  0.0749 -0.9661
  728MOL0     H96083  10.013   0.393  11.433  0.0077 -1.0433 -0.6538
  728MOL0     H96084  10.527   0.193  11.333 -0.4614 -2.3322  1.0430
  728MOL0     H96085  10.729   0.262  11.443  0.4074 -0.2833  1.2287
  728MOL0     H96086  10.825   0.380  11.880 -0.1530 -0.8946 -0.2643
  728MOL0     H96087  10.705   0.479  11.801  0.7856  0.2746  0.2758
  728MOL0     H96088  10.889   0.584  11.649  0.7516 -1.6155 -1.3300
  728MOL0     H96089  10.931   0.595  11.819  1.5441  0.1428 -0.3055
  728MOL0     H96090  11.030   0.358  11.665  2.8405  0.6977 -1.0385
  728MOL0     H96091  11.081   0.425  11.821 -1.0666 -0.4031  1.1605
  728MOL0     H96092  11.125   0.544  11.527  1.9127 -0.0218 -0.8655
  728MOL0     H96093  11.154   0.633  11.668 -0.1843  0.3814 -3.0362
  728MOL0     H96094  11.476   0.340  11.632 -1.0719 -2.0385 -1.6603
  728MOL0     H96095  10.512   0.388  11.793  0.2000 -1.1454 -0.1471
  728MOL0     H96096  10.309   0.339  11.678  1.0474  6.0559  0.0038
  729MOL0     O96097   6.213   6.107   7.602 -0.5186  0.7461 -0.0489
  729MOL0     C96098   6.149   6.147   7.697 -0.0920 -0.0722 -0.7269
  729MOL0     O96099   6.039   6.212   7.703  0.8417  0.2743  0.7766
  729MOL0     C96100   5.951   6.238   7.607  0.4438 -0.3509 -0.3767
  729MOL0     C96101   5.976   6.214   7.476  0.3428 -0.5905  1.3492
  729MOL0     C96102   5.887   6.256   7.376 -0.7193 -0.1696  0.2329
  729MOL0     C96103   5.777   6.332   7.407  0.6553  0.1416  0.1750
  729MOL0     O96104   5.702   6.368   7.298  1.1415  0.0045 -0.1394
  729MOL0     C96105   5.563   6.313   7.314 -0.2378 -0.2594 -0.2658
  729MOL0     C96106   5.493   6.277   7.182 -0.2514  1.1313 -0.5075
  729MOL0     C96107   5.542   6.139   7.140 -0.2696 -0.7897 -0.7859
  729MOL0     C96108   5.489   6.098   7.001 -0.1053  0.5911  0.2617
  729MOL0     C96109   5.555   5.966   6.959  0.1760 -0.0713 -0.1275
  729MOL0     C96110   5.687   5.984   6.889  0.1366 -0.4391  0.2902
  729MOL0     C96111   5.795   5.895   6.945  0.1787  0.4265  0.1780
  729MOL0     C96112   5.841   5.930   7.090 -0.5067  0.2755  0.1128
  729MOL0     N96113   5.956   5.856   7.127  0.0657  1.1143  0.0013
  729MOL0     C96114   6.090   5.886   7.123  0.3832  0.6574  0.3989
  729MOL0     C96115   6.162   5.777   7.177  0.9007 -0.4579 -0.2158
  729MOL0     C96116   6.309   5.771   7.158 -0.6918  0.3014 -0.4691
  729MOL0     C96117   6.361   5.638   7.227  1.0302  0.1973  0.6140
  729MOL0     C96118   6.512   5.641   7.254  0.0419 -0.1441  0.7775
  729MOL0     C96119   6.578   5.513   7.304 -0.0929  0.4293 -0.0605
  729MOL0     O96120   6.524   5.478   7.427  0.2204 -0.0562  0.7994
  729MOL0     C96121   6.440   5.373   7.436 -0.8107 -0.2419 -0.0800
  729MOL0     C96122   6.419   5.336   7.563  0.5530 -0.2984  0.4041
  729MOL0     C96123   6.343   5.220   7.588 -0.8202 -0.0246 -0.0356
  729MOL0     C96124   6.286   5.147   7.491  0.0524  1.0013  0.0196
  729MOL0     C96125   6.201   5.025   7.530 -0.2051 -0.2423  0.0733
  729MOL0     O96126   6.148   5.017   7.655 -0.7192  0.7289  0.3754
  729MOL0     C96127   6.071   4.910   7.696 -0.5448  0.5148 -0.5433
  729MOL0     C96128   5.940   4.937   7.734  0.2888 -0.9944  0.7735
  729MOL0     C96129   5.855   4.835   7.771  0.2522 -1.1688 -0.1996
  729MOL0     C96130   5.902   4.705   7.774 -0.0528  0.0698  0.9075
  729MOL0     O96131   5.825   4.607   7.833 -0.1671 -1.0599  0.7030
  729MOL0     C96132   5.793   4.497   7.749 -0.8645  0.0245 -0.3952
  729MOL0     C96133   5.668   4.424   7.800 -0.8614  0.6384 -0.3508
  729MOL0     C96134   5.546   4.506   7.778 -1.0804 -0.3131  0.3621
  729MOL0     C96135   5.484   4.490   7.648 -0.2264  0.5893  0.4873
  729MOL0     C96136   5.350   4.569   7.639 -0.2279  0.3713  0.0725
  729MOL0     C96137   5.293   4.587   7.508  0.1323  0.2971 -0.1415
  729MOL0     C96138   5.292   4.450   7.425  1.0996 -0.4837  0.4818
  729MOL0     C96139   5.314   4.488   7.287  0.4159 -0.5882 -0.8243
  729MOL0    Cl96140   5.193   4.598   7.224  0.5315  0.0659  0.1708
  729MOL0     C96141   6.029   4.682   7.731 -0.0076  0.7279  0.4853
  729MOL0     C96142   6.116   4.781   7.689  0.2053 -0.4146  1.1414
  729MOL0     O96143   6.204   4.931   7.448  0.5411 -0.3545  0.1497
  729MOL0     C96144   6.303   5.184   7.361 -1.0822  0.2824 -0.2474
  729MOL0     C96145   6.387   5.295   7.334 -0.3355 -0.5132  0.7298
  729MOL0     N96146   6.068   5.687   7.225 -0.2862 -0.0383 -0.0811
  729MOL0     N96147   5.950   5.735   7.191  0.6358  1.1391 -1.0379
  729MOL0     C96148   5.743   6.356   7.541 -0.4523  0.2637  0.5137
  729MOL0     C96149   5.828   6.299   7.642  0.1466 -0.5172 -0.5150
  729MOL0     C96150   6.222   6.122   7.825  0.0746 -0.4686  0.1187
  729MOL0     C96151   6.174   6.176   7.943  0.3852 -1.0280 -0.3510
  729MOL0     C96152   6.249   6.171   8.060  1.1046 -0.3410  0.4088
  729MOL0     C96153   6.356   6.088   8.073  2.0997  0.1559 -0.8940
  729MOL0     O96154   6.423   6.057   8.189  0.3435 -0.3707  0.4638
  729MOL0     C96155   6.382   6.098   8.323  0.3272 -0.2633 -0.0557
  729MOL0     C96156   6.515   6.125   8.388 -0.1874 -0.1940  0.3229
  729MOL0     C96157   6.494   6.137   8.540 -0.0927 -0.1292  0.0204
  729MOL0     C96158   6.608   6.112   8.623 -0.2042  1.7268  0.8620
  729MOL0     C96159   6.637   5.968   8.622 -0.2993 -0.0818  0.4621
  729MOL0     C96160   6.651   5.852   8.600 -0.3011  0.0884  0.0525
  729MOL0     C96161   6.406   6.029   7.965  0.6354 -0.1335 -0.5927
  729MOL0     C96162   6.341   6.040   7.839 -0.1982  0.0248  0.1809
  729MOL0     H96163   6.070   6.173   7.440 -0.1546 -0.9235  0.4049
  729MOL0     H96164   5.907   6.220   7.276 -0.0044 -0.7580  0.5718
  729MOL0     H96165   5.504   6.395   7.355  1.7710  1.7792 -1.1921
  729MOL0     H96166   5.555   6.221   7.373  0.9825 -0.8445 -0.9719
  729MOL0     H96167   5.508   6.345   7.097  0.5209  0.1374 -1.1922
  729MOL0     H96168   5.385   6.281   7.201 -0.0664  4.8617  0.6023
  729MOL0     H96169   5.512   6.070   7.220 -1.3758  0.0483 -0.4537
  729MOL0     H96170   5.651   6.146   7.134 -0.0453 -1.4352  1.3514
  729MOL0     H96171   5.380   6.090   7.003 -0.0246 -0.6949  0.8746
  729MOL0     H96172   5.511   6.175   6.927 -1.3205 -1.1762 -2.0325
  729MOL0     H96173   5.493   5.913   6.886  1.1603  1.1209 -1.9088
  729MOL0     H96174   5.571   5.917   7.055 -2.7509 -2.9684 -0.9352
  729MOL0     H96175   5.715   6.090   6.883 -1.0185 -0.1516 -0.2151
  729MOL0     H96176   5.670   5.958   6.785  1.2187 -0.4009  0.0888
  729MOL0     H96177   5.756   5.793   6.943  0.1424  0.3967  1.6222
  729MOL0     H96178   5.872   5.895   6.868 -0.6353  2.5780 -0.7162
  729MOL0     H96179   5.752   5.904   7.149 -0.4218  1.3916  0.7726
  729MOL0     H96180   5.872   6.035   7.099  1.0456 -0.0132 -1.4428
  729MOL0     H96181   6.126   5.977   7.079  2.5442  0.4843  1.6783
  729MOL0     H96182   6.365   5.857   7.194 -2.0249  1.8581 -1.9494
  729MOL0     H96183   6.338   5.752   7.054  1.9365  2.3127 -0.1990
  729MOL0     H96184   6.312   5.564   7.163 -3.0675  3.3885 -0.4204
  729MOL0     H96185   6.324   5.621   7.329  3.7736 -1.3519  1.4652
  729MOL0     H96186   6.566   5.675   7.166  1.7429 -0.5943  1.6060
  729MOL0     H96187   6.534   5.714   7.332  0.4081  0.7203 -0.1328
  729MOL0     H96188   6.684   5.526   7.327 -0.3005  1.8015  0.2083
  729MOL0     H96189   6.573   5.438   7.225 -5.0041 -0.2506  0.5872
  729MOL0     H96190   6.466   5.392   7.643 -1.5249 -1.4002  2.5554
  729MOL0     H96191   6.324   5.186   7.690 -1.4077  0.7983  0.1346
  729MOL0     H96192   5.894   5.033   7.711 -0.5477 -2.0388 -2.3045
  729MOL0     H96193   5.759   4.868   7.811  1.2342  0.2596  1.0936
  729MOL0     H96194   5.874   4.424   7.759 -1.6990 -0.6163  3.1407
  729MOL0     H96195   5.786   4.541   7.649  2.3095  2.9582  0.4927
  729MOL0     H96196   5.680   4.389   7.903 -1.5685  2.0733  0.2503
  729MOL0     H96197   5.648   4.329   7.749 -1.3062  0.9740 -0.8117
  729MOL0     H96198   5.557   4.611   7.804 -4.8805 -0.0585  1.6422
  729MOL0     H96199   5.477   4.467   7.854 -1.5684  2.3303  1.3757
  729MOL0     H96200   5.559   4.523   7.576  0.4544  1.4473  1.5524
  729MOL0     H96201   5.473   4.383   7.628 -0.6605  0.7169  0.0323
  729MOL0     H96202   5.368   4.665   7.687  0.9406  0.8534 -1.2573
  729MOL0     H96203   5.272   4.517   7.696  0.4003 -0.4512  0.2023
  729MOL0     H96204   5.342   4.662   7.446 -1.8527  1.2617 -0.6228
  729MOL0     H96205   5.189   4.620   7.518 -0.3810 -1.8044  2.8640
  729MOL0     H96206   5.359   4.371   7.462 -0.0987 -1.7491  0.0437
  729MOL0     H96207   5.198   4.398   7.446  2.3186 -2.9455  0.2464
  729MOL0     H96208   5.328   4.400   7.223  1.8510 -3.6430  3.2824
  729MOL0     H96209   5.408   4.545   7.283 -0.1725  0.4276 -0.5105
  729MOL0     H96210   6.050   4.577   7.721  2.8884  1.2598  0.3092
  729MOL0     H96211   6.207   4.763   7.632 -1.4701  0.6488 -2.0717
  729MOL0     H96212   6.241   5.129   7.291 -1.6442  0.5849  0.0078
  729MOL0     H96213   6.403   5.329   7.232 -1.7697 -4.1449 -0.8783
  729MOL0     H96214   5.658   6.417   7.572 -1.1546 -0.8505  0.8264
  729MOL0     H96215   5.811   6.322   7.747  0.1194 -0.3868 -0.5489
  729MOL0     H96216   6.084   6.237   7.940 -0.1491 -1.7557  0.2228
  729MOL0     H96217   6.199   6.234   8.133 -0.6779  0.0809 -1.1043
  729MOL0     H96218   6.326   6.016   8.369 -2.3614  1.2490 -0.4332
  729MOL0     H96219   6.318   6.187   8.318  0.1495 -0.4177 -0.7216
  729MOL0     H96220   6.584   6.046   8.356  2.9423  3.3108 -2.4337
  729MOL0     H96221   6.549   6.222   8.351 -2.5110  0.4710 -0.2145
  729MOL0     H96222   6.425   6.057   8.571  0.2905  0.0403  1.3707
  729MOL0     H96223   6.463   6.236   8.574  1.3438  0.3610 -0.0584
  729MOL0     H96224   6.696   6.148   8.569 -0.0955  0.0470 -0.1328
  729MOL0     H96225   6.588   6.143   8.726 -2.4883 -1.9938  1.7251
  729MOL0     H96226   6.675   5.750   8.580  0.1281  0.3852 -1.0193
  729MOL0     H96227   6.497   5.970   7.973 -0.0019 -1.3766 -1.9953
  729MOL0     H96228   6.389   6.000   7.751  0.6261 -0.5821  0.8952
  730MOL0     O96229   1.972   5.770   6.661 -0.0559  0.2952 -0.7331
  730MOL0     C96230   2.017   5.820   6.758 -0.1082 -0.0982 -0.4413
  730MOL0     O96231   1.953   5.839   6.873  1.0411 -0.1303 -0.0623
  730MOL0     C96232   1.814   5.831   6.886 -0.6732  0.7122 -0.4305
  730MOL0     C96233   1.762   5.799   7.013  0.1642  0.2806 -0.0180
  730MOL0     C96234   1.620   5.779   7.035  0.3191  0.0019  0.2581
  730MOL0     C96235   1.529   5.799   6.925 -0.0681  0.4685  0.0608
  730MOL0     O96236   1.388   5.778   6.926  0.1818  0.1585 -0.0996
  730MOL0     C96237   1.336   5.763   7.062 -1.2572  0.6100  0.4747
  730MOL0     C96238   1.189   5.776   7.062  0.5213  0.2271 -0.6136
  730MOL0     C96239   1.128   5.908   7.057 -0.9509  0.5018  0.3944
  730MOL0     C96240   0.976   5.894   7.053 -0.3905  0.0669  0.3976
  730MOL0     C96241   0.911   6.027   7.053 -0.7514 -0.2267 -0.3259
  730MOL0     C96242   0.770   6.013   6.997  0.2530  0.6717  0.1116
  730MOL0     C96243   0.701   6.140   6.961  0.8245 -0.4437 -0.0045
  730MOL0     C96244   0.562   6.107   6.914 -0.4098 -0.2118 -0.1345
  730MOL0     N96245   0.487   6.236   6.896  0.2484 -0.4591  0.0252
  730MOL0     C96246   0.363   6.263   6.949 -0.0798 -0.2963  0.7472
  730MOL0     C96247   0.316   6.369   6.875  0.1835  0.6719 -0.5883
  730MOL0     C96248   0.180   6.437   6.885 -0.1461 -0.7910 -0.7535
  730MOL0     C96249   0.178   6.519   7.018 -0.0158 -0.0639  0.2784
  730MOL0     C96250   0.228   6.665   7.004 -0.4330  0.3070 -0.4344
  730MOL0     C96251   0.384   6.669   7.010  0.4657  0.0116  0.7837
  730MOL0     O96252   0.434   6.619   7.137 -0.4052 -0.2517 -0.2837
  730MOL0     C96253   0.561   6.575   7.156  0.7983  0.0705 -1.0908
  730MOL0     C96254   0.588   6.500   7.269  0.2724  0.1939 -0.0999
  730MOL0     C96255   0.702   6.435   7.301  0.1604 -0.1929  0.6091
  730MOL0     C96256   0.810   6.451   7.215 -0.0119 -0.2902  0.5899
  730MOL0     C96257   0.938   6.392   7.246 -0.1602 -0.9321 -0.8760
  730MOL0     O96258   1.039   6.438   7.166  0.5581 -0.0699 -0.2153
  730MOL0     C96259   1.159   6.380   7.174 -0.0417 -1.0656 -0.2886
  730MOL0     C96260   1.263   6.463   7.231 -0.0968  0.1017  0.0773
  730MOL0     C96261   1.390   6.401   7.236  0.3223 -0.5847 -0.0110
  730MOL0     C96262   1.423   6.281   7.179  0.4710 -0.1261  0.5394
  730MOL0     O96263   1.550   6.232   7.194 -0.9535 -0.0865  0.0453
  730MOL0     C96264   1.604   6.134   7.105 -0.1620  0.4628  0.2377
  730MOL0     C96265   1.645   6.198   6.970 -0.6498 -0.2125  0.0813
  730MOL0     C96266   1.759   6.305   7.001 -0.2418 -0.3211  1.1813
  730MOL0     C96267   1.804   6.369   6.865 -0.5008  0.0309 -1.2063
  730MOL0     C96268   1.927   6.448   6.873 -0.5004 -0.1216 -0.2093
  730MOL0     C96269   2.057   6.377   6.920 -0.6808 -0.4790 -0.4309
  730MOL0     C96270   2.171   6.475   6.929  0.0120  0.1710 -0.1123
  730MOL0     C96271   2.267   6.459   7.051  0.7081  0.7026 -0.7648
  730MOL0    Cl96272   2.369   6.601   7.048  0.2008 -0.1920 -0.5660
  730MOL0     C96273   1.319   6.210   7.121 -0.2237  1.4954 -0.7526
  730MOL0     C96274   1.191   6.260   7.115  0.4351  0.2844 -0.1484
  730MOL0     O96275   0.952   6.313   7.338  0.5894  0.0422 -0.8486
  730MOL0     C96276   0.795   6.530   7.097  0.7320  0.0345  0.6988
  730MOL0     C96277   0.664   6.585   7.068 -0.6326 -0.1832  0.1327
  730MOL0     N96278   0.402   6.397   6.776 -0.0479 -0.2174 -0.3055
  730MOL0     N96279   0.507   6.324   6.793  0.3537  0.3559  0.3159
  730MOL0     C96280   1.585   5.843   6.796  1.2348 -0.8978 -0.7995
  730MOL0     C96281   1.719   5.862   6.785  0.2365  0.1445  0.4196
  730MOL0     C96282   2.162   5.866   6.758  0.5042 -0.2410  0.0214
  730MOL0     C96283   2.213   5.877   6.632 -0.6016 -0.1690 -0.0476
  730MOL0     C96284   2.346   5.939   6.616 -0.6568  0.2441 -1.3723
  730MOL0     C96285   2.415   5.980   6.730  0.1837 -0.4734 -0.3976
  730MOL0     O96286   2.523   6.073   6.717  0.7423 -0.8905  0.0069
  730MOL0     C96287   2.519   6.187   6.807  0.8433  0.0270 -0.4097
  730MOL0     C96288   2.640   6.273   6.796 -0.7838  0.5201 -0.0126
  730MOL0     C96289   2.661   6.387   6.884  0.6818 -0.3449 -0.3993
  730MOL0     C96290   2.697   6.338   7.022 -1.2741  0.3950 -0.6555
  730MOL0     C96291   2.765   6.449   7.096  0.2199 -1.0466 -0.7614
  730MOL0     C96292   2.829   6.532   7.157 -0.0435 -0.0303  0.1082
  730MOL0     C96293   2.363   5.952   6.854 -0.6588  0.0304  0.1802
  730MOL0     C96294   2.238   5.885   6.878 -0.5285 -0.2523 -0.2634
  730MOL0     H96295   1.831   5.765   7.089  0.1010 -5.2017 -2.0226
  730MOL0     H96296   1.583   5.762   7.135 -0.0141 -1.3067 -0.0724
  730MOL0     H96297   1.374   5.845   7.122 -0.3878  0.1118  0.6190
  730MOL0     H96298   1.367   5.666   7.101  1.4867  0.3747 -1.9437
  730MOL0     H96299   1.160   5.730   7.157  1.7303 -1.0764 -0.8480
  730MOL0     H96300   1.148   5.710   6.985 -1.3902 -0.7770  1.1669
  730MOL0     H96301   1.152   5.953   6.960  4.5055 -1.6559  0.4118
  730MOL0     H96302   1.152   5.970   7.145 -3.2537  1.9178  0.1335
  730MOL0     H96303   0.947   5.839   6.963 -0.1290 -0.5471  0.6815
  730MOL0     H96304   0.946   5.832   7.138  3.7341 -2.7305  0.1043
  730MOL0     H96305   0.957   6.098   6.983 -1.8601  2.9999  1.9672
  730MOL0     H96306   0.905   6.066   7.155 -1.9606 -0.6231 -0.2314
  730MOL0     H96307   0.707   5.960   7.069 -2.6618 -0.3916 -2.9418
  730MOL0     H96308   0.775   5.943   6.913  3.2054  0.3383  0.4639
  730MOL0     H96309   0.688   6.195   7.055 -0.7881 -3.3397  1.5980
  730MOL0     H96310   0.757   6.202   6.889  2.9395 -0.4344  1.5389
  730MOL0     H96311   0.512   6.047   6.990 -1.7109 -0.0803 -0.8506
  730MOL0     H96312   0.567   6.047   6.823 -1.4804 -1.1163  0.3895
  730MOL0     H96313   0.314   6.220   7.036  2.1668 -1.8117  1.3509
  730MOL0     H96314   0.110   6.353   6.883  0.8484 -1.6656 -0.0471
  730MOL0     H96315   0.159   6.506   6.803  1.8854 -0.8162 -1.3303
  730MOL0     H96316   0.213   6.473   7.111  0.7434  0.6846  0.3695
  730MOL0     H96317   0.074   6.541   7.045  0.3361  4.8869 -1.3465
  730MOL0     H96318   0.182   6.712   6.917 -2.4820 -1.4132 -0.3677
  730MOL0     H96319   0.194   6.713   7.097 -2.8346 -2.9093  0.5342
  730MOL0     H96320   0.414   6.773   6.998  0.7282 -0.1400  0.0445
  730MOL0     H96321   0.431   6.619   6.924  1.9383 -1.3533  2.3155
  730MOL0     H96322   0.506   6.480   7.337  0.5085  0.5533  0.2916
  730MOL0     H96323   0.719   6.384   7.395  0.2465  2.9613  2.4243
  730MOL0     H96324   1.252   6.558   7.283  1.1165  0.8123 -0.9229
  730MOL0     H96325   1.468   6.463   7.279  0.0561 -0.2540 -0.0065
  730MOL0     H96326   1.533   6.052   7.094  1.1270 -0.3475 -3.1342
  730MOL0     H96327   1.697   6.093   7.144  0.9576  1.9394 -0.7652
  730MOL0     H96328   1.568   6.241   6.905 -3.0658  1.4490  3.7141
  730MOL0     H96329   1.683   6.111   6.915 -1.3208 -0.4406 -0.0357
  730MOL0     H96330   1.842   6.262   7.058 -0.4906  0.6395  2.3094
  730MOL0     H96331   1.724   6.387   7.065 -1.8310 -0.8294  0.9946
  730MOL0     H96332   1.822   6.297   6.784 -2.8773  2.1296 -3.8247
  730MOL0     H96333   1.724   6.429   6.822 -1.9804 -1.4577 -0.6628
  730MOL0     H96334   1.899   6.522   6.950  3.2458  1.6512 -0.3547
  730MOL0     H96335   1.952   6.498   6.779  2.1203  2.1141  1.5144
  730MOL0     H96336   2.079   6.303   6.842  1.7953  2.4295 -2.7684
  730MOL0     H96337   2.045   6.336   7.021 -1.3986 -0.0159 -0.3246
  730MOL0     H96338   2.226   6.464   6.835 -0.1131 -0.3907 -0.1255
  730MOL0     H96339   2.132   6.577   6.937 -1.2690 -0.3161  0.0941
  730MOL0     H96340   2.327   6.368   7.043  0.5894  0.6274 -0.8046
  730MOL0     H96341   2.204   6.449   7.140  1.1912  0.2774 -0.4660
  730MOL0     H96342   1.332   6.105   7.097 -2.6307  0.0172  3.3134
  730MOL0     H96343   1.116   6.200   7.065  1.1475  1.0268 -2.2113
  730MOL0     H96344   0.865   6.546   7.016 -0.4969  0.5115 -0.3079
  730MOL0     H96345   0.636   6.618   6.969 -0.2723  2.7775  0.9085
  730MOL0     H96346   1.515   5.860   6.715  0.3383 -1.5757 -0.1858
  730MOL0     H96347   1.742   5.902   6.687 -0.1714 -1.5336 -0.3919
  730MOL0     H96348   2.159   5.868   6.538  1.9201 -2.0647 -1.4402
  730MOL0     H96349   2.381   5.962   6.516  0.4162 -0.3591 -1.1555
  730MOL0     H96350   2.500   6.172   6.914  0.2929  1.2213 -0.3315
  730MOL0     H96351   2.437   6.256   6.785  1.3796  0.3663 -1.4024
  730MOL0     H96352   2.727   6.207   6.788 -1.5744 -0.3514 -2.0793
  730MOL0     H96353   2.625   6.328   6.703 -3.4481 -1.0214 -0.5808
  730MOL0     H96354   2.575   6.454   6.884  1.3767  0.5735 -0.6484
  730MOL0     H96355   2.739   6.455   6.848 -1.5751  1.8044 -1.5682
  730MOL0     H96356   2.607   6.308   7.076  0.2114 -0.6073  1.4122
  730MOL0     H96357   2.758   6.248   7.014 -2.1509 -0.1004 -2.3722
  730MOL0     H96358   2.876   6.606   7.218  0.0545  0.8644 -1.0035
  730MOL0     H96359   2.431   5.962   6.938 -0.4172  1.5525 -0.1573
  730MOL0     H96360   2.198   5.852   6.973 -2.2715  0.8387 -0.5857
  731MOL0     O96361   0.064   8.217   1.259  0.6726 -0.9276 -0.1786
  731MOL0     C96362   0.085   8.130   1.177  0.4546 -0.0349  0.0197
  731MOL0     O96363  -0.013   8.067   1.097  0.5027 -0.2413  0.5048
  731MOL0     C96364  -0.144   8.119   1.117 -0.0967  1.1707  0.0278
  731MOL0     C96365  -0.223   8.055   1.214  1.0565 -0.4699  0.2220
  731MOL0     C96366  -0.346   8.112   1.257  1.0062  0.0880  1.2370
  731MOL0     C96367  -0.397   8.228   1.194  0.2834 -0.6067  0.0444
  731MOL0     O96368  -0.513   8.285   1.242 -0.2828  0.0338 -0.7222
  731MOL0     C96369  -0.616   8.181   1.261  0.2109 -0.0413 -0.6785
  731MOL0     C96370  -0.758   8.240   1.252 -0.5116  0.1323 -0.3205
  731MOL0     C96371  -0.864   8.145   1.299  0.0725 -0.1229  0.2034
  731MOL0     C96372  -0.997   8.220   1.314  0.0163  0.5065 -0.5168
  731MOL0     C96373  -1.093   8.150   1.415 -0.7015 -0.0731  1.1899
  731MOL0     C96374  -1.112   7.998   1.381 -0.3854 -0.6264 -0.0322
  731MOL0     C96375  -1.207   7.918   1.476 -0.8120  1.1834 -0.2761
  731MOL0     C96376  -1.159   7.919   1.622 -0.1788  0.5450  0.0724
  731MOL0     N96377  -1.257   7.844   1.701  0.7390  0.4374  0.1296
  731MOL0     C96378  -1.294   7.866   1.825  0.4508  0.3194  0.5193
  731MOL0     C96379  -1.372   7.768   1.857  0.5679 -0.2008 -0.4752
  731MOL0     C96380  -1.467   7.770   1.977 -0.6787  0.0911 -0.2837
  731MOL0     C96381  -1.549   7.650   1.978  1.2115  0.2666  0.7877
  731MOL0     C96382  -1.661   7.650   2.086  0.9088 -0.2943  0.2996
  731MOL0     C96383  -1.778   7.558   2.037 -0.2478  0.1328 -0.1935
  731MOL0     O96384  -1.842   7.609   1.918  0.0724  0.0850  0.5753
  731MOL0     C96385  -1.978   7.595   1.914  0.9652  0.4814  0.9693
  731MOL0     C96386  -2.042   7.471   1.941  0.2074  0.0244 -0.0033
  731MOL0     C96387  -2.182   7.454   1.938  0.0770 -0.2684 -1.0106
  731MOL0     C96388  -2.265   7.560   1.914 -0.5003  0.0165  0.6514
  731MOL0     C96389  -2.414   7.543   1.936  0.1034 -0.0364  0.1882
  731MOL0     O96390  -2.467   7.415   1.936  0.7224  0.2817 -0.3513
  731MOL0     C96391  -2.601   7.398   1.922  0.2910  0.9642 -0.7751
  731MOL0     C96392  -2.676   7.309   2.008 -1.4718  0.2669 -0.4690
  731MOL0     C96393  -2.820   7.294   1.987 -0.7411  0.4703 -0.3779
  731MOL0     C96394  -2.885   7.357   1.887  0.0420 -0.3203 -0.6420
  731MOL0     O96395  -3.016   7.331   1.869  0.0588  0.8192 -0.3874
  731MOL0     C96396  -3.098   7.412   1.782  0.0469  0.1741  0.0146
  731MOL0     C96397  -3.244   7.390   1.783  0.4697 -0.3478  0.1430
  731MOL0     C96398  -3.310   7.454   1.906 -0.0137  0.1309 -0.2257
  731MOL0     C96399  -3.454   7.404   1.907 -0.9262  0.4285 -0.6924
  731MOL0     C96400  -3.510   7.443   2.049 -1.0543  0.7450  0.8217
  731MOL0     C96401  -3.557   7.585   2.057 -0.5430  0.4357 -0.5250
  731MOL0     C96402  -3.633   7.589   2.187 -0.1415 -0.2872 -0.6571
  731MOL0     C96403  -3.788   7.607   2.173 -0.1460 -0.1713  0.1294
  731MOL0    Cl96404  -3.839   7.460   2.081  0.0341  0.2663 -0.1281
  731MOL0     C96405  -2.807   7.443   1.801 -0.5734  0.1833 -0.7155
  731MOL0     C96406  -2.671   7.460   1.814 -0.6735 -0.2350 -0.4059
  731MOL0     O96407  -2.483   7.646   1.946  0.7078 -0.1206 -0.0816
  731MOL0     C96408  -2.204   7.684   1.878  1.7160 -0.3289  0.1132
  731MOL0     C96409  -2.064   7.699   1.882  0.4727  1.3422  1.4181
  731MOL0     N96410  -1.372   7.675   1.761  0.7279  0.9885  1.4117
  731MOL0     N96411  -1.301   7.720   1.671 -0.5745 -0.9705  0.2815
  731MOL0     C96412  -0.323   8.283   1.093  0.6631  0.5897  1.0254
  731MOL0     C96413  -0.203   8.234   1.058  0.4807  0.1911 -1.1377
  731MOL0     C96414   0.223   8.085   1.165 -0.4469  0.5933 -0.1117
  731MOL0     C96415   0.323   8.168   1.219 -0.9072 -0.3104 -0.2657
  731MOL0     C96416   0.458   8.134   1.214 -0.1012  0.6858  0.2296
  731MOL0     C96417   0.492   8.006   1.174  0.3463 -0.4831 -0.5018
  731MOL0     O96418   0.625   7.980   1.199 -0.1436  0.1178  0.1622
  731MOL0     C96419   0.666   7.843   1.207  0.4302 -0.1312  0.1960
  731MOL0     C96420   0.743   7.808   1.086  0.6568  0.9225  0.1103
  731MOL0     C96421   0.796   7.928   0.994 -0.1487 -0.8937 -0.8982
  731MOL0     C96422   0.892   8.026   1.074 -0.6885  0.2305  0.2252
  731MOL0     C96423   1.001   8.072   0.984 -0.2674 -0.2302  0.6703
  731MOL0     C96424   1.097   8.106   0.919  0.0622  0.1399 -0.1630
  731MOL0     C96425   0.399   7.928   1.120 -0.4039  0.0256  0.2018
  731MOL0     C96426   0.260   7.963   1.107  0.0530 -1.0600 -0.0826
  731MOL0     H96427  -0.178   7.976   1.273 -3.7543 -1.6164  2.8970
  731MOL0     H96428  -0.397   8.080   1.348  1.1830 -0.0969  1.2716
  731MOL0     H96429  -0.599   8.126   1.354 -3.6276 -0.1863  0.0807
  731MOL0     H96430  -0.614   8.108   1.179 -0.8284 -0.1278 -0.6369
  731MOL0     H96431  -0.785   8.264   1.149  0.3817 -0.0390 -0.5996
  731MOL0     H96432  -0.757   8.334   1.309 -4.9496 -0.0441  0.4451
  731MOL0     H96433  -0.820   8.104   1.391  1.0842 -1.3490 -0.8055
  731MOL0     H96434  -0.857   8.060   1.231  1.1069  0.7210 -0.7973
  731MOL0     H96435  -0.987   8.325   1.344  0.7163  0.9040 -1.9888
  731MOL0     H96436  -1.041   8.226   1.213 -0.8312  0.4989 -0.1553
  731MOL0     H96437  -1.191   8.198   1.404 -1.3140 -1.4527  0.3683
  731MOL0     H96438  -1.059   8.160   1.518 -0.5210  0.7432  1.0594
  731MOL0     H96439  -1.017   7.943   1.392 -0.5685 -0.6458  1.8361
  731MOL0     H96440  -1.149   7.985   1.279 -0.7646  0.2282 -0.0111
  731MOL0     H96441  -1.308   7.961   1.480 -1.0972  0.5080  2.5664
  731MOL0     H96442  -1.228   7.816   1.443  2.0780 -0.0285  1.2698
  731MOL0     H96443  -1.135   8.020   1.657 -1.6957  0.5548  1.1638
  731MOL0     H96444  -1.061   7.871   1.624 -0.6511 -0.5995 -1.8435
  731MOL0     H96445  -1.273   7.954   1.884  0.5078 -0.3939  1.5849
  731MOL0     H96446  -1.524   7.864   1.982  0.2507  0.8198 -2.3770
  731MOL0     H96447  -1.404   7.764   2.066 -0.7956  0.5550 -0.1659
  731MOL0     H96448  -1.485   7.562   1.991 -3.5186 -3.6216  0.5493
  731MOL0     H96449  -1.598   7.631   1.882  0.2442 -3.5154  1.8672
  731MOL0     H96450  -1.614   7.626   2.181  3.4287 -1.7827 -1.1961
  731MOL0     H96451  -1.710   7.747   2.086  3.8020  1.2845  0.2333
  731MOL0     H96452  -1.853   7.533   2.113 -1.8496 -3.6282 -2.7236
  731MOL0     H96453  -1.722   7.466   2.022  1.0913  0.6043  1.5812
  731MOL0     H96454  -1.975   7.391   1.973  1.2873  1.4707  1.4751
  731MOL0     H96455  -2.227   7.356   1.950  2.5082 -1.2170  1.1842
  731MOL0     H96456  -2.615   7.259   2.083 -0.0547  1.9002 -0.4564
  731MOL0     H96457  -2.862   7.208   2.038 -0.8549  0.7761  0.0543
  731MOL0     H96458  -3.064   7.405   1.678 -0.4372 -1.9646 -0.0365
  731MOL0     H96459  -3.081   7.517   1.809  2.5355 -0.8207  2.8529
  731MOL0     H96460  -3.254   7.282   1.780  0.3935 -0.3392  0.0922
  731MOL0     H96461  -3.290   7.432   1.693  0.3604 -2.0285 -0.6118
  731MOL0     H96462  -3.310   7.563   1.904 -0.8496  0.1376 -1.2828
  731MOL0     H96463  -3.253   7.433   1.997 -0.3129  1.6032  0.3250
  731MOL0     H96464  -3.517   7.446   1.829 -1.4393  0.9597  0.0036
  731MOL0     H96465  -3.452   7.294   1.904 -1.9272  0.4213 -2.5404
  731MOL0     H96466  -3.431   7.424   2.122 -1.9742 -1.3350  1.3428
  731MOL0     H96467  -3.595   7.380   2.078 -1.0744  0.5653  0.3676
  731MOL0     H96468  -3.618   7.608   1.969 -0.8121  1.5480 -0.0507
  731MOL0     H96469  -3.481   7.663   2.049  0.9083 -0.9202 -0.5004
  731MOL0     H96470  -3.612   7.511   2.261 -0.1845  1.1453  0.9226
  731MOL0     H96471  -3.589   7.681   2.228  0.1788  0.5352 -2.7049
  731MOL0     H96472  -3.827   7.698   2.128  1.4487  0.9838  0.9965
  731MOL0     H96473  -3.834   7.608   2.273 -1.1943 -0.4715 -0.3358
  731MOL0     H96474  -2.853   7.504   1.724 -3.2565 -2.9010 -1.8429
  731MOL0     H96475  -2.637   7.542   1.752 -1.7656  0.9250  0.4674
  731MOL0     H96476  -2.268   7.767   1.847 -1.5964 -2.9242 -0.6216
  731MOL0     H96477  -2.017   7.796   1.866 -0.7990  1.7157 -0.3880
  731MOL0     H96478  -0.361   8.374   1.047 -0.7037  0.7278  2.3584
  731MOL0     H96479  -0.135   8.275   0.984 -1.1043  2.6617 -1.3429
  731MOL0     H96480   0.297   8.261   1.268 -2.7865 -1.5180  1.1365
  731MOL0     H96481   0.530   8.206   1.252  1.2843 -0.4916 -0.0799
  731MOL0     H96482   0.589   7.773   1.239 -0.2773  1.6459  2.6121
  731MOL0     H96483   0.744   7.836   1.284 -0.2176  1.1481  0.9950
  731MOL0     H96484   0.817   7.733   1.116 -0.4238 -0.2104  0.0020
  731MOL0     H96485   0.683   7.751   1.015 -0.5023  1.0115  0.9784
  731MOL0     H96486   0.708   7.982   0.957 -0.1297  0.0857  0.3945
  731MOL0     H96487   0.854   7.884   0.913 -1.2524  1.0368 -2.8268
  731MOL0     H96488   0.828   8.108   1.108 -1.3938 -0.5299  0.7678
  731MOL0     H96489   0.937   7.975   1.159 -1.6453 -0.3328  0.4103
  731MOL0     H96490   1.173   8.145   0.855 -0.1731  0.6906 -0.1165
  731MOL0     H96491   0.435   7.838   1.070  1.2909  0.1196  1.1813
  731MOL0     H96492   0.192   7.900   1.049 -0.6768  0.7048 -1.2244
  732MOL0     O96493  11.104   6.580   8.802  0.7421  0.2038 -0.2174
  732MOL0     C96494  11.092   6.694   8.756  0.8007  0.4084 -0.7429
  732MOL0     O96495  10.972   6.768   8.757 -0.1058 -0.0439  0.3178
  732MOL0     C96496  10.844   6.724   8.802  0.2538 -0.3059  0.3990
  732MOL0     C96497  10.736   6.799   8.763 -0.2106 -1.1350 -0.4974
  732MOL0     C96498  10.601   6.784   8.805  0.3157 -0.1363  0.2511
  732MOL0     C96499  10.569   6.672   8.887 -0.1766  0.5672  0.4084
  732MOL0     O96500  10.445   6.632   8.932 -0.4611 -0.4143  0.5218
  732MOL0     C96501  10.332   6.704   8.890 -0.3750 -0.8183 -0.3826
  732MOL0     C96502  10.214   6.631   8.950 -0.0691 -0.0669 -0.1638
  732MOL0     C96503  10.184   6.495   8.877 -0.0107 -1.5202  0.7671
  732MOL0     C96504  10.040   6.461   8.909  0.4192  0.4487  0.7180
  732MOL0     C96505  10.025   6.400   9.055  0.2145  0.3406 -0.0738
  732MOL0     C96506   9.872   6.372   9.087 -0.0282  0.6839  0.0178
  732MOL0     C96507   9.837   6.346   9.232 -0.2667 -1.0438  0.0643
  732MOL0     C96508   9.847   6.196   9.271 -0.6790 -0.0244 -0.5528
  732MOL0     N96509   9.987   6.154   9.311 -0.3613  0.2885 -0.1224
  732MOL0     C96510  10.064   6.217   9.408 -0.8634 -0.0636 -0.5525
  732MOL0     C96511  10.152   6.123   9.445 -0.2281  1.0395  0.6773
  732MOL0     C96512  10.244   6.143   9.554  0.6160  0.4588 -0.4474
  732MOL0     C96513  10.384   6.129   9.529  0.7013  1.0807 -0.7057
  732MOL0     C96514  10.427   5.976   9.502 -0.7904 -0.1155 -0.8210
  732MOL0     C96515  10.575   5.956   9.499  0.5138  0.3507 -0.0535
  732MOL0     O96516  10.631   5.981   9.626  0.7130  0.5805  0.0649
  732MOL0     C96517  10.673   5.875   9.714  0.7479  0.4850  0.6133
  732MOL0     C96518  10.721   5.918   9.836 -0.8547 -0.1717  1.3789
  732MOL0     C96519  10.801   5.839   9.921  0.4308  0.3575 -0.9581
  732MOL0     C96520  10.823   5.700   9.892  0.8930  0.4864  0.0364
  732MOL0     C96521  10.894   5.622   9.988 -0.3348  0.1957 -0.1105
  732MOL0     O96522  10.865   5.491  10.005  0.2113  0.0058 -0.0696
  732MOL0     C96523  10.952   5.410  10.076  0.6981 -0.3416 -0.7726
  732MOL0     C96524  11.078   5.395  10.021  0.4577 -0.1683  0.1195
  732MOL0     C96525  11.167   5.308  10.077  0.9339  0.6533 -0.9761
  732MOL0     C96526  11.124   5.221  10.181 -0.8007 -1.2436  0.2337
  732MOL0     O96527  11.198   5.125  10.251 -0.5546 -0.1508 -0.2358
  732MOL0     C96528  11.308   5.058  10.186 -0.7292 -1.3077 -0.6566
  732MOL0     C96529  11.277   4.952  10.080  0.2086 -0.4272  0.0422
  732MOL0     C96530  11.207   4.825  10.117  0.1951 -0.2153 -0.4772
  732MOL0     C96531  11.199   4.735   9.988  0.1167  0.7228  0.0934
  732MOL0     C96532  11.160   4.592  10.032 -1.2971  0.0586  0.4130
  732MOL0     C96533  11.015   4.559  10.059 -0.3083 -0.8536 -0.3886
  732MOL0     C96534  10.972   4.415  10.037 -0.5920 -0.2585 -0.2857
  732MOL0     C96535  10.834   4.384  10.085  0.8359 -0.6459  0.1813
  732MOL0    Cl96536  10.715   4.437   9.957 -0.5754  0.2211  0.2567
  732MOL0     C96537  11.003   5.239  10.239  0.9681 -0.0301  0.1374
  732MOL0     C96538  10.911   5.332  10.181 -0.5537  0.3791  0.5875
  732MOL0     O96539  10.971   5.687  10.052 -0.2492  0.0016 -0.3350
  732MOL0     C96540  10.767   5.654   9.762 -0.8940  0.5146 -1.2734
  732MOL0     C96541  10.687   5.736   9.684 -0.1197  0.4885  0.0730
  732MOL0     N96542  10.132   6.007   9.378  0.8708 -0.4921  0.0746
  732MOL0     N96543  10.036   6.027   9.292 -0.3012 -1.6506 -0.5659
  732MOL0     C96544  10.671   6.589   8.926  0.5395  0.1014  1.3961
  732MOL0     C96545  10.806   6.614   8.888 -0.3472 -0.4476 -0.3673
  732MOL0     C96546  11.210   6.742   8.682  0.3338 -1.2556 -0.2767
  732MOL0     C96547  11.344   6.697   8.702 -0.6970 -0.2796  0.4674
  732MOL0     C96548  11.459   6.758   8.646  0.6454 -0.3593  0.0129
  732MOL0     C96549  11.441   6.855   8.547 -0.7038  0.2778  0.3216
  732MOL0     O96550  11.543   6.903   8.465  0.5661 -0.0437 -0.6065
  732MOL0     C96551  11.678   6.894   8.522 -0.3056  0.6831  0.2974
  732MOL0     C96552  11.697   7.005   8.618  0.7001 -0.3583 -0.1533
  732MOL0     C96553  11.837   7.015   8.672  0.2804 -0.3543  0.3033
  732MOL0     C96554  11.885   7.154   8.703  1.1335  0.1227 -0.9875
  732MOL0     C96555  11.903   7.242   8.585  0.2023 -0.4761 -0.7549
  732MOL0     C96556  11.906   7.286   8.470  0.4629 -0.9291 -1.1269
  732MOL0     C96557  11.309   6.897   8.519 -0.0108 -0.0102 -0.5631
  732MOL0     C96558  11.194   6.841   8.584  0.0339 -0.2616 -0.3424
  732MOL0     H96559  10.758   6.881   8.695 -2.1500 -1.5970 -1.7562
  732MOL0     H96560  10.524   6.850   8.766  0.0829 -0.2840  0.4482
  732MOL0     H96561  10.322   6.723   8.783 -0.9599 -0.3777 -0.2529
  732MOL0     H96562  10.337   6.802   8.939  2.2574 -0.8553 -0.4163
  732MOL0     H96563  10.119   6.685   8.955 -0.0792 -0.0900 -0.1185
  732MOL0     H96564  10.229   6.612   9.057 -0.1891  0.2867 -0.0822
  732MOL0     H96565  10.260   6.429   8.921  2.2236 -0.0900 -0.7754
  732MOL0     H96566  10.201   6.515   8.771  1.5854  1.7253  1.5136
  732MOL0     H96567   9.972   6.543   8.885  1.5598  1.0939 -0.4230
  732MOL0     H96568  10.014   6.384   8.835  1.7352  0.8339 -0.1814
  732MOL0     H96569  10.067   6.473   9.125  1.8282  0.0895 -0.7239
  732MOL0     H96570  10.089   6.311   9.058  1.5450  1.2822  1.8266
  732MOL0     H96571   9.835   6.284   9.035  0.1837 -0.1567  1.2510
  732MOL0     H96572   9.819   6.459   9.046  1.6285  1.9347  0.3828
  732MOL0     H96573   9.864   6.428   9.300 -1.2923 -1.2253  0.7292
  732MOL0     H96574   9.728   6.360   9.235 -0.3308 -0.5124 -2.4497
  732MOL0     H96575   9.823   6.121   9.195 -1.6005  0.7623 -1.0457
  732MOL0     H96576   9.783   6.175   9.357 -0.5493  2.2342  0.1603
  732MOL0     H96577  10.042   6.311   9.459 -1.8415 -1.2657  1.3640
  732MOL0     H96578  10.215   6.085   9.642  1.8239  0.2386 -0.1739
  732MOL0     H96579  10.221   6.242   9.593  0.9117  0.0326  0.8689
  732MOL0     H96580  10.429   6.171   9.620 -1.7570  1.2454  0.5014
  732MOL0     H96581  10.408   6.196   9.447  1.5439  1.1864 -0.3870
  732MOL0     H96582  10.387   5.924   9.589 -2.1046 -0.8071 -1.8011
  732MOL0     H96583  10.379   5.935   9.412 -2.0842 -5.2043  1.8093
  732MOL0     H96584  10.607   6.027   9.422 -3.5633 -0.0113 -2.3855
  732MOL0     H96585  10.602   5.861   9.451 -1.4020 -0.8313  1.0946
  732MOL0     H96586  10.690   6.020   9.852 -0.2612 -0.0980  2.1195
  732MOL0     H96587  10.827   5.879  10.018 -2.2551 -0.2589  0.1080
  732MOL0     H96588  11.108   5.448   9.931  1.3928 -2.3809 -0.9386
  732MOL0     H96589  11.267   5.298  10.037  1.6873  2.4535  0.2933
  732MOL0     H96590  11.364   5.006  10.264  0.5912 -1.9691 -2.0008
  732MOL0     H96591  11.384   5.131  10.156 -1.5452  1.1850  2.6145
  732MOL0     H96592  11.380   4.927  10.054  0.8773  1.2369  0.9561
  732MOL0     H96593  11.226   4.998   9.995  1.1267 -0.1057 -0.3406
  732MOL0     H96594  11.111   4.838  10.168  1.6358 -0.8956  2.6638
  732MOL0     H96595  11.266   4.770  10.191 -0.1415 -0.5168 -0.4247
  732MOL0     H96596  11.122   4.784   9.927 -1.9311  1.3888  3.0055
  732MOL0     H96597  11.293   4.737   9.933  0.5532 -0.9059  0.7170
  732MOL0     H96598  11.220   4.567  10.120  0.6073 -0.7526 -1.0326
  732MOL0     H96599  11.200   4.530   9.951  3.6530  1.3156  1.5402
  732MOL0     H96600  10.967   4.622   9.984  0.6978 -2.4835 -2.5140
  732MOL0     H96601  10.990   4.574  10.165 -1.8803 -5.3271  0.0578
  732MOL0     H96602  10.979   4.383   9.933 -1.9990 -0.2471 -0.4019
  732MOL0     H96603  11.041   4.352  10.095 -1.1317 -0.9816 -0.4329
  732MOL0     H96604  10.822   4.437  10.179  1.3563  0.7061 -0.4944
  732MOL0     H96605  10.808   4.278  10.100 -2.9139 -0.1952 -1.7321
  732MOL0     H96606  10.970   5.174  10.319  0.9731 -2.5283 -1.7608
  732MOL0     H96607  10.817   5.348  10.231 -0.8158  1.9570 -0.3546
  732MOL0     H96608  10.770   5.552   9.728 -3.2709  0.2059 -0.7374
  732MOL0     H96609  10.649   5.701   9.589  3.6831 -1.8564 -0.8090
  732MOL0     H96610  10.639   6.500   8.981 -0.3180  0.2525  1.1686
  732MOL0     H96611  10.888   6.550   8.917  2.0561  2.4404 -0.3505
  732MOL0     H96612  11.365   6.610   8.764  1.4476  0.0135  0.2356
  732MOL0     H96613  11.547   6.702   8.677 -0.1471 -1.2823  0.6533
  732MOL0     H96614  11.744   6.901   8.435 -0.7789 -0.9951 -0.2344
  732MOL0     H96615  11.716   6.799   8.561 -0.6820  1.8623  3.8859
  732MOL0     H96616  11.680   7.099   8.564  2.4633 -0.6230 -1.2431
  732MOL0     H96617  11.633   7.007   8.706  0.5471 -3.3129 -0.1053
  732MOL0     H96618  11.904   6.984   8.591  0.6759  0.9903  0.0990
  732MOL0     H96619  11.834   6.948   8.759 -2.9075 -3.1820 -1.7189
  732MOL0     H96620  11.810   7.207   8.763  0.7229 -1.0848 -0.4204
  732MOL0     H96621  11.976   7.161   8.763 -0.5864  0.5494  1.7373
  732MOL0     H96622  11.899   7.358   8.391  0.3246  2.3542  1.6422
  732MOL0     H96623  11.299   6.983   8.453 -0.6503  0.2313 -0.1545
  732MOL0     H96624  11.098   6.883   8.555  0.6732  1.2517 -0.3598
  733MOL0     O96625   2.628   2.120   2.832  0.2188  0.2899 -0.2255
  733MOL0     C96626   2.655   2.233   2.791 -0.8016  0.7698  0.3801
  733MOL0     O96627   2.781   2.291   2.788  0.4927  0.0688  0.1781
  733MOL0     C96628   2.881   2.205   2.808  0.2099  0.5562 -0.7476
  733MOL0     C96629   2.936   2.119   2.707 -0.0112 -0.2658 -0.1303
  733MOL0     C96630   3.043   2.036   2.731  0.4057  0.2986  1.1556
  733MOL0     C96631   3.094   2.026   2.856  0.4807 -0.4521 -0.0012
  733MOL0     O96632   3.179   1.924   2.882 -0.3675 -0.3081  0.7277
  733MOL0     C96633   3.125   1.790   2.880  0.2239  0.2211 -0.7639
  733MOL0     C96634   3.235   1.687   2.903  0.1861  0.3786  0.3923
  733MOL0     C96635   3.266   1.665   3.054  0.0990  0.6830  0.2059
  733MOL0     C96636   3.388   1.576   3.068  0.7258  0.5063  0.5634
  733MOL0     C96637   3.396   1.505   3.206 -0.1916  0.2334  0.1401
  733MOL0     C96638   3.393   1.608   3.321  0.2452  0.1885 -0.1597
  733MOL0     C96639   3.389   1.541   3.456  0.2987  1.1663 -0.7181
  733MOL0     C96640   3.248   1.501   3.493  0.6705  0.1974 -0.0627
  733MOL0     N96641   3.233   1.393   3.585 -0.5872  0.0004  0.0992
  733MOL0     C96642   3.175   1.385   3.707 -0.4875 -0.5184 -0.6604
  733MOL0     C96643   3.175   1.256   3.743 -0.0232  0.0549  0.3088
  733MOL0     C96644   3.129   1.204   3.873 -0.8451  0.3204  0.0931
  733MOL0     C96645   2.978   1.206   3.876 -0.1894 -0.2255  0.6001
  733MOL0     C96646   2.927   1.159   4.020  0.1582 -0.5865  0.0955
  733MOL0     C96647   2.961   1.017   4.057 -0.3808  1.0639 -1.0787
  733MOL0     O96648   2.946   1.014   4.204  0.6177  0.2395  0.7776
  733MOL0     C96649   2.819   1.016   4.269 -0.5572  0.1891 -1.2049
  733MOL0     C96650   2.702   1.010   4.195  0.0053  0.5452 -0.3045
  733MOL0     C96651   2.577   1.025   4.260 -0.3170  0.7104 -1.2424
  733MOL0     C96652   2.570   1.039   4.405 -0.3150  0.4928 -0.2603
  733MOL0     C96653   2.440   1.047   4.471  0.6194 -0.8656  0.3841
  733MOL0     O96654   2.335   1.003   4.397  0.1994 -0.0706 -0.1070
  733MOL0     C96655   2.215   0.986   4.461 -0.2938 -0.4588  0.1294
  733MOL0     C96656   2.165   0.858   4.474  0.2939  0.3072 -0.2826
  733MOL0     C96657   2.042   0.841   4.534  0.5768  0.1238 -0.6239
  733MOL0     C96658   1.966   0.946   4.588 -0.4489  0.1780 -0.1817
  733MOL0     O96659   1.846   0.940   4.661 -0.8117  0.3957  0.1268
  733MOL0     C96660   1.781   0.809   4.667  0.3999 -0.3556 -0.5937
  733MOL0     C96661   1.626   0.828   4.701 -0.3622  0.6230  0.0588
  733MOL0     C96662   1.560   0.914   4.592 -1.2460 -0.0052 -0.4763
  733MOL0     C96663   1.409   0.932   4.624  0.0947  0.0444 -1.5612
  733MOL0     C96664   1.341   1.013   4.511  0.2285 -0.7770  0.3057
  733MOL0     C96665   1.193   1.043   4.534  0.3424  0.8654 -0.2034
  733MOL0     C96666   1.105   0.920   4.513 -1.1213  0.3195  0.4339
  733MOL0     C96667   0.960   0.940   4.556  0.5485 -0.9423 -0.1225
  733MOL0    Cl96668   0.872   1.041   4.430  0.3123  0.0907 -0.1167
  733MOL0     C96669   2.013   1.072   4.576 -0.8756  1.5626  0.5021
  733MOL0     C96670   2.137   1.096   4.509  0.7508 -0.1684  0.2946
  733MOL0     O96671   2.435   1.075   4.589 -0.1321 -0.0974  0.1507
  733MOL0     C96672   2.692   1.034   4.482 -0.6327  0.0843  0.2650
  733MOL0     C96673   2.808   1.022   4.407 -0.6442 -0.4073 -0.6793
  733MOL0     N96674   3.203   1.181   3.629  0.5841 -0.2181 -0.6306
  733MOL0     N96675   3.251   1.267   3.542  0.0814  0.1288 -0.3434
  733MOL0     C96676   3.049   2.107   2.958 -0.3501 -0.3600  0.0131
  733MOL0     C96677   2.945   2.209   2.927 -0.1955 -0.4553 -0.5605
  733MOL0     C96678   2.537   2.303   2.745 -0.6014 -0.5305 -0.0495
  733MOL0     C96679   2.413   2.243   2.732 -0.1338  0.6215 -0.5608
  733MOL0     C96680   2.297   2.306   2.673 -0.5688 -0.0641  1.0399
  733MOL0     C96681   2.311   2.435   2.616 -0.7765  0.3203  1.2711
  733MOL0     O96682   2.213   2.521   2.569 -0.0773 -0.1426  0.0543
  733MOL0     C96683   2.103   2.457   2.503  0.0076 -0.3238 -0.8709
  733MOL0     C96684   2.025   2.560   2.421 -0.5718  0.4136  0.7789
  733MOL0     C96685   1.920   2.501   2.325 -0.4050  0.8679 -0.0441
  733MOL0     C96686   1.857   2.373   2.385  0.5209  0.1363  0.2641
  733MOL0     C96687   1.762   2.322   2.277 -0.0405  0.9370 -0.3019
  733MOL0     C96688   1.691   2.276   2.191  0.1145  0.5126 -0.2412
  733MOL0     C96689   2.443   2.491   2.616 -0.0673 -0.1229 -0.6645
  733MOL0     C96690   2.551   2.433   2.686 -0.6559  1.4159  0.3818
  733MOL0     H96691   2.887   2.117   2.610 -0.5811  0.1031  0.1451
  733MOL0     H96692   3.071   1.977   2.645 -0.1229 -2.2415  2.6272
  733MOL0     H96693   3.093   1.765   2.778 -1.1264 -2.0260  0.1225
  733MOL0     H96694   3.042   1.784   2.951  1.9914  2.1645  1.6422
  733MOL0     H96695   3.325   1.721   2.851 -0.3916 -1.9026 -2.3579
  733MOL0     H96696   3.211   1.591   2.856  3.3460 -1.5383  2.2469
  733MOL0     H96697   3.177   1.622   3.102  0.1366 -1.1254 -1.2182
  733MOL0     H96698   3.286   1.767   3.086  0.9195  0.1298  1.5503
  733MOL0     H96699   3.379   1.501   2.990  0.9758  1.2163 -0.1614
  733MOL0     H96700   3.474   1.641   3.049 -0.7291  2.4109  0.1633
  733MOL0     H96701   3.488   1.446   3.205 -2.8532 -4.4164 -1.4459
  733MOL0     H96702   3.312   1.435   3.200  2.4643 -3.3009  0.6392
  733MOL0     H96703   3.305   1.671   3.305  1.3511  1.5396 -1.2428
  733MOL0     H96704   3.485   1.667   3.310 -0.1601  1.0574  0.9482
  733MOL0     H96705   3.445   1.447   3.447 -0.0601  0.7317  1.1552
  733MOL0     H96706   3.426   1.614   3.529  3.0111 -1.6908  1.0310
  733MOL0     H96707   3.204   1.468   3.398 -0.3490  1.5992 -0.1075
  733MOL0     H96708   3.188   1.588   3.522 -0.3106 -0.5184  0.0980
  733MOL0     H96709   3.154   1.473   3.767 -1.8580  1.8244 -4.2597
  733MOL0     H96710   3.160   1.260   3.962  0.6440  0.4412 -0.4719
  733MOL0     H96711   3.174   1.106   3.889  1.7311  1.1407 -1.4889
  733MOL0     H96712   2.938   1.149   3.792  2.0709  0.7603 -1.2647
  733MOL0     H96713   2.940   1.308   3.860 -0.7637 -0.6747 -1.1561
  733MOL0     H96714   2.964   1.230   4.095  2.5132 -2.5532  0.9142
  733MOL0     H96715   2.818   1.154   4.010  0.0577  0.9342  0.1194
  733MOL0     H96716   3.065   0.989   4.040 -0.2151 -0.2238  1.4953
  733MOL0     H96717   2.889   0.951   4.007 -1.9239  1.8731 -0.0020
  733MOL0     H96718   2.696   0.980   4.091 -0.0501 -1.4788  0.2328
  733MOL0     H96719   2.485   1.012   4.205 -0.9779 -1.1231  0.1697
  733MOL0     H96720   2.231   0.777   4.443  0.3416 -0.1368  0.9286
  733MOL0     H96721   2.018   0.740   4.566  2.4548  0.4611  2.2595
  733MOL0     H96722   1.831   0.753   4.746  1.8677  1.7545  0.0518
  733MOL0     H96723   1.797   0.764   4.569  1.2092  2.3979 -1.8407
  733MOL0     H96724   1.634   0.890   4.791  2.5203 -1.4427  1.3656
  733MOL0     H96725   1.580   0.732   4.723  2.6241 -0.7986  0.5881
  733MOL0     H96726   1.569   0.858   4.498 -1.4878  1.8662 -1.6600
  733MOL0     H96727   1.606   1.010   4.571 -1.5825 -0.0314 -1.3900
  733MOL0     H96728   1.359   0.835   4.632  0.5232 -0.0256  0.9048
  733MOL0     H96729   1.401   0.984   4.719  1.1990  1.6514 -2.3061
  733MOL0     H96730   1.358   0.969   4.412  1.6391  1.7709 -0.6800
  733MOL0     H96731   1.396   1.106   4.495  0.3697 -0.8303  0.4734
  733MOL0     H96732   1.165   1.129   4.472 -1.1563  0.5497  0.0187
  733MOL0     H96733   1.181   1.066   4.640 -1.2438 -1.6448  0.2185
  733MOL0     H96734   1.112   0.892   4.407  1.1252 -0.0513  0.6129
  733MOL0     H96735   1.147   0.842   4.577 -0.0569  0.8947  0.4717
  733MOL0     H96736   0.951   0.994   4.651  2.4937  4.6124 -2.6404
  733MOL0     H96737   0.914   0.841   4.555  1.6762 -1.5184  1.2192
  733MOL0     H96738   1.950   1.153   4.611 -1.5008  0.2258  2.5828
  733MOL0     H96739   2.181   1.195   4.506 -0.0583  0.1799 -0.2013
  733MOL0     H96740   2.700   1.026   4.590 -3.2727 -0.9322  0.4571
  733MOL0     H96741   2.904   1.015   4.457 -0.5006 -0.9923 -1.0335
  733MOL0     H96742   3.097   2.109   3.056 -2.0490  3.4380  0.9488
  733MOL0     H96743   2.901   2.274   3.002 -2.0943 -2.9795  0.6127
  733MOL0     H96744   2.405   2.141   2.768 -1.9906  0.7037 -0.6707
  733MOL0     H96745   2.200   2.256   2.676  0.2243 -1.7998 -0.0541
  733MOL0     H96746   2.034   2.429   2.584 -1.7145 -0.6554 -2.3920
  733MOL0     H96747   2.124   2.370   2.439 -4.5083  0.0186 -3.2433
  733MOL0     H96748   1.973   2.628   2.488 -3.4720  0.1070 -0.9463
  733MOL0     H96749   2.086   2.620   2.352 -0.3006  0.4098  1.0162
  733MOL0     H96750   1.959   2.476   2.225 -1.9714  4.4204 -1.7042
  733MOL0     H96751   1.846   2.580   2.309  0.8925  1.9967 -0.6655
  733MOL0     H96752   1.928   2.293   2.406 -0.4545 -0.6513  0.6404
  733MOL0     H96753   1.804   2.398   2.478  1.4760  3.2715  0.1082
  733MOL0     H96754   1.655   2.219   2.108  0.7995 -0.4353  0.0959
  733MOL0     H96755   2.447   2.588   2.569  0.8505 -1.2437 -3.0853
  733MOL0     H96756   2.649   2.479   2.686  0.9369 -1.6992 -0.0519
  734MOL0     O96757   3.247   5.278   4.912  0.2286  0.2515 -0.2109
  734MOL0     C96758   3.162   5.322   4.990 -0.3948  0.4205  0.3388
  734MOL0     O96759   3.195   5.380   5.103 -0.1373 -0.0078  0.4185
  734MOL0     C96760   3.321   5.366   5.160  0.2915 -1.1939  0.2765
  734MOL0     C96761   3.361   5.479   5.234 -0.7467 -0.1423 -0.6356
  734MOL0     C96762   3.495   5.491   5.273 -0.0135 -0.0181 -0.2328
  734MOL0     C96763   3.590   5.390   5.253  0.4906  0.5318  0.7967
  734MOL0     O96764   3.714   5.424   5.305 -0.2162  0.3288 -0.1825
  734MOL0     C96765   3.820   5.325   5.297 -0.5879  0.4451  0.1324
  734MOL0     C96766   3.957   5.395   5.316  0.3778  0.3118 -0.1877
  734MOL0     C96767   3.977   5.480   5.446  0.3464  0.6892 -0.1196
  734MOL0     C96768   4.129   5.479   5.493  0.3601 -0.9198  0.5412
  734MOL0     C96769   4.146   5.350   5.569  0.6810  0.3766 -1.0360
  734MOL0     C96770   4.286   5.327   5.621 -0.1149  0.6807 -0.3951
  734MOL0     C96771   4.292   5.173   5.670  0.3044  0.2134 -0.0683
  734MOL0     C96772   4.398   5.151   5.771  0.0886  0.3734 -0.3248
  734MOL0     N96773   4.420   5.010   5.787 -0.0837  0.4923  0.2280
  734MOL0     C96774   4.512   4.940   5.710 -0.0884 -0.2920 -0.6204
  734MOL0     C96775   4.492   4.805   5.728  0.4568 -0.7210  0.2075
  734MOL0     C96776   4.557   4.692   5.650  0.1141 -0.3619  0.3191
  734MOL0     C96777   4.489   4.694   5.515 -0.0457  0.0215  0.7368
  734MOL0     C96778   4.380   4.575   5.503 -0.0690 -0.3720  0.6541
  734MOL0     C96779   4.265   4.591   5.597 -0.3808 -0.5567  0.5821
  734MOL0     O96780   4.216   4.721   5.585  0.8879 -0.8775 -0.7968
  734MOL0     C96781   4.123   4.753   5.491  0.3827  0.5376  0.8802
  734MOL0     C96782   4.069   4.878   5.497  0.0132 -0.7021  0.8224
  734MOL0     C96783   3.982   4.930   5.402  0.7679 -0.3599  0.0982
  734MOL0     C96784   3.923   4.845   5.304 -0.1783 -0.7531 -0.8696
  734MOL0     C96785   3.821   4.892   5.216  0.0846  0.8275 -0.5011
  734MOL0     O96786   3.780   4.802   5.130  0.1740  0.2475 -0.5861
  734MOL0     C96787   3.662   4.822   5.053  0.3690  0.3572 -0.0209
  734MOL0     C96788   3.627   4.932   4.977 -0.2244 -0.5509  0.1351
  734MOL0     C96789   3.501   4.938   4.921  0.2527 -0.2810  0.3230
  734MOL0     C96790   3.407   4.826   4.909 -0.8994 -0.6883  0.5693
  734MOL0     O96791   3.281   4.816   4.849 -0.6157 -0.7393  0.0099
  734MOL0     C96792   3.250   4.913   4.750  0.6920 -0.9538  0.5735
  734MOL0     C96793   3.129   4.880   4.665  0.7888 -0.4205 -0.3734
  734MOL0     C96794   2.993   4.926   4.735 -0.5859 -1.0997 -0.2643
  734MOL0     C96795   2.873   4.858   4.662 -0.7332  0.6207  0.2518
  734MOL0     C96796   2.737   4.909   4.701  0.1140 -0.2028 -0.3850
  734MOL0     C96797   2.625   4.859   4.607  0.7444 -1.0056  0.2091
  734MOL0     C96798   2.553   4.726   4.617  0.3026 -0.0281 -0.0609
  734MOL0     C96799   2.519   4.661   4.474 -1.0747 -0.9995  0.5194
  734MOL0    Cl96800   2.677   4.657   4.380  0.0129 -0.5915  0.0696
  734MOL0     C96801   3.464   4.714   4.961 -0.5925  0.3596 -0.3026
  734MOL0     C96802   3.585   4.716   5.035 -0.8673  0.4145  0.0986
  734MOL0     O96803   3.773   5.004   5.226 -0.0709 -0.6350 -0.0928
  734MOL0     C96804   3.963   4.713   5.300 -0.5532  0.1699 -0.5872
  734MOL0     C96805   4.063   4.668   5.391 -0.0939  0.7716 -0.1026
  734MOL0     N96806   4.391   4.797   5.821  0.3223  0.3608  0.3286
  734MOL0     N96807   4.354   4.919   5.861 -0.3700  0.3967 -0.2131
  734MOL0     C96808   3.543   5.277   5.194  1.0357 -0.2643 -0.7412
  734MOL0     C96809   3.413   5.263   5.147  0.9277  0.3338  0.5092
  734MOL0     C96810   3.023   5.327   4.942 -0.1058 -0.0076  0.0222
  734MOL0     C96811   2.912   5.379   5.012  0.1196  0.6556  0.9839
  734MOL0     C96812   2.782   5.382   4.958  0.1180 -1.3215  0.1336
  734MOL0     C96813   2.762   5.354   4.821  1.1884 -0.0128 -0.5071
  734MOL0     O96814   2.641   5.369   4.762 -0.6769  0.2115 -0.2561
  734MOL0     C96815   2.527   5.357   4.849 -0.2363 -1.1713  0.7979
  734MOL0     C96816   2.400   5.362   4.759 -0.4769 -1.1109 -0.1381
  734MOL0     C96817   2.277   5.396   4.843 -1.3248 -1.0920  0.5536
  734MOL0     C96818   2.131   5.392   4.778  0.3074  0.3026  0.3910
  734MOL0     C96819   2.121   5.419   4.633 -1.0215 -0.3769  0.6738
  734MOL0     C96820   2.137   5.438   4.513 -0.0172  0.7174  0.5114
  734MOL0     C96821   2.875   5.315   4.742  0.1001  0.6473  0.4738
  734MOL0     C96822   2.998   5.297   4.804  0.1954 -0.2572 -0.3709
  734MOL0     H96823   3.292   5.563   5.240  0.5227  0.9555 -0.7650
  734MOL0     H96824   3.534   5.579   5.325  1.4785 -1.8215  1.8886
  734MOL0     H96825   3.819   5.287   5.195  0.3229 -1.2164  0.7130
  734MOL0     H96826   3.817   5.250   5.377  1.2261 -0.4575 -0.5804
  734MOL0     H96827   3.983   5.455   5.228 -2.4981 -1.4425 -2.4104
  734MOL0     H96828   4.019   5.304   5.325 -2.9977 -2.3211 -1.3242
  734MOL0     H96829   3.915   5.439   5.526  1.8455  0.8672  1.1998
  734MOL0     H96830   3.944   5.583   5.427 -3.2960  0.0144  1.7275
  734MOL0     H96831   4.190   5.485   5.402 -0.4301 -0.2774  0.0270
  734MOL0     H96832   4.150   5.565   5.558 -1.8448 -0.7093  1.0442
  734MOL0     H96833   4.128   5.270   5.495  2.0824  0.4367 -1.4643
  734MOL0     H96834   4.079   5.355   5.655  1.2864 -1.9089 -0.3530
  734MOL0     H96835   4.302   5.395   5.706  1.1587 -1.5058  1.2054
  734MOL0     H96836   4.368   5.358   5.555 -0.2264  2.9333  0.4120
  734MOL0     H96837   4.198   5.130   5.706 -0.2199  0.6900 -0.8264
  734MOL0     H96838   4.301   5.117   5.577 -0.8806 -1.1588  0.6094
  734MOL0     H96839   4.360   5.198   5.862  0.3382 -0.5015  0.2394
  734MOL0     H96840   4.493   5.196   5.740  2.0920 -2.3419  1.4297
  734MOL0     H96841   4.580   4.988   5.640  3.0362 -0.5028  2.0502
  734MOL0     H96842   4.548   4.592   5.693  1.1454 -0.3600  0.5578
  734MOL0     H96843   4.663   4.712   5.633 -0.4183  1.0723 -1.7410
  734MOL0     H96844   4.559   4.672   5.435  0.1149 -1.5158  1.2777
  734MOL0     H96845   4.452   4.793   5.484  0.0143 -0.0988  0.2841
  734MOL0     H96846   4.335   4.592   5.404 -0.0408  2.9564  1.0828
  734MOL0     H96847   4.419   4.473   5.507  0.7317 -0.2191 -1.6522
  734MOL0     H96848   4.306   4.578   5.698 -0.6072 -1.0290  0.6156
  734MOL0     H96849   4.186   4.517   5.582 -3.3107  2.3524  0.5684
  734MOL0     H96850   4.086   4.944   5.582 -0.4840 -0.2057  0.5453
  734MOL0     H96851   3.951   5.034   5.400  1.9639 -0.0063 -0.7985
  734MOL0     H96852   3.699   5.013   4.969  1.5803 -1.9448  1.3353
  734MOL0     H96853   3.471   5.020   4.857  1.8448 -2.2172 -3.1778
  734MOL0     H96854   3.334   4.940   4.686  1.5917 -1.3923  1.5531
  734MOL0     H96855   3.234   5.007   4.805  4.2846 -1.1792  2.2910
  734MOL0     H96856   3.122   4.771   4.659  0.7847 -0.6361  2.4942
  734MOL0     H96857   3.138   4.920   4.563 -1.4216  0.9054 -0.1192
  734MOL0     H96858   2.988   5.034   4.721 -3.2927 -1.4174 -2.7392
  734MOL0     H96859   2.979   4.903   4.841  0.7753 -3.7050 -0.5665
  734MOL0     H96860   2.888   4.868   4.555 -1.3539  1.4253  0.2279
  734MOL0     H96861   2.871   4.753   4.691  3.1895  0.2387 -0.3133
  734MOL0     H96862   2.743   5.017   4.690  1.0917 -0.4135 -2.5355
  734MOL0     H96863   2.710   4.898   4.807  1.5416  0.1113  0.0311
  734MOL0     H96864   2.672   4.876   4.510  2.0085  1.2256  1.1269
  734MOL0     H96865   2.543   4.931   4.612 -0.9745 -2.7819 -1.0544
  734MOL0     H96866   2.619   4.658   4.672  2.9783  1.0925 -1.6829
  734MOL0     H96867   2.456   4.748   4.663  1.2322  2.0913  0.9942
  734MOL0     H96868   2.464   4.749   4.440  1.7222  1.5583  2.0905
  734MOL0     H96869   2.461   4.568   4.470 -2.1082 -0.3147 -1.8258
  734MOL0     H96870   3.415   4.617   4.957 -0.0059 -0.0796  1.9368
  734MOL0     H96871   3.632   4.628   5.079  3.6351  0.9896 -2.8990
  734MOL0     H96872   3.940   4.638   5.225 -0.0460  0.2716 -0.8512
  734MOL0     H96873   4.090   4.564   5.404 -1.8278  0.6143  3.6178
  734MOL0     H96874   3.612   5.195   5.173  2.0229  1.1846 -3.8150
  734MOL0     H96875   3.371   5.176   5.097 -0.3866  2.0076 -1.4611
  734MOL0     H96876   2.928   5.417   5.113 -1.3969  2.5008  0.5964
  734MOL0     H96877   2.705   5.423   5.023 -2.8257  0.1524 -3.8651
  734MOL0     H96878   2.525   5.445   4.914 -2.8099  0.5841 -1.4306
  734MOL0     H96879   2.541   5.266   4.908  2.1265 -2.6895 -1.8705
  734MOL0     H96880   2.424   5.442   4.688 -2.0872 -0.2499  0.2414
  734MOL0     H96881   2.387   5.283   4.684  1.5070 -0.3724 -1.3430
  734MOL0     H96882   2.301   5.498   4.875 -1.5703 -0.1269 -2.0623
  734MOL0     H96883   2.273   5.332   4.931 -5.5262 -1.6301  0.1685
  734MOL0     H96884   2.085   5.296   4.803  1.7424 -0.1244  1.5283
  734MOL0     H96885   2.070   5.461   4.836 -1.2280 -2.2694  2.0387
  734MOL0     H96886   2.171   5.457   4.413  3.3034 -0.9056  1.1764
  734MOL0     H96887   2.836   5.305   4.641 -2.5185 -0.8296  1.5403
  734MOL0     H96888   3.079   5.272   4.736  0.9924  2.7306 -0.6674
  735MOL0     O96889   0.682   4.693   8.419 -0.4606  0.0825  0.0824
  735MOL0     C96890   0.770   4.621   8.379 -1.4832 -0.0069  0.3641
  735MOL0     O96891   0.762   4.486   8.349 -0.0024  0.2352  0.0036
  735MOL0     C96892   0.643   4.434   8.303 -0.1282 -0.6435  0.6026
  735MOL0     C96893   0.545   4.394   8.391 -0.0163  0.0178  0.3084
  735MOL0     C96894   0.421   4.338   8.356  0.1979 -0.1311 -0.1400
  735MOL0     C96895   0.395   4.323   8.217  0.2052  0.7178  0.0125
  735MOL0     O96896   0.280   4.270   8.179  0.2094 -0.4991 -0.1039
  735MOL0     C96897   0.289   4.141   8.114  0.8986 -0.4259  0.1572
  735MOL0     C96898   0.212   4.030   8.180 -0.2205 -0.0574 -0.0835
  735MOL0     C96899   0.057   4.068   8.181  0.3057  0.4837  0.4475
  735MOL0     C96900  -0.003   4.110   8.054  0.5909 -0.2995  0.3594
  735MOL0     C96901  -0.152   4.134   8.071 -0.2996 -0.3425  0.0128
  735MOL0     C96902  -0.187   4.226   8.187 -0.6144 -0.4217  0.0787
  735MOL0     C96903  -0.321   4.289   8.168 -0.7094  1.1058  0.3961
  735MOL0     C96904  -0.310   4.415   8.079  0.5738  0.1937 -0.0546
  735MOL0     N96905  -0.449   4.461   8.047  0.0791  0.7234 -0.3712
  735MOL0     C96906  -0.494   4.498   7.925  0.3263  0.4834  0.2117
  735MOL0     C96907  -0.632   4.495   7.947 -0.2070  0.6348 -0.1532
  735MOL0     C96908  -0.747   4.536   7.848  0.2319  0.5358  0.6540
  735MOL0     C96909  -0.773   4.457   7.716  0.3804 -0.3082  0.6090
  735MOL0     C96910  -0.903   4.499   7.655  0.5212 -0.2928  0.6994
  735MOL0     C96911  -1.031   4.454   7.732  0.2787 -0.0217 -0.2261
  735MOL0     O96912  -1.149   4.479   7.652 -0.3421  0.6416 -0.4246
  735MOL0     C96913  -1.237   4.580   7.684  0.3281 -0.3546 -0.4074
  735MOL0     C96914  -1.365   4.560   7.657 -0.4464  0.3047  0.5559
  735MOL0     C96915  -1.465   4.644   7.687  0.2831 -0.3422  0.4571
  735MOL0     C96916  -1.439   4.762   7.755  0.1240  0.4873  0.9888
  735MOL0     C96917  -1.540   4.857   7.785 -0.3968 -0.4647 -0.5691
  735MOL0     O96918  -1.662   4.846   7.716  1.0595 -0.5041 -0.2688
  735MOL0     C96919  -1.763   4.936   7.751  0.9291  1.2167  0.5924
  735MOL0     C96920  -1.822   4.950   7.878  0.5115 -0.6786 -0.2238
  735MOL0     C96921  -1.912   5.061   7.906 -0.0757  0.5149 -0.1202
  735MOL0     C96922  -1.946   5.146   7.807  1.5220 -0.1126  0.2363
  735MOL0     O96923  -2.035   5.253   7.823 -0.1616 -0.0641  0.8627
  735MOL0     C96924  -2.128   5.243   7.932  0.8372  0.5236  0.3254
  735MOL0     C96925  -2.187   5.388   7.953  0.3047  0.7050 -0.0332
  735MOL0     C96926  -2.238   5.453   7.819  0.3889 -0.1428 -0.0670
  735MOL0     C96927  -2.337   5.553   7.868  0.6074 -0.7159 -0.3059
  735MOL0     C96928  -2.412   5.624   7.759  0.3024 -0.1493 -0.0544
  735MOL0     C96929  -2.547   5.665   7.809 -0.3158 -0.0230 -0.0446
  735MOL0     C96930  -2.610   5.762   7.715 -0.5924 -0.1567  0.1786
  735MOL0     C96931  -2.750   5.810   7.746 -0.6629 -0.1543 -0.2177
  735MOL0    Cl96932  -2.796   5.903   7.606 -0.4044 -0.0738  0.1225
  735MOL0     C96933  -1.896   5.123   7.679  0.3408 -0.2665 -0.5158
  735MOL0     C96934  -1.808   5.017   7.646 -0.6522  0.4229 -0.0238
  735MOL0     O96935  -1.519   4.933   7.886  0.3096  0.3788  0.7341
  735MOL0     C96936  -1.303   4.785   7.787 -0.0351 -0.5934 -0.6469
  735MOL0     C96937  -1.203   4.699   7.749 -1.1833  0.6838  0.6083
  735MOL0     N96938  -0.660   4.458   8.078 -0.1197 -0.3458 -0.5449
  735MOL0     N96939  -0.548   4.444   8.136  0.5055  0.7734 -0.5731
  735MOL0     C96940   0.496   4.346   8.127 -0.0149 -0.1796  0.4363
  735MOL0     C96941   0.619   4.406   8.166 -0.4279 -0.0075 -1.1387
  735MOL0     C96942   0.910   4.675   8.374 -0.4007 -0.4526  0.2256
  735MOL0     C96943   1.018   4.593   8.335 -0.1509 -0.3270 -0.5962
  735MOL0     C96944   1.143   4.650   8.312 -0.2947  0.1621  0.5789
  735MOL0     C96945   1.172   4.783   8.346 -0.8118  0.1635 -0.5165
  735MOL0     O96946   1.288   4.850   8.311 -0.0839 -0.2168  0.6132
  735MOL0     C96947   1.410   4.778   8.270 -0.4922 -0.0922 -0.0976
  735MOL0     C96948   1.522   4.850   8.348 -0.1800 -0.0282 -0.7417
  735MOL0     C96949   1.511   4.840   8.505 -0.8043 -1.0351  0.1018
  735MOL0     C96950   1.644   4.897   8.581  0.5424 -0.5493 -0.1630
  735MOL0     C96951   1.629   5.039   8.610  0.6930  1.1149  0.1619
  735MOL0     C96952   1.607   5.155   8.626 -1.1253  0.3441  0.2936
  735MOL0     C96953   1.070   4.860   8.403  0.0217 -0.8688  0.1607
  735MOL0     C96954   0.942   4.806   8.418  0.5448 -0.8452  0.9606
  735MOL0     H96955   0.573   4.427   8.490  3.8678 -1.2844 -0.1675
  735MOL0     H96956   0.343   4.307   8.425  0.0136  0.6985  0.0377
  735MOL0     H96957   0.391   4.104   8.122  0.1368 -2.2771  2.4075
  735MOL0     H96958   0.280   4.161   8.007  2.4349 -0.5797 -0.0177
  735MOL0     H96959   0.243   4.006   8.282  1.4658  0.4180 -0.4574
  735MOL0     H96960   0.231   3.946   8.113 -0.3377  1.0028 -1.4950
  735MOL0     H96961   0.040   4.140   8.262 -2.5834 -1.2698  1.5768
  735MOL0     H96962   0.006   3.977   8.215  0.9057 -1.7543 -3.9513
  735MOL0     H96963   0.041   4.204   8.018  0.9134 -0.9381 -0.9831
  735MOL0     H96964   0.004   4.048   7.964 -1.8710 -1.1302  0.6915
  735MOL0     H96965  -0.197   4.041   8.109  1.7734 -1.6554 -0.5819
  735MOL0     H96966  -0.190   4.165   7.974 -2.1579 -3.7738 -0.5226
  735MOL0     H96967  -0.107   4.301   8.188  1.4213 -2.3731 -2.2567
  735MOL0     H96968  -0.182   4.171   8.282 -0.0130  2.7879  2.0733
  735MOL0     H96969  -0.383   4.210   8.125  0.2680  0.8100 -0.5113
  735MOL0     H96970  -0.349   4.325   8.268  0.3135  2.0692  0.3566
  735MOL0     H96971  -0.233   4.413   8.001  3.7004  4.9985  2.4911
  735MOL0     H96972  -0.278   4.499   8.140  2.2913  0.5044 -1.3148
  735MOL0     H96973  -0.440   4.517   7.833 -3.2585 -0.1287 -2.2202
  735MOL0     H96974  -0.719   4.637   7.817  1.2392 -0.0012 -0.2592
  735MOL0     H96975  -0.844   4.550   7.895 -1.8360 -0.7148 -2.8137
  735MOL0     H96976  -0.777   4.349   7.737 -2.1506 -0.3561  0.2322
  735MOL0     H96977  -0.690   4.480   7.649  0.0749  2.3710  1.0470
  735MOL0     H96978  -0.886   4.606   7.645 -2.0437  0.1522  0.3860
  735MOL0     H96979  -0.905   4.453   7.556  1.0509  2.2022 -0.5519
  735MOL0     H96980  -1.036   4.498   7.832 -2.2252  0.0455 -0.3113
  735MOL0     H96981  -1.018   4.345   7.736  1.3165  0.1317  1.9731
  735MOL0     H96982  -1.388   4.471   7.599 -2.3526  1.3073 -0.2945
  735MOL0     H96983  -1.554   4.609   7.636  2.9582 -1.5832 -3.9889
  735MOL0     H96984  -1.786   4.870   7.942  2.0658  1.7512  2.1452
  735MOL0     H96985  -1.935   5.059   8.012  1.6061 -0.6138  0.2581
  735MOL0     H96986  -2.065   5.211   8.016 -0.4295 -1.9413  0.4439
  735MOL0     H96987  -2.211   5.172   7.927  1.3909 -0.3539  2.4720
  735MOL0     H96988  -2.110   5.457   7.989  0.4271  0.3825  0.3152
  735MOL0     H96989  -2.267   5.369   8.025  0.9100 -2.6654 -0.1293
  735MOL0     H96990  -2.279   5.378   7.751  2.5331  0.5492 -2.2665
  735MOL0     H96991  -2.163   5.510   7.764  1.6390  2.4827  3.9501
  735MOL0     H96992  -2.412   5.508   7.933  0.9821 -1.8294 -0.6229
  735MOL0     H96993  -2.283   5.634   7.919  0.6914  0.2171 -1.7918
  735MOL0     H96994  -2.433   5.561   7.672 -0.6547 -0.4866  0.4092
  735MOL0     H96995  -2.347   5.707   7.728 -0.7723  2.5248  4.1111
  735MOL0     H96996  -2.530   5.726   7.898  4.3765 -0.2444 -0.5397
  735MOL0     H96997  -2.616   5.584   7.836 -1.5756  1.4402  1.3526
  735MOL0     H96998  -2.554   5.855   7.711 -1.1889  0.2602  1.1307
  735MOL0     H96999  -2.618   5.715   7.616 -0.5863  1.7234 -0.7491
  735MOL0     H97000  -2.755   5.886   7.825 -4.2223 -0.6356  0.2115
  735MOL0     H97001  -2.814   5.722   7.761 -0.1726 -0.1951  1.9138
  735MOL0     H97002  -1.925   5.184   7.594  0.1792  2.1288  1.1616
  735MOL0     H97003  -1.773   5.009   7.544  0.7173  0.6743  0.4062
  735MOL0     H97004  -1.273   4.873   7.843  1.9568  0.0685 -2.5843
  735MOL0     H97005  -1.101   4.715   7.783  1.0260  1.1906 -5.0849
  735MOL0     H97006   0.486   4.325   8.021  1.5142 -2.5499  0.6827
  735MOL0     H97007   0.698   4.437   8.099  2.2978 -0.7370  1.5417
  735MOL0     H97008   1.010   4.492   8.296  1.0556 -0.0282 -1.7289
  735MOL0     H97009   1.214   4.586   8.261 -0.4706  0.3038  0.1559
  735MOL0     H97010   1.434   4.790   8.164 -0.6357 -1.8673 -0.3648
  735MOL0     H97011   1.412   4.673   8.302  3.3409 -0.0750  0.1166
  735MOL0     H97012   1.621   4.818   8.317  0.3157 -2.1030  2.4942
  735MOL0     H97013   1.521   4.959   8.336 -0.5356 -0.2359 -3.0724
  735MOL0     H97014   1.488   4.742   8.548 -1.2118 -1.1173 -0.2927
  735MOL0     H97015   1.434   4.911   8.534 -2.0251 -2.7369  1.2094
  735MOL0     H97016   1.656   4.832   8.668 -1.4123 -4.3560 -2.4243
  735MOL0     H97017   1.737   4.881   8.524  2.7180 -1.8351  3.4111
  735MOL0     H97018   1.601   5.261   8.643 -1.8199  0.9570 -3.0938
  735MOL0     H97019   1.093   4.956   8.450 -2.6067  0.8604 -1.7720
  735MOL0     H97020   0.862   4.870   8.453 -0.1718 -0.2833 -1.5023
  736MOL0     O97021   9.389   9.348   4.170 -0.1272 -0.2243 -0.1640
  736MOL0     C97022   9.398   9.249   4.096  0.9148 -0.9135 -0.1765
  736MOL0     O97023   9.305   9.176   4.035 -0.6230 -0.6202 -0.1359
  736MOL0     C97024   9.173   9.181   4.062  0.4890 -0.8462  0.8177
  736MOL0     C97025   9.090   9.128   3.970 -0.4192  0.0314  0.5498
  736MOL0     C97026   8.951   9.135   3.976 -0.0990  0.4244 -0.6586
  736MOL0     C97027   8.890   9.193   4.088  0.0076 -0.0371 -0.5364
  736MOL0     O97028   8.756   9.221   4.082 -0.1099 -0.1523  0.6259
  736MOL0     C97029   8.705   9.318   4.164  0.0131  0.9418  0.0210
  736MOL0     C97030   8.559   9.340   4.125  0.5416 -0.1267 -0.2002
  736MOL0     C97031   8.473   9.215   4.103 -0.1057  0.1275 -0.5395
  736MOL0     C97032   8.328   9.256   4.095 -0.5492 -0.5547  0.7245
  736MOL0     C97033   8.253   9.121   4.100  0.2693  0.5616 -0.3342
  736MOL0     C97034   8.102   9.150   4.115 -0.8736  0.5616  0.3099
  736MOL0     C97035   8.065   9.215   4.246  0.1044 -0.2845 -0.1742
  736MOL0     C97036   7.921   9.183   4.279  0.6221 -0.8494  0.4753
  736MOL0     N97037   7.875   9.282   4.378  0.1992  0.0542  0.3130
  736MOL0     C97038   7.837   9.405   4.344 -0.1718 -0.6340 -0.6374
  736MOL0     C97039   7.811   9.467   4.463 -0.6944  0.4647  0.0395
  736MOL0     C97040   7.758   9.604   4.473 -0.3244 -0.5962 -0.0631
  736MOL0     C97041   7.603   9.605   4.454  0.0298 -1.2294 -0.0917
  736MOL0     C97042   7.550   9.622   4.302 -0.1007  0.0542 -0.5686
  736MOL0     C97043   7.399   9.648   4.317  0.0990  0.2808 -0.2063
  736MOL0     O97044   7.356   9.747   4.411 -0.3835 -0.8503 -0.5402
  736MOL0     C97045   7.218   9.755   4.426  0.6345 -0.7098 -0.7524
  736MOL0     C97046   7.121   9.669   4.354  0.5546  0.0862  0.0713
  736MOL0     C97047   6.985   9.707   4.355 -0.0711  0.4709  0.1743
  736MOL0     C97048   6.936   9.816   4.428 -0.1518 -0.0100  0.3136
  736MOL0     C97049   6.795   9.844   4.431  0.0903 -0.6833 -0.3955
  736MOL0     O97050   6.746   9.938   4.512  0.1064  0.3339 -0.5254
  736MOL0     C97051   6.607   9.954   4.544 -0.1945 -0.2278  0.3978
  736MOL0     C97052   6.495   9.878   4.506 -0.0513  0.1729 -0.3931
  736MOL0     C97053   6.369   9.895   4.566 -0.1772  0.7270 -0.6070
  736MOL0     C97054   6.355   9.993   4.668 -1.2427  0.3099 -0.0783
  736MOL0     O97055   6.232   9.977   4.717 -0.6054 -0.5845  0.0458
  736MOL0     C97056   6.173  10.096   4.775  0.4080  0.0323 -0.4406
  736MOL0     C97057   6.023  10.090   4.760  0.1960  0.2802 -0.4677
  736MOL0     C97058   5.952  10.225   4.768  0.2976 -0.1948 -0.1688
  736MOL0     C97059   5.816  10.216   4.693  0.2424  0.2651  0.7637
  736MOL0     C97060   5.733  10.352   4.705  0.2593 -0.6127 -0.3090
  736MOL0     C97061   5.623  10.359   4.595  1.2641  0.4176 -0.0074
  736MOL0     C97062   5.510  10.260   4.632  0.5738  0.4344  0.0509
  736MOL0     C97063   5.379  10.271   4.560 -0.8430 -0.1631  0.2375
  736MOL0    Cl97064   5.386  10.230   4.380 -0.0855  0.0715  0.1399
  736MOL0     C97065   6.459  10.083   4.701 -0.1568  1.0490  0.4945
  736MOL0     C97066   6.581  10.058   4.641 -0.1949 -0.2017  0.2601
  736MOL0     O97067   6.731   9.793   4.342 -0.2823  0.0432  0.0770
  736MOL0     C97068   7.027   9.894   4.498 -0.2039  0.7250  0.8680
  736MOL0     C97069   7.164   9.866   4.491  0.4516  0.5753 -0.7778
  736MOL0     N97070   7.829   9.372   4.566 -0.2030 -0.7499 -0.0410
  736MOL0     N97071   7.874   9.264   4.510  0.2410 -0.6707  0.1630
  736MOL0     C97072   8.979   9.236   4.190  1.0091  0.1549  0.0781
  736MOL0     C97073   9.113   9.235   4.177  0.2561 -0.0345 -0.1775
  736MOL0     C97074   9.528   9.221   4.026  0.0420  0.4804  0.0795
  736MOL0     C97075   9.614   9.322   4.000 -0.2972 -0.1809  0.2931
  736MOL0     C97076   9.735   9.302   3.928 -0.3650 -0.7699 -0.4405
  736MOL0     C97077   9.771   9.178   3.878 -0.2597  0.3112 -0.4261
  736MOL0     O97078   9.901   9.184   3.830 -0.2547  0.1026  0.4543
  736MOL0     C97079   9.956   9.059   3.780 -0.4639 -0.7811  0.4888
  736MOL0     C97080  10.101   9.084   3.726  0.2147 -0.3211 -0.0129
  736MOL0     C97081  10.082   9.183   3.600 -0.1753 -0.0234  0.3596
  736MOL0     C97082  10.197   9.184   3.506 -0.1321 -0.1912  0.2209
  736MOL0     C97083  10.328   9.178   3.574  0.1247 -0.4911  0.1622
  736MOL0     C97084  10.434   9.155   3.619 -0.6223 -0.0326 -0.6681
  736MOL0     C97085   9.687   9.070   3.895 -0.0775 -0.5291  0.6845
  736MOL0     C97086   9.560   9.088   3.967 -0.1297  0.6806 -0.7405
  736MOL0     H97087   9.136   9.069   3.892 -1.5304 -0.8972  0.5706
  736MOL0     H97088   8.887   9.106   3.894  0.2361 -2.2051 -0.0881
  736MOL0     H97089   8.762   9.411   4.157  1.3542  0.5278  3.3153
  736MOL0     H97090   8.724   9.288   4.268  0.6963 -1.3636 -0.6994
  736MOL0     H97091   8.564   9.395   4.030 -0.5745 -0.2411 -0.3463
  736MOL0     H97092   8.513   9.406   4.199  2.9102  0.9084  0.4565
  736MOL0     H97093   8.483   9.148   4.188 -1.8831  0.5020  0.0109
  736MOL0     H97094   8.505   9.160   4.014 -0.8204 -0.0428 -0.7037
  736MOL0     H97095   8.298   9.322   4.176 -0.8311  0.3056 -0.0718
  736MOL0     H97096   8.316   9.313   4.003  1.5735 -2.0653 -0.6015
  736MOL0     H97097   8.293   9.072   4.189 -2.2054  1.0900  1.1436
  736MOL0     H97098   8.266   9.052   4.016 -3.0926  0.7339 -1.1393
  736MOL0     H97099   8.066   9.046   4.108  0.7134  0.0125 -0.2126
  736MOL0     H97100   8.066   9.205   4.028  2.5380 -2.1981 -3.2492
  736MOL0     H97101   8.127   9.172   4.325 -0.8826  1.7919  1.8319
  736MOL0     H97102   8.102   9.318   4.245  1.1915 -0.6574 -0.1391
  736MOL0     H97103   7.903   9.084   4.321 -4.2406 -0.5617 -0.2948
  736MOL0     H97104   7.862   9.201   4.188  0.1580  0.8666  1.0771
  736MOL0     H97105   7.825   9.447   4.245 -1.0683 -3.5523 -1.8620
  736MOL0     H97106   7.815   9.662   4.400 -0.4336  0.3959  0.6229
  736MOL0     H97107   7.789   9.630   4.575  3.3636 -0.3401 -1.1192
  736MOL0     H97108   7.582   9.698   4.507 -1.6504 -1.3791 -0.4336
  736MOL0     H97109   7.561   9.525   4.516  4.4427 -2.2254  2.0073
  736MOL0     H97110   7.598   9.700   4.242 -2.2171  1.4671 -0.5500
  736MOL0     H97111   7.579   9.534   4.244 -0.8307  1.4005 -3.1175
  736MOL0     H97112   7.360   9.548   4.340  4.1049 -3.0162 -5.4596
  736MOL0     H97113   7.355   9.664   4.218 -1.0986 -4.4545 -0.6687
  736MOL0     H97114   7.152   9.584   4.295 -0.0331 -0.5112  0.6080
  736MOL0     H97115   6.917   9.649   4.292 -0.0636  0.3685  0.2591
  736MOL0     H97116   6.507   9.799   4.433 -1.0276  1.4546 -2.0199
  736MOL0     H97117   6.286   9.825   4.562  1.3299 -1.2062  0.2935
  736MOL0     H97118   6.215  10.187   4.733 -0.5137  0.9933  0.6658
  736MOL0     H97119   6.191  10.091   4.883 -5.1076 -0.5804  0.7511
  736MOL0     H97120   5.983  10.007   4.818 -1.6107 -0.8129 -3.0942
  736MOL0     H97121   6.007  10.044   4.663  0.0556  0.4465 -0.5251
  736MOL0     H97122   6.005  10.308   4.721 -0.3925  0.9794  1.0815
  736MOL0     H97123   5.927  10.246   4.872 -3.7190  0.2023 -1.0435
  736MOL0     H97124   5.834  10.179   4.591  1.4141  0.7617  0.7633
  736MOL0     H97125   5.752  10.136   4.732  0.1103 -1.0454 -1.8747
  736MOL0     H97126   5.807  10.431   4.689 -0.8942  0.6375  0.3259
  736MOL0     H97127   5.679  10.381   4.796  0.4472  2.5565 -1.0892
  736MOL0     H97128   5.665  10.330   4.498  1.0696  0.6748 -0.1713
  736MOL0     H97129   5.583  10.461   4.598  0.2035 -0.0047  1.2015
  736MOL0     H97130   5.546  10.157   4.633  2.5383  1.0045 -2.3332
  736MOL0     H97131   5.472  10.286   4.731  2.3648 -0.0735  0.8998
  736MOL0     H97132   5.339  10.373   4.568 -2.0466 -0.5343 -0.7414
  736MOL0     H97133   5.304  10.213   4.615  0.2532 -1.3926  0.4856
  736MOL0     H97134   6.447  10.168   4.767 -3.1364  2.0142 -1.0976
  736MOL0     H97135   6.664  10.124   4.663 -0.1904  0.8326 -2.4422
  736MOL0     H97136   6.999   9.980   4.559  1.1542  2.4314 -0.7898
  736MOL0     H97137   7.228   9.930   4.550  0.3733  0.4444 -0.5493
  736MOL0     H97138   8.925   9.270   4.278  0.0441  0.6663 -0.6897
  736MOL0     H97139   9.173   9.287   4.252  0.1040 -0.0692 -0.0323
  736MOL0     H97140   9.576   9.414   4.042 -1.3347 -0.2453 -0.4577
  736MOL0     H97141   9.798   9.387   3.902 -1.0243 -0.5902 -1.4946
  736MOL0     H97142   9.901   9.010   3.700 -0.5032  0.2781 -0.1415
  736MOL0     H97143   9.975   8.987   3.861  0.4482 -0.4387  0.5915
  736MOL0     H97144  10.161   9.129   3.807  1.5581  0.4043 -1.3552
  736MOL0     H97145  10.139   8.986   3.695 -3.2937 -1.9680  0.4799
  736MOL0     H97146  10.062   9.288   3.622 -4.7554 -0.8697  1.1560
  736MOL0     H97147   9.992   9.145   3.552  2.4626 -2.3215 -3.2949
  736MOL0     H97148  10.184   9.095   3.444 -2.6077  0.5784 -0.4747
  736MOL0     H97149  10.198   9.274   3.443  1.7754 -0.2948  0.0184
  736MOL0     H97150  10.532   9.154   3.663 -0.2819 -2.5178 -1.3312
  736MOL0     H97151   9.715   8.967   3.871  1.2288 -0.9819  3.6867
  736MOL0     H97152   9.481   9.015   3.979  0.9543 -0.6396 -1.3109
  737MOL0     O97153   2.609   1.501   5.880 -0.0350  0.2092  0.6877
  737MOL0     C97154   2.654   1.392   5.837  0.0506  0.2782  0.5162
  737MOL0     O97155   2.579   1.289   5.792  0.4663  0.4213  0.3138
  737MOL0     C97156   2.440   1.300   5.758 -0.3043 -0.5137  0.5184
  737MOL0     C97157   2.394   1.421   5.699  0.2932 -0.5390  0.0429
  737MOL0     C97158   2.252   1.441   5.674 -0.1965 -0.0290  0.7741
  737MOL0     C97159   2.167   1.330   5.696  0.2673 -0.0941 -0.3202
  737MOL0     O97160   2.039   1.336   5.640 -0.2229 -0.5334  0.6909
  737MOL0     C97161   2.016   1.267   5.514  0.1060 -0.0415 -0.8393
  737MOL0     C97162   1.942   1.132   5.512 -0.0334 -1.3490  0.7879
  737MOL0     C97163   1.801   1.153   5.541 -0.4787 -0.3028 -0.9041
  737MOL0     C97164   1.712   1.027   5.508 -0.4077 -0.0129  0.4860
  737MOL0     C97165   1.568   1.035   5.558 -0.8114  0.3325  0.0301
  737MOL0     C97166   1.485   0.919   5.500  0.1188 -0.8573 -0.2228
  737MOL0     C97167   1.333   0.927   5.536 -0.2045  0.4058  1.0569
  737MOL0     C97168   1.258   0.837   5.451  0.2453 -0.7150 -0.3409
  737MOL0     N97169   1.116   0.844   5.484 -0.4522  0.1153  0.3508
  737MOL0     C97170   1.069   0.755   5.585 -0.2370  0.3543 -0.1118
  737MOL0     C97171   0.936   0.757   5.566 -0.9028 -0.2498  0.3757
  737MOL0     C97172   0.843   0.692   5.659  0.8096 -0.5967 -0.9715
  737MOL0     C97173   0.696   0.729   5.652  0.7752  0.3847  0.1390
  737MOL0     C97174   0.616   0.644   5.752 -0.2612 -0.5380 -0.7014
  737MOL0     C97175   0.471   0.698   5.752 -0.2982 -0.2685 -0.4818
  737MOL0     O97176   0.414   0.666   5.876 -1.0362  0.7740  0.6705
  737MOL0     C97177   0.295   0.727   5.904  0.2381  0.4468  0.4189
  737MOL0     C97178   0.217   0.795   5.806  1.4955 -0.4243 -0.7160
  737MOL0     C97179   0.093   0.849   5.836 -0.0077 -1.1067  0.2799
  737MOL0     C97180   0.039   0.836   5.965 -0.4125 -0.3703  0.3800
  737MOL0     C97181  -0.093   0.885   6.001  0.5461 -0.6689  0.4397
  737MOL0     O97182  -0.162   0.819   6.096  0.0259 -0.3976  0.0268
  737MOL0     C97183  -0.273   0.884   6.145 -0.3518  0.5550  0.4434
  737MOL0     C97184  -0.395   0.883   6.079  0.1271 -0.5496  1.1640
  737MOL0     C97185  -0.515   0.893   6.141 -0.9215 -0.5084  0.8887
  737MOL0     C97186  -0.515   0.925   6.274  0.5141  0.2553  0.1542
  737MOL0     O97187  -0.641   0.927   6.337 -1.0544 -0.1718 -0.7048
  737MOL0     C97188  -0.669   0.837   6.438  0.8819  0.4827  0.1465
  737MOL0     C97189  -0.678   0.907   6.563  0.3918  0.5110  1.0243
  737MOL0     C97190  -0.811   0.890   6.646 -0.5461  0.2785 -0.0815
  737MOL0     C97191  -0.830   0.757   6.717  0.1436  0.2469  0.2406
  737MOL0     C97192  -0.983   0.752   6.757  0.2153 -0.0593 -0.8918
  737MOL0     C97193  -1.027   0.632   6.849  0.4677 -0.4644  0.5876
  737MOL0     C97194  -0.976   0.492   6.807  0.2089  0.5906 -0.0555
  737MOL0     C97195  -1.036   0.449   6.666 -0.0371 -1.2851  0.0920
  737MOL0    Cl97196  -0.936   0.317   6.611  0.1560 -0.0545  0.4999
  737MOL0     C97197  -0.397   0.934   6.347  0.1177  0.2317 -0.9972
  737MOL0     C97198  -0.276   0.902   6.282 -0.1160  0.0862 -0.4648
  737MOL0     O97199  -0.126   0.994   5.948 -0.2456 -0.0008 -0.1915
  737MOL0     C97200   0.116   0.770   6.063 -0.0304  0.2552 -0.0022
  737MOL0     C97201   0.239   0.701   6.028  0.3477 -0.7564  0.2929
  737MOL0     N97202   0.909   0.857   5.468  0.3994 -0.2009 -0.3178
  737MOL0     N97203   1.018   0.910   5.418  0.4184 -0.7573  0.5091
  737MOL0     C97204   2.213   1.210   5.755  0.0269 -0.4364 -0.6972
  737MOL0     C97205   2.349   1.193   5.782 -0.3017  0.5049 -0.5675
  737MOL0     C97206   2.790   1.358   5.865 -0.0024 -0.6249 -0.2342
  737MOL0     C97207   2.879   1.461   5.914 -0.2010 -0.3501  0.5782
  737MOL0     C97208   3.007   1.428   5.938  0.0187 -0.8250  0.3243
  737MOL0     C97209   3.064   1.297   5.917 -0.8330 -0.5119  0.7999
  737MOL0     O97210   3.204   1.286   5.942  0.3889  1.1780  0.6290
  737MOL0     C97211   3.260   1.155   5.898  0.2900 -0.7987 -0.0321
  737MOL0     C97212   3.414   1.151   5.919  0.6058  0.3038  0.1987
  737MOL0     C97213   3.474   1.253   5.823 -0.0718  0.4982 -0.6631
  737MOL0     C97214   3.614   1.289   5.874 -0.6316  0.0083 -0.3690
  737MOL0     C97215   3.657   1.388   5.769 -0.2886  0.0092 -0.0157
  737MOL0     C97216   3.683   1.467   5.682 -0.1291 -0.1081 -0.0365
  737MOL0     C97217   2.974   1.203   5.870  0.1727 -0.4250 -0.2459
  737MOL0     C97218   2.841   1.229   5.839  0.4062  0.7784 -1.3866
  737MOL0     H97219   2.457   1.509   5.697  0.2481 -0.5279 -1.3330
  737MOL0     H97220   2.214   1.527   5.620 -1.9263 -1.0955  0.2094
  737MOL0     H97221   2.105   1.256   5.453  1.6060 -5.5800  1.7235
  737MOL0     H97222   1.955   1.344   5.466  0.4087  1.4750  1.0636
  737MOL0     H97223   1.990   1.063   5.583  0.5286  0.0312  1.7934
  737MOL0     H97224   1.953   1.094   5.411  0.4352  3.5711 -1.2880
  737MOL0     H97225   1.761   1.239   5.486 -2.4988 -0.9698 -0.5696
  737MOL0     H97226   1.806   1.168   5.649 -1.3105 -0.9257 -0.7708
  737MOL0     H97227   1.714   1.030   5.398  1.2085  0.7072  0.5015
  737MOL0     H97228   1.757   0.932   5.540  0.4125  0.3186  0.3503
  737MOL0     H97229   1.524   1.130   5.529 -1.0842  0.1851 -0.0459
  737MOL0     H97230   1.566   1.029   5.667 -0.2824  0.5867  0.0573
  737MOL0     H97231   1.518   0.821   5.535 -4.3688 -1.9356  1.6493
  737MOL0     H97232   1.497   0.942   5.394 -3.4075 -0.1362 -0.5772
  737MOL0     H97233   1.330   0.898   5.641  0.1592 -0.8952  0.7197
  737MOL0     H97234   1.295   1.027   5.513 -1.4627 -1.0537 -5.0296
  737MOL0     H97235   1.297   0.738   5.475  0.9817 -0.2088  0.6143
  737MOL0     H97236   1.277   0.851   5.345  1.4306  0.9675  0.0510
  737MOL0     H97237   1.122   0.689   5.653  3.4391  4.4502  1.4451
  737MOL0     H97238   0.877   0.731   5.756 -0.3581  0.5280 -0.9923
  737MOL0     H97239   0.853   0.583   5.654  0.2518 -0.9969  3.2610
  737MOL0     H97240   0.656   0.724   5.550  0.3775 -0.6657  0.3293
  737MOL0     H97241   0.686   0.835   5.676  1.7513  0.9118 -1.5882
  737MOL0     H97242   0.613   0.537   5.729 -2.6914 -0.8876  0.8339
  737MOL0     H97243   0.672   0.660   5.845  3.5172 -0.7120 -2.7533
  737MOL0     H97244   0.413   0.643   5.677  1.8550 -1.8373 -1.0986
  737MOL0     H97245   0.470   0.803   5.722  5.3775  0.5668  1.1514
  737MOL0     H97246   0.246   0.797   5.702  3.0637 -0.2543 -0.3040
  737MOL0     H97247   0.039   0.906   5.760 -2.4804 -0.2011  2.5327
  737MOL0     H97248  -0.389   0.876   5.971 -1.8064  2.3879  0.7414
  737MOL0     H97249  -0.603   0.875   6.081 -1.5172 -0.0212  1.5951
  737MOL0     H97250  -0.598   0.754   6.444  1.0593  0.3162 -2.8019
  737MOL0     H97251  -0.767   0.789   6.425  1.3520 -0.8461  1.2802
  737MOL0     H97252  -0.674   1.014   6.544  1.5609  1.3671  5.0575
  737MOL0     H97253  -0.595   0.879   6.630  0.6956  0.8488  0.7940
  737MOL0     H97254  -0.899   0.895   6.581 -0.9039 -0.2983  0.3493
  737MOL0     H97255  -0.812   0.965   6.725  3.8605 -0.9844  1.4957
  737MOL0     H97256  -0.795   0.668   6.663  2.2736  0.0252  1.8656
  737MOL0     H97257  -0.777   0.757   6.812  3.8703  3.1059 -1.5455
  737MOL0     H97258  -1.051   0.758   6.671  0.1304  2.1565 -0.7229
  737MOL0     H97259  -1.008   0.843   6.813  0.3940  0.9840 -2.4522
  737MOL0     H97260  -1.136   0.624   6.852  0.5991 -5.9924  1.3313
  737MOL0     H97261  -0.989   0.660   6.948 -1.8898 -0.8549  1.6671
  737MOL0     H97262  -0.867   0.491   6.805  0.2948 -2.6304 -2.0111
  737MOL0     H97263  -1.002   0.422   6.887  2.0537 -0.0965 -0.0051
  737MOL0     H97264  -1.031   0.531   6.594 -1.7402 -0.7164  0.5684
  737MOL0     H97265  -1.140   0.421   6.684 -0.1009 -1.4500 -0.5238
  737MOL0     H97266  -0.391   0.949   6.455  1.4794  1.1295 -1.1699
  737MOL0     H97267  -0.197   0.873   6.350 -0.2059 -2.0577 -1.2169
  737MOL0     H97268   0.079   0.756   6.165 -1.8509 -0.7617 -0.7538
  737MOL0     H97269   0.284   0.638   6.104  0.2476  3.5662  4.4166
  737MOL0     H97270   2.152   1.123   5.777 -1.2340  0.6293  0.1554
  737MOL0     H97271   2.386   1.098   5.819  1.9008  1.1970 -0.8637
  737MOL0     H97272   2.861   1.565   5.937  1.9347 -0.4113  2.9252
  737MOL0     H97273   3.086   1.493   5.972 -2.5681  2.8772 -0.0535
  737MOL0     H97274   3.238   1.144   5.792  2.8340 -3.2898 -0.3944
  737MOL0     H97275   3.212   1.079   5.960  0.8575 -0.8402  0.3636
  737MOL0     H97276   3.449   1.179   6.019  0.4525 -0.1435  0.3778
  737MOL0     H97277   3.455   1.052   5.898 -2.7867 -1.3147  0.5877
  737MOL0     H97278   3.396   1.330   5.820 -2.0732 -1.3124  1.1315
  737MOL0     H97279   3.478   1.207   5.723  4.1784  2.4254 -1.6339
  737MOL0     H97280   3.610   1.333   5.974  1.1963 -0.5772  0.0035
  737MOL0     H97281   3.673   1.197   5.883 -2.1409 -1.2568 -2.4253
  737MOL0     H97282   3.696   1.541   5.605 -3.4550  1.7711  0.9739
  737MOL0     H97283   3.016   1.103   5.872 -0.9872 -0.9684 -1.4242
  737MOL0     H97284   2.773   1.156   5.797 -2.3791  1.9662  0.7031
  738MOL0     O97285   5.649   8.359  10.689 -0.0141 -0.2139  0.1870
  738MOL0     C97286   5.738   8.425  10.753  0.6987 -0.5293  0.3347
  738MOL0     O97287   5.724   8.528  10.844 -0.0800  0.2889  0.1857
  738MOL0     C97288   5.605   8.600  10.835 -0.1826 -0.0438 -0.1701
  738MOL0     C97289   5.542   8.641  10.949 -0.3562  0.3160 -0.3106
  738MOL0     C97290   5.422   8.715  10.939  0.2082 -0.9670 -0.6604
  738MOL0     C97291   5.350   8.740  10.824 -0.0469  0.2289  0.4747
  738MOL0     O97292   5.221   8.798  10.831 -1.0226 -0.2337  0.2802
  738MOL0     C97293   5.123   8.762  10.737  0.3043 -0.3191  0.1518
  738MOL0     C97294   5.015   8.875  10.736  0.2817  0.3590  0.3097
  738MOL0     C97295   4.883   8.828  10.674  0.1510  0.2529 -0.2933
  738MOL0     C97296   4.779   8.923  10.711  1.5898  0.1416 -0.3671
  738MOL0     C97297   4.648   8.912  10.636  0.3608  0.7214  0.2713
  738MOL0     C97298   4.593   8.766  10.623  0.6524  0.1314 -0.2145
  738MOL0     C97299   4.449   8.779  10.571  0.2170 -0.5626 -0.4798
  738MOL0     C97300   4.389   8.642  10.542 -0.9829 -0.7333  0.0853
  738MOL0     N97301   4.409   8.621  10.405  0.5005 -0.0877  0.6284
  738MOL0     C97302   4.303   8.627  10.312  0.2004  0.4980  0.0792
  738MOL0     C97303   4.344   8.586  10.190  0.7378  0.6035 -0.3146
  738MOL0     C97304   4.279   8.556  10.054 -0.2497 -0.7616  0.1545
  738MOL0     C97305   4.305   8.424   9.998  0.3507  0.3076  0.1715
  738MOL0     C97306   4.230   8.397   9.864 -0.5581  0.2826 -0.3441
  738MOL0     C97307   4.076   8.383   9.877  1.1037 -0.7732  0.5872
  738MOL0     O97308   4.022   8.262   9.938  0.2181 -0.3917 -0.4510
  738MOL0     C97309   3.885   8.254   9.927  0.0236  0.0419  0.3022
  738MOL0     C97310   3.840   8.124   9.897  0.6220 -0.0653  0.8637
  738MOL0     C97311   3.711   8.103   9.850 -0.7352 -0.5084  0.2855
  738MOL0     C97312   3.625   8.203   9.832 -0.0141  0.0948 -0.8434
  738MOL0     C97313   3.495   8.169   9.793  0.4097  0.4738 -0.1195
  738MOL0     O97314   3.467   8.035   9.757  0.4179  0.3179  0.5836
  738MOL0     C97315   3.384   8.025   9.645 -1.2529  0.7042  0.3535
  738MOL0     C97316   3.284   7.923   9.648  0.4363  0.8662 -0.1240
  738MOL0     C97317   3.204   7.903   9.534  0.3748  0.2570  0.3370
  738MOL0     C97318   3.226   7.971   9.412  0.2355 -1.2261 -0.2340
  738MOL0     O97319   3.168   7.950   9.293  0.1187  0.6252 -0.7009
  738MOL0     C97320   3.088   7.830   9.259  0.5168 -0.9583  0.5287
  738MOL0     C97321   2.941   7.856   9.221  0.0512 -0.1551 -0.0911
  738MOL0     C97322   2.863   7.911   9.343 -0.4137  0.0350 -0.7305
  738MOL0     C97323   2.725   7.934   9.305  0.2691  0.3494 -1.0636
  738MOL0     C97324   2.660   8.014   9.417  0.8607 -0.1111 -0.4434
  738MOL0     C97325   2.500   7.996   9.415  0.3185 -0.9193 -0.3497
  738MOL0     C97326   2.425   8.072   9.310 -0.4302 -0.3449  0.2976
  738MOL0     C97327   2.283   8.110   9.355 -0.2322  0.1949 -0.1130
  738MOL0    Cl97328   2.286   8.202   9.504 -0.5802 -0.0084 -0.1700
  738MOL0     C97329   3.323   8.072   9.418 -0.4225 -0.6240  0.3296
  738MOL0     C97330   3.402   8.095   9.528 -0.1812 -0.6632 -0.4479
  738MOL0     O97331   3.408   8.257   9.806 -0.8974 -0.9374 -0.0291
  738MOL0     C97332   3.666   8.329   9.863  0.6595  0.0126  0.5086
  738MOL0     C97333   3.794   8.354   9.915  0.1467 -0.2814  0.7386
  738MOL0     N97334   4.475   8.549  10.211  0.7282 -0.4931 -1.0238
  738MOL0     N97335   4.511   8.567  10.337  0.2235 -0.2473  0.3201
  738MOL0     C97336   5.419   8.692  10.711  0.6662 -0.5722  0.0422
  738MOL0     C97337   5.549   8.636  10.710 -0.0131  0.2914  0.0311
  738MOL0     C97338   5.875   8.393  10.716 -0.4805 -0.0768 -0.0088
  738MOL0     C97339   5.982   8.470  10.763  0.0092 -0.4803 -0.0100
  738MOL0     C97340   6.119   8.444  10.721 -0.2452 -0.1459  0.2710
  738MOL0     C97341   6.148   8.331  10.644 -0.4821  0.0186 -0.2716
  738MOL0     O97342   6.278   8.281  10.625  0.0033  0.6412  0.1231
  738MOL0     C97343   6.387   8.372  10.643  0.9467 -0.5617 -0.4527
  738MOL0     C97344   6.511   8.314  10.569 -1.0692 -0.0368  0.3563
  738MOL0     C97345   6.621   8.413  10.545  0.4051 -0.2027  0.7709
  738MOL0     C97346   6.749   8.351  10.491  0.9440 -0.3919 -0.9864
  738MOL0     C97347   6.832   8.298  10.597  0.2784 -0.0082 -0.0901
  738MOL0     C97348   6.899   8.276  10.698 -0.3923 -0.5105  0.7607
  738MOL0     C97349   6.042   8.251  10.606  0.0700 -0.0130 -0.3955
  738MOL0     C97350   5.912   8.274  10.649 -0.0520 -0.1015  0.6819
  738MOL0     H97351   5.597   8.614  11.039  0.4981  3.2901  0.1643
  738MOL0     H97352   5.370   8.744  11.030 -2.1157 -0.0415 -2.1794
  738MOL0     H97353   5.071   8.675  10.778  1.7308 -1.2674  0.0209
  738MOL0     H97354   5.160   8.755  10.634  1.0641  0.7993  0.3321
  738MOL0     H97355   5.046   8.969  10.690 -1.8632  1.6994  1.4631
  738MOL0     H97356   4.995   8.908  10.838  0.6114  2.5904 -0.3051
  738MOL0     H97357   4.853   8.727  10.701 -1.3858  1.2647  2.2028
  738MOL0     H97358   4.899   8.829  10.566  2.5700 -2.7868 -0.0969
  738MOL0     H97359   4.755   8.896  10.814 -0.8254 -0.1978 -0.9730
  738MOL0     H97360   4.821   9.024  10.716 -0.8845  1.2375 -0.2931
  738MOL0     H97361   4.675   8.947  10.536  0.5514 -2.3504 -0.8384
  738MOL0     H97362   4.580   8.982  10.687  0.1726  0.7644 -0.0354
  738MOL0     H97363   4.596   8.728  10.725 -1.0563  2.4875  0.8265
  738MOL0     H97364   4.656   8.716  10.549  0.7071  1.1809 -0.9064
  738MOL0     H97365   4.390   8.832  10.646 -1.5757 -2.3401 -0.5282
  738MOL0     H97366   4.460   8.836  10.478  1.2276  1.9823  1.1048
  738MOL0     H97367   4.285   8.645  10.575 -0.2097  2.0294  2.7120
  738MOL0     H97368   4.451   8.578  10.605  0.2971 -0.0219 -0.4272
  738MOL0     H97369   4.204   8.653  10.347  0.0765  0.9650 -0.6115
  738MOL0     H97370   4.328   8.628   9.988  0.9964 -0.9660  0.8228
  738MOL0     H97371   4.175   8.587  10.052 -0.3111 -0.9769 -0.0369
  738MOL0     H97372   4.285   8.343  10.070 -1.3541 -0.1443 -0.7582
  738MOL0     H97373   4.412   8.409   9.982 -0.2197 -2.8641 -1.6664
  738MOL0     H97374   4.259   8.460   9.780 -1.2031 -2.2077 -2.5747
  738MOL0     H97375   4.269   8.300   9.832 -2.8144 -1.7352  2.4793
  738MOL0     H97376   4.031   8.397   9.778 -2.0658  1.4882  2.1767
  738MOL0     H97377   4.042   8.474   9.926  0.0076 -1.1415  0.5454
  738MOL0     H97378   3.913   8.043   9.903  1.9180  1.1525  2.5969
  738MOL0     H97379   3.680   8.003   9.823 -0.3218 -0.8390  1.0257
  738MOL0     H97380   3.259   7.849   9.724 -1.4937  0.4279 -1.1131
  738MOL0     H97381   3.142   7.814   9.539  2.5305 -1.3775 -0.1574
  738MOL0     H97382   3.090   7.756   9.340  2.0368  0.1294  1.5518
  738MOL0     H97383   3.138   7.794   9.169 -0.2841 -2.2126  0.5679
  738MOL0     H97384   2.905   7.760   9.184 -1.0778  1.0314 -2.2922
  738MOL0     H97385   2.934   7.929   9.140  1.7591 -0.5867 -0.6587
  738MOL0     H97386   2.909   8.000   9.388  0.8356 -0.7545 -0.3896
  738MOL0     H97387   2.869   7.838   9.424  1.2072 -0.8054 -1.5412
  738MOL0     H97388   2.721   7.990   9.211 -1.7083  0.8061 -0.7538
  738MOL0     H97389   2.685   7.834   9.290  0.2738  0.3277 -0.9294
  738MOL0     H97390   2.690   8.120   9.414 -0.5104  0.3580  1.0555
  738MOL0     H97391   2.695   7.966   9.508 -2.0726  2.2189  2.1637
  738MOL0     H97392   2.474   8.032   9.515 -0.2370 -1.1442 -0.4106
  738MOL0     H97393   2.474   7.890   9.422  0.0413 -0.8279  0.0172
  738MOL0     H97394   2.474   8.168   9.295 -0.3998 -0.5697 -1.1075
  738MOL0     H97395   2.426   8.021   9.213 -0.9279 -0.9288  0.5873
  738MOL0     H97396   2.216   8.024   9.348 -0.1944  0.2837 -2.3017
  738MOL0     H97397   2.249   8.179   9.277 -0.0686  0.0713 -0.2948
  738MOL0     H97398   3.325   8.119   9.320  0.8742 -0.5885  0.3523
  738MOL0     H97399   3.479   8.171   9.521 -1.3290  0.4987 -0.9693
  738MOL0     H97400   3.606   8.416   9.838  2.4858  0.6391 -2.0538
  738MOL0     H97401   3.815   8.455   9.950  1.8393 -0.1987 -0.3933
  738MOL0     H97402   5.377   8.710  10.612  0.4368 -2.0583 -0.1463
  738MOL0     H97403   5.619   8.624  10.628  1.5938  0.8413  1.2885
  738MOL0     H97404   5.960   8.557  10.822  0.1056 -0.2491 -0.3094
  738MOL0     H97405   6.186   8.510  10.776 -1.5413  0.0213  1.7082
  738MOL0     H97406   6.416   8.400  10.745 -2.0317 -1.5613  0.7624
  738MOL0     H97407   6.358   8.462  10.589 -2.5055 -0.6637  0.9795
  738MOL0     H97408   6.540   8.224  10.624  2.1434  1.3649  1.1939
  738MOL0     H97409   6.485   8.268  10.473  1.6206 -2.6868  0.7729
  738MOL0     H97410   6.644   8.472  10.634 -0.4951 -1.2226  1.7045
  738MOL0     H97411   6.593   8.485  10.467 -2.0188  0.0308  1.7732
  738MOL0     H97412   6.742   8.277  10.410  1.2080  0.7577 -2.0945
  738MOL0     H97413   6.813   8.433  10.459  1.4162  1.5644  4.1623
  738MOL0     H97414   6.958   8.245  10.781  1.0547 -1.1936 -0.4680
  738MOL0     H97415   6.063   8.163  10.546 -2.3393  0.2349 -1.7487
  738MOL0     H97416   5.837   8.204  10.615  1.8802 -2.4820  1.0598
  739MOL0     O97417   5.735   0.001   3.297  0.2534  0.3325 -0.5043
  739MOL0     C97418   5.793  -0.071   3.371 -0.2368 -0.3236 -1.1354
  739MOL0     O97419   5.735  -0.162   3.459  0.0542  0.3497 -0.5930
  739MOL0     C97420   5.605  -0.203   3.430 -1.1383 -0.3651 -0.3588
  739MOL0     C97421   5.595  -0.332   3.376  0.2183  0.4006  0.3035
  739MOL0     C97422   5.469  -0.388   3.328 -0.0631  0.5348 -0.1253
  739MOL0     C97423   5.360  -0.301   3.318 -0.3122 -0.4158  0.4970
  739MOL0     O97424   5.251  -0.349   3.258  0.9738 -0.1953 -0.8056
  739MOL0     C97425   5.121  -0.286   3.259  0.2933  0.3007  0.7685
  739MOL0     C97426   5.026  -0.388   3.325 -0.5086 -0.7085 -0.3652
  739MOL0     C97427   5.059  -0.429   3.468 -0.3509 -0.4694  0.6510
  739MOL0     C97428   4.978  -0.553   3.508  1.2500 -0.1142 -0.7953
  739MOL0     C97429   4.972  -0.594   3.654  0.0551  0.1364  0.2027
  739MOL0     C97430   4.867  -0.698   3.698  0.7726 -0.3691 -0.5548
  739MOL0     C97431   4.928  -0.767   3.818  0.7818 -0.7677 -0.1430
  739MOL0     C97432   4.845  -0.878   3.884  0.7165  0.3955  0.5986
  739MOL0     N97433   4.840  -0.987   3.791 -0.2272 -0.2665 -0.0571
  739MOL0     C97434   4.945  -1.070   3.761  0.2299  0.7412  0.1523
  739MOL0     C97435   4.883  -1.162   3.687  0.0268  0.0014  1.6393
  739MOL0     C97436   4.964  -1.268   3.620  1.0370 -0.6030  0.0540
  739MOL0     C97437   4.917  -1.402   3.656  0.8901  0.9591  0.2067
  739MOL0     C97438   5.024  -1.498   3.591  0.1191  0.0899 -0.7863
  739MOL0     C97439   5.140  -1.546   3.686 -0.5175  0.2651 -0.5966
  739MOL0     O97440   5.227  -1.652   3.620 -0.3156 -0.5433 -0.6291
  739MOL0     C97441   5.365  -1.664   3.642 -0.3167 -0.2719  0.6515
  739MOL0     C97442   5.429  -1.773   3.583  0.4907  0.9579 -0.2907
  739MOL0     C97443   5.569  -1.806   3.598 -0.6678 -0.3503 -0.5600
  739MOL0     C97444   5.649  -1.718   3.674 -0.2277 -0.6720  0.1532
  739MOL0     C97445   5.796  -1.749   3.688  0.4987 -0.6994  0.3378
  739MOL0     O97446   5.847  -1.662   3.779  0.2218  0.8117 -0.5372
  739MOL0     C97447   5.987  -1.649   3.804 -0.1522  0.5141 -0.1635
  739MOL0     C97448   6.061  -1.729   3.892  0.6024  0.4160 -0.4099
  739MOL0     C97449   6.193  -1.696   3.918 -0.0748 -0.3354 -0.9011
  739MOL0     C97450   6.257  -1.602   3.845  0.4327 -0.3706 -0.0666
  739MOL0     O97451   6.389  -1.578   3.892  0.3941  0.3280  0.5530
  739MOL0     C97452   6.457  -1.460   3.845 -1.0457 -0.1044  0.0767
  739MOL0     C97453   6.600  -1.443   3.907 -0.1832 -0.0038 -0.7156
  739MOL0     C97454   6.691  -1.565   3.873  0.0758  0.5567 -0.1936
  739MOL0     C97455   6.838  -1.522   3.869  0.6959 -0.0598 -0.7463
  739MOL0     C97456   6.901  -1.458   4.004 -1.2936 -0.5378 -0.2910
  739MOL0     C97457   7.045  -1.412   3.969  0.7415 -0.6529 -0.0154
  739MOL0     C97458   7.114  -1.359   4.096 -0.2948 -0.5971  0.7751
  739MOL0     C97459   7.234  -1.269   4.063 -0.0947 -0.3637 -0.9336
  739MOL0    Cl97460   7.389  -1.359   4.024  0.1450  0.3810 -0.4600
  739MOL0     C97461   6.190  -1.530   3.746 -0.1619 -0.0253  0.2566
  739MOL0     C97462   6.054  -1.550   3.729 -0.6157 -0.1415  0.7800
  739MOL0     O97463   5.849  -1.851   3.633  0.0966  0.0026 -0.1266
  739MOL0     C97464   5.587  -1.610   3.734  0.2578  0.3479 -0.3555
  739MOL0     C97465   5.450  -1.574   3.710  0.3730  0.5123 -0.8635
  739MOL0     N97466   4.753  -1.129   3.656 -0.2324  0.0049 -0.2702
  739MOL0     N97467   4.728  -1.025   3.729  0.1762 -0.1888  0.8321
  739MOL0     C97468   5.370  -0.174   3.363 -0.0330  0.7848  0.1117
  739MOL0     C97469   5.494  -0.129   3.413  0.7067  0.5394 -0.8494
  739MOL0     C97470   5.934  -0.093   3.359  0.4146  0.8201  0.0449
  739MOL0     C97471   6.005  -0.214   3.401 -0.0110 -0.4160  0.5964
  739MOL0     C97472   6.138  -0.221   3.393 -0.4054 -0.7857  0.7713
  739MOL0     C97473   6.214  -0.115   3.338  0.2811 -0.4482  0.7095
  739MOL0     O97474   6.351  -0.127   3.322  0.2274 -0.7592  0.0990
  739MOL0     C97475   6.421  -0.168   3.442 -0.8485 -0.0854 -0.3435
  739MOL0     C97476   6.572  -0.169   3.423 -0.0363 -0.2385  0.5549
  739MOL0     C97477   6.642  -0.267   3.512  0.1536 -0.0308  0.5760
  739MOL0     C97478   6.792  -0.253   3.534 -0.0558 -0.2117  0.1175
  739MOL0     C97479   6.878  -0.275   3.417 -0.7305  0.4803  0.5225
  739MOL0     C97480   6.944  -0.311   3.321 -0.6078 -0.1285 -0.0124
  739MOL0     C97481   6.147  -0.002   3.289  0.5475 -0.2683  0.0240
  739MOL0     C97482   6.012   0.007   3.304 -0.7830 -0.5488 -0.1746
  739MOL0     H97483   5.687  -0.389   3.380 -0.0518 -0.3608 -2.4199
  739MOL0     H97484   5.456  -0.487   3.284 -1.3287 -0.2293  1.8299
  739MOL0     H97485   5.100  -0.266   3.154  3.6147 -3.0893 -0.7584
  739MOL0     H97486   5.102  -0.195   3.316 -3.1408 -0.5924  1.2681
  739MOL0     H97487   5.028  -0.484   3.273  0.4159 -0.1672 -1.3788
  739MOL0     H97488   4.928  -0.340   3.320  0.3290  1.0500 -0.9214
  739MOL0     H97489   5.040  -0.348   3.538 -0.9708 -1.5635  1.7855
  739MOL0     H97490   5.166  -0.449   3.475  0.0613  0.1928 -2.3799
  739MOL0     H97491   4.879  -0.526   3.472  0.7774 -2.3524 -1.2971
  739MOL0     H97492   5.011  -0.642   3.454  0.6817 -1.6108  1.2230
  739MOL0     H97493   4.955  -0.502   3.710 -0.5447  1.2714 -1.7612
  739MOL0     H97494   5.071  -0.624   3.688 -0.1426  1.1569  1.7759
  739MOL0     H97495   4.850  -0.774   3.621 -1.2658  0.3049 -0.8457
  739MOL0     H97496   4.764  -0.665   3.717 -0.1910 -4.1899  2.1058
  739MOL0     H97497   5.027  -0.798   3.784  0.7188 -2.4306  1.0888
  739MOL0     H97498   4.935  -0.696   3.901  2.6122 -0.7076 -0.3142
  739MOL0     H97499   4.743  -0.839   3.888 -0.9209 -3.0346 -2.3817
  739MOL0     H97500   4.890  -0.901   3.981  2.7671 -0.0244 -0.3923
  739MOL0     H97501   5.048  -1.067   3.793  0.6157  0.7190 -1.0304
  739MOL0     H97502   5.060  -1.257   3.672  1.3385  1.4220 -0.8694
  739MOL0     H97503   4.967  -1.243   3.514  0.9375 -1.9655 -0.2911
  739MOL0     H97504   4.815  -1.411   3.617  1.4442  1.3554 -1.4209
  739MOL0     H97505   4.903  -1.411   3.765 -2.6162 -0.2862 -0.2179
  739MOL0     H97506   4.977  -1.590   3.555  1.1542 -0.9352  0.4064
  739MOL0     H97507   5.058  -1.446   3.500 -0.4140  1.9465  0.0208
  739MOL0     H97508   5.099  -1.592   3.777 -2.0905 -1.6267 -2.1774
  739MOL0     H97509   5.203  -1.463   3.720 -0.8602 -0.9264  3.5172
  739MOL0     H97510   5.376  -1.855   3.536  0.0278  1.2022 -0.1947
  739MOL0     H97511   5.603  -1.900   3.557  2.5006  0.4830 -0.1234
  739MOL0     H97512   6.017  -1.815   3.941  0.5708 -0.0082 -1.1701
  739MOL0     H97513   6.241  -1.747   4.001 -2.2831  0.7911  1.1924
  739MOL0     H97514   6.387  -1.381   3.874 -1.6852 -0.4385 -0.5175
  739MOL0     H97515   6.469  -1.464   3.737 -0.4782  0.6082  0.1099
  739MOL0     H97516   6.602  -1.423   4.014  0.5390  0.7397 -0.8613
  739MOL0     H97517   6.640  -1.347   3.873  0.8396 -0.6840 -1.5069
  739MOL0     H97518   6.677  -1.581   3.766  0.1086  1.4678 -0.3406
  739MOL0     H97519   6.668  -1.653   3.933 -0.0049 -0.9527 -2.3319
  739MOL0     H97520   6.901  -1.602   3.827  0.2649 -0.7822 -0.0371
  739MOL0     H97521   6.842  -1.442   3.795  3.1610 -0.2218 -0.8825
  739MOL0     H97522   6.909  -1.530   4.086 -0.7953  0.1824  0.2949
  739MOL0     H97523   6.840  -1.373   4.037 -1.0949 -0.8764  0.9958
  739MOL0     H97524   7.039  -1.338   3.889 -1.5403  0.7882  1.3943
  739MOL0     H97525   7.091  -1.503   3.929  0.6050 -1.4741  1.6522
  739MOL0     H97526   7.047  -1.293   4.151 -2.4071  2.1544 -4.3563
  739MOL0     H97527   7.133  -1.442   4.164  0.6512 -2.1005 -1.1946
  739MOL0     H97528   7.253  -1.216   4.157  2.2217 -1.3509 -0.7624
  739MOL0     H97529   7.221  -1.204   3.976  5.6603 -1.1557 -2.8324
  739MOL0     H97530   6.241  -1.465   3.676  1.9809 -1.6071  0.2754
  739MOL0     H97531   5.997  -1.493   3.656  3.4872  0.9682 -1.8980
  739MOL0     H97532   5.646  -1.535   3.786 -0.6069 -0.4148  1.8387
  739MOL0     H97533   5.406  -1.486   3.754 -1.2210  0.3402 -2.0185
  739MOL0     H97534   5.290  -0.101   3.356 -1.0598 -0.1624  1.5461
  739MOL0     H97535   5.493  -0.031   3.459 -0.8728  1.1760 -2.1534
  739MOL0     H97536   5.942  -0.293   3.439 -1.4871  0.2794 -0.3228
  739MOL0     H97537   6.182  -0.311   3.435  3.9206  0.5813 -0.2950
  739MOL0     H97538   6.392  -0.270   3.465  1.9406 -1.6927 -3.1268
  739MOL0     H97539   6.395  -0.100   3.524  1.0305  0.2601  0.0182
  739MOL0     H97540   6.590  -0.201   3.320 -0.8810  2.7513 -0.6240
  739MOL0     H97541   6.616  -0.068   3.428  3.1020 -1.3473 -1.3986
  739MOL0     H97542   6.623  -0.363   3.464 -2.4401  0.2019  0.9949
  739MOL0     H97543   6.582  -0.267   3.604 -0.2113 -1.4923  0.3576
  739MOL0     H97544   6.813  -0.152   3.571 -2.6969  1.0139 -1.4441
  739MOL0     H97545   6.816  -0.319   3.618 -0.2752  0.2410  0.5410
  739MOL0     H97546   7.002  -0.322   3.231  0.0096  2.0535  0.0616
  739MOL0     H97547   6.204   0.069   3.231 -2.5088  0.6056 -2.1427
  739MOL0     H97548   5.969   0.100   3.267 -1.5835 -1.8074 -2.5747
  740MOL0     O97549   9.695   8.748   4.658  0.7758 -0.4834  0.4599
  740MOL0     C97550   9.779   8.720   4.740 -0.2043  1.3832 -0.7477
  740MOL0     O97551   9.786   8.606   4.819  0.1466  0.8169  0.4050
  740MOL0     C97552   9.699   8.508   4.794 -0.2740 -0.4398  0.6829
  740MOL0     C97553   9.602   8.468   4.886 -0.6959 -0.7677  0.4482
  740MOL0     C97554   9.513   8.372   4.849 -0.6900 -0.3654  0.5339
  740MOL0     C97555   9.511   8.317   4.720 -0.2963 -0.0567  0.4483
  740MOL0     O97556   9.422   8.227   4.671  0.1819  0.0907 -0.0960
  740MOL0     C97557   9.290   8.216   4.742  0.8349  0.3472  0.6916
  740MOL0     C97558   9.208   8.120   4.663 -0.4784  0.3779  0.3578
  740MOL0     C97559   9.062   8.104   4.720 -0.1193 -1.3193 -0.0678
  740MOL0     C97560   8.971   8.038   4.623 -0.1888  0.7246 -0.2414
  740MOL0     C97561   8.827   8.039   4.683  0.0123  0.1114  0.0302
  740MOL0     C97562   8.814   7.950   4.812  0.1729 -0.4563 -0.3568
  740MOL0     C97563   8.675   7.947   4.868  0.6023 -0.3983  0.1880
  740MOL0     C97564   8.575   7.834   4.825 -0.7638 -0.8132 -0.7075
  740MOL0     N97565   8.441   7.868   4.868  0.2927  0.4808  0.4838
  740MOL0     C97566   8.361   7.808   4.959  1.4262  0.6326  0.2568
  740MOL0     C97567   8.253   7.888   4.980 -0.4482  0.5131 -0.2151
  740MOL0     C97568   8.137   7.843   5.079  0.0945 -1.3552  0.5606
  740MOL0     C97569   8.007   7.910   5.047  0.7676  0.7985 -0.6291
  740MOL0     C97570   7.907   7.887   5.162 -0.2676 -0.3252 -0.2371
  740MOL0     C97571   7.858   7.741   5.164 -0.6814 -0.6062 -0.1702
  740MOL0     O97572   7.794   7.713   5.046  0.6967  0.1325 -0.4243
  740MOL0     C97573   7.685   7.624   5.051  0.1938 -0.6427  0.9352
  740MOL0     C97574   7.585   7.635   4.956 -0.6239  0.3637 -0.3648
  740MOL0     C97575   7.476   7.548   4.950 -0.2453 -0.0608 -0.3610
  740MOL0     C97576   7.465   7.448   5.044  0.2586  0.5407  0.2485
  740MOL0     C97577   7.340   7.368   5.050  0.1164 -0.7723  0.6202
  740MOL0     O97578   7.233   7.412   4.972  0.0048 -0.3335 -0.1871
  740MOL0     C97579   7.117   7.354   4.991  1.4073  0.2139  0.6446
  740MOL0     C97580   7.088   7.218   5.024 -0.6849 -0.0813  0.3105
  740MOL0     C97581   6.957   7.175   5.058  0.2072 -0.5655 -0.6109
  740MOL0     C97582   6.849   7.260   5.062  0.2894 -0.9128  0.5841
  740MOL0     O97583   6.721   7.228   5.082  0.4475  0.0772  0.0207
  740MOL0     C97584   6.680   7.139   5.186 -0.5314  0.2377  0.4230
  740MOL0     C97585   6.645   7.003   5.120  0.4202 -1.0056  0.2066
  740MOL0     C97586   6.542   6.925   5.204 -0.3285 -0.0834  1.0389
  740MOL0     C97587   6.396   6.969   5.180  0.0830 -1.6087 -0.3694
  740MOL0     C97588   6.298   6.881   5.248  0.6014 -0.1532 -1.1873
  740MOL0     C97589   6.157   6.948   5.286 -0.6761 -0.0865 -0.0009
  740MOL0     C97590   6.046   6.905   5.199  0.7528  0.3046  0.5520
  740MOL0     C97591   5.910   6.971   5.240 -0.2323 -1.1141  0.4281
  740MOL0    Cl97592   5.799   6.928   5.089  0.0742 -0.0303 -0.0734
  740MOL0     C97593   6.874   7.387   5.019 -0.0576 -1.0645  0.5236
  740MOL0     C97594   7.007   7.434   4.986 -0.1523 -0.8910 -0.2139
  740MOL0     O97595   7.326   7.285   5.138 -0.0848 -0.3159 -0.1677
  740MOL0     C97596   7.570   7.425   5.143  0.6131  0.5878  0.0781
  740MOL0     C97597   7.671   7.521   5.149 -0.4420 -0.3250 -0.3247
  740MOL0     N97598   8.270   8.000   4.903  0.3368 -0.5650  0.9518
  740MOL0     N97599   8.382   7.982   4.836 -0.0192  0.6029 -0.2570
  740MOL0     C97600   9.612   8.356   4.628 -0.1172 -0.9478  1.1590
  740MOL0     C97601   9.708   8.446   4.665 -0.4666 -0.3581 -0.2160
  740MOL0     C97602   9.888   8.818   4.764  0.6103 -0.9103  0.2063
  740MOL0     C97603   9.957   8.825   4.889  0.3223 -0.8161 -0.0061
  740MOL0     C97604  10.071   8.909   4.896 -0.4743  0.5439  0.1840
  740MOL0     C97605  10.104   8.999   4.790 -0.4137 -1.0290 -0.0862
  740MOL0     O97606  10.199   9.098   4.802  0.1719 -0.5469  0.6564
  740MOL0     C97607  10.321   9.058   4.850  0.2857 -0.3288 -0.6383
  740MOL0     C97608  10.436   9.144   4.795  0.0781  0.3888 -0.1426
  740MOL0     C97609  10.491   9.100   4.668 -0.2283  0.5287  1.1579
  740MOL0     C97610  10.384   9.078   4.565  0.4181 -0.0507 -0.4786
  740MOL0     C97611  10.312   9.197   4.524  0.3185  0.0112 -0.1628
  740MOL0     C97612  10.254   9.295   4.483  0.2375  0.4683 -0.2468
  740MOL0     C97613  10.036   8.985   4.671  0.4775  0.1466 -0.4417
  740MOL0     C97614   9.928   8.894   4.655  0.5351  0.8158  0.3928
  740MOL0     H97615   9.598   8.523   4.980 -3.3343 -2.5150  1.5028
  740MOL0     H97616   9.432   8.351   4.919 -0.3367  5.4994  3.3528
  740MOL0     H97617   9.241   8.313   4.746  0.4446  0.1606  0.4561
  740MOL0     H97618   9.302   8.178   4.844  2.1644  0.1241  0.4679
  740MOL0     H97619   9.257   8.024   4.652 -2.3294 -0.6467  0.6241
  740MOL0     H97620   9.204   8.152   4.558 -1.5568 -0.7033  0.0470
  740MOL0     H97621   9.022   8.204   4.739  1.1766 -0.4470 -1.6439
  740MOL0     H97622   9.062   8.056   4.818  1.2897  1.0652  1.2214
  740MOL0     H97623   8.969   8.089   4.527 -4.2089  3.2858  0.9744
  740MOL0     H97624   8.999   7.934   4.602  0.6571  1.2956 -2.1253
  740MOL0     H97625   8.753   8.009   4.607 -1.9158  1.3742  1.3062
  740MOL0     H97626   8.796   8.141   4.709 -2.2340  0.0642 -2.0596
  740MOL0     H97627   8.880   7.987   4.892 -0.2978 -0.0944 -0.1289
  740MOL0     H97628   8.838   7.845   4.797  2.2548 -0.1898  0.7027
  740MOL0     H97629   8.681   7.932   4.976  1.6047 -2.3006 -0.0824
  740MOL0     H97630   8.631   8.047   4.861 -1.5587 -1.2403  1.0133
  740MOL0     H97631   8.600   7.737   4.870 -0.4866  0.2868  1.6078
  740MOL0     H97632   8.576   7.832   4.715 -1.4583  1.5473 -0.7924
  740MOL0     H97633   8.376   7.710   5.003 -1.0769  0.1689  0.2131
  740MOL0     H97634   8.165   7.870   5.181  1.5040 -0.6573  0.0037
  740MOL0     H97635   8.132   7.734   5.065 -0.9503 -1.1469 -0.9790
  740MOL0     H97636   7.966   7.874   4.952  1.7415  1.7991 -1.4456
  740MOL0     H97637   8.031   8.015   5.028  1.3537  0.4833 -1.6773
  740MOL0     H97638   7.957   7.905   5.257  1.7384  1.5127 -1.5352
  740MOL0     H97639   7.822   7.950   5.135 -0.0755  0.0415  0.0091
  740MOL0     H97640   7.790   7.724   5.248 -2.7629  2.4858 -1.0705
  740MOL0     H97641   7.949   7.683   5.182 -0.8462 -1.0923 -0.8622
  740MOL0     H97642   7.585   7.701   4.869  0.5341 -3.3105 -3.4246
  740MOL0     H97643   7.404   7.570   4.872 -2.8443  0.3348  2.0138
  740MOL0     H97644   7.159   7.136   5.021 -0.1031  0.4292 -1.0867
  740MOL0     H97645   6.942   7.073   5.090  4.1742 -1.0101  0.4321
  740MOL0     H97646   6.591   7.185   5.230 -2.0910 -1.7447 -0.4807
  740MOL0     H97647   6.752   7.141   5.268 -2.3563  3.7853  2.2101
  740MOL0     H97648   6.739   6.957   5.090  0.3199 -0.9324 -0.2251
  740MOL0     H97649   6.594   7.022   5.025  1.7318 -0.7642 -0.4714
  740MOL0     H97650   6.560   6.926   5.311 -0.1468 -1.3022  1.0266
  740MOL0     H97651   6.546   6.820   5.174  0.7820 -0.3834  2.1954
  740MOL0     H97652   6.375   7.073   5.206  0.8576 -1.3748 -0.6442
  740MOL0     H97653   6.374   6.980   5.074 -1.8013  1.4137  0.2209
  740MOL0     H97654   6.354   6.844   5.335  0.6594  0.3791 -0.9906
  740MOL0     H97655   6.288   6.783   5.201 -2.1640 -1.3534  1.5122
  740MOL0     H97656   6.172   7.056   5.282 -0.8763  0.0298  1.6813
  740MOL0     H97657   6.138   6.917   5.389  2.0953  0.2159  0.6705
  740MOL0     H97658   6.065   6.936   5.096  3.4523  0.8426  1.1371
  740MOL0     H97659   6.027   6.798   5.197  1.3768  0.0758 -4.0723
  740MOL0     H97660   5.929   7.079   5.243  0.7168 -1.1708 -1.5264
  740MOL0     H97661   5.873   6.929   5.334 -0.1691 -1.2933  0.3735
  740MOL0     H97662   6.788   7.452   5.008  1.1677  0.3503 -1.1506
  740MOL0     H97663   7.026   7.539   4.967  1.0662 -1.0358  0.1322
  740MOL0     H97664   7.565   7.340   5.210 -2.2301  2.7217  2.8955
  740MOL0     H97665   7.746   7.502   5.224 -0.6961 -3.6645 -0.7604
  740MOL0     H97666   9.611   8.324   4.525  3.5573  2.7900 -0.3346
  740MOL0     H97667   9.771   8.481   4.584  0.7186 -3.8138 -0.9720
  740MOL0     H97668   9.934   8.756   4.970 -0.5788 -0.6283 -0.0925
  740MOL0     H97669  10.130   8.896   4.986  0.2806 -1.5931 -0.5509
  740MOL0     H97670  10.354   8.955   4.838  1.9659 -0.1160  1.6477
  740MOL0     H97671  10.321   9.073   4.958 -0.5540  1.4194 -0.8428
  740MOL0     H97672  10.419   9.251   4.790 -0.0339  0.3129 -1.7528
  740MOL0     H97673  10.518   9.143   4.867 -1.8620  4.5184  2.5197
  740MOL0     H97674  10.550   9.008   4.669  0.1022  0.6706 -0.6279
  740MOL0     H97675  10.562   9.179   4.640 -2.1535  1.0863 -2.8564
  740MOL0     H97676  10.432   9.056   4.469 -1.9925 -1.7981 -1.4003
  740MOL0     H97677  10.309   9.002   4.591 -1.9886  1.0671 -3.4309
  740MOL0     H97678  10.206   9.387   4.454  0.3772 -0.1567 -2.7286
  740MOL0     H97679  10.062   9.045   4.585  1.3726 -1.0744 -1.0570
  740MOL0     H97680   9.878   8.889   4.559  0.1492 -0.7172  0.6510
  741MOL0     O97681   2.860   0.417  10.576 -0.4664 -0.5032  0.1025
  741MOL0     C97682   2.935   0.513  10.597 -0.5792 -0.1194 -0.5661
  741MOL0     O97683   2.902   0.625  10.660  0.4982 -0.0695 -0.3095
  741MOL0     C97684   2.770   0.644  10.702  0.4836 -0.7620 -1.0002
  741MOL0     C97685   2.681   0.710  10.626  0.7200 -0.5719 -0.3516
  741MOL0     C97686   2.544   0.724  10.662 -0.1897 -0.0778  0.0773
  741MOL0     C97687   2.493   0.651  10.775 -0.5135 -0.7202 -1.0393
  741MOL0     O97688   2.357   0.637  10.792 -0.2013 -0.5009  0.2828
  741MOL0     C97689   2.321   0.645  10.935  0.6300  1.1241  0.3392
  741MOL0     C97690   2.174   0.691  10.955 -0.5952  0.2495 -0.4405
  741MOL0     C97691   2.142   0.829  10.900  0.5299  0.4888 -0.6337
  741MOL0     C97692   2.006   0.874  10.950 -0.2905 -0.7277 -0.6305
  741MOL0     C97693   1.979   1.025  10.915  0.5642  0.1647  0.2716
  741MOL0     C97694   1.937   1.040  10.771 -0.1928 -0.2456 -0.1412
  741MOL0     C97695   1.930   1.187  10.725 -0.3167  0.5075 -0.4580
  741MOL0     C97696   1.812   1.260  10.796 -1.2426 -1.0531  0.4631
  741MOL0     N97697   1.685   1.207  10.750 -0.0949  0.1908  0.2407
  741MOL0     C97698   1.595   1.286  10.679 -0.2511  0.3337 -1.2367
  741MOL0     C97699   1.501   1.201  10.642  0.0930 -1.0226 -0.2277
  741MOL0     C97700   1.384   1.244  10.560 -0.4766  0.2081  0.0037
  741MOL0     C97701   1.250   1.212  10.632 -1.2788 -0.9230  0.4249
  741MOL0     C97702   1.152   1.298  10.564  0.2331  0.4232 -0.1348
  741MOL0     C97703   1.008   1.277  10.620 -0.8568 -0.5229  0.0865
  741MOL0     O97704   0.907   1.355  10.559 -0.6778 -0.2557  0.4258
  741MOL0     C97705   0.783   1.366  10.613 -0.3547 -0.1114  0.4230
  741MOL0     C97706   0.692   1.440  10.544  0.6226 -0.3898 -0.0512
  741MOL0     C97707   0.560   1.468  10.588  0.4728 -0.0894 -0.3770
  741MOL0     C97708   0.516   1.404  10.700 -0.2484  0.1334  0.1334
  741MOL0     C97709   0.378   1.416  10.737 -0.4587  0.3797 -0.3333
  741MOL0     O97710   0.335   1.349  10.851 -0.6002  0.2275 -0.2194
  741MOL0     C97711   0.213   1.380  10.905 -0.1642 -0.1653 -0.0472
  741MOL0     C97712   0.099   1.313  10.858  0.3875 -1.2753 -0.7171
  741MOL0     C97713  -0.023   1.344  10.921  0.2526  1.1462 -0.1421
  741MOL0     C97714  -0.024   1.428  11.030 -1.0689 -0.3734 -0.1449
  741MOL0     O97715  -0.133   1.473  11.099  0.5115  0.0598 -0.2818
  741MOL0     C97716  -0.254   1.394  11.104 -0.4295  0.3973 -0.1686
  741MOL0     C97717  -0.346   1.446  11.213  0.2306  0.1476  0.3530
  741MOL0     C97718  -0.497   1.417  11.182 -1.1007 -0.9120  0.3733
  741MOL0     C97719  -0.578   1.473  11.296 -0.5859  0.0704  0.5550
  741MOL0     C97720  -0.729   1.478  11.249  0.3444 -0.3579 -1.0143
  741MOL0     C97721  -0.830   1.528  11.354 -0.1723  0.3468  0.1238
  741MOL0     C97722  -0.854   1.429  11.471 -0.4547  0.1262 -0.4624
  741MOL0     C97723  -0.983   1.452  11.553 -1.3869  0.0530  0.5019
  741MOL0    Cl97724  -1.134   1.452  11.462  0.2661  0.1259 -0.4089
  741MOL0     C97725   0.088   1.492  11.070 -1.3424 -0.5429  0.6456
  741MOL0     C97726   0.210   1.459  11.009 -0.3066  0.0207 -0.1986
  741MOL0     O97727   0.310   1.496  10.680 -0.1881  0.1629 -0.3816
  741MOL0     C97728   0.608   1.323  10.772 -0.2069  0.0233 -0.2308
  741MOL0     C97729   0.737   1.303  10.731  0.7398 -0.9928  0.2895
  741MOL0     N97730   1.520   1.076  10.691 -1.1107  0.1595 -0.5562
  741MOL0     N97731   1.639   1.077  10.744  1.0358  0.2235 -0.2309
  741MOL0     C97732   2.586   0.583  10.860  0.2139 -0.6852 -1.1352
  741MOL0     C97733   2.725   0.585  10.821 -0.0965  0.5945 -0.1135
  741MOL0     C97734   3.080   0.500  10.548  0.5404 -0.2568 -0.8272
  741MOL0     C97735   3.120   0.393  10.463 -0.2368  0.1916  0.7019
  741MOL0     C97736   3.252   0.356  10.452 -1.2864  0.4954  0.8530
  741MOL0     C97737   3.355   0.419  10.512  0.0324 -0.0285 -0.5238
  741MOL0     O97738   3.494   0.395  10.502  0.0212 -0.9395 -0.1702
  741MOL0     C97739   3.537   0.278  10.424  0.3047  0.9205 -0.3171
  741MOL0     C97740   3.684   0.241  10.444  0.6523 -0.5890 -0.2717
  741MOL0     C97741   3.780   0.354  10.393  0.9033  0.3686 -0.3676
  741MOL0     C97742   3.921   0.311  10.421 -1.0249 -0.5892 -0.3529
  741MOL0     C97743   4.019   0.426  10.412 -0.6778  0.5141  1.8869
  741MOL0     C97744   4.114   0.503  10.389  0.0148 -0.0192  0.0029
  741MOL0     C97745   3.316   0.531  10.591 -1.1757 -0.0521  0.5161
  741MOL0     C97746   3.179   0.565  10.619  0.2060 -0.5111  0.1837
  741MOL0     H97747   2.726   0.764  10.543 -1.0970 -0.3021 -1.2014
  741MOL0     H97748   2.474   0.789  10.610  3.2024  3.9716  0.0542
  741MOL0     H97749   2.383   0.722  10.982 -0.1846  1.9050  0.1695
  741MOL0     H97750   2.326   0.546  10.981  0.8117 -0.3542 -2.6658
  741MOL0     H97751   2.158   0.685  11.063 -1.1823  3.1923 -0.2947
  741MOL0     H97752   2.106   0.612  10.921 -0.5999 -0.2886  0.7669
  741MOL0     H97753   2.155   0.825  10.792  2.1738  1.8223 -0.5360
  741MOL0     H97754   2.210   0.907  10.937  1.2104 -1.2517  2.0845
  741MOL0     H97755   1.927   0.810  10.910 -2.3425  0.5063  1.2447
  741MOL0     H97756   2.000   0.878  11.059  3.1667  2.4062 -0.3153
  741MOL0     H97757   2.080   1.068  10.911  0.7193  0.0885  2.2368
  741MOL0     H97758   1.910   1.074  10.984  0.5000  0.9644 -0.3562
  741MOL0     H97759   1.844   0.988  10.745 -0.0362  0.2217 -1.7563
  741MOL0     H97760   2.013   0.994  10.708 -2.3624 -2.0593 -1.5648
  741MOL0     H97761   2.028   1.232  10.740  0.9448 -1.7718 -1.3136
  741MOL0     H97762   1.924   1.193  10.616 -0.4562  2.2912 -0.3758
  741MOL0     H97763   1.818   1.363  10.761  0.3160 -0.5291  2.1376
  741MOL0     H97764   1.842   1.270  10.901  0.4199  3.0555 -0.2060
  741MOL0     H97765   1.599   1.392  10.657  1.9870  0.3974 -0.7873
  741MOL0     H97766   1.388   1.202  10.459  1.9785  2.2144 -0.8250
  741MOL0     H97767   1.398   1.352  10.551  0.6147 -0.0043 -1.0186
  741MOL0     H97768   1.254   1.230  10.740 -0.8119 -1.1036  0.4385
  741MOL0     H97769   1.218   1.110  10.607 -2.6348 -0.6737  1.0381
  741MOL0     H97770   1.186   1.402  10.570 -0.1235  0.8823 -3.8218
  741MOL0     H97771   1.151   1.268  10.459 -0.5296 -0.3792  0.0874
  741MOL0     H97772   1.014   1.297  10.728 -1.0730 -2.6878  0.5615
  741MOL0     H97773   0.962   1.178  10.607  1.0004 -1.7660  2.2278
  741MOL0     H97774   0.713   1.492  10.451 -3.6188  2.0073  0.0767
  741MOL0     H97775   0.491   1.523  10.526 -1.3989 -0.0236  1.6525
  741MOL0     H97776   0.106   1.241  10.777 -1.4588 -1.4703 -0.7353
  741MOL0     H97777  -0.109   1.285  10.893  1.2492 -1.5534  1.9724
  741MOL0     H97778  -0.219   1.294  11.130  1.4544 -0.3056 -4.6393
  741MOL0     H97779  -0.305   1.377  11.009  1.4079 -2.5482 -0.7479
  741MOL0     H97780  -0.330   1.552  11.234 -2.7363  0.2791  2.6550
  741MOL0     H97781  -0.311   1.410  11.310  0.1094  0.4149  0.4975
  741MOL0     H97782  -0.514   1.311  11.164  5.3177 -2.0490 -1.7924
  741MOL0     H97783  -0.521   1.473  11.091  1.3360 -2.2225 -1.1749
  741MOL0     H97784  -0.572   1.414  11.388  0.9307 -1.5184 -0.4933
  741MOL0     H97785  -0.546   1.572  11.329  1.2088 -0.7625  1.4542
  741MOL0     H97786  -0.759   1.376  11.224 -2.2351  0.3702 -1.1150
  741MOL0     H97787  -0.735   1.526  11.151 -1.1262 -0.4817 -0.9953
  741MOL0     H97788  -0.923   1.551  11.302 -0.9142 -1.6307  0.4999
  741MOL0     H97789  -0.783   1.616  11.401 -0.6405 -0.1480  1.5856
  741MOL0     H97790  -0.842   1.324  11.442  0.0936 -0.0200  0.2691
  741MOL0     H97791  -0.764   1.444  11.531  0.1089  1.2964 -1.5681
  741MOL0     H97792  -0.995   1.553  11.591 -2.9244  0.3525 -0.6668
  741MOL0     H97793  -0.984   1.383  11.637 -0.0147  1.0721  1.3934
  741MOL0     H97794   0.089   1.556  11.157  2.3405 -0.0128  0.3733
  741MOL0     H97795   0.303   1.503  11.044 -0.3661 -0.3344  0.4190
  741MOL0     H97796   0.581   1.276  10.866  0.0985  2.2614  1.0526
  741MOL0     H97797   0.791   1.224  10.783  0.1223 -1.9166 -0.4263
  741MOL0     H97798   2.546   0.526  10.943 -2.3131 -0.0010 -1.7923
  741MOL0     H97799   2.801   0.530  10.876 -0.8056  0.7418  1.0648
  741MOL0     H97800   3.049   0.326  10.415 -0.3170  2.3997 -2.6231
  741MOL0     H97801   3.258   0.260  10.401 -3.3661  0.7129  0.0972
  741MOL0     H97802   3.516   0.291  10.318  0.2417  2.1139 -0.1749
  741MOL0     H97803   3.473   0.192  10.448 -0.3577  2.0495  2.4259
  741MOL0     H97804   3.706   0.223  10.549  2.3151  0.3232 -0.4205
  741MOL0     H97805   3.696   0.143  10.398  0.4667 -0.2556 -1.0541
  741MOL0     H97806   3.761   0.446  10.449 -0.6735 -0.1273 -0.0349
  741MOL0     H97807   3.771   0.372  10.285 -2.4766  0.5985 -0.1449
  741MOL0     H97808   3.916   0.296  10.529  2.1876 -0.3496 -0.0744
  741MOL0     H97809   3.942   0.224  10.357 -2.5962 -1.0961 -0.2297
  741MOL0     H97810   4.184   0.579  10.362 -0.4473  1.1166  1.8514
  741MOL0     H97811   3.399   0.585  10.636 -0.7206  1.3884 -1.8565
  741MOL0     H97812   3.160   0.643  10.692 -1.1867 -1.4396  0.8545
  742MOL0     O97813   0.521   8.254   8.718  0.3840  0.3026 -0.2764
  742MOL0     C97814   0.544   8.204   8.830 -0.2495  0.4659  0.1041
  742MOL0     O97815   0.531   8.263   8.952 -0.4977 -0.2807  0.2108
  742MOL0     C97816   0.500   8.394   8.946 -0.4621 -0.2533 -0.8091
  742MOL0     C97817   0.364   8.428   8.919 -1.0797  0.9257 -0.3929
  742MOL0     C97818   0.323   8.561   8.942 -0.4884  0.4723  0.3541
  742MOL0     C97819   0.415   8.660   8.982 -0.2042  0.3784  0.6422
  742MOL0     O97820   0.384   8.790   9.003 -0.1703  0.2651  0.0442
  742MOL0     C97821   0.246   8.819   9.011  0.3294  0.8792  0.4407
  742MOL0     C97822   0.223   8.942   9.097 -0.3633 -0.1323  0.6051
  742MOL0     C97823   0.294   8.936   9.232  0.5941 -0.7605  1.3948
  742MOL0     C97824   0.223   9.034   9.324  0.2780  0.4732 -0.8295
  742MOL0     C97825   0.281   9.056   9.464  0.5225 -0.4396 -0.1352
  742MOL0     C97826   0.180   9.103   9.572 -0.8930 -0.3133 -0.6941
  742MOL0     C97827   0.137   9.253   9.549  0.6772  0.4253 -0.6816
  742MOL0     C97828   0.059   9.318   9.666  0.8846  0.0582  0.0691
  742MOL0     N97829  -0.090   9.292   9.658 -0.2689  0.0461 -0.2829
  742MOL0     C97830  -0.169   9.180   9.694  0.0809 -0.2110  0.4906
  742MOL0     C97831  -0.279   9.201   9.617 -0.3300 -0.1149  0.1372
  742MOL0     C97832  -0.389   9.108   9.590 -0.8618  0.2256  0.6122
  742MOL0     C97833  -0.395   9.050   9.446 -0.2321  0.5894 -1.5000
  742MOL0     C97834  -0.266   8.965   9.417  0.1340 -0.8336  1.0736
  742MOL0     C97835  -0.281   8.879   9.305 -0.5088  0.1966  0.2035
  742MOL0     O97836  -0.309   8.942   9.177  0.1758  0.9003  0.1699
  742MOL0     C97837  -0.436   8.942   9.111  0.0256 -0.5385  0.8002
  742MOL0     C97838  -0.537   8.849   9.127 -0.1840  0.5496  0.2237
  742MOL0     C97839  -0.667   8.874   9.066 -0.8726  0.6141  0.8561
  742MOL0     C97840  -0.696   8.990   9.001 -0.6809  0.4704  0.0301
  742MOL0     C97841  -0.836   9.029   8.957 -1.1759 -0.0660  0.6092
  742MOL0     O97842  -0.943   8.957   8.998  0.4832  0.4426 -0.6806
  742MOL0     C97843  -1.062   8.994   8.940  0.1456 -0.4485 -0.9986
  742MOL0     C97844  -1.114   9.130   8.922  0.5201 -0.4020  1.0155
  742MOL0     C97845  -1.250   9.143   8.877 -0.1960 -0.3426 -0.1801
  742MOL0     C97846  -1.313   9.029   8.835  0.4278  0.5391  1.0062
  742MOL0     O97847  -1.432   9.044   8.765  0.0952  0.2210 -0.4122
  742MOL0     C97848  -1.545   9.089   8.836  0.6125  0.2322  0.4733
  742MOL0     C97849  -1.611   8.975   8.900  0.4955  0.8714 -0.5077
  742MOL0     C97850  -1.739   8.998   9.000  0.4630 -1.3167  0.6179
  742MOL0     C97851  -1.867   9.044   8.924 -0.4766  0.5461 -0.3948
  742MOL0     C97852  -1.982   9.047   9.028 -0.6579  0.5425  0.1092
  742MOL0     C97853  -2.112   9.081   8.958  0.3486  0.9236  0.6584
  742MOL0     C97854  -2.175   8.948   8.889 -0.7107  0.0594  0.6229
  742MOL0     C97855  -2.331   8.956   8.890  0.0365  0.0210  0.2286
  742MOL0    Cl97856  -2.387   8.792   8.829  0.2615 -0.0143  0.0812
  742MOL0     C97857  -1.259   8.902   8.842 -0.7205  0.6787  0.1648
  742MOL0     C97858  -1.143   8.880   8.907  0.4406  0.2582 -0.0409
  742MOL0     O97859  -0.833   9.111   8.867  0.1422 -0.1516 -0.4135
  742MOL0     C97860  -0.582   9.075   8.970  0.0851  0.2380 -0.0189
  742MOL0     C97861  -0.459   9.051   9.034  0.0718  1.0907  0.3005
  742MOL0     N97862  -0.265   9.330   9.555 -0.5198  0.7708  0.2153
  742MOL0     N97863  -0.151   9.381   9.575  0.6826  0.6924 -0.4680
  742MOL0     C97864   0.552   8.631   9.002 -0.8944 -0.1842 -0.7360
  742MOL0     C97865   0.589   8.488   8.994  0.4915 -0.4377  0.1722
  742MOL0     C97866   0.599   8.058   8.833 -0.6256  0.4541 -0.3100
  742MOL0     C97867   0.569   7.985   8.950  0.6081 -0.8372  0.5242
  742MOL0     C97868   0.625   7.858   8.975  0.6812  0.0167 -0.3651
  742MOL0     C97869   0.718   7.812   8.885 -0.3312  0.1210 -1.3215
  742MOL0     O97870   0.778   7.691   8.899 -0.0142 -1.0331  0.1002
  742MOL0     C97871   0.752   7.599   9.010  0.0771 -0.0816  0.1704
  742MOL0     C97872   0.846   7.478   9.012  0.7837 -0.2220 -0.2554
  742MOL0     C97873   0.870   7.416   8.876  0.4384  0.1755  0.6798
  742MOL0     C97874   0.978   7.309   8.885 -0.0960  0.4053  0.4798
  742MOL0     C97875   1.030   7.264   8.751  0.2557 -0.0508 -0.4434
  742MOL0     C97876   1.075   7.232   8.641  0.0077 -0.3136  0.3054
  742MOL0     C97877   0.758   7.891   8.770  0.3833  1.0469  1.1073
  742MOL0     C97878   0.690   8.003   8.742 -0.6997  0.7001 -0.4416
  742MOL0     H97879   0.299   8.352   8.879 -3.1571  1.9408  0.8580
  742MOL0     H97880   0.222   8.591   8.915  0.0181  0.7000 -1.4556
  742MOL0     H97881   0.200   8.739   9.068  2.9786  1.2893  3.4919
  742MOL0     H97882   0.196   8.837   8.915 -0.0511 -3.8000 -0.4627
  742MOL0     H97883   0.114   8.950   9.101 -0.3162  2.9891 -1.3485
  742MOL0     H97884   0.246   9.034   9.044  1.3391 -0.1051  1.3170
  742MOL0     H97885   0.400   8.956   9.216  0.5721 -0.6944  1.3332
  742MOL0     H97886   0.284   8.843   9.288  0.8346 -1.3867  0.4287
  742MOL0     H97887   0.228   9.133   9.277 -0.5954 -0.1982 -2.4126
  742MOL0     H97888   0.121   8.996   9.335  0.6107  0.2233  2.1688
  742MOL0     H97889   0.353   9.139   9.460  0.2519 -0.1255  0.9629
  742MOL0     H97890   0.339   8.970   9.497  0.5393  0.1500  1.4884
  742MOL0     H97891   0.233   9.111   9.667  1.3263  4.4964 -1.9880
  742MOL0     H97892   0.083   9.054   9.584 -1.4590  0.7706 -0.6761
  742MOL0     H97893   0.229   9.311   9.536  0.1778  1.1210 -1.1381
  742MOL0     H97894   0.076   9.256   9.459 -1.0448  0.9849  0.4458
  742MOL0     H97895   0.087   9.423   9.667 -0.2058  0.3977 -1.3393
  742MOL0     H97896   0.091   9.273   9.761  0.9832 -0.7412 -0.3280
  742MOL0     H97897  -0.138   9.095   9.753 -0.1622 -2.5968 -2.5477
  742MOL0     H97898  -0.483   9.165   9.595 -0.3333  1.3520 -1.3840
  742MOL0     H97899  -0.408   9.027   9.661 -0.5443 -0.1397  0.2791
  742MOL0     H97900  -0.390   9.139   9.382 -0.3287  0.7281 -1.3151
  742MOL0     H97901  -0.489   8.999   9.424 -1.0052  2.4333 -2.7256
  742MOL0     H97902  -0.184   9.033   9.391 -1.9699  0.9599 -1.3228
  742MOL0     H97903  -0.235   8.915   9.509  0.2226 -2.1579  0.3485
  742MOL0     H97904  -0.357   8.801   9.318 -0.9099  0.1381 -1.9968
  742MOL0     H97905  -0.188   8.823   9.298 -1.9099 -2.2379 -0.3201
  742MOL0     H97906  -0.513   8.757   9.181 -0.6697 -1.5116 -2.8002
  742MOL0     H97907  -0.750   8.805   9.078  0.6312 -1.2975  0.7165
  742MOL0     H97908  -1.053   9.216   8.945  2.2094 -1.7660  1.8087
  742MOL0     H97909  -1.296   9.242   8.876  0.6434  0.0712 -1.7900
  742MOL0     H97910  -1.614   9.128   8.761  1.5076  1.3697  0.2116
  742MOL0     H97911  -1.522   9.171   8.905  2.0930  0.6862 -0.5127
  742MOL0     H97912  -1.535   8.923   8.958 -1.4489 -1.3127  0.2267
  742MOL0     H97913  -1.647   8.903   8.827 -3.3354 -0.3528  2.2300
  742MOL0     H97914  -1.715   9.070   9.079 -0.6947 -3.0299  2.6501
  742MOL0     H97915  -1.759   8.908   9.061  3.3754 -0.8764  2.3888
  742MOL0     H97916  -1.857   9.143   8.879 -0.3135  0.4883 -0.4868
  742MOL0     H97917  -1.881   8.975   8.840  2.2094  0.6182 -0.9867
  742MOL0     H97918  -1.958   9.113   9.112  1.3736 -1.9371  1.6169
  742MOL0     H97919  -1.983   8.951   9.080  2.5815 -0.0874 -0.7342
  742MOL0     H97920  -2.099   9.144   8.870  3.3621 -1.5243 -0.8565
  742MOL0     H97921  -2.191   9.114   9.027 -1.9847 -2.0366 -0.3518
  742MOL0     H97922  -2.150   8.936   8.783 -0.5181  1.2801  0.5178
  742MOL0     H97923  -2.145   8.859   8.944 -0.7588  1.1538  2.4854
  742MOL0     H97924  -2.353   9.034   8.817 -2.0688 -0.2913  0.4735
  742MOL0     H97925  -2.374   8.979   8.988 -1.4017 -2.7471  0.3342
  742MOL0     H97926  -1.326   8.827   8.800 -1.8267  0.3990  2.2844
  742MOL0     H97927  -1.106   8.779   8.918  4.5920  1.4325 -1.2703
  742MOL0     H97928  -0.592   9.168   8.914  1.4576 -0.9215 -2.3682
  742MOL0     H97929  -0.374   9.117   9.017  0.0427  1.6303  2.0771
  742MOL0     H97930   0.619   8.717   9.009 -1.6010  0.4073 -1.0759
  742MOL0     H97931   0.692   8.454   8.995  0.4022 -0.7888 -1.0588
  742MOL0     H97932   0.502   8.035   9.020  0.1925 -1.4586  0.5767
  742MOL0     H97933   0.608   7.815   9.073  1.1937 -2.0106 -1.1184
  742MOL0     H97934   0.649   7.563   9.002 -0.1674  0.8050 -0.8483
  742MOL0     H97935   0.774   7.648   9.106  3.1804 -0.7614 -0.0709
  742MOL0     H97936   0.938   7.528   9.044 -2.6317  5.0401  2.8480
  742MOL0     H97937   0.806   7.404   9.081 -0.9073  1.6266  0.8536
  742MOL0     H97938   0.885   7.480   8.789  0.6475 -3.5442 -2.2797
  742MOL0     H97939   0.774   7.370   8.853 -0.4732  1.2000  2.2749
  742MOL0     H97940   1.054   7.335   8.959  0.3383 -1.7671  0.8541
  742MOL0     H97941   0.935   7.222   8.937  0.9029  1.0255  2.4480
  742MOL0     H97942   1.099   7.228   8.537  2.6914  1.3858  0.7708
  742MOL0     H97943   0.816   7.840   8.694 -2.3974  1.9614 -1.8827
  742MOL0     H97944   0.701   8.040   8.641  1.2357  1.5563  0.0396
  743MOL0     O97945   5.121   6.636   0.014  0.8699 -1.6372  0.1489
  743MOL0     C97946   5.103   6.543  -0.061  0.1721  0.3129 -0.9864
  743MOL0     O97947   4.991   6.464  -0.076  0.2483 -0.3837  0.6676
  743MOL0     C97948   4.885   6.467   0.008  1.4195 -0.5863  0.5262
  743MOL0     C97949   4.755   6.458  -0.042  0.7602 -0.4425  0.0821
  743MOL0     C97950   4.638   6.458   0.045 -0.4324 -0.4898  0.2002
  743MOL0     C97951   4.653   6.479   0.186 -0.0153  0.1231 -0.0993
  743MOL0     O97952   4.550   6.475   0.273  0.4400  0.7561 -0.7144
  743MOL0     C97953   4.413   6.432   0.233  0.5947 -0.1254  0.9005
  743MOL0     C97954   4.322   6.401   0.361 -1.0200 -0.1546 -0.7106
  743MOL0     C97955   4.183   6.376   0.318  0.4194  0.2956  0.7561
  743MOL0     C97956   4.148   6.237   0.271 -0.4650  0.3820 -0.7920
  743MOL0     C97957   3.995   6.210   0.234  0.4919  0.3985 -0.1500
  743MOL0     C97958   3.940   6.285   0.117 -0.2872  0.2481 -0.1951
  743MOL0     C97959   3.796   6.237   0.081  0.4201  0.9291 -0.3287
  743MOL0     C97960   3.695   6.315   0.157 -0.2961  0.1702  0.0395
  743MOL0     N97961   3.614   6.401   0.064 -0.2332  0.2018 -0.1543
  743MOL0     C97962   3.649   6.479  -0.040 -0.1837  0.1036 -0.1928
  743MOL0     C97963   3.536   6.540  -0.084 -0.3554 -0.5305  0.8259
  743MOL0     C97964   3.535   6.636  -0.202  0.2454 -0.4721  0.1322
  743MOL0     C97965   3.494   6.574  -0.342 -0.1230 -0.3767  0.6104
  743MOL0     C97966   3.565   6.450  -0.407  0.4663  0.9551 -0.3344
  743MOL0     C97967   3.716   6.476  -0.428  0.4953  0.3608 -0.4704
  743MOL0     O97968   3.774   6.540  -0.320  0.3978 -0.3918 -1.4260
  743MOL0     C97969   3.912   6.525  -0.328 -0.5516  0.4501 -0.1060
  743MOL0     C97970   3.978   6.433  -0.246  0.8942 -1.0903 -0.0024
  743MOL0     C97971   4.116   6.439  -0.237 -0.1795  0.4301 -0.3339
  743MOL0     C97972   4.191   6.516  -0.316 -0.3063 -0.1502  1.4237
  743MOL0     C97973   4.340   6.508  -0.321  1.0306  0.5450  0.0976
  743MOL0     O97974   4.393   6.562  -0.437 -0.4204 -0.2745  0.5360
  743MOL0     C97975   4.533   6.576  -0.449 -0.5071 -0.7784 -1.3828
  743MOL0     C97976   4.590   6.543  -0.566 -0.4197 -0.1340  0.2276
  743MOL0     C97977   4.729   6.568  -0.589 -0.2702  0.2194 -0.4483
  743MOL0     C97978   4.815   6.624  -0.490  0.4799 -0.2178 -0.2063
  743MOL0     O97979   4.950   6.663  -0.502  0.4050  0.6124 -0.1519
  743MOL0     C97980   4.968   6.779  -0.577  1.1965  0.5784 -0.5957
  743MOL0     C97981   5.114   6.787  -0.612 -0.5198  0.9691  0.2046
  743MOL0     C97982   5.197   6.846  -0.491 -0.6843  0.1807  0.3424
  743MOL0     C97983   5.341   6.818  -0.526 -0.2202 -0.3377 -0.1283
  743MOL0     C97984   5.429   6.859  -0.410 -0.3526 -0.0461  0.4633
  743MOL0     C97985   5.579   6.833  -0.444 -0.3463 -0.2668  0.0770
  743MOL0     C97986   5.674   6.883  -0.334 -0.3412  0.2147 -1.1560
  743MOL0     C97987   5.834   6.838  -0.361  0.5723 -0.6810  0.6920
  743MOL0    Cl97988   5.893   6.880  -0.530  0.1009 -0.1536  0.2426
  743MOL0     C97989   4.751   6.643  -0.362 -0.3920  0.7822  0.1039
  743MOL0     C97990   4.616   6.628  -0.346 -0.0380  0.1584  1.1171
  743MOL0     O97991   4.405   6.457  -0.225  0.1313  0.3051  0.6646
  743MOL0     C97992   4.121   6.608  -0.396 -0.2497  0.3102 -0.3615
  743MOL0     C97993   3.982   6.611  -0.405  0.3271  0.0987  1.4922
  743MOL0     N97994   3.433   6.495  -0.009  0.7165  0.5439 -0.3038
  743MOL0     N97995   3.476   6.409   0.069 -0.3392 -0.4647 -0.3555
  743MOL0     C97996   4.788   6.491   0.235 -0.8369  0.2601  0.2258
  743MOL0     C97997   4.896   6.483   0.147 -0.3935  0.0740 -0.5512
  743MOL0     C97998   5.205   6.519  -0.163 -0.7648  0.6006  0.3144
  743MOL0     C97999   5.330   6.577  -0.145  0.2460 -0.2438  0.0281
  743MOL0     C98000   5.425   6.572  -0.249 -0.5319 -0.1688  0.3114
  743MOL0     C98001   5.407   6.487  -0.356 -0.1789 -0.5140  0.2875
  743MOL0     O98002   5.514   6.483  -0.445 -0.1648 -0.3913 -0.2449
  743MOL0     C98003   5.512   6.390  -0.552  0.3358  0.2267 -0.6089
  743MOL0     C98004   5.605   6.445  -0.667  0.2156  0.7297 -0.1632
  743MOL0     C98005   5.755   6.396  -0.644  0.0647 -0.7611  0.2861
  743MOL0     C98006   5.843   6.508  -0.600  0.7897 -0.3714  0.5150
  743MOL0     C98007   5.985   6.475  -0.590  0.4065  0.2922 -1.1754
  743MOL0     C98008   6.102   6.449  -0.600 -0.5386  0.2503 -1.0590
  743MOL0     C98009   5.278   6.430  -0.378 -0.4388 -0.7201 -0.2155
  743MOL0     C98010   5.174   6.449  -0.285 -0.4590  0.7073  1.1243
  743MOL0     H98011   4.749   6.429  -0.146  0.3719  2.1261 -0.6797
  743MOL0     H98012   4.538   6.449   0.005 -0.6154 -3.9738  1.0600
  743MOL0     H98013   4.403   6.351   0.159 -0.5347  0.0910  0.7967
  743MOL0     H98014   4.372   6.517   0.179  0.4334  0.0798  1.3413
  743MOL0     H98015   4.338   6.483   0.432  3.2274  1.6265 -3.3169
  743MOL0     H98016   4.361   6.310   0.408  1.9890  0.0399 -2.5325
  743MOL0     H98017   4.148   6.448   0.244  1.4673 -0.8785 -0.9629
  743MOL0     H98018   4.120   6.387   0.406 -2.2885  0.9628 -1.1220
  743MOL0     H98019   4.206   6.221   0.180  0.9874  0.9991 -0.0007
  743MOL0     H98020   4.181   6.171   0.352 -2.5216  0.3320  0.0755
  743MOL0     H98021   3.944   6.232   0.329  0.6145  0.2612 -0.0519
  743MOL0     H98022   3.978   6.103   0.217  0.5520  0.4084 -0.2733
  743MOL0     H98023   4.004   6.280   0.028 -1.0168  3.2138 -0.9933
  743MOL0     H98024   3.953   6.391   0.144 -0.7975  0.3537 -0.3583
  743MOL0     H98025   3.781   6.237  -0.027  1.1619 -2.8202 -0.5647
  743MOL0     H98026   3.771   6.136   0.115 -0.3168  1.6271  1.2992
  743MOL0     H98027   3.743   6.381   0.230 -1.7782 -0.0943  1.3229
  743MOL0     H98028   3.632   6.246   0.214  1.8495 -1.3657  0.7207
  743MOL0     H98029   3.752   6.476  -0.076  0.0287 -1.1599  0.4877
  743MOL0     H98030   3.624   6.698  -0.202  1.6686 -2.4084 -1.0553
  743MOL0     H98031   3.446   6.697  -0.180  0.9792 -0.1410  2.3945
  743MOL0     H98032   3.501   6.657  -0.413  0.8897  1.2877  2.5357
  743MOL0     H98033   3.388   6.549  -0.334 -0.8748  2.6610  1.2624
  743MOL0     H98034   3.552   6.374  -0.329 -2.4305  2.2655  0.6088
  743MOL0     H98035   3.513   6.426  -0.500 -0.8274  1.0904  0.3253
  743MOL0     H98036   3.733   6.533  -0.520  1.6678  0.6313 -0.1040
  743MOL0     H98037   3.757   6.376  -0.443 -0.7142 -1.1478  4.3350
  743MOL0     H98038   3.915   6.362  -0.193 -0.4550 -2.4500 -3.2036
  743MOL0     H98039   4.163   6.368  -0.170  2.1253  0.1067 -2.1439
  743MOL0     H98040   4.532   6.494  -0.644 -2.1071  0.6832  0.9349
  743MOL0     H98041   4.765   6.551  -0.690 -2.8047  2.9099 -1.9841
  743MOL0     H98042   4.943   6.865  -0.514  0.0395 -0.1987  0.0425
  743MOL0     H98043   4.911   6.768  -0.670  0.7437  1.8556 -0.4984
  743MOL0     H98044   5.129   6.838  -0.708  0.5560  0.4298  0.0787
  743MOL0     H98045   5.152   6.686  -0.627  2.7014  1.3749  3.9712
  743MOL0     H98046   5.173   6.793  -0.399 -0.6068  0.1324  0.3345
  743MOL0     H98047   5.169   6.952  -0.495 -3.4701 -0.4975 -2.3357
  743MOL0     H98048   5.360   6.712  -0.546  1.4500  0.1273 -1.2680
  743MOL0     H98049   5.373   6.880  -0.610 -0.5786  1.8772  1.2940
  743MOL0     H98050   5.417   6.811  -0.312 -0.1862 -2.1499 -0.4849
  743MOL0     H98051   5.414   6.966  -0.392  1.3245  0.3045 -0.0334
  743MOL0     H98052   5.593   6.888  -0.538 -4.7737  3.7896  1.3568
  743MOL0     H98053   5.597   6.726  -0.454  4.2301  0.2348  0.8480
  743MOL0     H98054   5.670   6.992  -0.326  0.4587  0.3681 -2.6483
  743MOL0     H98055   5.637   6.846  -0.238  2.4592  0.1562 -0.0141
  743MOL0     H98056   5.833   6.730  -0.345  2.6596 -1.1310 -1.6404
  743MOL0     H98057   5.903   6.893  -0.296 -0.7714  2.1503 -0.1025
  743MOL0     H98058   4.794   6.691  -0.275 -3.3016 -1.3669  2.9676
  743MOL0     H98059   4.571   6.645  -0.249 -3.0672 -2.0892  0.2502
  743MOL0     H98060   4.174   6.682  -0.455 -1.2202  3.0033  1.9056
  743MOL0     H98061   3.932   6.690  -0.460 -0.4422 -0.6422  1.0927
  743MOL0     H98062   4.814   6.503   0.340  0.1097 -0.0208  0.0314
  743MOL0     H98063   4.995   6.494   0.190 -0.2193  1.3232 -1.2315
  743MOL0     H98064   5.346   6.632  -0.053 -1.9614  2.1237 -0.8826
  743MOL0     H98065   5.514   6.631  -0.231 -0.7461  0.3693 -0.3780
  743MOL0     H98066   5.412   6.380  -0.596  0.6946  1.6027 -1.8359
  743MOL0     H98067   5.542   6.289  -0.523  0.3402  0.5474  0.5205
  743MOL0     H98068   5.581   6.401  -0.763  1.1233 -0.2902  0.0580
  743MOL0     H98069   5.592   6.551  -0.692 -0.5107  0.3724 -1.3351
  743MOL0     H98070   5.794   6.366  -0.742  1.4255 -0.2595  0.6595
  743MOL0     H98071   5.769   6.315  -0.573 -2.4226 -1.0767  0.5140
  743MOL0     H98072   5.837   6.589  -0.674  3.7831  0.7264  1.3004
  743MOL0     H98073   5.803   6.556  -0.511  0.4960  0.0200  0.1749
  743MOL0     H98074   6.205   6.420  -0.600 -1.1071 -2.0351  0.1962
  743MOL0     H98075   5.257   6.373  -0.468 -3.3702  0.8300 -0.6503
  743MOL0     H98076   5.080   6.404  -0.316  1.4061 -1.7040 -1.6486
  744MOL0     O98077   7.887   7.872   2.330 -0.1031  0.0495  0.0634
  744MOL0     C98078   7.865   7.957   2.422  0.1690  0.0413  0.1407
  744MOL0     O98079   7.742   7.994   2.469 -0.5074  0.2698 -0.4109
  744MOL0     C98080   7.642   7.967   2.383 -0.0449 -0.2359 -0.5810
  744MOL0     C98081   7.636   8.025   2.253  0.0835  0.1827 -0.1297
  744MOL0     C98082   7.522   8.007   2.178  0.3889  0.3522  0.7018
  744MOL0     C98083   7.413   7.941   2.236 -0.4515 -0.2071  0.4071
  744MOL0     O98084   7.294   7.944   2.157 -0.1428 -0.0494  0.5242
  744MOL0     C98085   7.294   7.857   2.045  0.4841  0.2715  0.3567
  744MOL0     C98086   7.184   7.895   1.949  0.3054 -0.3270 -0.6117
  744MOL0     C98087   7.045   7.862   2.002  0.7272 -0.2812 -0.0309
  744MOL0     C98088   6.936   7.868   1.889 -0.6322  0.5539 -0.3383
  744MOL0     C98089   6.787   7.848   1.917 -0.3115  0.2960  0.4497
  744MOL0     C98090   6.734   7.920   2.047  0.0659 -0.3026 -0.4381
  744MOL0     C98091   6.582   7.933   2.059 -0.4855 -0.3606 -0.8673
  744MOL0     C98092   6.501   7.966   1.936 -0.4053 -0.5411  0.3644
  744MOL0     N98093   6.361   7.976   1.974 -0.1102  0.3423  0.6170
  744MOL0     C98094   6.284   7.886   2.039 -0.1496  0.0507  0.1531
  744MOL0     C98095   6.164   7.945   2.036  0.1129 -0.0166  0.4037
  744MOL0     C98096   6.049   7.890   2.110  0.3217  0.0022 -0.0862
  744MOL0     C98097   5.938   7.845   2.022  0.6460  1.2962 -0.0004
  744MOL0     C98098   5.845   7.741   2.096 -0.3262 -0.7340 -0.4430
  744MOL0     C98099   5.762   7.670   1.991  0.9194 -0.4548 -0.6805
  744MOL0     O98100   5.680   7.769   1.922  0.8554  0.7709 -0.6338
  744MOL0     C98101   5.575   7.718   1.847 -0.6233 -1.2907  0.1179
  744MOL0     C98102   5.477   7.812   1.804  0.5153 -1.0234 -0.3565
  744MOL0     C98103   5.367   7.763   1.733 -0.1581 -0.7385 -0.2857
  744MOL0     C98104   5.362   7.628   1.694  0.0681 -0.1274  0.9275
  744MOL0     C98105   5.248   7.576   1.622 -0.3117  0.5186 -0.0241
  744MOL0     O98106   5.153   7.667   1.599  0.1517 -0.2182 -0.5874
  744MOL0     C98107   5.031   7.636   1.536  0.3777 -0.2302  0.6889
  744MOL0     C98108   4.965   7.522   1.579 -0.3294 -0.6484 -0.7079
  744MOL0     C98109   4.838   7.498   1.528  0.4235  0.7258  1.5117
  744MOL0     C98110   4.785   7.577   1.422 -0.0385 -0.5604  0.2047
  744MOL0     O98111   4.671   7.553   1.356  0.1543 -0.4119  0.4358
  744MOL0     C98112   4.608   7.422   1.364  0.2581  0.1260  0.2551
  744MOL0     C98113   4.515   7.390   1.246 -0.2445  0.5838  0.2984
  744MOL0     C98114   4.377   7.462   1.257  0.8048 -0.7239  1.0160
  744MOL0     C98115   4.279   7.367   1.181  0.1567  0.0076 -0.6615
  744MOL0     C98116   4.139   7.444   1.176 -0.3449 -0.4582 -0.4309
  744MOL0     C98117   4.117   7.513   1.042  0.0444 -0.2724  0.3627
  744MOL0     C98118   4.223   7.626   1.023  0.2769 -0.5474  0.3515
  744MOL0     C98119   4.201   7.715   0.895  0.4235  0.2746  0.2167
  744MOL0    Cl98120   4.232   7.624   0.739 -0.6750  0.2211 -0.0171
  744MOL0     C98121   4.852   7.693   1.386  0.4387  0.8093 -0.3106
  744MOL0     C98122   4.974   7.724   1.441  0.0193  0.0919 -0.7584
  744MOL0     O98123   5.247   7.455   1.588  0.3643 -0.2478 -0.0661
  744MOL0     C98124   5.460   7.543   1.741  0.0896  0.2127  0.1812
  744MOL0     C98125   5.565   7.583   1.817  0.1239 -0.0048  1.0051
  744MOL0     N98126   6.170   8.066   1.972  0.4762  0.8341 -0.0233
  744MOL0     N98127   6.295   8.092   1.946 -0.2613  0.0975 -0.3674
  744MOL0     C98128   7.425   7.882   2.363  0.5857  0.2012  0.7709
  744MOL0     C98129   7.542   7.898   2.437 -0.2006  0.8853 -0.1727
  744MOL0     C98130   7.980   8.033   2.479 -0.3638  0.1270 -0.3088
  744MOL0     C98131   7.954   8.118   2.588 -0.3855  1.2518 -0.3728
  744MOL0     C98132   8.068   8.179   2.641  0.1047  0.2017  0.6605
  744MOL0     C98133   8.200   8.160   2.594 -0.6297 -0.7083 -0.1552
  744MOL0     O98134   8.324   8.204   2.641 -0.2957 -0.5235 -0.5538
  744MOL0     C98135   8.317   8.290   2.748 -0.5010  0.2147 -1.2993
  744MOL0     C98136   8.468   8.321   2.767 -1.2106 -0.0267 -0.0090
  744MOL0     C98137   8.548   8.387   2.649  0.5347  0.5170  0.1836
  744MOL0     C98138   8.647   8.299   2.570  0.1991  0.1635  0.2490
  744MOL0     C98139   8.731   8.217   2.651  0.4979  1.2700 -0.3131
  744MOL0     C98140   8.803   8.134   2.715  0.5332 -0.9588  0.7600
  744MOL0     C98141   8.218   8.092   2.480 -0.5217 -1.1096  0.2651
  744MOL0     C98142   8.111   8.021   2.423 -0.0239  0.1615 -0.2996
  744MOL0     H98143   7.725   8.077   2.220  0.9980 -0.0674  1.8468
  744MOL0     H98144   7.525   8.048   2.077 -0.0716 -0.3433  0.4017
  744MOL0     H98145   7.285   7.750   2.069 -2.1624 -0.0042 -1.3857
  744MOL0     H98146   7.393   7.865   2.001  0.1902 -0.8017 -0.5658
  744MOL0     H98147   7.213   7.851   1.853 -1.1556 -0.1545 -1.1599
  744MOL0     H98148   7.183   8.003   1.936 -0.4304 -0.3824 -1.1048
  744MOL0     H98149   7.021   7.934   2.080 -1.9716  0.4430 -1.3937
  744MOL0     H98150   7.051   7.766   2.053  1.0988  0.5280  1.5076
  744MOL0     H98151   6.941   7.964   1.838 -2.3137 -0.7237 -3.1977
  744MOL0     H98152   6.963   7.798   1.809 -0.8243  0.8174 -0.6360
  744MOL0     H98153   6.765   7.742   1.937 -2.9188  1.2636  3.4216
  744MOL0     H98154   6.737   7.876   1.824 -2.8740 -2.8688  0.7091
  744MOL0     H98155   6.768   8.024   2.050 -4.0757  1.3424  4.9346
  744MOL0     H98156   6.787   7.881   2.135  1.1935  1.5493 -0.2300
  744MOL0     H98157   6.555   7.832   2.089  0.7922 -0.6416 -0.5881
  744MOL0     H98158   6.559   8.012   2.131  1.7765 -0.1883 -0.2703
  744MOL0     H98159   6.511   7.900   1.850  1.1702  2.2831 -1.8213
  744MOL0     H98160   6.532   8.067   1.905  1.7291 -0.4389  2.5073
  744MOL0     H98161   6.327   7.795   2.078  2.5356 -0.3240 -3.2120
  744MOL0     H98162   6.011   7.977   2.164 -1.2729 -1.3175  0.9995
  744MOL0     H98163   6.083   7.809   2.174 -0.7391 -1.1910 -0.9664
  744MOL0     H98164   5.971   7.800   1.928 -0.6144 -1.6648  0.8497
  744MOL0     H98165   5.884   7.936   1.994 -0.6734  0.7800  0.7844
  744MOL0     H98166   5.894   7.664   2.157 -1.9241  0.8749  3.1267
  744MOL0     H98167   5.787   7.800   2.167 -0.0301 -1.5816  0.5168
  744MOL0     H98168   5.702   7.601   2.050  0.2447  1.4341  0.9433
  744MOL0     H98169   5.822   7.614   1.919  2.0978  0.1384 -0.1950
  744MOL0     H98170   5.486   7.919   1.821 -0.1543 -0.6301 -2.2130
  744MOL0     H98171   5.289   7.835   1.715  1.3960  2.2984  3.7636
  744MOL0     H98172   4.998   7.474   1.670 -2.8259  1.1800  1.2922
  744MOL0     H98173   4.779   7.412   1.557 -2.8763  2.7926  1.4557
  744MOL0     H98174   4.548   7.405   1.454  2.2282  2.4025  2.1413
  744MOL0     H98175   4.684   7.345   1.382  0.5325  0.6151  1.2789
  744MOL0     H98176   4.498   7.283   1.235  0.0774  0.7294 -2.1942
  744MOL0     H98177   4.566   7.429   1.157  1.2207  0.4088  1.0341
  744MOL0     H98178   4.370   7.566   1.225 -1.9740 -1.7652 -2.3234
  744MOL0     H98179   4.359   7.469   1.365  1.3610  1.1216  1.0173
  744MOL0     H98180   4.299   7.345   1.076 -3.3189  2.4014 -2.0479
  744MOL0     H98181   4.275   7.273   1.236  1.2386  1.2497  1.6530
  744MOL0     H98182   4.130   7.520   1.254  0.0202  0.7925 -1.5928
  744MOL0     H98183   4.065   7.367   1.202 -0.0247 -0.2289  1.3293
  744MOL0     H98184   4.018   7.555   1.026  1.1538  3.0462  1.3817
  744MOL0     H98185   4.133   7.438   0.963  2.0229 -0.1477  0.5912
  744MOL0     H98186   4.229   7.699   1.105 -1.4244 -0.6458  0.6030
  744MOL0     H98187   4.320   7.578   1.013  0.7844  0.0757  1.8370
  744MOL0     H98188   4.281   7.790   0.897  0.8851 -0.1555 -1.1664
  744MOL0     H98189   4.104   7.764   0.880  1.4510  1.6565 -2.7700
  744MOL0     H98190   4.821   7.741   1.294  1.8138  1.4848 -0.4440
  744MOL0     H98191   5.032   7.812   1.414 -1.2054  1.6398  1.3729
  744MOL0     H98192   5.464   7.439   1.711  2.3643  0.0666  0.8396
  744MOL0     H98193   5.650   7.522   1.845 -0.8414 -0.7315  2.4812
  744MOL0     H98194   7.339   7.825   2.396  1.4634 -2.7155 -1.5702
  744MOL0     H98195   7.572   7.866   2.536 -0.9851 -0.1813 -0.2654
  744MOL0     H98196   7.855   8.147   2.622  0.9839  3.1735  2.3619
  744MOL0     H98197   8.053   8.246   2.725  0.5959 -0.9348  1.6762
  744MOL0     H98198   8.272   8.242   2.836  0.5515 -1.1132 -1.4514
  744MOL0     H98199   8.262   8.380   2.716 -1.0927  0.8121  1.1750
  744MOL0     H98200   8.464   8.386   2.855 -3.0363 -1.5207  1.0868
  744MOL0     H98201   8.523   8.236   2.808 -2.1247 -2.6911 -3.7538
  744MOL0     H98202   8.603   8.473   2.689  2.0899  0.7084 -2.1967
  744MOL0     H98203   8.478   8.423   2.572  1.9914  0.9522 -0.9791
  744MOL0     H98204   8.591   8.248   2.492  2.7717 -0.7626 -1.1173
  744MOL0     H98205   8.710   8.377   2.526 -3.0990  3.7822  1.3675
  744MOL0     H98206   8.869   8.065   2.763 -2.4394 -2.9903  2.2431
  744MOL0     H98207   8.315   8.075   2.433  0.5754  0.8585  1.6538
  744MOL0     H98208   8.138   7.958   2.339 -0.6382 -1.1130  0.4204
  745MOL0     O98209   0.658   1.024   9.387 -0.7181 -0.0741  0.6994
  745MOL0     C98210   0.752   0.971   9.442  0.2941 -0.8050 -0.4728
  745MOL0     O98211   0.748   0.863   9.533 -0.2412  0.1364  0.0368
  745MOL0     C98212   0.618   0.833   9.567 -0.4081 -0.3306  0.0223
  745MOL0     C98213   0.558   0.899   9.678  0.0879 -0.3202 -0.5502
  745MOL0     C98214   0.422   0.874   9.710  0.5982 -1.4019 -0.2538
  745MOL0     C98215   0.348   0.778   9.640 -0.1059  0.2757 -0.4456
  745MOL0     O98216   0.212   0.741   9.663 -0.2594  0.0991  0.5420
  745MOL0     C98217   0.144   0.834   9.750 -0.3286 -0.3532  0.1361
  745MOL0     C98218  -0.004   0.785   9.745  0.1200 -1.0053 -0.5735
  745MOL0     C98219  -0.108   0.853   9.834  0.0848  0.3177  0.0327
  745MOL0     C98220  -0.243   0.790   9.812  0.6032 -0.6047 -0.1577
  745MOL0     C98221  -0.340   0.865   9.894  0.5167 -0.2340  0.2045
  745MOL0     C98222  -0.483   0.825   9.871 -0.1470  0.1289 -0.3895
  745MOL0     C98223  -0.579   0.886   9.965  0.4501 -0.2306  0.1561
  745MOL0     C98224  -0.680   0.780  10.016 -0.3761  0.4839 -0.2781
  745MOL0     N98225  -0.806   0.785   9.936 -0.6059  0.5664 -0.2540
  745MOL0     C98226  -0.934   0.759   9.989 -1.1631 -1.4948  0.7969
  745MOL0     C98227  -1.015   0.769   9.886  0.1319 -0.6465 -0.0704
  745MOL0     C98228  -1.164   0.774   9.889  0.5812  0.4888 -0.1414
  745MOL0     C98229  -1.212   0.898   9.825  0.1584  0.4444  0.4778
  745MOL0     C98230  -1.355   0.900   9.782 -1.0886  0.2704  0.0473
  745MOL0     C98231  -1.447   0.838   9.884 -1.0787 -0.5513 -0.2899
  745MOL0     O98232  -1.576   0.861   9.831  0.7128 -0.1236 -0.1193
  745MOL0     C98233  -1.682   0.822   9.913 -0.5981 -0.0625  0.0542
  745MOL0     C98234  -1.661   0.781  10.050 -0.0434  0.5543  0.0628
  745MOL0     C98235  -1.779   0.749  10.124 -0.0759 -0.1008 -0.8501
  745MOL0     C98236  -1.903   0.753  10.064 -0.5967 -0.1074  0.5678
  745MOL0     C98237  -2.018   0.717  10.139  0.3952  0.4691  0.0564
  745MOL0     O98238  -2.144   0.733  10.076  0.0368 -0.5966  0.2164
  745MOL0     C98239  -2.249   0.674  10.125 -0.4133  0.6069 -0.2579
  745MOL0     C98240  -2.319   0.592  10.033 -0.0707 -0.2909  0.3370
  745MOL0     C98241  -2.436   0.527  10.064 -0.9030  0.2574  0.2740
  745MOL0     C98242  -2.499   0.554  10.182  0.0806 -0.6679  0.5829
  745MOL0     O98243  -2.625   0.517  10.224 -0.4847 -0.4710 -0.3607
  745MOL0     C98244  -2.698   0.431  10.136 -0.9934  0.7986  0.1349
  745MOL0     C98245  -2.836   0.414  10.193  0.0725  1.0320  0.3405
  745MOL0     C98246  -2.936   0.525  10.153 -0.7529  0.1095  0.4495
  745MOL0     C98247  -3.062   0.497  10.235  0.1843  0.5460  1.1108
  745MOL0     C98248  -3.169   0.583  10.188  0.8843 -0.1632  0.0604
  745MOL0     C98249  -3.298   0.525  10.251  0.0855 -0.2075  1.0134
  745MOL0     C98250  -3.415   0.620  10.224  0.8314  0.7206 -0.3496
  745MOL0     C98251  -3.496   0.572  10.111  0.2186 -0.3415 -0.3111
  745MOL0    Cl98252  -3.403   0.537   9.961  0.2251  0.3299 -0.1396
  745MOL0     C98253  -2.441   0.645  10.270  0.4189 -0.6179  0.1315
  745MOL0     C98254  -2.319   0.703  10.248 -0.1856 -0.3012  0.3169
  745MOL0     O98255  -2.001   0.686  10.260  0.1533  0.4726  0.2999
  745MOL0     C98256  -1.917   0.782   9.931  0.2152 -0.1688  0.3044
  745MOL0     C98257  -1.807   0.812   9.865  0.1541  0.7840  0.3392
  745MOL0     N98258  -0.938   0.793   9.771 -0.1628 -0.3428 -0.9032
  745MOL0     N98259  -0.816   0.789   9.802 -0.6545 -0.2107 -0.0542
  745MOL0     C98260   0.412   0.719   9.534  0.4956  0.2499  0.3434
  745MOL0     C98261   0.545   0.739   9.491  0.3570 -0.0050  0.1634
  745MOL0     C98262   0.883   1.035   9.419  0.3131  0.7389  0.8920
  745MOL0     C98263   0.902   1.133   9.319  0.5413  1.1028 -0.6408
  745MOL0     C98264   1.016   1.189   9.298 -0.5148  0.0845  0.0507
  745MOL0     C98265   1.133   1.146   9.366  1.1304  1.1209  0.2675
  745MOL0     O98266   1.246   1.209   9.323 -0.7927  0.0917 -0.3683
  745MOL0     C98267   1.374   1.155   9.363  0.3854 -0.9155 -0.3503
  745MOL0     C98268   1.415   1.024   9.278  0.0559  0.0214 -0.8074
  745MOL0     C98269   1.552   0.959   9.302  0.0115  0.7852 -0.0099
  745MOL0     C98270   1.554   0.908   9.443 -0.8668 -0.6673  0.5243
  745MOL0     C98271   1.687   0.858   9.473 -0.3953  0.0724  0.9310
  745MOL0     C98272   1.794   0.812   9.502  0.0651  0.4737 -0.3247
  745MOL0     C98273   1.119   1.041   9.458  0.2149 -1.2939  0.3551
  745MOL0     C98274   0.994   0.987   9.486 -0.8181 -0.1976  0.8507
  745MOL0     H98275   0.618   0.956   9.748 -3.2274 -1.8828  4.0756
  745MOL0     H98276   0.382   0.937   9.789  0.4378  1.5137 -2.4687
  745MOL0     H98277   0.171   0.937   9.726  0.3362 -0.8020 -1.1466
  745MOL0     H98278   0.178   0.822   9.853 -1.3148  1.5739  0.7331
  745MOL0     H98279  -0.009   0.680   9.775  0.1979 -1.2805 -1.5162
  745MOL0     H98280  -0.040   0.797   9.643 -0.5019 -0.7650 -0.3292
  745MOL0     H98281  -0.110   0.958   9.804  0.9111  0.1370 -0.7129
  745MOL0     H98282  -0.080   0.846   9.940 -3.1668  3.4668  1.3195
  745MOL0     H98283  -0.266   0.791   9.705 -0.4980  1.9566  0.0242
  745MOL0     H98284  -0.237   0.685   9.839  0.4948 -1.0978 -1.9300
  745MOL0     H98285  -0.333   0.974   9.880 -1.7976 -0.0923 -0.1425
  745MOL0     H98286  -0.324   0.845  10.001  1.0609  3.7361  1.0259
  745MOL0     H98287  -0.496   0.717   9.884 -0.0459  0.3388  1.7697
  745MOL0     H98288  -0.512   0.858   9.771 -1.0532  1.6305  0.3387
  745MOL0     H98289  -0.516   0.932  10.042  1.1965 -0.6710 -0.1704
  745MOL0     H98290  -0.636   0.966   9.918 -0.8853 -1.5189 -0.4947
  745MOL0     H98291  -0.702   0.802  10.121 -1.4331  0.2652 -0.4362
  745MOL0     H98292  -0.635   0.682  10.027 -2.3880 -0.5816 -0.9152
  745MOL0     H98293  -0.960   0.749  10.094 -0.7946  4.2893  1.8002
  745MOL0     H98294  -1.208   0.756   9.987  1.4195  0.9248  0.3155
  745MOL0     H98295  -1.195   0.685   9.833  0.5228 -1.3394  2.6285
  745MOL0     H98296  -1.158   0.899   9.729  1.0787 -2.2534  0.8797
  745MOL0     H98297  -1.189   0.991   9.877 -1.7688  1.2367 -0.0034
  745MOL0     H98298  -1.393   1.001   9.762 -0.8614  0.6158  1.2685
  745MOL0     H98299  -1.365   0.852   9.684 -0.3336  0.5706 -0.1855
  745MOL0     H98300  -1.436   0.894   9.977  1.2227  0.1942 -0.9276
  745MOL0     H98301  -1.429   0.731   9.892 -1.0623 -0.4196  2.3350
  745MOL0     H98302  -1.562   0.766  10.091 -1.2544  0.0138  3.0432
  745MOL0     H98303  -1.758   0.714  10.224  0.5902  2.6815  0.0709
  745MOL0     H98304  -2.275   0.565   9.938  0.5186 -1.2637  0.8675
  745MOL0     H98305  -2.494   0.480   9.985 -2.4750  2.2437  0.1705
  745MOL0     H98306  -2.656   0.330  10.131  0.3534  1.3891 -0.9001
  745MOL0     H98307  -2.707   0.476  10.037  1.8089  0.2447 -0.4369
  745MOL0     H98308  -2.838   0.416  10.302 -0.0161 -0.5323  0.4024
  745MOL0     H98309  -2.890   0.328  10.150 -3.2577  2.6810  0.9068
  745MOL0     H98310  -2.940   0.526  10.043 -0.6390  0.1286  0.4444
  745MOL0     H98311  -2.900   0.625  10.177 -2.1320  0.6943  0.1356
  745MOL0     H98312  -3.087   0.391  10.225  2.5648  0.0032  0.2886
  745MOL0     H98313  -3.038   0.527  10.337 -0.5548  1.5826  0.9890
  745MOL0     H98314  -3.178   0.589  10.079  0.2277  1.8453  0.1886
  745MOL0     H98315  -3.159   0.691  10.202  2.2482 -0.1800 -0.5489
  745MOL0     H98316  -3.288   0.495  10.355  0.0570 -1.9896  0.5288
  745MOL0     H98317  -3.324   0.427  10.211 -1.0221  1.0713 -1.7128
  745MOL0     H98318  -3.479   0.619  10.313 -0.3523 -0.0680 -1.1936
  745MOL0     H98319  -3.371   0.720  10.211  2.1626  0.4196  1.3504
  745MOL0     H98320  -3.568   0.649  10.082  1.1411  0.8890  0.5890
  745MOL0     H98321  -3.550   0.482  10.140 -1.4493  0.6618 -0.1981
  745MOL0     H98322  -2.501   0.677  10.354  1.1708  1.1091  0.0512
  745MOL0     H98323  -2.285   0.793  10.299  2.4460 -0.3101 -1.2402
  745MOL0     H98324  -2.004   0.768   9.868  2.3756 -0.5514 -2.8732
  745MOL0     H98325  -1.807   0.835   9.758  2.1426 -4.5933 -1.1470
  745MOL0     H98326   0.338   0.655   9.487 -0.8936  3.0234 -1.5359
  745MOL0     H98327   0.581   0.700   9.397 -6.0788  1.3789 -3.4692
  745MOL0     H98328   0.817   1.170   9.263  1.4849  1.6068 -1.7690
  745MOL0     H98329   1.028   1.264   9.221 -1.7719  0.2441 -0.0170
  745MOL0     H98330   1.376   1.154   9.472 -0.2463  0.2684 -0.3110
  745MOL0     H98331   1.447   1.232   9.335  2.5780 -1.2209  3.8140
  745MOL0     H98332   1.338   0.948   9.296 -1.3586  1.1488 -1.7731
  745MOL0     H98333   1.400   1.069   9.179 -1.4155  1.5353  0.0347
  745MOL0     H98334   1.628   1.034   9.276  0.9451  0.4241  1.5520
  745MOL0     H98335   1.561   0.874   9.235 -0.7415  1.0386 -0.4484
  745MOL0     H98336   1.539   0.988   9.517 -1.0748 -2.1522  2.1557
  745MOL0     H98337   1.479   0.832   9.466  0.9810 -1.9154  2.8587
  745MOL0     H98338   1.892   0.783   9.536 -0.7228 -0.5546  1.1784
  745MOL0     H98339   1.204   0.999   9.511  0.6860 -1.2770 -0.3764
  745MOL0     H98340   0.974   0.896   9.542 -0.8633 -1.8025 -1.6149
  746MOL0     O98341   3.581   4.447   9.778 -0.2634 -0.8355 -0.2598
  746MOL0     C98342   3.486   4.428   9.855  0.1683  0.3904 -0.7452
  746MOL0     O98343   3.483   4.461   9.990  0.1158 -0.4337  0.8392
  746MOL0     C98344   3.603   4.506  10.055 -0.6337  0.8637 -0.2341
  746MOL0     C98345   3.723   4.440  10.072 -0.5533  0.3617 -0.2703
  746MOL0     C98346   3.814   4.478  10.177  0.1418  0.2205 -0.0609
  746MOL0     C98347   3.779   4.591  10.259  0.5702 -0.3206 -0.3813
  746MOL0     O98348   3.859   4.620  10.362 -0.7418 -0.2915  0.3546
  746MOL0     C98349   3.951   4.729  10.359  0.3451 -0.6890  1.0008
  746MOL0     C98350   4.099   4.684  10.391  0.0683 -0.9179  0.2657
  746MOL0     C98351   4.160   4.588  10.282 -0.9751  0.4424  0.2124
  746MOL0     C98352   4.303   4.534  10.321  0.6228  0.6208 -0.2638
  746MOL0     C98353   4.398   4.522  10.201  0.3101 -0.6766 -0.6518
  746MOL0     C98354   4.541   4.484  10.239 -0.2517  0.9325  0.3812
  746MOL0     C98355   4.616   4.467  10.106 -0.2079 -0.3600  0.6098
  746MOL0     C98356   4.751   4.407  10.132  0.5839  0.1601  0.0886
  746MOL0     N98357   4.832   4.417  10.009 -0.7197  0.1916 -0.4644
  746MOL0     C98358   4.944   4.345   9.986 -0.5138 -0.6601  0.1827
  746MOL0     C98359   5.005   4.404   9.877 -0.6158  0.2339 -0.5487
  746MOL0     C98360   5.137   4.374   9.824 -0.2390 -0.7235 -0.3750
  746MOL0     C98361   5.245   4.473   9.859 -0.0980 -0.0988  0.2833
  746MOL0     C98362   5.215   4.609   9.795 -0.0882 -0.7701  0.3211
  746MOL0     C98363   5.343   4.705   9.781  0.2593  0.2845  0.3307
  746MOL0     O98364   5.421   4.709   9.904  0.1183  0.4302 -0.2376
  746MOL0     C98365   5.548   4.674   9.899 -0.4149 -0.5063 -0.0807
  746MOL0     C98366   5.592   4.563   9.969 -0.0620  0.7279 -1.0305
  746MOL0     C98367   5.731   4.525   9.970 -0.5046  0.6527  0.2645
  746MOL0     C98368   5.828   4.610   9.915 -0.0076  0.7381  0.5105
  746MOL0     C98369   5.970   4.564   9.903  0.3421  0.9251  0.2295
  746MOL0     O98370   5.991   4.433   9.956  0.5922 -0.2083 -0.1385
  746MOL0     C98371   6.124   4.392   9.948  0.0153 -0.1285 -0.0661
  746MOL0     C98372   6.206   4.396   9.828  0.0925  0.4833  0.2579
  746MOL0     C98373   6.334   4.357   9.837  0.5270  0.5943  0.2315
  746MOL0     C98374   6.398   4.334   9.960  0.1333  0.3795  0.4266
  746MOL0     O98375   6.535   4.311   9.969  0.9215 -0.7304 -0.6874
  746MOL0     C98376   6.591   4.248   9.858  0.2950 -0.4808 -0.4288
  746MOL0     C98377   6.731   4.195   9.903 -1.2239 -0.5507  0.4758
  746MOL0     C98378   6.822   4.317   9.921  0.2666  0.1021 -0.4708
  746MOL0     C98379   6.966   4.279   9.926  0.0073  0.5008 -0.7797
  746MOL0     C98380   6.992   4.188  10.048 -0.2089 -0.5100 -0.1177
  746MOL0     C98381   7.139   4.121  10.030 -0.5194 -0.4153  0.0461
  746MOL0     C98382   7.184   4.071  10.164 -0.1944 -0.2883 -0.0041
  746MOL0     C98383   7.335   4.041  10.158  0.1123  0.4172  0.2310
  746MOL0    Cl98384   7.356   3.902  10.255  0.1989  0.2325  0.5505
  746MOL0     C98385   6.316   4.324  10.075 -0.1793 -0.1456  0.2312
  746MOL0     C98386   6.177   4.343  10.058  0.0196  0.0975 -0.3588
  746MOL0     O98387   6.056   4.649   9.887  0.2202  0.4177 -0.0998
  746MOL0     C98388   5.779   4.733   9.864 -0.1292  0.8897 -0.7561
  746MOL0     C98389   5.646   4.759   9.855 -1.0434 -0.0565 -0.3430
  746MOL0     N98390   4.907   4.484   9.819 -0.0336 -0.8180 -0.1635
  746MOL0     N98391   4.817   4.505   9.906  0.2410 -0.6561  0.2502
  746MOL0     C98392   3.661   4.660  10.231 -0.0293 -0.0461  0.2474
  746MOL0     C98393   3.565   4.611  10.134 -0.8040  0.1467  0.1130
  746MOL0     C98394   3.356   4.376   9.797 -0.6145  0.9083 -1.1003
  746MOL0     C98395   3.240   4.387   9.866 -0.0694  0.0380 -0.3020
  746MOL0     C98396   3.132   4.313   9.838 -1.1496  0.5704 -0.3840
  746MOL0     C98397   3.124   4.244   9.711  1.0154 -0.5814 -0.5613
  746MOL0     O98398   3.022   4.167   9.656  0.6801  0.1355  0.0582
  746MOL0     C98399   2.904   4.146   9.746 -0.6195  0.3591  0.5828
  746MOL0     C98400   2.818   4.032   9.682 -0.2502  0.7109  0.7029
  746MOL0     C98401   2.712   3.968   9.770 -0.1922 -0.2544  0.6081
  746MOL0     C98402   2.617   4.076   9.824  0.2488  0.0219  0.6190
  746MOL0     C98403   2.662   4.144   9.949  0.6931 -0.5695  0.2877
  746MOL0     C98404   2.699   4.213  10.041  0.1358  1.0837 -0.2026
  746MOL0     C98405   3.241   4.234   9.641 -0.6319 -0.6938  0.3142
  746MOL0     C98406   3.361   4.302   9.680 -0.7149 -0.8729  0.4582
  746MOL0     H98407   3.745   4.346  10.023 -0.7552 -0.4289  1.0938
  746MOL0     H98408   3.898   4.413  10.199 -0.3050  0.8408  4.6735
  746MOL0     H98409   3.930   4.804  10.436  1.9916  1.6672 -0.6672
  746MOL0     H98410   3.949   4.786  10.266  0.8124  0.7352  1.8237
  746MOL0     H98411   4.095   4.637  10.490  0.7998 -3.2919 -0.7573
  746MOL0     H98412   4.166   4.770  10.401 -0.5203 -0.4949  0.6745
  746MOL0     H98413   4.168   4.642  10.187 -2.9626 -0.7989 -0.7385
  746MOL0     H98414   4.106   4.495  10.262 -1.6129  0.1421  3.0152
  746MOL0     H98415   4.345   4.618  10.378 -2.7494  2.6240 -0.4241
  746MOL0     H98416   4.294   4.439  10.374  0.9623  1.9865  2.4311
  746MOL0     H98417   4.397   4.621  10.153 -0.2584  1.3853  3.2298
  746MOL0     H98418   4.359   4.450  10.129  0.5200 -1.4206 -0.0349
  746MOL0     H98419   4.542   4.391  10.297  0.0487 -0.8126 -2.2167
  746MOL0     H98420   4.581   4.569  10.295 -0.0902  0.4499  1.0080
  746MOL0     H98421   4.547   4.398  10.056 -2.1225  0.4708  2.0080
  746MOL0     H98422   4.626   4.564  10.056  0.4811  0.6424  2.5922
  746MOL0     H98423   4.737   4.300  10.150  3.6922 -1.0086 -3.2063
  746MOL0     H98424   4.802   4.452  10.217  2.7298  0.6455 -1.3632
  746MOL0     H98425   4.984   4.261  10.043 -0.9484 -0.8885  0.1541
  746MOL0     H98426   5.128   4.350   9.717 -1.8090 -3.6406  0.3175
  746MOL0     H98427   5.165   4.281   9.873 -1.1303 -1.4586 -1.2048
  746MOL0     H98428   5.338   4.436   9.813 -1.5113 -1.1756 -1.8769
  746MOL0     H98429   5.251   4.470   9.968 -0.8817  0.6057  0.3501
  746MOL0     H98430   5.164   4.600   9.699  0.5146 -0.7794 -0.0071
  746MOL0     H98431   5.145   4.661   9.860 -1.5503 -0.4623 -1.4341
  746MOL0     H98432   5.308   4.807   9.761  1.5059  0.9931  1.5786
  746MOL0     H98433   5.406   4.665   9.701  0.0433  0.4241  0.0853
  746MOL0     H98434   5.518   4.507  10.025 -0.5467  2.0051 -0.3414
  746MOL0     H98435   5.745   4.426  10.014  1.5864  0.0117 -1.6563
  746MOL0     H98436   6.169   4.423   9.729  4.3291  0.2600 -1.5869
  746MOL0     H98437   6.394   4.364   9.746 -0.3733  3.4193 -0.2353
  746MOL0     H98438   6.616   4.316   9.777 -0.6303  2.6628  1.7444
  746MOL0     H98439   6.535   4.166   9.813  2.8493 -0.8661 -3.1668
  746MOL0     H98440   6.776   4.135   9.823 -1.8519 -2.0290  1.1841
  746MOL0     H98441   6.730   4.129   9.990  1.1746 -2.1221 -0.5675
  746MOL0     H98442   6.784   4.360  10.014 -1.1099  0.1552 -1.0318
  746MOL0     H98443   6.797   4.390   9.844  1.2944  1.7138  0.6671
  746MOL0     H98444   6.996   4.222   9.838  1.4005  0.5920 -0.3898
  746MOL0     H98445   7.024   4.370   9.910  6.3004 -2.9207 -0.6208
  746MOL0     H98446   6.920   4.109  10.071 -1.3599  0.7179  0.6183
  746MOL0     H98447   6.986   4.259  10.131 -5.0131  0.9508 -1.3937
  746MOL0     H98448   7.211   4.201  10.010  1.5248 -2.2462 -0.2462
  746MOL0     H98449   7.153   4.050   9.948  0.7332 -1.4151  1.0931
  746MOL0     H98450   7.159   4.147  10.239 -0.6967  0.6048 -1.0580
  746MOL0     H98451   7.137   3.975  10.187  1.8847 -1.4969 -0.5083
  746MOL0     H98452   7.391   4.125  10.200 -1.3783  0.8463  1.4273
  746MOL0     H98453   7.364   4.027  10.053 -1.7619 -0.8736 -0.1685
  746MOL0     H98454   6.366   4.307  10.170  0.8695  3.9468  0.5971
  746MOL0     H98455   6.114   4.328  10.144 -0.2624  1.9362 -0.2175
  746MOL0     H98456   5.859   4.793   9.822 -0.4812  0.3100 -2.3289
  746MOL0     H98457   5.614   4.840   9.790  2.7821 -0.4065 -3.0693
  746MOL0     H98458   3.622   4.738  10.295  0.3523 -0.7918  1.4026
  746MOL0     H98459   3.467   4.654  10.117 -0.2040  1.5498  0.0423
  746MOL0     H98460   3.239   4.447   9.956 -0.4049  0.8208 -0.8241
  746MOL0     H98461   3.047   4.324   9.904 -1.1633  2.7928 -0.7152
  746MOL0     H98462   2.849   4.240   9.761 -1.4439 -0.1377  0.7549
  746MOL0     H98463   2.949   4.110   9.839  2.3025  0.0766 -0.8383
  746MOL0     H98464   2.755   4.073   9.603 -1.8796 -0.1730  1.4845
  746MOL0     H98465   2.893   3.960   9.649  1.0935  2.0836  0.6373
  746MOL0     H98466   2.770   3.916   9.846  0.4852 -1.8538 -0.9276
  746MOL0     H98467   2.659   3.892   9.712 -0.3093  1.3362 -1.5095
  746MOL0     H98468   2.585   4.145   9.745 -0.8905  0.3743  1.3691
  746MOL0     H98469   2.524   4.025   9.852  0.2840 -0.1018  0.5112
  746MOL0     H98470   2.742   4.270  10.121  2.1099 -1.2504  0.5282
  746MOL0     H98471   3.243   4.174   9.551  3.7068  1.6253 -1.4331
  746MOL0     H98472   3.455   4.307   9.626  0.5045  3.9048  2.5070
  747MOL0     O98473   4.655   3.521   8.119  0.4561 -0.2697 -0.2026
  747MOL0     C98474   4.764   3.530   8.181  0.2423 -0.6769 -0.2682
  747MOL0     O98475   4.791   3.593   8.302 -0.0994 -0.0835  0.9993
  747MOL0     C98476   4.706   3.695   8.335 -0.1820  0.1737 -0.2176
  747MOL0     C98477   4.747   3.820   8.306 -0.2927 -0.0195 -0.0874
  747MOL0     C98478   4.675   3.938   8.337  0.3456 -0.6925  0.4089
  747MOL0     C98479   4.556   3.935   8.404  0.1632  0.1238 -0.2573
  747MOL0     O98480   4.498   4.052   8.447  0.1457  0.4274  0.3151
  747MOL0     C98481   4.357   4.074   8.430 -0.0378 -0.0979  1.5430
  747MOL0     C98482   4.305   4.132   8.565  0.0409  0.6101 -0.3859
  747MOL0     C98483   4.300   4.007   8.660  0.2883  0.4801 -0.3601
  747MOL0     C98484   4.201   4.021   8.779 -0.4901  0.7017 -0.2402
  747MOL0     C98485   4.199   3.904   8.876 -0.5678  0.6949  0.7059
  747MOL0     C98486   4.093   3.920   8.978 -0.5241 -0.0530  0.4513
  747MOL0     C98487   3.955   3.888   8.925 -0.0163  0.3398  0.5705
  747MOL0     C98488   3.858   4.007   8.931 -0.4324  0.2321  0.2681
  747MOL0     N98489   3.726   3.958   8.886 -0.6312 -0.2693  0.3711
  747MOL0     C98490   3.651   3.873   8.961  0.0565  0.1886  0.9258
  747MOL0     C98491   3.562   3.828   8.868  0.5377 -0.6039  0.9977
  747MOL0     C98492   3.446   3.731   8.885 -0.4031  0.6961 -0.3707
  747MOL0     C98493   3.311   3.770   8.828 -0.3206 -0.2574 -0.7239
  747MOL0     C98494   3.202   3.655   8.828  0.3008  1.2916  0.0940
  747MOL0     C98495   3.067   3.691   8.756  0.3886  0.3172  0.2519
  747MOL0     O98496   2.989   3.577   8.745 -0.1658  0.1756  0.0537
  747MOL0     C98497   2.857   3.582   8.700 -0.1652 -0.6961  0.7148
  747MOL0     C98498   2.777   3.697   8.686 -0.5735 -0.1937 -0.5301
  747MOL0     C98499   2.641   3.703   8.651 -0.8093 -0.2423  0.5558
  747MOL0     C98500   2.580   3.581   8.616  0.1158 -0.2686  0.2745
  747MOL0     C98501   2.428   3.568   8.581  0.4314  0.5764  0.6562
  747MOL0     O98502   2.351   3.676   8.595 -0.6190 -0.1452  0.0859
  747MOL0     C98503   2.216   3.651   8.589  0.4433  0.5471  0.0316
  747MOL0     C98504   2.149   3.589   8.696  0.1362 -1.4899 -0.1649
  747MOL0     C98505   2.008   3.569   8.678  1.1392  0.0370  0.0587
  747MOL0     C98506   1.936   3.592   8.560 -0.2135  0.5924  0.1301
  747MOL0     O98507   1.803   3.558   8.533  0.1800 -0.4272 -0.5583
  747MOL0     C98508   1.705   3.515   8.631 -0.7069  1.2783 -0.2973
  747MOL0     C98509   1.640   3.383   8.587 -0.4308  0.3570 -0.1965
  747MOL0     C98510   1.523   3.367   8.687 -0.2606 -0.0263  0.1426
  747MOL0     C98511   1.465   3.234   8.710  0.3100  0.8237  0.1124
  747MOL0     C98512   1.351   3.259   8.811 -0.1078 -1.0786 -0.6981
  747MOL0     C98513   1.258   3.135   8.817 -0.1903  0.3800  0.1823
  747MOL0     C98514   1.170   3.133   8.933  0.5318 -0.3032 -0.3237
  747MOL0     C98515   1.072   3.258   8.928 -0.1893  0.0385  0.9328
  747MOL0    Cl98516   0.989   3.270   8.763  0.1566  0.5190 -0.0920
  747MOL0     C98517   2.015   3.656   8.454 -0.5310  0.3363 -0.3700
  747MOL0     C98518   2.151   3.678   8.468  0.5064  0.5960 -0.2296
  747MOL0     O98519   2.390   3.463   8.537  0.3720  0.0224 -0.0992
  747MOL0     C98520   2.656   3.462   8.626 -0.2379 -0.1284  0.0293
  747MOL0     C98521   2.786   3.466   8.675  0.5105 -0.0718  0.7339
  747MOL0     N98522   3.573   3.908   8.751  0.0556  0.1037 -0.0764
  747MOL0     N98523   3.670   3.989   8.766  0.2989  0.4723 -0.6531
  747MOL0     C98524   4.492   3.805   8.411 -1.4072 -0.4833  0.3277
  747MOL0     C98525   4.571   3.687   8.378  0.9201 -1.1307 -0.1119
  747MOL0     C98526   4.886   3.490   8.111  0.3046 -0.7051 -0.3759
  747MOL0     C98527   4.889   3.399   8.003 -0.9255  0.6860 -0.1179
  747MOL0     C98528   5.010   3.381   7.930 -0.4376  0.2342  0.3314
  747MOL0     C98529   5.124   3.445   7.974 -1.0709 -0.3198  0.1075
  747MOL0     O98530   5.227   3.426   7.889 -0.6072  0.1289  0.2429
  747MOL0     C98531   5.358   3.457   7.935 -0.7771 -0.3380  0.4152
  747MOL0     C98532   5.409   3.364   8.039 -0.1610  0.4742 -0.6246
  747MOL0     C98533   5.405   3.221   8.007  0.5037  0.1760 -0.6684
  747MOL0     C98534   5.469   3.137   8.121 -0.3987 -0.3013 -0.3217
  747MOL0     C98535   5.614   3.152   8.125 -0.9345  0.5862 -0.3302
  747MOL0     C98536   5.734   3.168   8.114 -0.2963  0.8621 -0.5330
  747MOL0     C98537   5.124   3.532   8.082  0.0608 -0.8038 -0.0629
  747MOL0     C98538   5.005   3.559   8.149 -0.3533 -0.2408 -0.1035
  747MOL0     H98539   4.837   3.821   8.245  0.1263 -1.4945  0.4461
  747MOL0     H98540   4.716   4.038   8.323  0.2166 -0.5077  1.3065
  747MOL0     H98541   4.294   3.988   8.404 -0.8235  1.2943 -1.5327
  747MOL0     H98542   4.341   4.143   8.347  1.2259 -0.3760  1.0461
  747MOL0     H98543   4.205   4.177   8.562 -0.2966  0.2242  2.2302
  747MOL0     H98544   4.380   4.200   8.605  1.3490 -1.1632  0.2799
  747MOL0     H98545   4.398   3.982   8.702  0.7664 -0.1681 -1.7904
  747MOL0     H98546   4.260   3.927   8.596  0.3164  0.2942 -0.1433
  747MOL0     H98547   4.204   4.115   8.833 -1.1215 -0.1125  1.2707
  747MOL0     H98548   4.104   4.028   8.727 -1.0777  1.4992  0.9300
  747MOL0     H98549   4.297   3.887   8.921 -0.2612  0.0826 -0.1633
  747MOL0     H98550   4.184   3.811   8.822 -0.4837  0.9827  0.1744
  747MOL0     H98551   4.098   4.016   9.031 -0.1020 -1.2659  2.7227
  747MOL0     H98552   4.116   3.847   9.055 -0.4776  0.8647  1.3332
  747MOL0     H98553   3.959   3.846   8.824  0.0540 -0.3496  0.8505
  747MOL0     H98554   3.921   3.800   8.980 -0.7093 -0.6150 -1.2999
  747MOL0     H98555   3.900   4.085   8.867  2.0747 -0.7594  0.6023
  747MOL0     H98556   3.855   4.036   9.037 -2.1055 -2.7188  1.1442
  747MOL0     H98557   3.663   3.842   9.065  1.9987 -2.1382  0.1040
  747MOL0     H98558   3.417   3.707   8.988  1.1688  0.4580  0.0348
  747MOL0     H98559   3.478   3.638   8.839 -1.2414  0.0523  0.3193
  747MOL0     H98560   3.323   3.808   8.726  1.0425  0.3413 -0.3658
  747MOL0     H98561   3.264   3.858   8.873 -3.2564 -1.8020 -0.5283
  747MOL0     H98562   3.241   3.575   8.764 -0.8075 -0.1670  1.1975
  747MOL0     H98563   3.179   3.630   8.932  0.6054  4.1904  0.9435
  747MOL0     H98564   3.093   3.722   8.654 -2.3580 -2.0938 -1.3423
  747MOL0     H98565   3.016   3.775   8.805  0.5677  0.0027  0.9886
  747MOL0     H98566   2.818   3.796   8.702  4.2177 -2.3731  3.1522
  747MOL0     H98567   2.594   3.799   8.671  0.3210  0.6379 -0.8256
  747MOL0     H98568   2.195   3.562   8.791 -1.2513 -0.9794  0.6797
  747MOL0     H98569   1.971   3.517   8.766  2.8545  1.0024  1.4206
  747MOL0     H98570   1.622   3.585   8.637 -0.7269  1.1943  0.4753
  747MOL0     H98571   1.752   3.501   8.728 -0.5584 -0.5812 -0.6002
  747MOL0     H98572   1.710   3.301   8.606 -0.2346  0.8503  1.2792
  747MOL0     H98573   1.609   3.379   8.482  1.1634  0.7549 -0.7029
  747MOL0     H98574   1.456   3.449   8.659  1.9946  1.8582 -0.0295
  747MOL0     H98575   1.562   3.394   8.785  0.3628 -2.2066  0.5495
  747MOL0     H98576   1.418   3.205   8.616  1.4265  0.4249 -0.3337
  747MOL0     H98577   1.543   3.162   8.735  1.9825  2.6705  0.5300
  747MOL0     H98578   1.296   3.348   8.781  1.9477  0.7128  0.5932
  747MOL0     H98579   1.402   3.263   8.908  2.4448 -2.8201 -1.8585
  747MOL0     H98580   1.318   3.044   8.823  0.1909  0.3408 -2.8415
  747MOL0     H98581   1.209   3.134   8.720  1.8625  0.6233 -0.9202
  747MOL0     H98582   1.104   3.046   8.919  0.8734 -0.1516 -3.7261
  747MOL0     H98583   1.213   3.120   9.033 -3.2924 -2.3330  1.3069
  747MOL0     H98584   1.132   3.349   8.940  0.5506 -0.5290  1.6647
  747MOL0     H98585   0.995   3.250   9.004  0.6886 -0.5052  1.7887
  747MOL0     H98586   1.965   3.668   8.359 -0.9780  0.5342 -0.1113
  747MOL0     H98587   2.208   3.721   8.386  3.0679 -1.6988  0.1866
  747MOL0     H98588   2.612   3.366   8.602 -0.9294  0.0761  0.4271
  747MOL0     H98589   2.834   3.369   8.687  1.0615 -0.0610 -1.1071
  747MOL0     H98590   4.387   3.797   8.438 -1.8194  1.6667 -0.4758
  747MOL0     H98591   4.521   3.591   8.387 -2.4826  0.4700 -0.2931
  747MOL0     H98592   4.801   3.353   7.961  2.4874 -1.9578 -5.3910
  747MOL0     H98593   5.014   3.319   7.841 -2.2541 -1.6870  1.5096
  747MOL0     H98594   5.375   3.556   7.979  1.7747  0.4222 -1.9623
  747MOL0     H98595   5.420   3.452   7.845  2.2559  1.2865  2.2194
  747MOL0     H98596   5.514   3.385   8.060  0.9770 -4.2768 -0.4461
  747MOL0     H98597   5.343   3.369   8.127  0.1118  2.5061 -0.4776
  747MOL0     H98598   5.473   3.201   7.923  1.5348  0.3227  0.1032
  747MOL0     H98599   5.303   3.189   7.984  0.7715 -0.7566 -0.6238
  747MOL0     H98600   5.419   3.163   8.215 -2.9177 -0.8843 -1.4032
  747MOL0     H98601   5.439   3.032   8.113 -0.8321 -0.1679 -0.4829
  747MOL0     H98602   5.832   3.201   8.086  0.3314  0.1719  0.7738
  747MOL0     H98603   5.211   3.582   8.122  2.2058 -3.5231 -0.9818
  747MOL0     H98604   5.009   3.635   8.226 -2.9704  0.7327 -0.8140
  748MOL0     O98605  10.838   2.327   9.784 -0.0110  0.0103 -0.4977
  748MOL0     C98606  10.859   2.314   9.907 -0.1409  0.0740  0.4849
  748MOL0     O98607  10.766   2.328  10.005  0.5805 -0.6290  0.0613
  748MOL0     C98608  10.638   2.379   9.974 -0.3997 -0.4338  0.2226
  748MOL0     C98609  10.639   2.504   9.917 -0.2993  0.1448  0.6816
  748MOL0     C98610  10.525   2.563   9.877  0.1248  0.4158 -0.1386
  748MOL0     C98611  10.398   2.510   9.904 -0.0753 -0.0387  0.3168
  748MOL0     O98612  10.284   2.570   9.856  0.3290  0.6935  0.1528
  748MOL0     C98613  10.175   2.597   9.944 -0.4682  0.6797 -0.0759
  748MOL0     C98614  10.102   2.709   9.864  0.4615 -0.8238  0.0720
  748MOL0     C98615  10.002   2.797   9.950 -0.8683 -0.7333  0.1214
  748MOL0     C98616  10.033   2.805  10.105 -0.0071  0.0105  0.4510
  748MOL0     C98617   9.920   2.878  10.185 -0.7767 -0.1715 -0.9999
  748MOL0     C98618   9.923   2.831  10.337 -0.8280 -0.3326 -0.6681
  748MOL0     C98619   9.873   2.688  10.353 -0.3266  0.8915 -0.3160
  748MOL0     C98620   9.886   2.649  10.505  1.1253 -0.1693 -0.9058
  748MOL0     N98621   9.758   2.673  10.572 -0.5410 -0.7871  0.3559
  748MOL0     C98622   9.703   2.797  10.609  0.7158 -0.4199 -0.4815
  748MOL0     C98623   9.574   2.779  10.647  0.8560 -0.7684  0.3613
  748MOL0     C98624   9.468   2.891  10.657  0.5662 -0.6747 -0.3296
  748MOL0     C98625   9.490   2.972  10.778 -0.7307 -0.2247 -0.6288
  748MOL0     C98626   9.410   3.101  10.809  0.3142 -0.6575  1.4459
  748MOL0     C98627   9.264   3.075  10.868 -0.2374 -0.1347 -0.0603
  748MOL0     O98628   9.177   2.995  10.777  0.3791 -0.6080 -0.2294
  748MOL0     C98629   9.114   3.062  10.675  0.0461  0.8773 -0.2691
  748MOL0     C98630   9.124   3.200  10.632  0.5894  0.6136 -0.1050
  748MOL0     C98631   9.043   3.260  10.541 -0.3245 -1.1321 -0.0049
  748MOL0     C98632   8.938   3.187  10.492 -0.2173 -0.2040  0.0505
  748MOL0     C98633   8.833   3.237  10.395 -0.2802 -0.7340  0.0052
  748MOL0     O98634   8.742   3.151  10.342 -0.0172  0.1233 -0.2268
  748MOL0     C98635   8.658   3.215  10.249 -0.4229 -0.5030 -0.0076
  748MOL0     C98636   8.529   3.258  10.283  0.0780  0.6276 -0.4160
  748MOL0     C98637   8.441   3.304  10.188  1.0052 -0.3840  0.8011
  748MOL0     C98638   8.465   3.310  10.050  0.0615 -0.2638 -0.5102
  748MOL0     O98639   8.369   3.367   9.966 -1.0390 -0.2427  0.2525
  748MOL0     C98640   8.377   3.348   9.823 -0.0393 -0.5472 -0.9886
  748MOL0     C98641   8.278   3.442   9.753 -0.3154 -0.0008 -0.6998
  748MOL0     C98642   8.270   3.420   9.604  0.0440 -0.4423  0.2546
  748MOL0     C98643   8.161   3.513   9.559  0.5704 -0.0572  0.2365
  748MOL0     C98644   8.159   3.493   9.403  0.5418  0.1879 -0.0858
  748MOL0     C98645   8.037   3.562   9.349  0.4243 -0.1993 -0.0721
  748MOL0     C98646   7.897   3.512   9.376  0.5277  0.2212  0.4529
  748MOL0     C98647   7.851   3.378   9.322 -0.5312 -0.0152 -0.2162
  748MOL0    Cl98648   7.799   3.399   9.158 -0.3798  0.5084 -0.4261
  748MOL0     C98649   8.600   3.280  10.006  0.6133 -1.0052 -0.2495
  748MOL0     C98650   8.689   3.227  10.105  0.7673 -0.2776  0.3528
  748MOL0     O98651   8.826   3.363  10.406 -0.5444  0.8013  0.4544
  748MOL0     C98652   8.926   3.052  10.525  0.9133 -0.7011  0.0643
  748MOL0     C98653   9.011   2.993  10.611  0.2323  0.4114 -1.3413
  748MOL0     N98654   9.551   2.640  10.634 -0.6371 -0.3707  0.5044
  748MOL0     N98655   9.658   2.582  10.588 -0.0302 -0.3754  0.7682
  748MOL0     C98656  10.393   2.393   9.974 -0.2473  0.1616  0.7136
  748MOL0     C98657  10.520   2.332  10.019  0.0211  0.1843  0.3939
  748MOL0     C98658  10.997   2.283   9.959 -0.4872  0.3968 -0.5601
  748MOL0     C98659  11.016   2.248  10.100  0.6313 -0.2488 -0.0160
  748MOL0     C98660  11.140   2.201  10.143 -0.0383 -0.4160  0.5648
  748MOL0     C98661  11.247   2.195  10.056  0.1949 -0.4911 -0.2692
  748MOL0     O98662  11.368   2.148  10.092 -0.0810  0.5982 -1.0752
  748MOL0     C98663  11.405   2.137  10.236 -0.7362 -0.7504  0.6182
  748MOL0     C98664  11.551   2.079  10.235 -0.2225 -0.6358 -0.9331
  748MOL0     C98665  11.668   2.169  10.168 -0.0453 -0.0320 -0.8593
  748MOL0     C98666  11.754   2.099  10.069 -1.5705  0.8862  0.1351
  748MOL0     C98667  11.852   2.002  10.128  0.4192  0.1031  0.9501
  748MOL0     C98668  11.935   1.927  10.167 -0.6399  0.1507  0.6861
  748MOL0     C98669  11.228   2.226   9.922 -0.2294  0.3109 -1.2334
  748MOL0     C98670  11.109   2.280   9.873 -0.0216  1.1196 -0.6739
  748MOL0     H98671  10.736   2.547   9.897  1.3616 -2.5847  2.3115
  748MOL0     H98672  10.526   2.660   9.829 -0.3066  0.7203  0.4502
  748MOL0     H98673  10.220   2.637  10.035  1.5053  1.0184 -1.1387
  748MOL0     H98674  10.115   2.506   9.958 -0.5593  0.6269 -0.7476
  748MOL0     H98675  10.047   2.662   9.782  1.8269 -1.5319 -0.4796
  748MOL0     H98676  10.175   2.778   9.821  2.2039 -1.4715  1.7977
  748MOL0     H98677   9.898   2.765   9.941 -1.6122  1.6276 -0.2243
  748MOL0     H98678   9.996   2.900   9.914 -4.0582 -0.5150  0.9978
  748MOL0     H98679  10.047   2.707  10.152  0.2136  1.5071  3.7883
  748MOL0     H98680  10.126   2.862  10.115 -0.2100  0.8705 -1.9601
  748MOL0     H98681   9.822   2.845  10.150 -0.7373 -1.7724  0.3188
  748MOL0     H98682   9.929   2.987  10.176  0.7267 -0.0599  1.2084
  748MOL0     H98683   9.867   2.900  10.400  0.6916 -0.0164  0.4168
  748MOL0     H98684  10.026   2.850  10.371 -0.9544  1.0040 -1.0116
  748MOL0     H98685   9.770   2.682  10.316 -0.3281 -3.9870 -0.2089
  748MOL0     H98686   9.937   2.621  10.296 -0.9643  0.8125 -0.9601
  748MOL0     H98687   9.966   2.702  10.557 -0.5787 -0.3275  2.1090
  748MOL0     H98688   9.905   2.542  10.506  0.5639 -0.2836  0.7601
  748MOL0     H98689   9.746   2.896  10.602  1.6129 -0.6928  0.8716
  748MOL0     H98690   9.370   2.841  10.658  0.2975 -0.4537 -3.5449
  748MOL0     H98691   9.477   2.946  10.563  1.9469 -0.2525  0.0309
  748MOL0     H98692   9.596   3.000  10.785 -0.9475  0.4036  0.3992
  748MOL0     H98693   9.470   2.909  10.865 -3.1299 -0.5992 -1.3771
  748MOL0     H98694   9.458   3.170  10.879 -1.1091  1.8643  0.0681
  748MOL0     H98695   9.397   3.148  10.711  0.8249 -2.9753  0.1915
  748MOL0     H98696   9.214   3.171  10.881  0.0420 -0.0694  0.5862
  748MOL0     H98697   9.278   3.036  10.970 -1.6959  0.0506  0.2328
  748MOL0     H98698   9.214   3.248  10.668  1.6866 -0.5246 -1.2288
  748MOL0     H98699   9.038   3.365  10.517 -3.0401 -1.8714 -3.4957
  748MOL0     H98700   8.500   3.246  10.387  1.0247  0.9988 -0.0979
  748MOL0     H98701   8.340   3.326  10.222  1.1732 -1.0266  1.7463
  748MOL0     H98702   8.362   3.242   9.800  1.0419 -1.5540  2.4021
  748MOL0     H98703   8.477   3.376   9.788  0.0810  0.3044  0.0223
  748MOL0     H98704   8.312   3.544   9.776  1.2478 -0.1911 -2.0182
  748MOL0     H98705   8.184   3.416   9.803  2.4317 -5.1148  2.5602
  748MOL0     H98706   8.252   3.315   9.578 -0.7586 -0.2323 -0.0660
  748MOL0     H98707   8.371   3.446   9.571 -0.1175  1.3468  1.0901
  748MOL0     H98708   8.067   3.491   9.610  0.2405  0.6035 -0.0783
  748MOL0     H98709   8.206   3.608   9.590 -1.2943  0.7847  0.4672
  748MOL0     H98710   8.151   3.390   9.369  3.2522  0.0747 -0.6182
  748MOL0     H98711   8.245   3.541   9.355 -0.3616  1.2354 -0.7015
  748MOL0     H98712   8.048   3.563   9.240 -0.6172  0.4128 -0.1760
  748MOL0     H98713   8.045   3.664   9.387  1.1950 -0.7493  1.2890
  748MOL0     H98714   7.882   3.510   9.484 -2.0345  1.3196  0.1875
  748MOL0     H98715   7.832   3.593   9.341  1.5469  0.1371 -1.8208
  748MOL0     H98716   7.762   3.339   9.373 -0.6275  1.9475  1.2241
  748MOL0     H98717   7.933   3.306   9.326  0.8682  1.2105 -3.3957
  748MOL0     H98718   8.638   3.284   9.904  0.4955 -2.3559 -0.3640
  748MOL0     H98719   8.791   3.203  10.077 -0.4717 -1.6049 -3.8238
  748MOL0     H98720   8.859   2.990  10.466 -1.6340  1.1700  0.8055
  748MOL0     H98721   8.995   2.890  10.642  1.6302  1.6900  5.1542
  748MOL0     H98722  10.291   2.360   9.993 -0.3396 -0.9353 -1.4192
  748MOL0     H98723  10.526   2.246  10.084  0.8241 -0.1853 -0.1527
  748MOL0     H98724  10.932   2.242  10.168  0.3471  2.0908 -0.0954
  748MOL0     H98725  11.145   2.161  10.243 -1.5529 -1.4507  0.2414
  748MOL0     H98726  11.349   2.079  10.310 -0.1025 -0.2170  1.5345
  748MOL0     H98727  11.396   2.240  10.273  0.2525  0.2154 -1.6593
  748MOL0     H98728  11.584   2.065  10.339 -0.0789 -0.8289 -1.0045
  748MOL0     H98729  11.550   1.976  10.198 -3.3434 -0.3949 -1.8053
  748MOL0     H98730  11.729   2.209  10.250  1.1250 -0.4555 -1.4902
  748MOL0     H98731  11.628   2.258  10.119  0.3257  0.8973  0.4574
  748MOL0     H98732  11.689   2.040  10.004 -1.2194 -0.9017  1.3204
  748MOL0     H98733  11.796   2.178  10.006 -2.0794  0.2476 -1.0258
  748MOL0     H98734  12.009   1.875  10.225  0.0603 -0.4958 -0.7384
  748MOL0     H98735  11.309   2.220   9.851  1.4549  1.9298  0.4325
  748MOL0     H98736  11.102   2.315   9.770  0.9575 -1.3527 -1.6802
  749MOL0     O98737   7.044   6.462   0.793  0.5757 -0.2423  0.2531
  749MOL0     C98738   6.974   6.558   0.834  0.2321  0.5664  0.3481
  749MOL0     O98739   6.976   6.681   0.787  0.1011  0.5334  0.4249
  749MOL0     C98740   7.061   6.715   0.684  0.5739  0.6428  0.5157
  749MOL0     C98741   7.193   6.756   0.721  0.3451 -0.8713 -0.1143
  749MOL0     C98742   7.281   6.797   0.620 -0.2148 -0.1646 -0.7313
  749MOL0     C98743   7.240   6.785   0.487 -0.1413  0.3695 -0.4387
  749MOL0     O98744   7.322   6.830   0.396 -0.4150  0.3605  0.4718
  749MOL0     C98745   7.286   6.803   0.253  0.0755 -0.4913 -0.3099
  749MOL0     C98746   7.406   6.838   0.161 -0.2610  0.1127  0.1973
  749MOL0     C98747   7.401   6.798   0.014 -0.0563  0.7869 -0.0143
  749MOL0     C98748   7.532   6.850  -0.051 -0.5028  0.2576  0.2235
  749MOL0     C98749   7.673   6.828   0.009 -0.7180  0.3943  0.5952
  749MOL0     C98750   7.783   6.882  -0.075 -0.4722  0.6642  0.2300
  749MOL0     C98751   7.912   6.886  -0.002  0.5201 -0.7689 -0.4828
  749MOL0     C98752   8.016   6.952  -0.101 -0.7734 -0.4613  0.5254
  749MOL0     N98753   7.993   7.093  -0.128  0.1692 -0.5203 -0.2712
  749MOL0     C98754   8.055   7.194  -0.067 -0.0960 -0.2668 -0.2280
  749MOL0     C98755   8.024   7.305  -0.141  0.3555 -0.6989 -0.1838
  749MOL0     C98756   8.089   7.446  -0.118  1.2006  0.6928  0.5273
  749MOL0     C98757   7.982   7.548  -0.075  0.1536 -0.3782 -0.1787
  749MOL0     C98758   7.978   7.562   0.078 -0.5302 -0.2917  0.3453
  749MOL0     C98759   7.874   7.664   0.131  0.6852 -0.2103 -0.1804
  749MOL0     O98760   7.926   7.798   0.127  0.3332 -0.4507 -0.0533
  749MOL0     C98761   7.849   7.902   0.184 -0.8288  0.3736  0.5867
  749MOL0     C98762   7.753   7.887   0.276 -0.2890 -0.6550  0.0693
  749MOL0     C98763   7.704   8.001   0.330  0.6911  0.5641  0.7232
  749MOL0     C98764   7.738   8.125   0.283  0.2513 -0.3698 -0.7542
  749MOL0     C98765   7.650   8.247   0.326 -0.2490  0.3204  0.1421
  749MOL0     O98766   7.670   8.360   0.268  0.2836 -0.5481  0.2614
  749MOL0     C98767   7.565   8.439   0.231  0.1397 -0.3630 -0.8167
  749MOL0     C98768   7.603   8.578   0.229 -0.4016  0.5908  0.0569
  749MOL0     C98769   7.512   8.669   0.183 -0.5533 -0.3540  0.1825
  749MOL0     C98770   7.394   8.636   0.130  0.4442 -0.1901  0.3064
  749MOL0     O98771   7.330   8.751   0.097 -0.2982  0.8517 -0.5458
  749MOL0     C98772   7.191   8.745   0.121 -0.4794  0.4721  0.0527
  749MOL0     C98773   7.137   8.893   0.130  0.2130  0.4036 -0.0441
  749MOL0     C98774   6.988   8.896   0.116 -0.0342  0.5672 -0.8971
  749MOL0     C98775   6.938   9.041   0.135  0.0624  0.1992 -0.8047
  749MOL0     C98776   6.781   9.056   0.132  0.4248  0.3163 -0.1965
  749MOL0     C98777   6.753   9.199   0.089  0.8688 -0.5546  0.2775
  749MOL0     C98778   6.606   9.240   0.120 -0.5965  0.2943 -0.8508
  749MOL0     C98779   6.606   9.389   0.101  0.2718  0.1749  0.8636
  749MOL0    Cl98780   6.426   9.438   0.087 -0.4209  0.2706 -0.3700
  749MOL0     C98781   7.362   8.494   0.122 -0.5341 -1.2778  0.7198
  749MOL0     C98782   7.447   8.405   0.170 -0.6789  1.0070 -0.7016
  749MOL0     O98783   7.570   8.228   0.420 -0.3400 -0.0721  0.0696
  749MOL0     C98784   7.836   8.142   0.188  0.3355 -1.2139  0.4484
  749MOL0     C98785   7.891   8.025   0.140 -0.5601  0.3064  0.9580
  749MOL0     N98786   7.925   7.268  -0.232  0.2623 -0.3304  0.5954
  749MOL0     N98787   7.922   7.139  -0.230  0.8564 -0.0082 -0.0606
  749MOL0     C98788   7.108   6.738   0.453 -0.1467 -0.0676 -0.0589
  749MOL0     C98789   7.014   6.702   0.557  0.6936 -0.4541 -0.6142
  749MOL0     C98790   6.869   6.530   0.932  0.5299  0.1741  0.0174
  749MOL0     C98791   6.799   6.634   0.995 -0.3134 -0.4274 -0.5118
  749MOL0     C98792   6.697   6.617   1.081  0.2931  0.9039 -0.3599
  749MOL0     C98793   6.646   6.483   1.110  0.4578 -0.5636  0.3312
  749MOL0     O98794   6.540   6.474   1.199  0.2086  0.2343 -0.0213
  749MOL0     C98795   6.462   6.353   1.212  0.6431  0.0680 -0.2457
  749MOL0     C98796   6.501   6.233   1.305  0.6370 -0.2119  1.1529
  749MOL0     C98797   6.483   6.283   1.450  0.2189  0.0995 -0.2570
  749MOL0     C98798   6.491   6.153   1.531  0.4060 -1.0203 -0.3396
  749MOL0     C98799   6.532   6.181   1.674  0.3064 -0.1594  0.0706
  749MOL0     C98800   6.551   6.206   1.788  0.7726 -0.3105 -0.3990
  749MOL0     C98801   6.716   6.378   1.053  0.3860  0.2771 -0.1525
  749MOL0     C98802   6.829   6.400   0.967  0.5699 -1.2642 -0.4484
  749MOL0     H98803   7.213   6.768   0.827 -1.5599  1.6346  0.0504
  749MOL0     H98804   7.374   6.848   0.643 -1.2656  1.3640  0.3074
  749MOL0     H98805   7.204   6.865   0.217  2.0336  2.9787  0.7072
  749MOL0     H98806   7.272   6.696   0.240 -1.0071 -0.5003  0.7620
  749MOL0     H98807   7.484   6.785   0.216 -0.4278  0.6903  1.0208
  749MOL0     H98808   7.421   6.947   0.157  1.4413 -0.1016  0.2112
  749MOL0     H98809   7.309   6.824  -0.039 -0.0481  0.0666 -0.3838
  749MOL0     H98810   7.409   6.690   0.009  0.8997  0.7502  1.5511
  749MOL0     H98811   7.528   6.807  -0.152  0.0161 -1.9909  1.0780
  749MOL0     H98812   7.529   6.959  -0.055  1.6167  0.3341 -2.7881
  749MOL0     H98813   7.696   6.727   0.044  2.7859  0.5736 -0.7121
  749MOL0     H98814   7.682   6.882   0.103  2.8851 -1.2499  1.3554
  749MOL0     H98815   7.747   6.983  -0.097 -3.4137  0.4456  3.2704
  749MOL0     H98816   7.786   6.832  -0.172  0.8204  0.0931  0.5523
  749MOL0     H98817   7.891   6.942   0.089 -0.2730 -1.2068 -0.3831
  749MOL0     H98818   7.943   6.789   0.039  1.0802 -0.4665 -0.1955
  749MOL0     H98819   8.021   6.893  -0.194  1.9824 -2.2875  1.6811
  749MOL0     H98820   8.117   6.953  -0.059  0.0970  0.0233 -1.4311
  749MOL0     H98821   8.127   7.184   0.014 -0.5028  1.5400  0.4064
  749MOL0     H98822   8.119   7.479  -0.218 -1.5454 -0.0747 -0.6621
  749MOL0     H98823   8.175   7.447  -0.051  2.4011  0.6491 -0.9550
  749MOL0     H98824   7.886   7.522  -0.119 -0.3375  0.9832  0.0677
  749MOL0     H98825   8.014   7.645  -0.112  2.8095 -1.2867 -0.4877
  749MOL0     H98826   7.937   7.466   0.111  1.5223 -2.1173 -2.0794
  749MOL0     H98827   8.080   7.579   0.113  0.7158  0.9363 -3.4792
  749MOL0     H98828   7.868   7.659   0.240  0.9607  1.8651 -0.0263
  749MOL0     H98829   7.769   7.663   0.100 -0.0415  3.8469  1.4901
  749MOL0     H98830   7.716   7.796   0.322  0.3352 -0.3617  1.1918
  749MOL0     H98831   7.621   7.999   0.401 -0.5276  0.6162 -0.6484
  749MOL0     H98832   7.695   8.612   0.276 -0.8200  0.4287  1.0157
  749MOL0     H98833   7.547   8.771   0.188 -1.2480 -0.1723  2.9205
  749MOL0     H98834   7.177   8.698   0.219  2.2443  1.1604  0.8683
  749MOL0     H98835   7.141   8.690   0.042  0.4707 -1.8896  0.9946
  749MOL0     H98836   7.181   8.943   0.043  1.4158 -1.9756 -0.9076
  749MOL0     H98837   7.170   8.944   0.221 -0.3103  0.5144  0.0811
  749MOL0     H98838   6.940   8.833   0.191 -0.7912  0.1423 -1.7312
  749MOL0     H98839   6.957   8.850   0.022 -0.5479  0.9607 -0.9219
  749MOL0     H98840   6.975   9.078   0.231 -0.3469  1.5448 -1.1301
  749MOL0     H98841   6.981   9.099   0.052 -0.3236 -1.9989 -2.6486
  749MOL0     H98842   6.731   9.031   0.227 -2.0300 -0.0194 -1.4957
  749MOL0     H98843   6.741   8.982   0.062 -1.8174  0.4077  0.8866
  749MOL0     H98844   6.762   9.218  -0.018 -4.0347  3.1141  0.1593
  749MOL0     H98845   6.820   9.265   0.144 -4.0902  2.0960  3.9861
  749MOL0     H98846   6.530   9.190   0.060 -2.3682  1.6005  0.2211
  749MOL0     H98847   6.585   9.223   0.226  2.3601  0.6628 -0.1114
  749MOL0     H98848   6.654   9.422   0.009 -1.7701  3.3936  0.8007
  749MOL0     H98849   6.653   9.434   0.189 -2.0212  0.2223  2.1648
  749MOL0     H98850   7.268   8.461   0.079 -0.0907 -2.6699  0.7869
  749MOL0     H98851   7.405   8.305   0.175 -3.4052  2.1102  1.0941
  749MOL0     H98852   7.865   8.244   0.165 -4.3963 -0.0972 -1.6783
  749MOL0     H98853   7.970   8.029   0.066 -1.3517  0.6510  0.1186
  749MOL0     H98854   7.080   6.719   0.349  0.3631 -1.2526  0.0028
  749MOL0     H98855   6.913   6.679   0.524  0.2050  3.7594 -2.7172
  749MOL0     H98856   6.835   6.735   0.978  2.0437 -1.0245  0.5493
  749MOL0     H98857   6.651   6.699   1.135  0.4727  0.7653  0.0095
  749MOL0     H98858   6.441   6.312   1.114  0.6228  1.2664 -0.7649
  749MOL0     H98859   6.367   6.401   1.236 -0.3121 -1.3451 -1.1034
  749MOL0     H98860   6.429   6.154   1.281 -0.8704  2.2493 -3.7993
  749MOL0     H98861   6.599   6.189   1.285  0.5323  0.8371 -2.2684
  749MOL0     H98862   6.386   6.328   1.475 -0.0788 -0.8377  0.3346
  749MOL0     H98863   6.563   6.353   1.476 -0.6910  0.9434  0.3514
  749MOL0     H98864   6.398   6.096   1.523  0.0720 -0.9139  2.0286
  749MOL0     H98865   6.577   6.095   1.496  1.6417 -0.6230  1.8072
  749MOL0     H98866   6.545   6.243   1.888  0.4381 -2.3565  0.3722
  749MOL0     H98867   6.678   6.278   1.067  0.5778  0.4746  2.2570
  749MOL0     H98868   6.880   6.315   0.922 -0.8678 -2.5380  0.2335
  750MOL0     O98869   0.843   1.200   4.120 -0.1649  0.6018  0.2440
  750MOL0     C98870   0.913   1.281   4.063  0.2214 -0.7437  0.4419
  750MOL0     O98871   0.872   1.380   3.979  0.5536 -0.5879 -0.6423
  750MOL0     C98872   0.737   1.403   3.966 -0.7142  0.3907 -0.5518
  750MOL0     C98873   0.680   1.523   4.009 -0.9799 -0.2838 -0.6366
  750MOL0     C98874   0.543   1.547   4.008 -0.3236  0.2220  0.2454
  750MOL0     C98875   0.463   1.443   3.956  0.3784  0.1283 -1.0741
  750MOL0     O98876   0.325   1.451   3.973 -0.7631  0.2071  0.1967
  750MOL0     C98877   0.275   1.518   4.089 -0.1892 -0.5692 -0.0375
  750MOL0     C98878   0.122   1.480   4.085 -0.0425  0.7789  0.1947
  750MOL0     C98879   0.048   1.553   4.189 -1.0150  0.0988 -0.6915
  750MOL0     C98880  -0.104   1.527   4.158  0.2652  0.2138 -0.1173
  750MOL0     C98881  -0.175   1.514   4.292 -0.1046 -0.5021 -0.3108
  750MOL0     C98882  -0.326   1.530   4.287 -0.4252  0.1160  0.8875
  750MOL0     C98883  -0.401   1.465   4.401  0.5843 -0.7178  0.7362
  750MOL0     C98884  -0.368   1.505   4.540 -0.2148 -0.7650  1.2761
  750MOL0     N98885  -0.431   1.419   4.643  0.1433 -0.1748 -0.1818
  750MOL0     C98886  -0.413   1.286   4.671  0.8329  0.0823  0.7100
  750MOL0     C98887  -0.519   1.245   4.752  0.0980 -0.1965  0.0539
  750MOL0     C98888  -0.542   1.102   4.799 -0.8428 -0.4340  0.2423
  750MOL0     C98889  -0.597   1.025   4.680 -0.2237 -0.1405  0.3271
  750MOL0     C98890  -0.725   1.076   4.622  0.7740 -0.0228  0.5037
  750MOL0     C98891  -0.840   1.074   4.727  0.5008 -0.5065  0.0192
  750MOL0     O98892  -0.905   0.941   4.724 -0.5580  0.2666  0.3532
  750MOL0     C98893  -1.024   0.910   4.793  1.2489 -0.6902 -0.6842
  750MOL0     C98894  -1.141   0.978   4.767 -0.4043 -0.6299 -0.7949
  750MOL0     C98895  -1.251   0.967   4.860 -0.1161  1.3923  0.3183
  750MOL0     C98896  -1.245   0.875   4.967  0.2697 -0.6858  0.6505
  750MOL0     C98897  -1.356   0.853   5.064  0.0552  0.8970  0.3890
  750MOL0     O98898  -1.346   0.743   5.154 -0.4971 -1.1324 -0.0537
  750MOL0     C98899  -1.440   0.716   5.252  0.2570 -0.3406 -0.3852
  750MOL0     C98900  -1.476   0.805   5.355 -0.6545 -0.2551 -0.2748
  750MOL0     C98901  -1.565   0.758   5.450 -0.3208  0.1367 -0.7115
  750MOL0     C98902  -1.625   0.644   5.443  0.4849 -0.7126  0.2430
  750MOL0     O98903  -1.688   0.598   5.552 -0.5473  0.0792 -0.6519
  750MOL0     C98904  -1.810   0.526   5.543  0.4766 -0.3868 -0.6114
  750MOL0     C98905  -1.877   0.526   5.683  0.0025  0.5713  0.0019
  750MOL0     C98906  -2.007   0.447   5.693  0.3660 -0.6152  0.0592
  750MOL0     C98907  -2.058   0.412   5.822  0.3646 -0.0024 -0.2139
  750MOL0     C98908  -2.200   0.348   5.819  0.7269  0.6110  0.7492
  750MOL0     C98909  -2.234   0.305   5.955 -0.1162  0.6258 -0.9189
  750MOL0     C98910  -2.363   0.226   5.990  0.0020  0.0063  0.5421
  750MOL0     C98911  -2.366   0.081   5.936  0.0824 -0.0369 -0.1718
  750MOL0    Cl98912  -2.518  -0.009   5.974  0.0810 -0.1882 -0.3834
  750MOL0     C98913  -1.594   0.556   5.340  0.2397 -1.0249 -0.0916
  750MOL0     C98914  -1.490   0.587   5.251 -0.5508 -0.4703 -0.1342
  750MOL0     O98915  -1.452   0.928   5.054 -0.4660 -1.0272  0.8404
  750MOL0     C98916  -1.123   0.814   4.991  1.1198  0.7123 -0.6923
  750MOL0     C98917  -1.020   0.824   4.901  0.7504  0.6754  0.1795
  750MOL0     N98918  -0.586   1.363   4.789 -0.1141  0.7942 -1.0795
  750MOL0     N98919  -0.543   1.454   4.716 -0.7594 -1.0477 -0.2135
  750MOL0     C98920   0.512   1.323   3.909  1.6389 -1.0525 -0.2222
  750MOL0     C98921   0.643   1.307   3.910 -0.8428 -0.3451  0.3983
  750MOL0     C98922   1.055   1.277   4.094  0.3521  0.2213  0.2325
  750MOL0     C98923   1.119   1.151   4.136 -0.1905 -0.5648  0.1207
  750MOL0     C98924   1.257   1.156   4.171  0.3116  0.3977  0.0957
  750MOL0     C98925   1.330   1.268   4.169  0.7019  0.2397  0.0653
  750MOL0     O98926   1.456   1.260   4.205  0.5238 -0.0057 -0.4348
  750MOL0     C98927   1.545   1.265   4.088  0.1734  0.3008 -0.4437
  750MOL0     C98928   1.691   1.249   4.113  0.2774  0.5822  0.1676
  750MOL0     C98929   1.715   1.108   4.174  0.5288  0.8589  0.1912
  750MOL0     C98930   1.846   1.086   4.250 -0.0490 -0.5691 -0.4107
  750MOL0     C98931   1.954   1.136   4.170  0.1611  0.2376 -0.1610
  750MOL0     C98932   2.044   1.173   4.100 -0.6623 -0.7445 -0.1751
  750MOL0     C98933   1.270   1.391   4.134  0.2209 -1.0547 -0.5586
  750MOL0     C98934   1.131   1.396   4.093  0.0789  0.5683  0.1583
  750MOL0     H98935   0.758   1.596   4.029  1.8224 -3.6966  2.4531
  750MOL0     H98936   0.507   1.646   4.033  0.9794  1.2922 -1.8597
  750MOL0     H98937   0.302   1.624   4.082  0.1393 -0.6308  0.2758
  750MOL0     H98938   0.325   1.474   4.175  0.4952  0.0235 -0.1289
  750MOL0     H98939   0.102   1.375   4.109 -2.6009  1.8930  3.7703
  750MOL0     H98940   0.086   1.513   3.987 -1.4334 -2.4335 -0.5094
  750MOL0     H98941   0.085   1.655   4.197  0.3994 -0.5117  1.4521
  750MOL0     H98942   0.056   1.511   4.290 -5.8327 -1.1078 -0.5645
  750MOL0     H98943  -0.146   1.609   4.098 -0.4711 -0.5705 -0.6838
  750MOL0     H98944  -0.131   1.440   4.098  3.6782 -0.1950 -1.3216
  750MOL0     H98945  -0.142   1.595   4.357  1.9234  0.7700 -2.7189
  750MOL0     H98946  -0.158   1.417   4.340 -1.2431  0.2664  1.7616
  750MOL0     H98947  -0.362   1.489   4.192 -0.9583  0.9725  0.7089
  750MOL0     H98948  -0.342   1.638   4.288  0.9013  0.3275  1.7283
  750MOL0     H98949  -0.508   1.467   4.381  1.2655 -0.4222 -4.1229
  750MOL0     H98950  -0.358   1.364   4.408  0.0705 -0.9064  1.2242
  750MOL0     H98951  -0.400   1.609   4.548 -0.6853 -0.6569 -1.1485
  750MOL0     H98952  -0.261   1.497   4.562  0.4630 -3.6597 -2.1632
  750MOL0     H98953  -0.327   1.230   4.637 -0.4552 -1.9165  0.5294
  750MOL0     H98954  -0.598   1.094   4.893  2.4414  2.5564  2.7054
  750MOL0     H98955  -0.448   1.051   4.822 -0.4838 -0.9797 -2.1643
  750MOL0     H98956  -0.604   0.927   4.730 -0.1739 -0.8948 -1.1066
  750MOL0     H98957  -0.530   1.013   4.595  1.4435 -0.4749  1.6128
  750MOL0     H98958  -0.729   1.180   4.587 -0.2136 -0.9752 -2.4394
  750MOL0     H98959  -0.740   1.011   4.536  3.8351  0.0238 -0.1664
  750MOL0     H98960  -0.924   1.138   4.699 -1.6174 -3.9603 -2.3094
  750MOL0     H98961  -0.812   1.097   4.830  0.2240 -3.2060  0.7910
  750MOL0     H98962  -1.142   1.054   4.690  2.1137 -0.1861 -0.4553
  750MOL0     H98963  -1.333   1.036   4.843  1.8470  3.2215 -2.7685
  750MOL0     H98964  -1.431   0.904   5.358 -0.5496 -0.3058 -0.0965
  750MOL0     H98965  -1.587   0.822   5.535  1.8648 -1.3774  1.1075
  750MOL0     H98966  -1.805   0.422   5.510  1.4923 -0.5146 -0.0772
  750MOL0     H98967  -1.878   0.577   5.474 -0.7401  0.7953  1.3499
  750MOL0     H98968  -1.895   0.624   5.726 -0.7961  0.5081 -0.1851
  750MOL0     H98969  -1.812   0.464   5.745  0.8537  3.0824  1.7755
  750MOL0     H98970  -1.993   0.353   5.639  3.6954 -0.1751 -0.1042
  750MOL0     H98971  -2.080   0.510   5.642  0.5273 -0.6623 -0.2328
  750MOL0     H98972  -1.988   0.344   5.871  0.8427  0.5833 -0.0728
  750MOL0     H98973  -2.071   0.503   5.882 -1.2772  0.9395 -1.8644
  750MOL0     H98974  -2.186   0.262   5.753  0.5315  2.3131 -1.6101
  750MOL0     H98975  -2.273   0.418   5.777  0.7875 -0.6535 -1.6424
  750MOL0     H98976  -2.232   0.396   6.016  0.3087 -1.2759  2.0940
  750MOL0     H98977  -2.157   0.238   5.994 -0.3336 -0.8120 -2.8245
  750MOL0     H98978  -2.361   0.218   6.099  1.6598  0.1849  0.5435
  750MOL0     H98979  -2.459   0.276   5.972  0.1930 -0.0262 -0.6224
  750MOL0     H98980  -2.275   0.028   5.966 -0.6302 -1.2194 -0.0258
  750MOL0     H98981  -2.363   0.093   5.827  1.3217  0.1680 -0.1330
  750MOL0     H98982  -1.643   0.459   5.341  1.3924 -1.6453  1.3241
  750MOL0     H98983  -1.460   0.526   5.166  0.4230 -1.1713  0.6826
  750MOL0     H98984  -1.115   0.758   5.084 -0.8216  0.3878 -0.6846
  750MOL0     H98985  -0.927   0.788   4.943  0.5689 -1.7902 -1.3345
  750MOL0     H98986   0.447   1.243   3.878  1.9143 -0.6504 -1.9089
  750MOL0     H98987   0.682   1.213   3.873  1.6810  0.6734  0.2252
  750MOL0     H98988   1.054   1.063   4.136 -3.8870  1.9272 -0.9592
  750MOL0     H98989   1.303   1.064   4.204 -1.2939 -0.6083 -0.3764
  750MOL0     H98990   1.529   1.356   4.030  0.5032 -0.3390 -1.5670
  750MOL0     H98991   1.512   1.184   4.023  0.7495  0.3858 -0.8484
  750MOL0     H98992   1.748   1.256   4.021 -2.8000  1.7693 -1.8084
  750MOL0     H98993   1.715   1.334   4.179  0.7538  0.8260 -0.3186
  750MOL0     H98994   1.709   1.035   4.093  1.2310  1.6327 -0.5725
  750MOL0     H98995   1.638   1.086   4.250  1.8173  0.7127  1.4943
  750MOL0     H98996   1.841   1.135   4.348  2.5129  0.8220 -0.8668
  750MOL0     H98997   1.872   0.981   4.267  1.8752  0.0136  0.5307
  750MOL0     H98998   2.131   1.209   4.047  0.3610 -0.0950  1.8541
  750MOL0     H98999   1.335   1.478   4.130 -0.7589 -0.2031  0.9080
  750MOL0     H99000   1.090   1.492   4.064 -1.4005  0.7955  2.7079
  751MOL0     O99001   7.569   1.430   7.613  0.4419  0.0241 -0.7599
  751MOL0     C99002   7.453   1.461   7.645 -0.1112 -0.2329  0.7122
  751MOL0     O99003   7.343   1.391   7.627  0.0745  0.0507  0.3705
  751MOL0     C99004   7.354   1.265   7.579 -0.3695  0.1082 -0.3511
  751MOL0     C99005   7.398   1.225   7.446 -0.4803  0.5247 -0.1249
  751MOL0     C99006   7.405   1.095   7.401 -0.3859 -0.8054  0.9289
  751MOL0     C99007   7.377   0.989   7.481  0.3995 -0.4116  0.2387
  751MOL0     O99008   7.365   0.856   7.439 -0.5357 -0.0658  0.3509
  751MOL0     C99009   7.423   0.831   7.311 -0.0872 -0.1932  0.7403
  751MOL0     C99010   7.450   0.677   7.295  0.2993  0.4937 -0.0345
  751MOL0     C99011   7.561   0.637   7.396  0.5330 -0.6302 -0.3748
  751MOL0     C99012   7.637   0.508   7.372  0.8442 -0.8482 -0.6252
  751MOL0     C99013   7.721   0.496   7.247 -0.2089  0.2831  0.1984
  751MOL0     C99014   7.799   0.365   7.235  0.2396  0.1921  0.3694
  751MOL0     C99015   7.717   0.234   7.250 -0.5011  0.5167 -0.3430
  751MOL0     C99016   7.653   0.196   7.121  0.6698  0.1788 -0.3072
  751MOL0     N99017   7.580   0.073   7.144  0.2168  0.0120  0.2082
  751MOL0     C99018   7.639  -0.049   7.150 -0.9931  0.4219 -1.3844
  751MOL0     C99019   7.543  -0.136   7.184  0.0466 -0.4771 -0.5960
  751MOL0     C99020   7.562  -0.291   7.203 -0.0360 -0.4582 -0.0161
  751MOL0     C99021   7.470  -0.338   7.319 -0.5550  0.2428 -0.4969
  751MOL0     C99022   7.486  -0.485   7.355 -0.1768  0.6583  1.0148
  751MOL0     C99023   7.358  -0.561   7.399 -0.1714  0.1801 -0.3632
  751MOL0     O99024   7.292  -0.497   7.516  0.4960 -0.1769  0.1157
  751MOL0     C99025   7.157  -0.536   7.529 -0.2686  0.1983 -0.1633
  751MOL0     C99026   7.117  -0.656   7.581 -1.2979  0.4698 -0.5844
  751MOL0     C99027   6.986  -0.683   7.614  0.4574 -1.1999  0.2769
  751MOL0     C99028   6.891  -0.582   7.600  0.1176  0.2544 -0.2831
  751MOL0     C99029   6.749  -0.604   7.630  0.9868  0.0532  0.8775
  751MOL0     O99030   6.658  -0.504   7.592 -0.5898  0.7657 -0.3440
  751MOL0     C99031   6.537  -0.505   7.653 -0.0452 -1.0888  0.6723
  751MOL0     C99032   6.460  -0.613   7.686  0.0833  0.2345  0.2383
  751MOL0     C99033   6.327  -0.597   7.726  0.2557 -0.3221  0.6244
  751MOL0     C99034   6.273  -0.467   7.732 -0.3940  0.2782 -0.7144
  751MOL0     O99035   6.144  -0.471   7.776  0.0291  0.5404  0.1654
  751MOL0     C99036   6.071  -0.347   7.780  0.2468  0.1751 -0.4547
  751MOL0     C99037   5.959  -0.345   7.887 -0.6264  0.7643  0.2922
  751MOL0     C99038   5.820  -0.307   7.844  0.3844 -0.5420 -0.0631
  751MOL0     C99039   5.799  -0.159   7.810  0.1439  0.2354 -0.4298
  751MOL0     C99040   5.668  -0.131   7.725  0.3265  0.3939  0.4429
  751MOL0     C99041   5.545  -0.203   7.787  0.7763 -0.5971 -0.4679
  751MOL0     C99042   5.420  -0.143   7.718 -0.9653 -0.0839 -0.2975
  751MOL0     C99043   5.290  -0.218   7.755  0.2184 -0.0030 -0.5218
  751MOL0    Cl99044   5.279  -0.269   7.929  0.0819 -0.2389  0.2985
  751MOL0     C99045   6.344  -0.362   7.692  0.2175 -0.3300 -0.0196
  751MOL0     C99046   6.475  -0.379   7.647  0.1432 -0.2013  0.7368
  751MOL0     O99047   6.735  -0.687   7.722 -1.0812  0.6593 -0.2317
  751MOL0     C99048   6.925  -0.449   7.548 -0.4514  0.1274  0.3233
  751MOL0     C99049   7.063  -0.432   7.520  0.1980  0.1473  0.2556
  751MOL0     N99050   7.424  -0.072   7.203  0.5116 -0.1155 -0.8068
  751MOL0     N99051   7.447   0.056   7.200  0.2921  0.4469  0.4764
  751MOL0     C99052   7.321   1.021   7.607  0.0367  0.5368 -0.8189
  751MOL0     C99053   7.311   1.155   7.656  0.1406  0.2515  0.3780
  751MOL0     C99054   7.449   1.585   7.725  0.1809  0.8202  0.7869
  751MOL0     C99055   7.331   1.626   7.784  0.4728  0.4627 -0.0902
  751MOL0     C99056   7.326   1.748   7.856  0.7641 -1.0402  0.2664
  751MOL0     C99057   7.421   1.844   7.858 -0.2921  1.1106  0.5655
  751MOL0     O99058   7.421   1.944   7.956 -0.3209  0.4069  0.3110
  751MOL0     C99059   7.508   2.066   7.939  0.1373  0.3484 -0.1549
  751MOL0     C99060   7.467   2.172   8.045 -0.6652  0.2522 -0.0215
  751MOL0     C99061   7.324   2.230   8.027 -0.7551  0.1828 -0.1518
  751MOL0     C99062   7.298   2.335   8.139  0.9331 -0.1772  0.2850
  751MOL0     C99063   7.283   2.259   8.266  0.2287 -0.4139 -0.1515
  751MOL0     C99064   7.239   2.196   8.357 -0.3027  0.5816  0.5649
  751MOL0     C99065   7.531   1.801   7.785  0.4534 -0.2976  0.5935
  751MOL0     C99066   7.552   1.675   7.729 -0.2271  0.1446 -0.0215
  751MOL0     H99067   7.425   1.303   7.375  0.8515  0.6533  0.4866
  751MOL0     H99068   7.441   1.099   7.299 -2.5113 -2.1513  0.0671
  751MOL0     H99069   7.517   0.887   7.311 -0.6966  0.9173  2.2516
  751MOL0     H99070   7.358   0.876   7.235  0.9858 -0.3294 -0.2821
  751MOL0     H99071   7.494   0.668   7.195 -0.7484  3.1073 -0.8101
  751MOL0     H99072   7.350   0.634   7.308 -1.1270  4.2919  3.3740
  751MOL0     H99073   7.525   0.622   7.498  0.1157  1.5437 -0.1324
  751MOL0     H99074   7.628   0.724   7.393 -4.3084  3.7740  1.6112
  751MOL0     H99075   7.701   0.481   7.456 -1.8743 -3.0313  0.9281
  751MOL0     H99076   7.556   0.436   7.358 -2.0744  1.9757  0.2125
  751MOL0     H99077   7.798   0.574   7.253 -2.8872  3.1037  0.1074
  751MOL0     H99078   7.655   0.522   7.163  0.5091  1.1813 -0.1083
  751MOL0     H99079   7.865   0.389   7.319  0.5746 -0.5035  0.3100
  751MOL0     H99080   7.845   0.365   7.135 -2.1860 -1.8568 -0.8519
  751MOL0     H99081   7.783   0.148   7.270 -0.4846  0.8067  0.9691
  751MOL0     H99082   7.646   0.249   7.332 -0.0266 -1.2448  0.4391
  751MOL0     H99083   7.727   0.184   7.042 -1.4406 -3.8899 -1.9357
  751MOL0     H99084   7.580   0.274   7.098 -0.2550  0.3942  2.8922
  751MOL0     H99085   7.743  -0.074   7.131 -1.0240 -0.2382 -0.7064
  751MOL0     H99086   7.668  -0.314   7.221  0.4652  0.0124 -2.0757
  751MOL0     H99087   7.553  -0.353   7.114 -1.0091 -4.0680  2.3914
  751MOL0     H99088   7.367  -0.311   7.297 -0.4854  0.2726 -0.7801
  751MOL0     H99089   7.500  -0.281   7.408  2.0986  1.8668 -2.2881
  751MOL0     H99090   7.517  -0.540   7.266  1.2288  0.6691  1.4723
  751MOL0     H99091   7.559  -0.493   7.436  0.4612  0.4370  0.4279
  751MOL0     H99092   7.393  -0.661   7.427 -0.0324  0.6112  1.0985
  751MOL0     H99093   7.292  -0.576   7.313 -1.6434 -0.7096  0.8956
  751MOL0     H99094   7.198  -0.724   7.605 -0.1887  0.9151 -2.7923
  751MOL0     H99095   6.969  -0.784   7.650 -2.2906 -2.3693 -3.6326
  751MOL0     H99096   6.506  -0.710   7.691 -2.6872 -1.2646 -0.8156
  751MOL0     H99097   6.263  -0.683   7.747 -0.1219 -0.3105 -0.4388
  751MOL0     H99098   6.041  -0.330   7.676  1.6730  2.1163 -0.6162
  751MOL0     H99099   6.128  -0.261   7.815 -0.6565 -0.0181  1.6269
  751MOL0     H99100   5.974  -0.291   7.981 -0.4622 -1.0143  1.3483
  751MOL0     H99101   5.940  -0.448   7.920  0.2727  0.0553 -1.2809
  751MOL0     H99102   5.764  -0.330   7.935  2.1690 -0.2185  1.1593
  751MOL0     H99103   5.790  -0.380   7.768 -2.2164  0.6216 -0.2679
  751MOL0     H99104   5.792  -0.101   7.902 -0.0924 -3.2164  1.9010
  751MOL0     H99105   5.879  -0.132   7.740 -0.0402  0.6779 -0.4731
  751MOL0     H99106   5.689  -0.154   7.620 -0.9801  2.5994 -0.3634
  751MOL0     H99107   5.658  -0.022   7.726  1.8234  0.6169 -1.2841
  751MOL0     H99108   5.545  -0.176   7.893  0.1320  0.0754 -0.6342
  751MOL0     H99109   5.530  -0.311   7.778 -0.5274 -0.2919 -2.5657
  751MOL0     H99110   5.408  -0.039   7.752 -3.7166  0.0319 -1.3573
  751MOL0     H99111   5.432  -0.149   7.610 -3.3449 -0.5284 -0.5834
  751MOL0     H99112   5.282  -0.304   7.687  0.0710  0.4420 -1.0752
  751MOL0     H99113   5.205  -0.153   7.733 -0.9722  0.0800  3.5335
  751MOL0     H99114   6.302  -0.262   7.698 -0.8858 -0.7809 -0.1108
  751MOL0     H99115   6.512  -0.288   7.601 -1.9995  0.7356  0.7326
  751MOL0     H99116   6.859  -0.366   7.525 -2.9589 -2.6217 -3.4662
  751MOL0     H99117   7.102  -0.337   7.484  0.5787  0.0859  0.5024
  751MOL0     H99118   7.276   0.945   7.671 -2.0785  0.0574 -2.7420
  751MOL0     H99119   7.261   1.177   7.750 -1.9685 -2.1120 -0.0966
  751MOL0     H99120   7.249   1.556   7.793 -1.6171  2.5728 -1.2895
  751MOL0     H99121   7.238   1.764   7.917  1.3539 -0.9183  1.1070
  751MOL0     H99122   7.481   2.101   7.839 -2.9073  0.3672  0.5740
  751MOL0     H99123   7.610   2.025   7.935  0.6544  1.3793 -5.6079
  751MOL0     H99124   7.481   2.124   8.143 -1.1550 -1.3741 -0.7086
  751MOL0     H99125   7.545   2.249   8.047 -0.4786  0.1330 -1.4070
  751MOL0     H99126   7.245   2.154   8.033 -2.3030  1.5817 -1.6487
  751MOL0     H99127   7.312   2.288   7.935  0.9822 -1.8583 -1.7550
  751MOL0     H99128   7.390   2.393   8.147 -0.0565  1.7337 -1.4112
  751MOL0     H99129   7.221   2.411   8.125  0.6906 -0.3189  0.8130
  751MOL0     H99130   7.223   2.128   8.438 -1.9448 -1.0222 -0.9904
  751MOL0     H99131   7.610   1.875   7.789 -0.9160  1.2558 -0.0442
  751MOL0     H99132   7.645   1.657   7.675 -0.8773 -0.2157 -1.0598
  752MOL0     O99133   4.896   4.696   8.549  0.4197  0.3392 -0.3302
  752MOL0     C99134   4.946   4.612   8.472 -0.6420  0.8500 -0.1472
  752MOL0     O99135   4.877   4.541   8.365  0.1541 -0.5484  0.3325
  752MOL0     C99136   4.738   4.556   8.371 -1.3688 -0.3773  0.4269
  752MOL0     C99137   4.681   4.660   8.293  0.8706  0.1342  0.1354
  752MOL0     C99138   4.538   4.672   8.303  0.0347  0.4150 -0.3347
  752MOL0     C99139   4.456   4.581   8.379  0.1716 -0.2419  0.1000
  752MOL0     O99140   4.321   4.601   8.387 -0.1246  0.5077  0.0830
  752MOL0     C99141   4.267   4.618   8.522  1.7587 -0.2340  0.5138
  752MOL0     C99142   4.136   4.702   8.509  0.2485  0.9812  0.8261
  752MOL0     C99143   4.156   4.850   8.495  0.5669 -0.1881  1.1446
  752MOL0     C99144   4.030   4.934   8.475 -0.2078  0.5386 -0.3808
  752MOL0     C99145   3.969   4.893   8.338  0.2341 -0.2490 -0.4902
  752MOL0     C99146   3.878   5.004   8.280  0.3741 -0.1796 -1.1837
  752MOL0     C99147   3.814   4.959   8.140  0.1665  0.1092  0.5848
  752MOL0     C99148   3.837   5.087   8.039  0.5491  1.1797  0.3787
  752MOL0     N99149   3.765   5.209   8.079 -0.4183  0.1995  0.2828
  752MOL0     C99150   3.631   5.207   8.078  0.6524  0.3766 -1.1358
  752MOL0     C99151   3.577   5.334   8.070  0.0282  1.0310 -0.1451
  752MOL0     C99152   3.433   5.374   8.093  0.5137 -0.2236  0.4041
  752MOL0     C99153   3.400   5.514   8.034 -0.6856 -0.0020 -0.2735
  752MOL0     C99154   3.255   5.550   8.048 -0.8879 -1.4124 -0.2291
  752MOL0     C99155   3.218   5.691   8.054  0.8258 -0.6897 -0.3323
  752MOL0     O99156   3.085   5.711   8.009  0.3940 -0.1722  0.1549
  752MOL0     C99157   3.018   5.831   8.015 -0.3956 -0.9900 -0.4602
  752MOL0     C99158   2.894   5.833   7.952 -0.6999 -0.5970 -0.1421
  752MOL0     C99159   2.820   5.951   7.939 -0.6431 -0.1124  1.1173
  752MOL0     C99160   2.886   6.074   7.985 -0.2376  0.0618  1.3410
  752MOL0     C99161   2.811   6.201   7.964  0.3528  0.5923 -0.3766
  752MOL0     O99162   2.676   6.186   7.924 -0.6399  0.8623 -0.5829
  752MOL0     C99163   2.573   6.277   7.922 -0.9968 -0.2970  0.7635
  752MOL0     C99164   2.591   6.414   7.945 -0.4695  0.3412 -0.7384
  752MOL0     C99165   2.474   6.497   7.942  0.5687  0.3456 -0.3925
  752MOL0     C99166   2.345   6.446   7.916 -1.2091 -0.0822  0.0781
  752MOL0     O99167   2.235   6.521   7.926 -0.0444 -0.1187  0.5984
  752MOL0     C99168   2.233   6.662   7.908  0.0953  0.6330 -0.4770
  752MOL0     C99169   2.079   6.693   7.899 -0.0437  0.7681  0.5772
  752MOL0     C99170   2.010   6.597   7.806  0.5192  0.2285  0.6466
  752MOL0     C99171   1.879   6.648   7.757  0.4170 -0.5645 -0.1015
  752MOL0     C99172   1.802   6.561   7.650  0.3327 -0.0768  0.5868
  752MOL0     C99173   1.904   6.502   7.550  0.2413  0.5117  0.0242
  752MOL0     C99174   1.853   6.386   7.463 -0.0091 -0.0650  0.0120
  752MOL0     C99175   1.957   6.342   7.358  0.4076  1.1030 -0.8360
  752MOL0    Cl99176   1.960   6.465   7.239 -0.5974 -0.4612  0.1627
  752MOL0     C99177   2.333   6.305   7.894  0.5815  0.1935  1.2663
  752MOL0     C99178   2.448   6.222   7.899 -0.0506 -0.1849  0.5611
  752MOL0     O99179   2.874   6.307   7.992 -0.3263 -0.1776 -0.2979
  752MOL0     C99180   3.010   6.064   8.043 -0.1648 -0.1506  1.2183
  752MOL0     C99181   3.079   5.943   8.059  0.1088 -0.5575 -0.5272
  752MOL0     N99182   3.693   5.409   8.069  0.9197 -0.3346  0.3116
  752MOL0     N99183   3.801   5.334   8.072  0.2202  0.0689  0.5289
  752MOL0     C99184   4.519   4.482   8.452 -0.3324 -0.6052 -0.8254
  752MOL0     C99185   4.666   4.467   8.447  0.5423  0.4132 -0.4757
  752MOL0     C99186   5.091   4.595   8.487  1.4288  0.3569 -0.2995
  752MOL0     C99187   5.157   4.686   8.567  0.0874 -1.0681 -0.5138
  752MOL0     C99188   5.294   4.662   8.590  0.9654 -0.0641 -0.7721
  752MOL0     C99189   5.354   4.559   8.524 -0.3968  0.3322  1.0444
  752MOL0     O99190   5.490   4.532   8.525 -0.0976  0.1471 -0.2617
  752MOL0     C99191   5.566   4.544   8.653 -0.1494 -0.0230 -0.3841
  752MOL0     C99192   5.716   4.586   8.611  0.3389  0.6249 -1.2698
  752MOL0     C99193   5.818   4.557   8.715  0.0272  0.1224 -0.6517
  752MOL0     C99194   5.838   4.409   8.755 -1.0536 -0.6224  1.0601
  752MOL0     C99195   5.937   4.389   8.851 -0.4485 -0.1624 -0.0026
  752MOL0     C99196   5.988   4.353   8.964 -1.1092  0.6948  0.6137
  752MOL0     C99197   5.281   4.468   8.452 -0.5074  0.2149  0.0465
  752MOL0     C99198   5.144   4.483   8.428  0.4033  0.2963 -1.1515
  752MOL0     H99199   4.739   4.740   8.247 -0.2627  2.1935  2.1110
  752MOL0     H99200   4.482   4.753   8.257 -1.2795 -0.8679 -1.0851
  752MOL0     H99201   4.338   4.669   8.588 -2.7360  0.0846  5.8734
  752MOL0     H99202   4.242   4.529   8.580 -1.1252  0.5440  0.5865
  752MOL0     H99203   4.092   4.678   8.606  1.6958  0.8893  1.4785
  752MOL0     H99204   4.071   4.664   8.429 -0.7824  1.8028  1.2481
  752MOL0     H99205   4.222   4.865   8.409 -1.3462 -0.5392 -0.4802
  752MOL0     H99206   4.216   4.886   8.578 -0.0678 -0.6746  1.8298
  752MOL0     H99207   3.968   4.915   8.563  3.1101  1.1824  2.3084
  752MOL0     H99208   4.069   5.036   8.477  1.4745 -0.0758  0.6813
  752MOL0     H99209   3.904   4.806   8.349 -0.3860  0.4145  1.5757
  752MOL0     H99210   4.051   4.878   8.267 -1.9663  0.0201 -3.2225
  752MOL0     H99211   3.938   5.095   8.272 -1.4108  1.2201  0.4600
  752MOL0     H99212   3.795   5.024   8.348  1.5552  2.2531 -0.3422
  752MOL0     H99213   3.851   4.866   8.097  1.0514  0.5511  0.3627
  752MOL0     H99214   3.707   4.943   8.157  0.0700  0.6873  0.5589
  752MOL0     H99215   3.805   5.054   7.940 -1.1794  2.3805  0.4959
  752MOL0     H99216   3.946   5.098   8.030  0.4874  0.8015 -1.0293
  752MOL0     H99217   3.573   5.117   8.095  0.5413  0.3979 -1.3965
  752MOL0     H99218   3.423   5.378   8.202  3.0182  1.7160  0.6656
  752MOL0     H99219   3.369   5.297   8.049 -1.1845  0.4894  1.5367
  752MOL0     H99220   3.434   5.508   7.930  4.0876 -2.2374  1.1256
  752MOL0     H99221   3.459   5.593   8.081  0.8377 -1.5010  0.4282
  752MOL0     H99222   3.199   5.497   7.970 -0.6400  0.5656 -1.8253
  752MOL0     H99223   3.217   5.518   8.145 -0.6170  0.8469  0.6720
  752MOL0     H99224   3.292   5.740   7.991  1.2970  0.2717  0.9309
  752MOL0     H99225   3.238   5.733   8.153  1.1492  0.2003 -0.7660
  752MOL0     H99226   2.867   5.733   7.918  0.1329 -1.3329  1.2427
  752MOL0     H99227   2.722   5.954   7.892 -0.3939 -2.0031  0.3961
  752MOL0     H99228   2.688   6.462   7.952 -0.4724  0.4419 -1.4131
  752MOL0     H99229   2.492   6.603   7.961  1.5782 -0.1001  1.4153
  752MOL0     H99230   2.279   6.700   7.816 -0.5666  0.8787 -0.7161
  752MOL0     H99231   2.280   6.717   7.990  0.8111  1.7064 -1.5635
  752MOL0     H99232   2.072   6.792   7.854  0.5849 -0.2084 -1.7746
  752MOL0     H99233   2.010   6.689   7.984 -1.8165 -0.5607 -0.8452
  752MOL0     H99234   2.000   6.501   7.857  0.9978 -1.1241 -1.7098
  752MOL0     H99235   2.085   6.567   7.732 -0.3528 -0.7857  0.1539
  752MOL0     H99236   1.805   6.669   7.835 -0.6386 -3.1520 -0.2972
  752MOL0     H99237   1.909   6.743   7.713 -1.1799 -0.0449 -0.1523
  752MOL0     H99238   1.725   6.616   7.597  0.4450  0.9620  1.4679
  752MOL0     H99239   1.750   6.486   7.710  0.6181 -0.9645 -0.2527
  752MOL0     H99240   1.982   6.457   7.612 -0.1165  3.9352  3.2304
  752MOL0     H99241   1.937   6.576   7.476  1.3791  0.4112  0.4090
  752MOL0     H99242   1.827   6.299   7.523 -2.1968  1.2746  1.1216
  752MOL0     H99243   1.771   6.428   7.405 -1.0087 -0.2343  1.2684
  752MOL0     H99244   1.925   6.250   7.307  2.4296  0.2911 -0.7544
  752MOL0     H99245   2.053   6.324   7.409  0.2252  1.8531 -0.2214
  752MOL0     H99246   2.230   6.273   7.879  1.3159 -3.1116  2.4430
  752MOL0     H99247   2.444   6.115   7.883 -2.4800  0.1085 -1.5834
  752MOL0     H99248   3.055   6.155   8.082 -1.2829  1.2323 -0.5341
  752MOL0     H99249   3.178   5.934   8.102 -0.3075  0.1989  0.6310
  752MOL0     H99250   4.454   4.403   8.491  0.4593 -0.6437  0.4689
  752MOL0     H99251   4.718   4.383   8.492  0.8910 -0.1228 -1.8500
  752MOL0     H99252   5.109   4.777   8.600  2.2046 -0.5819  1.5180
  752MOL0     H99253   5.343   4.741   8.646 -1.6487  1.2539 -0.1847
  752MOL0     H99254   5.569   4.439   8.682 -2.8170 -1.7423 -5.1264
  752MOL0     H99255   5.520   4.607   8.730 -0.4999 -0.5806 -0.1314
  752MOL0     H99256   5.740   4.528   8.521 -0.0978  0.3168 -1.1908
  752MOL0     H99257   5.729   4.693   8.594  0.3414  0.5218 -1.9411
  752MOL0     H99258   5.806   4.607   8.812  2.2722 -1.7009  0.6579
  752MOL0     H99259   5.912   4.598   8.675 -0.4534  2.0644  0.0713
  752MOL0     H99260   5.744   4.369   8.793 -1.4312 -1.9962 -1.1391
  752MOL0     H99261   5.848   4.348   8.665 -4.9932  2.8470 -2.1484
  752MOL0     H99262   6.036   4.324   9.055 -0.4004  0.4261  0.1625
  752MOL0     H99263   5.329   4.377   8.416 -0.9750 -1.7213  3.7827
  752MOL0     H99264   5.082   4.420   8.365 -3.0138  2.7417 -0.5290
  753MOL0     O99265  10.204   2.125  10.431 -0.2913  0.5778  0.4913
  753MOL0     C99266  10.122   2.203  10.474  0.7505 -0.2353 -0.3168
  753MOL0     O99267  10.147   2.339  10.490  0.7693  0.1341 -0.5512
  753MOL0     C99268  10.263   2.393  10.450 -0.0525  0.4664 -0.7027
  753MOL0     C99269  10.369   2.404  10.544  0.1306 -1.1814  0.8690
  753MOL0     C99270  10.476   2.479  10.517  0.0130 -0.4339  0.4790
  753MOL0     C99271  10.491   2.549  10.395  0.7481  0.4327 -0.3724
  753MOL0     O99272  10.610   2.609  10.390  0.3210  0.0928 -0.0608
  753MOL0     C99273  10.649   2.641  10.261  0.0897 -0.1453  0.0389
  753MOL0     C99274  10.778   2.713  10.279  0.6350  1.0342  0.0615
  753MOL0     C99275  10.889   2.609  10.312 -0.2715  0.0148 -0.6855
  753MOL0     C99276  11.010   2.677  10.384  0.5158 -0.6341  1.0443
  753MOL0     C99277  10.983   2.748  10.513 -0.6897  0.1780  0.1008
  753MOL0     C99278  10.948   2.657  10.633 -0.2280 -0.2280  0.5746
  753MOL0     C99279  10.878   2.726  10.750  0.0836  0.0515 -0.1031
  753MOL0     C99280  10.725   2.733  10.727  0.1485  0.2174 -0.8007
  753MOL0     N99281  10.670   2.852  10.788  0.4321  0.0448 -0.7683
  753MOL0     C99282  10.671   2.892  10.924 -0.0005 -0.2238 -0.1231
  753MOL0     C99283  10.618   3.011  10.932 -0.4653  0.5404  0.3781
  753MOL0     C99284  10.615   3.094  11.059  0.2623 -0.1956  0.4660
  753MOL0     C99285  10.748   3.119  11.116 -0.0686  0.5307 -0.0147
  753MOL0     C99286  10.757   3.233  11.222 -0.0346 -0.2018 -0.0636
  753MOL0     C99287  10.641   3.242  11.321  0.4144 -0.5585 -0.4385
  753MOL0     O99288  10.623   3.121  11.401 -0.1108  0.5838 -0.1459
  753MOL0     C99289  10.498   3.112  11.443  0.4894  0.7049  0.2249
  753MOL0     C99290  10.430   3.200  11.532 -0.5067 -0.9037 -0.4357
  753MOL0     C99291  10.297   3.185  11.562 -0.7435  0.0157 -0.0808
  753MOL0     C99292  10.227   3.082  11.499  0.9104 -0.7496 -0.2146
  753MOL0     C99293  10.080   3.064  11.526 -0.4182 -0.4839 -0.9265
  753MOL0     O99294  10.007   2.989  11.443  0.8036 -0.5228 -0.6971
  753MOL0     C99295   9.870   2.969  11.474  0.4866  0.3605  0.4023
  753MOL0     C99296   9.780   3.076  11.509 -0.3823  0.4270 -0.2946
  753MOL0     C99297   9.641   3.052  11.527  0.5607  1.5272 -0.0173
  753MOL0     C99298   9.601   2.918  11.516  0.7015 -0.3970  0.3525
  753MOL0     O99299   9.477   2.886  11.534  0.4527  0.1735 -0.3777
  753MOL0     C99300   9.395   2.862  11.421  0.2214 -0.1255 -0.1454
  753MOL0     C99301   9.409   2.727  11.370  0.1613  0.1527  0.0262
  753MOL0     C99302   9.317   2.699  11.258 -0.5747 -0.2770 -0.5157
  753MOL0     C99303   9.333   2.556  11.198  0.4834  0.7596  0.3919
  753MOL0     C99304   9.452   2.550  11.104  0.4668 -0.0780 -0.2095
  753MOL0     C99305   9.484   2.411  11.061  0.2668 -0.2230  0.3296
  753MOL0     C99306   9.367   2.321  11.028  0.2498 -0.3748 -0.1939
  753MOL0     C99307   9.423   2.185  10.988  0.1368 -0.3454  0.7137
  753MOL0    Cl99308   9.533   2.122  11.112 -1.0071  0.4005 -0.4244
  753MOL0     C99309   9.696   2.808  11.504 -0.5163 -0.7511  0.8086
  753MOL0     C99310   9.829   2.840  11.481  0.4118 -0.0295  0.3607
  753MOL0     O99311  10.037   3.116  11.633  0.0776  0.2324 -0.5398
  753MOL0     C99312  10.290   2.989  11.419 -0.3127 -0.2003  0.9940
  753MOL0     C99313  10.434   2.998  11.397 -0.3424  0.2602 -0.0791
  753MOL0     N99314  10.581   3.050  10.805 -0.6535 -0.5051  0.4220
  753MOL0     N99315  10.620   2.957  10.720  0.3559  0.4941 -0.1848
  753MOL0     C99316  10.381   2.553  10.309  0.5981  0.1667 -0.0152
  753MOL0     C99317  10.268   2.474  10.341  0.5216  0.0264 -0.6697
  753MOL0     C99318   9.989   2.143  10.509  0.5384  0.4440 -0.2016
  753MOL0     C99319   9.966   2.005  10.496  0.0403  1.0295  0.9445
  753MOL0     C99320   9.846   1.946  10.521 -0.0145 -0.0098  0.5013
  753MOL0     C99321   9.732   2.022  10.553 -0.4443 -0.0140 -0.0561
  753MOL0     O99322   9.603   1.978  10.563 -0.5903 -0.5963  0.3133
  753MOL0     C99323   9.587   1.837  10.566  0.5627 -0.4509  0.1052
  753MOL0     C99324   9.436   1.797  10.578  0.4096 -0.2173 -0.8736
  753MOL0     C99325   9.368   1.811  10.723 -0.0838 -0.3329  0.7690
  753MOL0     C99326   9.258   1.710  10.747 -0.2494  0.3143  0.6258
  753MOL0     C99327   9.124   1.758  10.705 -0.0878  0.2614  1.0211
  753MOL0     C99328   9.001   1.766  10.686 -0.2004 -1.0887  0.3785
  753MOL0     C99329   9.762   2.160  10.581 -0.1292 -0.6556  0.8737
  753MOL0     C99330   9.888   2.218  10.561  0.0707 -0.7990 -0.3767
  753MOL0     H99331  10.363   2.365  10.645 -2.5517 -1.9932  0.4601
  753MOL0     H99332  10.553   2.479  10.593  0.3577 -2.9672  0.2015
  753MOL0     H99333  10.576   2.710  10.219  0.5824  1.0467  1.1014
  753MOL0     H99334  10.669   2.552  10.199 -0.5643 -0.6339  0.5161
  753MOL0     H99335  10.756   2.799  10.342 -1.2583 -0.6507  1.8235
  753MOL0     H99336  10.812   2.750  10.181 -0.1301  0.2327 -0.5262
  753MOL0     H99337  10.924   2.560  10.221 -0.8977  1.3545 -1.6849
  753MOL0     H99338  10.852   2.546  10.394  1.7412  2.3310  2.2286
  753MOL0     H99339  11.070   2.590  10.414 -0.4846 -1.6083  0.2865
  753MOL0     H99340  11.066   2.737  10.312  0.2265 -1.7020 -0.1143
  753MOL0     H99341  10.911   2.830  10.506 -4.9871 -3.3007 -1.0368
  753MOL0     H99342  11.085   2.778  10.538  0.2240 -1.0569 -1.8831
  753MOL0     H99343  11.042   2.610  10.664 -1.3110 -2.1536  1.1275
  753MOL0     H99344  10.886   2.570  10.611 -0.9255  0.4566 -0.2342
  753MOL0     H99345  10.896   2.668  10.841 -1.4444  1.1866  0.9839
  753MOL0     H99346  10.921   2.826  10.761  2.8233 -1.0600  0.1150
  753MOL0     H99347  10.675   2.646  10.772 -1.7877  1.1485 -1.0639
  753MOL0     H99348  10.708   2.752  10.620  2.7401  3.5407 -0.7468
  753MOL0     H99349  10.711   2.833  11.006 -1.3291  0.2555  0.9022
  753MOL0     H99350  10.555   3.040  11.132  1.0724 -1.2371  0.3951
  753MOL0     H99351  10.577   3.193  11.030  2.3886 -0.0130 -2.0910
  753MOL0     H99352  10.828   3.149  11.048  2.4261  1.7938  3.2272
  753MOL0     H99353  10.767   3.023  11.165 -5.1364 -0.7071  0.0742
  753MOL0     H99354  10.847   3.213  11.282  0.6139  2.4507 -0.0115
  753MOL0     H99355  10.785   3.330  11.179  1.1814  0.0735  1.2629
  753MOL0     H99356  10.545   3.267  11.274 -0.7561 -0.6522  1.7651
  753MOL0     H99357  10.654   3.327  11.389 -0.9891  1.3494 -2.3847
  753MOL0     H99358  10.485   3.283  11.575 -2.0344  0.0743 -0.2911
  753MOL0     H99359  10.251   3.252  11.634  0.8138 -0.5828  1.5317
  753MOL0     H99360   9.810   3.179  11.523  2.5760 -0.2469 -1.0972
  753MOL0     H99361   9.570   3.133  11.540  2.1635  2.7953  1.3402
  753MOL0     H99362   9.427   2.926  11.337 -1.0290 -2.3684 -2.4719
  753MOL0     H99363   9.295   2.892  11.452  0.7083  0.1664  1.2210
  753MOL0     H99364   9.388   2.651  11.447 -0.0946 -0.3899 -0.5697
  753MOL0     H99365   9.503   2.706  11.317  0.4624  2.2181 -0.3149
  753MOL0     H99366   9.350   2.760  11.174 -1.5071 -1.3460 -1.6963
  753MOL0     H99367   9.213   2.730  11.270 -0.6730 -1.0678  0.9842
  753MOL0     H99368   9.337   2.488  11.284 -2.3522 -0.8755 -0.6392
  753MOL0     H99369   9.239   2.537  11.145 -0.3742  0.4293  1.9371
  753MOL0     H99370   9.540   2.600  11.145 -0.4900  1.6704 -0.1921
  753MOL0     H99371   9.435   2.620  11.022  3.1609  3.5458  2.0370
  753MOL0     H99372   9.537   2.363  11.144 -0.0583  3.4753  2.8804
  753MOL0     H99373   9.550   2.422  10.974  1.4361  0.7496  1.3108
  753MOL0     H99374   9.310   2.302  11.120 -0.9316 -0.5048 -0.9370
  753MOL0     H99375   9.307   2.363  10.947  0.5412  1.2302  0.4008
  753MOL0     H99376   9.453   2.193  10.883 -0.2756 -2.0139  0.4331
  753MOL0     H99377   9.338   2.118  10.976  0.1246  0.2033 -3.6548
  753MOL0     H99378   9.659   2.707  11.519 -1.1649 -0.8289 -1.0180
  753MOL0     H99379   9.900   2.762  11.455  1.8685  0.8717  1.5053
  753MOL0     H99380  10.234   2.903  11.384 -0.1275 -0.5877  1.6367
  753MOL0     H99381  10.481   2.922  11.336  1.1774  1.9257 -1.0676
  753MOL0     H99382  10.365   2.609  10.217  0.0908  0.3200  0.1615
  753MOL0     H99383  10.176   2.476  10.283  1.1643 -1.1226 -1.7688
  753MOL0     H99384  10.045   1.940  10.458 -1.1894  0.1817 -0.2484
  753MOL0     H99385   9.830   1.843  10.490 -0.3906  0.1632  0.1222
  753MOL0     H99386   9.640   1.784  10.646 -1.6315  0.6644  2.4778
  753MOL0     H99387   9.627   1.791  10.476  1.1714 -1.6835  0.9629
  753MOL0     H99388   9.387   1.857  10.500  0.7987 -0.7502 -1.5462
  753MOL0     H99389   9.435   1.690  10.554  1.2485  0.2274 -3.1281
  753MOL0     H99390   9.342   1.914  10.751 -1.5480 -0.8167  1.3133
  753MOL0     H99391   9.445   1.787  10.797  0.2363 -2.4314 -0.1745
  753MOL0     H99392   9.274   1.618  10.689  1.6476 -0.0672  1.6887
  753MOL0     H99393   9.253   1.697  10.856  1.5219  0.6049  0.7699
  753MOL0     H99394   8.897   1.760  10.660 -0.2616 -0.1019  0.3588
  753MOL0     H99395   9.683   2.234  10.596  0.9350  0.5800  0.5684
  753MOL0     H99396   9.897   2.325  10.569 -1.1360 -0.3626 -3.4460
  754MOL0     O99397   8.691   7.266   6.744  0.1006 -0.0433  0.6830
  754MOL0     C99398   8.782   7.343   6.786 -0.3970 -0.0827 -0.2950
  754MOL0     O99399   8.769   7.472   6.826 -0.1002  0.5519  0.4365
  754MOL0     C99400   8.657   7.537   6.866 -0.4081  0.4181 -0.2606
  754MOL0     C99401   8.529   7.480   6.868 -1.0749 -0.5648  0.5450
  754MOL0     C99402   8.424   7.555   6.924  0.0540 -0.6202  0.8630
  754MOL0     C99403   8.445   7.671   6.983  0.4731 -0.2760  0.1346
  754MOL0     O99404   8.329   7.726   7.031  0.3146  0.5914 -0.1084
  754MOL0     C99405   8.323   7.862   7.083  0.5898 -0.8065 -0.6399
  754MOL0     C99406   8.400   7.890   7.216  0.0000  0.1119  0.8144
  754MOL0     C99407   8.317   7.982   7.314 -0.3817 -0.2082  1.0856
  754MOL0     C99408   8.240   7.903   7.426  0.7597  0.1703  0.5684
  754MOL0     C99409   8.084   7.897   7.406 -0.7012  0.0309 -0.0126
  754MOL0     C99410   8.009   7.845   7.527 -0.6463 -0.3788 -0.2510
  754MOL0     C99411   7.872   7.833   7.484 -0.0030  0.3946  0.1995
  754MOL0     C99412   7.795   7.740   7.587 -0.1423 -0.4771 -0.4400
  754MOL0     N99413   7.661   7.736   7.536  0.5256  0.3149  0.1127
  754MOL0     C99414   7.547   7.795   7.580 -0.0390  0.0978  0.5296
  754MOL0     C99415   7.444   7.781   7.496  0.8359 -0.8428 -0.3646
  754MOL0     C99416   7.304   7.848   7.513  0.0312 -0.0344  0.5714
  754MOL0     C99417   7.267   7.978   7.434 -0.7888 -0.7554 -0.0604
  754MOL0     C99418   7.214   8.086   7.534  0.9707 -0.0023 -1.1459
  754MOL0     C99419   7.164   8.215   7.465  0.6940  0.6173  0.3110
  754MOL0     O99420   7.071   8.186   7.367 -0.2031  0.9625  1.0875
  754MOL0     C99421   6.971   8.274   7.341  1.0466 -1.0655  1.4030
  754MOL0     C99422   6.863   8.210   7.280  0.0448 -0.4081 -0.9496
  754MOL0     C99423   6.756   8.284   7.244  0.0769  0.3078 -0.4309
  754MOL0     C99424   6.748   8.428   7.257  0.0936  0.0329  0.8377
  754MOL0     C99425   6.639   8.516   7.217 -0.0366  1.3998  0.0332
  754MOL0     O99426   6.529   8.439   7.185  0.1673  0.8201 -0.4184
  754MOL0     C99427   6.408   8.497   7.158 -0.4195  1.2396 -0.1856
  754MOL0     C99428   6.339   8.450   7.051 -0.0920  0.9368 -0.4214
  754MOL0     C99429   6.207   8.496   7.030 -0.2753 -0.0650  0.1239
  754MOL0     C99430   6.145   8.600   7.111  0.1401  0.5552  0.7807
  754MOL0     O99431   6.016   8.653   7.090 -0.1507 -0.3784  0.1825
  754MOL0     C99432   5.925   8.594   6.993 -0.3007  0.2048 -0.2433
  754MOL0     C99433   5.829   8.496   7.060  1.0440 -0.5662  0.6201
  754MOL0     C99434   5.725   8.564   7.158 -0.8054 -0.6301  0.2729
  754MOL0     C99435   5.623   8.471   7.215 -0.2061  0.4700  0.1979
  754MOL0     C99436   5.545   8.502   7.345 -0.1298 -0.3026 -0.0769
  754MOL0     C99437   5.462   8.628   7.330 -0.0196 -0.4257  0.7764
  754MOL0     C99438   5.379   8.681   7.449  0.1885  0.4655  0.8049
  754MOL0     C99439   5.260   8.772   7.403 -1.1194  0.7278 -0.6488
  754MOL0    Cl99440   5.179   8.843   7.547 -0.2909  0.3040  0.6634
  754MOL0     C99441   6.216   8.622   7.227  0.5426 -0.2668  0.6993
  754MOL0     C99442   6.342   8.578   7.250  0.7469  0.1282 -0.7523
  754MOL0     O99443   6.656   8.630   7.190  0.5198 -0.1746  0.7954
  754MOL0     C99444   6.867   8.491   7.314  0.0814  1.0381 -0.4709
  754MOL0     C99445   6.978   8.422   7.350 -1.1553 -0.7778 -0.5211
  754MOL0     N99446   7.494   7.704   7.399  0.3922  0.8583 -0.3582
  754MOL0     N99447   7.619   7.668   7.427  0.1544 -0.1535  0.1707
  754MOL0     C99448   8.573   7.728   6.988  0.7925  0.2177  0.5421
  754MOL0     C99449   8.682   7.659   6.924  0.2431  0.0129 -0.7579
  754MOL0     C99450   8.917   7.286   6.802 -0.2884 -0.3502  0.1761
  754MOL0     C99451   9.019   7.351   6.870  0.3857 -1.5645 -0.0403
  754MOL0     C99452   9.138   7.287   6.893  0.4160  0.6976 -0.3349
  754MOL0     C99453   9.168   7.152   6.845 -0.1475 -0.1747  0.0872
  754MOL0     O99454   9.286   7.086   6.859 -0.4483  0.2110  0.8606
  754MOL0     C99455   9.393   7.160   6.809 -0.1028 -0.2617  0.0816
  754MOL0     C99456   9.511   7.072   6.783 -0.2083  0.3724  0.2755
  754MOL0     C99457   9.631   7.138   6.708  0.0449  0.0445  0.7549
  754MOL0     C99458   9.706   7.243   6.782 -0.2540 -0.5474  0.3476
  754MOL0     C99459   9.780   7.201   6.899 -1.0818  0.6240  0.0941
  754MOL0     C99460   9.833   7.165   7.000  0.3353 -0.9578 -0.0356
  754MOL0     C99461   9.056   7.095   6.793  0.4060  0.8530 -0.3545
  754MOL0     C99462   8.938   7.150   6.770  0.5235 -0.5193 -0.3611
  754MOL0     H99463   8.504   7.385   6.822  0.1869  0.3993 -2.3644
  754MOL0     H99464   8.325   7.516   6.904 -0.3514 -0.1015  1.7998
  754MOL0     H99465   8.221   7.888   7.113  1.6992  1.5484  1.5446
  754MOL0     H99466   8.348   7.932   7.003 -0.0672 -1.4602 -1.4357
  754MOL0     H99467   8.486   7.947   7.179  2.4738 -2.9220  1.4475
  754MOL0     H99468   8.430   7.802   7.274  0.5732 -0.1365  0.1485
  754MOL0     H99469   8.250   8.038   7.249  0.6197 -3.8055 -3.6030
  754MOL0     H99470   8.381   8.059   7.358 -0.1099 -0.2911  0.8326
  754MOL0     H99471   8.277   7.802   7.450  1.2705  0.6023  1.6975
  754MOL0     H99472   8.268   7.957   7.517 -0.0080 -1.4768  1.8328
  754MOL0     H99473   8.057   7.834   7.321  2.5079  0.7138 -1.6814
  754MOL0     H99474   8.048   7.998   7.383 -0.9606 -0.1678 -0.4949
  754MOL0     H99475   8.023   7.919   7.606 -1.6107 -1.8935  1.4233
  754MOL0     H99476   8.046   7.747   7.558 -1.3706 -0.6531 -0.2296
  754MOL0     H99477   7.832   7.934   7.479  0.8493  0.8058  1.2856
  754MOL0     H99478   7.859   7.781   7.388 -0.0847 -1.7499  1.3096
  754MOL0     H99479   7.793   7.791   7.684 -1.7473 -0.7363 -0.3043
  754MOL0     H99480   7.834   7.639   7.600 -0.6223 -0.4393  1.6449
  754MOL0     H99481   7.541   7.841   7.678 -1.8233 -0.5483  0.7559
  754MOL0     H99482   7.299   7.874   7.619 -0.4239 -0.1546  0.5791
  754MOL0     H99483   7.222   7.776   7.500 -0.1227  0.3934 -1.0745
  754MOL0     H99484   7.190   7.963   7.358 -0.0408  0.5931 -1.1152
  754MOL0     H99485   7.352   8.026   7.385 -1.5833  0.9539  0.1908
  754MOL0     H99486   7.130   8.041   7.588 -0.5989  3.6792 -0.1951
  754MOL0     H99487   7.290   8.106   7.610 -1.1510 -1.5043  1.5501
  754MOL0     H99488   7.258   8.252   7.421  2.3825 -1.8556  1.6038
  754MOL0     H99489   7.123   8.268   7.551 -0.2628  0.6906 -0.1745
  754MOL0     H99490   6.857   8.102   7.284 -1.3343 -0.3163  1.5235
  754MOL0     H99491   6.670   8.234   7.201  1.3013 -3.7473  1.2795
  754MOL0     H99492   6.397   8.389   6.982  0.3960  2.7848 -1.7315
  754MOL0     H99493   6.158   8.450   6.945  1.6018  0.1355 -1.1276
  754MOL0     H99494   5.979   8.541   6.915  0.5767  1.3396 -0.4227
  754MOL0     H99495   5.863   8.673   6.949  0.9638  2.9272  2.5014
  754MOL0     H99496   5.894   8.431   7.120  0.0914 -1.7006  0.4652
  754MOL0     H99497   5.764   8.440   6.992 -1.6510  0.8151  1.8981
  754MOL0     H99498   5.677   8.639   7.096  2.5311  1.2757 -0.2000
  754MOL0     H99499   5.786   8.619   7.231 -1.9585 -0.7563  1.3639
  754MOL0     H99500   5.551   8.471   7.132  0.1809  0.8823 -0.1436
  754MOL0     H99501   5.658   8.368   7.216  1.3631  0.8758 -2.7761
  754MOL0     H99502   5.615   8.524   7.426 -1.9539  2.9550  0.7714
  754MOL0     H99503   5.472   8.427   7.375 -0.2512 -1.2396 -2.5078
  754MOL0     H99504   5.409   8.601   7.238 -1.0065  2.1593  0.5068
  754MOL0     H99505   5.534   8.705   7.301 -1.0664  0.9320  1.5984
  754MOL0     H99506   5.331   8.593   7.494  1.1704 -3.7606 -5.1430
  754MOL0     H99507   5.446   8.728   7.521  0.3155 -0.9373  1.6526
  754MOL0     H99508   5.185   8.722   7.341  0.0175  1.5125 -2.8098
  754MOL0     H99509   5.301   8.851   7.339 -0.0440 -0.8366 -1.9741
  754MOL0     H99510   6.161   8.674   7.306  0.4584 -1.1879  1.2576
  754MOL0     H99511   6.374   8.619   7.346  1.8350  1.0627 -1.4897
  754MOL0     H99512   6.873   8.599   7.311 -2.0045  1.1862 -0.9324
  754MOL0     H99513   7.055   8.472   7.406 -2.8494 -1.1542  2.3443
  754MOL0     H99514   8.585   7.825   7.036 -1.0014  0.9781 -0.4634
  754MOL0     H99515   8.779   7.705   6.941 -0.7858  1.4753  1.6125
  754MOL0     H99516   9.021   7.458   6.888  2.7094 -1.8717  1.9751
  754MOL0     H99517   9.218   7.338   6.946 -3.1171  2.9125  3.4530
  754MOL0     H99518   9.418   7.235   6.885  0.4223 -0.7206  0.3689
  754MOL0     H99519   9.368   7.213   6.716  0.8297 -0.7999 -0.4880
  754MOL0     H99520   9.549   7.053   6.884  2.2854 -2.3516 -1.0182
  754MOL0     H99521   9.478   6.979   6.737 -0.7966  0.9692 -0.5273
  754MOL0     H99522   9.591   7.185   6.617  1.4870  1.2097  0.6827
  754MOL0     H99523   9.710   7.066   6.687  0.3260 -0.4547  3.1910
  754MOL0     H99524   9.773   7.279   6.704 -0.7712  0.9864  0.5607
  754MOL0     H99525   9.628   7.315   6.811 -2.6041 -2.6531 -0.3855
  754MOL0     H99526   9.890   7.144   7.089  0.0267 -0.8095  0.2002
  754MOL0     H99527   9.073   6.993   6.759 -2.4277  0.5534 -1.0900
  754MOL0     H99528   8.858   7.087   6.730 -0.7921 -0.4853  2.0678
  755MOL0     O99529   8.912   5.165   5.700 -0.4054  0.7291 -0.4536
  755MOL0     C99530   8.918   5.144   5.819 -0.8317 -0.5752 -0.1645
  755MOL0     O99531   8.806   5.151   5.905 -0.2467  0.6640  0.0846
  755MOL0     C99532   8.692   5.212   5.862  0.7529 -0.4209  0.8884
  755MOL0     C99533   8.588   5.128   5.828  0.7425  0.4580 -0.3811
  755MOL0     C99534   8.468   5.185   5.803 -0.4039  0.1844  0.1405
  755MOL0     C99535   8.456   5.326   5.778 -0.1834  0.2976 -0.5572
  755MOL0     O99536   8.350   5.398   5.725 -0.2859  0.5726 -0.0529
  755MOL0     C99537   8.229   5.334   5.688  0.5246  0.4880 -0.0977
  755MOL0     C99538   8.132   5.435   5.634  0.2120  0.5268  1.0597
  755MOL0     C99539   7.997   5.380   5.612  0.5619 -0.3639 -0.6595
  755MOL0     C99540   7.903   5.495   5.562  0.3727 -0.3912  0.2152
  755MOL0     C99541   7.760   5.451   5.563 -0.5119  0.3558  0.5005
  755MOL0     C99542   7.718   5.412   5.417  0.1375  0.1611 -0.0463
  755MOL0     C99543   7.570   5.366   5.402 -0.0763 -0.2267  0.1437
  755MOL0     C99544   7.540   5.226   5.466 -0.5468  0.1792  1.0608
  755MOL0     N99545   7.405   5.179   5.428 -0.4454  0.0543  0.1811
  755MOL0     C99546   7.364   5.146   5.300 -0.1153 -0.2494 -0.3137
  755MOL0     C99547   7.226   5.140   5.308  0.0699  0.7174  0.2808
  755MOL0     C99548   7.138   5.093   5.189  0.0697  1.0116  1.4837
  755MOL0     C99549   7.025   5.007   5.237  1.0320 -0.2907 -0.7165
  755MOL0     C99550   6.939   4.953   5.119  1.1733 -0.8656  0.4321
  755MOL0     C99551   6.822   4.869   5.168 -0.4349 -0.2371 -0.7523
  755MOL0     O99552   6.791   4.770   5.066 -0.7144 -0.1100  0.5199
  755MOL0     C99553   6.702   4.664   5.087  0.2327 -1.0892 -0.0742
  755MOL0     C99554   6.628   4.648   5.204 -0.3445 -0.0317 -0.2842
  755MOL0     C99555   6.533   4.542   5.224  0.4316  0.0753 -0.4668
  755MOL0     C99556   6.510   4.451   5.125 -0.0193  0.4763 -0.2098
  755MOL0     C99557   6.413   4.334   5.142  0.6936  0.7057 -0.5075
  755MOL0     O99558   6.324   4.345   5.246  0.6747 -0.3944 -0.1234
  755MOL0     C99559   6.235   4.239   5.285 -0.1712  0.2323  1.0264
  755MOL0     C99560   6.192   4.235   5.421  0.9617  0.2451 -0.7118
  755MOL0     C99561   6.105   4.131   5.468  0.1914 -0.3420  0.2632
  755MOL0     C99562   6.068   4.030   5.377  0.5674 -0.0343  0.1834
  755MOL0     O99563   6.005   3.915   5.417  0.5308  0.0837 -0.6027
  755MOL0     C99564   5.885   3.931   5.505 -0.7540  0.3857  1.2803
  755MOL0     C99565   5.830   3.791   5.524 -0.4074  0.4485  0.6114
  755MOL0     C99566   5.776   3.732   5.397  0.1504  0.1780  0.6729
  755MOL0     C99567   5.731   3.585   5.419 -0.5979 -0.2016  0.7863
  755MOL0     C99568   5.603   3.540   5.341 -0.4251 -0.3325  0.3524
  755MOL0     C99569   5.632   3.519   5.191  0.2194 -0.8473 -0.3116
  755MOL0     C99570   5.513   3.484   5.108 -0.3656 -0.3448  0.1499
  755MOL0     C99571   5.562   3.458   4.969 -0.3827  0.0514 -0.8608
  755MOL0    Cl99572   5.424   3.414   4.856  0.3831 -0.4230 -0.1841
  755MOL0     C99573   6.101   4.041   5.241  0.6232  0.4872  0.0630
  755MOL0     C99574   6.176   4.151   5.190 -0.3927  1.1144 -0.3911
  755MOL0     O99575   6.419   4.232   5.072 -0.5823  0.2280  0.3074
  755MOL0     C99576   6.590   4.467   5.005  0.8431 -0.6445  0.0325
  755MOL0     C99577   6.684   4.573   4.982 -0.6061 -0.6707 -0.7228
  755MOL0     N99578   7.191   5.181   5.433  0.2312 -1.0043 -0.0976
  755MOL0     N99579   7.299   5.203   5.508 -0.6265  0.1501  0.0323
  755MOL0     C99580   8.563   5.402   5.816  0.3102 -0.1781  0.0732
  755MOL0     C99581   8.680   5.348   5.864 -0.2411  0.0289 -0.2484
  755MOL0     C99582   9.048   5.140   5.886 -0.4467 -0.6699 -1.3669
  755MOL0     C99583   9.061   5.114   6.029 -0.1298 -0.5629  0.0361
  755MOL0     C99584   9.191   5.132   6.088  0.5723 -0.4540 -0.1668
  755MOL0     C99585   9.312   5.162   6.017 -0.6380  0.3282 -0.3464
  755MOL0     O99586   9.428   5.170   6.087 -0.2826 -0.1354  0.0109
  755MOL0     C99587   9.547   5.109   6.044  0.4739  0.3025  0.1710
  755MOL0     C99588   9.651   5.210   6.057 -0.3674 -0.1519 -0.5327
  755MOL0     C99589   9.667   5.282   6.196  0.3251 -0.9339  0.5178
  755MOL0     C99590   9.705   5.184   6.312  0.8224  0.2521  0.3403
  755MOL0     C99591   9.753   5.253   6.436 -0.5922  1.1410 -0.0160
  755MOL0     C99592   9.803   5.305   6.533 -0.0378 -0.9636 -0.4101
  755MOL0     C99593   9.298   5.172   5.878  0.8177  0.0754 -0.8382
  755MOL0     C99594   9.172   5.168   5.817  0.4776 -0.1947 -0.1517
  755MOL0     H99595   8.592   5.020   5.834  2.9556  0.5400  0.8406
  755MOL0     H99596   8.386   5.116   5.791  0.4459 -1.0524  1.2510
  755MOL0     H99597   8.184   5.286   5.776 -2.3094 -0.6896 -2.0490
  755MOL0     H99598   8.236   5.253   5.616 -2.3589 -2.5281  2.6368
  755MOL0     H99599   8.174   5.474   5.541  1.5370 -3.5059 -0.2339
  755MOL0     H99600   8.132   5.514   5.709  1.0961  0.4627  1.1336
  755MOL0     H99601   7.967   5.343   5.710 -0.8805  0.5565 -0.7367
  755MOL0     H99602   7.999   5.300   5.537 -2.3105 -0.3336 -0.8604
  755MOL0     H99603   7.918   5.588   5.616 -0.8499 -0.1946  0.2448
  755MOL0     H99604   7.924   5.530   5.460 -0.4194  0.2854  0.2760
  755MOL0     H99605   7.697   5.529   5.609 -0.5432 -0.4390  1.8694
  755MOL0     H99606   7.739   5.371   5.635 -1.8087  1.0891  0.9850
  755MOL0     H99607   7.781   5.330   5.380 -0.2166 -0.4057  0.5707
  755MOL0     H99608   7.730   5.494   5.345 -2.8274  0.3514 -0.4652
  755MOL0     H99609   7.497   5.436   5.444  0.3964  0.0672  0.4883
  755MOL0     H99610   7.534   5.362   5.299 -0.8137  1.6002  0.2896
  755MOL0     H99611   7.538   5.240   5.575 -2.2477  1.4361  0.8936
  755MOL0     H99612   7.623   5.159   5.440 -1.6086 -0.9879  0.5593
  755MOL0     H99613   7.432   5.130   5.217 -1.8513  3.3654 -2.6846
  755MOL0     H99614   7.199   5.036   5.119 -0.8902  2.0989 -0.3156
  755MOL0     H99615   7.093   5.173   5.130  1.2443  1.3426  1.0173
  755MOL0     H99616   6.951   5.068   5.290 -0.9809 -2.2841 -1.0453
  755MOL0     H99617   7.054   4.931   5.310  0.2512  1.9267  2.0873
  755MOL0     H99618   6.906   5.047   5.073  0.3830 -0.4999  1.6882
  755MOL0     H99619   6.996   4.902   5.041 -3.4326 -1.9055 -2.6960
  755MOL0     H99620   6.733   4.919   5.208 -0.0531 -1.0097  1.2127
  755MOL0     H99621   6.850   4.802   5.250 -2.4092  0.7408  0.8208
  755MOL0     H99622   6.637   4.712   5.291  1.8236  0.4929 -0.8387
  755MOL0     H99623   6.483   4.532   5.319 -2.4280 -2.6523 -2.1077
  755MOL0     H99624   6.227   4.297   5.502  1.1918 -0.9648  0.1448
  755MOL0     H99625   6.071   4.132   5.571 -0.1391 -1.4446  0.1770
  755MOL0     H99626   5.817   4.006   5.463  1.3469  0.8886 -1.5050
  755MOL0     H99627   5.898   3.970   5.606 -5.1836 -0.6803  2.4783
  755MOL0     H99628   5.749   3.786   5.597 -1.5061  0.1951 -0.5781
  755MOL0     H99629   5.909   3.721   5.552 -0.9951 -1.3656 -1.8479
  755MOL0     H99630   5.849   3.730   5.316 -1.3000  1.5782 -0.7356
  755MOL0     H99631   5.697   3.803   5.372 -1.0190 -0.9263  1.1608
  755MOL0     H99632   5.810   3.520   5.378 -2.8736 -2.0875 -0.9656
  755MOL0     H99633   5.704   3.568   5.523  1.5750  3.1749  2.0661
  755MOL0     H99634   5.530   3.622   5.348  1.2084  1.2316 -0.2023
  755MOL0     H99635   5.579   3.442   5.383  1.8006 -1.9174 -1.8067
  755MOL0     H99636   5.716   3.451   5.179  0.9400 -0.2323  1.0187
  755MOL0     H99637   5.680   3.614   5.166  1.4562 -0.9214  1.5721
  755MOL0     H99638   5.456   3.403   5.156  1.2815  0.4764  3.8694
  755MOL0     H99639   5.450   3.573   5.104 -1.0472 -0.8593 -0.9015
  755MOL0     H99640   5.634   3.377   4.988  0.7404  0.9622 -1.1369
  755MOL0     H99641   5.620   3.536   4.919  1.8695  0.6522  2.4047
  755MOL0     H99642   6.061   3.965   5.174  2.0636 -0.0082 -0.2697
  755MOL0     H99643   6.196   4.163   5.085  1.5435 -0.3408 -0.2575
  755MOL0     H99644   6.562   4.403   4.923  2.9899 -2.2486  0.4609
  755MOL0     H99645   6.747   4.598   4.897 -1.5154 -1.1645 -1.5550
  755MOL0     H99646   8.559   5.511   5.825 -0.5865  0.0376 -2.2046
  755MOL0     H99647   8.769   5.396   5.904 -0.5135 -0.7486  1.3760
  755MOL0     H99648   8.978   5.088   6.093  1.5778 -2.9755  1.4301
  755MOL0     H99649   9.195   5.115   6.195 -2.1643 -1.2015 -0.0979
  755MOL0     H99650   9.560   5.080   5.940  4.0677  1.2306  0.2400
  755MOL0     H99651   9.562   5.016   6.099  2.7282  0.6397  0.2087
  755MOL0     H99652   9.746   5.159   6.040  0.6467  1.1411  0.9832
  755MOL0     H99653   9.641   5.287   5.980 -2.9360 -0.0089 -0.1470
  755MOL0     H99654   9.581   5.344   6.221  1.9222  1.7371 -0.2309
  755MOL0     H99655   9.756   5.345   6.189  1.6048 -2.4164  2.3455
  755MOL0     H99656   9.617   5.125   6.340  0.7164 -1.6937 -3.5617
  755MOL0     H99657   9.777   5.113   6.271  0.9440 -0.1300  1.1920
  755MOL0     H99658   9.844   5.349   6.622 -3.3892 -0.2473  0.9310
  755MOL0     H99659   9.373   5.179   5.800 -0.1220 -1.6328 -1.9629
  755MOL0     H99660   9.173   5.195   5.712 -0.5081  1.7220  0.2835
  756MOL0     O99661   2.769   1.861   5.685  0.9015 -0.6991  0.4460
  756MOL0     C99662   2.704   1.953   5.638 -0.1615  0.0631 -0.3279
  756MOL0     O99663   2.751   2.052   5.555  0.0024 -0.2510  0.3893
  756MOL0     C99664   2.877   2.040   5.489  0.5493  0.5913 -0.5776
  756MOL0     C99665   2.949   2.165   5.473  1.1919  0.6913 -0.4378
  756MOL0     C99666   3.064   2.176   5.397 -0.4211  0.9540 -0.6244
  756MOL0     C99667   3.117   2.064   5.338 -0.0670 -0.5291  0.5092
  756MOL0     O99668   3.235   2.059   5.275  0.6092 -0.4235  0.3835
  756MOL0     C99669   3.343   2.157   5.288 -0.5916 -0.2795 -0.3405
  756MOL0     C99670   3.419   2.126   5.421 -0.3515  0.9167 -0.3915
  756MOL0     C99671   3.537   2.223   5.437 -0.1597  0.5796  0.8896
  756MOL0     C99672   3.644   2.216   5.319  0.0120 -0.4608  0.0526
  756MOL0     C99673   3.756   2.313   5.368  0.1362 -0.3954 -0.3252
  756MOL0     C99674   3.860   2.341   5.247 -0.0888 -0.1424  0.0125
  756MOL0     C99675   3.790   2.415   5.124  0.6459  0.2718 -0.5448
  756MOL0     C99676   3.872   2.533   5.058 -0.3268 -0.2814  0.3345
  756MOL0     N99677   3.783   2.596   4.964  0.0809 -0.6068  0.0152
  756MOL0     C99678   3.714   2.715   4.990 -0.8274  0.6332 -0.1769
  756MOL0     C99679   3.664   2.759   4.879 -0.1432 -0.3715  0.4429
  756MOL0     C99680   3.583   2.891   4.862 -0.1717  0.1406 -0.8599
  756MOL0     C99681   3.446   2.846   4.833 -0.1456  0.0160  0.2714
  756MOL0     C99682   3.351   2.966   4.804 -0.1780  0.2555 -1.2728
  756MOL0     C99683   3.214   2.901   4.767  0.1701  0.1871 -0.0286
  756MOL0     O99684   3.122   2.930   4.878  0.5566  0.3366  0.3170
  756MOL0     C99685   2.999   2.872   4.879 -0.3649 -0.4139 -0.3997
  756MOL0     C99686   2.924   2.887   5.002  0.6355  0.5861 -1.4055
  756MOL0     C99687   2.791   2.831   5.016 -0.0091 -0.2808  0.2407
  756MOL0     C99688   2.733   2.748   4.911 -0.3609  0.7372  0.3930
  756MOL0     C99689   2.612   2.673   4.939  0.0449 -0.3434  0.3828
  756MOL0     O99690   2.558   2.615   4.830  0.2557 -0.0429 -0.1883
  756MOL0     C99691   2.427   2.559   4.830  0.9666  0.2047  1.4148
  756MOL0     C99692   2.407   2.480   4.713  0.2660  0.1269  0.7845
  756MOL0     C99693   2.280   2.432   4.680  0.3664 -0.4733 -0.3589
  756MOL0     C99694   2.173   2.444   4.777 -0.1607 -0.1305 -0.1685
  756MOL0     O99695   2.047   2.389   4.758  0.0835 -0.8283 -0.4545
  756MOL0     C99696   2.044   2.263   4.698 -0.9304  0.2747  0.0652
  756MOL0     C99697   1.909   2.196   4.737  0.6297 -0.6289  0.5070
  756MOL0     C99698   1.868   2.122   4.614  0.3320 -0.2673  0.0214
  756MOL0     C99699   1.718   2.101   4.602  0.0659  0.3499  0.4691
  756MOL0     C99700   1.677   1.995   4.488 -0.6980 -0.5564 -0.3503
  756MOL0     C99701   1.527   1.975   4.473  0.3684 -0.2316 -0.6134
  756MOL0     C99702   1.481   1.873   4.362 -0.8341 -0.1433 -0.3252
  756MOL0     C99703   1.329   1.848   4.352 -1.2079 -0.6864 -0.3316
  756MOL0    Cl99704   1.288   1.739   4.220  0.1848  0.1774  0.4133
  756MOL0     C99705   2.196   2.515   4.897 -0.2373  0.2337  0.6854
  756MOL0     C99706   2.317   2.579   4.917  0.4134 -0.0210 -0.4302
  756MOL0     O99707   2.569   2.669   5.048  0.3526  0.3472  0.5138
  756MOL0     C99708   2.802   2.746   4.789  0.5989  0.2413 -0.5298
  756MOL0     C99709   2.926   2.810   4.768 -0.3675  0.0679  0.0263
  756MOL0     N99710   3.708   2.678   4.780 -0.9115  0.3761  0.4966
  756MOL0     N99711   3.773   2.577   4.832 -0.4358 -0.6793  0.0233
  756MOL0     C99712   3.052   1.946   5.351 -0.0859 -0.7374  1.2959
  756MOL0     C99713   2.932   1.937   5.424  0.6269  0.9411  0.6216
  756MOL0     C99714   2.559   1.943   5.662  0.5001 -1.2092  0.4092
  756MOL0     C99715   2.504   1.854   5.754 -0.6302  0.9299 -0.8234
  756MOL0     C99716   2.360   1.838   5.752 -0.0131 -0.2978  0.0985
  756MOL0     C99717   2.276   1.918   5.668 -0.1949  0.8634 -0.6747
  756MOL0     O99718   2.138   1.907   5.693 -0.2753 -0.4422 -0.1382
  756MOL0     C99719   2.042   1.994   5.623 -0.7857  0.0024 -0.0424
  756MOL0     C99720   1.895   1.936   5.634  0.4458 -0.5073  0.2475
  756MOL0     C99721   1.882   1.799   5.562 -0.5255  0.8770  0.1880
  756MOL0     C99722   1.806   1.795   5.425  0.0224  0.7313 -0.6085
  756MOL0     C99723   1.792   1.667   5.361  0.4296  0.0478  0.3113
  756MOL0     C99724   1.794   1.578   5.278 -0.7253  0.6390  0.3056
  756MOL0     C99725   2.340   2.004   5.583  0.0043  0.0181  0.3568
  756MOL0     C99726   2.480   2.018   5.575  0.0567  0.5104  0.0417
  756MOL0     H99727   2.928   2.251   5.536  3.3064  0.8897  0.0947
  756MOL0     H99728   3.112   2.273   5.386  0.5479  0.7632  1.4914
  756MOL0     H99729   3.302   2.258   5.294 -0.5701 -0.3056  0.2975
  756MOL0     H99730   3.415   2.151   5.206 -0.5102 -2.6606 -0.1758
  756MOL0     H99731   3.467   2.028   5.421  0.8645  1.4931 -0.2040
  756MOL0     H99732   3.348   2.134   5.504 -0.3768  1.8396 -0.4901
  756MOL0     H99733   3.583   2.176   5.525  0.9758 -2.7285 -1.3014
  756MOL0     H99734   3.508   2.328   5.452  0.6763  0.7694  1.2271
  756MOL0     H99735   3.688   2.118   5.297  2.3636  0.4183  0.6283
  756MOL0     H99736   3.599   2.248   5.225 -1.3569 -0.0513  0.8177
  756MOL0     H99737   3.806   2.263   5.452  0.2156  0.9080  0.4224
  756MOL0     H99738   3.710   2.402   5.411 -0.2149 -0.1419 -1.2146
  756MOL0     H99739   3.900   2.244   5.217  1.2962  0.2754  0.4062
  756MOL0     H99740   3.939   2.398   5.297 -0.7827  0.4926  0.4069
  756MOL0     H99741   3.770   2.339   5.048  1.7712  0.5614 -1.1377
  756MOL0     H99742   3.696   2.460   5.159  0.4659  1.3280 -2.2902
  756MOL0     H99743   3.955   2.498   4.997 -0.6482  1.8852 -1.4433
  756MOL0     H99744   3.906   2.599   5.139  0.8757  2.0649 -1.9551
  756MOL0     H99745   3.691   2.762   5.085 -1.6097  2.6281 -1.2994
  756MOL0     H99746   3.620   2.943   4.774  1.2662  0.1453 -0.2972
  756MOL0     H99747   3.593   2.966   4.941 -0.5108  1.3292 -1.9194
  756MOL0     H99748   3.408   2.797   4.923 -0.3188  2.7531  1.8089
  756MOL0     H99749   3.449   2.768   4.757 -0.0750 -1.2417  1.5341
  756MOL0     H99750   3.360   3.022   4.897 -1.6580 -0.8213 -0.4435
  756MOL0     H99751   3.393   3.035   4.730  1.5765 -0.0733 -0.6315
  756MOL0     H99752   3.216   2.795   4.743  2.1250  0.9025 -3.7236
  756MOL0     H99753   3.175   2.952   4.678  2.2088  2.2441  0.1696
  756MOL0     H99754   2.969   2.950   5.078  1.3479 -0.9742 -0.4810
  756MOL0     H99755   2.740   2.842   5.111  0.8188 -1.3626  0.8280
  756MOL0     H99756   2.494   2.468   4.649  0.1947 -2.6895  1.1324
  756MOL0     H99757   2.269   2.358   4.601 -2.6423  0.5202 -0.9730
  756MOL0     H99758   2.128   2.205   4.735  2.3390  4.2090 -0.4418
  756MOL0     H99759   2.057   2.282   4.591 -0.6735  1.5170  0.3033
  756MOL0     H99760   1.830   2.269   4.757  0.5480 -0.4674 -0.3408
  756MOL0     H99761   1.925   2.132   4.824  1.1050 -1.6274 -0.2965
  756MOL0     H99762   1.916   2.023   4.610  2.1987  0.4839 -6.0844
  756MOL0     H99763   1.893   2.162   4.515  1.4061 -2.4441 -0.6611
  756MOL0     H99764   1.692   2.059   4.699  0.0372 -3.3015 -0.9746
  756MOL0     H99765   1.665   2.196   4.586 -4.1248 -0.9844  4.3365
  756MOL0     H99766   1.726   1.899   4.505  0.8486  0.2228 -0.2733
  756MOL0     H99767   1.710   2.028   4.389  0.0255 -0.9243 -0.2376
  756MOL0     H99768   1.489   2.075   4.454  1.7423  0.1469 -1.5126
  756MOL0     H99769   1.481   1.943   4.567 -2.4130  0.5455 -1.5967
  756MOL0     H99770   1.530   1.901   4.268 -1.3643 -1.7540 -1.1163
  756MOL0     H99771   1.534   1.781   4.390 -0.4556 -0.7268 -2.7118
  756MOL0     H99772   1.276   1.943   4.339  1.7887  1.1626  0.2451
  756MOL0     H99773   1.288   1.807   4.445 -1.4715 -2.2640 -1.0930
  756MOL0     H99774   2.110   2.528   4.962 -2.6551 -1.7437 -1.8454
  756MOL0     H99775   2.322   2.645   5.004 -1.5164 -0.0800 -0.2341
  756MOL0     H99776   2.757   2.695   4.705 -0.1090 -0.0813  0.0371
  756MOL0     H99777   2.971   2.806   4.669 -0.5017  2.3982 -0.1912
  756MOL0     H99778   3.093   1.861   5.296  3.5109  0.1559  2.3794
  756MOL0     H99779   2.860   1.856   5.425  0.4948  1.0302 -0.6149
  756MOL0     H99780   2.556   1.796   5.829  2.2989  3.3917 -0.7345
  756MOL0     H99781   2.319   1.761   5.817 -2.2468 -0.1874 -1.1001
  756MOL0     H99782   2.076   2.018   5.522  0.7382  0.7938  0.6217
  756MOL0     H99783   2.044   2.087   5.681  0.7344 -0.8656  1.4040
  756MOL0     H99784   1.870   1.923   5.740 -0.6459  0.6458  0.1654
  756MOL0     H99785   1.825   2.004   5.585  1.1657  0.9110  1.1168
  756MOL0     H99786   1.837   1.729   5.633  0.4058  0.1836  0.1195
  756MOL0     H99787   1.985   1.769   5.543  0.9194  4.0248  2.0971
  756MOL0     H99788   1.705   1.835   5.436 -0.0857  0.1911  0.5212
  756MOL0     H99789   1.862   1.865   5.361 -1.0173  1.2102 -1.0108
  756MOL0     H99790   1.782   1.509   5.198  3.0580  1.1106 -0.8492
  756MOL0     H99791   2.289   2.080   5.524 -1.4366  0.2050  1.7635
  756MOL0     H99792   2.512   2.097   5.508 -0.5398  0.8695  0.1763
  757MOL0     O99793   5.095   2.440   2.730 -0.5022 -0.4293  1.0243
  757MOL0     C99794   5.120   2.414   2.612 -0.1872  0.4423  0.9410
  757MOL0     O99795   5.030   2.416   2.506 -0.2809 -0.5553  0.5753
  757MOL0     C99796   4.896   2.434   2.529  0.5043  0.2094  0.0532
  757MOL0     C99797   4.830   2.380   2.640  0.2197 -0.9727  0.4581
  757MOL0     C99798   4.693   2.398   2.647  1.0072 -0.0159  0.7006
  757MOL0     C99799   4.612   2.456   2.545 -0.8828 -0.1272 -0.4520
  757MOL0     O99800   4.474   2.470   2.566 -0.6480 -0.4251 -0.5662
  757MOL0     C99801   4.398   2.558   2.481 -0.5539 -0.9057 -0.4122
  757MOL0     C99802   4.336   2.480   2.361 -0.0670  0.2658 -0.5769
  757MOL0     C99803   4.247   2.366   2.398  0.6042 -0.4179 -0.0364
  757MOL0     C99804   4.121   2.420   2.470 -0.2759 -0.4914  0.0115
  757MOL0     C99805   4.004   2.322   2.474 -0.2769 -0.1196  0.4012
  757MOL0     C99806   3.874   2.362   2.418 -0.2919 -0.5775 -0.4920
  757MOL0     C99807   3.779   2.248   2.418 -0.5026 -0.9557 -0.0294
  757MOL0     C99808   3.640   2.293   2.383 -0.1619 -0.4640  1.3252
  757MOL0     N99809   3.637   2.346   2.246  0.4582 -0.0637 -0.0681
  757MOL0     C99810   3.646   2.268   2.131  0.2840  0.8040 -0.3597
  757MOL0     C99811   3.644   2.364   2.038  0.1346 -0.3894 -0.6906
  757MOL0     C99812   3.636   2.342   1.890  0.7507 -0.0248  0.2540
  757MOL0     C99813   3.495   2.378   1.833  0.1406 -0.2245 -0.8211
  757MOL0     C99814   3.381   2.308   1.917 -0.3912 -0.5873  0.7811
  757MOL0     C99815   3.240   2.381   1.886  0.0223 -0.5174  0.1029
  757MOL0     O99816   3.237   2.527   1.898 -0.1631  0.0006  0.4988
  757MOL0     C99817   3.163   2.606   1.803  0.4797 -0.9629 -0.0229
  757MOL0     C99818   3.062   2.557   1.720  0.1430  0.5730  0.7831
  757MOL0     C99819   2.989   2.645   1.643 -0.6978 -0.7617 -0.7380
  757MOL0     C99820   3.011   2.786   1.654  0.4406 -0.1934  0.8231
  757MOL0     C99821   2.919   2.879   1.569  0.5387  0.1151 -0.1143
  757MOL0     O99822   2.797   2.814   1.541  0.0763 -0.3999 -0.6433
  757MOL0     C99823   2.689   2.883   1.488  0.4751  0.6568 -0.2359
  757MOL0     C99824   2.653   3.013   1.523 -0.3283 -0.1294  0.1896
  757MOL0     C99825   2.539   3.063   1.465  0.1171  0.2219  0.7131
  757MOL0     C99826   2.447   2.996   1.384  0.0169 -0.1059  0.0207
  757MOL0     O99827   2.319   3.035   1.356 -0.1145  0.3887 -0.1857
  757MOL0     C99828   2.250   3.093   1.467  0.3080  0.7070 -0.2669
  757MOL0     C99829   2.279   3.242   1.463  0.4196 -0.6822 -0.3838
  757MOL0     C99830   2.142   3.320   1.449 -0.2670 -0.5465 -0.5740
  757MOL0     C99831   2.157   3.464   1.472 -0.2111 -0.1230  0.4111
  757MOL0     C99832   2.070   3.552   1.376 -0.1833 -0.0559 -0.3307
  757MOL0     C99833   1.920   3.554   1.407 -0.3554 -0.1684 -0.0104
  757MOL0     C99834   1.851   3.414   1.378  0.3741  0.0072 -0.1329
  757MOL0     C99835   1.715   3.451   1.317  0.3287 -0.0553  0.1122
  757MOL0    Cl99836   1.637   3.311   1.242  0.1053 -0.1398  0.2070
  757MOL0     C99837   2.489   2.867   1.344 -0.4644  0.8904 -0.3103
  757MOL0     C99838   2.608   2.819   1.389 -0.0931  0.0856 -0.5488
  757MOL0     O99839   2.951   2.996   1.551  0.4125  0.4663 -0.1513
  757MOL0     C99840   3.113   2.828   1.742  0.5078 -0.1473 -0.6508
  757MOL0     C99841   3.184   2.738   1.807 -0.5536  0.1682  0.0152
  757MOL0     N99842   3.632   2.486   2.099 -0.2041 -0.0291  0.2066
  757MOL0     N99843   3.622   2.475   2.226 -0.7619 -0.1537 -0.0628
  757MOL0     C99844   4.690   2.507   2.439  0.1973 -0.8330 -0.2804
  757MOL0     C99845   4.826   2.497   2.434 -0.0466 -0.1284 -0.9003
  757MOL0     C99846   5.264   2.382   2.593 -1.2647 -0.4861  0.1786
  757MOL0     C99847   5.312   2.338   2.468  0.8781 -0.3995 -0.7901
  757MOL0     C99848   5.447   2.307   2.450  0.3753 -0.4415 -0.0793
  757MOL0     C99849   5.538   2.326   2.551 -0.9681  0.4045 -0.6966
  757MOL0     O99850   5.664   2.286   2.537  0.3362  0.5131 -0.5994
  757MOL0     C99851   5.744   2.389   2.495  0.0662  0.0281 -0.3447
  757MOL0     C99852   5.890   2.345   2.495 -0.3340  0.7436 -0.1867
  757MOL0     C99853   5.977   2.399   2.376 -0.2476  0.5027 -0.5799
  757MOL0     C99854   5.919   2.387   2.234  0.4082 -0.2690  0.1689
  757MOL0     C99855   6.026   2.417   2.133 -0.4040  0.0742  0.1413
  757MOL0     C99856   6.123   2.456   2.074  0.7053  0.3052 -0.1162
  757MOL0     C99857   5.495   2.359   2.679 -0.2172 -0.2994  0.7778
  757MOL0     C99858   5.365   2.387   2.698  0.2627 -0.0055 -0.3276
  757MOL0     H99859   4.871   2.332   2.727  1.5718 -3.5013 -1.4368
  757MOL0     H99860   4.646   2.360   2.738 -0.1618 -0.9505 -0.2620
  757MOL0     H99861   4.458   2.646   2.454 -3.2117  1.3118  0.4633
  757MOL0     H99862   4.319   2.596   2.546  0.7564 -0.3398  0.9105
  757MOL0     H99863   4.408   2.444   2.287 -1.1694  0.0692 -1.5900
  757MOL0     H99864   4.280   2.556   2.306  0.5667  0.6779 -0.6596
  757MOL0     H99865   4.297   2.286   2.454  3.4550  1.2235 -0.0557
  757MOL0     H99866   4.219   2.328   2.299  0.5503  2.6642 -1.3291
  757MOL0     H99867   4.142   2.450   2.573 -0.3147 -0.8184  0.1159
  757MOL0     H99868   4.094   2.510   2.414 -1.9123 -1.2056 -0.4118
  757MOL0     H99869   3.984   2.291   2.577  1.7700 -2.9818  0.0497
  757MOL0     H99870   4.035   2.232   2.420 -0.4069 -0.6597  1.2081
  757MOL0     H99871   3.894   2.394   2.315  4.0532 -1.7531 -0.1966
  757MOL0     H99872   3.835   2.451   2.468  1.7013  0.4862 -0.7213
  757MOL0     H99873   3.815   2.164   2.357  1.9280  1.4146 -2.1301
  757MOL0     H99874   3.774   2.208   2.520  1.6294 -1.6597 -0.1530
  757MOL0     H99875   3.622   2.372   2.457 -1.2773  1.5104 -0.9218
  757MOL0     H99876   3.569   2.210   2.390 -2.4087  1.1748 -0.7011
  757MOL0     H99877   3.645   2.160   2.129 -2.8839  0.4647  4.3363
  757MOL0     H99878   3.654   2.235   1.883 -1.0976 -0.5105  2.0615
  757MOL0     H99879   3.712   2.400   1.836 -0.7037 -0.8638 -2.9879
  757MOL0     H99880   3.496   2.339   1.730  1.2653  0.4500 -1.0751
  757MOL0     H99881   3.504   2.487   1.834 -0.7052 -0.1363  0.9969
  757MOL0     H99882   3.379   2.202   1.890  2.2794 -0.7105  0.8295
  757MOL0     H99883   3.388   2.323   2.025 -1.4176  2.6365  0.5019
  757MOL0     H99884   3.164   2.339   1.952 -2.1075  0.4392 -1.6187
  757MOL0     H99885   3.215   2.362   1.781  2.4208 -2.4785 -0.2009
  757MOL0     H99886   3.044   2.451   1.703  0.2617  0.5734  0.6499
  757MOL0     H99887   2.920   2.613   1.566 -0.6841  0.5774 -1.3394
  757MOL0     H99888   2.706   3.079   1.590 -0.1319 -2.1853  2.1911
  757MOL0     H99889   2.516   3.166   1.492 -1.0731  0.1117  0.1624
  757MOL0     H99890   2.273   3.042   1.561 -1.7119 -2.6003 -1.3901
  757MOL0     H99891   2.140   3.091   1.464  0.2948  1.1652 -0.0770
  757MOL0     H99892   2.344   3.269   1.379  3.8483 -4.5702  0.7125
  757MOL0     H99893   2.334   3.266   1.555  1.0850 -1.2216 -0.6271
  757MOL0     H99894   2.068   3.272   1.514 -3.2648  0.8858 -2.6931
  757MOL0     H99895   2.111   3.301   1.346  0.1879  1.0709 -1.0400
  757MOL0     H99896   2.155   3.490   1.578 -0.1537 -2.0385  0.9161
  757MOL0     H99897   2.261   3.483   1.442 -0.2154 -1.9608 -1.0135
  757MOL0     H99898   2.073   3.525   1.270 -3.7304 -1.4301 -0.2105
  757MOL0     H99899   2.107   3.653   1.398 -0.1884 -0.7974  4.1414
  757MOL0     H99900   1.875   3.631   1.344 -0.7151 -0.9513 -0.7226
  757MOL0     H99901   1.917   3.572   1.515  0.9506 -3.9271  0.8076
  757MOL0     H99902   1.903   3.352   1.305  0.0690 -2.4789  1.6386
  757MOL0     H99903   1.822   3.357   1.467  0.6860  0.4913  0.2806
  757MOL0     H99904   1.715   3.524   1.236 -2.1530 -1.6241 -1.3983
  757MOL0     H99905   1.637   3.483   1.386 -0.2681  0.0017 -0.5867
  757MOL0     H99906   2.439   2.801   1.273  0.6781 -1.0559  0.6006
  757MOL0     H99907   2.641   2.722   1.351 -0.6771 -0.2556 -0.2021
  757MOL0     H99908   3.127   2.933   1.769 -0.3431  0.0824 -1.0662
  757MOL0     H99909   3.263   2.757   1.879  2.5698 -1.7604 -2.6737
  757MOL0     H99910   4.630   2.554   2.361 -1.8574 -0.9315  1.1706
  757MOL0     H99911   4.892   2.537   2.358  3.3560  0.9680  2.3366
  757MOL0     H99912   5.243   2.322   2.385 -0.9184 -0.0597  0.5854
  757MOL0     H99913   5.482   2.275   2.353  2.1583 -3.2405  1.3559
  757MOL0     H99914   5.733   2.471   2.567 -1.2933 -1.4384  1.1960
  757MOL0     H99915   5.703   2.415   2.396 -3.3998 -3.1175  0.0535
  757MOL0     H99916   5.937   2.373   2.589  2.4983 -0.4421 -1.1343
  757MOL0     H99917   5.891   2.236   2.502  1.7661  0.7520  0.3344
  757MOL0     H99918   6.078   2.359   2.386  0.0667  1.0346 -1.4707
  757MOL0     H99919   5.986   2.505   2.404  1.7734  0.0256  0.7951
  757MOL0     H99920   5.890   2.282   2.219 -0.5096 -0.2198  1.4692
  757MOL0     H99921   5.839   2.461   2.231  0.2641 -0.3427  1.4117
  757MOL0     H99922   6.194   2.494   2.003 -1.9264  1.3331 -2.3627
  757MOL0     H99923   5.560   2.382   2.763  1.7494  0.3176 -0.8410
  757MOL0     H99924   5.343   2.412   2.801 -0.7601 -1.0678 -0.2702
  758MOL0     O99925   8.879   2.941   3.839 -0.7080  0.3377 -0.6079
  758MOL0     C99926   8.963   2.935   3.746 -0.2998  0.0084 -1.5366
  758MOL0     O99927   8.978   3.020   3.648 -0.5969  0.5082  0.1560
  758MOL0     C99928   8.873   3.103   3.621  0.6695 -0.0756  0.5319
  758MOL0     C99929   8.890   3.231   3.662 -0.5540 -0.6946  0.2507
  758MOL0     C99930   8.784   3.322   3.649 -0.0064  0.9360  0.0614
  758MOL0     C99931   8.661   3.279   3.595  0.4554  0.1447 -0.1334
  758MOL0     O99932   8.549   3.354   3.572  0.3565  0.3031 -0.1589
  758MOL0     C99933   8.507   3.436   3.688  0.1068 -0.3081  0.5323
  758MOL0     C99934   8.394   3.511   3.655 -0.0673 -0.1278 -0.1838
  758MOL0     C99935   8.258   3.436   3.649  0.7726 -0.2274 -0.1139
  758MOL0     C99936   8.218   3.381   3.513 -0.0403  0.6851 -0.4022
  758MOL0     C99937   8.073   3.318   3.506 -0.1896  0.3222 -1.2306
  758MOL0     C99938   8.039   3.211   3.606 -0.1826 -0.2750  0.2029
  758MOL0     C99939   7.904   3.145   3.563 -0.5194 -0.1200  0.8092
  758MOL0     C99940   7.879   3.019   3.636  1.1771 -0.9790 -0.1588
  758MOL0     N99941   7.749   2.949   3.608  0.5021 -0.1279  0.1550
  758MOL0     C99942   7.739   2.866   3.498 -0.8682  0.3882  0.0044
  758MOL0     C99943   7.604   2.824   3.509 -0.2006  0.9205  0.5589
  758MOL0     C99944   7.550   2.732   3.403  0.0672  0.8865 -0.2103
  758MOL0     C99945   7.434   2.650   3.461 -0.1171 -0.1503 -1.0837
  758MOL0     C99946   7.306   2.731   3.465 -0.4192 -0.4450  0.2410
  758MOL0     C99947   7.205   2.666   3.556  0.1811  0.0603 -0.5243
  758MOL0     O99948   7.191   2.539   3.507 -0.4205  0.1511  0.0655
  758MOL0     C99949   7.065   2.486   3.515 -0.0479  0.3859 -0.0341
  758MOL0     C99950   6.966   2.528   3.607 -0.0921  0.2752  0.3587
  758MOL0     C99951   6.836   2.470   3.605 -0.3378  0.1321 -0.7980
  758MOL0     C99952   6.807   2.368   3.509 -0.1744 -0.4912  0.3026
  758MOL0     C99953   6.671   2.319   3.507  0.2782  0.4188 -0.7454
  758MOL0     O99954   6.587   2.351   3.612 -0.2335  0.5322 -0.4384
  758MOL0     C99955   6.446   2.340   3.590  0.5290 -0.3048 -0.5862
  758MOL0     C99956   6.387   2.430   3.513 -0.3482 -0.1431  0.3235
  758MOL0     C99957   6.248   2.434   3.484 -0.5034  0.4401 -0.2204
  758MOL0     C99958   6.166   2.348   3.569  0.6736 -0.2591 -0.9604
  758MOL0     O99959   6.040   2.324   3.525  0.1587  0.1013 -1.4307
  758MOL0     C99960   5.943   2.338   3.626  1.1180  0.5506 -0.1661
  758MOL0     C99961   5.811   2.337   3.552 -0.8745  0.3880  0.2816
  758MOL0     C99962   5.700   2.301   3.648  0.7814 -0.1832 -0.5249
  758MOL0     C99963   5.558   2.301   3.586 -0.8565  0.3845 -0.2533
  758MOL0     C99964   5.449   2.237   3.685  0.1623  0.4974 -0.2677
  758MOL0     C99965   5.315   2.208   3.610  0.0883 -0.5322  0.6552
  758MOL0     C99966   5.198   2.170   3.701  0.3744  0.6862  0.5602
  758MOL0     C99967   5.064   2.226   3.649  0.5460  0.7932  0.6523
  758MOL0    Cl99968   5.061   2.405   3.663  0.2723 -0.1687  0.2447
  758MOL0     C99969   6.234   2.266   3.662  0.8916  0.7578 -0.0236
  758MOL0     C99970   6.363   2.263   3.673  0.6568  0.5396 -0.5775
  758MOL0     O99971   6.640   2.242   3.414  0.3638  0.4533 -0.5157
  758MOL0     C99972   6.908   2.311   3.430  0.9728 -0.3749  0.7433
  758MOL0     C99973   7.031   2.383   3.426  0.3329 -0.2746 -0.3510
  758MOL0     N99974   7.544   2.889   3.614 -0.2348 -0.1063  0.2786
  758MOL0     N99975   7.620   2.975   3.668 -0.3975 -0.0947 -1.0282
  758MOL0     C99976   8.650   3.153   3.545 -0.5871  0.1552 -1.4668
  758MOL0     C99977   8.756   3.056   3.558 -0.6670 -0.2294 -0.0064
  758MOL0     C99978   9.081   2.848   3.757 -0.9836 -0.4934 -0.0017
  758MOL0     C99979   9.214   2.897   3.719  0.4445 -0.1604  0.6590
  758MOL0     C99980   9.328   2.823   3.747  0.1673  0.3039 -0.5765
  758MOL0     C99981   9.318   2.704   3.818  0.4407 -0.8019 -0.5116
  758MOL0     O99982   9.427   2.635   3.859  0.1452  0.1100 -0.0198
  758MOL0     C99983   9.558   2.696   3.869  0.3103 -0.1862  0.4175
  758MOL0     C99984   9.647   2.587   3.935 -0.2853 -0.3209  0.6669
  758MOL0     C99985   9.791   2.647   3.950 -0.1456  0.7172  0.9716
  758MOL0     C99986   9.847   2.666   3.807 -0.8216 -0.0101 -0.0444
  758MOL0     C99987   9.994   2.678   3.814  0.1863 -0.1556  0.2746
  758MOL0     C99988  10.113   2.702   3.818 -0.0480  0.4294  0.7279
  758MOL0     C99989   9.192   2.658   3.851 -0.0630  0.0163 -0.1252
  758MOL0     C99990   9.073   2.728   3.826 -0.3579  0.1776  0.6595
  758MOL0     H99991   8.983   3.270   3.702  0.0197 -1.6010 -0.1764
  758MOL0     H99992   8.792   3.425   3.682 -2.6566  1.3160 -0.2350
  758MOL0     H99993   8.587   3.500   3.727 -0.8868 -0.3822  2.8371
  758MOL0     H99994   8.485   3.364   3.767  3.0884 -0.3071  1.5126
  758MOL0     H99995   8.410   3.567   3.563  2.4462 -0.4522 -0.0144
  758MOL0     H99996   8.403   3.587   3.734  4.4142  1.2453 -1.7344
  758MOL0     H99997   8.181   3.508   3.678  0.4710 -1.3865  2.2352
  758MOL0     H99998   8.251   3.369   3.735 -0.0283  0.9790  0.7894
  758MOL0     H99999   8.229   3.459   3.438  2.8223  0.0226 -0.8143
  758MOL0     H    0   8.293   3.309   3.478  1.7593  2.0791  0.4379
  758MOL0     H    1   8.057   3.282   3.404 -0.7435  0.9695 -1.3820
  758MOL0     H    2   8.000   3.399   3.519 -2.0608 -1.8231  5.0669
  758MOL0     H    3   8.035   3.238   3.712 -0.7453 -1.4831  0.5108
  758MOL0     H    4   8.111   3.129   3.601  0.5501  0.4395 -1.5500
  758MOL0     H    5   7.832   3.221   3.591  0.0234  1.0336 -0.7906
  758MOL0     H    6   7.884   3.136   3.456  0.2846  2.1040  0.4160
  758MOL0     H    7   7.896   3.042   3.742 -0.1677 -3.7464  0.7739
  758MOL0     H    8   7.961   2.962   3.591  0.8181 -0.2136 -1.8632
  758MOL0     H    9   7.819   2.844   3.428 -3.0605  0.1236 -2.5731
  758MOL0     H   10   7.629   2.670   3.360  1.1322  2.5936 -0.8134
  758MOL0     H   11   7.512   2.796   3.323 -0.2983  1.0246  0.0695
  758MOL0     H   12   7.460   2.619   3.563  0.0590  1.3378 -0.6469
  758MOL0     H   13   7.420   2.563   3.396 -2.3136  0.7431 -1.8829
  758MOL0     H   14   7.325   2.831   3.504 -1.0183 -0.5462  0.8099
  758MOL0     H   15   7.262   2.737   3.364  1.1490 -1.3430 -0.5347
  758MOL0     H   16   7.113   2.724   3.553  0.1712  0.2058  1.2614
  758MOL0     H   17   7.225   2.662   3.664 -1.8862 -2.9354 -0.1316
  758MOL0     H   18   6.986   2.601   3.685 -0.5477  1.3861 -0.5440
  758MOL0     H   19   6.754   2.508   3.665  0.7044  1.6451 -0.2766
  758MOL0     H   20   6.434   2.505   3.450 -3.8938  1.4420 -0.6986
  758MOL0     H   21   6.205   2.500   3.410 -1.6028 -2.4030 -2.3129
  758MOL0     H   22   5.946   2.431   3.683 -1.7763  1.0246 -0.6074
  758MOL0     H   23   5.950   2.250   3.690  0.4267  0.6863  0.1119
  758MOL0     H   24   5.810   2.275   3.462 -3.5957  2.3748 -1.2092
  758MOL0     H   25   5.791   2.436   3.510 -1.5244 -0.0649 -0.5052
  758MOL0     H   26   5.695   2.376   3.728 -0.2831  0.3446 -1.0568
  758MOL0     H   27   5.723   2.206   3.697 -2.6159  0.5187  2.9313
  758MOL0     H   28   5.529   2.400   3.550  3.3868  1.1438 -2.3207
  758MOL0     H   29   5.567   2.231   3.502 -0.1757  1.7274 -1.3505
  758MOL0     H   30   5.424   2.296   3.773  0.1366  1.2450 -0.7687
  758MOL0     H   31   5.495   2.142   3.715  1.0111  1.1012  0.3699
  758MOL0     H   32   5.330   2.140   3.526  2.1740  0.2170  0.3671
  758MOL0     H   33   5.282   2.305   3.572 -0.1739  0.2840  2.7953
  758MOL0     H   34   5.187   2.062   3.712  0.7761  0.7655  1.9689
  758MOL0     H   35   5.217   2.203   3.804  2.7913 -2.0697  1.1259
  758MOL0     H   36   4.988   2.175   3.708  0.2447  1.7758  1.1357
  758MOL0     H   37   5.044   2.199   3.545  0.2680  1.1333  0.6177
  758MOL0     H   38   6.176   2.187   3.709 -0.7220  2.1344  0.4330
  758MOL0     H   39   6.391   2.183   3.741 -1.8205  1.0087  1.0984
  758MOL0     H   40   6.896   2.221   3.372 -0.2395 -0.1323  0.6071
  758MOL0     H   41   7.105   2.339   3.360 -0.4847 -0.2705 -1.2942
  758MOL0     H   42   8.561   3.103   3.507  1.3960 -3.8653 -1.3436
  758MOL0     H   43   8.734   2.954   3.529  0.3800 -0.8320  1.1933
  758MOL0     H   44   9.217   2.989   3.662 -0.7111  0.3932  1.4373
  758MOL0     H   45   9.425   2.865   3.721  0.5960  0.0142  0.4669
  758MOL0     H   46   9.550   2.781   3.937  1.7157 -0.2448  0.6845
  758MOL0     H   47   9.597   2.725   3.771  2.6261 -1.3538  0.9219
  758MOL0     H   48   9.607   2.560   4.033  0.8739  0.6708  1.4330
  758MOL0     H   49   9.664   2.497   3.876  2.4852 -0.1760  1.1255
  758MOL0     H   50   9.844   2.568   4.004 -0.2850 -2.7878 -3.4407
  758MOL0     H   51   9.781   2.736   4.014 -2.2331  1.3885 -0.2061
  758MOL0     H   52   9.834   2.577   3.745  2.8474 -2.1394  1.8842
  758MOL0     H   53   9.811   2.759   3.762  0.6267  0.9102  0.6149
  758MOL0     H   54  10.219   2.718   3.830  0.0018  0.8593 -0.2082
  758MOL0     H   55   9.180   2.562   3.899  0.6502 -0.5541 -1.0603
  758MOL0     H   56   8.977   2.698   3.869  0.1226 -0.6444  1.1750
  759MOL0     O   57   6.648   6.314   0.684  0.3226  0.5049  0.0465
  759MOL0     C   58   6.599   6.354   0.580  0.8597  0.0253 -0.3365
  759MOL0     O   59   6.463   6.377   0.566  0.3631 -0.2936  0.4470
  759MOL0     C   60   6.371   6.332   0.658 -0.3280 -0.2791  0.7739
  759MOL0     C   61   6.259   6.412   0.691 -0.5418 -0.3499 -0.5746
  759MOL0     C   62   6.165   6.372   0.781  0.1834  0.5768 -0.0780
  759MOL0     C   63   6.174   6.240   0.833  0.4843 -0.4917 -1.1092
  759MOL0     O   64   6.083   6.197   0.918  0.6561  0.5283 -0.4309
  759MOL0     C   65   6.061   6.276   1.030  0.3652 -0.3232  0.1427
  759MOL0     C   66   6.148   6.218   1.149  0.3469  0.3041  0.7597
  759MOL0     C   67   6.080   6.106   1.229 -0.0878  0.6658 -0.1329
  759MOL0     C   68   6.149   6.081   1.368 -1.1115  0.3673 -0.0646
  759MOL0     C   69   6.073   6.013   1.477  1.1897  0.2756  0.0459
  759MOL0     C   70   5.990   5.902   1.429 -0.4492 -0.7397 -0.5923
  759MOL0     C   71   5.895   5.855   1.542 -1.1048  0.0496  0.2806
  759MOL0     C   72   5.807   5.734   1.501  0.3418 -0.2709 -0.3025
  759MOL0     N   73   5.665   5.765   1.475  0.3641  0.4580  0.3464
  759MOL0     C   74   5.568   5.774   1.574 -0.5093  0.5019 -0.6728
  759MOL0     C   75   5.449   5.762   1.512  0.4172  0.4799 -0.6420
  759MOL0     C   76   5.323   5.773   1.587 -0.1953  0.7550  0.5006
  759MOL0     C   77   5.213   5.866   1.518 -0.1631  0.0137 -0.1092
  759MOL0     C   78   5.070   5.836   1.561  0.5753  0.0024 -0.2266
  759MOL0     C   79   5.052   5.879   1.711  1.1027  0.0525  0.0048
  759MOL0     O   80   4.939   5.818   1.763  0.4159  0.6659 -0.3802
  759MOL0     C   81   4.816   5.880   1.748  0.6652  0.3514  0.3444
  759MOL0     C   82   4.706   5.802   1.790  0.3990  0.1062  0.1968
  759MOL0     C   83   4.574   5.833   1.762  0.3236 -0.9600 -0.5819
  759MOL0     C   84   4.544   5.962   1.705 -0.4545 -0.2434  1.1151
  759MOL0     C   85   4.406   6.016   1.683  0.8605  0.0179 -0.1997
  759MOL0     O   86   4.398   6.128   1.600 -0.0819  0.9111 -0.3819
  759MOL0     C   87   4.267   6.176   1.586  0.1883  0.4224 -0.1921
  759MOL0     C   88   4.241   6.306   1.621  0.5440  0.4620 -0.4043
  759MOL0     C   89   4.104   6.352   1.604 -0.2505  1.0529 -0.0990
  759MOL0     C   90   4.006   6.275   1.530  0.5068  0.2750  0.1050
  759MOL0     O   91   3.877   6.329   1.500  0.6967 -0.4896 -0.3297
  759MOL0     C   92   3.788   6.260   1.405 -0.0833 -0.8844  0.1488
  759MOL0     C   93   3.664   6.349   1.384  0.0272 -0.0665 -0.2231
  759MOL0     C   94   3.541   6.274   1.340 -0.6594  0.6367  0.5093
  759MOL0     C   95   3.420   6.366   1.349  0.4766  0.1726  0.6010
  759MOL0     C   96   3.299   6.315   1.273  0.1240  0.5296 -0.0074
  759MOL0     C   97   3.162   6.392   1.318 -0.3912 -0.4673 -0.3885
  759MOL0     C   98   3.040   6.340   1.233 -0.4253 -0.1961  1.1132
  759MOL0     C   99   2.913   6.360   1.297  0.4061  0.3557 -0.6450
  759MOL0    Cl  100   2.776   6.338   1.190 -0.2466  0.2341  0.7205
  759MOL0     C  101   4.040   6.142   1.497  1.2385 -0.3383  0.6942
  759MOL0     C  102   4.166   6.090   1.534 -0.3329 -1.4706  0.3122
  759MOL0     O  103   4.315   5.960   1.743  0.0638  0.1228  0.8441
  759MOL0     C  104   4.656   6.041   1.675 -0.4006  0.1482  0.1938
  759MOL0     C  105   4.788   6.006   1.683  0.7008  0.5840  0.1621
  759MOL0     N  106   5.484   5.741   1.376 -0.2495  0.5864  0.2723
  759MOL0     N  107   5.610   5.756   1.353  0.5681 -0.6515  0.5376
  759MOL0     C  108   6.267   6.153   0.786 -0.9201 -0.1524 -0.2391
  759MOL0     C  109   6.367   6.197   0.698 -0.7549 -0.1005 -0.5747
  759MOL0     C  110   6.698   6.389   0.473  0.6925 -0.0019 -0.6977
  759MOL0     C  111   6.656   6.442   0.346 -0.0189  1.1289 -0.2505
  759MOL0     C  112   6.739   6.454   0.241  0.1222 -0.1527 -0.2619
  759MOL0     C  113   6.880   6.442   0.262  0.0933 -0.1880  0.3685
  759MOL0     O  114   6.976   6.444   0.164 -0.4369  0.7456 -0.6350
  759MOL0     C  115   6.964   6.564   0.080 -0.5459 -0.0957  1.2112
  759MOL0     C  116   7.079   6.560  -0.022 -1.7194  1.3680 -0.5601
  759MOL0     C  117   7.052   6.456  -0.131  0.2956  0.5889  0.2070
  759MOL0     C  118   7.167   6.392  -0.201  0.4007  0.4558  0.6071
  759MOL0     C  119   7.127   6.355  -0.348 -0.3952 -0.3302 -1.2549
  759MOL0     C  120   7.076   6.316  -0.446  0.0735  0.3322 -1.2741
  759MOL0     C  121   6.927   6.392   0.383  0.8547 -0.5665  0.3518
  759MOL0     C  122   6.835   6.363   0.488  0.3881  0.5583  0.2297
  759MOL0     H  123   6.245   6.515   0.660 -2.0778 -0.1069  0.8031
  759MOL0     H  124   6.088   6.441   0.812  1.1029  1.1407  0.9929
  759MOL0     H  125   5.954   6.274   1.055 -0.5900 -1.2722 -3.3425
  759MOL0     H  126   6.093   6.378   1.008  0.3438 -0.4497 -0.5019
  759MOL0     H  127   6.142   6.304   1.217 -1.3223  1.6983 -1.0202
  759MOL0     H  128   6.251   6.199   1.116 -0.5530  0.6281 -2.5879
  759MOL0     H  129   6.083   6.013   1.171 -0.5947  0.2196  0.5419
  759MOL0     H  130   5.976   6.128   1.252 -0.3514  0.8675 -1.4508
  759MOL0     H  131   6.236   6.027   1.332 -3.1293 -1.8819 -1.9281
  759MOL0     H  132   6.170   6.185   1.398 -0.3026  1.1517 -3.0583
  759MOL0     H  133   6.006   6.091   1.515  2.6024  0.7104  1.8190
  759MOL0     H  134   6.144   5.991   1.558  2.6938  2.7554 -0.4686
  759MOL0     H  135   6.058   5.818   1.420  1.3124  0.6514 -0.6930
  759MOL0     H  136   5.924   5.933   1.346 -1.7196  2.6412  1.4562
  759MOL0     H  137   5.971   5.826   1.615  1.1055  1.6337 -1.2719
  759MOL0     H  138   5.844   5.948   1.565  0.3626  1.1397 -0.6930
  759MOL0     H  139   5.816   5.657   1.578  1.6197 -2.2512 -2.2915
  759MOL0     H  140   5.854   5.691   1.412  1.1107  1.5920 -0.8575
  759MOL0     H  141   5.585   5.771   1.681  0.2594 -0.6425 -0.7992
  759MOL0     H  142   5.330   5.799   1.693 -3.0900  1.1606  0.6634
  759MOL0     H  143   5.289   5.669   1.589 -2.0587  1.2919 -0.8676
  759MOL0     H  144   5.214   5.858   1.409  2.2617 -1.1863 -0.0535
  759MOL0     H  145   5.230   5.970   1.548  1.6299  0.7591 -3.3283
  759MOL0     H  146   5.001   5.894   1.499  1.1842  1.3571  0.3139
  759MOL0     H  147   5.043   5.730   1.558 -1.7355  0.5513 -1.8064
  759MOL0     H  148   5.048   5.988   1.708 -0.8613  0.0689  1.3734
  759MOL0     H  149   5.133   5.842   1.775  4.0435  2.4432 -2.0032
  759MOL0     H  150   4.724   5.709   1.842  0.0380 -0.9334 -1.4529
  759MOL0     H  151   4.501   5.757   1.787 -0.4458  0.0923  0.4879
  759MOL0     H  152   4.313   6.366   1.676  0.9097  1.3388 -1.7749
  759MOL0     H  153   4.067   6.444   1.647 -0.3233  1.0375 -0.1282
  759MOL0     H  154   3.758   6.162   1.443  1.5951 -0.6194  2.3438
  759MOL0     H  155   3.837   6.242   1.308  0.2254  1.6386 -0.2344
  759MOL0     H  156   3.681   6.428   1.311 -1.2609  0.2804 -0.1649
  759MOL0     H  157   3.655   6.401   1.479  1.0286  1.1113 -0.7476
  759MOL0     H  158   3.523   6.186   1.403 -0.8970  0.2830 -0.0458
  759MOL0     H  159   3.552   6.243   1.236 -1.1647  1.2744  0.2666
  759MOL0     H  160   3.395   6.369   1.455  0.3716  1.1387  0.5525
  759MOL0     H  161   3.437   6.468   1.314 -2.1749  0.6186  0.4424
  759MOL0     H  162   3.284   6.208   1.289 -0.1811  0.3042 -1.6228
  759MOL0     H  163   3.309   6.330   1.165 -0.2593 -1.5743 -0.3899
  759MOL0     H  164   3.185   6.499   1.318  2.0596 -0.9418  0.6376
  759MOL0     H  165   3.154   6.363   1.423  0.5726 -2.1952 -0.7536
  759MOL0     H  166   3.053   6.386   1.135  1.8781 -0.6379  1.1563
  759MOL0     H  167   3.051   6.232   1.218 -1.0235 -0.1336  0.1524
  759MOL0     H  168   2.906   6.458   1.345 -0.0886  0.1492 -0.2762
  759MOL0     H  169   2.913   6.293   1.384  2.3040  0.3005 -0.6492
  759MOL0     H  170   3.973   6.090   1.429 -2.0923  2.5250  1.4758
  759MOL0     H  171   4.185   5.986   1.508  0.0383 -0.9338 -1.7668
  759MOL0     H  172   4.637   6.136   1.625 -2.4249  0.5754  1.6117
  759MOL0     H  173   4.866   6.072   1.649 -0.8235  2.1724 -0.4291
  759MOL0     H  174   6.272   6.051   0.822  0.3052 -1.2547 -3.1653
  759MOL0     H  175   6.450   6.140   0.656 -2.1712 -1.2730 -1.9190
  759MOL0     H  176   6.552   6.472   0.334  0.2308  2.5449  0.7623
  759MOL0     H  177   6.711   6.483   0.141  0.2902 -3.0421 -1.2364
  759MOL0     H  178   6.981   6.654   0.140 -0.4501 -0.4611  1.7494
  759MOL0     H  179   6.875   6.577   0.017  3.0776 -1.2141 -4.9132
  759MOL0     H  180   7.106   6.656  -0.069  2.0261  0.6568 -0.1919
  759MOL0     H  181   7.173   6.538   0.029 -0.4560  2.1894 -2.3936
  759MOL0     H  182   6.983   6.503  -0.201  0.6256  1.6254  0.5638
  759MOL0     H  183   6.994   6.375  -0.086 -0.3695 -0.6493 -2.6862
  759MOL0     H  184   7.256   6.456  -0.198  1.7448 -1.2355 -0.8994
  759MOL0     H  185   7.196   6.300  -0.149  3.8314  0.0774 -1.6370
  759MOL0     H  186   7.027   6.288  -0.537 -0.8789 -2.0142 -0.1062
  759MOL0     H  187   7.032   6.369   0.398  0.1474 -3.8023  1.1833
  759MOL0     H  188   6.880   6.323   0.578 -0.3687  1.3350  0.9752
  760MOL0     O  189  10.648   3.049   6.723 -0.3045 -0.5439  0.2884
  760MOL0     C  190  10.717   2.991   6.638  0.5305  0.1107 -0.4691
  760MOL0     O  191  10.684   2.879   6.573  0.4950 -0.5894 -0.8043
  760MOL0     C  192  10.563   2.825   6.596  0.5113  0.4795  0.3962
  760MOL0     C  193  10.541   2.745   6.704 -0.8585  0.8904 -0.3749
  760MOL0     C  194  10.410   2.698   6.730 -0.0615  0.2938  0.9431
  760MOL0     C  195  10.307   2.710   6.642  0.8307 -0.0885 -0.7836
  760MOL0     O  196  10.187   2.654   6.668  0.2822 -0.1964  1.0627
  760MOL0     C  197  10.134   2.557   6.579  0.0226 -0.1586  0.1259
  760MOL0     C  198  10.208   2.427   6.567 -0.5931 -0.1779  0.0697
  760MOL0     C  199  10.336   2.447   6.484 -0.1533 -0.2447  1.5915
  760MOL0     C  200  10.395   2.326   6.431 -0.6048  0.1425  0.8019
  760MOL0     C  201  10.317   2.290   6.306 -0.5459  0.1219  0.0511
  760MOL0     C  202  10.379   2.165   6.235  0.4690 -0.5021 -0.9927
  760MOL0     C  203  10.489   2.207   6.136 -0.7789 -0.4717 -0.3144
  760MOL0     C  204  10.444   2.237   5.990 -0.0738  0.7439  0.4296
  760MOL0     N  205  10.560   2.233   5.894  0.7195 -0.3082 -0.3440
  760MOL0     C  206  10.607   2.119   5.848 -0.1288 -0.4282  0.7823
  760MOL0     C  207  10.707   2.152   5.775  0.6426 -0.3628  0.4197
  760MOL0     C  208  10.785   2.056   5.700  0.7133  0.3198 -0.7872
  760MOL0     C  209  10.831   1.935   5.774  0.9920  0.0287 -0.3517
  760MOL0     C  210  10.942   1.861   5.711 -0.0622  0.0266  0.4358
  760MOL0     C  211  11.005   1.756   5.812  0.4129 -0.4393 -0.4627
  760MOL0     O  212  11.082   1.661   5.724 -0.2498 -0.1425 -0.9862
  760MOL0     C  213  11.217   1.687   5.702  0.1108  0.4573  0.7280
  760MOL0     C  214  11.289   1.793   5.761  0.2664 -0.6989  0.2514
  760MOL0     C  215  11.432   1.797   5.738  0.0353 -0.1933 -0.0207
  760MOL0     C  216  11.504   1.701   5.659  0.9469 -0.8916  0.1677
  760MOL0     C  217  11.649   1.706   5.649 -0.6074 -0.6238 -0.5350
  760MOL0     O  218  11.715   1.797   5.732  0.0153  0.1173 -0.5672
  760MOL0     C  219  11.851   1.775   5.768  1.1302 -0.4106  0.7559
  760MOL0     C  220  11.910   1.650   5.804  0.0567  0.8815  0.7792
  760MOL0     C  221  12.046   1.630   5.832  0.2865 -0.2764  0.0651
  760MOL0     C  222  12.135   1.741   5.833 -0.6041 -0.3023 -0.3040
  760MOL0     O  223  12.265   1.709   5.867 -0.7803  0.0282  0.0854
  760MOL0     C  224  12.360   1.820   5.865  0.6054 -0.1505 -0.9103
  760MOL0     C  225  12.498   1.784   5.915 -0.4671  1.1089 -0.5224
  760MOL0     C  226  12.581   1.913   5.937 -0.1034  0.2129  1.1274
  760MOL0     C  227  12.612   1.978   5.802 -0.0862  0.2449 -0.5145
  760MOL0     C  228  12.706   2.105   5.830 -0.2702  0.2356  0.6671
  760MOL0     C  229  12.730   2.183   5.700  0.2169 -0.4282  0.3561
  760MOL0     C  230  12.844   2.288   5.713  0.0655 -0.1613 -0.2322
  760MOL0     C  231  12.984   2.236   5.666 -0.3098  0.1320 -0.3197
  760MOL0    Cl  232  13.116   2.335   5.728 -0.2809  0.2934 -0.0007
  760MOL0     C  233  12.088   1.865   5.790  1.0482 -0.0185  0.1049
  760MOL0     C  234  11.946   1.884   5.760  0.3489 -0.6089 -0.0097
  760MOL0     O  235  11.701   1.624   5.571 -1.1673 -0.3675 -1.2419
  760MOL0     C  236  11.425   1.594   5.612 -0.2867  0.4973  0.4720
  760MOL0     C  237  11.280   1.595   5.618  1.1842 -0.1057  0.5371
  760MOL0     N  238  10.734   2.286   5.778  0.1697  0.4703 -0.1278
  760MOL0     N  239  10.637   2.333   5.846  1.0155  0.1325  0.1960
  760MOL0     C  240  10.337   2.789   6.529  0.3294 -0.3417 -0.1661
  760MOL0     C  241  10.460   2.840   6.500 -0.1142 -0.4231 -0.2497
  760MOL0     C  242  10.862   3.033   6.603 -0.0740 -0.3993 -0.2899
  760MOL0     C  243  10.912   3.149   6.668 -1.0793  0.1514  0.0029
  760MOL0     C  244  11.048   3.194   6.668  0.3707  0.7873  0.1817
  760MOL0     C  245  11.132   3.118   6.585 -0.4628  0.0170  0.4301
  760MOL0     O  246  11.263   3.146   6.571 -0.3162 -0.6171 -0.8525
  760MOL0     C  247  11.324   3.231   6.676 -1.0322  0.5648  0.3145
  760MOL0     C  248  11.476   3.232   6.656 -0.2803  0.4884 -0.3390
  760MOL0     C  249  11.540   3.315   6.763 -0.8940 -0.2299  0.2794
  760MOL0     C  250  11.684   3.283   6.761 -0.4889  0.4351 -0.0535
  760MOL0     C  251  11.754   3.322   6.635 -0.5055 -1.1669 -0.5387
  760MOL0     C  252  11.815   3.378   6.547  0.1107 -1.0346  0.7683
  760MOL0     C  253  11.079   3.020   6.498 -0.0035 -0.6878 -0.7135
  760MOL0     C  254  10.947   2.981   6.513  0.5285  0.1543  0.1031
  760MOL0     H  255  10.629   2.723   6.764 -1.6636  0.7688  0.7985
  760MOL0     H  256  10.390   2.629   6.811  0.4108 -1.4993 -0.4123
  760MOL0     H  257  10.113   2.602   6.482  0.3057 -1.7399 -0.7105
  760MOL0     H  258  10.041   2.529   6.629  0.5425  0.0615  1.2438
  760MOL0     H  259  10.151   2.341   6.531  0.0296  0.1041 -1.6961
  760MOL0     H  260  10.232   2.400   6.670  2.4200  0.1078 -0.4588
  760MOL0     H  261  10.415   2.496   6.541  0.2111  0.8591  0.2143
  760MOL0     H  262  10.319   2.528   6.412  1.8758 -0.6211  0.6205
  760MOL0     H  263  10.496   2.326   6.389 -0.6006 -5.1084  0.1352
  760MOL0     H  264  10.382   2.244   6.502 -0.2215  0.4016  1.1759
  760MOL0     H  265  10.309   2.376   6.239 -3.0833  0.7470  1.0220
  760MOL0     H  266  10.212   2.259   6.311 -0.6494  0.1150 -1.6290
  760MOL0     H  267  10.294   2.121   6.182 -1.5007  1.3971  0.4554
  760MOL0     H  268  10.415   2.094   6.310 -0.0701 -0.2244 -0.4654
  760MOL0     H  269  10.559   2.283   6.171 -1.9779 -0.1698  1.5895
  760MOL0     H  270  10.551   2.116   6.135  0.6045  0.3845  1.6465
  760MOL0     H  271  10.391   2.332   5.976 -0.5566  0.5311  0.7710
  760MOL0     H  272  10.376   2.157   5.959 -0.5609  0.6200  1.7570
  760MOL0     H  273  10.565   2.019   5.857 -0.7551 -0.6789 -3.0196
  760MOL0     H  274  10.871   2.107   5.654  0.1276 -0.6109 -3.0995
  760MOL0     H  275  10.721   2.026   5.617  0.4937  0.6705 -0.7461
  760MOL0     H  276  10.747   1.867   5.792  0.3346  1.0704  0.6842
  760MOL0     H  277  10.858   1.961   5.877 -2.7309 -3.0266  1.6526
  760MOL0     H  278  10.901   1.818   5.620 -1.9988 -1.6876  2.0075
  760MOL0     H  279  11.023   1.930   5.684  0.6074  0.0534  2.3483
  760MOL0     H  280  10.922   1.696   5.851  2.0784 -1.8285  1.1447
  760MOL0     H  281  11.056   1.793   5.901  0.1789 -2.6587  0.6795
  760MOL0     H  282  11.246   1.880   5.808  2.8650  0.3379  0.8878
  760MOL0     H  283  11.483   1.887   5.772 -0.8870  0.8488 -1.2552
  760MOL0     H  284  11.844   1.564   5.810  0.7235  0.4106  1.5519
  760MOL0     H  285  12.077   1.529   5.859  0.0506 -0.2176  0.5554
  760MOL0     H  286  12.330   1.904   5.929  2.3864 -1.5742  2.0005
  760MOL0     H  287  12.373   1.871   5.769  2.9749  1.2603  0.0723
  760MOL0     H  288  12.537   1.714   5.841 -0.4514 -0.5774  0.9873
  760MOL0     H  289  12.487   1.728   6.009  0.6079 -0.0965 -1.0872
  760MOL0     H  290  12.672   1.882   5.989 -0.0890 -3.4649 -0.8166
  760MOL0     H  291  12.518   1.984   5.992 -1.6707  1.8760 -2.4875
  760MOL0     H  292  12.668   1.909   5.738 -0.0202 -2.2299  1.9916
  760MOL0     H  293  12.528   1.998   5.735  0.5635 -0.2801 -1.5115
  760MOL0     H  294  12.799   2.067   5.873 -1.2008 -2.7517  0.2814
  760MOL0     H  295  12.657   2.175   5.899  0.3907  1.1942  0.1807
  760MOL0     H  296  12.631   2.227   5.688  0.0328 -0.7688  0.5966
  760MOL0     H  297  12.752   2.103   5.628 -0.6002 -0.9173  0.6351
  760MOL0     H  298  12.824   2.382   5.660 -0.1167 -0.6923 -1.1310
  760MOL0     H  299  12.852   2.317   5.818 -0.2277  0.6300 -0.4185
  760MOL0     H  300  12.983   2.237   5.557 -1.7132  0.0721 -0.3156
  760MOL0     H  301  13.000   2.134   5.704  0.4283  0.4045  0.1335
  760MOL0     H  302  12.157   1.948   5.777 -1.9966  2.8329  0.8365
  760MOL0     H  303  11.913   1.981   5.725  0.4088 -1.3083 -2.1698
  760MOL0     H  304  11.468   1.516   5.550 -2.8050 -2.3091  2.0199
  760MOL0     H  305  11.214   1.518   5.579  0.3740 -0.0018  1.6281
  760MOL0     H  306  10.257   2.787   6.455  2.0069  0.3531 -2.0967
  760MOL0     H  307  10.480   2.912   6.422  2.7095 -0.4115  0.3688
  760MOL0     H  308  10.831   3.201   6.717  0.2379  3.1017 -0.7319
  760MOL0     H  309  11.069   3.286   6.721  1.2127  1.1414 -0.7307
  760MOL0     H  310  11.286   3.191   6.771 -3.9055 -3.0110 -2.0302
  760MOL0     H  311  11.308   3.339   6.675  4.6759  1.7052 -0.4019
  760MOL0     H  312  11.521   3.133   6.663  0.5889  0.9792  1.4255
  760MOL0     H  313  11.495   3.272   6.556 -3.8217 -0.1595 -1.4257
  760MOL0     H  314  11.511   3.283   6.864  3.5229 -2.6688  1.0148
  760MOL0     H  315  11.512   3.421   6.757 -3.2134 -0.5099  3.2919
  760MOL0     H  316  11.724   3.351   6.836 -1.0539  1.4449 -0.6480
  760MOL0     H  317  11.701   3.181   6.798 -0.2680  0.8015  0.8811
  760MOL0     H  318  11.863   3.420   6.461 -0.1507  2.0936  2.0358
  760MOL0     H  319  11.142   2.958   6.434  0.4603 -1.7509  0.7218
  760MOL0     H  320  10.910   2.895   6.458  0.6971  0.2428 -0.1472
  761MOL0     O  321   0.154   8.470   5.380 -0.1147  0.2594 -0.0863
  761MOL0     C  322   0.194   8.351   5.350 -0.1004  0.0255 -0.1747
  761MOL0     O  323   0.113   8.251   5.304 -0.8418  0.0115  0.1441
  761MOL0     C  324  -0.005   8.282   5.258  0.2574 -0.6362  0.9685
  761MOL0     C  325  -0.117   8.201   5.280  0.1700  0.8670  1.1123
  761MOL0     C  326  -0.240   8.227   5.209  0.0880  1.1256 -0.1071
  761MOL0     C  327  -0.243   8.333   5.121  0.4897  0.4727  0.1417
  761MOL0     O  328  -0.364   8.353   5.055  0.4263 -0.4215 -0.3176
  761MOL0     C  329  -0.375   8.464   4.967  0.4372 -0.2452 -0.1714
  761MOL0     C  330  -0.526   8.467   4.916 -0.3304 -0.3286 -0.1941
  761MOL0     C  331  -0.632   8.447   5.027  0.1146 -0.3099  0.7734
  761MOL0     C  332  -0.773   8.479   4.976 -0.5047 -0.1087 -0.8311
  761MOL0     C  333  -0.879   8.431   5.077  0.2237  0.3427  0.2747
  761MOL0     C  334  -1.013   8.414   5.006  0.1231 -1.0237 -0.5826
  761MOL0     C  335  -1.132   8.359   5.080 -1.3146 -0.6120 -1.5293
  761MOL0     C  336  -1.272   8.416   5.030  0.1295 -0.0540 -0.7953
  761MOL0     N  337  -1.387   8.328   5.077 -0.4567  0.0380 -0.5086
  761MOL0     C  338  -1.464   8.239   5.004 -0.3156  0.8666  0.3027
  761MOL0     C  339  -1.552   8.178   5.082  0.2170  0.0993 -0.7440
  761MOL0     C  340  -1.642   8.066   5.045  0.6132 -1.2132 -0.2839
  761MOL0     C  341  -1.778   8.087   5.109 -1.8556 -0.3349 -0.5197
  761MOL0     C  342  -1.875   7.981   5.070 -0.0807  0.2130  0.2034
  761MOL0     C  343  -2.002   7.987   5.151  0.2594  0.1498  0.0920
  761MOL0     O  344  -2.090   8.073   5.077  0.1165 -0.7922  0.2022
  761MOL0     C  345  -2.223   8.098   5.123  0.8337  0.2157 -0.1402
  761MOL0     C  346  -2.294   8.033   5.233 -0.2069 -0.0240  1.1844
  761MOL0     C  347  -2.427   8.072   5.256 -1.1664  1.2798 -0.6656
  761MOL0     C  348  -2.504   8.160   5.175 -1.2328 -0.1943 -1.0750
  761MOL0     C  349  -2.647   8.178   5.193  0.3824 -0.0362 -0.0439
  761MOL0     O  350  -2.706   8.272   5.116 -0.3997 -0.6311 -0.3031
  761MOL0     C  351  -2.840   8.291   5.138 -0.4427 -0.3274  0.1722
  761MOL0     C  352  -2.886   8.425   5.149  0.5151  1.2250  0.8173
  761MOL0     C  353  -3.018   8.457   5.185 -0.1465  1.0034 -0.8943
  761MOL0     C  354  -3.115   8.352   5.181 -0.6475 -0.0158 -0.7642
  761MOL0     O  355  -3.245   8.363   5.215  0.5328 -0.7903 -0.2211
  761MOL0     C  356  -3.328   8.450   5.138 -0.0072 -0.7443  0.7155
  761MOL0     C  357  -3.480   8.440   5.171 -0.4659  0.8783 -0.3551
  761MOL0     C  358  -3.544   8.289   5.156  0.0160  0.3071 -0.6540
  761MOL0     C  359  -3.701   8.295   5.200 -0.4890 -0.0521  0.2447
  761MOL0     C  360  -3.764   8.168   5.256  0.6394 -0.1531  0.9574
  761MOL0     C  361  -3.919   8.184   5.265  0.5769 -0.0163 -1.0353
  761MOL0     C  362  -3.984   8.040   5.276 -0.0004  0.0645  0.4141
  761MOL0     C  363  -4.130   8.041   5.216 -0.7903 -0.3685  0.0344
  761MOL0    Cl  364  -4.176   7.871   5.171  0.5258  0.0663 -0.3402
  761MOL0     C  365  -3.066   8.216   5.156  0.3100 -0.2225  0.2917
  761MOL0     C  366  -2.931   8.188   5.148 -1.1146  0.3931  0.3869
  761MOL0     O  367  -2.699   8.123   5.292 -0.5032  0.0524  0.1287
  761MOL0     C  368  -2.432   8.219   5.075 -0.0549 -0.4382  0.3255
  761MOL0     C  369  -2.292   8.192   5.056 -0.0844 -0.1065 -0.0583
  761MOL0     N  370  -1.515   8.219   5.213 -0.1349 -0.7470 -0.0373
  761MOL0     N  371  -1.425   8.308   5.204  0.7813 -0.4052  0.9029
  761MOL0     C  372  -0.131   8.419   5.103  0.7413 -0.5541 -0.7316
  761MOL0     C  373  -0.012   8.386   5.170  0.3275 -0.0023  0.1378
  761MOL0     C  374   0.335   8.312   5.397 -0.0266 -0.4114  0.0535
  761MOL0     C  375   0.373   8.172   5.395  0.1309  0.4025  1.3215
  761MOL0     C  376   0.495   8.126   5.450  0.1667 -0.5659 -0.2636
  761MOL0     C  377   0.583   8.225   5.489  0.1050 -0.1604 -0.3859
  761MOL0     O  378   0.718   8.197   5.509 -0.1632  0.1276 -0.1779
  761MOL0     C  379   0.751   8.100   5.615  0.0440  0.3187 -0.2724
  761MOL0     C  380   0.887   8.141   5.664  1.2407 -0.0714 -0.2977
  761MOL0     C  381   0.934   8.040   5.779  0.1850  0.3223 -0.2844
  761MOL0     C  382   1.039   8.086   5.881 -0.3870 -0.9864 -0.0957
  761MOL0     C  383   1.011   8.215   5.944 -0.1377 -0.3061 -0.2210
  761MOL0     C  384   1.004   8.314   6.011 -0.1861 -0.0400  0.5046
  761MOL0     C  385   0.548   8.360   5.503 -0.3323  0.3324  0.4236
  761MOL0     C  386   0.424   8.408   5.456 -0.1264  0.1120  0.8971
  761MOL0     H  387  -0.098   8.105   5.327  0.3627 -0.1547 -0.9464
  761MOL0     H  388  -0.315   8.150   5.220 -2.7292  3.7735  0.3313
  761MOL0     H  389  -0.297   8.453   4.891  0.3834 -2.1401 -0.0208
  761MOL0     H  390  -0.374   8.552   5.032 -1.3852 -1.3045  1.4045
  761MOL0     H  391  -0.541   8.393   4.838 -1.1324 -0.8909  0.4704
  761MOL0     H  392  -0.542   8.564   4.868  0.1562 -0.9252 -1.6192
  761MOL0     H  393  -0.612   8.526   5.101  0.9674 -1.1713  1.4898
  761MOL0     H  394  -0.617   8.358   5.089  2.8709 -0.4970 -0.0358
  761MOL0     H  395  -0.794   8.585   4.962 -4.5518 -0.6651 -0.1280
  761MOL0     H  396  -0.788   8.426   4.882 -2.2772  2.5207 -2.1285
  761MOL0     H  397  -0.882   8.509   5.154 -0.3322  1.6113 -0.9955
  761MOL0     H  398  -0.848   8.344   5.136  0.1576 -0.2464 -0.5459
  761MOL0     H  399  -0.994   8.356   4.916  1.1241 -1.3893 -0.1485
  761MOL0     H  400  -1.054   8.509   4.970 -0.6505 -1.1484 -0.0616
  761MOL0     H  401  -1.150   8.252   5.069 -2.6056 -0.5245 -0.5095
  761MOL0     H  402  -1.124   8.369   5.189 -2.0995  0.8831 -1.5815
  761MOL0     H  403  -1.281   8.419   4.921  2.6036 -1.5611 -1.1308
  761MOL0     H  404  -1.298   8.518   5.060  1.7875 -0.3214  1.9285
  761MOL0     H  405  -1.454   8.218   4.898 -1.5940 -0.3102  0.3941
  761MOL0     H  406  -1.590   7.980   5.087  1.6624  0.9383  3.2480
  761MOL0     H  407  -1.667   8.047   4.940  1.9309 -3.0242 -0.3222
  761MOL0     H  408  -1.821   8.181   5.073 -1.5089 -0.2816 -0.8001
  761MOL0     H  409  -1.778   8.085   5.218 -1.3738 -1.8469 -0.5364
  761MOL0     H  410  -1.883   7.986   4.961 -1.0927  1.6657  0.3199
  761MOL0     H  411  -1.828   7.884   5.089 -0.3284 -0.3374 -1.7392
  761MOL0     H  412  -1.980   8.012   5.255  0.2856 -3.9176  1.2266
  761MOL0     H  413  -2.064   7.897   5.148 -0.6589  0.7284 -3.8323
  761MOL0     H  414  -2.243   7.973   5.308  2.0799  1.1438  0.6615
  761MOL0     H  415  -2.472   8.021   5.340 -0.4115  0.1339 -0.9356
  761MOL0     H  416  -2.815   8.507   5.142 -0.5328  2.1542  0.7885
  761MOL0     H  417  -3.048   8.559   5.207 -0.0756  0.4085  2.4842
  761MOL0     H  418  -3.312   8.424   5.032  3.5631  1.8997  0.4280
  761MOL0     H  419  -3.289   8.551   5.151  1.8227 -1.0655 -1.5397
  761MOL0     H  420  -3.535   8.505   5.102  4.2707  2.8393 -2.6655
  761MOL0     H  421  -3.493   8.466   5.276  0.0135 -0.0605 -0.0624
  761MOL0     H  422  -3.491   8.224   5.226 -0.3114  3.9033  3.3448
  761MOL0     H  423  -3.530   8.260   5.052  0.2818 -0.2195 -0.4741
  761MOL0     H  424  -3.710   8.376   5.272 -1.1436 -0.3079  0.4562
  761MOL0     H  425  -3.762   8.318   5.112 -0.4203  0.1339  0.2465
  761MOL0     H  426  -3.719   8.143   5.353  0.5662 -1.0103  0.7705
  761MOL0     H  427  -3.729   8.098   5.180  3.1009  2.9834 -1.0635
  761MOL0     H  428  -3.961   8.243   5.183  1.9901 -0.1395 -1.8734
  761MOL0     H  429  -3.943   8.237   5.358 -2.2147 -0.6088 -1.3399
  761MOL0     H  430  -3.920   7.972   5.219 -1.4785 -1.8007  0.8905
  761MOL0     H  431  -3.990   8.011   5.381  1.2637 -0.7447  0.2795
  761MOL0     H  432  -4.121   8.098   5.123 -0.8970  0.8673  0.7595
  761MOL0     H  433  -4.212   8.082   5.276  0.9705  1.2683  1.4457
  761MOL0     H  434  -3.148   8.146   5.165 -1.2126  1.6165  1.8937
  761MOL0     H  435  -2.894   8.089   5.127  1.0079  0.8897  1.5242
  761MOL0     H  436  -2.481   8.291   5.009  0.8907  0.6358  0.7671
  761MOL0     H  437  -2.232   8.243   4.981 -2.5058  2.9604 -0.0755
  761MOL0     H  438  -0.122   8.507   5.040  3.6323 -0.1795  0.0289
  761MOL0     H  439   0.071   8.452   5.149 -0.8307  1.2308 -0.7082
  761MOL0     H  440   0.306   8.101   5.346  0.8828  0.1653  0.6208
  761MOL0     H  441   0.535   8.026   5.442  5.5483  1.2195  0.3903
  761MOL0     H  442   0.755   7.995   5.584  1.5886  0.4904 -0.7511
  761MOL0     H  443   0.676   8.109   5.693 -1.5748  3.2616 -2.0020
  761MOL0     H  444   0.962   8.152   5.586  1.5065  1.2976  0.1308
  761MOL0     H  445   0.863   8.240   5.704 -1.3709 -0.9585  0.5573
  761MOL0     H  446   0.969   7.944   5.738  1.3647 -0.1737  1.7131
  761MOL0     H  447   0.853   8.000   5.841  1.3462  1.6498  2.2263
  761MOL0     H  448   1.049   8.011   5.960  2.8004  0.5524  1.1318
  761MOL0     H  449   1.131   8.079   5.824 -0.3621 -2.3002  0.0885
  761MOL0     H  450   0.989   8.399   6.074  0.8082  0.4825  0.0723
  761MOL0     H  451   0.628   8.430   5.527  0.4928 -0.4172 -0.0717
  761MOL0     H  452   0.395   8.511   5.439  2.5564  0.5863 -1.6564
  762MOL0     O  453   0.390   7.780   5.321  0.2095  0.3151  0.1454
  762MOL0     C  454   0.394   7.702   5.420  0.7294 -1.3769 -0.1303
  762MOL0     O  455   0.288   7.668   5.504 -0.3332  0.1987  0.0822
  762MOL0     C  456   0.168   7.729   5.488  0.4274  0.0972  0.6901
  762MOL0     C  457   0.089   7.730   5.374 -0.2381  0.0656  0.3804
  762MOL0     C  458  -0.037   7.801   5.369 -1.3371  0.2111  0.3498
  762MOL0     C  459  -0.087   7.872   5.484 -0.8772  0.1515  0.4273
  762MOL0     O  460  -0.205   7.936   5.491 -0.3964 -0.2658 -0.5301
  762MOL0     C  461  -0.298   7.911   5.386 -1.0231  0.4470 -0.1726
  762MOL0     C  462  -0.434   7.987   5.437 -0.4310  0.8786 -0.4697
  762MOL0     C  463  -0.552   7.941   5.352 -1.3008  0.1497  0.0350
  762MOL0     C  464  -0.635   8.055   5.318 -0.2821  1.1361  0.5284
  762MOL0     C  465  -0.768   8.037   5.243  0.0858  0.0429  0.4047
  762MOL0     C  466  -0.752   8.003   5.092 -0.3976  0.5350 -0.3808
  762MOL0     C  467  -0.869   7.917   5.047  0.2562 -0.3012  0.3792
  762MOL0     C  468  -0.996   7.992   5.071  1.4154 -0.0992 -0.6912
  762MOL0     N  469  -1.121   7.928   5.030 -0.4122 -0.3866 -0.1062
  762MOL0     C  470  -1.145   7.880   4.909  0.2752 -0.4115 -0.1022
  762MOL0     C  471  -1.287   7.891   4.913 -0.6661  0.6600 -0.3259
  762MOL0     C  472  -1.368   7.882   4.798  0.3119  1.3748 -0.0006
  762MOL0     C  473  -1.436   7.745   4.786  0.3743  0.2110  0.3489
  762MOL0     C  474  -1.565   7.764   4.712 -0.6668  0.4621 -0.2449
  762MOL0     C  475  -1.630   7.630   4.667  0.7953 -0.0660  0.1570
  762MOL0     O  476  -1.687   7.575   4.791  0.4546  0.2857 -0.4978
  762MOL0     C  477  -1.816   7.613   4.826  0.3052  0.3273 -0.3640
  762MOL0     C  478  -1.876   7.548   4.925  0.2620  0.5326  0.1971
  762MOL0     C  479  -2.008   7.563   4.963 -0.7136 -0.4196 -0.9201
  762MOL0     C  480  -2.093   7.651   4.895  0.3369 -0.3129  0.9752
  762MOL0     C  481  -2.233   7.667   4.942 -0.3303  0.4788 -1.1549
  762MOL0     O  482  -2.290   7.567   5.018  1.1392 -0.1867 -0.2294
  762MOL0     C  483  -2.411   7.582   5.086  0.0643  0.1445 -0.1107
  762MOL0     C  484  -2.466   7.461   5.113 -0.1304  0.5099  0.7406
  762MOL0     C  485  -2.578   7.450   5.195  0.4911  0.2583  0.6724
  762MOL0     C  486  -2.654   7.562   5.220 -0.1975 -0.7835 -0.0385
  762MOL0     O  487  -2.785   7.556   5.258 -0.1783 -0.3065 -0.0495
  762MOL0     C  488  -2.834   7.438   5.312  0.4709 -0.3255  0.4420
  762MOL0     C  489  -2.977   7.452   5.336 -0.1797 -0.5519 -0.8831
  762MOL0     C  490  -3.063   7.417   5.218 -0.4633 -0.1238  0.0975
  762MOL0     C  491  -3.218   7.440   5.242  0.2785 -0.4818  0.0590
  762MOL0     C  492  -3.264   7.344   5.348  0.0032 -0.1729  0.2258
  762MOL0     C  493  -3.421   7.327   5.339  1.0130 -0.0784 -0.4461
  762MOL0     C  494  -3.467   7.210   5.422 -0.0322 -0.5661 -0.1961
  762MOL0     C  495  -3.620   7.202   5.429  0.3673 -0.2186 -0.2649
  762MOL0    Cl  496  -3.685   7.354   5.506  0.3593  0.0719 -0.3138
  762MOL0     C  497  -2.599   7.691   5.192 -0.1183  1.0817 -0.2757
  762MOL0     C  498  -2.471   7.700   5.139 -0.0221  0.7934 -0.1471
  762MOL0     O  499  -2.288   7.768   4.906 -0.2863  0.4962  0.1452
  762MOL0     C  500  -2.033   7.722   4.787  0.8444  0.3942 -0.2059
  762MOL0     C  501  -1.896   7.706   4.759  0.8810 -0.0071  0.1772
  762MOL0     N  502  -1.331   7.918   5.042  0.5809  0.4598  0.7652
  762MOL0     N  503  -1.226   7.938   5.108  0.3427 -0.8960  0.2800
  762MOL0     C  504  -0.014   7.853   5.607 -0.1652  1.1128  0.0352
  762MOL0     C  505   0.115   7.786   5.600  0.6159  0.0408  0.8664
  762MOL0     C  506   0.536   7.671   5.453  1.1883 -0.2898 -1.3270
  762MOL0     C  507   0.639   7.699   5.373  0.0946  0.8059  0.6380
  762MOL0     C  508   0.771   7.670   5.416  0.2675 -0.4015 -0.3488
  762MOL0     C  509   0.803   7.627   5.546 -0.4764  1.1208  0.8964
  762MOL0     O  510   0.930   7.590   5.593  0.4272  0.3450 -0.8092
  762MOL0     C  511   0.952   7.565   5.729 -1.3393  0.1245 -0.0876
  762MOL0     C  512   1.104   7.581   5.741 -0.2869  0.6589  0.0652
  762MOL0     C  513   1.150   7.524   5.877 -0.4383 -0.7830  0.2489
  762MOL0     C  514   1.299   7.555   5.895  0.3001 -0.3043 -0.5246
  762MOL0     C  515   1.323   7.697   5.892 -0.2355 -0.4341 -0.3376
  762MOL0     C  516   1.334   7.817   5.895 -0.2906 -0.6791 -0.0178
  762MOL0     C  517   0.689   7.610   5.627  0.3426  0.3356 -0.3481
  762MOL0     C  518   0.556   7.628   5.585  0.0603 -1.1342  0.1540
  762MOL0     H  519   0.124   7.678   5.285 -0.7367 -2.0035  1.3251
  762MOL0     H  520  -0.078   7.814   5.270  1.8269 -0.9944 -1.2712
  762MOL0     H  521  -0.323   7.805   5.376 -1.4488  0.4635  0.6394
  762MOL0     H  522  -0.276   7.952   5.287  0.9154 -0.2274 -0.0620
  762MOL0     H  523  -0.419   8.094   5.421  0.9638  0.8799  0.6420
  762MOL0     H  524  -0.450   7.969   5.543 -0.7043 -0.0331 -0.6593
  762MOL0     H  525  -0.609   7.862   5.402  1.3278 -1.2883  0.9715
  762MOL0     H  526  -0.513   7.899   5.259 -1.0458 -1.2751  0.7537
  762MOL0     H  527  -0.658   8.105   5.412 -0.5206  1.5437  0.2556
  762MOL0     H  528  -0.570   8.117   5.256  1.7084 -1.0163  0.3198
  762MOL0     H  529  -0.821   8.133   5.242  1.5355  1.0268 -3.9935
  762MOL0     H  530  -0.825   7.961   5.298 -1.1675  0.7057  0.0751
  762MOL0     H  531  -0.663   7.940   5.088 -2.3178 -2.3670 -3.4098
  762MOL0     H  532  -0.738   8.095   5.034  2.4199  1.0345  0.9447
  762MOL0     H  533  -0.861   7.882   4.944 -0.8079  2.4153 -0.7234
  762MOL0     H  534  -0.878   7.836   5.119  1.0588  1.6956  2.9089
  762MOL0     H  535  -0.994   8.090   5.024  1.8742  0.2973  0.1337
  762MOL0     H  536  -1.000   8.004   5.180 -0.9208 -1.9338 -0.4952
  762MOL0     H  537  -1.075   7.855   4.829  0.8364  1.4426 -0.2347
  762MOL0     H  538  -1.295   7.895   4.717 -0.9004 -2.3838 -1.9562
  762MOL0     H  539  -1.441   7.960   4.819  0.8154  2.6411 -2.5711
  762MOL0     H  540  -1.455   7.705   4.886  0.4331  0.7315  0.5684
  762MOL0     H  541  -1.378   7.673   4.727 -2.0391 -1.7841  0.2381
  762MOL0     H  542  -1.633   7.827   4.771 -0.0543 -1.5453  2.8124
  762MOL0     H  543  -1.541   7.814   4.617 -3.7456 -0.8431 -1.8567
  762MOL0     H  544  -1.570   7.552   4.617 -0.8384 -0.7707 -0.7741
  762MOL0     H  545  -1.713   7.651   4.599 -0.9592 -0.8535  1.9526
  762MOL0     H  546  -1.817   7.474   4.978  0.5099  0.3084 -0.3715
  762MOL0     H  547  -2.041   7.499   5.044 -2.3923 -2.1610 -2.8594
  762MOL0     H  548  -2.422   7.372   5.067  0.4043  1.2580 -0.2276
  762MOL0     H  549  -2.614   7.348   5.209 -1.2391  0.7082 -0.2701
  762MOL0     H  550  -2.787   7.427   5.410 -0.3456 -0.2517  0.8555
  762MOL0     H  551  -2.818   7.352   5.247 -0.0632  0.6490 -1.0328
  762MOL0     H  552  -3.010   7.549   5.373  0.2190 -1.0383  0.8381
  762MOL0     H  553  -3.000   7.389   5.423  3.9631 -1.7480 -0.4523
  762MOL0     H  554  -3.036   7.314   5.194  0.4094  0.2065 -0.3592
  762MOL0     H  555  -3.038   7.480   5.132  1.3942  0.7572  1.2225
  762MOL0     H  556  -3.225   7.544   5.276  2.0060 -0.1969 -0.3669
  762MOL0     H  557  -3.279   7.445   5.152 -0.7266  1.8623  0.7842
  762MOL0     H  558  -3.229   7.382   5.444  3.2184  1.4372 -1.3969
  762MOL0     H  559  -3.227   7.241   5.341 -1.9011 -1.0580  2.3308
  762MOL0     H  560  -3.465   7.330   5.238 -3.9038  1.0334  1.4522
  762MOL0     H  561  -3.457   7.420   5.385  1.5315  0.0271 -0.2479
  762MOL0     H  562  -3.432   7.117   5.376 -1.4885 -1.0172 -0.4521
  762MOL0     H  563  -3.443   7.214   5.529 -2.7172 -1.7133  0.5349
  762MOL0     H  564  -3.647   7.119   5.495 -2.5576  0.6133 -0.2490
  762MOL0     H  565  -3.664   7.188   5.329  2.0549 -0.1563 -1.0579
  762MOL0     H  566  -2.667   7.773   5.211 -0.1258  1.1419 -0.5613
  762MOL0     H  567  -2.413   7.789   5.116  3.0799 -1.1797 -0.5055
  762MOL0     H  568  -2.098   7.792   4.734 -1.2838  1.0025  2.9061
  762MOL0     H  569  -1.852   7.771   4.684  0.5916  0.6869  0.6027
  762MOL0     H  570  -0.058   7.906   5.691 -5.5864  0.0019 -1.6871
  762MOL0     H  571   0.171   7.780   5.693  0.1980 -0.4952  1.0858
  762MOL0     H  572   0.630   7.748   5.276 -0.2530  0.5867  0.5604
  762MOL0     H  573   0.857   7.684   5.351  2.0300 -1.7643  1.5375
  762MOL0     H  574   0.912   7.467   5.758 -0.8907  0.1896  0.7816
  762MOL0     H  575   0.907   7.646   5.788  0.3512  1.0844 -0.0692
  762MOL0     H  576   1.136   7.520   5.656 -2.7238  2.8109 -2.6110
  762MOL0     H  577   1.123   7.689   5.734  0.3092  0.4466 -3.0029
  762MOL0     H  578   1.134   7.416   5.875  0.6396 -0.9450 -0.3843
  762MOL0     H  579   1.088   7.556   5.961 -1.2941 -3.2900  0.6521
  762MOL0     H  580   1.350   7.503   5.977 -0.1418 -0.4320 -0.3298
  762MOL0     H  581   1.356   7.527   5.806  1.8553  3.6202 -0.9491
  762MOL0     H  582   1.350   7.923   5.895 -2.4305 -0.3181 -0.8881
  762MOL0     H  583   0.709   7.567   5.724  2.4198 -0.2987 -1.0007
  762MOL0     H  584   0.479   7.637   5.660  0.6725  1.3948  0.5772
  763MOL0     O  585   7.953   8.631  11.024  0.4134  0.2972 -0.0055
  763MOL0     C  586   7.981   8.730  10.963 -0.7761 -0.7530  0.2207
  763MOL0     O  587   7.911   8.772  10.856  0.4100  0.0270 -0.4408
  763MOL0     C  588   7.779   8.731  10.827  0.1499  0.3073 -0.2481
  763MOL0     C  589   7.681   8.706  10.930  0.4489  0.1946  0.3776
  763MOL0     C  590   7.559   8.648  10.886  0.4562  0.1638 -0.3778
  763MOL0     C  591   7.524   8.620  10.749 -0.0116 -0.6298 -0.7402
  763MOL0     O  592   7.398   8.570  10.719  0.0399  0.0894 -0.1486
  763MOL0     C  593   7.360   8.522  10.595  1.2969 -0.3279  0.2855
  763MOL0     C  594   7.289   8.641  10.525 -0.1804 -0.0483  0.5946
  763MOL0     C  595   7.159   8.702  10.595  0.1511 -0.5287  1.3641
  763MOL0     C  596   7.051   8.596  10.636 -0.5764 -0.0592 -0.1260
  763MOL0     C  597   6.909   8.650  10.675  0.1149 -0.0730  0.1681
  763MOL0     C  598   6.852   8.749  10.582 -0.5032 -0.5031  0.1885
  763MOL0     C  599   6.701   8.770  10.617 -0.1929 -0.2509 -0.1897
  763MOL0     C  600   6.641   8.844  10.503  0.7095  0.4159  0.4183
  763MOL0     N  601   6.496   8.823  10.527 -0.1180 -0.5129  0.8549
  763MOL0     C  602   6.415   8.882  10.613  0.7863 -0.1940 -0.6504
  763MOL0     C  603   6.291   8.826  10.605  0.4226 -0.3812 -0.7272
  763MOL0     C  604   6.176   8.858  10.701 -0.3347 -0.8262 -0.7350
  763MOL0     C  605   6.051   8.845  10.628 -0.4591 -0.0383  0.1162
  763MOL0     C  606   5.942   8.910  10.710 -0.2559  0.0529  1.4186
  763MOL0     C  607   5.811   8.892  10.636 -0.0617  0.6061  0.8127
  763MOL0     O  608   5.691   8.932  10.707  0.8131 -0.4323 -0.4103
  763MOL0     C  609   5.580   8.974  10.630 -0.0425  0.4301  0.2124
  763MOL0     C  610   5.467   9.030  10.699  0.9255 -0.7527 -0.2701
  763MOL0     C  611   5.354   9.074  10.639 -0.0821 -0.8139  0.3381
  763MOL0     C  612   5.353   9.083  10.500  0.1626 -0.2243  0.1211
  763MOL0     C  613   5.240   9.151  10.427  0.5527 -0.0691 -0.1502
  763MOL0     O  614   5.130   9.186  10.508 -0.1043 -0.4013  0.7716
  763MOL0     C  615   5.035   9.275  10.486 -1.1904  0.0452  1.0394
  763MOL0     C  616   4.964   9.313  10.607  0.4022  0.0556  0.4359
  763MOL0     C  617   4.858   9.399  10.603  0.9151 -0.5381 -1.2385
  763MOL0     C  618   4.818   9.460  10.484 -0.0261 -0.7798 -1.0088
  763MOL0     O  619   4.713   9.549  10.473  0.2284 -0.1258  0.7064
  763MOL0     C  620   4.676   9.619  10.586  0.7023 -0.4168 -0.6404
  763MOL0     C  621   4.574   9.729  10.540 -0.7580 -0.7488  0.4895
  763MOL0     C  622   4.481   9.686  10.428  0.5673  0.1422  0.0045
  763MOL0     C  623   4.391   9.808  10.397  0.4222  0.0248 -0.4769
  763MOL0     C  624   4.330   9.809  10.258  0.2206 -0.4037 -0.0676
  763MOL0     C  625   4.235   9.939  10.243 -0.4824 -0.2394 -0.2925
  763MOL0     C  626   4.194   9.962  10.090 -0.8423 -1.1121 -1.1132
  763MOL0     C  627   4.086  10.082  10.079 -0.4646 -0.0042 -0.7547
  763MOL0    Cl  628   3.952  10.043   9.957 -0.1030 -0.0724 -0.0807
  763MOL0     C  629   4.887   9.419  10.366 -0.2893  0.9525  0.5157
  763MOL0     C  630   4.993   9.329  10.356 -0.4616 -0.0825 -0.5357
  763MOL0     O  631   5.256   9.184  10.310 -0.2740 -0.0953  0.1103
  763MOL0     C  632   5.457   9.028  10.426 -0.9726  0.1577 -0.4588
  763MOL0     C  633   5.567   8.966  10.493 -1.0941  0.0115  0.8209
  763MOL0     N  634   6.290   8.739  10.499  1.1719  0.0084  0.4167
  763MOL0     N  635   6.416   8.731  10.466 -0.0626  0.0674  0.5303
  763MOL0     C  636   7.628   8.639  10.653  0.3055  0.7181 -0.9461
  763MOL0     C  637   7.754   8.699  10.695  0.9339  0.0559  0.0295
  763MOL0     C  638   8.117   8.795  10.997 -0.0050 -0.1835  0.0804
  763MOL0     C  639   8.153   8.924  10.950  0.5477 -1.1700 -0.3584
  763MOL0     C  640   8.267   8.989  10.994 -0.1492 -0.3084 -0.1115
  763MOL0     C  641   8.344   8.927  11.093 -0.8199 -0.4382 -0.5951
  763MOL0     O  642   8.450   9.003  11.148  0.2397 -0.8793  0.2047
  763MOL0     C  643   8.539   8.936  11.239 -0.3373  0.0977  0.9535
  763MOL0     C  644   8.618   9.047  11.316 -0.5376 -0.4887 -0.1291
  763MOL0     C  645   8.735   8.994  11.400  0.3601  0.6754 -0.1569
  763MOL0     C  646   8.845   9.095  11.420  0.7706  0.0652 -0.4924
  763MOL0     C  647   8.910   9.107  11.288 -0.4411 -0.0361  0.6068
  763MOL0     C  648   8.979   9.113  11.191  0.2279 -0.5851 -0.0670
  763MOL0     C  649   8.320   8.795  11.128  0.2068  0.5300 -0.3247
  763MOL0     C  650   8.210   8.727  11.079 -0.0874 -0.5834  0.5989
  763MOL0     H  651   7.714   8.729  11.030 -1.9287  4.9464  0.3499
  763MOL0     H  652   7.484   8.621  10.960  0.8150  1.0805  0.3473
  763MOL0     H  653   7.291   8.439  10.612  2.1896 -0.9805  0.8043
  763MOL0     H  654   7.443   8.476  10.541  0.4715 -1.4552 -0.0532
  763MOL0     H  655   7.269   8.621  10.420  3.3348  0.5625 -0.3053
  763MOL0     H  656   7.363   8.720  10.524 -1.8405  1.6000  1.5373
  763MOL0     H  657   7.117   8.774  10.524  1.2685  1.5769  2.7167
  763MOL0     H  658   7.199   8.759  10.680 -1.0854  1.2245  0.8183
  763MOL0     H  659   7.018   8.531  10.554 -2.1006 -1.2412  1.3401
  763MOL0     H  660   7.086   8.532  10.718  2.0180 -0.2384 -1.2637
  763MOL0     H  661   6.914   8.702  10.771  0.8182  1.3817 -0.6165
  763MOL0     H  662   6.851   8.560  10.699 -1.6211  1.1349  0.7032
  763MOL0     H  663   6.865   8.716  10.479 -1.2119  1.7197 -0.6709
  763MOL0     H  664   6.904   8.844  10.594  1.8384 -1.9298  2.4900
  763MOL0     H  665   6.649   8.682  10.654 -1.9262 -0.6590 -3.2687
  763MOL0     H  666   6.696   8.836  10.705  0.0212 -1.1119  0.4815
  763MOL0     H  667   6.655   8.801  10.404 -2.5227  0.5769 -0.2104
  763MOL0     H  668   6.671   8.949  10.495  0.5154  0.5302  1.0825
  763MOL0     H  669   6.437   8.969  10.674  0.4670  0.3375 -1.2789
  763MOL0     H  670   6.183   8.952  10.756  0.8615 -1.5644  0.4463
  763MOL0     H  671   6.196   8.773  10.767  4.4988  0.2787 -0.4406
  763MOL0     H  672   6.030   8.738  10.620  2.8426 -1.0302  2.2484
  763MOL0     H  673   6.054   8.900  10.533 -0.4736  0.3985  0.3631
  763MOL0     H  674   5.931   8.878  10.814  0.0629  3.0873  2.4747
  763MOL0     H  675   5.968   9.015  10.723  1.2021  0.0423 -0.7966
  763MOL0     H  676   5.791   8.786  10.617 -2.7429  1.3630 -1.2521
  763MOL0     H  677   5.825   8.942  10.540  0.4810 -0.2170  0.4604
  763MOL0     H  678   5.473   9.035  10.807 -3.0345 -1.3007  0.1302
  763MOL0     H  679   5.274   9.101  10.707 -0.0850 -0.9952  0.4068
  763MOL0     H  680   5.005   9.278  10.701  0.0498 -1.9116 -0.0881
  763MOL0     H  681   4.810   9.429  10.696  0.7224 -2.4039 -0.6775
  763MOL0     H  682   4.753   9.650  10.658  0.4376 -1.0721 -0.0734
  763MOL0     H  683   4.618   9.543  10.638 -0.9686  1.2523  0.0697
  763MOL0     H  684   4.640   9.815  10.526 -0.3470 -0.7424  2.2218
  763MOL0     H  685   4.512   9.758  10.624 -1.7735 -1.4125 -0.0171
  763MOL0     H  686   4.423   9.595  10.446 -1.5743  1.2235 -1.0190
  763MOL0     H  687   4.544   9.662  10.341  1.8232 -1.8467  1.3887
  763MOL0     H  688   4.303   9.795  10.460 -1.2997 -2.6594 -3.1516
  763MOL0     H  689   4.443   9.903  10.409 -1.6859  1.3355 -1.3618
  763MOL0     H  690   4.275   9.716  10.240 -2.6631  0.8281  1.6394
  763MOL0     H  691   4.413   9.826  10.189  1.3239  3.1358  1.8583
  763MOL0     H  692   4.283  10.028  10.283 -1.4930  0.6993 -1.0733
  763MOL0     H  693   4.139   9.914  10.289 -0.9400 -2.7554 -2.3443
  763MOL0     H  694   4.285   9.982  10.032  0.1001 -0.5049  0.5342
  763MOL0     H  695   4.152   9.865  10.062 -0.6112 -1.5235 -0.0835
  763MOL0     H  696   4.140  10.171  10.045  0.9143  1.3467  4.1152
  763MOL0     H  697   4.046  10.116  10.175  0.2159  3.2127 -1.4925
  763MOL0     H  698   4.854   9.449  10.267 -0.4454 -2.2485 -0.5267
  763MOL0     H  699   5.043   9.311  10.261  3.1365 -1.1742  1.3498
  763MOL0     H  700   5.441   9.039  10.320 -2.8854  0.5536 -0.1700
  763MOL0     H  701   5.647   8.915  10.439 -1.6380 -0.6025  0.5850
  763MOL0     H  702   7.614   8.610  10.550 -2.3732 -3.0798  0.2737
  763MOL0     H  703   7.840   8.726  10.635  0.1117  2.5779 -0.1076
  763MOL0     H  704   8.070   8.974  10.901 -0.5606 -2.1726  0.4380
  763MOL0     H  705   8.298   9.084  10.951  2.8063 -0.3253  1.6892
  763MOL0     H  706   8.600   8.867  11.181 -1.5922 -0.0892 -0.1873
  763MOL0     H  707   8.493   8.879  11.320  2.6479  0.0750  2.7893
  763MOL0     H  708   8.663   9.118  11.246  3.2260  0.5701  2.9535
  763MOL0     H  709   8.548   9.106  11.376  0.0133 -1.1006  1.1546
  763MOL0     H  710   8.777   8.909  11.346 -1.3238 -1.1271  1.1985
  763MOL0     H  711   8.694   8.964  11.497 -1.0562  2.5434 -0.1012
  763MOL0     H  712   8.805   9.189  11.458  2.4114  0.9130 -0.7789
  763MOL0     H  713   8.905   9.039  11.493 -2.9853 -5.0851 -0.7718
  763MOL0     H  714   9.043   9.110  11.105 -3.7679  1.9704 -3.4886
  763MOL0     H  715   8.395   8.744  11.187  0.1795 -0.7573 -1.3468
  763MOL0     H  716   8.185   8.627  11.112 -1.0509 -0.8806 -0.9400
  764MOL0     O  717   9.865  11.232   2.391  0.0279 -0.4493 -0.4569
  764MOL0     C  718   9.945  11.306   2.451  0.7337  0.4622  1.0053
  764MOL0     O  719   9.920  11.371   2.569  0.4871  0.8408 -0.0037
  764MOL0     C  720   9.800  11.359   2.627  0.1347  0.8114 -0.4903
  764MOL0     C  721   9.747  11.246   2.683  0.2940 -0.4234 -0.4365
  764MOL0     C  722   9.618  11.246   2.737 -0.3503 -0.9176 -0.3359
  764MOL0     C  723   9.552  11.368   2.752  0.0567  0.2786 -0.0674
  764MOL0     O  724   9.433  11.374   2.822 -0.4588  0.2963 -0.4539
  764MOL0     C  725   9.324  11.370   2.731  0.5636  0.2107  0.2223
  764MOL0     C  726   9.207  11.457   2.794 -0.6005  0.9715 -0.2650
  764MOL0     C  727   9.238  11.601   2.772 -0.6939  0.4925 -0.4325
  764MOL0     C  728   9.141  11.702   2.819  0.1830 -1.5021 -0.0061
  764MOL0     C  729   8.997  11.658   2.814  0.0908  0.4206  0.3338
  764MOL0     C  730   8.894  11.752   2.882  0.1575 -0.3446 -0.0079
  764MOL0     C  731   8.749  11.693   2.854  0.0503 -0.8924 -0.3509
  764MOL0     C  732   8.651  11.794   2.920 -0.5501 -0.4200  0.1739
  764MOL0     N  733   8.526  11.758   2.866  0.4051 -1.1245  0.3132
  764MOL0     C  734   8.456  11.639   2.876  1.1520 -0.0473 -0.0162
  764MOL0     C  735   8.350  11.648   2.795 -0.4006 -0.2167 -0.2682
  764MOL0     C  736   8.257  11.530   2.776  0.2431  1.0573  0.1769
  764MOL0     C  737   8.274  11.468   2.631 -0.1774 -0.3876  0.1301
  764MOL0     C  738   8.200  11.332   2.628  0.0239 -0.9854  0.5481
  764MOL0     C  739   8.216  11.261   2.487 -0.4067 -0.4356 -1.4184
  764MOL0     O  740   8.090  11.239   2.426  0.0359  0.2086  0.6003
  764MOL0     C  741   8.063  11.133   2.343 -0.1127 -0.1159 -0.5349
  764MOL0     C  742   8.153  11.040   2.297 -0.4705 -0.5740  0.5387
  764MOL0     C  743   8.118  10.938   2.220 -0.3280  0.1909  0.5515
  764MOL0     C  744   7.984  10.918   2.185  0.6599  0.0836 -1.0286
  764MOL0     C  745   7.937  10.809   2.100  0.2498 -0.3009 -0.4299
  764MOL0     O  746   7.801  10.795   2.093 -0.4428  0.3137  0.0332
  764MOL0     C  747   7.738  10.683   2.042  0.7423  0.2299 -0.4216
  764MOL0     C  748   7.647  10.616   2.124  0.6079  0.0636  0.4246
  764MOL0     C  749   7.560  10.512   2.078 -0.0123 -0.0704  0.9218
  764MOL0     C  750   7.575  10.462   1.950 -0.1964  0.4213 -0.3074
  764MOL0     O  751   7.485  10.367   1.900 -0.4302 -0.4294  0.6936
  764MOL0     C  752   7.340  10.395   1.923  0.7078  0.4035  0.2083
  764MOL0     C  753   7.286  10.304   2.029  0.1357 -0.5669 -0.0718
  764MOL0     C  754   7.141  10.334   2.083 -0.5873 -0.4487 -1.1310
  764MOL0     C  755   7.036  10.274   1.990  0.4724  0.0988 -0.2419
  764MOL0     C  756   6.900  10.333   2.035  0.2272  0.6014  1.2428
  764MOL0     C  757   6.788  10.309   1.931 -0.0985  0.5539  0.3985
  764MOL0     C  758   6.758  10.164   1.919  0.2294  0.0447 -0.0446
  764MOL0     C  759   6.676  10.144   1.796 -0.5059  0.5214  0.0073
  764MOL0    Cl  760   6.537  10.253   1.778  0.0836  0.3575 -0.6514
  764MOL0     C  761   7.669  10.524   1.871 -0.1761 -0.2427  0.4079
  764MOL0     C  762   7.762  10.624   1.910  0.5629 -0.7151 -0.0408
  764MOL0     O  763   8.021  10.737   2.050 -0.5509 -0.2361 -0.3313
  764MOL0     C  764   7.890  11.021   2.234 -0.1902  0.5706 -0.0492
  764MOL0     C  765   7.931  11.127   2.307 -0.1960  0.6629 -0.0628
  764MOL0     N  766   8.344  11.775   2.741 -0.0373  0.6506 -0.9245
  764MOL0     N  767   8.454  11.836   2.779 -0.9722 -0.2245  0.3925
  764MOL0     C  768   9.600  11.487   2.687  0.1616  0.0490  0.7112
  764MOL0     C  769   9.724  11.476   2.622  0.5669 -1.1576 -0.6633
  764MOL0     C  770  10.073  11.345   2.394 -0.5903  0.1113 -0.5668
  764MOL0     C  771  10.177  11.395   2.478  0.6592 -0.0507 -0.0975
  764MOL0     C  772  10.303  11.406   2.431 -0.1657 -0.0896 -0.2639
  764MOL0     C  773  10.334  11.374   2.303 -0.4221 -0.1537 -0.0489
  764MOL0     O  774  10.463  11.397   2.260 -0.2279 -0.3532  0.2894
  764MOL0     C  775  10.529  11.326   2.155  0.0581 -0.5751 -0.1688
  764MOL0     C  776  10.670  11.278   2.189 -1.0264  1.0632 -0.2744
  764MOL0     C  777  10.691  11.203   2.327  0.7252 -0.7107 -0.2907
  764MOL0     C  778  10.810  11.255   2.407  0.5606 -0.3097 -0.6709
  764MOL0     C  779  10.927  11.239   2.326  0.2490  0.3341  0.6960
  764MOL0     C  780  11.024  11.223   2.257  0.0718 -1.2447 -0.5964
  764MOL0     C  781  10.236  11.335   2.214 -0.4464  0.3374  0.0689
  764MOL0     C  782  10.106  11.310   2.260 -0.3669  0.0269  0.1259
  764MOL0     H  783   9.808  11.156   2.674  1.7487  0.3023  1.5015
  764MOL0     H  784   9.572  11.154   2.771  1.2176 -2.0641 -1.1326
  764MOL0     H  785   9.283  11.270   2.719  1.2388  0.0417 -0.7788
  764MOL0     H  786   9.354  11.414   2.635 -0.0271  0.5572  0.1899
  764MOL0     H  787   9.204  11.433   2.901  0.0811 -1.6805 -0.7606
  764MOL0     H  788   9.110  11.438   2.747 -1.7351  2.1013  1.4851
  764MOL0     H  789   9.267  11.611   2.668 -1.1825  1.9157 -0.4589
  764MOL0     H  790   9.336  11.613   2.820  0.0192 -0.8759 -1.4767
  764MOL0     H  791   9.174  11.719   2.922 -1.0840  2.8045 -0.1403
  764MOL0     H  792   9.158  11.798   2.769  3.7735 -2.3489 -0.7333
  764MOL0     H  793   8.998  11.568   2.877  0.9746 -2.4564 -3.4679
  764MOL0     H  794   8.963  11.626   2.715  2.8046 -1.9693  0.0361
  764MOL0     H  795   8.898  11.858   2.854  1.8438 -0.0200  1.3105
  764MOL0     H  796   8.913  11.759   2.990 -0.4938  2.2496  0.0112
  764MOL0     H  797   8.724  11.702   2.748 -2.3494  0.7146  0.2547
  764MOL0     H  798   8.747  11.592   2.896  1.7899 -0.5322  0.7264
  764MOL0     H  799   8.676  11.895   2.887  1.8645 -1.0061  0.0471
  764MOL0     H  800   8.659  11.788   3.029  0.9495  2.1172  0.2663
  764MOL0     H  801   8.480  11.549   2.931  3.4926  1.1695  1.0974
  764MOL0     H  802   8.154  11.551   2.806  0.3016 -0.6092  1.7176
  764MOL0     H  803   8.293  11.450   2.841  0.2903  1.7482  1.0288
  764MOL0     H  804   8.383  11.460   2.624  0.0406 -0.7302  2.7772
  764MOL0     H  805   8.247  11.536   2.550  2.3383 -2.0932 -2.3007
  764MOL0     H  806   8.248  11.267   2.702  0.4216 -1.6559 -0.2827
  764MOL0     H  807   8.094  11.351   2.648 -0.8805 -2.5208 -2.2351
  764MOL0     H  808   8.283  11.175   2.496  0.1782  0.2263  1.2701
  764MOL0     H  809   8.261  11.328   2.413  1.8367  1.9310  1.8582
  764MOL0     H  810   8.258  11.040   2.327 -0.2701 -4.0472  0.2885
  764MOL0     H  811   8.192  10.868   2.183 -2.4739 -0.9606 -1.9000
  764MOL0     H  812   7.623  10.647   2.225  0.7647  0.8750  0.2221
  764MOL0     H  813   7.496  10.474   2.157  0.7029  0.8321  1.9664
  764MOL0     H  814   7.277  10.379   1.835 -1.0714 -1.5267  1.7295
  764MOL0     H  815   7.328  10.498   1.957  0.9269  0.9195 -1.2158
  764MOL0     H  816   7.356  10.303   2.113  0.9367  3.9456 -0.4240
  764MOL0     H  817   7.280  10.199   2.000 -2.6461 -1.1637  2.3458
  764MOL0     H  818   7.123  10.441   2.095 -2.1624 -0.5620 -2.2987
  764MOL0     H  819   7.138  10.288   2.183  1.3199  0.0636 -0.7831
  764MOL0     H  820   7.067  10.311   1.892  0.9128  0.8146  0.1597
  764MOL0     H  821   7.036  10.164   1.986 -0.9395  0.0791 -0.2347
  764MOL0     H  822   6.907  10.442   2.039 -0.0863  0.6066  1.5905
  764MOL0     H  823   6.879  10.298   2.136  1.9524  0.8824  1.7311
  764MOL0     H  824   6.811  10.346   1.831 -2.7280 -0.8769 -0.8307
  764MOL0     H  825   6.706  10.374   1.963  0.5369  2.0839 -0.9466
  764MOL0     H  826   6.846  10.100   1.919  0.4108  0.2954 -0.2403
  764MOL0     H  827   6.699  10.128   2.004  0.3003 -1.7883 -0.7461
  764MOL0     H  828   6.642  10.040   1.795 -1.4962  0.8288  0.5884
  764MOL0     H  829   6.747  10.160   1.714  0.1211  1.0470  0.6428
  764MOL0     H  830   7.683  10.470   1.779 -1.7362  0.2500 -0.1462
  764MOL0     H  831   7.841  10.667   1.848 -2.8173  3.8500 -1.7523
  764MOL0     H  832   7.788  11.014   2.198 -0.1625 -2.2137  0.1725
  764MOL0     H  833   7.861  11.208   2.325  1.7452  2.0886  1.6240
  764MOL0     H  834   9.532  11.571   2.693 -2.2432 -1.6683 -0.8672
  764MOL0     H  835   9.770  11.560   2.569  1.9528 -1.9724 -0.7985
  764MOL0     H  836  10.159  11.418   2.582  2.0876  1.0453 -0.0662
  764MOL0     H  837  10.380  11.440   2.499 -1.3044  1.0815  0.4899
  764MOL0     H  838  10.548  11.388   2.067  1.9494 -0.3844  0.3386
  764MOL0     H  839  10.471  11.238   2.125  0.5542 -0.8386 -0.3681
  764MOL0     H  840  10.705  11.217   2.105 -0.3430  1.0799 -0.0111
  764MOL0     H  841  10.742  11.361   2.184  1.6287 -1.1257 -0.8349
  764MOL0     H  842  10.707  11.098   2.304  1.2122 -0.9515  1.0880
  764MOL0     H  843  10.597  11.203   2.383  3.3255 -1.0985  4.5860
  764MOL0     H  844  10.792  11.360   2.433  1.9660 -0.1458 -0.2751
  764MOL0     H  845  10.819  11.190   2.494  0.7969 -0.1035 -0.5400
  764MOL0     H  846  11.098  11.227   2.180 -1.4167 -0.7350 -2.0891
  764MOL0     H  847  10.264  11.315   2.111  0.3421 -1.0894  0.5236
  764MOL0     H  848  10.035  11.257   2.198 -2.8610  0.7819  2.1907
  765MOL0     O  849   3.625  10.836   9.653 -0.4023 -0.1766 -0.0252
  765MOL0     C  850   3.691  10.769   9.577  0.4594  0.0634  0.3790
  765MOL0     O  851   3.647  10.701   9.474 -0.1629  0.8775 -0.5817
  765MOL0     C  852   3.518  10.727   9.437 -0.5290  0.1027  0.0057
  765MOL0     C  853   3.420  10.638   9.457 -0.0348 -0.1472 -0.8290
  765MOL0     C  854   3.288  10.670   9.427  0.4485 -0.0943  0.8505
  765MOL0     C  855   3.253  10.797   9.375  0.4201  0.0621 -0.9121
  765MOL0     O  856   3.118  10.821   9.340  0.0739 -0.0944  0.4367
  765MOL0     C  857   3.083  10.940   9.269 -0.6278  0.7249 -0.0333
  765MOL0     C  858   2.942  10.925   9.230  0.6520 -0.3292  0.2266
  765MOL0     C  859   2.846  10.922   9.350 -0.5429  0.1936 -0.6192
  765MOL0     C  860   2.697  10.956   9.310  0.1096  0.0409 -1.2258
  765MOL0     C  861   2.622  11.026   9.425 -0.6212  1.2934 -1.0459
  765MOL0     C  862   2.495  10.957   9.472  0.4591 -0.5851 -0.8873
  765MOL0     C  863   2.436  10.990   9.611  0.6023  0.7228 -0.0969
  765MOL0     C  864   2.297  10.926   9.642 -0.1616  0.2913 -0.1797
  765MOL0     N  865   2.177  10.983   9.580 -0.0109 -0.3771  0.0760
  765MOL0     C  866   2.171  11.106   9.516 -0.2628 -0.1475  0.2855
  765MOL0     C  867   2.046  11.142   9.503 -0.1457 -0.1690  0.4759
  765MOL0     C  868   1.991  11.267   9.429  0.4569  0.6228  0.0806
  765MOL0     C  869   1.886  11.339   9.512  0.3014 -0.3631  0.7736
  765MOL0     C  870   1.744  11.285   9.482 -0.8696 -0.1521  0.5330
  765MOL0     C  871   1.631  11.360   9.547 -0.6155 -0.1005 -0.1748
  765MOL0     O  872   1.517  11.287   9.504 -0.1434 -0.6773  0.2503
  765MOL0     C  873   1.436  11.332   9.403 -1.3077  0.0010 -0.5866
  765MOL0     C  874   1.311  11.273   9.397 -0.0717 -1.0016  0.3361
  765MOL0     C  875   1.214  11.301   9.297  0.0159 -0.5480 -0.3934
  765MOL0     C  876   1.255  11.394   9.190 -0.1114  1.0535  0.0021
  765MOL0     C  877   1.162  11.406   9.076 -0.1658  0.0441 -0.7375
  765MOL0     O  878   1.050  11.335   9.080 -1.1306  0.8027 -0.5697
  765MOL0     C  879   0.956  11.318   8.985 -0.2229  0.0898 -0.2797
  765MOL0     C  880   0.830  11.277   9.037  0.2256  0.5661 -0.7343
  765MOL0     C  881   0.725  11.272   8.948 -0.0136 -0.3450 -1.2060
  765MOL0     C  882   0.744  11.266   8.807  0.4739 -0.2608 -0.5576
  765MOL0     O  883   0.654  11.247   8.707  0.3638 -0.6340 -0.8340
  765MOL0     C  884   0.530  11.191   8.744 -0.4602 -1.1074  0.3902
  765MOL0     C  885   0.440  11.136   8.639  0.4619 -0.5409  0.3376
  765MOL0     C  886   0.310  11.086   8.699 -0.7145  0.3058  0.1745
  765MOL0     C  887   0.225  11.026   8.584 -1.0041 -0.1917  0.6259
  765MOL0     C  888   0.161  11.142   8.503  0.3410  0.1067 -1.0507
  765MOL0     C  889   0.156  11.103   8.346  0.4168  0.3402 -0.2257
  765MOL0     C  890   0.092  11.230   8.270  0.5068 -0.1581 -0.1201
  765MOL0     C  891   0.108  11.234   8.111  0.2136  0.7119 -0.5002
  765MOL0    Cl  892   0.271  11.296   8.076 -0.4088 -0.2968  0.1988
  765MOL0     C  893   0.877  11.284   8.764  0.3228 -0.9332 -0.0088
  765MOL0     C  894   0.981  11.316   8.845  0.2030 -0.3852  0.5222
  765MOL0     O  895   1.188  11.491   8.993 -0.5682  0.7196  0.5329
  765MOL0     C  896   1.382  11.451   9.189  0.2215  0.6487  0.3528
  765MOL0     C  897   1.476  11.412   9.291  0.7309 -0.2799  0.1043
  765MOL0     N  898   1.969  11.035   9.554  0.3465  0.3535  0.9550
  765MOL0     N  899   2.047  10.946   9.600 -0.4968  0.2140 -0.1894
  765MOL0     C  900   3.352  10.892   9.363  0.0266  0.5304 -0.5300
  765MOL0     C  901   3.490  10.852   9.391  0.0966 -0.0473 -0.4997
  765MOL0     C  902   3.836  10.751   9.597 -0.0873  0.7000  0.1745
  765MOL0     C  903   3.900  10.632   9.547 -0.1470  0.2456 -0.3767
  765MOL0     C  904   4.037  10.617   9.570 -1.3777 -0.8683 -0.5211
  765MOL0     C  905   4.119  10.722   9.625  0.2084 -0.3316  0.7478
  765MOL0     O  906   4.257  10.746   9.635  0.3581 -0.0618  0.3104
  765MOL0     C  907   4.342  10.647   9.568  0.2171  0.0336  0.1279
  765MOL0     C  908   4.478  10.669   9.647  0.3551 -0.8541 -0.1497
  765MOL0     C  909   4.476  10.622   9.797 -0.2711  0.3463  1.2292
  765MOL0     C  910   4.588  10.672   9.876  0.4501  0.3685 -0.0042
  765MOL0     C  911   4.719  10.629   9.826  0.2343 -0.0800 -0.3215
  765MOL0     C  912   4.830  10.592   9.798 -0.7689 -0.5239 -0.1209
  765MOL0     C  913   4.054  10.830   9.675 -0.2189  0.2336 -0.2667
  765MOL0     C  914   3.915  10.836   9.673 -0.2938 -0.3561  0.2997
  765MOL0     H  915   3.444  10.539   9.492  0.9774 -0.0412 -1.1761
  765MOL0     H  916   3.211  10.594   9.432  1.7476 -1.4413  1.0537
  765MOL0     H  917   3.156  10.942   9.188 -0.7277 -0.5077 -0.1764
  765MOL0     H  918   3.105  11.026   9.333  1.7013  0.5477 -0.5006
  765MOL0     H  919   2.925  10.836   9.168 -1.9578 -0.3804  0.9051
  765MOL0     H  920   2.908  11.014   9.176 -0.7646 -0.4270  0.9260
  765MOL0     H  921   2.876  11.003   9.416  4.1682 -1.1793 -0.7087
  765MOL0     H  922   2.853  10.826   9.403  0.6118  1.1638  1.0902
  765MOL0     H  923   2.688  11.032   9.232  0.1396  2.6451  1.1566
  765MOL0     H  924   2.644  10.870   9.268 -1.3932  0.6283 -0.6034
  765MOL0     H  925   2.604  11.129   9.392 -1.4822  1.8915  1.1014
  765MOL0     H  926   2.688  11.039   9.511 -2.7982  2.5040  0.5225
  765MOL0     H  927   2.513  10.850   9.471 -0.5343 -0.7637 -2.1191
  765MOL0     H  928   2.419  10.973   9.395 -1.7569 -1.1881  1.0903
  765MOL0     H  929   2.510  10.962   9.686 -1.5518 -1.5083  1.3373
  765MOL0     H  930   2.418  11.096   9.635 -1.6001 -0.0407  1.9596
  765MOL0     H  931   2.280  10.933   9.749 -0.9314  2.5924 -0.3949
  765MOL0     H  932   2.303  10.825   9.600 -0.1366  0.3309 -0.2739
  765MOL0     H  933   2.259  11.162   9.485 -0.0001  1.5695  3.7088
  765MOL0     H  934   1.955  11.253   9.327  1.7782  1.5558 -0.5515
  765MOL0     H  935   2.081  11.329   9.425  0.5861  0.4634  0.4748
  765MOL0     H  936   1.904  11.445   9.495 -3.9159  0.3062 -0.6530
  765MOL0     H  937   1.913  11.314   9.615 -0.0907 -1.3665  0.6534
  765MOL0     H  938   1.738  11.287   9.373  1.0637 -1.2243  0.3664
  765MOL0     H  939   1.744  11.178   9.504  0.1942 -0.6668 -1.6452
  765MOL0     H  940   1.620  11.461   9.507  1.0110 -0.8002 -2.6237
  765MOL0     H  941   1.627  11.356   9.656  1.8283  1.6717  0.0738
  765MOL0     H  942   1.298  11.205   9.480  3.6998 -2.2410  0.1124
  765MOL0     H  943   1.119  11.248   9.297  0.3433 -1.4615  3.2502
  765MOL0     H  944   0.804  11.275   9.142  1.3120  0.8202 -0.4456
  765MOL0     H  945   0.630  11.264   9.001  2.3389  0.8870  3.8550
  765MOL0     H  946   0.474  11.271   8.793  2.7992  1.5838  0.1283
  765MOL0     H  947   0.554  11.101   8.802  4.2281 -2.0855 -2.5372
  765MOL0     H  948   0.499  11.059   8.588  1.6245  0.2361  0.4810
  765MOL0     H  949   0.418  11.220   8.572 -0.2983 -2.0562 -1.4177
  765MOL0     H  950   0.266  11.171   8.752 -0.7242 -1.1665  2.7016
  765MOL0     H  951   0.325  11.013   8.779 -4.9134  0.7146  1.6161
  765MOL0     H  952   0.294  10.968   8.522 -1.2988  1.5877 -1.4898
  765MOL0     H  953   0.143  10.969   8.628 -0.6818  0.7166  2.4974
  765MOL0     H  954   0.209  11.240   8.515 -0.0896  0.6231 -3.0728
  765MOL0     H  955   0.061  11.165   8.541  1.0441 -1.0192  1.7026
  765MOL0     H  956   0.096  11.016   8.316 -0.3066 -0.1269  2.3449
  765MOL0     H  957   0.260  11.091   8.315  0.8728  1.4956  0.7678
  765MOL0     H  958  -0.015  11.253   8.274  0.5033  0.4298 -2.2842
  765MOL0     H  959   0.146  11.315   8.313  0.5909 -0.7532  0.9988
  765MOL0     H  960   0.036  11.308   8.075 -0.0949  3.3333  4.5516
  765MOL0     H  961   0.093  11.132   8.074 -0.7149  1.2037 -1.5243
  765MOL0     H  962   0.890  11.293   8.657  0.0663  1.0033  0.0989
  765MOL0     H  963   1.078  11.342   8.805  0.3848  0.2369  1.3407
  765MOL0     H  964   1.405  11.510   9.102 -0.8674  0.1151 -0.3208
  765MOL0     H  965   1.571  11.462   9.285  1.3716 -1.4273  0.2992
  765MOL0     H  966   3.325  10.996   9.349 -0.3068  0.5371  0.1178
  765MOL0     H  967   3.571  10.920   9.368  2.7314 -2.7887 -0.0186
  765MOL0     H  968   3.846  10.554   9.494  0.8934 -0.2499 -0.7322
  765MOL0     H  969   4.084  10.525   9.540 -0.0668 -0.5018  0.3347
  765MOL0     H  970   4.358  10.676   9.464  1.5970 -0.9698  0.0251
  765MOL0     H  971   4.299  10.548   9.580 -1.4601  0.7231  0.0074
  765MOL0     H  972   4.555  10.611   9.596 -1.3657 -1.7209 -1.9365
  765MOL0     H  973   4.515  10.770   9.630  1.6696 -1.2392  0.3245
  765MOL0     H  974   4.494  10.514   9.792 -0.5124  0.3417 -2.7546
  765MOL0     H  975   4.377  10.631   9.842 -1.0714 -0.4561 -0.2865
  765MOL0     H  976   4.576  10.781   9.877 -2.5311  0.1264  0.2958
  765MOL0     H  977   4.584  10.632   9.978 -1.5521  1.0312  0.2116
  765MOL0     H  978   4.935  10.578   9.782 -0.6773 -1.2493  0.9820
  765MOL0     H  979   4.110  10.909   9.724 -1.0270  0.6270  0.0477
  765MOL0     H  980   3.876  10.920   9.730 -3.0818  1.0091 -3.2287
  766MOL0     O  981  10.254   3.945   1.202 -0.4065  0.2198 -0.1131
  766MOL0     C  982  10.271   3.826   1.235  0.2458 -1.1319  1.0148
  766MOL0     O  983  10.380   3.760   1.221  0.0223 -0.4268 -0.2726
  766MOL0     C  984  10.502   3.818   1.185 -0.4838  0.0271  0.1982
  766MOL0     C  985  10.597   3.814   1.284 -0.5255  0.6623 -0.2502
  766MOL0     C  986  10.722   3.868   1.260 -0.0794 -0.0474 -0.1250
  766MOL0     C  987  10.744   3.943   1.143  0.4203  0.6247 -0.8863
  766MOL0     O  988  10.872   4.001   1.136  0.1111  0.2423  0.0187
  766MOL0     C  989  10.916   4.075   1.013  0.0712  0.1784  0.1218
  766MOL0     C  990  11.051   4.137   1.061 -0.6863  0.3439  0.2796
  766MOL0     C  991  11.147   4.163   0.945  0.6704 -0.4978  0.3861
  766MOL0     C  992  11.289   4.195   1.008  0.2887  0.7923  0.1857
  766MOL0     C  993  11.415   4.178   0.916  0.5286 -0.5647  0.1420
  766MOL0     C  994  11.447   4.042   0.862  0.2987  0.2286 -0.6063
  766MOL0     C  995  11.594   4.012   0.810  0.3401 -0.1095  0.0693
  766MOL0     C  996  11.640   4.091   0.682  0.9784  0.1008 -0.9416
  766MOL0     N  997  11.538   4.100   0.578  0.1107  0.4252 -0.9291
  766MOL0     C  998  11.473   3.999   0.507  0.1651 -0.8817  0.4066
  766MOL0     C  999  11.380   4.057   0.435 -0.6561 -1.0619  0.6192
  766MOL0     C 1000  11.290   3.985   0.341 -0.2980  0.1642  0.5312
  766MOL0     C 1001  11.152   3.963   0.400 -0.2079 -0.4928  0.2480
  766MOL0     C 1002  11.140   3.911   0.544  0.0562 -0.0287  0.5277
  766MOL0     C 1003  10.999   3.859   0.572 -0.4775  0.7109  0.5395
  766MOL0     O 1004  10.939   3.959   0.651  0.5792  0.2235 -0.5225
  766MOL0     C 1005  10.803   3.966   0.684 -0.0620  0.4382  0.3469
  766MOL0     C 1006  10.708   3.874   0.648 -0.3220  0.7076 -0.0571
  766MOL0     C 1007  10.569   3.895   0.665 -0.3301  0.7719  0.8200
  766MOL0     C 1008  10.524   4.017   0.709 -0.2430  0.3088 -0.1052
  766MOL0     C 1009  10.379   4.059   0.717  1.2750  0.4448 -0.1588
  766MOL0     O 1010  10.288   3.958   0.674 -0.1920  0.5976 -0.1182
  766MOL0     C 1011  10.157   3.960   0.721 -0.3395  0.2113  1.5480
  766MOL0     C 1012  10.135   3.954   0.854  0.4325  0.1774 -0.0465
  766MOL0     C 1013  10.012   3.920   0.914  0.4724 -0.4514  0.2483
  766MOL0     C 1014   9.900   3.898   0.823 -0.5483  0.0759 -0.2624
  766MOL0     O 1015   9.781   3.888   0.882 -0.3963  0.6703 -0.6328
  766MOL0     C 1016   9.678   3.825   0.810  0.1162  0.7715  0.2459
  766MOL0     C 1017   9.572   3.780   0.907 -0.2190  0.1543 -0.6111
  766MOL0     C 1018   9.431   3.758   0.840 -0.1487 -0.3758  0.0929
  766MOL0     C 1019   9.365   3.646   0.911  0.5250  0.2043  0.5377
  766MOL0     C 1020   9.212   3.628   0.892 -0.9137 -0.0600 -0.3407
  766MOL0     C 1021   9.163   3.615   0.750  0.4651 -0.2061 -0.0475
  766MOL0     C 1022   9.122   3.755   0.702  0.0481 -0.9199  0.1317
  766MOL0     C 1023   9.060   3.748   0.572  1.5386 -0.5895  0.4185
  766MOL0    Cl 1024   8.988   3.913   0.526  0.1134  0.0808  0.1662
  766MOL0     C 1025   9.918   3.905   0.687 -0.9563 -0.3838 -0.2102
  766MOL0     C 1026  10.046   3.930   0.641  0.5206  1.0532  1.9904
  766MOL0     O 1027  10.340   4.175   0.749  0.4560  0.2092  0.3880
  766MOL0     C 1028  10.623   4.120   0.736  0.0104  0.4020  0.0637
  766MOL0     C 1029  10.760   4.091   0.725 -0.2710 -0.0301  0.0540
  766MOL0     N 1030  11.381   4.192   0.463 -1.2560  0.0366 -0.1174
  766MOL0     N 1031  11.480   4.219   0.544  0.5419  0.4079 -0.5873
  766MOL0     C 1032  10.654   3.935   1.045  0.3147  0.1535  0.4081
  766MOL0     C 1033  10.536   3.868   1.056  0.1021 -0.0196  0.0008
  766MOL0     C 1034  10.154   3.751   1.285 -0.6442 -0.6871  0.3502
  766MOL0     C 1035  10.026   3.797   1.273  0.6679 -0.3005 -0.4671
  766MOL0     C 1036   9.923   3.730   1.337  0.5010  0.1482  0.5835
  766MOL0     C 1037   9.947   3.591   1.387  1.4649 -0.3964 -0.1564
  766MOL0     O 1038   9.841   3.515   1.441 -0.2265 -0.3856  0.2485
  766MOL0     C 1039   9.869   3.381   1.492 -0.1624  0.0321 -0.3675
  766MOL0     C 1040   9.748   3.325   1.568  0.7887  0.4897 -0.8781
  766MOL0     C 1041   9.692   3.429   1.664  0.5197  1.1149 -0.3315
  766MOL0     C 1042   9.566   3.376   1.738  0.4647 -0.3747  0.0084
  766MOL0     C 1043   9.580   3.245   1.808  0.1470 -0.3040 -0.6049
  766MOL0     C 1044   9.590   3.146   1.877 -0.5759  0.2865 -0.9154
  766MOL0     C 1045  10.075   3.543   1.379  0.4667 -0.4826  0.3379
  766MOL0     C 1046  10.175   3.626   1.340 -0.3838  0.6294  0.0771
  766MOL0     H 1047  10.577   3.752   1.371 -1.3359 -1.5337 -1.9090
  766MOL0     H 1048  10.806   3.865   1.328  2.1794  1.0405 -2.7088
  766MOL0     H 1049  10.848   4.155   0.980 -0.0263 -0.1954 -0.5972
  766MOL0     H 1050  10.933   4.008   0.929 -1.3765  0.2859 -0.2924
  766MOL0     H 1051  11.101   4.063   1.123 -0.9284 -0.8907 -0.9541
  766MOL0     H 1052  11.034   4.236   1.104 -0.9134  0.8024 -0.8248
  766MOL0     H 1053  11.105   4.238   0.877  0.7313 -0.5888  0.2472
  766MOL0     H 1054  11.157   4.074   0.881 -1.0593 -0.5532  0.1302
  766MOL0     H 1055  11.290   4.298   1.045 -0.7895  1.5237 -1.6841
  766MOL0     H 1056  11.304   4.131   1.096  1.9795  0.1231 -0.5483
  766MOL0     H 1057  11.499   4.212   0.977  1.2627  0.7174 -1.4738
  766MOL0     H 1058  11.398   4.246   0.831 -0.5993 -0.1941  0.6551
  766MOL0     H 1059  11.373   4.027   0.783 -0.7934  1.2732  0.1739
  766MOL0     H 1060  11.423   3.980   0.948 -3.4196  1.7635 -0.3233
  766MOL0     H 1061  11.661   4.047   0.889  0.5100  3.4517 -1.4743
  766MOL0     H 1062  11.617   3.907   0.787  4.6433  0.6779 -0.1301
  766MOL0     H 1063  11.722   4.036   0.635  1.6115 -0.0871  0.3537
  766MOL0     H 1064  11.672   4.189   0.716 -0.9265  1.4672 -2.8353
  766MOL0     H 1065  11.501   3.894   0.508 -0.6385 -1.1248 -0.5649
  766MOL0     H 1066  11.333   3.888   0.313 -0.6401  0.4410 -1.0472
  766MOL0     H 1067  11.272   4.045   0.252 -0.7198  0.7867  1.0308
  766MOL0     H 1068  11.092   3.894   0.339 -3.0647  0.1498  2.1089
  766MOL0     H 1069  11.098   4.058   0.393  1.5890  0.4871 -4.6230
  766MOL0     H 1070  11.212   3.833   0.570 -0.3341 -0.3349  0.7116
  766MOL0     H 1071  11.166   3.999   0.603  3.3914 -0.9508  0.6531
  766MOL0     H 1072  10.998   3.759   0.617 -0.1201  1.1727  1.6307
  766MOL0     H 1073  10.944   3.858   0.478  1.7899  0.5846 -0.8434
  766MOL0     H 1074  10.744   3.780   0.608  0.6074  1.5905 -1.3974
  766MOL0     H 1075  10.497   3.817   0.640 -1.5557  2.0209  0.2716
  766MOL0     H 1076  10.221   3.958   0.920 -1.8884 -0.5395  3.2907
  766MOL0     H 1077   9.995   3.932   1.021  0.1899  0.9099  0.0566
  766MOL0     H 1078   9.710   3.739   0.751  2.1235  0.7887  1.2304
  766MOL0     H 1079   9.637   3.902   0.745  4.4190  1.6522 -1.7531
  766MOL0     H 1080   9.559   3.848   0.992 -2.8155 -1.5451  0.4518
  766MOL0     H 1081   9.609   3.693   0.962  0.0418  1.0385  0.6566
  766MOL0     H 1082   9.433   3.739   0.732  1.4335  0.7310 -0.1158
  766MOL0     H 1083   9.372   3.850   0.847 -1.4238 -1.1383 -0.3517
  766MOL0     H 1084   9.411   3.552   0.879 -0.6020 -0.0171 -0.5012
  766MOL0     H 1085   9.376   3.636   1.019  1.5153  0.7548  0.4992
  766MOL0     H 1086   9.160   3.712   0.940 -0.8326  0.2363 -0.7702
  766MOL0     H 1087   9.192   3.532   0.940  0.9712 -0.2095  0.2165
  766MOL0     H 1088   9.070   3.558   0.756 -1.2994  2.2066 -1.9554
  766MOL0     H 1089   9.231   3.563   0.682  1.0444 -1.3629  1.3584
  766MOL0     H 1090   9.063   3.806   0.779  0.6507 -0.0366  0.0094
  766MOL0     H 1091   9.213   3.814   0.691 -1.8536  2.1532 -0.2106
  766MOL0     H 1092   8.964   3.696   0.574 -0.9586  3.4978 -0.3591
  766MOL0     H 1093   9.125   3.708   0.494  1.1900 -0.4454  0.0463
  766MOL0     H 1094   9.835   3.880   0.623 -0.3414 -2.3736 -0.3176
  766MOL0     H 1095  10.066   3.916   0.535 -0.8120  2.1121  1.5610
  766MOL0     H 1096  10.580   4.213   0.774 -5.2167 -0.7161 -2.2319
  766MOL0     H 1097  10.832   4.172   0.729 -0.4481  0.1076  0.4418
  766MOL0     H 1098  10.664   3.976   0.945  1.7355  3.9688  1.9755
  766MOL0     H 1099  10.463   3.873   0.975 -2.7324 -0.0306  2.3860
  766MOL0     H 1100  10.015   3.891   1.219  1.6210 -0.6877 -1.3658
  766MOL0     H 1101   9.818   3.757   1.334 -0.0031 -1.5455  1.5726
  766MOL0     H 1102   9.961   3.384   1.552 -0.3900 -2.7914  0.2424
  766MOL0     H 1103   9.894   3.315   1.408 -1.8994 -2.9883  1.3352
  766MOL0     H 1104   9.664   3.308   1.500 -0.9692 -1.9554  1.6631
  766MOL0     H 1105   9.780   3.237   1.624  0.6826 -0.2261 -1.9176
  766MOL0     H 1106   9.663   3.519   1.609  2.3676  1.5611 -0.6439
  766MOL0     H 1107   9.761   3.460   1.743  1.3569  0.8605 -0.9438
  766MOL0     H 1108   9.542   3.446   1.818 -0.1708 -0.0563 -0.4523
  766MOL0     H 1109   9.484   3.376   1.665 -0.0807 -1.5338  0.5790
  766MOL0     H 1110   9.603   3.073   1.954 -3.6542 -0.5026 -1.0239
  766MOL0     H 1111  10.091   3.436   1.388 -0.0297 -0.8162 -2.1399
  766MOL0     H 1112  10.276   3.586   1.340 -0.5678 -0.1132 -3.4419
  767MOL0     O 1113  10.420   7.381  11.305 -0.5425  0.5541 -0.3863
  767MOL0     C 1114  10.396   7.482  11.237  0.3581 -0.1763  0.0778
  767MOL0     O 1115  10.274   7.560  11.236 -0.2764  0.0295 -0.2843
  767MOL0     C 1116  10.154   7.529  11.289  0.6281  0.6822 -0.5118
  767MOL0     C 1117  10.036   7.612  11.268 -0.0898 -0.3694  0.5582
  767MOL0     C 1118   9.900   7.582  11.318  0.7667  0.3112  0.6133
  767MOL0     C 1119   9.874   7.462  11.383  0.3142 -0.3310 -0.2456
  767MOL0     O 1120   9.739   7.440  11.410  0.3406  0.2838 -0.0168
  767MOL0     C 1121   9.717   7.296  11.436 -0.1330  0.0462  0.3164
  767MOL0     C 1122   9.571   7.276  11.487  0.1452  0.8453  0.7130
  767MOL0     C 1123   9.522   7.132  11.481  0.1809 -0.3095 -0.4734
  767MOL0     C 1124   9.397   7.126  11.572 -0.5945  0.4185 -0.2794
  767MOL0     C 1125   9.311   6.996  11.563 -0.7371 -0.5521 -0.6995
  767MOL0     C 1126   9.251   6.984  11.423  0.5643  0.2397  0.4773
  767MOL0     C 1127   9.118   6.896  11.426 -0.4688  0.9899  0.1729
  767MOL0     C 1128   9.157   6.756  11.472 -0.2023  0.3465  0.4660
  767MOL0     N 1129   9.039   6.673  11.473  0.2845 -0.1101  0.0072
  767MOL0     C 1130   9.045   6.531  11.447  0.0689  0.2310  0.1649
  767MOL0     C 1131   8.919   6.492  11.480  0.6373 -0.4094 -0.7478
  767MOL0     C 1132   8.872   6.348  11.469 -0.5330 -0.3450  0.5492
  767MOL0     C 1133   8.969   6.237  11.502  0.7009  0.0695 -0.8881
  767MOL0     C 1134   9.006   6.249  11.653 -0.0797  0.0885  0.3885
  767MOL0     C 1135   9.104   6.142  11.689 -0.0885  0.5470  0.3452
  767MOL0     O 1136   9.147   6.186  11.815 -0.3502 -0.2939 -0.1009
  767MOL0     C 1137   9.265   6.146  11.869  0.4064  0.0140  0.3714
  767MOL0     C 1138   9.333   6.029  11.830 -0.4207 -1.0016 -0.6634
  767MOL0     C 1139   9.454   6.000  11.889 -0.1841  0.5049 -0.3495
  767MOL0     C 1140   9.507   6.079  11.990 -0.9371 -0.1516  0.0792
  767MOL0     C 1141   9.647   6.055  12.042  0.1844 -0.1678 -0.2150
  767MOL0     O 1142   9.708   5.947  11.986  0.1396  0.5605 -0.1956
  767MOL0     C 1143   9.813   5.897  12.058 -0.3218  0.5006  0.5150
  767MOL0     C 1144   9.921   5.971  12.105 -0.2398 -0.4800 -0.8238
  767MOL0     C 1145  10.034   5.912  12.165  0.0255  0.0963  1.0189
  767MOL0     C 1146  10.038   5.770  12.188 -0.4044  0.0565  0.4486
  767MOL0     O 1147  10.154   5.700  12.224  1.2196  0.3511  0.2462
  767MOL0     C 1148  10.236   5.745  12.329 -0.1957  0.3250  0.3729
  767MOL0     C 1149  10.380   5.695  12.357  0.1676 -0.1043  0.9669
  767MOL0     C 1150  10.461   5.708  12.225  0.6031 -0.0553  0.0248
  767MOL0     C 1151  10.609   5.677  12.250  0.6276 -0.5661 -0.4656
  767MOL0     C 1152  10.685   5.672  12.115 -0.1954  0.0505  0.1640
  767MOL0     C 1153  10.839   5.653  12.110  0.7628  0.2020 -0.6919
  767MOL0     C 1154  10.882   5.602  12.252 -0.1119  0.3624 -0.3931
  767MOL0     C 1155  11.030   5.610  12.277 -0.8726  0.1657  0.2347
  767MOL0    Cl 1156  11.062   5.779  12.297  0.0181 -0.1554  0.2429
  767MOL0     C 1157   9.934   5.701  12.137 -0.4154  0.3418 -0.2454
  767MOL0     C 1158   9.826   5.756  12.065 -0.0396 -0.2513  0.2919
  767MOL0     O 1159   9.693   6.127  12.132  0.0207 -0.1961 -0.0047
  767MOL0     C 1160   9.438   6.198  12.030  0.1184  0.2404  0.3889
  767MOL0     C 1161   9.313   6.227  11.967  0.2385  0.2942  0.5342
  767MOL0     N 1162   8.850   6.606  11.519  0.7304  0.1839 -1.0575
  767MOL0     N 1163   8.915   6.715  11.512 -0.1190 -0.1808  0.4532
  767MOL0     C 1164   9.989   7.375  11.408 -0.4880  0.2700  0.1197
  767MOL0     C 1165  10.123   7.420  11.368 -0.5313  0.2573  0.2758
  767MOL0     C 1166  10.514   7.533  11.164  0.7847  0.1379 -0.3979
  767MOL0     C 1167  10.502   7.667  11.111  1.2604  0.1403 -0.2188
  767MOL0     C 1168  10.617   7.730  11.055 -0.2841 -0.0762 -1.1407
  767MOL0     C 1169  10.732   7.652  11.033 -0.2197  0.7183 -0.0589
  767MOL0     O 1170  10.847   7.695  10.979  0.1218 -0.3741  0.2179
  767MOL0     C 1171  10.839   7.819  10.897  0.3194 -1.1511  1.4784
  767MOL0     C 1172  10.973   7.823  10.824  0.2369 -0.0125 -0.1688
  767MOL0     C 1173  10.987   7.705  10.726  0.1572  0.0456  0.6986
  767MOL0     C 1174  11.139   7.677  10.687  0.9577  0.4259 -0.5159
  767MOL0     C 1175  11.192   7.793  10.618 -0.1194  0.4172  1.2024
  767MOL0     C 1176  11.234   7.896  10.566  0.4474  0.6951 -0.2337
  767MOL0     C 1177  10.741   7.524  11.083  0.1081 -0.4735 -0.3263
  767MOL0     C 1178  10.629   7.463  11.150  0.1183  0.7212  0.2409
  767MOL0     H 1179  10.056   7.702  11.210 -3.6000 -1.0368 -1.9862
  767MOL0     H 1180   9.817   7.643  11.287  1.2927  2.4652  3.0855
  767MOL0     H 1181   9.788   7.255  11.509  1.0212  0.9086 -0.2862
  767MOL0     H 1182   9.728   7.237  11.345 -0.7949  1.0838 -0.4523
  767MOL0     H 1183   9.500   7.339  11.433  0.5476 -0.0471 -0.9208
  767MOL0     H 1184   9.559   7.313  11.590  1.9725 -0.5407  1.4853
  767MOL0     H 1185   9.596   7.060  11.518  0.8661 -0.1641 -1.5237
  767MOL0     H 1186   9.494   7.112  11.378 -1.3261  2.6579 -0.7520
  767MOL0     H 1187   9.421   7.146  11.677  0.3061  1.8546 -0.7222
  767MOL0     H 1188   9.327   7.206  11.546  0.4729  2.4108  2.5286
  767MOL0     H 1189   9.230   6.985  11.635 -1.3062  1.1664 -1.0389
  767MOL0     H 1190   9.376   6.910  11.584 -1.1542 -1.2150 -2.0222
  767MOL0     H 1191   9.325   6.942  11.355  4.5833  1.9786  3.4214
  767MOL0     H 1192   9.229   7.080  11.376 -2.0948 -1.4337 -2.0315
  767MOL0     H 1193   9.039   6.933  11.492 -0.6458  4.5981 -1.7858
  767MOL0     H 1194   9.073   6.889  11.326 -2.4924  2.0394  0.9487
  767MOL0     H 1195   9.213   6.753  11.566  1.1609  2.3444 -0.2182
  767MOL0     H 1196   9.228   6.712  11.401  0.3676 -0.8534  1.7289
  767MOL0     H 1197   9.133   6.482  11.406  0.8147  0.1573  1.7835
  767MOL0     H 1198   8.818   6.345  11.374 -4.7214  2.4800  2.5545
  767MOL0     H 1199   8.795   6.345  11.546  0.8487 -1.2530  1.9346
  767MOL0     H 1200   9.056   6.240  11.436  0.3289 -0.0970 -1.3927
  767MOL0     H 1201   8.915   6.143  11.484  0.8187 -0.7622  2.3807
  767MOL0     H 1202   9.049   6.349  11.663  1.7890 -0.6419  0.2023
  767MOL0     H 1203   8.928   6.244  11.729  0.4903 -2.9298  0.9347
  767MOL0     H 1204   9.188   6.132  11.620  1.5601  3.2080  1.7948
  767MOL0     H 1205   9.051   6.047  11.700 -1.2759  1.2887  1.2724
  767MOL0     H 1206   9.302   5.961  11.751  2.1289  0.1717 -2.8446
  767MOL0     H 1207   9.506   5.909  11.860 -0.1986 -0.5742  2.7172
  767MOL0     H 1208   9.927   6.078  12.090  1.9294 -0.5318 -0.7623
  767MOL0     H 1209  10.124   5.973  12.174 -0.3827  1.0260 -0.9034
  767MOL0     H 1210  10.192   5.707  12.422 -0.1327 -2.7936 -0.7824
  767MOL0     H 1211  10.242   5.854  12.316 -0.4584 -0.0551 -4.6418
  767MOL0     H 1212  10.375   5.593  12.396  0.4680 -1.8158 -2.9302
  767MOL0     H 1213  10.421   5.759  12.435 -3.3026 -0.5961  3.4113
  767MOL0     H 1214  10.456   5.807  12.179 -1.8665  0.1201  0.4972
  767MOL0     H 1215  10.418   5.635  12.155 -0.2823  0.4747 -0.0080
  767MOL0     H 1216  10.643   5.752  12.322 -1.3046 -0.5875  0.5406
  767MOL0     H 1217  10.629   5.584  12.303  1.9300  0.7726  1.5715
  767MOL0     H 1218  10.670   5.770  12.069  0.0222 -0.3554 -0.7975
  767MOL0     H 1219  10.649   5.602  12.039  3.7668 -2.7771  0.5971
  767MOL0     H 1220  10.897   5.744  12.095  2.3808 -0.8785 -1.2889
  767MOL0     H 1221  10.874   5.580  12.036 -0.4954 -0.0651 -1.0415
  767MOL0     H 1222  10.831   5.654  12.334 -0.1528  0.9906 -0.8120
  767MOL0     H 1223  10.858   5.496  12.268  1.7343 -0.4489 -2.4996
  767MOL0     H 1224  11.090   5.580  12.190  0.2628  3.7411 -0.3752
  767MOL0     H 1225  11.052   5.561  12.372 -0.9026  0.6046  0.4682
  767MOL0     H 1226   9.927   5.594  12.150 -1.5411  0.1208 -2.3835
  767MOL0     H 1227   9.742   5.705  12.021  0.9437  0.8574 -3.1723
  767MOL0     H 1228   9.477   6.261  12.110 -2.2905  3.2230 -0.6042
  767MOL0     H 1229   9.248   6.307  12.000  1.6134  0.9423  1.8255
  767MOL0     H 1230   9.991   7.278  11.458  2.2578  1.2039  2.0728
  767MOL0     H 1231  10.198   7.343  11.382 -2.2649 -1.8384 -1.2387
  767MOL0     H 1232  10.410   7.724  11.125  1.1890 -0.0678  0.1767
  767MOL0     H 1233  10.622   7.833  11.021  1.5430 -0.7146 -3.0355
  767MOL0     H 1234  10.828   7.911  10.956  2.4891  0.9693 -1.1719
  767MOL0     H 1235  10.763   7.803  10.820  0.6798 -1.3833  1.1717
  767MOL0     H 1236  11.001   7.919  10.778 -0.1220  1.9426  3.3862
  767MOL0     H 1237  11.047   7.822  10.905 -0.1376  0.6719  0.1891
  767MOL0     H 1238  10.916   7.712  10.643  0.4188 -1.8602  0.2672
  767MOL0     H 1239  10.959   7.613  10.778 -0.6302  0.6166  1.3143
  767MOL0     H 1240  11.196   7.641  10.772 -1.6026 -3.7862 -0.2726
  767MOL0     H 1241  11.128   7.583  10.632 -0.7963 -0.3444  1.0645
  767MOL0     H 1242  11.273   7.993  10.545 -0.1083  1.1199  0.6243
  767MOL0     H 1243  10.830   7.464  11.068  2.2746  2.4350  0.2199
  767MOL0     H 1244  10.640   7.369  11.204  0.7351  1.4271  1.3842
  768MOL0     O 1245   1.064   0.759   4.204 -0.1408 -0.0770  0.0779
  768MOL0     C 1246   0.979   0.702   4.275  0.4570 -0.1763  1.2431
  768MOL0     O 1247   0.849   0.707   4.259  0.7110  1.0813  0.8802
  768MOL0     C 1248   0.798   0.768   4.152 -0.7137 -0.4674  0.7382
  768MOL0     C 1249   0.820   0.708   4.022  0.5273  0.6412 -0.5625
  768MOL0     C 1250   0.755   0.764   3.918  0.6493 -0.4315  1.3622
  768MOL0     C 1251   0.665   0.870   3.930  1.2300 -0.2832 -0.2318
  768MOL0     O 1252   0.582   0.918   3.832  0.1710 -0.2095 -0.2727
  768MOL0     C 1253   0.523   0.825   3.738  0.3078  0.1123 -0.4109
  768MOL0     C 1254   0.420   0.922   3.682  0.0493  0.1824 -0.6684
  768MOL0     C 1255   0.334   0.863   3.569 -0.0848 -0.6591 -0.1866
  768MOL0     C 1256   0.251   0.975   3.514 -0.0346  0.0459  1.1734
  768MOL0     C 1257   0.212   0.932   3.371 -0.1083  0.3371  0.6718
  768MOL0     C 1258   0.112   0.808   3.368 -1.2929  0.5314  0.1111
  768MOL0     C 1259   0.021   0.797   3.244 -0.3108  0.4393  0.0991
  768MOL0     C 1260  -0.086   0.909   3.250 -0.0723 -0.4739  0.0693
  768MOL0     N 1261  -0.191   0.882   3.354  0.7483 -0.1133  0.0103
  768MOL0     C 1262  -0.236   0.760   3.392 -0.4097  0.5647 -0.0973
  768MOL0     C 1263  -0.332   0.793   3.486 -0.6354 -0.4379 -0.5434
  768MOL0     C 1264  -0.423   0.699   3.556 -0.1194  0.3612 -0.8111
  768MOL0     C 1265  -0.518   0.631   3.454 -0.3011  0.6367 -0.8165
  768MOL0     C 1266  -0.585   0.499   3.502 -0.1192  0.3487  0.0005
  768MOL0     C 1267  -0.679   0.436   3.394 -0.0605 -0.2842  0.8251
  768MOL0     O 1268  -0.781   0.536   3.367  0.5777 -0.9822  0.0541
  768MOL0     C 1269  -0.913   0.498   3.408  0.7377  0.2767  0.2494
  768MOL0     C 1270  -0.976   0.377   3.361  0.0632 -0.3415  0.0858
  768MOL0     C 1271  -1.107   0.351   3.384  0.1418  0.2274  0.4203
  768MOL0     C 1272  -1.180   0.433   3.473  0.3530 -1.1158 -0.8757
  768MOL0     C 1273  -1.311   0.389   3.515 -0.4381 -0.4847 -0.1142
  768MOL0     O 1274  -1.378   0.483   3.591 -0.3053  0.3608 -0.9168
  768MOL0     C 1275  -1.495   0.446   3.649 -0.8505  0.8923  0.1154
  768MOL0     C 1276  -1.600   0.387   3.585  0.0432 -0.0064  0.2675
  768MOL0     C 1277  -1.717   0.340   3.655 -0.4571  0.1771 -0.1287
  768MOL0     C 1278  -1.723   0.364   3.791  0.0368  0.1779 -0.1461
  768MOL0     O 1279  -1.830   0.323   3.871  0.3408  0.8669  0.0019
  768MOL0     C 1280  -1.860   0.183   3.864  0.5952  0.6688 -0.8895
  768MOL0     C 1281  -1.784   0.114   3.979  0.4803  0.4612 -1.7770
  768MOL0     C 1282  -1.820   0.162   4.123 -0.0442  0.1410 -1.2241
  768MOL0     C 1283  -1.751   0.065   4.225  0.1954  0.3541 -0.5390
  768MOL0     C 1284  -1.813   0.084   4.365  0.7352  0.5170 -0.2715
  768MOL0     C 1285  -1.731  -0.000   4.473  0.2898 -0.0039  0.4098
  768MOL0     C 1286  -1.793  -0.019   4.612 -0.8914  0.4131  0.1754
  768MOL0     C 1287  -1.760   0.111   4.694  0.6574  0.4870 -0.6175
  768MOL0    Cl 1288  -1.824   0.103   4.868 -0.2571  0.1773  0.4149
  768MOL0     C 1289  -1.618   0.430   3.854  0.4964 -0.5983  0.1426
  768MOL0     C 1290  -1.501   0.465   3.776 -0.4929 -0.2002  0.2051
  768MOL0     O 1291  -1.357   0.284   3.476 -0.4028  0.2968 -0.2973
  768MOL0     C 1292  -1.118   0.540   3.532  0.1094  0.2667  0.8752
  768MOL0     C 1293  -0.989   0.574   3.498 -0.4045  0.3836  0.4284
  768MOL0     N 1294  -0.337   0.930   3.502 -0.1494  0.4171 -0.1338
  768MOL0     N 1295  -0.255   0.974   3.418  0.4821 -0.7694  0.3115
  768MOL0     C 1296   0.662   0.936   4.051 -0.3936 -0.2184 -0.8046
  768MOL0     C 1297   0.718   0.884   4.167 -0.3623  0.0270 -0.3706
  768MOL0     C 1298   1.030   0.613   4.381  0.3679 -0.1062  0.8229
  768MOL0     C 1299   0.952   0.569   4.500 -0.3339  0.3448  0.6588
  768MOL0     C 1300   1.004   0.469   4.582 -0.1116 -0.5813  0.3317
  768MOL0     C 1301   1.126   0.404   4.553 -1.0791 -0.4616 -0.6871
  768MOL0     O 1302   1.162   0.294   4.629 -0.4394  0.7694  0.2914
  768MOL0     C 1303   1.182   0.170   4.550  0.3257  0.6206 -0.6787
  768MOL0     C 1304   1.052   0.090   4.514 -0.1525 -0.0944  0.6723
  768MOL0     C 1305   1.083  -0.052   4.457 -0.3049  0.4572  0.2064
  768MOL0     C 1306   1.187  -0.077   4.335  0.5620  0.5216 -0.4822
  768MOL0     C 1307   1.330  -0.067   4.369  0.1089 -0.9252  1.2912
  768MOL0     C 1308   1.444  -0.043   4.394  0.6837  0.3926 -1.3570
  768MOL0     C 1309   1.205   0.447   4.452 -0.0005 -0.8987  0.2539
  768MOL0     C 1310   1.158   0.556   4.373 -0.2448  0.0647 -1.1725
  768MOL0     H 1311   0.871   0.613   4.009 -2.7838 -1.4056  0.3444
  768MOL0     H 1312   0.771   0.701   3.830 -1.1765  0.3783  0.3824
  768MOL0     H 1313   0.476   0.740   3.788  1.4171 -0.2813  0.0004
  768MOL0     H 1314   0.604   0.789   3.673  0.1394 -0.9318 -0.0646
  768MOL0     H 1315   0.473   1.013   3.652  4.8530 -1.6231  1.3289
  768MOL0     H 1316   0.347   0.950   3.758 -0.9538  1.8212 -2.1326
  768MOL0     H 1317   0.283   0.769   3.594  1.3811 -1.2481  0.7152
  768MOL0     H 1318   0.410   0.834   3.496  1.5998  0.7223  0.9390
  768MOL0     H 1319   0.156   0.981   3.568 -0.1377 -3.4544  1.5852
  768MOL0     H 1320   0.314   1.064   3.506 -0.7813  0.4679 -0.9030
  768MOL0     H 1321   0.299   0.910   3.308  0.8979  2.0064  1.4078
  768MOL0     H 1322   0.156   1.017   3.329 -2.1305  0.4864  3.4224
  768MOL0     H 1323   0.040   0.809   3.451 -2.2195 -2.3633 -0.5482
  768MOL0     H 1324   0.167   0.715   3.381 -1.2037  0.7530  1.4423
  768MOL0     H 1325   0.084   0.804   3.155  0.5480 -1.0079  0.5500
  768MOL0     H 1326  -0.035   0.703   3.239  0.7881 -0.4437  2.4573
  768MOL0     H 1327  -0.136   0.896   3.153  1.3138  2.0237 -1.0736
  768MOL0     H 1328  -0.045   1.011   3.252  0.5798 -0.6724  3.5775
  768MOL0     H 1329  -0.215   0.663   3.347  0.7769  0.6508  0.2369
  768MOL0     H 1330  -0.486   0.750   3.629  1.1738 -0.8373  1.2458
  768MOL0     H 1331  -0.370   0.633   3.625 -3.4567 -1.1508  0.4836
  768MOL0     H 1332  -0.454   0.587   3.376 -1.8545 -1.7827 -0.8349
  768MOL0     H 1333  -0.588   0.698   3.403  1.5870  1.7713 -2.0390
  768MOL0     H 1334  -0.516   0.418   3.527  0.0278  0.5407  0.2245
  768MOL0     H 1335  -0.639   0.539   3.588  0.1429  1.8841 -0.5055
  768MOL0     H 1336  -0.704   0.337   3.433 -0.6781 -0.0995  0.9159
  768MOL0     H 1337  -0.618   0.412   3.307  2.8284 -1.1854  2.9390
  768MOL0     H 1338  -0.922   0.322   3.284 -0.8668 -1.0474 -0.0899
  768MOL0     H 1339  -1.145   0.264   3.331  2.0907 -0.3396 -0.1525
  768MOL0     H 1340  -1.583   0.367   3.480  1.4804  1.2427  0.2280
  768MOL0     H 1341  -1.795   0.296   3.594 -3.9474  2.4293  2.3826
  768MOL0     H 1342  -1.844   0.131   3.769 -2.3513 -3.6671  0.6740
  768MOL0     H 1343  -1.964   0.165   3.893  0.3376  1.0929 -1.5207
  768MOL0     H 1344  -1.678   0.125   3.954  0.1721  1.6962 -2.6189
  768MOL0     H 1345  -1.814   0.009   3.980  0.5536  0.3860  1.2723
  768MOL0     H 1346  -1.927   0.161   4.147  0.9481 -0.8050  5.0843
  768MOL0     H 1347  -1.775   0.262   4.130  1.9000 -0.6490 -1.6846
  768MOL0     H 1348  -1.770  -0.041   4.206  1.6255 -0.4435  1.9672
  768MOL0     H 1349  -1.642   0.070   4.235 -0.0344  3.0677  2.1742
  768MOL0     H 1350  -1.911   0.035   4.366  1.6901 -1.5949  2.1288
  768MOL0     H 1351  -1.823   0.190   4.389 -3.9332 -0.0247  1.2058
  768MOL0     H 1352  -1.635   0.052   4.481 -0.2469  0.8487  1.4381
  768MOL0     H 1353  -1.707  -0.097   4.427  0.8784  0.0371  0.6203
  768MOL0     H 1354  -1.899  -0.047   4.613 -1.0260  0.9027  1.0227
  768MOL0     H 1355  -1.745  -0.107   4.654 -1.4256  0.3833  0.7394
  768MOL0     H 1356  -1.803   0.198   4.645 -2.5184 -0.4391  0.3044
  768MOL0     H 1357  -1.652   0.127   4.708  0.5908  0.9206 -0.6053
  768MOL0     H 1358  -1.635   0.445   3.960 -1.5569  1.7616 -0.4396
  768MOL0     H 1359  -1.404   0.489   3.819 -0.0466  1.4692 -1.5516
  768MOL0     H 1360  -1.172   0.600   3.603 -0.8682 -0.8024  1.0622
  768MOL0     H 1361  -0.940   0.666   3.531 -1.7260  0.8161  1.2626
  768MOL0     H 1362   0.591   1.014   4.074  1.7775  1.0892  2.1088
  768MOL0     H 1363   0.690   0.937   4.258  0.2261 -1.7928  0.9223
  768MOL0     H 1364   0.853   0.602   4.528 -0.5418 -1.8038  2.7267
  768MOL0     H 1365   0.945   0.435   4.666 -0.8627 -1.1672 -0.4134
  768MOL0     H 1366   1.257   0.111   4.604 -1.8227  0.0209  1.8171
  768MOL0     H 1367   1.232   0.192   4.455 -1.3319 -2.1390 -2.2971
  768MOL0     H 1368   0.996   0.081   4.608  1.1978  1.1606  1.6448
  768MOL0     H 1369   0.987   0.142   4.443  1.3942 -0.3413 -1.0031
  768MOL0     H 1370   0.989  -0.104   4.438 -0.0416 -0.1869  0.6203
  768MOL0     H 1371   1.118  -0.114   4.541  0.2405  0.0814 -0.2875
  768MOL0     H 1372   1.162  -0.178   4.301 -3.7240  1.4539 -0.6488
  768MOL0     H 1373   1.174  -0.019   4.243 -0.1164 -0.4356 -1.0154
  768MOL0     H 1374   1.545  -0.037   4.428 -0.3247 -1.9714  2.7124
  768MOL0     H 1375   1.301   0.409   4.418  0.2268  2.9014 -4.4373
  768MOL0     H 1376   1.232   0.586   4.300  0.2873  2.0728  0.0990
  769MOL0     O 1377   8.186   6.799   7.933 -0.0522 -0.4673 -0.4405
  769MOL0     C 1378   8.230   6.700   7.995  0.5416 -0.5381  1.1348
  769MOL0     O 1379   8.157   6.588   8.012  0.3121  0.3310  0.0644
  769MOL0     C 1380   8.025   6.596   7.984  0.2980 -0.5644  0.4173
  769MOL0     C 1381   7.972   6.599   7.851  0.6367 -0.1647  0.2412
  769MOL0     C 1382   7.839   6.612   7.835 -0.1247  0.9598 -0.1645
  769MOL0     C 1383   7.759   6.640   7.943  0.6622  0.6330 -0.4295
  769MOL0     O 1384   7.622   6.656   7.918 -0.2476 -0.5816  0.1484
  769MOL0     C 1385   7.572   6.698   7.789 -0.0245  0.1284 -0.7001
  769MOL0     C 1386   7.438   6.766   7.801 -0.1905  0.1826  0.0618
  769MOL0     C 1387   7.374   6.802   7.674  0.9571  0.5742 -0.5430
  769MOL0     C 1388   7.248   6.884   7.687 -0.7434  0.0258 -0.4860
  769MOL0     C 1389   7.208   6.945   7.552  0.8903  0.1030 -0.0402
  769MOL0     C 1390   7.080   7.021   7.559  0.9704 -0.0535 -0.5997
  769MOL0     C 1391   7.022   7.072   7.426  0.5136 -0.5448  0.0486
  769MOL0     C 1392   6.871   7.127   7.434  0.3216 -0.7642  0.4540
  769MOL0     N 1393   6.863   7.257   7.497 -0.1009  0.4508 -0.2121
  769MOL0     C 1394   6.870   7.373   7.430 -0.5693  0.8623 -0.1189
  769MOL0     C 1395   6.836   7.466   7.514  0.9381  0.5811 -0.7287
  769MOL0     C 1396   6.814   7.605   7.459  0.1972  0.4174 -0.5245
  769MOL0     C 1397   6.876   7.702   7.557  0.1472 -0.6198 -0.4144
  769MOL0     C 1398   6.876   7.849   7.510 -0.2220  0.3549  0.1211
  769MOL0     C 1399   6.759   7.925   7.576  0.1479  0.1038  0.2301
  769MOL0     O 1400   6.634   7.861   7.578 -0.0070  0.1825 -0.3462
  769MOL0     C 1401   6.537   7.906   7.665  0.5457 -1.1210 -0.7863
  769MOL0     C 1402   6.464   8.013   7.619  0.1940  0.7186  0.2502
  769MOL0     C 1403   6.352   8.056   7.687  0.5231 -0.4631  0.4550
  769MOL0     C 1404   6.324   8.010   7.817 -0.5765  0.2027  1.1075
  769MOL0     C 1405   6.222   8.075   7.898  0.4786 -0.4701  0.4132
  769MOL0     O 1406   6.134   8.157   7.830 -0.6218 -0.4449  0.1148
  769MOL0     C 1407   6.020   8.195   7.889 -0.0853 -0.8124 -0.5769
  769MOL0     C 1408   5.901   8.184   7.819 -0.3713  0.0856 -0.7477
  769MOL0     C 1409   5.777   8.229   7.885  0.2917  0.5626  0.0785
  769MOL0     C 1410   5.769   8.283   8.013  0.0572 -0.3894 -0.2152
  769MOL0     O 1411   5.661   8.300   8.099  0.0181  0.6393  0.2577
  769MOL0     C 1412   5.536   8.326   8.037  0.1855  0.2563 -0.1163
  769MOL0     C 1413   5.441   8.319   8.151 -0.2074 -0.2099 -0.4841
  769MOL0     C 1414   5.299   8.339   8.111  0.2409 -0.1511 -0.1852
  769MOL0     C 1415   5.282   8.454   8.010  0.4577  0.6126  0.1850
  769MOL0     C 1416   5.153   8.521   8.008 -0.1471  0.5264  0.1367
  769MOL0     C 1417   5.053   8.435   7.931  0.5976  0.8977 -0.4058
  769MOL0     C 1418   4.912   8.497   7.935 -0.8969  0.1046  0.1536
  769MOL0     C 1419   4.810   8.403   7.879 -0.6160  0.1437  0.9081
  769MOL0    Cl 1420   4.798   8.252   7.968  0.3985  0.2604 -0.3016
  769MOL0     C 1421   5.899   8.309   8.074  0.3055  0.6311 -0.3820
  769MOL0     C 1422   6.019   8.258   8.015 -0.1333 -0.9572 -0.0439
  769MOL0     O 1423   6.206   8.035   8.014 -0.0211 -0.7630  0.5078
  769MOL0     C 1424   6.405   7.906   7.860  1.2579 -0.2225 -0.6706
  769MOL0     C 1425   6.506   7.853   7.787 -0.9525 -0.0506 -0.7601
  769MOL0     N 1426   6.803   7.416   7.641  0.3057 -0.8513  0.0586
  769MOL0     N 1427   6.828   7.287   7.629 -0.5977 -0.8583 -0.1713
  769MOL0     C 1428   7.807   6.650   8.073 -0.5979  0.1218  0.6240
  769MOL0     C 1429   7.945   6.629   8.092 -0.1266 -0.1299  0.1013
  769MOL0     C 1430   8.371   6.699   8.041  0.1047  1.0056  0.5203
  769MOL0     C 1431   8.439   6.819   8.052 -0.9524  0.2624  0.3327
  769MOL0     C 1432   8.578   6.817   8.098 -0.2283 -0.2556  0.7088
  769MOL0     C 1433   8.646   6.692   8.125 -0.7508  0.2471  0.9488
  769MOL0     O 1434   8.779   6.712   8.147  0.0956  0.0202  0.2612
  769MOL0     C 1435   8.853   6.589   8.134 -0.4046  0.2203  0.4610
  769MOL0     C 1436   8.841   6.509   8.264 -0.1666  0.0698 -0.0369
  769MOL0     C 1437   8.943   6.391   8.263 -0.2988 -0.5605  1.5634
  769MOL0     C 1438   8.907   6.312   8.388 -0.0522  0.5032  0.6067
  769MOL0     C 1439   8.930   6.167   8.365 -0.0533 -0.1819  0.9598
  769MOL0     C 1440   8.940   6.046   8.342 -0.1337 -0.4679  0.2987
  769MOL0     C 1441   8.578   6.568   8.106  0.0710  0.1067  0.2314
  769MOL0     C 1442   8.442   6.580   8.069 -0.3340  0.1570 -0.4107
  769MOL0     H 1443   8.039   6.581   7.767 -2.7719 -1.3724 -2.4885
  769MOL0     H 1444   7.793   6.601   7.737 -0.0042  0.2194 -0.1406
  769MOL0     H 1445   7.563   6.611   7.723  1.2195  1.0740 -2.1866
  769MOL0     H 1446   7.642   6.773   7.750 -0.9744  1.7412  0.5526
  769MOL0     H 1447   7.449   6.851   7.869  0.3669 -0.1531  0.3996
  769MOL0     H 1448   7.370   6.694   7.847 -0.6877  0.6282  0.0405
  769MOL0     H 1449   7.353   6.709   7.619  3.7234 -0.4792  0.0028
  769MOL0     H 1450   7.434   6.875   7.620 -0.1046  1.7862 -0.1256
  769MOL0     H 1451   7.173   6.824   7.739  1.0976 -2.0564 -0.0992
  769MOL0     H 1452   7.254   6.970   7.753 -0.1834 -0.8874  0.6882
  769MOL0     H 1453   7.210   6.860   7.484 -1.2913 -1.1230  1.2876
  769MOL0     H 1454   7.283   7.020   7.525  1.2383 -1.2930 -3.3696
  769MOL0     H 1455   7.081   7.099   7.635 -1.7115 -1.3222  0.8708
  769MOL0     H 1456   7.012   6.939   7.584  1.7893 -0.5479  0.0739
  769MOL0     H 1457   7.090   7.147   7.386  2.1208 -2.2220 -0.5102
  769MOL0     H 1458   7.028   6.991   7.352  2.2546  0.8008 -1.3719
  769MOL0     H 1459   6.800   7.054   7.474 -0.7894  0.2554  0.3988
  769MOL0     H 1460   6.840   7.146   7.330 -0.3718  1.8283  1.0530
  769MOL0     H 1461   6.903   7.386   7.327 -1.9523  0.5755 -0.6144
  769MOL0     H 1462   6.707   7.629   7.456 -1.1198 -4.3720 -0.0947
  769MOL0     H 1463   6.851   7.633   7.360  0.6022  2.4571  0.1605
  769MOL0     H 1464   6.981   7.675   7.568  0.6132  0.2075 -2.4214
  769MOL0     H 1465   6.825   7.699   7.654 -1.1690  1.2050 -0.9812
  769MOL0     H 1466   6.971   7.901   7.527  1.0987 -0.5225 -3.5499
  769MOL0     H 1467   6.856   7.852   7.403  0.2460  0.5563  0.0374
  769MOL0     H 1468   6.760   8.024   7.529  0.7423 -1.0418 -2.3692
  769MOL0     H 1469   6.786   7.941   7.681 -1.4205 -1.7170  0.9666
  769MOL0     H 1470   6.485   8.051   7.520 -2.2501  0.0758 -0.5864
  769MOL0     H 1471   6.291   8.139   7.654 -2.2855 -2.0645  1.2589
  769MOL0     H 1472   5.900   8.135   7.722  0.7917 -1.7448  0.1071
  769MOL0     H 1473   5.698   8.211   7.813  1.1188  0.3202 -0.7910
  769MOL0     H 1474   5.522   8.245   7.964 -0.3967 -1.3486  1.6883
  769MOL0     H 1475   5.534   8.425   7.991 -2.7368 -0.0028 -0.7577
  769MOL0     H 1476   5.469   8.397   8.223  0.5044 -0.1753 -0.7837
  769MOL0     H 1477   5.442   8.220   8.198  0.6991 -0.3516 -0.7884
  769MOL0     H 1478   5.236   8.361   8.198  2.2427  1.3804  0.9761
  769MOL0     H 1479   5.261   8.245   8.069  0.1709  0.2256 -0.9742
  769MOL0     H 1480   5.354   8.534   8.026  0.2575  0.4268  2.1644
  769MOL0     H 1481   5.313   8.421   7.910  3.6258 -0.5772  1.4477
  769MOL0     H 1482   5.167   8.617   7.957  0.1347  0.2748 -0.2558
  769MOL0     H 1483   5.118   8.539   8.111  0.6205 -0.9296  0.6801
  769MOL0     H 1484   5.051   8.336   7.977 -0.3511  0.1573 -1.9364
  769MOL0     H 1485   5.086   8.414   7.828 -0.5134  0.1803 -0.6257
  769MOL0     H 1486   4.871   8.516   8.035 -2.7124  1.2954 -0.7639
  769MOL0     H 1487   4.934   8.595   7.892  1.2761  1.0630  3.0931
  769MOL0     H 1488   4.863   8.373   7.788 -0.6991  0.7985  0.6374
  769MOL0     H 1489   4.710   8.449   7.873  0.1513  1.8247  0.2868
  769MOL0     H 1490   5.896   8.366   8.166  0.2718  0.1422 -0.0727
  769MOL0     H 1491   6.114   8.268   8.066 -0.9293 -2.2767  1.8033
  769MOL0     H 1492   6.372   7.850   7.947  3.5966  1.5042  1.4668
  769MOL0     H 1493   6.571   7.770   7.816 -0.3706  0.0550 -1.7369
  769MOL0     H 1494   7.739   6.675   8.154 -1.7944  0.7632 -0.5418
  769MOL0     H 1495   7.998   6.634   8.186 -1.7237 -1.6202  1.1447
  769MOL0     H 1496   8.388   6.912   8.029 -3.6132 -0.5119  2.6011
  769MOL0     H 1497   8.636   6.906   8.123 -3.6287  1.8685  1.7970
  769MOL0     H 1498   8.957   6.617   8.117  1.2608 -0.8821  6.4838
  769MOL0     H 1499   8.824   6.530   8.046  0.6789 -0.5980  0.6302
  769MOL0     H 1500   8.875   6.564   8.352 -2.6928 -2.8808  3.0687
  769MOL0     H 1501   8.735   6.504   8.290 -0.6278 -0.0426 -1.8265
  769MOL0     H 1502   9.044   6.430   8.248 -1.6911  1.9372 -3.1968
  769MOL0     H 1503   8.920   6.341   8.169 -0.0715 -0.5784  1.5176
  769MOL0     H 1504   8.971   6.343   8.471  0.5295  3.0982 -0.6921
  769MOL0     H 1505   8.803   6.328   8.418 -0.7172 -0.4580 -1.0631
  769MOL0     H 1506   8.936   5.939   8.334  1.0681 -0.4160 -1.5399
  769MOL0     H 1507   8.625   6.471   8.111  0.1727  0.1291 -0.2807
  769MOL0     H 1508   8.394   6.483   8.072  0.6101 -0.3009  0.3798
  770MOL0     O 1509   4.556   0.408   3.447 -0.3982  0.3755 -0.5618
  770MOL0     C 1510   4.668   0.380   3.401  0.4969  0.2292  0.7088
  770MOL0     O 1511   4.695   0.337   3.271 -0.2709  0.3706 -0.8577
  770MOL0     C 1512   4.602   0.291   3.175 -0.5963 -0.7255  0.3393
  770MOL0     C 1513   4.628   0.167   3.096 -0.5102 -0.3129  0.4780
  770MOL0     C 1514   4.530   0.123   3.006 -0.5928  0.3351  0.4449
  770MOL0     C 1515   4.397   0.173   3.018 -0.1265  0.1532  0.1410
  770MOL0     O 1516   4.306   0.107   2.948  0.5925 -0.0136  1.1348
  770MOL0     C 1517   4.234   0.010   3.034 -0.2832 -0.1498  0.2649
  770MOL0     C 1518   4.108  -0.054   2.970  1.2158  0.5340 -0.3385
  770MOL0     C 1519   4.019  -0.143   3.074 -0.2191  0.1456 -0.0076
  770MOL0     C 1520   3.897  -0.202   3.010 -0.0349  0.1835  0.1933
  770MOL0     C 1521   3.797  -0.093   2.962  0.6624 -0.6161 -0.2121
  770MOL0     C 1522   3.653  -0.126   2.985  0.4798  0.2396  0.1571
  770MOL0     C 1523   3.585  -0.232   2.893 -0.3476  1.1732 -0.0977
  770MOL0     C 1524   3.435  -0.232   2.925  0.5902 -0.5162  0.1793
  770MOL0     N 1525   3.381  -0.361   2.893 -0.4839  1.0918  0.5976
  770MOL0     C 1526   3.372  -0.471   2.977  0.0596 -0.0169 -0.0723
  770MOL0     C 1527   3.347  -0.573   2.891 -0.0861  0.2133  0.6209
  770MOL0     C 1528   3.296  -0.708   2.934  0.4740 -0.0995 -0.6153
  770MOL0     C 1529   3.378  -0.777   3.048  0.4420  0.4068 -0.1353
  770MOL0     C 1530   3.524  -0.826   3.026  0.6039 -0.4748  0.6348
  770MOL0     C 1531   3.594  -0.917   3.134 -0.1231 -0.0382 -0.2402
  770MOL0     O 1532   3.595  -0.835   3.257  0.8641  0.1927 -0.0192
  770MOL0     C 1533   3.698  -0.752   3.280 -0.1546  0.2002 -0.8198
  770MOL0     C 1534   3.672  -0.611   3.278  0.8278 -0.3139  0.7109
  770MOL0     C 1535   3.772  -0.524   3.317 -0.1099 -0.2839  1.1885
  770MOL0     C 1536   3.909  -0.563   3.333 -0.8744 -0.4990 -1.5399
  770MOL0     C 1537   4.025  -0.470   3.367 -0.3331  0.3275  0.1409
  770MOL0     O 1538   4.138  -0.540   3.413 -0.1531 -0.9795 -0.2375
  770MOL0     C 1539   4.228  -0.473   3.486 -0.5787 -0.0819 -0.6507
  770MOL0     C 1540   4.219  -0.368   3.573 -0.2712 -0.5255  0.0499
  770MOL0     C 1541   4.329  -0.325   3.638  0.1075  0.1782  0.2946
  770MOL0     C 1542   4.453  -0.386   3.633 -0.4278 -0.6620 -0.2061
  770MOL0     O 1543   4.560  -0.349   3.694  0.0690 -0.3788 -0.3615
  770MOL0     C 1544   4.539  -0.307   3.827  0.3854  0.0456 -1.0336
  770MOL0     C 1545   4.688  -0.290   3.885 -0.1997 -0.1985 -0.0885
  770MOL0     C 1546   4.694  -0.171   3.978  0.0807  0.6060  0.3028
  770MOL0     C 1547   4.841  -0.130   4.007  0.4118 -0.2658  0.4740
  770MOL0     C 1548   4.858  -0.055   4.140  0.0758 -0.0637  0.2598
  770MOL0     C 1549   4.987   0.021   4.128  0.2856 -0.0631  0.3248
  770MOL0     C 1550   5.036   0.044   4.271  0.3123 -0.1848  0.2432
  770MOL0     C 1551   5.176   0.108   4.280  1.1708  0.3665  1.1884
  770MOL0    Cl 1552   5.219   0.141   4.448 -0.3186 -0.0276  0.4013
  770MOL0     C 1553   4.465  -0.479   3.537  0.5302 -0.2945 -0.4437
  770MOL0     C 1554   4.349  -0.523   3.463  0.0058  0.5373  0.2034
  770MOL0     O 1555   4.005  -0.347   3.367 -0.1870 -0.0664  0.1933
  770MOL0     C 1556   3.935  -0.699   3.331  0.1423 -0.3643  0.5009
  770MOL0     C 1557   3.829  -0.789   3.314 -0.1246  0.9415  0.0336
  770MOL0     N 1558   3.344  -0.532   2.759  0.1312 -0.3274 -0.3210
  770MOL0     N 1559   3.367  -0.399   2.765 -0.5130 -0.1807  0.6596
  770MOL0     C 1560   4.378   0.288   3.092 -0.5390 -0.8277 -0.0733
  770MOL0     C 1561   4.476   0.346   3.167 -0.9860  0.0847  0.2104
  770MOL0     C 1562   4.778   0.394   3.492 -0.3613 -0.2049  0.2982
  770MOL0     C 1563   4.912   0.373   3.454 -0.7196 -0.4725 -0.6459
  770MOL0     C 1564   5.015   0.401   3.547 -0.0748 -0.3274 -0.0108
  770MOL0     C 1565   4.980   0.434   3.683 -0.3649 -0.2589  0.2905
  770MOL0     O 1566   5.090   0.431   3.765 -0.1561  0.2138 -0.3758
  770MOL0     C 1567   5.060   0.415   3.910 -0.3440 -0.2178  0.5656
  770MOL0     C 1568   5.191   0.415   3.989  0.9711  0.0770  0.3319
  770MOL0     C 1569   5.292   0.310   3.940 -0.5526  0.0582  0.1933
  770MOL0     C 1570   5.414   0.303   4.029  0.6156  0.5358 -0.0512
  770MOL0     C 1571   5.515   0.211   3.972 -0.2925 -0.1282 -0.8253
  770MOL0     C 1572   5.599   0.143   3.909  0.5066  0.2834  0.3518
  770MOL0     C 1573   4.846   0.464   3.714  0.4753  0.4533  0.6583
  770MOL0     C 1574   4.751   0.442   3.621  0.1369 -0.0964 -0.1730
  770MOL0     H 1575   4.727   0.123   3.085  0.0017  1.0056 -0.5459
  770MOL0     H 1576   4.547   0.042   2.936 -2.6676  0.2557 -0.0225
  770MOL0     H 1577   4.211   0.065   3.126 -0.7332 -0.1517  0.1569
  770MOL0     H 1578   4.296  -0.076   3.064 -1.1173 -0.1148  2.2062
  770MOL0     H 1579   4.127  -0.117   2.883 -2.7666 -2.7031  0.8532
  770MOL0     H 1580   4.049   0.031   2.934 -0.1360  0.4777  1.6225
  770MOL0     H 1581   3.990  -0.079   3.158 -0.2151 -0.4000  0.4187
  770MOL0     H 1582   4.086  -0.224   3.105  2.2855  2.0382 -0.1493
  770MOL0     H 1583   3.918  -0.264   2.923 -1.8419 -0.9660  0.5140
  770MOL0     H 1584   3.856  -0.265   3.090  2.6981 -1.9110  0.0686
  770MOL0     H 1585   3.818  -0.050   2.864 -1.4940 -0.1728 -0.5408
  770MOL0     H 1586   3.825  -0.006   3.023 -2.0868  1.5350 -1.7255
  770MOL0     H 1587   3.600  -0.031   2.991  0.5808  0.3109 -0.0970
  770MOL0     H 1588   3.652  -0.157   3.090 -2.0109 -1.6446 -0.3139
  770MOL0     H 1589   3.605  -0.225   2.785  1.7965  0.8277  0.2295
  770MOL0     H 1590   3.630  -0.328   2.919  4.3059  2.9727 -0.5266
  770MOL0     H 1591   3.368  -0.157   2.882 -3.2491 -3.8468 -0.3359
  770MOL0     H 1592   3.425  -0.217   3.033  2.0666  0.3450  0.2142
  770MOL0     H 1593   3.384  -0.492   3.082  2.4218 -5.2023 -1.0665
  770MOL0     H 1594   3.299  -0.783   2.855  2.8418 -2.2320  1.3299
  770MOL0     H 1595   3.194  -0.682   2.965  1.2227  1.2046  0.9217
  770MOL0     H 1596   3.317  -0.860   3.085  1.2695  0.1071  0.5948
  770MOL0     H 1597   3.391  -0.698   3.123 -2.1660  2.6362 -1.8099
  770MOL0     H 1598   3.521  -0.879   2.930 -0.4975  0.5084  0.0899
  770MOL0     H 1599   3.582  -0.738   2.997 -2.5227  1.1267 -1.4986
  770MOL0     H 1600   3.692  -0.947   3.095 -0.7060 -1.1397 -0.8831
  770MOL0     H 1601   3.540  -1.011   3.143  0.8643 -0.8003 -1.7455
  770MOL0     H 1602   3.572  -0.572   3.260 -0.3199 -2.6622  1.4714
  770MOL0     H 1603   3.741  -0.421   3.335  0.8036  0.1172  0.5234
  770MOL0     H 1604   4.117  -0.333   3.586 -0.3934 -0.4970 -0.9510
  770MOL0     H 1605   4.305  -0.231   3.687 -0.8238  0.4570 -0.6388
  770MOL0     H 1606   4.495  -0.388   3.886  0.8661 -1.7974 -3.0980
  770MOL0     H 1607   4.482  -0.215   3.845 -1.2807 -1.0880 -0.3043
  770MOL0     H 1608   4.765  -0.253   3.816  0.3901  1.9359  1.6187
  770MOL0     H 1609   4.725  -0.384   3.926  3.3815  0.6587 -0.9978
  770MOL0     H 1610   4.635  -0.204   4.064  1.0039  0.4757  0.9105
  770MOL0     H 1611   4.647  -0.079   3.943 -1.0314  0.4745  1.3662
  770MOL0     H 1612   4.907  -0.217   4.008 -1.9930 -2.2393  3.0466
  770MOL0     H 1613   4.874  -0.062   3.928  0.7838 -1.1213 -0.1210
  770MOL0     H 1614   4.841  -0.129   4.219 -3.2626  0.1066 -0.1373
  770MOL0     H 1615   4.771   0.011   4.148 -0.9706 -1.4747  1.0453
  770MOL0     H 1616   4.971   0.115   4.075  4.2344  1.4467  1.4831
  770MOL0     H 1617   5.057  -0.028   4.061  1.3858  0.0241  1.3740
  770MOL0     H 1618   4.971   0.120   4.314  0.0541 -1.0069  1.3378
  770MOL0     H 1619   5.023  -0.047   4.331 -1.0667 -0.3548 -0.2662
  770MOL0     H 1620   5.177   0.194   4.213  1.5995 -1.2160 -0.9408
  770MOL0     H 1621   5.254   0.042   4.240 -0.6700 -0.5583 -1.0652
  770MOL0     H 1622   4.558  -0.534   3.530 -0.1323 -1.2373 -2.2973
  770MOL0     H 1623   4.364  -0.594   3.382 -0.8718  0.1774  0.3596
  770MOL0     H 1624   4.026  -0.753   3.353  1.1570  0.1558 -2.0703
  770MOL0     H 1625   3.855  -0.894   3.306 -3.3209 -0.0529  1.1275
  770MOL0     H 1626   4.279   0.330   3.105 -0.2205 -0.6093  1.9108
  770MOL0     H 1627   4.449   0.430   3.230  2.3937  2.2192 -0.9042
  770MOL0     H 1628   4.953   0.346   3.357 -0.4032  1.5253 -1.1028
  770MOL0     H 1629   5.117   0.396   3.511  0.1489  0.0817  0.5562
  770MOL0     H 1630   5.004   0.323   3.926  1.5686 -1.5358  0.1093
  770MOL0     H 1631   5.010   0.504   3.949  0.5453  0.5003  0.1128
  770MOL0     H 1632   5.243   0.511   3.979  1.2523  0.1191  1.9636
  770MOL0     H 1633   5.168   0.408   4.096 -1.3750  2.7866  0.1457
  770MOL0     H 1634   5.328   0.328   3.839  0.6301  0.9561  0.7466
  770MOL0     H 1635   5.248   0.211   3.926 -0.8389  0.5300 -2.7510
  770MOL0     H 1636   5.442   0.409   4.026 -1.3371  1.1146  0.7668
  770MOL0     H 1637   5.388   0.283   4.133 -1.7850  0.6039 -0.5907
  770MOL0     H 1638   5.662   0.080   3.851 -1.8855 -1.2592 -0.7429
  770MOL0     H 1639   4.818   0.504   3.811  1.8179  1.4982  0.6350
  770MOL0     H 1640   4.651   0.462   3.657  1.3550  1.6874  2.4902
  771MOL0     O 1641   3.911   8.206   2.597 -0.1081 -0.1070  0.5871
  771MOL0     C 1642   3.848   8.312   2.605  0.3215 -0.7201 -0.0042
  771MOL0     O 1643   3.906   8.431   2.569  0.6008  0.1602  0.4179
  771MOL0     C 1644   4.037   8.441   2.537 -0.3223 -0.0818 -0.7434
  771MOL0     C 1645   4.091   8.417   2.410 -0.0482  0.3176 -0.4906
  771MOL0     C 1646   4.224   8.445   2.380 -0.0290  0.0958  0.5533
  771MOL0     C 1647   4.308   8.504   2.471  0.4504  0.0236 -0.0460
  771MOL0     O 1648   4.440   8.538   2.459  0.0667 -0.7347 -0.2682
  771MOL0     C 1649   4.531   8.497   2.352  0.7056  0.0870  0.2233
  771MOL0     C 1650   4.629   8.612   2.324  0.0234 -0.1852 -0.8750
  771MOL0     C 1651   4.741   8.572   2.231  0.3205  0.3629  0.5959
  771MOL0     C 1652   4.829   8.682   2.184  0.3442  0.3484  0.0148
  771MOL0     C 1653   4.917   8.644   2.061  0.5633 -0.1046 -0.4478
  771MOL0     C 1654   4.834   8.622   1.938  0.3999  0.5101  0.6266
  771MOL0     C 1655   4.728   8.728   1.911 -0.5291 -1.0779  0.2399
  771MOL0     C 1656   4.800   8.863   1.901  0.5532 -1.2462 -0.9897
  771MOL0     N 1657   4.708   8.961   1.852 -0.6136  0.7813 -0.6049
  771MOL0     C 1658   4.614   9.044   1.916 -0.2350 -0.5487  0.2840
  771MOL0     C 1659   4.571   9.126   1.820  0.2465  0.0325 -0.9087
  771MOL0     C 1660   4.492   9.250   1.845 -0.7752  0.1013 -0.3262
  771MOL0     C 1661   4.416   9.251   1.979 -0.2757  0.2363  0.4540
  771MOL0     C 1662   4.327   9.377   2.008  0.4613  0.1012 -0.7366
  771MOL0     C 1663   4.197   9.368   1.929 -0.4739 -0.7422  0.2657
  771MOL0     O 1664   4.136   9.241   1.958 -0.5317  0.2340 -0.7705
  771MOL0     C 1665   4.062   9.184   1.857  0.0460  0.3398 -0.0294
  771MOL0     C 1666   4.076   9.192   1.716  0.2780 -0.7512 -0.2193
  771MOL0     C 1667   3.978   9.129   1.628 -1.0128 -0.6729 -0.4608
  771MOL0     C 1668   3.873   9.055   1.681 -0.3673  0.2520  0.3369
  771MOL0     C 1669   3.761   9.003   1.594  0.1800  0.1679  0.1866
  771MOL0     O 1670   3.637   8.957   1.652 -1.4467  0.1716  0.7511
  771MOL0     C 1671   3.532   8.926   1.580 -0.5577  0.3484 -0.0784
  771MOL0     C 1672   3.455   8.815   1.619  0.6487 -0.4746  0.1336
  771MOL0     C 1673   3.336   8.783   1.553  0.4822 -0.9868 -0.1864
  771MOL0     C 1674   3.297   8.854   1.437  0.3475  0.4921 -0.5137
  771MOL0     O 1675   3.190   8.819   1.357  0.0191  0.8977  0.0116
  771MOL0     C 1676   3.135   8.690   1.364 -0.1176  0.3556 -0.7546
  771MOL0     C 1677   3.045   8.646   1.249 -0.1530 -0.2998  0.5381
  771MOL0     C 1678   2.915   8.728   1.249  1.1094  0.2734 -0.2691
  771MOL0     C 1679   2.796   8.632   1.264  0.5050 -0.1488  0.7170
  771MOL0     C 1680   2.675   8.709   1.302  0.0257  0.9595  0.4134
  771MOL0     C 1681   2.695   8.760   1.448  0.2519  0.4768 -0.2691
  771MOL0     C 1682   2.573   8.781   1.533 -0.2686  0.4531  0.4765
  771MOL0     C 1683   2.614   8.824   1.674 -0.2648 -0.5762  0.3717
  771MOL0    Cl 1684   2.482   8.814   1.780  0.2839 -0.0404  0.2729
  771MOL0     C 1685   3.361   8.962   1.402  0.4079  0.1530  0.3823
  771MOL0     C 1686   3.479   8.999   1.477  0.6189 -0.0256  0.8979
  771MOL0     O 1687   3.777   9.014   1.468  0.0135 -1.0034 -0.8971
  771MOL0     C 1688   3.879   9.028   1.823  0.5417  0.1838 -0.7490
  771MOL0     C 1689   3.963   9.099   1.907 -1.1108  0.4279  0.5330
  771MOL0     N 1690   4.625   9.093   1.700  0.1340 -0.5807  0.4867
  771MOL0     N 1691   4.705   8.992   1.727  0.4699  0.1756  0.5672
  771MOL0     C 1692   4.259   8.520   2.601  0.0414  0.6047  0.8836
  771MOL0     C 1693   4.124   8.499   2.631  0.1496  0.1619 -0.6167
  771MOL0     C 1694   3.723   8.321   2.682  0.0247 -0.0301  0.4173
  771MOL0     C 1695   3.623   8.415   2.647 -0.3018 -0.3912  0.0440
  771MOL0     C 1696   3.508   8.437   2.722 -0.3446  0.5629 -0.0752
  771MOL0     C 1697   3.483   8.368   2.844  0.7615  0.4431 -0.6509
  771MOL0     O 1698   3.385   8.392   2.932 -0.2527 -0.5994  0.1200
  771MOL0     C 1699   3.316   8.280   2.974  0.0459 -0.4588 -0.2499
  771MOL0     C 1700   3.234   8.218   2.858  0.3085 -1.1539 -0.3303
  771MOL0     C 1701   3.121   8.308   2.806 -0.2087 -0.2844  0.2496
  771MOL0     C 1702   3.089   8.268   2.657 -0.0499 -0.2504  0.9626
  771MOL0     C 1703   3.210   8.313   2.577  0.6409 -0.2720 -0.0453
  771MOL0     C 1704   3.305   8.332   2.503  0.6039  0.7115  0.3992
  771MOL0     C 1705   3.587   8.280   2.875  0.1360 -0.0577  0.3451
  771MOL0     C 1706   3.703   8.252   2.800 -0.1292 -0.0706 -1.6697
  771MOL0     H 1707   4.018   8.396   2.332 -0.3518 -0.4942  0.0004
  771MOL0     H 1708   4.268   8.416   2.285  3.1970  0.9400  1.6869
  771MOL0     H 1709   4.476   8.463   2.263 -2.6797 -0.6653  2.3964
  771MOL0     H 1710   4.589   8.415   2.394  1.8988 -0.5877 -2.5305
  771MOL0     H 1711   4.673   8.656   2.414 -0.6410  2.1554 -1.6142
  771MOL0     H 1712   4.581   8.697   2.274  3.4115  1.3003 -1.8883
  771MOL0     H 1713   4.690   8.525   2.146 -1.1101  0.8566  1.1436
  771MOL0     H 1714   4.802   8.488   2.262  2.7349  1.8933  0.2730
  771MOL0     H 1715   4.764   8.768   2.167 -3.0056 -2.3263 -1.8921
  771MOL0     H 1716   4.895   8.714   2.266  0.3332  1.2111 -0.2964
  771MOL0     H 1717   4.983   8.559   2.083 -1.8045 -1.2803  3.0095
  771MOL0     H 1718   4.992   8.723   2.048 -0.7524  1.5494  1.2730
  771MOL0     H 1719   4.786   8.527   1.962 -1.1174  1.2483  0.6197
  771MOL0     H 1720   4.898   8.619   1.849  1.3483  0.6506  1.2884
  771MOL0     H 1721   4.664   8.718   1.823 -2.2565  3.5488  0.6637
  771MOL0     H 1722   4.651   8.741   1.988 -1.4719  0.3359 -0.8866
  771MOL0     H 1723   4.880   8.851   1.827  1.4481 -0.8864 -0.1146
  771MOL0     H 1724   4.843   8.907   1.992 -0.9475 -0.0371 -0.8304
  771MOL0     H 1725   4.595   9.044   2.023 -1.2245  0.6127  0.1268
  771MOL0     H 1726   4.418   9.263   1.766 -0.5886  1.7062 -0.2707
  771MOL0     H 1727   4.577   9.318   1.830  3.4986 -4.5748  0.1058
  771MOL0     H 1728   4.502   9.248   2.047  0.0767  3.2671  0.2788
  771MOL0     H 1729   4.368   9.153   1.983 -0.2601  0.1226 -1.1845
  771MOL0     H 1730   4.295   9.368   2.112  1.1996  0.0167 -0.5100
  771MOL0     H 1731   4.391   9.466   2.003  0.2408  0.3726  0.9670
  771MOL0     H 1732   4.213   9.376   1.821 -3.0976 -0.5179 -0.1711
  771MOL0     H 1733   4.120   9.440   1.955  0.3278  1.2645 -2.4022
  771MOL0     H 1734   4.161   9.235   1.664  1.0854  3.5139  3.9292
  771MOL0     H 1735   3.988   9.141   1.521  1.4736  3.0144  0.0110
  771MOL0     H 1736   3.478   8.760   1.710  0.9855  0.6339  0.7310
  771MOL0     H 1737   3.297   8.688   1.589  4.4897 -2.9118 -0.3959
  771MOL0     H 1738   3.076   8.692   1.456 -0.4146  1.4983 -0.9570
  771MOL0     H 1739   3.212   8.613   1.373 -2.2433 -1.7073  0.9464
  771MOL0     H 1740   3.025   8.539   1.259  1.2438 -0.7668 -1.0211
  771MOL0     H 1741   3.104   8.665   1.158  1.3185  0.8967  1.6959
  771MOL0     H 1742   2.914   8.792   1.160  1.4800 -0.2952 -0.6842
  771MOL0     H 1743   2.920   8.798   1.333  1.9740 -0.6896  0.5008
  771MOL0     H 1744   2.785   8.577   1.171 -1.3914 -1.1421  1.4701
  771MOL0     H 1745   2.823   8.554   1.335  2.4064 -0.2182 -0.0217
  771MOL0     H 1746   2.593   8.636   1.295 -0.1782  1.3213 -1.4790
  771MOL0     H 1747   2.640   8.789   1.236  1.5451 -0.0465 -1.7276
  771MOL0     H 1748   2.750   8.854   1.448  0.7735  0.2290  2.1829
  771MOL0     H 1749   2.759   8.685   1.494 -0.0719  1.4162  1.8233
  771MOL0     H 1750   2.517   8.860   1.482 -0.1795  0.8930  1.0431
  771MOL0     H 1751   2.514   8.689   1.541 -0.1618  0.5346  3.3370
  771MOL0     H 1752   2.655   8.924   1.657 -1.0052 -0.4366 -0.7292
  771MOL0     H 1753   2.698   8.760   1.704  1.0417  0.5450 -0.7399
  771MOL0     H 1754   3.329   9.016   1.314  0.5141 -0.2453  0.0958
  771MOL0     H 1755   3.537   9.087   1.450  1.9310 -0.3334  2.5795
  771MOL0     H 1756   3.807   8.961   1.870  0.0972  2.5754  2.2957
  771MOL0     H 1757   3.945   9.088   2.013 -0.4234  0.8556  0.7027
  771MOL0     H 1758   4.332   8.554   2.674  0.6607  2.1029 -0.3855
  771MOL0     H 1759   4.083   8.535   2.724 -3.1904 -0.3465 -1.7494
  771MOL0     H 1760   3.646   8.483   2.566  0.2468  0.7668  1.1432
  771MOL0     H 1761   3.429   8.501   2.684 -1.0134  1.7122  2.9995
  771MOL0     H 1762   3.252   8.308   3.058 -0.3529 -0.1981 -0.6341
  771MOL0     H 1763   3.378   8.195   3.005 -1.9228 -1.9138 -0.1097
  771MOL0     H 1764   3.301   8.189   2.777 -0.0613 -0.2297 -0.9735
  771MOL0     H 1765   3.181   8.129   2.895 -1.3229  0.3142  1.0752
  771MOL0     H 1766   3.145   8.414   2.820 -1.4878  0.7639 -4.0831
  771MOL0     H 1767   3.029   8.291   2.862 -1.8932  0.6994 -2.0682
  771MOL0     H 1768   3.074   8.161   2.639  2.4987 -0.3879 -0.9065
  771MOL0     H 1769   3.001   8.320   2.619 -0.7583 -0.3643  2.3507
  771MOL0     H 1770   3.386   8.345   2.434  0.6549 -1.7926 -0.0930
  771MOL0     H 1771   3.589   8.224   2.969 -1.3607 -0.7674 -0.0120
  771MOL0     H 1772   3.760   8.174   2.849 -0.3670  1.3928  1.0905
  772MOL0     O 1773  10.843   0.299   5.049  0.1677  0.2710  0.0148
  772MOL0     C 1774  10.911   0.315   4.947  0.5837  0.0497  0.0278
  772MOL0     O 1775  10.889   0.245   4.826 -0.1059 -0.2283  0.5089
  772MOL0     C 1776  10.784   0.162   4.808 -0.3975 -0.4674  0.0423
  772MOL0     C 1777  10.761   0.060   4.897  0.1634  0.3010 -0.6243
  772MOL0     C 1778  10.652  -0.025   4.882  0.8419 -0.1933 -0.0164
  772MOL0     C 1779  10.564   0.005   4.780 -0.2563 -0.6577  1.1186
  772MOL0     O 1780  10.446  -0.067   4.781 -0.3922 -0.1813  0.7901
  772MOL0     C 1781  10.338  -0.035   4.683 -0.2554  0.4961 -0.3850
  772MOL0     C 1782  10.203  -0.098   4.728  0.2199  0.7799 -0.4077
  772MOL0     C 1783  10.095  -0.071   4.626 -0.2964 -0.6310  0.7770
  772MOL0     C 1784   9.945  -0.061   4.686  0.7980 -1.2598 -0.3948
  772MOL0     C 1785   9.895  -0.181   4.770  0.3236 -0.1072  0.8522
  772MOL0     C 1786   9.859  -0.293   4.664 -0.6426 -0.1363 -0.2164
  772MOL0     C 1787   9.770  -0.386   4.736 -0.3350  1.6669 -0.7732
  772MOL0     C 1788   9.782  -0.531   4.682  0.4353 -0.2044 -0.3798
  772MOL0     N 1789   9.650  -0.575   4.638  0.4664  0.9497 -0.2912
  772MOL0     C 1790   9.541  -0.580   4.724 -0.6864 -0.2487 -0.0742
  772MOL0     C 1791   9.444  -0.600   4.631  0.5792 -0.0238 -0.2386
  772MOL0     C 1792   9.292  -0.602   4.639  0.0331 -0.1496 -0.2663
  772MOL0     C 1793   9.225  -0.469   4.684 -0.5226 -0.8017  0.3400
  772MOL0     C 1794   9.218  -0.365   4.568 -0.1469 -0.5468 -0.9270
  772MOL0     C 1795   9.092  -0.270   4.589  0.0336  0.3732 -1.0211
  772MOL0     O 1796   8.969  -0.344   4.599 -0.4947  0.5895 -0.6566
  772MOL0     C 1797   8.858  -0.276   4.549 -0.6760 -0.0451 -0.0707
  772MOL0     C 1798   8.750  -0.366   4.514  0.8876 -0.2977  0.4095
  772MOL0     C 1799   8.639  -0.315   4.444  0.2392  0.1432  0.7229
  772MOL0     C 1800   8.636  -0.181   4.397  0.7484  0.4581 -0.3197
  772MOL0     C 1801   8.538  -0.144   4.299  0.2936  0.8137  0.5383
  772MOL0     O 1802   8.435  -0.235   4.260 -0.0926  0.1854  0.6762
  772MOL0     C 1803   8.323  -0.190   4.188  0.5760 -0.0668 -0.0992
  772MOL0     C 1804   8.256  -0.073   4.200  0.5961  0.5185  0.9935
  772MOL0     C 1805   8.128  -0.054   4.138  0.0050  0.1481  0.0727
  772MOL0     C 1806   8.070  -0.149   4.051 -0.5592 -0.5259  0.5903
  772MOL0     O 1807   7.944  -0.142   3.996 -0.0018  0.4700 -0.9524
  772MOL0     C 1808   7.848  -0.053   4.063  0.1285  0.7182 -0.4761
  772MOL0     C 1809   7.712  -0.066   4.003  0.4125 -0.8668  0.3546
  772MOL0     C 1810   7.684   0.023   3.875 -0.6754 -0.7696 -0.1308
  772MOL0     C 1811   7.534   0.005   3.818 -0.2783  0.5278 -0.0146
  772MOL0     C 1812   7.473  -0.138   3.812 -1.2702  0.1359 -0.0648
  772MOL0     C 1813   7.326  -0.142   3.776  0.1159 -0.3103 -0.3942
  772MOL0     C 1814   7.281  -0.039   3.666 -0.3389 -1.2895 -0.3101
  772MOL0     C 1815   7.138  -0.083   3.621  0.8529 -0.5072  0.3570
  772MOL0    Cl 1816   7.095   0.032   3.491 -0.4521 -0.1659 -0.1099
  772MOL0     C 1817   8.146  -0.269   4.030  0.2201 -0.0031 -0.4124
  772MOL0     C 1818   8.269  -0.283   4.097 -0.1453 -0.0756 -0.8751
  772MOL0     O 1819   8.563  -0.042   4.235 -0.2392  0.2778  0.3541
  772MOL0     C 1820   8.733  -0.093   4.431 -0.1888 -0.2676  0.3756
  772MOL0     C 1821   8.842  -0.137   4.510  0.6424  0.1589 -0.3459
  772MOL0     N 1822   9.502  -0.603   4.507 -0.4434  1.0007  0.8618
  772MOL0     N 1823   9.624  -0.578   4.511 -0.3122  0.8843  0.9144
  772MOL0     C 1824  10.583   0.112   4.693  0.1912 -0.1518  1.3681
  772MOL0     C 1825  10.694   0.197   4.711  0.1864 -0.4186 -0.8623
  772MOL0     C 1826  11.018   0.410   4.955 -0.2826 -0.4349 -0.2679
  772MOL0     C 1827  11.099   0.430   4.846 -1.2630 -0.5333 -0.0023
  772MOL0     C 1828  11.214   0.516   4.848  0.7590 -0.8050 -0.1763
  772MOL0     C 1829  11.235   0.606   4.953 -0.1457 -0.5497  0.4544
  772MOL0     O 1830  11.353   0.688   4.956 -0.1434 -0.8458  0.3972
  772MOL0     C 1831  11.345   0.792   5.051  0.1406 -0.1020  0.9838
  772MOL0     C 1832  11.459   0.893   5.036  0.5635 -0.5705  0.7329
  772MOL0     C 1833  11.595   0.822   5.078  1.0254 -0.6570 -0.5966
  772MOL0     C 1834  11.690   0.943   5.111 -0.4661  0.2915 -1.1284
  772MOL0     C 1835  11.827   0.904   5.164  0.0071  0.0090  0.9753
  772MOL0     C 1836  11.934   0.883   5.208 -0.0665  0.3819 -0.7725
  772MOL0     C 1837  11.138   0.603   5.057  0.9131 -0.0188 -0.0044
  772MOL0     C 1838  11.034   0.500   5.071 -0.1049  0.9720  0.0740
  772MOL0     H 1839  10.827   0.041   4.980 -0.9820 -3.0338 -0.3485
  772MOL0     H 1840  10.644  -0.106   4.954  1.9958 -3.2213 -3.0160
  772MOL0     H 1841  10.373  -0.073   4.587  0.6904 -2.4672  1.0015
  772MOL0     H 1842  10.339   0.074   4.677  3.1944  0.5084 -2.0422
  772MOL0     H 1843  10.182  -0.028   4.809  0.4313  1.8180 -1.2196
  772MOL0     H 1844  10.202  -0.204   4.755  1.5410  1.4110  2.4430
  772MOL0     H 1845  10.103  -0.156   4.557  0.0274 -0.0634  0.1069
  772MOL0     H 1846  10.106   0.026   4.578 -1.6617  0.7033  2.9976
  772MOL0     H 1847   9.942   0.020   4.759  0.3462 -2.7263  1.3132
  772MOL0     H 1848   9.873  -0.044   4.606 -2.7856  0.0847  2.8432
  772MOL0     H 1849   9.802  -0.152   4.819 -0.0920  1.7873 -0.9278
  772MOL0     H 1850   9.965  -0.220   4.844  0.8205 -0.1317  0.3789
  772MOL0     H 1851   9.952  -0.339   4.632 -1.3155 -2.3144  0.7589
  772MOL0     H 1852   9.805  -0.253   4.578 -1.3606 -0.1299  0.2276
  772MOL0     H 1853   9.790  -0.386   4.843  0.6696  0.1327 -0.9383
  772MOL0     H 1854   9.671  -0.339   4.722 -1.7084  0.4315  3.3299
  772MOL0     H 1855   9.808  -0.600   4.762 -2.6173 -0.5055  0.5053
  772MOL0     H 1856   9.847  -0.526   4.594 -1.2928 -1.5203 -1.8119
  772MOL0     H 1857   9.533  -0.574   4.832  1.9256  0.3444  0.1489
  772MOL0     H 1858   9.270  -0.663   4.727 -0.8404  0.2013 -0.2386
  772MOL0     H 1859   9.244  -0.643   4.550  1.5090 -2.3004 -0.1548
  772MOL0     H 1860   9.281  -0.431   4.770 -2.2856 -2.4726  2.3324
  772MOL0     H 1861   9.122  -0.492   4.713 -1.7635  1.6155 -1.6621
  772MOL0     H 1862   9.302  -0.295   4.569 -0.2125 -0.4204 -2.0960
  772MOL0     H 1863   9.190  -0.412   4.473 -5.6604  0.7997 -0.3345
  772MOL0     H 1864   9.083  -0.203   4.503  1.3260  2.2967  0.2613
  772MOL0     H 1865   9.111  -0.207   4.677 -3.1951 -1.8674  1.5234
  772MOL0     H 1866   8.755  -0.470   4.544 -1.4361 -0.6771 -0.3318
  772MOL0     H 1867   8.564  -0.388   4.416 -0.1975  1.0315 -0.4635
  772MOL0     H 1868   8.282  -0.004   4.279 -1.2727 -1.0607  3.1191
  772MOL0     H 1869   8.067   0.030   4.170  1.1845  1.2000 -0.3663
  772MOL0     H 1870   7.868   0.054   4.065 -1.4222  1.0149  1.0955
  772MOL0     H 1871   7.831  -0.089   4.165  3.1154 -0.8241 -0.3860
  772MOL0     H 1872   7.643  -0.035   4.082 -0.3158 -0.4858 -0.4107
  772MOL0     H 1873   7.705  -0.173   3.981  3.2951 -0.7165 -1.8976
  772MOL0     H 1874   7.762   0.005   3.800 -0.0984  2.8697 -0.5809
  772MOL0     H 1875   7.697   0.127   3.907 -3.5126 -0.5773  0.6528
  772MOL0     H 1876   7.471   0.074   3.876 -0.4134  2.0537 -1.8616
  772MOL0     H 1877   7.537   0.051   3.719  0.3354  0.9620  0.2065
  772MOL0     H 1878   7.496  -0.189   3.905 -3.2004 -1.7502 -0.5542
  772MOL0     H 1879   7.532  -0.193   3.737 -0.7342  1.6977 -0.8394
  772MOL0     H 1880   7.272  -0.120   3.869 -0.1298  1.8165 -1.0046
  772MOL0     H 1881   7.305  -0.246   3.747  1.3157 -1.1138  1.4372
  772MOL0     H 1882   7.275   0.062   3.709  1.8965 -0.9885 -0.6072
  772MOL0     H 1883   7.359  -0.032   3.590 -0.5816 -2.7999 -0.7113
  772MOL0     H 1884   7.063  -0.058   3.697  1.6802 -3.0002  2.1287
  772MOL0     H 1885   7.135  -0.188   3.591 -1.2307 -0.2543 -0.4897
  772MOL0     H 1886   8.103  -0.350   3.971 -2.4832  0.0395  1.3220
  772MOL0     H 1887   8.314  -0.382   4.096 -0.0562 -0.0339 -0.9797
  772MOL0     H 1888   8.714   0.012   4.417 -2.2979 -0.5770  0.5749
  772MOL0     H 1889   8.913  -0.061   4.538  0.9468 -0.2935  0.1268
  772MOL0     H 1890  10.530   0.134   4.601  2.6742 -0.3605 -0.2198
  772MOL0     H 1891  10.727   0.269   4.637 -0.3201  0.6947 -0.0290
  772MOL0     H 1892  11.084   0.366   4.760 -0.0919  0.1271 -0.7201
  772MOL0     H 1893  11.279   0.526   4.762  1.8511 -2.2917  0.4357
  772MOL0     H 1894  11.333   0.758   5.155 -3.1391  0.2178  0.8182
  772MOL0     H 1895  11.251   0.843   5.030  0.9604  0.7200 -0.9212
  772MOL0     H 1896  11.459   0.928   4.932 -1.5656  1.1950  1.2530
  772MOL0     H 1897  11.438   0.977   5.103  0.9752 -1.6906  2.3276
  772MOL0     H 1898  11.630   0.766   4.991  1.3462 -0.1562 -0.7935
  772MOL0     H 1899  11.581   0.761   5.168 -0.5564  0.8442  0.2654
  772MOL0     H 1900  11.687   1.005   5.021  1.3012  1.3309 -0.5285
  772MOL0     H 1901  11.659   1.006   5.194  2.2730  2.6564 -1.7135
  772MOL0     H 1902  12.030   0.876   5.256 -0.9919 -1.1621  0.9611
  772MOL0     H 1903  11.135   0.676   5.137 -0.8244  0.4181 -0.4433
  772MOL0     H 1904  10.967   0.487   5.155  1.0485  0.9787  1.0179
  773MOL0     O 1905   0.539   5.036   1.475 -0.3723  0.6460  0.1000
  773MOL0     C 1906   0.580   4.936   1.531 -0.6274  0.7103  0.1574
  773MOL0     O 1907   0.509   4.859   1.619 -1.0259 -0.1874 -0.4799
  773MOL0     C 1908   0.379   4.880   1.661  0.2804 -1.2800  0.2377
  773MOL0     C 1909   0.282   4.949   1.592 -0.0176 -0.5408  0.3976
  773MOL0     C 1910   0.151   4.964   1.643 -0.0503 -0.0268 -0.2965
  773MOL0     C 1911   0.120   4.919   1.773 -0.0386 -0.9802 -0.8291
  773MOL0     O 1912  -0.002   4.932   1.832 -0.4272 -0.3307 -0.2149
  773MOL0     C 1913  -0.117   4.900   1.752 -0.6454  0.3810 -0.5092
  773MOL0     C 1914  -0.237   4.864   1.834  0.0351  0.8600  1.1005
  773MOL0     C 1915  -0.283   4.991   1.906  0.2470  1.0838  0.1763
  773MOL0     C 1916  -0.369   4.943   2.029 -0.5959 -1.2687 -0.3958
  773MOL0     C 1917  -0.438   5.064   2.089  0.0627 -0.6437  0.2520
  773MOL0     C 1918  -0.543   5.018   2.196 -0.7165  0.3859  0.1168
  773MOL0     C 1919  -0.482   4.982   2.330 -0.6842 -0.5638  0.0536
  773MOL0     C 1920  -0.502   5.082   2.442 -0.7421  0.2720  0.0958
  773MOL0     N 1921  -0.431   5.204   2.429 -0.9963 -0.1330  0.7361
  773MOL0     C 1922  -0.295   5.217   2.452 -0.0336  1.3559 -0.8254
  773MOL0     C 1923  -0.261   5.336   2.401 -0.0631  0.2308 -0.6439
  773MOL0     C 1924  -0.133   5.401   2.384 -0.4113  0.1678  0.6719
  773MOL0     C 1925  -0.013   5.301   2.355 -0.9968  0.3629 -0.3805
  773MOL0     C 1926  -0.054   5.234   2.228  0.3918  0.3044  0.4656
  773MOL0     C 1927   0.074   5.179   2.168  0.5201  0.5165  0.3028
  773MOL0     O 1928   0.161   5.291   2.133  0.6027 -0.8242 -0.5808
  773MOL0     C 1929   0.278   5.248   2.068  0.1792  0.3329  0.6015
  773MOL0     C 1930   0.365   5.141   2.103  0.4142  0.3292  0.0107
  773MOL0     C 1931   0.466   5.088   2.022 -0.1116 -0.4509  0.7343
  773MOL0     C 1932   0.506   5.165   1.909 -0.7526  0.1715 -1.1492
  773MOL0     C 1933   0.616   5.124   1.828  0.2408 -0.3396 -1.5846
  773MOL0     O 1934   0.665   5.219   1.749  1.5942 -0.7224  0.3958
  773MOL0     C 1935   0.789   5.217   1.688 -0.0536 -0.6833  0.0515
  773MOL0     C 1936   0.898   5.150   1.733 -0.3450 -0.0653  0.3619
  773MOL0     C 1937   1.019   5.177   1.667 -0.2060  0.6738  1.1715
  773MOL0     C 1938   1.031   5.256   1.556 -0.4171 -0.2645 -0.6331
  773MOL0     O 1939   1.145   5.264   1.486 -0.0600 -0.5193  0.8745
  773MOL0     C 1940   1.260   5.192   1.524 -0.1247 -0.0575 -0.1645
  773MOL0     C 1941   1.381   5.228   1.436  0.4450 -0.0105 -0.3979
  773MOL0     C 1942   1.353   5.240   1.285 -0.3909 -0.1810 -0.4525
  773MOL0     C 1943   1.316   5.108   1.219 -0.0316  0.4320 -0.0730
  773MOL0     C 1944   1.332   5.116   1.066  0.5767 -0.0542  0.6286
  773MOL0     C 1945   1.280   4.986   1.003  0.6052 -0.0819  0.0292
  773MOL0     C 1946   1.361   4.863   1.023  0.0953  0.4438  0.6636
  773MOL0     C 1947   1.312   4.767   1.125  0.8150  0.6184 -0.3120
  773MOL0    Cl 1948   1.382   4.597   1.098  0.0379 -0.1164  0.0425
  773MOL0     C 1949   0.913   5.320   1.507 -0.1350 -0.1468 -0.0320
  773MOL0     C 1950   0.790   5.304   1.577 -0.9888 -0.9216  0.1363
  773MOL0     O 1951   0.658   5.010   1.845 -0.5069 -0.4365 -0.0263
  773MOL0     C 1952   0.436   5.284   1.879  0.5195  0.0931 -0.5845
  773MOL0     C 1953   0.312   5.320   1.943  0.2193  0.5792 -0.8442
  773MOL0     N 1954  -0.379   5.391   2.360  0.3397  0.3319 -0.5801
  773MOL0     N 1955  -0.478   5.316   2.380  0.4313 -0.4932  0.4690
  773MOL0     C 1956   0.223   4.849   1.846  0.7836 -0.7331  0.9435
  773MOL0     C 1957   0.349   4.834   1.792  0.3299  0.3593  0.5603
  773MOL0     C 1958   0.721   4.895   1.514  0.9050  1.1322  0.0229
  773MOL0     C 1959   0.803   4.970   1.427  0.8238  0.5859 -0.6274
  773MOL0     C 1960   0.924   4.923   1.395  0.0240 -0.4549  0.5174
  773MOL0     C 1961   0.981   4.809   1.454 -0.5242  1.0769  0.4728
  773MOL0     O 1962   1.107   4.773   1.406 -0.1866 -0.0573 -0.4374
  773MOL0     C 1963   1.164   4.647   1.447 -0.3464 -0.6616 -0.9196
  773MOL0     C 1964   1.101   4.523   1.377 -0.4037 -0.4286  1.0559
  773MOL0     C 1965   1.176   4.397   1.418 -0.0305 -0.8595 -0.7201
  773MOL0     C 1966   1.154   4.274   1.326  0.0070  0.0785  0.2447
  773MOL0     C 1967   1.180   4.149   1.397  0.2203 -0.6562 -0.0390
  773MOL0     C 1968   1.189   4.045   1.454 -0.0986 -0.0946 -0.3976
  773MOL0     C 1969   0.908   4.740   1.552 -0.3731  0.0730  0.2736
  773MOL0     C 1970   0.775   4.782   1.580 -0.4332 -1.1681 -0.0440
  773MOL0     H 1971   0.301   4.995   1.495 -2.4430  1.1346  0.6146
  773MOL0     H 1972   0.079   5.023   1.587 -0.6468  2.6507  2.9107
  773MOL0     H 1973  -0.099   4.818   1.682  1.8982 -0.6649  1.1987
  773MOL0     H 1974  -0.139   4.976   1.677  2.7175 -1.6179 -3.9088
  773MOL0     H 1975  -0.225   4.782   1.906 -1.2866  0.1583  0.5576
  773MOL0     H 1976  -0.308   4.828   1.759  3.3256 -0.0137 -1.8854
  773MOL0     H 1977  -0.342   5.052   1.837  0.7967  4.0904  2.1751
  773MOL0     H 1978  -0.198   5.050   1.942  0.5075  1.5126 -1.0684
  773MOL0     H 1979  -0.443   4.867   2.000 -1.8592  0.5183 -2.2006
  773MOL0     H 1980  -0.305   4.901   2.106  1.8007  2.6123 -0.0199
  773MOL0     H 1981  -0.485   5.114   2.004  2.5627  1.2617 -0.1367
  773MOL0     H 1982  -0.367   5.133   2.134 -0.1955  0.0307 -0.3583
  773MOL0     H 1983  -0.593   4.926   2.162  0.7608 -0.3247 -0.2184
  773MOL0     H 1984  -0.629   5.085   2.206 -0.1271  1.5944 -2.2668
  773MOL0     H 1985  -0.524   4.890   2.369 -2.0702  1.3351  3.5027
  773MOL0     H 1986  -0.374   4.969   2.321 -0.3816 -1.0509  3.2245
  773MOL0     H 1987  -0.482   5.045   2.542  1.2660 -0.5324 -0.5644
  773MOL0     H 1988  -0.605   5.110   2.419  0.1624  1.7899 -2.6261
  773MOL0     H 1989  -0.240   5.151   2.519 -2.2014 -0.3098 -0.5671
  773MOL0     H 1990  -0.113   5.450   2.479  2.3639  0.9153 -0.2245
  773MOL0     H 1991  -0.132   5.484   2.313  1.9829  2.2094  2.9243
  773MOL0     H 1992  -0.005   5.225   2.434 -1.7891  1.5931  0.9299
  773MOL0     H 1993   0.076   5.364   2.343 -0.6246 -0.4809 -2.4555
  773MOL0     H 1994  -0.124   5.151   2.239  0.7353 -0.2263 -1.0640
  773MOL0     H 1995  -0.102   5.301   2.156  1.7918 -1.0283 -1.8135
  773MOL0     H 1996   0.040   5.127   2.078 -1.4917  3.0059 -0.4786
  773MOL0     H 1997   0.132   5.125   2.243  1.2437  4.1021  2.5906
  773MOL0     H 1998   0.330   5.089   2.191 -1.6436  0.4271 -0.6956
  773MOL0     H 1999   0.519   4.996   2.045  3.5286  1.4635  0.8593
  773MOL0     H 2000   0.892   5.081   1.816  3.6337 -0.6096  0.4163
  773MOL0     H 2001   1.104   5.116   1.695 -0.5965  0.5975  2.2408
  773MOL0     H 2002   1.231   5.087   1.515 -0.4174  0.0738 -0.8981
  773MOL0     H 2003   1.291   5.218   1.625  0.2000 -1.4002  0.0949
  773MOL0     H 2004   1.460   5.157   1.460  0.9162 -0.0016 -1.7885
  773MOL0     H 2005   1.422   5.322   1.476  3.1056 -2.3221  2.8538
  773MOL0     H 2006   1.444   5.272   1.233 -2.2904  3.9498 -1.6043
  773MOL0     H 2007   1.284   5.324   1.273 -0.7122 -0.6779 -2.3848
  773MOL0     H 2008   1.375   5.028   1.266 -2.2437 -1.1638  0.1496
  773MOL0     H 2009   1.211   5.100   1.249  0.0403 -0.4154 -0.0182
  773MOL0     H 2010   1.437   5.127   1.038 -0.1140 -1.8250 -3.2075
  773MOL0     H 2011   1.273   5.199   1.027  1.1450 -0.3897 -0.9896
  773MOL0     H 2012   1.282   5.010   0.896 -0.7724 -1.7700 -0.4235
  773MOL0     H 2013   1.183   4.955   1.043  1.4808 -2.0950  0.7057
  773MOL0     H 2014   1.344   4.807   0.930 -1.1303  0.2582  0.9886
  773MOL0     H 2015   1.467   4.891   1.027  0.2410  0.1161 -0.4594
  773MOL0     H 2016   1.203   4.754   1.124  0.7419  0.7512 -3.3727
  773MOL0     H 2017   1.349   4.802   1.222 -2.1604 -1.3604  1.7235
  773MOL0     H 2018   0.907   5.393   1.427 -2.3739  0.4470  0.5965
  773MOL0     H 2019   0.707   5.361   1.539 -0.2505 -0.2754 -0.5377
  773MOL0     H 2020   0.460   5.332   1.785 -0.0204 -0.8059 -1.1992
  773MOL0     H 2021   0.259   5.401   1.894  0.7785  1.0467 -0.6916
  773MOL0     H 2022   0.216   4.799   1.941  0.0109 -4.8867 -1.0813
  773MOL0     H 2023   0.430   4.781   1.841 -0.8029 -2.9555 -0.8617
  773MOL0     H 2024   0.775   5.062   1.375 -1.3162  0.3050 -0.0567
  773MOL0     H 2025   0.981   4.971   1.317 -1.0951 -0.3354 -0.2637
  773MOL0     H 2026   1.164   4.639   1.556  0.0129 -1.7304 -0.9835
  773MOL0     H 2027   1.266   4.663   1.413 -0.1555  4.5017  1.1131
  773MOL0     H 2028   0.998   4.514   1.412 -0.3129 -3.4691  0.8090
  773MOL0     H 2029   1.099   4.536   1.269 -1.1520  0.4803  1.1687
  773MOL0     H 2030   1.167   4.377   1.525  3.1688 -1.1626 -0.3845
  773MOL0     H 2031   1.279   4.427   1.396 -0.7609  5.4715  2.3708
  773MOL0     H 2032   1.049   4.263   1.301 -0.1756 -0.8369  1.3114
  773MOL0     H 2033   1.202   4.285   1.228  0.9627 -0.3370  0.6441
  773MOL0     H 2034   1.206   3.951   1.502  0.8601  0.9451  1.4133
  773MOL0     H 2035   0.945   4.665   1.621 -0.4030  0.7953  1.0955
  773MOL0     H 2036   0.715   4.726   1.652 -0.7871 -0.6312  0.0825
  774MOL0     O 2037   2.813   0.188   6.045 -0.8387  0.5100  0.5614
  774MOL0     C 2038   2.738   0.139   5.959 -1.5854  1.1138 -0.0452
  774MOL0     O 2039   2.603   0.123   5.969 -0.0353 -0.0167 -0.4522
  774MOL0     C 2040   2.536   0.161   6.087  0.6117 -0.0554 -0.3188
  774MOL0     C 2041   2.400   0.166   6.066 -0.1292 -0.9772 -0.3456
  774MOL0     C 2042   2.314   0.209   6.160  0.9469 -0.3801  0.5968
  774MOL0     C 2043   2.359   0.261   6.284  0.0502  0.6592  0.8940
  774MOL0     O 2044   2.269   0.323   6.367 -0.4706 -0.5387 -0.2013
  774MOL0     C 2045   2.309   0.427   6.456  0.1033 -0.6871 -0.7539
  774MOL0     C 2046   2.196   0.467   6.547  0.1659  0.1846  0.7860
  774MOL0     C 2047   2.068   0.554   6.490 -0.0372  0.0001 -0.1148
  774MOL0     C 2048   1.967   0.538   6.599 -0.6312 -1.1420  0.2564
  774MOL0     C 2049   1.856   0.646   6.611 -0.8114 -1.0607  0.0451
  774MOL0     C 2050   1.756   0.623   6.722  0.7736 -0.0438 -1.4964
  774MOL0     C 2051   1.637   0.723   6.711  0.8688  0.0966  1.1322
  774MOL0     C 2052   1.509   0.673   6.796 -0.2758  0.2550 -0.3486
  774MOL0     N 2053   1.416   0.783   6.835  0.1582  0.5531  0.0005
  774MOL0     C 2054   1.284   0.761   6.868  0.0279  0.3130  0.3490
  774MOL0     C 2055   1.236   0.878   6.911 -0.0172  0.0914  0.2071
  774MOL0     C 2056   1.094   0.912   6.927 -0.1679 -0.7286 -0.4887
  774MOL0     C 2057   1.027   0.826   7.046 -0.1581  0.2695 -0.3103
  774MOL0     C 2058   0.884   0.886   7.080 -0.3959  0.2488  0.5205
  774MOL0     C 2059   0.809   0.812   7.191  0.3156 -0.0904  0.2437
  774MOL0     O 2060   0.685   0.875   7.199  0.1908 -0.3515  0.3543
  774MOL0     C 2061   0.565   0.805   7.202  0.1716 -0.4068 -0.6113
  774MOL0     C 2062   0.542   0.675   7.217 -0.0898  0.3853 -0.0029
  774MOL0     C 2063   0.425   0.621   7.214  1.0094 -0.1116 -0.1189
  774MOL0     C 2064   0.306   0.709   7.194  0.3920  0.8221  0.6771
  774MOL0     C 2065   0.170   0.655   7.197  0.2916  0.0999  0.0659
  774MOL0     O 2066   0.135   0.549   7.278 -0.7160 -0.7151 -0.0990
  774MOL0     C 2067   0.007   0.506   7.277 -0.1197  0.0909  0.2560
  774MOL0     C 2068  -0.097   0.560   7.359 -0.4407 -0.8302  0.3558
  774MOL0     C 2069  -0.216   0.497   7.365 -0.4840  0.1379 -0.2435
  774MOL0     C 2070  -0.247   0.389   7.283  0.3081 -0.1962 -0.0835
  774MOL0     O 2071  -0.374   0.323   7.281 -0.1557 -0.0013 -0.1261
  774MOL0     C 2072  -0.417   0.279   7.411 -0.4829  1.0552 -0.8099
  774MOL0     C 2073  -0.566   0.232   7.399  0.2567  0.2840 -0.4769
  774MOL0     C 2074  -0.643   0.208   7.535 -1.0496 -0.0166 -0.6520
  774MOL0     C 2075  -0.789   0.172   7.517 -0.8439 -0.4334 -0.5548
  774MOL0     C 2076  -0.847   0.149   7.662  0.1462  0.2479 -0.5136
  774MOL0     C 2077  -0.990   0.079   7.681 -0.7540  0.2473  0.2659
  774MOL0     C 2078  -1.095   0.170   7.611 -0.1138 -0.6710 -0.3258
  774MOL0     C 2079  -1.241   0.133   7.632  0.1635 -0.2459  0.7507
  774MOL0    Cl 2080  -1.286   0.002   7.521 -0.5500 -0.1765 -0.0426
  774MOL0     C 2081  -0.161   0.353   7.189 -1.2894  0.4836  0.3445
  774MOL0     C 2082  -0.030   0.400   7.183 -0.1071 -0.3655  0.4218
  774MOL0     O 2083   0.094   0.704   7.119  0.3549  0.4288 -0.0197
  774MOL0     C 2084   0.333   0.843   7.176  0.3871  0.2221 -0.2919
  774MOL0     C 2085   0.463   0.897   7.176 -0.4392  1.1764 -0.4937
  774MOL0     N 2086   1.336   0.970   6.919 -0.4625  0.2882 -0.7024
  774MOL0     N 2087   1.443   0.904   6.892 -0.4642 -0.2424  0.0038
  774MOL0     C 2088   2.493   0.250   6.308  0.5603 -0.6938  0.5664
  774MOL0     C 2089   2.580   0.201   6.214  0.0207  0.1912 -0.8819
  774MOL0     C 2090   2.812   0.087   5.839  0.6353  0.0425  0.3238
  774MOL0     C 2091   2.955   0.101   5.823  0.6815  0.0453  0.6567
  774MOL0     C 2092   3.023   0.034   5.716  0.0816 -0.7859  0.1438
  774MOL0     C 2093   2.952  -0.057   5.629  0.1101 -2.2592 -0.3485
  774MOL0     O 2094   3.008  -0.122   5.525 -0.8145 -0.4576 -0.4488
  774MOL0     C 2095   2.989  -0.059   5.403  0.1432  0.0687  0.1451
  774MOL0     C 2096   3.109   0.026   5.369 -0.9613 -0.7694  0.0473
  774MOL0     C 2097   3.104   0.064   5.219 -0.2372 -0.0868  0.0256
  774MOL0     C 2098   3.228   0.144   5.177  0.8779  0.0065  1.0190
  774MOL0     C 2099   3.249   0.269   5.247 -0.8570 -0.0496  0.3095
  774MOL0     C 2100   3.280   0.376   5.299 -0.5027 -0.2125  1.2291
  774MOL0     C 2101   2.810  -0.062   5.643  0.7905 -0.5575 -1.1256
  774MOL0     C 2102   2.748  -0.001   5.753  0.2444  0.3829  0.5561
  774MOL0     H 2103   2.358   0.128   5.974  0.7234 -1.1846 -0.6545
  774MOL0     H 2104   2.208   0.196   6.140  0.9299  0.7279 -0.1183
  774MOL0     H 2105   2.344   0.511   6.396 -0.4399 -1.1468 -1.7350
  774MOL0     H 2106   2.379   0.406   6.537 -0.1656  2.5989  0.4737
  774MOL0     H 2107   2.235   0.541   6.618  3.0330  0.1328 -0.5577
  774MOL0     H 2108   2.162   0.376   6.595  1.9836  0.6798  3.2578
  774MOL0     H 2109   2.036   0.509   6.395  3.5299 -0.2018 -1.3848
  774MOL0     H 2110   2.086   0.660   6.473 -1.4224  0.8003  2.7762
  774MOL0     H 2111   1.922   0.439   6.583 -0.6831 -1.0500 -0.1758
  774MOL0     H 2112   2.014   0.545   6.698 -0.8176  0.3819  0.2475
  774MOL0     H 2113   1.805   0.634   6.515 -2.5554  2.3106  0.4097
  774MOL0     H 2114   1.891   0.749   6.625 -3.9111 -0.3764  5.4002
  774MOL0     H 2115   1.797   0.619   6.823  0.1565  2.0328 -1.1214
  774MOL0     H 2116   1.717   0.522   6.704  1.3134 -0.3628 -0.9156
  774MOL0     H 2117   1.661   0.821   6.752 -0.7995  0.8994  0.3080
  774MOL0     H 2118   1.597   0.722   6.608  0.3231 -0.9968  1.3349
  774MOL0     H 2119   1.545   0.633   6.891 -0.8137 -1.6770 -0.9101
  774MOL0     H 2120   1.454   0.600   6.735 -2.5707  2.1440 -0.7012
  774MOL0     H 2121   1.235   0.668   6.841  1.9351 -0.6090 -0.1032
  774MOL0     H 2122   1.041   0.913   6.831  1.3977  0.5571 -1.3897
  774MOL0     H 2123   1.096   1.014   6.965  2.4759 -0.7203 -0.4694
  774MOL0     H 2124   1.101   0.825   7.126  0.8683  0.3340 -1.2483
  774MOL0     H 2125   1.020   0.723   7.012  2.0496  0.2434 -0.8228
  774MOL0     H 2126   0.886   0.994   7.094  1.2343  0.5556 -1.5350
  774MOL0     H 2127   0.817   0.874   6.994  0.2071  4.1415 -0.6893
  774MOL0     H 2128   0.859   0.803   7.287  0.0494 -3.7771  0.1876
  774MOL0     H 2129   0.804   0.707   7.162  3.2986 -0.2396 -0.0830
  774MOL0     H 2130   0.627   0.610   7.236 -0.1365  0.2544 -0.2449
  774MOL0     H 2131   0.418   0.514   7.232 -0.4747  0.2304  1.7545
  774MOL0     H 2132  -0.082   0.636   7.434  1.6164  0.1553 -0.9689
  774MOL0     H 2133  -0.298   0.532   7.427 -0.1466 -2.4158  1.8260
  774MOL0     H 2134  -0.412   0.369   7.474 -1.4604  2.0560 -2.1123
  774MOL0     H 2135  -0.359   0.195   7.449 -3.4629 -1.5528 -1.5835
  774MOL0     H 2136  -0.573   0.142   7.337 -1.5323  0.7166 -0.9634
  774MOL0     H 2137  -0.617   0.321   7.361  1.3221  0.3174 -1.9143
  774MOL0     H 2138  -0.629   0.287   7.609  2.0793 -1.9831  1.0889
  774MOL0     H 2139  -0.583   0.127   7.579 -0.2177  0.9263 -0.0042
  774MOL0     H 2140  -0.851   0.244   7.462 -1.6753  0.0263  0.9332
  774MOL0     H 2141  -0.793   0.074   7.468  0.8625 -0.7420 -0.1306
  774MOL0     H 2142  -0.851   0.242   7.719 -0.1024  1.0316 -1.7764
  774MOL0     H 2143  -0.778   0.083   7.716  1.1027  1.9173  0.4223
  774MOL0     H 2144  -1.008   0.064   7.788  1.1382  1.1213  0.7536
  774MOL0     H 2145  -0.980  -0.015   7.626  0.2852  0.1630  0.5844
  774MOL0     H 2146  -1.082   0.272   7.647  1.2699 -1.0029  0.1775
  774MOL0     H 2147  -1.082   0.165   7.502 -2.0621  0.7918 -0.6950
  774MOL0     H 2148  -1.301   0.220   7.606  0.7711 -0.5202 -1.9158
  774MOL0     H 2149  -1.258   0.113   7.738 -1.8722  1.6061  0.8522
  774MOL0     H 2150  -0.204   0.299   7.105 -1.1506  1.2641 -0.2409
  774MOL0     H 2151   0.035   0.381   7.099 -0.9804  2.9315 -1.1687
  774MOL0     H 2152   0.249   0.909   7.196  0.6752  0.5627 -0.1803
  774MOL0     H 2153   0.478   1.004   7.178 -2.7216  1.5289  0.7223
  774MOL0     H 2154   2.536   0.261   6.407  3.3621 -3.0689 -0.2439
  774MOL0     H 2155   2.685   0.189   6.241  0.1670  1.0340 -1.0680
  774MOL0     H 2156   2.993   0.174   5.894 -0.1580  0.9559  0.1871
  774MOL0     H 2157   3.127   0.058   5.696 -0.2581  0.4541 -0.2190
  774MOL0     H 2158   2.907   0.014   5.399  0.4021  0.3086 -1.9045
  774MOL0     H 2159   2.968  -0.148   5.343 -0.0662 -2.4137  3.5893
  774MOL0     H 2160   3.117   0.112   5.436  1.1095 -0.3113 -0.7065
  774MOL0     H 2161   3.203  -0.030   5.379  0.1974  0.2771 -3.3722
  774MOL0     H 2162   3.017   0.129   5.210 -0.8551 -0.4407  2.7271
  774MOL0     H 2163   3.100  -0.026   5.157 -0.1482 -1.5865  2.0902
  774MOL0     H 2164   3.317   0.083   5.196  0.6783 -0.2448  1.1443
  774MOL0     H 2165   3.223   0.166   5.069 -0.4374  0.3539  1.1280
  774MOL0     H 2166   3.312   0.469   5.343 -1.0755 -1.1810  3.8281
  774MOL0     H 2167   2.755  -0.125   5.573  2.0832 -1.2127 -1.5735
  774MOL0     H 2168   2.639  -0.008   5.753  0.2669 -3.5226 -2.3845
  775MOL0     O 2169   4.891   2.513   7.268 -0.1321  0.3134 -0.3866
  775MOL0     C 2170   4.990   2.582   7.288 -0.0404 -0.7811 -0.8436
  775MOL0     O 2171   5.012   2.706   7.247 -1.1469  0.3753 -0.1873
  775MOL0     C 2172   4.909   2.788   7.205  0.6878  0.0752 -0.6820
  775MOL0     C 2173   4.940   2.887   7.115 -0.1392 -0.8548  0.9610
  775MOL0     C 2174   4.843   2.982   7.073  0.6145 -0.6109 -0.0037
  775MOL0     C 2175   4.715   2.971   7.123  0.5996 -0.0476  0.9723
  775MOL0     O 2176   4.633   3.065   7.062  0.1798  0.4835  0.0511
  775MOL0     C 2177   4.489   3.080   7.082 -0.2453 -0.1412 -0.4027
  775MOL0     C 2178   4.446   3.167   7.199  0.9747 -0.5539  0.2092
  775MOL0     C 2179   4.302   3.215   7.207 -0.4359  0.2361  0.6591
  775MOL0     C 2180   4.274   3.277   7.342 -1.1310 -0.0077  0.4210
  775MOL0     C 2181   4.133   3.318   7.380 -1.0669  0.2251  0.3194
  775MOL0     C 2182   4.020   3.210   7.360 -0.0651 -0.3245  0.4971
  775MOL0     C 2183   3.899   3.233   7.450  0.1713 -0.3455  0.3895
  775MOL0     C 2184   3.780   3.142   7.418 -0.7487 -0.1409 -0.2625
  775MOL0     N 2185   3.659   3.168   7.506 -0.3669  0.2179 -0.5431
  775MOL0     C 2186   3.652   3.181   7.648  0.3313  0.9529  0.3168
  775MOL0     C 2187   3.525   3.216   7.671 -0.6718  0.2816  0.3478
  775MOL0     C 2188   3.453   3.227   7.805  0.1626 -0.3286  0.0280
  775MOL0     C 2189   3.511   3.347   7.887 -0.4444 -0.5527 -0.3168
  775MOL0     C 2190   3.496   3.320   8.039  0.0749  0.6869 -0.1089
  775MOL0     C 2191   3.601   3.235   8.102 -0.8329  0.9289 -0.4217
  775MOL0     O 2192   3.616   3.115   8.034  0.4334 -0.5745 -0.0928
  775MOL0     C 2193   3.737   3.050   8.036  0.2100 -0.5005  0.2861
  775MOL0     C 2194   3.849   3.080   8.116 -0.3254 -0.2614 -0.3373
  775MOL0     C 2195   3.967   2.997   8.108  1.0554 -0.2471 -0.6585
  775MOL0     C 2196   3.977   2.891   8.014  0.5770 -0.3122  0.2902
  775MOL0     C 2197   4.101   2.804   8.007  0.7219  0.9698  0.3372
  775MOL0     O 2198   4.095   2.702   7.908  0.3857 -1.3441 -0.2179
  775MOL0     C 2199   4.195   2.613   7.887 -0.1252 -0.1080 -0.1451
  775MOL0     C 2200   4.216   2.580   7.752 -0.8603  0.0395 -0.2271
  775MOL0     C 2201   4.323   2.493   7.706  1.3900 -0.1874 -0.8863
  775MOL0     C 2202   4.407   2.437   7.796 -0.1091 -0.6049  0.1482
  775MOL0     O 2203   4.500   2.347   7.751 -0.2830  0.1398  0.2801
  775MOL0     C 2204   4.641   2.376   7.781  0.7309 -0.1793 -0.4040
  775MOL0     C 2205   4.715   2.413   7.655 -0.1504 -1.0128  0.0030
  775MOL0     C 2206   4.831   2.513   7.673 -1.4099 -0.1884 -0.3358
  775MOL0     C 2207   4.948   2.464   7.753  0.1914  0.9165  0.6450
  775MOL0     C 2208   5.048   2.573   7.773  0.1111 -0.2234 -0.3404
  775MOL0     C 2209   5.115   2.561   7.906  0.2841 -0.4628 -0.7423
  775MOL0     C 2210   5.227   2.671   7.911  0.1302 -0.0235  1.3759
  775MOL0     C 2211   5.331   2.645   8.019 -0.1029  0.0990 -0.4160
  775MOL0    Cl 2212   5.445   2.520   7.953 -0.1833 -0.0942  0.8209
  775MOL0     C 2213   4.391   2.465   7.934  1.1110  0.8117 -0.2633
  775MOL0     C 2214   4.286   2.551   7.972 -0.3723  0.0008  0.0695
  775MOL0     O 2215   4.198   2.834   8.071 -0.7503 -0.7608  0.4050
  775MOL0     C 2216   3.855   2.871   7.945  0.5389  0.9078 -0.1909
  775MOL0     C 2217   3.742   2.946   7.949  0.3695 -0.0620  0.2172
  775MOL0     N 2218   3.461   3.235   7.553 -0.6381  0.1512 -0.3576
  775MOL0     N 2219   3.536   3.189   7.458 -0.5572 -0.3318 -0.4598
  775MOL0     C 2220   4.680   2.871   7.214 -0.4992  0.2990  0.0301
  775MOL0     C 2221   4.774   2.778   7.254 -0.7458 -0.2954  0.0027
  775MOL0     C 2222   5.103   2.513   7.360 -1.0275  0.1700  0.1941
  775MOL0     C 2223   5.080   2.399   7.439  0.2580 -0.4357 -0.4705
  775MOL0     C 2224   5.195   2.341   7.503 -0.1627 -0.3462 -0.2989
  775MOL0     C 2225   5.325   2.397   7.499 -1.2428  0.2886 -0.0749
  775MOL0     O 2226   5.435   2.323   7.541  0.8385  0.1965 -0.7532
  775MOL0     C 2227   5.459   2.317   7.676 -0.3871  0.0024 -0.6441
  775MOL0     C 2228   5.486   2.172   7.712 -0.3848 -0.2786 -1.2915
  775MOL0     C 2229   5.368   2.090   7.670 -0.6835 -0.0358  0.1986
  775MOL0     C 2230   5.385   1.941   7.718 -0.4012 -0.7557 -0.8013
  775MOL0     C 2231   5.514   1.884   7.677 -0.2955 -0.6136 -0.5453
  775MOL0     C 2232   5.603   1.816   7.640 -0.3632 -0.5954 -0.0795
  775MOL0     C 2233   5.343   2.514   7.427 -0.0946 -0.5194  0.5301
  775MOL0     C 2234   5.236   2.564   7.359  0.4267  0.0953  0.2731
  775MOL0     H 2235   5.037   2.905   7.069 -1.0991  3.2848  0.1298
  775MOL0     H 2236   4.863   3.065   7.006  1.3617 -1.8158 -1.3149
  775MOL0     H 2237   4.449   2.979   7.096  1.5156 -1.5759 -4.2677
  775MOL0     H 2238   4.455   3.112   6.983 -2.0220 -0.5090  0.0684
  775MOL0     H 2239   4.509   3.256   7.204  0.4385 -0.1728  0.3270
  775MOL0     H 2240   4.454   3.103   7.287  0.7813 -1.3205 -0.3241
  775MOL0     H 2241   4.234   3.131   7.193  1.4332 -1.6852  2.3822
  775MOL0     H 2242   4.275   3.287   7.129  0.1872  0.2040  0.4110
  775MOL0     H 2243   4.293   3.191   7.407 -2.7157 -0.1357  0.7685
  775MOL0     H 2244   4.347   3.354   7.370  2.4158 -3.6204  2.0228
  775MOL0     H 2245   4.110   3.398   7.309 -1.8937 -2.1385 -2.2657
  775MOL0     H 2246   4.133   3.364   7.479  3.6953  1.3127  0.0456
  775MOL0     H 2247   4.066   3.113   7.381 -0.4726 -0.2834  1.6108
  775MOL0     H 2248   3.982   3.221   7.258 -2.7711 -0.5474  1.4014
  775MOL0     H 2249   3.919   3.226   7.558 -0.9508  1.3690  0.7377
  775MOL0     H 2250   3.863   3.336   7.443 -0.2324 -0.5489 -0.6129
  775MOL0     H 2251   3.805   3.036   7.412 -1.7474 -0.3745 -0.5000
  775MOL0     H 2252   3.756   3.156   7.312 -1.9008 -0.0670 -0.0111
  775MOL0     H 2253   3.733   3.172   7.720  1.9057 -1.3182 -1.5888
  775MOL0     H 2254   3.455   3.128   7.850  0.3057  0.4454  1.7957
  775MOL0     H 2255   3.349   3.255   7.784  0.4829  0.8026 -0.1159
  775MOL0     H 2256   3.463   3.440   7.858 -2.5698 -1.2451  0.7414
  775MOL0     H 2257   3.619   3.350   7.871 -0.6820  1.9209 -1.9074
  775MOL0     H 2258   3.489   3.417   8.088  0.9053 -0.2100  1.9081
  775MOL0     H 2259   3.398   3.271   8.047  0.4116 -0.0098 -0.1123
  775MOL0     H 2260   3.576   3.201   8.203  4.8452  0.3048  1.0729
  775MOL0     H 2261   3.694   3.288   8.123  0.1857 -1.2017  0.7522
  775MOL0     H 2262   3.830   3.149   8.197  0.4962 -2.7295  2.0993
  775MOL0     H 2263   4.040   3.006   8.188 -1.8257 -0.6941  2.2294
  775MOL0     H 2264   4.150   2.635   7.685  0.9054  1.4306 -0.9346
  775MOL0     H 2265   4.338   2.477   7.599  0.6499 -0.4862 -0.9535
  775MOL0     H 2266   4.687   2.288   7.827  0.2824 -0.1253  0.1724
  775MOL0     H 2267   4.652   2.457   7.854  1.1540  0.2047 -0.8920
  775MOL0     H 2268   4.647   2.454   7.579 -0.8741 -0.4256  0.9440
  775MOL0     H 2269   4.755   2.322   7.610 -0.4934 -0.6545 -1.0528
  775MOL0     H 2270   4.798   2.602   7.726  0.7086  0.2242  0.3733
  775MOL0     H 2271   4.861   2.545   7.573 -0.1958  3.1288  0.9749
  775MOL0     H 2272   4.919   2.421   7.849  2.8591  1.8533  1.9706
  775MOL0     H 2273   5.007   2.383   7.709  1.4749  1.5228  1.2048
  775MOL0     H 2274   5.009   2.675   7.771  2.2783  0.6519 -1.5550
  775MOL0     H 2275   5.119   2.576   7.690 -0.1542 -0.3195 -0.5735
  775MOL0     H 2276   5.155   2.461   7.922  0.3411 -0.3152  0.0802
  775MOL0     H 2277   5.051   2.583   7.993  1.4621 -1.5968  0.4542
  775MOL0     H 2278   5.284   2.669   7.817 -4.0597 -0.7475 -1.4128
  775MOL0     H 2279   5.184   2.771   7.923  0.3704  0.6025 -2.0843
  775MOL0     H 2280   5.285   2.593   8.104  1.7127  1.0376  1.2322
  775MOL0     H 2281   5.387   2.733   8.051  0.6384  0.3224 -2.2173
  775MOL0     H 2282   4.452   2.424   8.014 -0.3505 -1.1914 -0.1103
  775MOL0     H 2283   4.263   2.575   8.075 -3.7874 -3.7124  0.3869
  775MOL0     H 2284   3.856   2.784   7.880 -2.0544  0.5472  0.1077
  775MOL0     H 2285   3.661   2.921   7.881 -1.9030  0.1918  2.6454
  775MOL0     H 2286   4.578   2.874   7.252 -0.5521 -1.5707  0.0842
  775MOL0     H 2287   4.748   2.696   7.321  1.2767 -1.6709 -0.8092
  775MOL0     H 2288   4.988   2.342   7.440  0.8495 -1.4446 -1.1294
  775MOL0     H 2289   5.172   2.260   7.572 -2.5208  1.2532  0.9462
  775MOL0     H 2290   5.376   2.358   7.734  0.7662 -0.2607  1.3141
  775MOL0     H 2291   5.548   2.371   7.709 -0.5534 -0.3328  0.3969
  775MOL0     H 2292   5.582   2.147   7.666 -0.3210  0.9362 -1.8429
  775MOL0     H 2293   5.496   2.167   7.821 -2.8008  1.2946 -0.9284
  775MOL0     H 2294   5.348   2.076   7.564 -1.0842 -0.0400  0.2712
  775MOL0     H 2295   5.280   2.123   7.727 -0.3874 -2.3256  2.1790
  775MOL0     H 2296   5.388   1.942   7.827 -0.3013 -1.7580 -0.7900
  775MOL0     H 2297   5.305   1.878   7.678  0.3749 -2.1416 -0.2145
  775MOL0     H 2298   5.682   1.756   7.600 -0.4884 -0.4623 -0.5322
  775MOL0     H 2299   5.444   2.552   7.422  0.8808 -2.9941  0.1538
  775MOL0     H 2300   5.245   2.655   7.301 -0.8169 -0.3568 -0.6712
  776MOL0     O 2301   9.176   4.673  10.309  0.0403  0.4956  0.1067
  776MOL0     C 2302   9.191   4.668  10.184 -0.4054  0.5363 -0.4009
  776MOL0     O 2303   9.092   4.650  10.085  0.1336 -0.4856  0.4496
  776MOL0     C 2304   8.964   4.623  10.117  1.7720 -0.7094 -1.1183
  776MOL0     C 2305   8.874   4.604  10.009 -0.7636 -0.8380 -1.0931
  776MOL0     C 2306   8.736   4.584  10.018 -1.5056 -0.0071  0.8959
  776MOL0     C 2307   8.686   4.562  10.140  0.2427 -1.7588 -0.0165
  776MOL0     O 2308   8.553   4.524  10.144 -0.1640 -0.2395 -0.1078
  776MOL0     C 2309   8.499   4.479  10.264  0.1865 -0.8255 -0.3756
  776MOL0     C 2310   8.362   4.423  10.237 -0.7513  0.1465 -0.0347
  776MOL0     C 2311   8.247   4.536  10.215 -0.1638  0.8102  0.8842
  776MOL0     C 2312   8.116   4.506  10.147  0.4127  0.7756  0.6058
  776MOL0     C 2313   8.042   4.408  10.239  0.5802  0.7003  0.1984
  776MOL0     C 2314   7.913   4.358  10.172  0.8322  0.0852 -0.2531
  776MOL0     C 2315   7.840   4.254  10.258  0.2272 -0.0739 -0.5055
  776MOL0     C 2316   7.749   4.173  10.177 -0.8536 -0.2756  0.5713
  776MOL0     N 2317   7.658   4.245  10.090  0.3819  0.7207  0.7642
  776MOL0     C 2318   7.676   4.252   9.947  0.6026 -0.8309 -0.1336
  776MOL0     C 2319   7.560   4.312   9.915  0.0586  0.9863  0.9122
  776MOL0     C 2320   7.522   4.355   9.775  0.6882 -0.3504 -0.3477
  776MOL0     C 2321   7.543   4.258   9.674  0.6899  0.0349  0.0421
  776MOL0     C 2322   7.462   4.123   9.709 -0.3255 -0.1072 -0.2401
  776MOL0     C 2323   7.313   4.136   9.712 -0.5375 -0.9162  0.0264
  776MOL0     O 2324   7.279   4.220   9.603 -0.3156 -0.4102 -0.5120
  776MOL0     C 2325   7.241   4.178   9.480  0.6233  0.6744  0.0443
  776MOL0     C 2326   7.256   4.041   9.440 -1.0975  0.7290  0.1955
  776MOL0     C 2327   7.222   4.006   9.309 -0.7870 -0.8361 -0.4679
  776MOL0     C 2328   7.151   4.093   9.230 -0.3928 -0.3201 -0.8852
  776MOL0     C 2329   7.113   4.053   9.091  0.1203 -0.2670  0.5595
  776MOL0     O 2330   7.096   3.922   9.058 -1.3863 -0.4438 -0.0009
  776MOL0     C 2331   7.107   3.891   8.921 -0.0256  0.0012  0.1128
  776MOL0     C 2332   6.992   3.895   8.834 -0.7148 -0.2646 -0.2966
  776MOL0     C 2333   6.997   3.875   8.698  0.5357  0.0793  0.5268
  776MOL0     C 2334   7.117   3.843   8.637  0.0819 -0.3181 -0.1021
  776MOL0     O 2335   7.106   3.824   8.503  0.0506  0.1671  0.6253
  776MOL0     C 2336   7.213   3.769   8.432 -0.2592  0.2947 -0.3036
  776MOL0     C 2337   7.217   3.615   8.442 -0.0147 -1.0697 -0.5063
  776MOL0     C 2338   7.109   3.542   8.373 -0.6389 -0.3793  0.3251
  776MOL0     C 2339   7.141   3.394   8.424  1.0224  0.0280  0.0626
  776MOL0     C 2340   7.016   3.308   8.396 -0.1483 -0.6622  0.1344
  776MOL0     C 2341   7.050   3.162   8.431  0.6880 -0.4160 -0.4198
  776MOL0     C 2342   7.154   3.095   8.340 -0.2573  1.1784 -0.1301
  776MOL0     C 2343   7.142   3.097   8.187 -0.8875  0.1999  1.2090
  776MOL0    Cl 2344   7.300   3.045   8.118 -0.1043 -0.6087  0.4238
  776MOL0     C 2345   7.232   3.825   8.718  0.9609 -0.7553 -0.8102
  776MOL0     C 2346   7.226   3.855   8.860 -0.3643 -0.3881 -0.5613
  776MOL0     O 2347   7.080   4.141   9.013 -0.2378  0.0946 -0.1225
  776MOL0     C 2348   7.125   4.227   9.271 -0.4344 -0.2193 -0.2364
  776MOL0     C 2349   7.165   4.267   9.398 -1.0161  0.7840 -0.6771
  776MOL0     N 2350   7.487   4.349  10.027  0.2966  1.3334  0.4481
  776MOL0     N 2351   7.556   4.316  10.128 -0.8168 -0.0600 -0.3495
  776MOL0     C 2352   8.767   4.585  10.258  0.3121  0.1156 -0.5989
  776MOL0     C 2353   8.903   4.621  10.244  0.7999 -0.4026 -0.8039
  776MOL0     C 2354   9.330   4.714  10.145  0.9523 -0.4522  0.1845
  776MOL0     C 2355   9.435   4.709  10.241 -0.0459  0.3788 -0.8511
  776MOL0     C 2356   9.566   4.747  10.198  0.0293  0.1731  0.3910
  776MOL0     C 2357   9.606   4.802  10.084  0.4434  0.4421 -0.7336
  776MOL0     O 2358   9.743   4.813  10.048 -0.2675 -1.3077 -0.2756
  776MOL0     C 2359   9.766   4.926   9.952  0.5002  0.4109 -0.3967
  776MOL0     C 2360   9.893   5.004   9.975  0.2356  0.3341  0.4203
  776MOL0     C 2361  10.024   4.931   9.944 -0.2122  0.2045 -0.8781
  776MOL0     C 2362  10.149   5.014   9.965  0.2018 -0.4381 -0.6108
  776MOL0     C 2363  10.257   4.977   9.871 -0.5271  0.4827 -0.3456
  776MOL0     C 2364  10.338   4.961   9.784  0.3939 -1.1598 -0.2379
  776MOL0     C 2365   9.497   4.818   9.994  0.4838  0.4340  0.3814
  776MOL0     C 2366   9.362   4.767  10.020  0.5603 -0.8938 -1.0316
  776MOL0     H 2367   8.924   4.609   9.913 -0.6979  1.5482 -0.9916
  776MOL0     H 2368   8.676   4.571   9.929 -0.6446 -1.6192  0.5113
  776MOL0     H 2369   8.494   4.561  10.337  1.1220 -2.1123  1.2001
  776MOL0     H 2370   8.559   4.400  10.310  1.6950  0.3685 -0.2127
  776MOL0     H 2371   8.337   4.358  10.321 -0.0766  1.1805  0.9873
  776MOL0     H 2372   8.364   4.360  10.147 -1.1912 -0.8258  0.6189
  776MOL0     H 2373   8.293   4.617  10.157  2.8343  0.2076  2.2345
  776MOL0     H 2374   8.223   4.574  10.314 -1.1027  3.4073 -0.2443
  776MOL0     H 2375   8.054   4.595  10.143 -0.0030  0.4421 -0.9181
  776MOL0     H 2376   8.121   4.471  10.044 -2.5713  2.2606 -0.1378
  776MOL0     H 2377   8.031   4.454  10.338 -1.2474  1.6365 -0.3955
  776MOL0     H 2378   8.101   4.319  10.262 -0.8385 -0.2010  0.4646
  776MOL0     H 2379   7.933   4.306  10.078 -0.8074 -0.7432 -0.1708
  776MOL0     H 2380   7.845   4.440  10.149  0.0888 -0.7761 -1.2468
  776MOL0     H 2381   7.901   4.187  10.319 -0.9001 -0.4353  0.2494
  776MOL0     H 2382   7.772   4.302  10.329 -0.3615 -0.5577 -0.7368
  776MOL0     H 2383   7.709   4.094  10.241 -0.4461 -1.4694 -0.5996
  776MOL0     H 2384   7.812   4.130  10.099 -0.7337  1.7337 -0.5165
  776MOL0     H 2385   7.761   4.227   9.884  0.5652  0.4165 -0.7143
  776MOL0     H 2386   7.575   4.449   9.757 -0.8556  0.8572  1.1182
  776MOL0     H 2387   7.415   4.377   9.779  0.5900 -0.0186 -2.8225
  776MOL0     H 2388   7.645   4.220   9.677  0.3396 -0.9011  2.8726
  776MOL0     H 2389   7.517   4.288   9.572 -0.5989  0.9659  0.6239
  776MOL0     H 2390   7.492   4.054   9.629  3.0797  0.5948  0.2656
  776MOL0     H 2391   7.505   4.079   9.800 -0.8002  0.9048  0.4964
  776MOL0     H 2392   7.293   4.193   9.803 -0.6613  0.5418 -0.8829
  776MOL0     H 2393   7.259   4.041   9.710  3.4617 -3.4164 -0.8988
  776MOL0     H 2394   7.317   3.976   9.502  0.3940 -0.0646 -1.9539
  776MOL0     H 2395   7.256   3.912   9.266  2.0557  0.0374 -0.3681
  776MOL0     H 2396   6.894   3.908   8.878 -2.4182 -0.7006 -3.6654
  776MOL0     H 2397   6.907   3.881   8.638  0.4491 -0.6624  0.5726
  776MOL0     H 2398   7.305   3.814   8.471 -0.3997 -0.1077  0.5211
  776MOL0     H 2399   7.199   3.801   8.328 -0.9971 -2.3793 -1.1094
  776MOL0     H 2400   7.223   3.576   8.544  2.4062 -2.4147 -1.0661
  776MOL0     H 2401   7.313   3.579   8.403  0.2627 -1.0991  0.1863
  776MOL0     H 2402   7.110   3.569   8.267  2.6440 -0.4632  0.2555
  776MOL0     H 2403   7.016   3.582   8.415 -0.3639  2.3110 -1.3800
  776MOL0     H 2404   7.225   3.367   8.361  2.1050  3.1269  0.0152
  776MOL0     H 2405   7.179   3.371   8.524  1.5509 -1.2448 -0.4194
  776MOL0     H 2406   6.993   3.322   8.290  1.3219  0.2679 -0.0834
  776MOL0     H 2407   6.927   3.338   8.451 -1.6409 -0.3294 -2.3320
  776MOL0     H 2408   6.968   3.091   8.443  0.8512 -0.2847  2.0130
  776MOL0     H 2409   7.093   3.161   8.531  1.6617  1.1880 -0.7864
  776MOL0     H 2410   7.251   3.134   8.371  1.0984 -1.0821 -1.2706
  776MOL0     H 2411   7.145   2.995   8.382  0.7356  1.3255  0.4683
  776MOL0     H 2412   7.117   3.198   8.151  0.2516  0.0554 -0.0688
  776MOL0     H 2413   7.069   3.031   8.141  2.6347 -0.8784 -3.5742
  776MOL0     H 2414   7.323   3.789   8.670  0.7125  0.4793 -2.2668
  776MOL0     H 2415   7.316   3.832   8.916  0.6917  0.5429 -1.8307
  776MOL0     H 2416   7.064   4.299   9.216  0.9627  1.7263  0.6317
  776MOL0     H 2417   7.151   4.368   9.433 -1.4340 -0.0374  1.7077
  776MOL0     H 2418   8.722   4.570  10.355  1.8530  0.1853  0.1576
  776MOL0     H 2419   8.956   4.639  10.337 -2.1922  0.7905  0.8256
  776MOL0     H 2420   9.418   4.657  10.335 -1.1401 -0.5438 -1.5341
  776MOL0     H 2421   9.646   4.719  10.265 -1.7961  0.2835  2.7685
  776MOL0     H 2422   9.680   4.993   9.961  1.2284  1.2469  0.8435
  776MOL0     H 2423   9.773   4.888   9.850 -1.0479  4.7242 -2.3822
  776MOL0     H 2424   9.890   5.097   9.917  2.7749  2.0621  2.8263
  776MOL0     H 2425   9.903   5.027  10.081  1.1834 -0.9076  0.6173
  776MOL0     H 2426  10.013   4.875   9.851  1.7839 -0.7231 -0.6003
  776MOL0     H 2427  10.032   4.851  10.018  1.0215  1.7650  0.7790
  776MOL0     H 2428  10.126   5.120   9.950  0.7336 -0.5850 -2.7033
  776MOL0     H 2429  10.175   5.005  10.071 -0.7055 -3.5175 -0.5645
  776MOL0     H 2430  10.419   4.926   9.722  0.8603 -2.6174  1.1350
  776MOL0     H 2431   9.524   4.857   9.896  1.7884  1.0902  0.9814
  776MOL0     H 2432   9.289   4.766   9.939 -1.3267  1.3165  0.5110
  777MOL0     O 2433   5.638   5.117   9.796  0.6417 -0.6563 -0.0113
  777MOL0     C 2434   5.660   5.103   9.919  0.0567 -0.0463  0.0838
  777MOL0     O 2435   5.568   5.120  10.015  0.3278  0.8665  0.5614
  777MOL0     C 2436   5.442   5.135   9.969 -0.3834  0.7226 -0.1301
  777MOL0     C 2437   5.352   5.027   9.971  0.2856  1.2264 -0.6832
  777MOL0     C 2438   5.224   5.033   9.929 -0.2070 -0.2526  0.0316
  777MOL0     C 2439   5.172   5.158   9.882  0.1705  0.5380 -0.9542
  777MOL0     O 2440   5.047   5.182   9.833  0.0685 -0.0636  0.1057
  777MOL0     C 2441   4.962   5.068   9.834 -0.3499  0.0804  0.5275
  777MOL0     C 2442   4.990   4.951   9.734 -0.5536  0.4951  1.0144
  777MOL0     C 2443   4.859   4.885   9.678  1.2032 -0.0288 -0.4242
  777MOL0     C 2444   4.869   4.825   9.540  0.7247 -0.0479 -1.2446
  777MOL0     C 2445   4.733   4.776   9.491 -0.1716 -0.0743  0.8935
  777MOL0     C 2446   4.686   4.656   9.574 -0.5536  1.0473  0.1571
  777MOL0     C 2447   4.542   4.626   9.529  0.2190 -0.5115  0.5665
  777MOL0     C 2448   4.497   4.511   9.605 -0.5031 -0.2857 -0.4264
  777MOL0     N 2449   4.354   4.513   9.654 -0.1732 -0.3583  0.1439
  777MOL0     C 2450   4.244   4.553   9.589 -0.2521  0.5451  1.1666
  777MOL0     C 2451   4.146   4.553   9.686 -0.1232  0.2669 -0.7556
  777MOL0     C 2452   4.002   4.612   9.663 -0.0533  0.3951  0.1841
  777MOL0     C 2453   3.943   4.691   9.779  0.3512  0.5929 -0.0897
  777MOL0     C 2454   3.835   4.795   9.730  0.4668 -0.3361  0.4878
  777MOL0     C 2455   3.764   4.851   9.850  0.2576 -0.2036 -0.3985
  777MOL0     O 2456   3.656   4.945   9.813  0.2672  0.4365 -0.3996
  777MOL0     C 2457   3.524   4.899   9.816 -0.2867 -0.5016 -0.2246
  777MOL0     C 2458   3.429   5.006   9.821 -0.7347  0.2182 -0.3129
  777MOL0     C 2459   3.292   4.978   9.824  0.4949  1.2504  0.2098
  777MOL0     C 2460   3.248   4.846   9.823 -0.2214 -0.9082  0.0421
  777MOL0     C 2461   3.108   4.811   9.830  0.4667 -0.1263  0.1805
  777MOL0     O 2462   3.062   4.684   9.794 -0.4181  0.2573  0.0202
  777MOL0     C 2463   2.930   4.656   9.799  0.2354 -0.4657 -0.7634
  777MOL0     C 2464   2.845   4.693   9.694  0.6554 -0.5532 -0.1478
  777MOL0     C 2465   2.709   4.672   9.703  1.0805  0.9121 -0.5562
  777MOL0     C 2466   2.660   4.597   9.815  0.0814 -0.2467  0.6057
  777MOL0     O 2467   2.524   4.582   9.830  0.3596  0.3730 -0.1731
  777MOL0     C 2468   2.449   4.541   9.721  0.1413  0.9482 -0.0866
  777MOL0     C 2469   2.336   4.438   9.757  0.2017 -0.1643 -0.1334
  777MOL0     C 2470   2.244   4.428   9.632 -0.6257 -0.1261 -0.5350
  777MOL0     C 2471   2.132   4.326   9.634  0.3604 -0.0250 -0.1794
  777MOL0     C 2472   2.058   4.323   9.504 -0.5021  0.2299  0.1548
  777MOL0     C 2473   1.937   4.230   9.512  0.0917 -0.4391  0.8304
  777MOL0     C 2474   1.821   4.307   9.582 -0.1077  0.4334 -0.5306
  777MOL0     C 2475   1.699   4.217   9.578  0.5231  0.0853  0.4386
  777MOL0    Cl 2476   1.711   4.074   9.685 -0.1314  0.4002 -0.0514
  777MOL0     C 2477   2.747   4.547   9.913 -0.1014  0.2410 -0.6645
  777MOL0     C 2478   2.878   4.582   9.915 -0.4258  0.2415 -0.6392
  777MOL0     O 2479   3.030   4.904   9.856 -0.4000 -0.2322 -0.0400
  777MOL0     C 2480   3.337   4.743   9.834 -0.2065 -0.2319  0.1128
  777MOL0     C 2481   3.472   4.771   9.815 -0.6119 -0.3509  0.1838
  777MOL0     N 2482   4.193   4.503   9.806 -0.1710  0.2961 -0.1116
  777MOL0     N 2483   4.326   4.489   9.785 -0.5131  0.1032 -0.2521
  777MOL0     C 2484   5.256   5.261   9.879  0.2627 -0.5497 -0.5547
  777MOL0     C 2485   5.390   5.257   9.932  0.3048  1.1217 -0.4709
  777MOL0     C 2486   5.797   5.070   9.961 -0.8313 -0.1259  0.4264
  777MOL0     C 2487   5.827   5.081  10.100 -0.4243  0.5759 -0.1609
  777MOL0     C 2488   5.956   5.057  10.147  0.1230 -1.8016  0.2531
  777MOL0     C 2489   6.060   5.063  10.056 -0.5378 -0.5593  0.4162
  777MOL0     O 2490   6.189   5.052  10.111  0.0025 -0.1413 -0.7635
  777MOL0     C 2491   6.307   5.104  10.047 -0.0245  0.3553  0.3339
  777MOL0     C 2492   6.401   5.138  10.159 -0.7750 -0.2366 -0.8889
  777MOL0     C 2493   6.424   5.027  10.254  0.7277 -1.0106  0.3570
  777MOL0     C 2494   6.550   5.050  10.340  0.0326  0.3798 -0.2692
  777MOL0     C 2495   6.519   5.115  10.470 -0.0178  0.5182 -0.0802
  777MOL0     C 2496   6.509   5.173  10.570 -0.2829 -0.1614  0.0272
  777MOL0     C 2497   6.038   5.053   9.912 -0.1275  0.2315 -0.3710
  777MOL0     C 2498   5.906   5.058   9.867 -0.5271  0.0209  0.0053
  777MOL0     H 2499   5.379   4.932  10.017  0.0302  0.2958 -2.3771
  777MOL0     H 2500   5.168   4.940   9.934 -0.0310 -0.4551 -1.3912
  777MOL0     H 2501   4.867   5.117   9.810  1.3865  2.4653 -2.1063
  777MOL0     H 2502   4.961   5.027   9.936  3.8937 -0.3231  0.5758
  777MOL0     H 2503   5.039   4.866   9.782  0.6111  1.3017  1.3042
  777MOL0     H 2504   5.060   4.992   9.661 -2.2408  1.4507 -0.1510
  777MOL0     H 2505   4.779   4.959   9.677  0.0466 -1.0586  2.6084
  777MOL0     H 2506   4.827   4.819   9.759  2.2223 -1.6305 -1.2686
  777MOL0     H 2507   4.895   4.916   9.484  1.3415  3.0881  3.5843
  777MOL0     H 2508   4.934   4.737   9.540 -0.3821 -0.8904 -1.7451
  777MOL0     H 2509   4.746   4.750   9.386  1.2533  2.2259  0.4392
  777MOL0     H 2510   4.663   4.860   9.497 -0.9577 -0.1476 -3.8363
  777MOL0     H 2511   4.684   4.675   9.682  1.3012  0.5546  0.3135
  777MOL0     H 2512   4.747   4.568   9.555 -0.3427  1.0137  0.9449
  777MOL0     H 2513   4.478   4.710   9.555  1.3675  0.1761  1.2725
  777MOL0     H 2514   4.544   4.609   9.421 -1.3837 -0.0425  0.4495
  777MOL0     H 2515   4.572   4.498   9.683  0.3944 -2.2212 -1.5387
  777MOL0     H 2516   4.515   4.431   9.533  1.8293  2.5535 -3.3478
  777MOL0     H 2517   4.251   4.590   9.488 -0.4423  2.6189  1.8604
  777MOL0     H 2518   3.942   4.523   9.647  1.1707 -0.8234  1.9884
  777MOL0     H 2519   3.999   4.667   9.569 -1.4258 -0.3954 -0.2480
  777MOL0     H 2520   4.031   4.738   9.825 -0.5001  3.4476 -1.1643
  777MOL0     H 2521   3.902   4.619   9.850  1.2729  0.3556  0.2216
  777MOL0     H 2522   3.886   4.873   9.673 -0.3288 -1.5611 -2.0977
  777MOL0     H 2523   3.770   4.743   9.659  0.6912  2.2273 -1.7787
  777MOL0     H 2524   3.839   4.909   9.906 -0.8433  1.7378 -0.8498
  777MOL0     H 2525   3.738   4.769   9.917  3.8879  0.7857  2.6062
  777MOL0     H 2526   3.475   5.101   9.844 -0.2546 -0.5263  2.0920
  777MOL0     H 2527   3.221   5.060   9.828  0.4094  1.1409  1.5477
  777MOL0     H 2528   2.871   4.745   9.601 -1.8467 -1.6149 -1.5353
  777MOL0     H 2529   2.639   4.715   9.633 -1.5536 -1.2481  0.5451
  777MOL0     H 2530   2.512   4.490   9.647 -2.1199 -2.6483  0.2068
  777MOL0     H 2531   2.417   4.626   9.660  2.0293  1.5491 -0.3182
  777MOL0     H 2532   2.277   4.469   9.844 -0.6952 -0.3223 -0.6653
  777MOL0     H 2533   2.395   4.351   9.786 -0.8186 -0.3831  1.4232
  777MOL0     H 2534   2.298   4.404   9.540  0.6492 -1.8011  0.6077
  777MOL0     H 2535   2.201   4.528   9.614  0.6653  0.2574 -1.6767
  777MOL0     H 2536   2.179   4.229   9.651  1.6663  0.4484 -0.9783
  777MOL0     H 2537   2.063   4.358   9.712  0.8555 -0.3657  0.4081
  777MOL0     H 2538   2.123   4.278   9.429  0.1727  0.0155  0.8530
  777MOL0     H 2539   2.044   4.423   9.462 -0.8008  0.3849  0.6218
  777MOL0     H 2540   1.957   4.138   9.567  1.5473 -0.9554 -0.4680
  777MOL0     H 2541   1.905   4.202   9.411 -0.8166  0.5074  0.8384
  777MOL0     H 2542   1.840   4.332   9.687  0.5940  1.9929 -1.0087
  777MOL0     H 2543   1.811   4.395   9.518 -2.5324 -0.7232 -1.8732
  777MOL0     H 2544   1.701   4.177   9.476 -5.2298  0.1588 -0.0420
  777MOL0     H 2545   1.597   4.257   9.587  0.8123  1.6609 -2.2482
  777MOL0     H 2546   2.719   4.483   9.997  2.9582 -0.0400  0.2674
  777MOL0     H 2547   2.944   4.555   9.996 -3.1101 -2.2287  0.9331
  777MOL0     H 2548   3.297   4.642   9.845  1.8611 -0.9677  1.4428
  777MOL0     H 2549   3.547   4.692   9.813  0.0829  0.2324  1.6175
  777MOL0     H 2550   5.213   5.352   9.840 -1.9759 -0.3711  2.0134
  777MOL0     H 2551   5.449   5.348   9.927 -0.4632  1.7045  0.7957
  777MOL0     H 2552   5.765   5.105  10.185  2.0914  2.3485  1.3048
  777MOL0     H 2553   5.973   5.054  10.254 -2.2987  0.9536  0.8318
  777MOL0     H 2554   6.291   5.197   9.991  0.0338 -0.3946 -0.9722
  777MOL0     H 2555   6.358   5.028   9.987  2.3004  1.3110  1.0074
  777MOL0     H 2556   6.500   5.163  10.120 -0.9796  1.6889 -0.2719
  777MOL0     H 2557   6.346   5.214  10.214 -0.0942 -0.0998 -0.3881
  777MOL0     H 2558   6.442   4.938  10.193 -1.2096 -1.4614  0.4053
  777MOL0     H 2559   6.332   5.014  10.311 -1.5317  0.7084 -2.6561
  777MOL0     H 2560   6.596   4.951  10.354  0.9137  0.3145 -3.0780
  777MOL0     H 2561   6.623   5.116  10.293  0.9633  0.9588  1.8515
  777MOL0     H 2562   6.506   5.225  10.663 -0.3772 -2.6579  1.5056
  777MOL0     H 2563   6.120   5.046   9.842  0.5838  0.5030  0.4094
  777MOL0     H 2564   5.887   5.055   9.760 -2.3879  2.3561  0.1713
  778MOL0     O 2565   6.085   0.627  11.275  0.6912  0.1960  0.3151
  778MOL0     C 2566   6.129   0.519  11.219  0.2844 -0.0620 -0.5767
  778MOL0     O 2567   6.056   0.423  11.150 -0.5636  0.5790  0.4674
  778MOL0     C 2568   5.918   0.454  11.140 -0.4118 -0.0807  0.3367
  778MOL0     C 2569   5.828   0.365  11.205 -0.0369 -0.5939 -0.5657
  778MOL0     C 2570   5.697   0.408  11.209  0.3895 -0.2302  0.1767
  778MOL0     C 2571   5.653   0.512  11.117  0.6254 -0.3969 -0.4147
  778MOL0     O 2572   5.520   0.549  11.104 -0.1563 -0.1426  0.1079
  778MOL0     C 2573   5.416   0.493  11.178  0.8601  0.2155 -1.0260
  778MOL0     C 2574   5.277   0.525  11.132 -0.0958  0.2745  0.0225
  778MOL0     C 2575   5.164   0.442  11.205 -0.9620  0.4185  0.6742
  778MOL0     C 2576   5.155   0.482  11.355 -0.9417  0.7211 -0.5367
  778MOL0     C 2577   5.031   0.427  11.414  0.9479  0.1372  0.6192
  778MOL0     C 2578   4.941   0.538  11.464 -0.8691  0.0118  0.1449
  778MOL0     C 2579   4.888   0.629  11.359 -0.3382  0.6091 -0.2326
  778MOL0     C 2580   4.732   0.627  11.361  0.4031 -0.1416 -0.7580
  778MOL0     N 2581   4.670   0.676  11.236 -0.4916  0.1872  0.2032
  778MOL0     C 2582   4.579   0.774  11.225  0.3121 -0.1648 -0.3166
  778MOL0     C 2583   4.537   0.767  11.093  0.4969  0.2760  0.4402
  778MOL0     C 2584   4.440   0.868  11.041 -0.3614 -0.1882  0.1905
  778MOL0     C 2585   4.301   0.817  11.039  0.9631  0.5146 -0.2757
  778MOL0     C 2586   4.194   0.922  10.993  0.6926  0.0517  0.4253
  778MOL0     C 2587   4.050   0.866  11.017 -0.3294 -0.0782 -0.1131
  778MOL0     O 2588   3.955   0.975  11.023 -0.4862  0.3924 -0.8669
  778MOL0     C 2589   3.886   1.020  11.133  0.2966 -0.2777 -0.2117
  778MOL0     C 2590   3.818   1.140  11.110  1.6856 -0.2016  0.7525
  778MOL0     C 2591   3.720   1.193  11.199 -1.2082 -0.1765  1.0469
  778MOL0     C 2592   3.698   1.130  11.318 -0.5690 -0.0664 -0.0134
  778MOL0     C 2593   3.600   1.175  11.421 -0.4506  0.0316  0.3015
  778MOL0     O 2594   3.602   1.111  11.545  0.3518  0.9444  0.1267
  778MOL0     C 2595   3.514   1.145  11.640 -0.2314 -0.5502 -0.8160
  778MOL0     C 2596   3.371   1.131  11.635  0.4917  0.8296  0.5519
  778MOL0     C 2597   3.287   1.181  11.739  0.0920  0.0678  0.1678
  778MOL0     C 2598   3.341   1.235  11.860 -0.3506  0.3028 -0.0159
  778MOL0     O 2599   3.281   1.291  11.966 -0.2254  0.0005 -0.5161
  778MOL0     C 2600   3.138   1.266  11.962  0.2434 -0.0816  0.1284
  778MOL0     C 2601   3.066   1.333  12.078  0.7628  0.0049 -0.1698
  778MOL0     C 2602   2.921   1.317  12.059  0.9974  0.4058 -0.3760
  778MOL0     C 2603   2.859   1.406  11.945 -0.7316 -0.0318  0.0449
  778MOL0     C 2604   2.712   1.443  11.966 -0.5996 -0.5293  0.3210
  778MOL0     C 2605   2.652   1.493  11.834 -0.8949 -0.6120  0.1983
  778MOL0     C 2606   2.497   1.510  11.849  0.4854 -0.0811  1.1317
  778MOL0     C 2607   2.415   1.541  11.715 -0.4756 -0.0388  0.0913
  778MOL0    Cl 2608   2.239   1.531  11.751 -0.1725 -0.6148  0.2042
  778MOL0     C 2609   3.487   1.232  11.871 -0.6041  0.4152  0.1254
  778MOL0     C 2610   3.564   1.195  11.768  0.5573 -0.7983  1.0249
  778MOL0     O 2611   3.538   1.280  11.403 -0.3643 -0.3585  1.5570
  778MOL0     C 2612   3.778   1.005  11.345 -0.3396  0.3106  0.3363
  778MOL0     C 2613   3.869   0.956  11.251 -0.1278  0.1482  0.1360
  778MOL0     N 2614   4.599   0.656  11.036  0.1499  0.1688 -0.5622
  778MOL0     N 2615   4.666   0.601  11.128  0.1771  0.0525  0.4373
  778MOL0     C 2616   5.743   0.594  11.051 -0.2464 -0.3754 -1.0153
  778MOL0     C 2617   5.879   0.562  11.059 -0.8574  0.4193  0.0141
  778MOL0     C 2618   6.271   0.505  11.229  0.6138  0.6227 -0.5035
  778MOL0     C 2619   6.333   0.410  11.144  0.4665  0.0103 -1.0719
  778MOL0     C 2620   6.471   0.389  11.157 -0.0028  0.9068  0.5812
  778MOL0     C 2621   6.541   0.450  11.251  0.4869 -0.1986 -0.1851
  778MOL0     O 2622   6.673   0.422  11.276  0.7228 -0.1090  0.2186
  778MOL0     C 2623   6.740   0.309  11.218  0.1082 -0.2634  0.3984
  778MOL0     C 2624   6.876   0.301  11.293  0.7504 -0.6340 -0.1431
  778MOL0     C 2625   6.862   0.272  11.444 -0.6647  0.1361 -0.2424
  778MOL0     C 2626   6.993   0.224  11.498  0.3054  0.0547 -0.1185
  778MOL0     C 2627   7.092   0.329  11.480 -0.0649 -0.3425  1.0512
  778MOL0     C 2628   7.169   0.428  11.473  0.1279 -0.0199  0.0510
  778MOL0     C 2629   6.474   0.529  11.348 -0.3765  0.2412  0.5232
  778MOL0     C 2630   6.340   0.565  11.333 -0.3794 -0.0857 -0.8985
  778MOL0     H 2631   5.862   0.282  11.266  0.9449  0.1967  0.0163
  778MOL0     H 2632   5.624   0.352  11.266 -2.2762  1.4715 -1.3434
  778MOL0     H 2633   5.432   0.529  11.280  0.2248 -0.4212 -0.6910
  778MOL0     H 2634   5.439   0.387  11.167  1.4799  0.3727 -1.2853
  778MOL0     H 2635   5.275   0.500  11.026  1.0352  1.0715 -0.1985
  778MOL0     H 2636   5.243   0.628  11.145  0.4581  0.4659 -0.0167
  778MOL0     H 2637   5.181   0.335  11.195 -1.8883  0.4194 -1.2858
  778MOL0     H 2638   5.066   0.462  11.163 -1.4829 -1.8153  0.6950
  778MOL0     H 2639   5.246   0.450  11.406 -1.7861 -2.6758 -0.9325
  778MOL0     H 2640   5.154   0.591  11.370 -1.1721  0.8181 -1.1831
  778MOL0     H 2641   5.046   0.359  11.499 -0.4582 -0.8847  0.0980
  778MOL0     H 2642   4.976   0.360  11.347 -0.0097 -0.6737  2.1694
  778MOL0     H 2643   4.986   0.611  11.531 -0.0234  0.4161 -0.8480
  778MOL0     H 2644   4.865   0.490  11.527 -0.1959  2.2466  2.8668
  778MOL0     H 2645   4.923   0.732  11.361 -1.5531  1.1539 -2.6193
  778MOL0     H 2646   4.923   0.603  11.259  1.0636  3.8270 -0.6853
  778MOL0     H 2647   4.690   0.693  11.437  0.3948  0.1298 -0.9991
  778MOL0     H 2648   4.681   0.532  11.384 -3.0557  0.7727 -3.5860
  778MOL0     H 2649   4.549   0.843  11.303  0.2591  1.5523 -1.7800
  778MOL0     H 2650   4.471   0.902  10.942 -0.3113 -0.2972  0.1689
  778MOL0     H 2651   4.437   0.955  11.107 -0.2187 -0.7640  0.9692
  778MOL0     H 2652   4.268   0.782  11.137 -0.4563  2.2758 -0.0681
  778MOL0     H 2653   4.296   0.733  10.970  2.4034 -0.9644  1.3131
  778MOL0     H 2654   4.208   1.010  11.057  1.0118  0.1013  0.2894
  778MOL0     H 2655   4.218   0.939  10.888  0.8478 -1.7467  0.1365
  778MOL0     H 2656   4.052   0.813  11.113  2.0286  0.8688  0.4331
  778MOL0     H 2657   4.022   0.793  10.940  1.5245  0.8474 -1.7455
  778MOL0     H 2658   3.824   1.191  11.015 -3.7281 -0.9441 -0.2895
  778MOL0     H 2659   3.658   1.271  11.156 -1.2859  0.1614  1.7540
  778MOL0     H 2660   3.325   1.078  11.551 -0.2216  0.0142  1.4299
  778MOL0     H 2661   3.180   1.170  11.724  0.2096  1.2043 -1.8344
  778MOL0     H 2662   3.107   1.161  11.959  0.0047 -0.0087 -0.0138
  778MOL0     H 2663   3.115   1.319  11.869  1.3622  0.2909  0.0425
  778MOL0     H 2664   3.099   1.438  12.084 -2.3387  0.9751  1.8309
  778MOL0     H 2665   3.088   1.284  12.173 -0.1110  2.7127  1.5648
  778MOL0     H 2666   2.878   1.350  12.154  2.2482  2.5159 -0.4869
  778MOL0     H 2667   2.891   1.213  12.045  0.5913  0.1534  1.8682
  778MOL0     H 2668   2.913   1.501  11.938 -1.2867  0.3094  0.3637
  778MOL0     H 2669   2.860   1.355  11.848 -0.3345  2.4509 -1.3502
  778MOL0     H 2670   2.704   1.507  12.054  0.6212 -0.4927  0.4248
  778MOL0     H 2671   2.666   1.346  11.988  1.4851 -2.1868 -1.9819
  778MOL0     H 2672   2.674   1.414  11.761  1.3466 -2.2871  2.5017
  778MOL0     H 2673   2.689   1.593  11.813 -0.4060 -0.1566  2.8866
  778MOL0     H 2674   2.449   1.423  11.893 -1.6807  0.4450 -0.0572
  778MOL0     H 2675   2.485   1.585  11.928 -0.6291  1.5522 -0.5050
  778MOL0     H 2676   2.441   1.472  11.634  2.4048  1.4102 -0.3214
  778MOL0     H 2677   2.435   1.633  11.660 -3.1619  0.5125 -0.0912
  778MOL0     H 2678   3.541   1.266  11.958  1.0122 -1.1100 -0.2264
  778MOL0     H 2679   3.671   1.212  11.777  1.2203 -1.4340 -3.3639
  778MOL0     H 2680   3.772   0.958  11.442  2.3166  0.2532  0.5435
  778MOL0     H 2681   3.948   0.883  11.267  0.6379  0.7898 -0.5952
  778MOL0     H 2682   5.712   0.677  10.989  1.3017  2.0510  1.2205
  778MOL0     H 2683   5.955   0.626  11.016  1.6871 -2.5048 -0.1677
  778MOL0     H 2684   6.276   0.355  11.069 -2.0423 -3.4005  2.9393
  778MOL0     H 2685   6.513   0.318  11.086 -0.8814  0.6921  0.2551
  778MOL0     H 2686   6.761   0.317  11.111 -1.6396 -0.7517 -0.0098
  778MOL0     H 2687   6.678   0.220  11.229 -0.4702  0.0487 -0.2439
  778MOL0     H 2688   6.939   0.225  11.245  0.4661  0.2326 -1.9739
  778MOL0     H 2689   6.926   0.397  11.277 -1.4080  1.3137  3.5267
  778MOL0     H 2690   6.779   0.201  11.449 -0.7697  0.1060 -1.8016
  778MOL0     H 2691   6.837   0.366  11.495  3.1953  0.2069  1.8564
  778MOL0     H 2692   6.983   0.190  11.601  1.5235 -1.7606 -0.5457
  778MOL0     H 2693   7.028   0.134  11.447  4.4692  1.1230  0.5302
  778MOL0     H 2694   7.253   0.494  11.468 -0.7856  1.2009  0.3316
  778MOL0     H 2695   6.533   0.576  11.427  0.9186  2.3018 -1.5705
  778MOL0     H 2696   6.284   0.627  11.402 -0.0280 -3.1712  2.5127
  779MOL0     O 2697   2.761   2.808   3.773  0.1897 -0.1229 -0.0288
  779MOL0     C 2698   2.737   2.763   3.887 -0.7543 -0.4751 -0.5363
  779MOL0     O 2699   2.608   2.726   3.926  0.0311 -0.5929  0.8898
  779MOL0     C 2700   2.507   2.714   3.829  0.3461 -0.5639  0.9782
  779MOL0     C 2701   2.467   2.839   3.764 -0.0574  0.3395  0.4196
  779MOL0     C 2702   2.375   2.847   3.661  0.0428  0.4600 -0.3387
  779MOL0     C 2703   2.307   2.725   3.627  0.2942 -0.5705  0.2825
  779MOL0     O 2704   2.206   2.720   3.537 -0.3343 -0.7238 -0.2201
  779MOL0     C 2705   2.096   2.811   3.576 -0.7910 -0.9972 -0.2814
  779MOL0     C 2706   1.985   2.808   3.471 -0.5560  0.4734  0.4057
  779MOL0     C 2707   1.846   2.849   3.523  0.3177  0.4355 -1.3488
  779MOL0     C 2708   1.734   2.773   3.456  0.0824 -0.3367  0.7133
  779MOL0     C 2709   1.588   2.831   3.480  0.2607 -0.5583  0.2335
  779MOL0     C 2710   1.484   2.737   3.400  0.3895 -1.0971 -0.7714
  779MOL0     C 2711   1.340   2.793   3.417 -1.2397 -0.8044  0.4617
  779MOL0     C 2712   1.256   2.700   3.323  0.5281  0.1501 -0.3645
  779MOL0     N 2713   1.114   2.750   3.324  0.2655  0.6411  0.3894
  779MOL0     C 2714   1.035   2.808   3.222 -0.5314 -0.5957 -0.5973
  779MOL0     C 2715   0.912   2.802   3.284 -0.1922 -0.3203  0.4257
  779MOL0     C 2716   0.784   2.846   3.222  0.1690  0.3148 -0.8801
  779MOL0     C 2717   0.706   2.943   3.316 -0.1453 -0.1212  0.1632
  779MOL0     C 2718   0.596   2.994   3.223 -0.3843 -0.2621  0.2106
  779MOL0     C 2719   0.500   3.075   3.295  0.2449 -0.1872 -1.5131
  779MOL0     O 2720   0.390   3.100   3.209  1.4963  0.1321 -0.3868
  779MOL0     C 2721   0.273   3.147   3.267 -0.0539 -0.8261  0.5054
  779MOL0     C 2722   0.163   3.160   3.180 -0.4028  0.3360  1.5272
  779MOL0     C 2723   0.043   3.220   3.206  1.0412  0.2982 -0.1202
  779MOL0     C 2724   0.015   3.264   3.332 -0.1270 -0.0887 -0.0443
  779MOL0     C 2725  -0.120   3.324   3.372  0.4417  0.0422 -1.2069
  779MOL0     O 2726  -0.148   3.339   3.508 -0.0401  0.2438 -0.1860
  779MOL0     C 2727  -0.269   3.389   3.539 -0.1871  0.0221  0.1890
  779MOL0     C 2728  -0.274   3.522   3.579 -0.5400 -0.1927  0.5072
  779MOL0     C 2729  -0.391   3.586   3.614 -0.5530  0.5533  0.4040
  779MOL0     C 2730  -0.502   3.510   3.646  0.0367  0.2005 -0.7338
  779MOL0     O 2731  -0.617   3.576   3.689  0.4681 -0.0048 -0.2266
  779MOL0     C 2732  -0.663   3.546   3.819  0.1373  0.2654  0.3125
  779MOL0     C 2733  -0.787   3.631   3.844  1.0009 -0.8653 -0.1818
  779MOL0     C 2734  -0.877   3.593   3.972  0.0420  0.4245  1.0498
  779MOL0     C 2735  -0.803   3.629   4.101  0.8645 -1.1391 -0.0663
  779MOL0     C 2736  -0.892   3.608   4.228 -1.5535  0.8928 -0.4399
  779MOL0     C 2737  -1.011   3.698   4.235  0.0799 -0.2149  0.2509
  779MOL0     C 2738  -1.101   3.640   4.338  0.2493  0.7685  0.1822
  779MOL0     C 2739  -1.232   3.719   4.350  0.3555  0.2499  0.4792
  779MOL0    Cl 2740  -1.199   3.891   4.366 -0.1419  0.3304 -0.5199
  779MOL0     C 2741  -0.493   3.366   3.626  0.0928  1.2217 -0.0154
  779MOL0     C 2742  -0.379   3.304   3.577  0.8651 -0.1455  0.6952
  779MOL0     O 2743  -0.200   3.345   3.278 -0.2325 -0.1026 -0.9982
  779MOL0     C 2744   0.125   3.247   3.428  0.0616  0.1006 -0.4860
  779MOL0     C 2745   0.248   3.208   3.389  0.1034  0.1084  0.9702
  779MOL0     N 2746   0.916   2.749   3.413 -0.4648 -0.5917  0.2430
  779MOL0     N 2747   1.034   2.705   3.426 -0.0747 -0.0930  0.0520
  779MOL0     C 2748   2.341   2.600   3.690  1.3873 -0.1490 -0.0783
  779MOL0     C 2749   2.437   2.597   3.789  0.1368  0.7133 -0.1267
  779MOL0     C 2750   2.859   2.747   3.969  0.5272  0.7662  0.2919
  779MOL0     C 2751   2.830   2.723   4.102 -0.0856 -0.1756  0.0746
  779MOL0     C 2752   2.942   2.705   4.180 -0.7785 -0.2173 -0.5905
  779MOL0     C 2753   3.077   2.707   4.131  0.2730  0.0326  0.8830
  779MOL0     O 2754   3.182   2.700   4.216 -0.4344  0.0770  0.5857
  779MOL0     C 2755   3.234   2.829   4.259  0.0947 -0.3558  0.2353
  779MOL0     C 2756   3.138   2.916   4.347 -0.6277 -0.4636 -0.0461
  779MOL0     C 2757   3.209   3.051   4.393  0.5477 -0.2953  0.7092
  779MOL0     C 2758   3.359   3.032   4.417  0.5671  0.9285 -0.1392
  779MOL0     C 2759   3.419   3.141   4.496 -0.4332  0.6000  0.5329
  779MOL0     C 2760   3.483   3.238   4.541 -1.2372  0.2453  0.5691
  779MOL0     C 2761   3.103   2.722   3.991  0.7831  0.2027 -1.0751
  779MOL0     C 2762   2.988   2.744   3.912  0.5757 -0.4165  0.4448
  779MOL0     H 2763   2.508   2.932   3.803 -0.4731 -0.4695  2.9753
  779MOL0     H 2764   2.357   2.945   3.618  2.5153  0.7091 -0.9431
  779MOL0     H 2765   2.129   2.916   3.578 -1.7516 -0.6750 -0.6153
  779MOL0     H 2766   2.050   2.786   3.672 -1.0366  0.5477  0.0423
  779MOL0     H 2767   1.979   2.710   3.424 -1.4913  1.6565 -2.1655
  779MOL0     H 2768   2.019   2.877   3.394 -1.9629  1.3784  0.5518
  779MOL0     H 2769   1.846   2.957   3.505 -0.5195  0.8074  0.6506
  779MOL0     H 2770   1.840   2.823   3.629  6.4318 -0.9861 -0.9567
  779MOL0     H 2771   1.735   2.761   3.347 -0.8663 -1.7206  0.8326
  779MOL0     H 2772   1.733   2.669   3.488 -0.1510 -1.2363 -1.9303
  779MOL0     H 2773   1.582   2.932   3.438  0.3683 -0.0908  1.3079
  779MOL0     H 2774   1.566   2.843   3.587 -0.3608 -0.3623  0.0888
  779MOL0     H 2775   1.480   2.632   3.432  0.8071 -0.5297  1.2741
  779MOL0     H 2776   1.508   2.745   3.293  3.3847  1.6779 -0.0447
  779MOL0     H 2777   1.301   2.782   3.518 -0.9713  2.6448  1.0740
  779MOL0     H 2778   1.334   2.897   3.383 -3.5885  0.1271  3.2840
  779MOL0     H 2779   1.265   2.595   3.354  1.2120 -0.8172 -3.5373
  779MOL0     H 2780   1.304   2.698   3.225  3.4712 -2.3218  0.9463
  779MOL0     H 2781   1.064   2.824   3.118 -0.5764 -0.3992 -0.5804
  779MOL0     H 2782   0.718   2.758   3.212 -1.8614  1.7866 -1.1060
  779MOL0     H 2783   0.798   2.880   3.120  1.5077 -1.1498 -1.2320
  779MOL0     H 2784   0.767   3.030   3.344  1.9844 -1.0512 -1.2455
  779MOL0     H 2785   0.664   2.897   3.405 -2.6236  1.4539 -0.1089
  779MOL0     H 2786   0.635   3.047   3.135 -1.6784  1.1567  0.4498
  779MOL0     H 2787   0.551   2.898   3.196  2.2285 -3.2978  5.3161
  779MOL0     H 2788   0.552   3.168   3.319  0.5773 -1.0842  1.7267
  779MOL0     H 2789   0.469   3.030   3.390 -2.3162  3.3693 -0.4561
  779MOL0     H 2790   0.163   3.103   3.088 -2.2173 -1.3355  2.5025
  779MOL0     H 2791  -0.024   3.236   3.123  0.5798  2.1107  0.5526
  779MOL0     H 2792  -0.182   3.580   3.579  0.4329 -1.6846 -0.3583
  779MOL0     H 2793  -0.408   3.693   3.622 -2.7706  0.7506 -3.7127
  779MOL0     H 2794  -0.596   3.562   3.904 -2.1863  1.5480  1.9928
  779MOL0     H 2795  -0.693   3.441   3.821 -1.4687  0.7026  2.8161
  779MOL0     H 2796  -0.844   3.628   3.751  0.4156  0.0301  0.1350
  779MOL0     H 2797  -0.760   3.736   3.858 -0.4924 -0.3938 -0.6729
  779MOL0     H 2798  -0.896   3.485   3.968  1.1093  0.2413  0.7091
  779MOL0     H 2799  -0.973   3.644   3.957  0.9485  1.5549 -1.5246
  779MOL0     H 2800  -0.711   3.571   4.100  0.3790 -2.0870  2.6400
  779MOL0     H 2801  -0.782   3.737   4.107  0.7778 -0.9445 -2.3512
  779MOL0     H 2802  -0.820   3.618   4.310  0.5682  1.0009 -2.1914
  779MOL0     H 2803  -0.911   3.500   4.230  1.0249  0.3492 -1.2462
  779MOL0     H 2804  -1.066   3.702   4.141  0.1897  0.0167  0.1952
  779MOL0     H 2805  -0.983   3.802   4.254  2.1030  0.3059 -4.3219
  779MOL0     H 2806  -1.142   3.543   4.306 -5.0125  2.7658 -0.2377
  779MOL0     H 2807  -1.049   3.653   4.434  1.9528 -2.2144 -0.2207
  779MOL0     H 2808  -1.295   3.695   4.436 -0.9268 -0.7733 -0.6982
  779MOL0     H 2809  -1.290   3.689   4.262 -0.4775  4.6947 -0.7002
  779MOL0     H 2810  -0.585   3.316   3.651  0.3064  0.4050 -0.8068
  779MOL0     H 2811  -0.365   3.197   3.575  3.4497  0.0571  2.3275
  779MOL0     H 2812   0.112   3.292   3.525  2.5720 -4.2447  2.1752
  779MOL0     H 2813   0.323   3.218   3.466 -0.0106  0.5967  1.0233
  779MOL0     H 2814   2.282   2.516   3.656 -0.1044  0.4190  0.9599
  779MOL0     H 2815   2.456   2.506   3.844 -0.6659  0.4513 -0.2622
  779MOL0     H 2816   2.728   2.728   4.138 -0.4653 -2.4928 -0.5706
  779MOL0     H 2817   2.934   2.715   4.287  0.3897  0.4452 -0.5547
  779MOL0     H 2818   3.253   2.885   4.167 -1.3933 -0.3801 -0.1031
  779MOL0     H 2819   3.331   2.810   4.306  0.4922 -2.3302 -1.2622
  779MOL0     H 2820   3.051   2.948   4.289 -2.0051 -0.5235  1.8993
  779MOL0     H 2821   3.108   2.863   4.438  0.8224  0.1716  0.8456
  779MOL0     H 2822   3.150   3.077   4.481 -0.2326 -0.0579  0.1274
  779MOL0     H 2823   3.186   3.123   4.314 -0.0786  0.4533  1.5587
  779MOL0     H 2824   3.376   2.939   4.473 -0.0195 -0.6430 -2.4419
  779MOL0     H 2825   3.411   3.010   4.323  2.4256  0.0476  1.0318
  779MOL0     H 2826   3.532   3.323   4.584 -0.7806  1.0911 -1.4962
  779MOL0     H 2827   3.205   2.709   3.956  2.5735  2.4128  2.7346
  779MOL0     H 2828   2.993   2.765   3.805  3.0321 -0.0157  0.5721
  780MOL0     O 2829   7.110   5.200   6.295 -0.0388 -0.5984 -0.7147
  780MOL0     C 2830   7.200   5.131   6.253 -0.7176  0.0308  0.0567
  780MOL0     O 2831   7.189   5.020   6.177  0.2584  0.1780  0.7611
  780MOL0     C 2832   7.071   4.959   6.151 -0.6056  0.2392  0.2888
  780MOL0     C 2833   6.953   4.962   6.232  0.1692  0.1108 -0.9440
  780MOL0     C 2834   6.842   4.890   6.194 -0.8783  0.7271 -0.0728
  780MOL0     C 2835   6.850   4.799   6.080  0.1684  0.9271 -0.6978
  780MOL0     O 2836   6.755   4.706   6.030  0.1166 -0.2588  0.0742
  780MOL0     C 2837   6.627   4.712   6.096 -0.7289  0.2677  0.0392
  780MOL0     C 2838   6.544   4.594   6.037  0.6116  0.2198 -0.3051
  780MOL0     C 2839   6.409   4.592   6.106  1.1315  0.3518 -0.0569
  780MOL0     C 2840   6.315   4.474   6.072 -0.3698  0.0648  0.7429
  780MOL0     C 2841   6.186   4.466   6.161 -1.2509  0.2928  0.3860
  780MOL0     C 2842   6.101   4.591   6.164 -0.6109 -0.7155  0.7503
  780MOL0     C 2843   5.955   4.546   6.211  0.3798 -0.2756  0.4158
  780MOL0     C 2844   5.884   4.492   6.081  0.5235 -0.6968 -0.7742
  780MOL0     N 2845   5.749   4.434   6.103 -0.9102  0.3733  0.1801
  780MOL0     C 2846   5.638   4.502   6.069  1.2412 -1.2257  0.4346
  780MOL0     C 2847   5.525   4.441   6.120  0.0658  0.3629 -0.7175
  780MOL0     C 2848   5.375   4.469   6.088  0.0735  0.2845 -0.3529
  780MOL0     C 2849   5.339   4.482   5.932  0.1147  0.1003  0.4187
  780MOL0     C 2850   5.190   4.464   5.915  0.4738 -0.7394  0.3340
  780MOL0     C 2851   5.150   4.496   5.773 -0.1203 -0.7592  0.2352
  780MOL0     O 2852   5.156   4.642   5.779  1.3806  0.2862 -0.8037
  780MOL0     C 2853   5.065   4.709   5.704  0.9380  0.3627 -0.0384
  780MOL0     C 2854   5.050   4.853   5.704 -0.0237  0.4610  0.0469
  780MOL0     C 2855   4.963   4.927   5.624  0.2038  0.1962 -1.1658
  780MOL0     C 2856   4.889   4.866   5.526  0.1714  0.5627  0.2334
  780MOL0     C 2857   4.809   4.956   5.437  0.6169 -0.2193 -0.5623
  780MOL0     O 2858   4.784   5.094   5.474  0.1650 -0.2478  0.0759
  780MOL0     C 2859   4.704   5.176   5.393 -0.2114 -0.7392  0.1303
  780MOL0     C 2860   4.650   5.161   5.262  0.1493  0.2866 -1.1194
  780MOL0     C 2861   4.580   5.261   5.202 -0.7233  0.7532 -0.3242
  780MOL0     C 2862   4.557   5.388   5.264  0.0876 -0.3316  0.2593
  780MOL0     O 2863   4.509   5.497   5.202  0.2876  0.3246  0.4351
  780MOL0     C 2864   4.381   5.491   5.138 -1.1550  0.0049 -0.4637
  780MOL0     C 2865   4.353   5.641   5.094 -1.2350  0.8207 -0.7404
  780MOL0     C 2866   4.229   5.627   4.996 -0.0944  0.2880  0.6764
  780MOL0     C 2867   4.168   5.768   4.977 -0.0126  0.1638 -0.2284
  780MOL0     C 2868   4.057   5.756   4.873 -0.0408  0.4916  0.7345
  780MOL0     C 2869   4.010   5.888   4.822  0.6458 -0.1858 -0.3928
  780MOL0     C 2870   3.895   5.876   4.722 -1.0006 -0.0870  0.0077
  780MOL0     C 2871   3.846   6.002   4.655 -0.4855 -0.5801 -0.8914
  780MOL0    Cl 2872   3.749   6.090   4.783  0.1225  0.4397  0.4240
  780MOL0     C 2873   4.602   5.409   5.397  0.6429 -0.6171 -0.0773
  780MOL0     C 2874   4.672   5.302   5.451 -0.0476  0.7463 -0.4480
  780MOL0     O 2875   4.766   4.898   5.333  0.6464 -0.5149 -0.7614
  780MOL0     C 2876   4.895   4.724   5.517  0.9615 -0.5371 -0.2650
  780MOL0     C 2877   4.989   4.646   5.601 -0.9226  0.7233  0.1548
  780MOL0     N 2878   5.574   4.326   6.180  1.0904  0.4171 -0.1790
  780MOL0     N 2879   5.703   4.326   6.171 -0.7781 -0.0757 -1.0788
  780MOL0     C 2880   6.965   4.796   6.002  0.4161 -0.0009 -0.0015
  780MOL0     C 2881   7.072   4.873   6.046 -0.2926  0.4713  1.0898
  780MOL0     C 2882   7.342   5.168   6.302 -0.3155  0.1979  0.2310
  780MOL0     C 2883   7.364   5.301   6.364 -0.3743  0.5727  0.6430
  780MOL0     C 2884   7.494   5.330   6.396 -0.2036 -0.1320  0.2551
  780MOL0     C 2885   7.602   5.251   6.350 -0.0066 -0.8590 -0.1939
  780MOL0     O 2886   7.730   5.289   6.345 -0.0914 -0.3379 -0.2116
  780MOL0     C 2887   7.771   5.394   6.431 -1.4158  0.1057 -0.0018
  780MOL0     C 2888   7.925   5.379   6.425 -0.3033  0.3998  0.7914
  780MOL0     C 2889   7.992   5.439   6.551 -0.2291  0.8338  0.8294
  780MOL0     C 2890   8.142   5.433   6.546  0.2691 -0.7685  0.1561
  780MOL0     C 2891   8.190   5.537   6.452  0.2171 -0.0096 -0.1984
  780MOL0     C 2892   8.238   5.611   6.366  0.3472 -0.9028 -0.4045
  780MOL0     C 2893   7.585   5.126   6.282 -0.0376  0.2369 -0.6553
  780MOL0     C 2894   7.452   5.088   6.271 -0.2797  0.4217  0.1694
  780MOL0     H 2895   6.938   5.025   6.318  0.5866  2.4330 -2.4662
  780MOL0     H 2896   6.744   4.894   6.240 -1.4995  1.6835 -1.3941
  780MOL0     H 2897   6.579   4.810   6.097  1.0239  1.2002  2.1231
  780MOL0     H 2898   6.650   4.683   6.199 -2.3388 -0.4680  0.2211
  780MOL0     H 2899   6.590   4.496   6.054  1.1723  0.1424 -2.1011
  780MOL0     H 2900   6.526   4.598   5.929  0.3337 -0.7159 -0.3027
  780MOL0     H 2901   6.363   4.689   6.085 -1.4935 -1.1659 -1.8941
  780MOL0     H 2902   6.430   4.585   6.214  0.8137 -0.2734 -0.0291
  780MOL0     H 2903   6.285   4.493   5.968  0.4719 -0.8079  0.3186
  780MOL0     H 2904   6.377   4.384   6.084  2.0098  1.7298  1.7117
  780MOL0     H 2905   6.210   4.444   6.265 -1.3151  0.1558  0.3719
  780MOL0     H 2906   6.135   4.374   6.132  0.9829 -0.5109 -1.2201
  780MOL0     H 2907   6.104   4.638   6.065 -1.3586 -1.5558  0.3195
  780MOL0     H 2908   6.150   4.656   6.238  2.3455 -1.1379 -0.6864
  780MOL0     H 2909   5.956   4.472   6.291 -2.3199  0.0345  0.8232
  780MOL0     H 2910   5.900   4.634   6.246 -0.1918 -0.4481 -0.0272
  780MOL0     H 2911   5.945   4.410   6.042 -1.0924 -0.8943 -3.0945
  780MOL0     H 2912   5.880   4.573   6.008  1.0671 -0.9724 -1.1173
  780MOL0     H 2913   5.635   4.580   5.994  1.4328 -1.4477  0.1917
  780MOL0     H 2914   5.345   4.562   6.136  1.2414  0.8696 -0.7168
  780MOL0     H 2915   5.322   4.384   6.133 -0.9848  0.6873 -0.8237
  780MOL0     H 2916   5.386   4.395   5.885 -2.1679  0.5709 -3.0639
  780MOL0     H 2917   5.380   4.578   5.899  0.3508 -0.7942 -2.1241
  780MOL0     H 2918   5.163   4.359   5.928 -0.9166 -0.7784 -2.2480
  780MOL0     H 2919   5.144   4.538   5.982  0.4062  3.0063 -3.4354
  780MOL0     H 2920   5.053   4.451   5.748  1.1377 -2.5213 -1.8120
  780MOL0     H 2921   5.216   4.451   5.699 -0.9752 -1.8220  0.0875
  780MOL0     H 2922   5.113   4.909   5.773 -0.8218  1.5536 -0.0938
  780MOL0     H 2923   4.979   5.034   5.635  0.3921  0.0148  0.5491
  780MOL0     H 2924   4.658   5.072   5.201 -2.2098  0.8473 -2.3566
  780MOL0     H 2925   4.541   5.233   5.105 -0.0993 -2.0706  0.1294
  780MOL0     H 2926   4.300   5.450   5.199 -3.2693 -0.2053 -3.2100
  780MOL0     H 2927   4.386   5.441   5.041  0.2011 -3.2891  1.1457
  780MOL0     H 2928   4.441   5.689   5.049  0.4428 -1.6730 -0.3248
  780MOL0     H 2929   4.319   5.701   5.178  1.3908  0.1781  0.8898
  780MOL0     H 2930   4.154   5.566   5.046  0.8551  0.5615  2.5557
  780MOL0     H 2931   4.268   5.588   4.901  0.0770  0.0295  0.8510
  780MOL0     H 2932   4.136   5.804   5.075  1.0433  0.0145  0.1928
  780MOL0     H 2933   4.246   5.841   4.956  0.0224  1.0150  2.4640
  780MOL0     H 2934   3.981   5.704   4.931  1.3041  0.5870  2.6846
  780MOL0     H 2935   4.101   5.693   4.795  0.0233  1.3954  0.0221
  780MOL0     H 2936   4.092   5.944   4.777 -0.2755  2.7716  1.3706
  780MOL0     H 2937   3.964   5.945   4.903 -1.2540  1.6611 -2.6182
  780MOL0     H 2938   3.935   5.810   4.645 -0.9075  0.9661 -0.8733
  780MOL0     H 2939   3.810   5.822   4.764 -0.0778 -1.5180  0.1077
  780MOL0     H 2940   3.781   5.960   4.577  1.6865 -0.1205 -3.0893
  780MOL0     H 2941   3.925   6.071   4.624  0.6650 -1.5785 -0.2680
  780MOL0     H 2942   4.572   5.488   5.466 -1.6931 -0.6528 -0.9623
  780MOL0     H 2943   4.703   5.328   5.552  0.4384 -1.0571 -0.1081
  780MOL0     H 2944   4.840   4.678   5.436  0.2100  1.5364 -0.9938
  780MOL0     H 2945   5.021   4.548   5.567 -0.5546 -0.3208  3.1616
  780MOL0     H 2946   6.960   4.750   5.904 -0.7812  2.7343 -1.3440
  780MOL0     H 2947   7.162   4.870   5.985 -1.0646  0.7545 -0.1164
  780MOL0     H 2948   7.272   5.352   6.389 -1.5761 -2.0134  1.9247
  780MOL0     H 2949   7.510   5.430   6.437  1.7619 -1.5823  3.3452
  780MOL0     H 2950   7.740   5.383   6.535  1.1897 -0.5951  0.7768
  780MOL0     H 2951   7.745   5.488   6.382 -1.8127 -0.7886 -1.5797
  780MOL0     H 2952   7.961   5.276   6.424  0.0490  0.4605 -1.9412
  780MOL0     H 2953   7.958   5.428   6.333 -0.1023 -1.5669 -0.2403
  780MOL0     H 2954   7.963   5.391   6.644  0.8239  1.7757  1.6660
  780MOL0     H 2955   7.954   5.542   6.559 -2.2985  0.3291 -1.1363
  780MOL0     H 2956   8.160   5.458   6.651 -3.8522 -0.6389  0.9953
  780MOL0     H 2957   8.179   5.339   6.504 -2.1995 -1.7802  0.0892
  780MOL0     H 2958   8.263   5.684   6.291  0.0224  1.9971  2.0922
  780MOL0     H 2959   7.670   5.067   6.249  0.1789  1.6276 -2.8596
  780MOL0     H 2960   7.421   5.003   6.211 -0.3993 -0.1182  0.9762
  781MOL0     O 2961   8.744   6.489   8.891  0.0273 -0.2264  0.2753
  781MOL0     C 2962   8.804   6.445   8.991  0.2017  0.1888  0.7081
  781MOL0     O 2963   8.743   6.435   9.117  0.6727 -0.3974  0.1584
  781MOL0     C 2964   8.607   6.440   9.126  0.3277  0.0147 -0.0431
  781MOL0     C 2965   8.520   6.360   9.050 -0.6858  0.1571 -0.6691
  781MOL0     C 2966   8.383   6.362   9.061  0.1439 -0.1427 -0.0209
  781MOL0     C 2967   8.333   6.460   9.143  0.1689  0.6641  0.1492
  781MOL0     O 2968   8.198   6.470   9.153  0.5252  0.6818 -0.0696
  781MOL0     C 2969   8.139   6.598   9.132 -0.2901 -0.4050  0.5672
  781MOL0     C 2970   7.980   6.596   9.153 -0.5269  0.5896 -1.1201
  781MOL0     C 2971   7.908   6.509   9.054 -0.8027  0.3307  0.1549
  781MOL0     C 2972   7.938   6.526   8.909 -0.8727  0.7911 -0.1641
  781MOL0     C 2973   7.889   6.414   8.818 -0.3533 -0.0871  0.5327
  781MOL0     C 2974   7.976   6.295   8.814  0.3165  0.8313 -0.2121
  781MOL0     C 2975   7.944   6.191   8.698 -0.0069  0.8544  0.2005
  781MOL0     C 2976   8.024   6.230   8.565 -0.2914 -0.2568  0.5982
  781MOL0     N 2977   8.042   6.128   8.460 -0.8863  0.1592 -0.2501
  781MOL0     C 2978   8.060   5.993   8.493  0.0779  0.6266  0.1857
  781MOL0     C 2979   8.066   5.927   8.373  0.5061  0.2186  0.1823
  781MOL0     C 2980   8.084   5.784   8.348  0.3524  0.4338 -0.0583
  781MOL0     C 2981   7.962   5.708   8.424  0.3093 -0.5559  0.1138
  781MOL0     C 2982   8.008   5.653   8.563 -0.8464  0.0946  0.6531
  781MOL0     C 2983   7.904   5.601   8.667 -0.3894 -0.0227 -0.1731
  781MOL0     O 2984   7.804   5.535   8.571 -0.4387  0.0752  0.2786
  781MOL0     C 2985   7.678   5.525   8.634 -0.0152  0.4472  0.1480
  781MOL0     C 2986   7.570   5.578   8.570 -0.4333 -0.2812 -0.1849
  781MOL0     C 2987   7.438   5.576   8.615 -0.3293  0.1367  0.8563
  781MOL0     C 2988   7.413   5.530   8.743  0.9071 -0.3725  0.0082
  781MOL0     C 2989   7.276   5.535   8.804  0.5779  0.3513  0.0916
  781MOL0     O 2990   7.192   5.634   8.756  0.0296  0.7656  0.1605
  781MOL0     C 2991   7.067   5.651   8.811  0.0678 -0.3555 -0.9609
  781MOL0     C 2992   7.015   5.778   8.844 -0.4353  0.5272  0.8095
  781MOL0     C 2993   6.887   5.787   8.894  1.4123  0.6132 -0.4994
  781MOL0     C 2994   6.816   5.676   8.935 -0.2892 -0.5824  0.0636
  781MOL0     O 2995   6.696   5.715   8.981 -0.1612 -0.9619  0.5178
  781MOL0     C 2996   6.616   5.614   9.036  0.4779  0.2597 -0.7030
  781MOL0     C 2997   6.512   5.577   8.938  0.2370  0.0219  0.2709
  781MOL0     C 2998   6.455   5.432   8.958  0.7592  1.0159 -0.2882
  781MOL0     C 2999   6.355   5.385   8.848 -0.1212  0.5005 -0.1510
  781MOL0     C 3000   6.306   5.230   8.853  0.0794 -1.0216 -0.1906
  781MOL0     C 3001   6.239   5.192   8.979  0.2743 -0.0023 -0.1985
  781MOL0     C 3002   6.204   5.042   8.971 -0.2082 -0.9432  1.0655
  781MOL0     C 3003   6.305   4.936   8.959 -0.3852 -0.3503 -0.4599
  781MOL0    Cl 3004   6.410   4.926   9.101 -0.2678 -0.3601 -0.5485
  781MOL0     C 3005   6.861   5.549   8.899 -0.0350 -0.0788 -0.0514
  781MOL0     C 3006   6.981   5.542   8.835 -0.2026 -0.6632  0.4041
  781MOL0     O 3007   7.263   5.479   8.911  0.0732  0.7096  0.0107
  781MOL0     C 3008   7.522   5.468   8.810 -1.5476  0.9265  0.4670
  781MOL0     C 3009   7.656   5.460   8.757 -0.5863  0.4644  0.2520
  781MOL0     N 3010   8.068   6.017   8.270  0.4332 -0.8135 -0.1122
  781MOL0     N 3011   8.056   6.132   8.327 -0.4327  0.6747 -0.7578
  781MOL0     C 3012   8.418   6.552   9.213  0.4525  0.3519  0.3488
  781MOL0     C 3013   8.555   6.541   9.210 -0.4978 -0.9877  0.8484
  781MOL0     C 3014   8.950   6.420   8.975 -0.0206  0.6469 -0.1751
  781MOL0     C 3015   9.024   6.380   9.092  0.9525  0.2913 -0.5111
  781MOL0     C 3016   9.157   6.349   9.073  0.1250 -0.1618  0.0576
  781MOL0     C 3017   9.226   6.362   8.959  0.2204  0.0345 -0.5670
  781MOL0     O 3018   9.368   6.337   8.938  0.0988  0.2399 -0.8658
  781MOL0     C 3019   9.435   6.251   9.033  0.2514  0.4424  0.5948
  781MOL0     C 3020   9.571   6.226   8.963  0.5369  0.4489 -0.2268
  781MOL0     C 3021   9.541   6.148   8.831 -0.3066  0.1463 -0.4960
  781MOL0     C 3022   9.660   6.148   8.733  0.3534  0.5060 -0.2569
  781MOL0     C 3023   9.686   6.288   8.695  0.7012  0.4771  0.3519
  781MOL0     C 3024   9.703   6.408   8.664  0.0823 -0.0286  0.5694
  781MOL0     C 3025   9.158   6.410   8.847  0.2512  0.0499  0.5489
  781MOL0     C 3026   9.021   6.433   8.851 -0.3326  0.4968  0.4756
  781MOL0     H 3027   8.564   6.291   8.978  1.0972  0.1369  0.3921
  781MOL0     H 3028   8.309   6.308   9.003 -2.0138  3.7500 -1.2761
  781MOL0     H 3029   8.162   6.630   9.030  0.2847 -0.1648  0.7710
  781MOL0     H 3030   8.174   6.673   9.203 -1.7057 -0.0424  0.9278
  781MOL0     H 3031   7.949   6.700   9.164  0.8558  0.8067  2.2641
  781MOL0     H 3032   7.975   6.548   9.252  0.9795  2.1460 -0.2152
  781MOL0     H 3033   7.803   6.501   9.083 -0.6531 -2.4589  0.2221
  781MOL0     H 3034   7.938   6.406   9.077  0.0358 -0.1625 -2.7504
  781MOL0     H 3035   7.880   6.610   8.871 -4.1359 -1.9849 -1.8673
  781MOL0     H 3036   8.043   6.551   8.890  0.6246 -2.3307  2.8852
  781MOL0     H 3037   7.901   6.454   8.717  2.3171  0.0710  0.8251
  781MOL0     H 3038   7.783   6.390   8.831 -1.0764  1.5729 -1.6510
  781MOL0     H 3039   7.965   6.245   8.911  0.2897  2.8017  0.8441
  781MOL0     H 3040   8.083   6.316   8.811  1.0294 -1.9210  1.8930
  781MOL0     H 3041   7.990   6.101   8.738 -2.0777 -1.3642 -2.0651
  781MOL0     H 3042   7.839   6.169   8.675 -0.2190 -1.9743  3.1144
  781MOL0     H 3043   8.120   6.277   8.590  0.4044 -1.7407  0.8286
  781MOL0     H 3044   7.970   6.314   8.520  0.6087  1.0549  1.8700
  781MOL0     H 3045   8.071   5.942   8.588  1.1448  1.2950  0.4313
  781MOL0     H 3046   8.188   5.757   8.365  0.4371  0.2484 -0.8558
  781MOL0     H 3047   8.089   5.750   8.244  3.5865 -1.7975  0.6925
  781MOL0     H 3048   7.922   5.630   8.359 -0.4480  0.6370 -0.8852
  781MOL0     H 3049   7.874   5.771   8.441  0.9197  0.6821 -1.1158
  781MOL0     H 3050   8.079   5.575   8.532 -1.0475  1.1205 -2.8190
  781MOL0     H 3051   8.068   5.725   8.618  1.4883 -1.2153  0.0028
  781MOL0     H 3052   7.865   5.687   8.722 -0.0278 -0.3129  0.5471
  781MOL0     H 3053   7.945   5.524   8.732 -2.6259 -0.0032  1.3725
  781MOL0     H 3054   7.597   5.614   8.470  2.9143 -0.4630  0.5438
  781MOL0     H 3055   7.358   5.595   8.545  0.6309 -3.2463 -1.4153
  781MOL0     H 3056   7.072   5.871   8.843  0.7428 -0.1531 -1.3485
  781MOL0     H 3057   6.856   5.890   8.893  0.2344  0.2910  0.7116
  781MOL0     H 3058   6.572   5.658   9.127 -0.7115 -1.9985 -0.0911
  781MOL0     H 3059   6.665   5.519   9.062  0.5543 -0.1440 -2.2388
  781MOL0     H 3060   6.552   5.585   8.837  1.2521 -1.2122  0.5500
  781MOL0     H 3061   6.425   5.643   8.936 -2.1838 -2.9537 -0.9811
  781MOL0     H 3062   6.406   5.429   9.056 -1.4106  1.0009 -1.3345
  781MOL0     H 3063   6.539   5.362   8.958  1.7524  1.9267  3.5934
  781MOL0     H 3064   6.266   5.448   8.850  0.2663  1.0481  0.2084
  781MOL0     H 3065   6.410   5.391   8.754  1.7172 -0.2325  0.8254
  781MOL0     H 3066   6.388   5.160   8.839 -0.2022 -1.4722  0.4001
  781MOL0     H 3067   6.233   5.228   8.771 -1.3902  3.2918  0.7192
  781MOL0     H 3068   6.142   5.240   8.991 -1.1393 -2.5263 -0.7042
  781MOL0     H 3069   6.303   5.214   9.065  1.0453 -0.7923 -0.5532
  781MOL0     H 3070   6.164   5.018   9.070 -3.5131  0.7674  0.2854
  781MOL0     H 3071   6.124   5.026   8.898  1.4680 -0.9216 -0.8434
  781MOL0     H 3072   6.369   4.948   8.871  0.5607 -1.5694  0.0385
  781MOL0     H 3073   6.247   4.844   8.950 -1.5428  0.4827 -2.1411
  781MOL0     H 3074   6.805   5.458   8.917 -0.8002  0.8392  2.7678
  781MOL0     H 3075   7.011   5.444   8.797  1.2426  0.2895 -1.0552
  781MOL0     H 3076   7.518   5.432   8.912 -1.6102 -3.3072 -0.8022
  781MOL0     H 3077   7.741   5.414   8.808  0.0876  0.1090 -1.1457
  781MOL0     H 3078   8.369   6.622   9.281  2.3752 -0.2804  2.4993
  781MOL0     H 3079   8.611   6.622   9.255 -0.7519 -0.2862 -0.0598
  781MOL0     H 3080   8.978   6.360   9.189 -1.3174 -0.6147 -1.6850
  781MOL0     H 3081   9.197   6.319   9.169  1.0940  2.0910  0.4319
  781MOL0     H 3082   9.374   6.161   9.050 -1.6960  1.9657  2.2035
  781MOL0     H 3083   9.445   6.303   9.128 -2.2438 -0.9415  1.6954
  781MOL0     H 3084   9.622   6.322   8.955  1.9310 -0.2814 -0.4127
  781MOL0     H 3085   9.632   6.169   9.034  0.0314 -1.1665 -1.0412
  781MOL0     H 3086   9.456   6.191   8.778 -0.7475  2.5135  1.9190
  781MOL0     H 3087   9.523   6.041   8.850  1.1682 -0.0871 -0.3461
  781MOL0     H 3088   9.746   6.103   8.783  0.3484 -3.1219 -3.1054
  781MOL0     H 3089   9.639   6.085   8.646  0.2448  0.6720 -0.3530
  781MOL0     H 3090   9.719   6.508   8.629  3.5503  0.3202  2.6326
  781MOL0     H 3091   9.205   6.420   8.749 -2.6400 -3.0532 -1.3626
  781MOL0     H 3092   8.968   6.457   8.759  2.6730  0.6381 -1.3491
  782MOL0     O 3093   5.296   7.878   2.623  0.9085 -0.2310  0.3953
  782MOL0     C 3094   5.231   7.978   2.641 -0.0772  0.4295  1.1426
  782MOL0     O 3095   5.235   8.090   2.557  0.3308 -0.5688  0.2182
  782MOL0     C 3096   5.311   8.096   2.443  0.2646 -0.0339 -0.8323
  782MOL0     C 3097   5.321   7.988   2.353  0.0940 -0.4060 -0.0737
  782MOL0     C 3098   5.407   7.986   2.242 -0.2354  0.4750 -0.2588
  782MOL0     C 3099   5.499   8.085   2.231  0.1073 -0.5855 -0.2271
  782MOL0     O 3100   5.583   8.073   2.124  0.2028  0.3540 -0.2417
  782MOL0     C 3101   5.609   8.196   2.046  0.5144 -0.4707  0.5539
  782MOL0     C 3102   5.744   8.254   2.093  0.5391 -0.3812 -0.3534
  782MOL0     C 3103   5.808   8.344   1.983 -0.3764 -0.2212 -0.3619
  782MOL0     C 3104   5.834   8.282   1.848 -0.0670  0.0043 -0.7337
  782MOL0     C 3105   5.813   8.381   1.725 -0.4668  0.0903 -0.4563
  782MOL0     C 3106   5.905   8.502   1.736 -0.0948 -0.0335  0.5023
  782MOL0     C 3107   5.886   8.612   1.626  0.3455  0.1921  0.1339
  782MOL0     C 3108   5.885   8.560   1.481 -1.4043 -0.2094 -0.6450
  782MOL0     N 3109   5.766   8.487   1.436  0.0934 -0.2024 -0.1495
  782MOL0     C 3110   5.631   8.522   1.480 -0.9400 -0.2553 -0.7779
  782MOL0     C 3111   5.555   8.421   1.428  0.4045 -0.4798  0.6193
  782MOL0     C 3112   5.406   8.414   1.443  0.7916 -0.2975  0.6079
  782MOL0     C 3113   5.350   8.276   1.466 -0.0580 -0.0928  0.9763
  782MOL0     C 3114   5.377   8.214   1.607  0.5627  0.4519 -0.4790
  782MOL0     C 3115   5.263   8.255   1.701  0.0776 -0.9529  0.2232
  782MOL0     O 3116   5.262   8.144   1.799  0.4630 -0.7950 -0.0767
  782MOL0     C 3117   5.145   8.111   1.872 -0.0632 -1.0398  0.4669
  782MOL0     C 3118   5.138   7.996   1.954 -0.1226 -0.0179  0.8659
  782MOL0     C 3119   5.025   7.972   2.039  0.5425 -0.1640 -0.0679
  782MOL0     C 3120   4.911   8.046   2.022  0.2386  0.0074 -0.1577
  782MOL0     C 3121   4.788   8.016   2.097  0.9645 -1.0954  0.0570
  782MOL0     O 3122   4.672   8.069   2.042 -0.3408 -0.5605 -0.5477
  782MOL0     C 3123   4.554   8.039   2.104  0.4365 -0.0514  0.3258
  782MOL0     C 3124   4.471   7.945   2.049  0.8457 -0.2866  0.1497
  782MOL0     C 3125   4.346   7.918   2.111 -0.1354 -0.5665 -0.2718
  782MOL0     C 3126   4.300   7.993   2.226  0.2616  1.0235  0.9261
  782MOL0     O 3127   4.174   7.966   2.267  0.6922 -0.3428  0.7670
  782MOL0     C 3128   4.164   7.972   2.408  0.6366 -0.9006 -0.2498
  782MOL0     C 3129   4.042   7.890   2.450  0.4111  0.2882  0.3868
  782MOL0     C 3130   4.010   7.887   2.605 -0.3623 -0.1031  0.8301
  782MOL0     C 3131   3.872   7.832   2.636 -0.0399  0.6070 -0.0150
  782MOL0     C 3132   3.869   7.821   2.792  0.3782  0.5054  0.2105
  782MOL0     C 3133   3.724   7.815   2.840  0.6092  0.6181 -0.5493
  782MOL0     C 3134   3.720   7.852   2.996 -0.4226 -0.5267 -0.0200
  782MOL0     C 3135   3.587   7.812   3.067  0.7618  0.3259 -0.2308
  782MOL0    Cl 3136   3.454   7.908   3.002 -0.0601 -0.2213 -0.0881
  782MOL0     C 3137   4.391   8.083   2.284  0.8497  0.6943 -0.3085
  782MOL0     C 3138   4.515   8.106   2.218 -0.9447  0.0690 -0.4167
  782MOL0     O 3139   4.795   7.962   2.208  0.1536  0.6742 -0.5089
  782MOL0     C 3140   4.918   8.155   1.926 -0.3331 -0.1252 -0.0335
  782MOL0     C 3141   5.030   8.188   1.851  0.2732 -0.0990 -0.1052
  782MOL0     N 3142   5.636   8.334   1.357 -0.4900 -0.2247  0.2281
  782MOL0     N 3143   5.760   8.372   1.360 -0.2944  0.1067 -0.5799
  782MOL0     C 3144   5.495   8.194   2.320 -0.3804  0.9733  0.0396
  782MOL0     C 3145   5.395   8.202   2.421 -0.3223 -0.7313  0.2693
  782MOL0     C 3146   5.166   7.991   2.779 -0.1579  0.1002 -0.0792
  782MOL0     C 3147   5.112   8.117   2.825 -0.1566 -0.2264  0.4348
  782MOL0     C 3148   5.042   8.120   2.947  0.6420  1.2007  0.1943
  782MOL0     C 3149   5.031   8.013   3.027  1.1676 -0.5935  0.3226
  782MOL0     O 3150   4.967   8.025   3.151  0.1110 -0.1817  0.4740
  782MOL0     C 3151   4.911   8.154   3.195 -0.4663  0.8077 -0.7269
  782MOL0     C 3152   4.845   8.133   3.341 -0.0868 -0.8727 -0.1771
  782MOL0     C 3153   4.717   8.034   3.346 -0.3549 -0.3973  0.5697
  782MOL0     C 3154   4.601   8.069   3.448 -1.0329  0.2394  0.0778
  782MOL0     C 3155   4.655   8.088   3.583  0.7203  0.6276  0.3691
  782MOL0     C 3156   4.704   8.105   3.697 -0.2791 -0.5927 -0.8239
  782MOL0     C 3157   5.079   7.884   2.987 -0.9705 -0.3756  0.0473
  782MOL0     C 3158   5.150   7.872   2.865 -0.4248  0.2595  0.3238
  782MOL0     H 3159   5.265   7.896   2.372 -0.0708  0.1314  2.4867
  782MOL0     H 3160   5.409   7.891   2.190  1.1283 -0.5736  1.6155
  782MOL0     H 3161   5.529   8.269   2.035  1.0346 -0.0575 -0.6004
  782MOL0     H 3162   5.603   8.175   1.939  0.6175 -1.3310  0.7105
  782MOL0     H 3163   5.810   8.167   2.104  1.1568  0.2844  1.6416
  782MOL0     H 3164   5.738   8.306   2.189  0.9806 -0.2781 -0.3794
  782MOL0     H 3165   5.897   8.389   2.028 -2.4496  0.8383  3.0703
  782MOL0     H 3166   5.738   8.427   1.977 -0.4555 -0.3440 -1.3046
  782MOL0     H 3167   5.927   8.226   1.859 -1.1154 -1.8292 -0.7303
  782MOL0     H 3168   5.770   8.193   1.844  0.5140 -0.3948 -1.3948
  782MOL0     H 3169   5.709   8.410   1.712 -0.5841 -0.4141 -0.6654
  782MOL0     H 3170   5.848   8.336   1.632 -2.4827 -0.0954 -1.1572
  782MOL0     H 3171   6.010   8.473   1.728 -0.4826 -1.8754  1.5099
  782MOL0     H 3172   5.872   8.557   1.825 -2.4424  1.6367 -1.3090
  782MOL0     H 3173   5.791   8.659   1.653  0.3867  0.7071 -0.5948
  782MOL0     H 3174   5.964   8.689   1.629  0.6448 -0.1232  2.8906
  782MOL0     H 3175   5.977   8.506   1.455  0.3007  2.0065  0.4427
  782MOL0     H 3176   5.879   8.647   1.415  3.0062  2.0147  1.4351
  782MOL0     H 3177   5.603   8.613   1.530  1.7703  1.2808 -1.8358
  782MOL0     H 3178   5.353   8.453   1.355  1.5752  2.0751  1.1055
  782MOL0     H 3179   5.381   8.487   1.521  2.1174  1.7579 -0.7944
  782MOL0     H 3180   5.402   8.206   1.401 -1.5441  2.7174 -3.6795
  782MOL0     H 3181   5.246   8.292   1.436  0.6864  1.8129 -0.7539
  782MOL0     H 3182   5.401   8.107   1.603  1.2034  0.6139 -3.6599
  782MOL0     H 3183   5.462   8.263   1.654 -1.3036  1.0008  2.6114
  782MOL0     H 3184   5.175   8.284   1.642  2.8415  3.4016 -2.3849
  782MOL0     H 3185   5.298   8.348   1.746  1.6102  0.3252 -3.2092
  782MOL0     H 3186   5.221   7.925   1.958 -1.1667 -1.3221  0.2767
  782MOL0     H 3187   5.017   7.888   2.107 -0.4876 -0.3710 -0.4256
  782MOL0     H 3188   4.506   7.882   1.968  3.1100  3.6448 -2.2609
  782MOL0     H 3189   4.293   7.833   2.067 -0.5129 -0.5647  0.1769
  782MOL0     H 3190   4.152   8.076   2.439 -1.8926 -1.7394  1.8336
  782MOL0     H 3191   4.259   7.936   2.450  0.6361  1.0575  1.5464
  782MOL0     H 3192   4.049   7.785   2.419 -1.3111 -0.3013  1.8132
  782MOL0     H 3193   3.955   7.937   2.403  0.1432 -1.0900 -0.5856
  782MOL0     H 3194   4.027   7.986   2.650 -2.1523 -0.1045  1.5843
  782MOL0     H 3195   4.091   7.825   2.647  0.2180 -1.5388 -2.1665
  782MOL0     H 3196   3.790   7.901   2.613 -3.6320 -2.9267  0.9809
  782MOL0     H 3197   3.856   7.734   2.589  0.3885 -0.9736  2.9133
  782MOL0     H 3198   3.916   7.910   2.836  1.8693 -1.4136  2.7812
  782MOL0     H 3199   3.927   7.737   2.833  1.1336  1.5725  1.4097
  782MOL0     H 3200   3.691   7.711   2.826 -1.0918  0.5481  2.9506
  782MOL0     H 3201   3.661   7.884   2.784 -0.5999 -0.0460 -0.0385
  782MOL0     H 3202   3.807   7.808   3.045  1.0720  2.1883 -0.0490
  782MOL0     H 3203   3.732   7.961   3.000 -0.5443 -0.2774 -3.5159
  782MOL0     H 3204   3.589   7.823   3.176 -1.6044  0.4050 -0.1538
  782MOL0     H 3205   3.561   7.710   3.038  2.1225  0.0925 -0.7357
  782MOL0     H 3206   4.360   8.141   2.370  2.4518  0.7155  0.2879
  782MOL0     H 3207   4.591   8.165   2.269 -1.2063 -0.5055  0.6676
  782MOL0     H 3208   4.834   8.225   1.918 -0.7781 -0.3430  1.9586
  782MOL0     H 3209   5.029   8.276   1.787  1.3801  0.5416  0.7229
  782MOL0     H 3210   5.570   8.271   2.304  1.0485 -0.7891 -2.6148
  782MOL0     H 3211   5.400   8.290   2.485 -0.2864 -0.3382 -0.2636
  782MOL0     H 3212   5.121   8.197   2.752  0.5767 -1.2933 -0.6853
  782MOL0     H 3213   5.010   8.217   2.983 -0.8392  0.9422 -0.3576
  782MOL0     H 3214   4.834   8.197   3.130 -1.3579 -1.2637 -1.1289
  782MOL0     H 3215   4.992   8.226   3.202  0.6838 -0.4322 -0.8629
  782MOL0     H 3216   4.913   8.091   3.415  1.4800 -0.9275 -1.5863
  782MOL0     H 3217   4.819   8.233   3.376  2.9963  0.5688 -1.5796
  782MOL0     H 3218   4.750   7.934   3.376  2.9734  0.8941  1.6125
  782MOL0     H 3219   4.679   8.030   3.244 -1.8569 -3.2497  1.1414
  782MOL0     H 3220   4.561   8.166   3.417  0.3753  0.4623 -1.1645
  782MOL0     H 3221   4.544   7.976   3.457 -1.1338  0.1792 -1.0252
  782MOL0     H 3222   4.755   8.123   3.789  0.1451 -0.5761 -1.0604
  782MOL0     H 3223   5.062   7.800   3.054 -0.4727  1.0244  2.0051
  782MOL0     H 3224   5.190   7.775   2.840 -2.2156 -1.2446  2.7911
  783MOL0     O 3225   3.805   7.351   4.473  0.5415  0.3259 -0.3619
  783MOL0     C 3226   3.744   7.450   4.523  0.1857 -0.0745 -0.5283
  783MOL0     O 3227   3.653   7.534   4.466  0.4853  1.0368  0.0727
  783MOL0     C 3228   3.607   7.484   4.350  0.3278 -0.5209 -0.3903
  783MOL0     C 3229   3.475   7.416   4.347 -0.8216  0.5024  0.6023
  783MOL0     C 3230   3.432   7.347   4.231  0.2539 -0.2980  0.5502
  783MOL0     C 3231   3.494   7.363   4.103  0.3555  1.2791 -0.5584
  783MOL0     O 3232   3.448   7.316   3.981 -0.0995 -0.3858 -0.0876
  783MOL0     C 3233   3.389   7.180   3.995 -0.6902  0.1578 -0.2506
  783MOL0     C 3234   3.370   7.104   3.860 -1.0467  0.0469  0.4133
  783MOL0     C 3235   3.231   7.125   3.797 -0.3762  0.2753  0.2125
  783MOL0     C 3236   3.205   7.253   3.726 -0.0509  0.5256 -0.4222
  783MOL0     C 3237   3.050   7.284   3.684 -0.2346 -0.5857 -0.9362
  783MOL0     C 3238   3.044   7.376   3.564 -0.4357 -0.2810  0.6001
  783MOL0     C 3239   2.900   7.403   3.497 -1.0463 -0.1764  0.0851
  783MOL0     C 3240   2.833   7.519   3.566  0.1143 -0.1749  0.3430
  783MOL0     N 3241   2.689   7.545   3.518 -0.1852  0.0828  0.0390
  783MOL0     C 3242   2.580   7.472   3.551 -0.2106  0.0180 -0.0663
  783MOL0     C 3243   2.476   7.553   3.519 -0.4444  0.3969 -0.8633
  783MOL0     C 3244   2.336   7.501   3.534  0.2799  0.1388  0.0809
  783MOL0     C 3245   2.277   7.420   3.418  0.4431  0.2939  0.4084
  783MOL0     C 3246   2.274   7.500   3.287 -0.2668  0.6207 -0.7285
  783MOL0     C 3247   2.207   7.641   3.301 -0.0100  0.2345  1.0666
  783MOL0     O 3248   2.159   7.677   3.167  0.3425  0.1757  0.5987
  783MOL0     C 3249   2.245   7.716   3.058 -0.6462  0.7316 -1.2049
  783MOL0     C 3250   2.187   7.752   2.937 -0.0967 -0.0075 -0.6973
  783MOL0     C 3251   2.263   7.776   2.822 -0.0381 -1.3507 -0.9919
  783MOL0     C 3252   2.398   7.780   2.830 -0.2302  0.4877 -0.4667
  783MOL0     C 3253   2.463   7.828   2.711 -0.0373 -0.5605 -0.1767
  783MOL0     O 3254   2.391   7.851   2.597  0.1109 -0.0560 -0.9865
  783MOL0     C 3255   2.448   7.860   2.472  0.0980  0.1903 -0.4017
  783MOL0     C 3256   2.398   7.952   2.380  1.4188 -0.6356 -0.1782
  783MOL0     C 3257   2.458   7.976   2.257 -0.2100 -0.3986  0.8222
  783MOL0     C 3258   2.547   7.874   2.207  0.1820  0.4520  0.2941
  783MOL0     O 3259   2.606   7.875   2.086 -0.6820  0.3876  0.4789
  783MOL0     C 3260   2.603   7.988   2.003 -0.0379  0.5414 -0.1043
  783MOL0     C 3261   2.672   7.970   1.870 -0.2844 -0.3782  0.8062
  783MOL0     C 3262   2.819   8.015   1.881  0.0474 -0.5693 -0.1139
  783MOL0     C 3263   2.893   8.003   1.756  0.4107 -0.4914  1.0085
  783MOL0     C 3264   3.044   8.018   1.762  0.6215  0.0037 -0.0503
  783MOL0     C 3265   3.098   8.034   1.630 -0.1340 -0.2329  0.8617
  783MOL0     C 3266   3.243   8.092   1.631 -0.8271 -0.3609 -0.5923
  783MOL0     C 3267   3.270   8.236   1.683 -0.3094  0.6425 -0.8176
  783MOL0    Cl 3268   3.190   8.351   1.562  0.3275  0.8176 -0.0853
  783MOL0     C 3269   2.599   7.777   2.296 -0.7057 -0.8268 -0.4843
  783MOL0     C 3270   2.542   7.763   2.428  0.4695 -0.7382  0.8760
  783MOL0     O 3271   2.580   7.835   2.718 -0.2536 -0.6122 -0.4392
  783MOL0     C 3272   2.464   7.753   2.956  0.5617 -0.6904  0.0769
  783MOL0     C 3273   2.386   7.706   3.056  0.7194 -0.2805 -0.6642
  783MOL0     N 3274   2.526   7.674   3.467 -0.0116 -0.7414 -0.2621
  783MOL0     N 3275   2.655   7.665   3.467 -0.3399 -0.3052  0.5119
  783MOL0     C 3276   3.610   7.439   4.110 -0.0183  0.1856 -0.6164
  783MOL0     C 3277   3.664   7.499   4.228 -0.1167  0.6082 -0.0155
  783MOL0     C 3278   3.801   7.496   4.666 -0.3910  0.6576 -0.2865
  783MOL0     C 3279   3.931   7.445   4.714  0.9490  0.3127  0.0010
  783MOL0     C 3280   3.986   7.487   4.837  0.0331 -0.3203 -0.0436
  783MOL0     C 3281   3.913   7.576   4.918  0.1050  0.9007 -0.2829
  783MOL0     O 3282   3.984   7.590   5.039 -0.4332 -0.0526 -0.3931
  783MOL0     C 3283   3.915   7.672   5.138 -0.9596 -0.2839  0.1110
  783MOL0     C 3284   3.946   7.623   5.278 -0.7202 -0.4487 -0.3311
  783MOL0     C 3285   3.861   7.665   5.392  0.0626 -0.1974  0.2648
  783MOL0     C 3286   3.883   7.801   5.455  0.4601  0.2383 -0.3116
  783MOL0     C 3287   4.014   7.802   5.523  0.1776 -1.0803  0.3672
  783MOL0     C 3288   4.111   7.818   5.594  0.1807 -0.2351 -0.2009
  783MOL0     C 3289   3.783   7.611   4.877 -0.3713 -0.4060 -0.4665
  783MOL0     C 3290   3.734   7.582   4.760 -0.1017  1.6685  0.8454
  783MOL0     H 3291   3.421   7.419   4.442 -0.2199  1.1103  0.9292
  783MOL0     H 3292   3.339   7.293   4.243 -0.6659  0.9373 -0.5882
  783MOL0     H 3293   3.289   7.194   4.038 -0.7069  0.5280 -0.4017
  783MOL0     H 3294   3.444   7.113   4.061  0.7057  2.5330  1.1494
  783MOL0     H 3295   3.379   6.999   3.888  0.1212  0.1753  0.5484
  783MOL0     H 3296   3.445   7.136   3.787 -0.0273  0.8975  1.7858
  783MOL0     H 3297   3.153   7.108   3.871 -2.7625 -0.8063 -2.3749
  783MOL0     H 3298   3.218   7.042   3.727  1.9606  0.5235 -0.6047
  783MOL0     H 3299   3.228   7.328   3.802 -0.1655  1.1219 -0.9627
  783MOL0     H 3300   3.273   7.271   3.642 -2.0232  3.4295 -1.5746
  783MOL0     H 3301   2.991   7.337   3.759 -0.2137  2.6754 -2.9826
  783MOL0     H 3302   2.998   7.189   3.670 -0.9470 -0.1721 -1.1439
  783MOL0     H 3303   3.108   7.325   3.491 -2.1495  0.1873 -1.3032
  783MOL0     H 3304   3.087   7.473   3.590  0.3566 -0.7529  1.1101
  783MOL0     H 3305   2.912   7.436   3.394  1.0311 -0.0709  0.3306
  783MOL0     H 3306   2.845   7.309   3.488 -0.7088 -0.2712 -1.0965
  783MOL0     H 3307   2.888   7.606   3.531 -0.5327 -0.4285 -1.4179
  783MOL0     H 3308   2.842   7.505   3.674  1.5914 -3.5110 -0.0901
  783MOL0     H 3309   2.576   7.366   3.577  3.9202 -0.2609  0.0302
  783MOL0     H 3310   2.272   7.588   3.553 -0.7033 -0.8894  1.8560
  783MOL0     H 3311   2.329   7.433   3.620  1.6719  1.0339  0.9369
  783MOL0     H 3312   2.185   7.366   3.445  0.6387 -0.5526 -0.5648
  783MOL0     H 3313   2.341   7.332   3.409 -0.4141 -0.4953  1.6286
  783MOL0     H 3314   2.375   7.505   3.245 -0.0550 -0.3755 -0.3638
  783MOL0     H 3315   2.230   7.431   3.214  3.4381 -2.9970  0.0592
  783MOL0     H 3316   2.275   7.713   3.347  1.2872 -1.5164  2.0278
  783MOL0     H 3317   2.125   7.628   3.373 -1.0387  1.3927  0.1486
  783MOL0     H 3318   2.078   7.754   2.941 -0.1062  0.1194 -0.9874
  783MOL0     H 3319   2.196   7.778   2.737 -0.2106 -3.3919 -0.9535
  783MOL0     H 3320   2.310   8.008   2.410  0.5584 -1.3785 -1.2454
  783MOL0     H 3321   2.425   8.050   2.185  1.5037  0.4515  0.8438
  783MOL0     H 3322   2.648   8.069   2.061  3.2316 -2.4077  1.8317
  783MOL0     H 3323   2.497   8.002   1.977  0.3747  2.3626 -0.9943
  783MOL0     H 3324   2.629   8.048   1.806 -0.5845 -0.6128  0.7156
  783MOL0     H 3325   2.661   7.877   1.813 -1.7493  1.3963 -2.0731
  783MOL0     H 3326   2.861   7.950   1.959 -1.9112 -1.9967 -0.1795
  783MOL0     H 3327   2.836   8.118   1.913  3.0665 -0.3842 -1.9530
  783MOL0     H 3328   2.868   7.913   1.698 -0.3455  1.1772 -1.4387
  783MOL0     H 3329   2.861   8.087   1.692 -0.9281 -2.1695 -0.6621
  783MOL0     H 3330   3.087   7.928   1.807 -0.0599  0.4347  1.5060
  783MOL0     H 3331   3.051   8.103   1.830 -2.8462  0.5667 -0.2570
  783MOL0     H 3332   3.035   8.109   1.581 -1.5612  0.3521  3.4000
  783MOL0     H 3333   3.086   7.943   1.572 -0.7750 -0.4796  1.3729
  783MOL0     H 3334   3.290   8.020   1.699 -0.8708 -1.5168 -1.7433
  783MOL0     H 3335   3.287   8.075   1.532  0.1759 -1.8817  0.0729
  783MOL0     H 3336   3.378   8.254   1.677 -0.4877  2.2135  0.0878
  783MOL0     H 3337   3.239   8.254   1.786 -2.1880 -0.7618 -1.0748
  783MOL0     H 3338   2.683   7.716   2.263 -0.1113 -1.9444  2.7401
  783MOL0     H 3339   2.572   7.687   2.499 -2.4255  0.7849  4.0120
  783MOL0     H 3340   2.571   7.762   2.972  0.2719  0.9536  1.3049
  783MOL0     H 3341   2.434   7.682   3.150 -0.6275  0.4511  0.2489
  783MOL0     H 3342   3.662   7.457   4.016 -0.3471  1.2687 -0.6116
  783MOL0     H 3343   3.757   7.554   4.217 -0.7646  1.6381 -0.5166
  783MOL0     H 3344   3.988   7.387   4.642  2.5509  1.4695  0.2793
  783MOL0     H 3345   4.085   7.456   4.869  0.1638  2.3047  2.4986
  783MOL0     H 3346   3.808   7.659   5.120 -0.8885 -1.4367  0.4294
  783MOL0     H 3347   3.946   7.777   5.135 -0.3165 -0.4417  0.7533
  783MOL0     H 3348   3.945   7.514   5.284 -1.2400 -0.3756  2.6413
  783MOL0     H 3349   4.051   7.648   5.300 -1.5324  0.6524  2.9344
  783MOL0     H 3350   3.864   7.589   5.471 -1.7197 -0.9478 -0.3351
  783MOL0     H 3351   3.759   7.664   5.351 -0.4658  1.3913  1.4440
  783MOL0     H 3352   3.870   7.870   5.372 -1.8684 -0.5743 -0.7086
  783MOL0     H 3353   3.804   7.796   5.531 -1.8850 -2.4052 -2.6765
  783MOL0     H 3354   4.193   7.831   5.663 -0.5567 -3.2360  1.4178
  783MOL0     H 3355   3.732   7.683   4.941 -0.6499 -0.5241 -0.5529
  783MOL0     H 3356   3.636   7.622   4.735 -0.3961  0.7625  0.5226
  784MOL0     O 3357  11.224   8.593   9.271 -0.7436 -0.1351 -0.7350
  784MOL0     C 3358  11.318   8.539   9.205  0.3268  0.2494  0.1341
  784MOL0     O 3359  11.312   8.500   9.071 -0.4536 -0.1300  0.1294
  784MOL0     C 3360  11.194   8.542   9.011  1.1708 -0.1603  1.0888
  784MOL0     C 3361  11.176   8.666   8.941 -0.6483  1.1455 -0.7513
  784MOL0     C 3362  11.052   8.700   8.889 -0.1969 -0.0430 -0.1562
  784MOL0     C 3363  10.951   8.608   8.873  0.1299 -0.8869  0.2321
  784MOL0     O 3364  10.841   8.620   8.792 -0.1345 -0.6868  0.2095
  784MOL0     C 3365  10.815   8.750   8.729  0.7705  0.0194 -0.9886
  784MOL0     C 3366  10.668   8.734   8.661 -0.2396 -0.9490  0.6684
  784MOL0     C 3367  10.634   8.870   8.581  0.4571  0.1778  0.5495
  784MOL0     C 3368  10.511   8.865   8.494 -0.3199 -0.1413 -0.1070
  784MOL0     C 3369  10.374   8.856   8.557 -0.7120  0.6092 -0.6699
  784MOL0     C 3370  10.258   8.853   8.461  0.1889 -0.0494 -0.1887
  784MOL0     C 3371  10.125   8.806   8.535  0.1358  0.0459 -0.3707
  784MOL0     C 3372  10.017   8.762   8.439 -0.5361 -0.3495  0.0543
  784MOL0     N 3373   9.899   8.708   8.505  0.7195 -0.3454  0.3408
  784MOL0     C 3374   9.824   8.595   8.463 -0.8198  0.4701  0.1285
  784MOL0     C 3375   9.727   8.575   8.555  0.3939  0.6502 -0.4636
  784MOL0     C 3376   9.621   8.467   8.536  0.5937 -0.4852  0.6316
  784MOL0     C 3377   9.482   8.539   8.539  0.2301  0.0972  0.6981
  784MOL0     C 3378   9.376   8.439   8.521  0.3566  0.7530 -0.4242
  784MOL0     C 3379   9.228   8.479   8.553 -0.8907  0.0895 -0.1110
  784MOL0     O 3380   9.139   8.382   8.500  0.5159  0.2967  0.1015
  784MOL0     C 3381   8.997   8.403   8.521 -0.2034 -0.7212 -0.0222
  784MOL0     C 3382   8.893   8.313   8.492  1.3024  0.6236  0.4593
  784MOL0     C 3383   8.753   8.334   8.542 -0.2962 -0.4471  0.0318
  784MOL0     C 3384   8.720   8.450   8.607  0.6619  1.0485  0.5600
  784MOL0     C 3385   8.580   8.472   8.658  0.9597 -0.7727 -0.4860
  784MOL0     O 3386   8.512   8.355   8.690 -0.1621 -0.1545 -0.8443
  784MOL0     C 3387   8.393   8.370   8.748  0.0534 -0.2764  0.9567
  784MOL0     C 3388   8.371   8.383   8.889  0.6753  0.0716  0.0939
  784MOL0     C 3389   8.241   8.398   8.932 -0.0293  0.3054 -0.1312
  784MOL0     C 3390   8.130   8.366   8.845 -0.0679 -0.6246 -0.7394
  784MOL0     O 3391   8.003   8.351   8.903 -0.0662 -1.4259 -0.4387
  784MOL0     C 3392   7.915   8.469   8.906  0.2588 -0.3721 -0.1809
  784MOL0     C 3393   7.806   8.460   8.802 -0.2435  0.0864  0.0234
  784MOL0     C 3394   7.729   8.331   8.799 -0.2201 -0.5246  0.3131
  784MOL0     C 3395   7.644   8.320   8.926  0.6875  0.2873  0.2244
  784MOL0     C 3396   7.607   8.176   8.934  0.1573  0.0111  0.1628
  784MOL0     C 3397   7.472   8.146   9.010  0.4675 -0.8733  0.4372
  784MOL0     C 3398   7.345   8.190   8.942  0.1526 -0.1541 -0.0100
  784MOL0     C 3399   7.231   8.123   9.012  0.0010  0.3765  0.3978
  784MOL0    Cl 3400   7.087   8.201   8.947  0.3658 -0.0034  0.7548
  784MOL0     C 3401   8.156   8.350   8.715 -0.4023  0.7834  0.0626
  784MOL0     C 3402   8.284   8.354   8.659 -0.5955 -0.5813 -0.1622
  784MOL0     O 3403   8.535   8.589   8.664 -0.1437  0.5681  0.1575
  784MOL0     C 3404   8.817   8.540   8.632  0.2171  0.2278  0.0737
  784MOL0     C 3405   8.948   8.521   8.589 -0.1168 -0.6143  1.4410
  784MOL0     N 3406   9.727   8.678   8.642 -0.9839  0.5086  0.1623
  784MOL0     N 3407   9.832   8.748   8.620  0.0245  0.0907 -0.2887
  784MOL0     C 3408  10.979   8.480   8.929  0.3128 -0.7245 -0.0173
  784MOL0     C 3409  11.090   8.449   9.002 -0.4171  0.0092 -1.0522
  784MOL0     C 3410  11.452   8.513   9.283  0.4336 -0.7038  0.5058
  784MOL0     C 3411  11.527   8.404   9.257  0.1438  0.2903 -0.1284
  784MOL0     C 3412  11.661   8.396   9.299 -0.3389 -0.8311 -0.1169
  784MOL0     C 3413  11.714   8.488   9.394  0.7736 -0.4484  0.4096
  784MOL0     O 3414  11.836   8.486   9.445 -0.1154 -0.4484  0.1505
  784MOL0     C 3415  11.941   8.408   9.382 -0.2438  0.0695 -0.6452
  784MOL0     C 3416  12.053   8.503   9.371 -0.1719  0.3477 -0.8596
  784MOL0     C 3417  12.185   8.421   9.404 -0.2104 -0.6071  0.0429
  784MOL0     C 3418  12.218   8.324   9.291 -0.1923  0.1518 -0.5088
  784MOL0     C 3419  12.275   8.405   9.179  0.9009  0.6953  0.1612
  784MOL0     C 3420  12.314   8.458   9.083 -0.9233 -0.0626 -0.1331
  784MOL0     C 3421  11.626   8.593   9.435 -0.4738  0.4445 -0.1612
  784MOL0     C 3422  11.498   8.599   9.380  0.7015  0.7567 -0.0937
  784MOL0     H 3423  11.258   8.734   8.921  0.6885 -0.2206 -0.0504
  784MOL0     H 3424  11.048   8.797   8.839 -0.2957 -0.7500 -1.5823
  784MOL0     H 3425  10.883   8.773   8.647  1.2204 -0.5506 -0.7734
  784MOL0     H 3426  10.823   8.830   8.803 -0.4383 -0.2005 -0.5834
  784MOL0     H 3427  10.595   8.719   8.741 -0.7831  2.2507  0.8915
  784MOL0     H 3428  10.662   8.650   8.591 -2.0088 -0.7218  0.5081
  784MOL0     H 3429  10.710   8.897   8.506 -1.1831 -0.3643 -1.3935
  784MOL0     H 3430  10.631   8.951   8.655  1.0577 -0.9010  1.8072
  784MOL0     H 3431  10.517   8.951   8.426 -0.8825 -1.4690 -1.9385
  784MOL0     H 3432  10.513   8.777   8.429 -1.8104  0.6005 -1.2126
  784MOL0     H 3433  10.358   8.945   8.619  0.6813  1.5444 -1.5784
  784MOL0     H 3434  10.391   8.766   8.617  1.3283  0.2478 -1.6787
  784MOL0     H 3435  10.292   8.783   8.384  0.9805  1.2510 -1.0613
  784MOL0     H 3436  10.234   8.949   8.415 -0.7582 -0.7982 -1.2883
  784MOL0     H 3437  10.151   8.730   8.609  0.5978  0.2382 -0.3290
  784MOL0     H 3438  10.078   8.892   8.583  0.0347 -0.3126  0.1769
  784MOL0     H 3439  10.049   8.690   8.363 -1.4886  0.0931 -0.7957
  784MOL0     H 3440   9.992   8.855   8.388 -0.6188  0.3657  1.3488
  784MOL0     H 3441   9.851   8.542   8.372  0.2897  1.1072  0.0728
  784MOL0     H 3442   9.643   8.392   8.613  2.2262  2.8747  3.7593
  784MOL0     H 3443   9.636   8.436   8.432  3.5035  0.2104  0.7380
  784MOL0     H 3444   9.485   8.615   8.461 -0.6912  1.8509  2.3070
  784MOL0     H 3445   9.465   8.586   8.636 -1.9661  0.0954  0.3618
  784MOL0     H 3446   9.380   8.399   8.419 -1.9652 -1.1718  0.1318
  784MOL0     H 3447   9.398   8.360   8.594 -0.3276 -0.6741 -1.6994
  784MOL0     H 3448   9.214   8.580   8.513  0.0610  1.0296  1.7842
  784MOL0     H 3449   9.215   8.489   8.661 -0.6307  1.0309 -0.1568
  784MOL0     H 3450   8.923   8.228   8.432 -0.1102 -1.3724  2.4180
  784MOL0     H 3451   8.680   8.258   8.516 -0.5387 -0.2149  0.0327
  784MOL0     H 3452   8.457   8.398   8.954 -0.7559  1.2659  1.7802
  784MOL0     H 3453   8.229   8.416   9.039 -0.2955 -0.2478 -0.0643
  784MOL0     H 3454   7.963   8.567   8.898 -0.7647  0.0340 -1.6906
  784MOL0     H 3455   7.867   8.473   9.004  1.1037  1.2126  0.2014
  784MOL0     H 3456   7.849   8.487   8.705  0.1314  1.4202  0.5336
  784MOL0     H 3457   7.731   8.539   8.810 -0.8051 -0.5589  1.3584
  784MOL0     H 3458   7.790   8.240   8.794 -0.3451 -0.6207  0.5378
  784MOL0     H 3459   7.658   8.327   8.716 -0.5840 -0.1278  0.6066
  784MOL0     H 3460   7.688   8.361   9.018  1.4201  0.7638 -0.3342
  784MOL0     H 3461   7.554   8.380   8.912 -0.1156 -1.2829 -1.7724
  784MOL0     H 3462   7.667   8.110   8.996 -2.3001 -0.8196  1.8162
  784MOL0     H 3463   7.609   8.122   8.839  1.2030 -1.2935  0.8895
  784MOL0     H 3464   7.470   8.185   9.112  0.1428 -3.9048  1.6804
  784MOL0     H 3465   7.468   8.037   9.012 -0.6359 -0.8958 -1.2795
  784MOL0     H 3466   7.329   8.298   8.946  4.6511  0.6975  3.1667
  784MOL0     H 3467   7.345   8.158   8.837 -0.8306 -2.5398  0.6540
  784MOL0     H 3468   7.235   8.153   9.118  1.4414  2.1260 -0.0890
  784MOL0     H 3469   7.228   8.015   8.999  1.6720  0.5725 -2.2930
  784MOL0     H 3470   8.082   8.331   8.638  1.2293  3.6250 -2.4225
  784MOL0     H 3471   8.307   8.352   8.552  0.6469 -0.5840  0.0900
  784MOL0     H 3472   8.792   8.627   8.692  0.5339  0.5408 -0.2482
  784MOL0     H 3473   9.011   8.607   8.611 -1.0896  0.0144  1.8285
  784MOL0     H 3474  10.914   8.394   8.919  0.4791 -0.8330 -0.1858
  784MOL0     H 3475  11.115   8.349   9.036  2.5562  1.4088  1.3686
  784MOL0     H 3476  11.496   8.331   9.183 -2.5093  1.3099 -0.1305
  784MOL0     H 3477  11.720   8.313   9.262 -1.8505 -1.5537 -1.0226
  784MOL0     H 3478  11.922   8.361   9.285  0.5408  1.0255 -1.2805
  784MOL0     H 3479  11.962   8.324   9.449 -1.6531 -0.9844 -1.4479
  784MOL0     H 3480  12.070   8.554   9.275  0.5130 -0.2263 -1.0542
  784MOL0     H 3481  12.036   8.575   9.451 -0.8654 -0.7518  0.0211
  784MOL0     H 3482  12.176   8.362   9.496 -0.5819 -0.5558  0.0414
  784MOL0     H 3483  12.262   8.496   9.421 -0.3028 -0.1062 -1.5800
  784MOL0     H 3484  12.295   8.257   9.331 -2.2280 -0.5110  2.5996
  784MOL0     H 3485  12.134   8.264   9.256  1.5540 -1.1358 -2.7403
  784MOL0     H 3486  12.362   8.503   8.998 -0.1998  2.0243  1.3056
  784MOL0     H 3487  11.669   8.667   9.502 -1.2774 -0.1428  1.0511
  784MOL0     H 3488  11.434   8.676   9.423 -0.2013 -0.2279  0.3788
  785MOL0     O 3489   0.799   4.076  10.461 -0.5004  0.5859  0.6950
  785MOL0     C 3490   0.815   4.192  10.444  0.5703  0.3357 -0.0512
  785MOL0     O 3491   0.709   4.288  10.427 -0.8055  0.7141 -0.5016
  785MOL0     C 3492   0.586   4.240  10.385 -0.6435 -0.3135 -0.3022
  785MOL0     C 3493   0.556   4.290  10.258 -0.2079 -0.8007 -1.5130
  785MOL0     C 3494   0.439   4.249  10.191 -0.4179 -0.7922  0.3676
  785MOL0     C 3495   0.349   4.156  10.260 -0.8172 -0.8022  0.1574
  785MOL0     O 3496   0.237   4.110  10.198  1.2470  0.0993 -0.2429
  785MOL0     C 3497   0.127   4.046  10.272  0.5770 -0.4023  0.1718
  785MOL0     C 3498   0.022   3.994  10.168 -1.0347  0.8894  0.7524
  785MOL0     C 3499  -0.056   4.107  10.093  0.6000 -0.1918 -0.1249
  785MOL0     C 3500  -0.188   4.071  10.046 -0.7357  0.4651  1.0291
  785MOL0     C 3501  -0.189   3.965   9.934 -0.7809  0.5166 -0.3053
  785MOL0     C 3502  -0.323   3.912   9.901 -0.2206 -0.0169 -0.4985
  785MOL0     C 3503  -0.427   4.016   9.858 -0.6846 -0.3757  0.3996
  785MOL0     C 3504  -0.551   3.934   9.819 -0.2458 -0.6726 -0.1022
  785MOL0     N 3505  -0.623   3.891   9.934  0.1064  0.1762  0.4371
  785MOL0     C 3506  -0.709   3.971  10.003 -0.1170 -0.0393 -0.1764
  785MOL0     C 3507  -0.782   3.887  10.087  0.4037  0.4605  0.1490
  785MOL0     C 3508  -0.896   3.913  10.176 -0.5704  0.0263  0.4575
  785MOL0     C 3509  -0.842   4.003  10.294  0.6475 -0.2736  0.4518
  785MOL0     C 3510  -0.740   3.938  10.383  0.3606  0.5957  0.2788
  785MOL0     C 3511  -0.592   3.972  10.353 -0.2919 -0.1344 -0.0587
  785MOL0     O 3512  -0.582   4.115  10.353  0.7048 -0.2887 -0.2477
  785MOL0     C 3513  -0.468   4.181  10.400  0.5890  0.8098  0.4374
  785MOL0     C 3514  -0.342   4.118  10.389 -0.0434  0.5144 -0.7448
  785MOL0     C 3515  -0.226   4.193  10.405  0.0987 -0.1802  0.2631
  785MOL0     C 3516  -0.233   4.335  10.409 -0.7916  0.2958 -0.1850
  785MOL0     C 3517  -0.115   4.417  10.382  0.7809 -0.5533 -0.3829
  785MOL0     O 3518  -0.007   4.361  10.318  0.1592 -0.2033 -0.0559
  785MOL0     C 3519   0.102   4.433  10.284 -0.1571  0.6118  0.1495
  785MOL0     C 3520   0.156   4.446  10.154  0.3782  0.0671 -0.6286
  785MOL0     C 3521   0.250   4.540  10.133 -0.1865 -0.5719 -0.8292
  785MOL0     C 3522   0.320   4.606  10.233  0.8859  0.2680  0.2255
  785MOL0     O 3523   0.415   4.692  10.194 -0.3039 -0.3006  0.6491
  785MOL0     C 3524   0.432   4.811  10.279  0.2273 -0.0364 -0.8711
  785MOL0     C 3525   0.429   4.932  10.169 -0.6779 -0.1934 -0.0141
  785MOL0     C 3526   0.309   4.942  10.075  0.6573 -0.0633 -0.5143
  785MOL0     C 3527   0.338   5.032   9.963  0.2949  0.3870 -0.3423
  785MOL0     C 3528   0.227   5.077   9.861 -0.4562  0.4656  0.6585
  785MOL0     C 3529   0.272   5.194   9.774  0.1963  0.0265  0.1871
  785MOL0     C 3530   0.416   5.186   9.722 -0.1962  0.0346 -1.2489
  785MOL0     C 3531   0.449   5.266   9.608  0.0513 -0.9334  0.0543
  785MOL0    Cl 3532   0.459   5.439   9.639  0.2052  0.8248  0.1984
  785MOL0     C 3533   0.286   4.577  10.368  0.4607 -0.0561  0.6699
  785MOL0     C 3534   0.173   4.490  10.388  0.0360 -0.1188  0.0244
  785MOL0     O 3535  -0.120   4.539  10.401  0.0281 -0.0854 -0.4004
  785MOL0     C 3536  -0.359   4.392  10.424  0.3101  0.6046  0.1059
  785MOL0     C 3537  -0.477   4.317  10.415  0.0495 -0.0685  0.1447
  785MOL0     N 3538  -0.722   3.765  10.076 -0.4014 -0.3238  0.1124
  785MOL0     N 3539  -0.625   3.764   9.986  0.0378 -0.7594  0.0051
  785MOL0     C 3540   0.387   4.107  10.383  0.7375 -0.3181 -0.2782
  785MOL0     C 3541   0.500   4.156  10.447  0.3719  0.7061 -0.4592
  785MOL0     C 3542   0.948   4.262  10.448 -0.2077 -0.2775 -0.7742
  785MOL0     C 3543   1.071   4.188  10.446 -1.0637  1.0309 -1.4354
  785MOL0     C 3544   1.198   4.255  10.460 -0.2141  1.1665 -0.3315
  785MOL0     C 3545   1.200   4.388  10.485 -0.1395 -0.4672  0.5602
  785MOL0     O 3546   1.317   4.457  10.510 -0.2537  0.1854  0.4344
  785MOL0     C 3547   1.444   4.400  10.536 -0.0333  0.6607  0.3328
  785MOL0     C 3548   1.546   4.397  10.418 -0.7477 -0.0068 -0.3094
  785MOL0     C 3549   1.559   4.535  10.355  0.0319  0.7305  0.7208
  785MOL0     C 3550   1.588   4.542  10.198  0.2338  0.2113 -0.5422
  785MOL0     C 3551   1.712   4.469  10.177  0.7221  0.0008 -0.3645
  785MOL0     C 3552   1.815   4.412  10.140  0.4172  0.2641 -0.0727
  785MOL0     C 3553   1.077   4.465  10.482  0.0080 -0.2729 -0.3391
  785MOL0     C 3554   0.956   4.403  10.454 -0.7634 -0.6458 -1.1217
  785MOL0     H 3555   0.634   4.356  10.222  0.1378 -1.1080 -1.3293
  785MOL0     H 3556   0.394   4.302  10.108 -0.0893 -1.4186 -0.2146
  785MOL0     H 3557   0.079   4.104  10.351 -0.2077  1.7136 -1.7650
  785MOL0     H 3558   0.178   3.962  10.321 -0.0260 -0.0329  1.4717
  785MOL0     H 3559  -0.045   3.927  10.223  0.3667 -0.1888  1.2080
  785MOL0     H 3560   0.072   3.927  10.098  0.5129  0.5052  2.1420
  785MOL0     H 3561  -0.001   4.147  10.007  0.0161 -2.2094 -1.5048
  785MOL0     H 3562  -0.074   4.187  10.165 -0.6167 -1.8392  1.5010
  785MOL0     H 3563  -0.246   4.030  10.129 -0.9352  2.0486  1.7026
  785MOL0     H 3564  -0.227   4.161   9.999  0.5669 -0.7475 -2.7598
  785MOL0     H 3565  -0.138   3.880   9.980 -2.9660  0.9612  3.2241
  785MOL0     H 3566  -0.138   3.994   9.841 -1.7886 -1.6898 -1.6578
  785MOL0     H 3567  -0.370   3.867   9.990  1.5016  0.4351  0.6917
  785MOL0     H 3568  -0.312   3.838   9.821  1.2394  0.2526 -0.5631
  785MOL0     H 3569  -0.457   4.099   9.922 -0.8850 -1.3016  1.5264
  785MOL0     H 3570  -0.385   4.063   9.768  1.0511 -0.7589  0.9856
  785MOL0     H 3571  -0.533   3.849   9.752 -3.6031 -0.5803 -1.2944
  785MOL0     H 3572  -0.622   3.998   9.766  0.4164  0.5504  0.4544
  785MOL0     H 3573  -0.733   4.075   9.982  0.8282 -0.1055 -1.8419
  785MOL0     H 3574  -0.929   3.817  10.217  1.8975 -0.5031  1.4004
  785MOL0     H 3575  -0.965   3.975  10.119  1.4770  1.4788 -0.5749
  785MOL0     H 3576  -0.938   4.021  10.344  0.9486 -0.4256  1.0880
  785MOL0     H 3577  -0.811   4.106  10.275 -3.9317  1.7995  2.6066
  785MOL0     H 3578  -0.776   3.955  10.485 -2.9091  4.9956 -1.3000
  785MOL0     H 3579  -0.743   3.831  10.359 -1.3452  0.2530  1.7826
  785MOL0     H 3580  -0.575   3.940  10.250 -0.1078 -0.4179  0.0564
  785MOL0     H 3581  -0.525   3.917  10.420  3.2109  1.1603 -2.2287
  785MOL0     H 3582  -0.330   4.011  10.372  2.0986 -0.0226  2.9999
  785MOL0     H 3583  -0.136   4.137  10.384 -0.5154 -1.6373  1.2841
  785MOL0     H 3584   0.128   4.385  10.069  0.3979 -2.7089  1.2337
  785MOL0     H 3585   0.272   4.568  10.030  0.9167 -0.2299 -0.5153
  785MOL0     H 3586   0.525   4.803  10.336  1.1019  0.1587 -2.2252
  785MOL0     H 3587   0.350   4.832  10.348  1.0283 -1.0443  0.4382
  785MOL0     H 3588   0.528   4.931  10.124 -0.2721  2.2515  0.6960
  785MOL0     H 3589   0.429   5.023  10.229 -0.1050  0.9015 -1.6074
  785MOL0     H 3590   0.225   4.978  10.135  2.7333 -0.2683  2.7530
  785MOL0     H 3591   0.275   4.845  10.037 -3.0847  1.0432 -0.4885
  785MOL0     H 3592   0.401   5.115   9.996 -0.3215  0.1860  1.4499
  785MOL0     H 3593   0.403   4.968   9.902  3.0751  0.0781  2.6938
  785MOL0     H 3594   0.131   5.110   9.902  0.0400  2.2176  0.4735
  785MOL0     H 3595   0.189   4.992   9.803 -1.6634 -0.4925  2.7090
  785MOL0     H 3596   0.265   5.286   9.832 -2.2546 -0.1461  0.3042
  785MOL0     H 3597   0.197   5.219   9.698 -0.2967  2.9335  1.4882
  785MOL0     H 3598   0.492   5.210   9.797 -0.5422 -0.0344 -0.8663
  785MOL0     H 3599   0.441   5.084   9.692  1.7285 -0.3791  1.3990
  785MOL0     H 3600   0.375   5.250   9.530 -1.0106 -1.6729  1.1800
  785MOL0     H 3601   0.548   5.232   9.576  0.4637  0.5277 -0.2974
  785MOL0     H 3602   0.341   4.617  10.452 -1.2750  1.8949  0.9695
  785MOL0     H 3603   0.149   4.486  10.494 -1.7963  1.1158 -0.2837
  785MOL0     H 3604  -0.378   4.499  10.433 -2.1319  0.1642  0.9428
  785MOL0     H 3605  -0.571   4.371  10.405  0.5978  0.8235 -0.3905
  785MOL0     H 3606   0.335   4.028  10.437 -1.1665  0.4760 -0.8724
  785MOL0     H 3607   0.510   4.110  10.546 -0.9028 -2.4985 -1.6722
  785MOL0     H 3608   1.083   4.081  10.437  4.6152  1.0436  1.3741
  785MOL0     H 3609   1.288   4.195  10.453  0.9864  3.0850 -2.5347
  785MOL0     H 3610   1.437   4.292  10.554 -0.8013  0.1934 -2.3053
  785MOL0     H 3611   1.487   4.450  10.623 -3.4866 -1.4311  3.5432
  785MOL0     H 3612   1.647   4.373  10.452 -0.6468 -1.2847 -1.4107
  785MOL0     H 3613   1.502   4.333  10.341 -0.9877 -0.0049 -0.1768
  785MOL0     H 3614   1.650   4.571  10.404  0.3798  1.0582 -0.1460
  785MOL0     H 3615   1.467   4.590  10.374 -1.0275 -0.5901 -0.4110
  785MOL0     H 3616   1.507   4.488  10.148  0.5215 -1.8345  1.0770
  785MOL0     H 3617   1.604   4.648  10.175 -1.8201  1.4854  3.0931
  785MOL0     H 3618   1.903   4.364  10.101  1.3264  2.3252 -0.7340
  785MOL0     H 3619   1.082   4.570  10.508  0.8995 -0.8953  2.1920
  785MOL0     H 3620   0.871   4.469  10.448 -1.1928 -1.1164 -0.4216
  786MOL0     O 3621   2.820   8.280  10.643 -0.3976  0.0812  0.4159
  786MOL0     C 3622   2.836   8.163  10.608  0.0251  0.3994 -0.7034
  786MOL0     O 3623   2.941   8.112  10.540 -0.6072 -0.6075  0.3367
  786MOL0     C 3624   3.045   8.195  10.498  0.5317 -0.1654  0.4163
  786MOL0     C 3625   3.115   8.139  10.395 -0.3111  0.7218  0.6726
  786MOL0     C 3626   3.213   8.213  10.324  0.4823  0.2082 -0.4589
  786MOL0     C 3627   3.246   8.344  10.363 -0.6390 -0.3862 -0.2309
  786MOL0     O 3628   3.347   8.433  10.313  0.1573  0.0703 -0.2501
  786MOL0     C 3629   3.438   8.393  10.207 -0.1935 -0.2714 -0.9776
  786MOL0     C 3630   3.527   8.508  10.178  0.4468  0.5233 -0.4275
  786MOL0     C 3631   3.615   8.555  10.290 -0.5920 -0.1614 -0.1996
  786MOL0     C 3632   3.742   8.456  10.316 -0.8999  0.1116  0.4221
  786MOL0     C 3633   3.843   8.531  10.398 -0.3033 -0.1397 -0.9677
  786MOL0     C 3634   3.947   8.430  10.454 -0.5676  0.3403  0.1871
  786MOL0     C 3635   4.034   8.378  10.330  0.4848  0.7134 -0.2674
  786MOL0     C 3636   4.167   8.317  10.368  0.0763 -0.5474 -0.4447
  786MOL0     N 3637   4.153   8.215  10.479  0.2790 -0.0223 -0.6172
  786MOL0     C 3638   4.177   8.081  10.465 -0.0575 -0.3992 -0.2828
  786MOL0     C 3639   4.200   8.037  10.595  0.1463  0.7522 -0.0333
  786MOL0     C 3640   4.227   7.892  10.623 -0.7984 -0.4073 -1.5422
  786MOL0     C 3641   4.136   7.781  10.563 -0.0686  0.3407  0.0143
  786MOL0     C 3642   3.987   7.795  10.582 -0.2367 -0.8818  0.6342
  786MOL0     C 3643   3.920   7.692  10.499  0.5702 -0.3697  0.3112
  786MOL0     O 3644   3.786   7.664  10.554  0.2011  0.1063 -0.0401
  786MOL0     C 3645   3.692   7.605  10.475 -0.0348 -1.0943  0.2760
  786MOL0     C 3646   3.697   7.587  10.330  0.0660 -0.7885 -0.1462
  786MOL0     C 3647   3.593   7.529  10.257  0.4414  0.1046 -0.4463
  786MOL0     C 3648   3.474   7.483  10.329 -0.4593  0.3703 -0.2342
  786MOL0     C 3649   3.368   7.422  10.240 -0.3419  0.1173 -0.4492
  786MOL0     O 3650   3.350   7.488  10.123  0.1112 -0.7677  0.0057
  786MOL0     C 3651   3.261   7.458  10.024 -0.0534 -0.0248 -0.5262
  786MOL0     C 3652   3.181   7.348  10.012  0.5414  0.0339  0.2364
  786MOL0     C 3653   3.106   7.320   9.901  0.2212  0.0340 -0.2424
  786MOL0     C 3654   3.105   7.404   9.788  0.5382  0.0299  0.4489
  786MOL0     O 3655   3.040   7.383   9.665 -0.2353 -0.3952 -0.8385
  786MOL0     C 3656   2.965   7.262   9.652  0.5820 -0.0910  0.6420
  786MOL0     C 3657   2.892   7.227   9.517  1.1193 -0.1645  0.9057
  786MOL0     C 3658   2.763   7.316   9.504  0.1195 -0.5560 -1.2982
  786MOL0     C 3659   2.694   7.273   9.380  0.6056  0.5190 -0.0344
  786MOL0     C 3660   2.562   7.344   9.377 -0.5696 -0.5958 -0.1701
  786MOL0     C 3661   2.488   7.281   9.254  0.1213  1.0547  0.3463
  786MOL0     C 3662   2.338   7.301   9.255 -0.2529  0.5833  0.3308
  786MOL0     C 3663   2.300   7.444   9.296  1.0536  0.3582  0.4823
  786MOL0    Cl 3664   2.135   7.471   9.252  0.5090  0.1195 -0.0602
  786MOL0     C 3665   3.193   7.508   9.783 -1.0376 -0.0265 -0.5028
  786MOL0     C 3666   3.263   7.541   9.909 -0.1182  1.8022  0.8286
  786MOL0     O 3667   3.309   7.325  10.278 -0.0710  0.6361  0.4017
  786MOL0     C 3668   3.473   7.497  10.471  0.3831 -1.2327 -0.9318
  786MOL0     C 3669   3.571   7.563  10.538 -0.7356 -0.5428 -0.3285
  786MOL0     N 3670   4.181   8.145  10.680  0.4116 -0.2614 -0.4912
  786MOL0     N 3671   4.165   8.257  10.609 -0.3768 -0.1315 -0.3061
  786MOL0     C 3672   3.182   8.392  10.482  0.2800 -1.0400  0.3315
  786MOL0     C 3673   3.080   8.320  10.550 -0.0913 -0.8126  0.5710
  786MOL0     C 3674   2.736   8.061  10.634  0.1794 -0.9219 -0.1564
  786MOL0     C 3675   2.772   7.933  10.659  0.9812 -1.0146  0.9466
  786MOL0     C 3676   2.677   7.833  10.685  0.0141  0.0267  0.9453
  786MOL0     C 3677   2.542   7.863  10.685 -0.1168 -0.6746  0.2017
  786MOL0     O 3678   2.449   7.773  10.724  0.2123 -0.4690  0.0929
  786MOL0     C 3679   2.453   7.647  10.657 -0.7242 -0.6982  0.7827
  786MOL0     C 3680   2.337   7.570  10.696 -0.0662  0.4084 -0.6382
  786MOL0     C 3681   2.209   7.596  10.616  0.9275 -0.8994  0.2799
  786MOL0     C 3682   2.090   7.506  10.625 -0.7085  0.4098 -0.1352
  786MOL0     C 3683   2.135   7.369  10.583  0.6238  0.0785 -0.2540
  786MOL0     C 3684   2.191   7.259  10.567 -0.1820 -0.2553  0.2797
  786MOL0     C 3685   2.505   8.001  10.661  0.4759 -0.2472  0.2236
  786MOL0     C 3686   2.607   8.095  10.628 -0.6864  0.9606 -0.6226
  786MOL0     H 3687   3.092   8.039  10.359 -0.9132  0.8999  0.5527
  786MOL0     H 3688   3.258   8.161  10.241  0.3566 -0.1949 -0.2743
  786MOL0     H 3689   3.382   8.359  10.119 -1.7555 -0.9907  0.2378
  786MOL0     H 3690   3.506   8.313  10.239 -1.0842 -0.3665  0.8355
  786MOL0     H 3691   3.452   8.579  10.143 -1.2722 -1.1967 -0.3784
  786MOL0     H 3692   3.587   8.469  10.095  0.2922 -3.0781  0.9386
  786MOL0     H 3693   3.555   8.575  10.378 -2.0783  0.5633 -1.3354
  786MOL0     H 3694   3.656   8.647  10.249  1.1275  1.1183  3.8975
  786MOL0     H 3695   3.732   8.370  10.382  0.3854  1.6680  2.7920
  786MOL0     H 3696   3.788   8.418  10.224  1.4868  0.3549  1.4400
  786MOL0     H 3697   3.799   8.589  10.480  2.8265  1.6775 -0.4358
  786MOL0     H 3698   3.883   8.612  10.337 -2.5751  2.1812  0.4511
  786MOL0     H 3699   3.911   8.352  10.522 -0.9487  0.2287 -0.1372
  786MOL0     H 3700   4.014   8.492  10.514 -0.2793  1.1434 -0.9370
  786MOL0     H 3701   3.987   8.297  10.275  0.5714 -1.9415  3.2301
  786MOL0     H 3702   4.056   8.458  10.259 -0.0823  0.6070 -0.5653
  786MOL0     H 3703   4.241   8.393  10.396  2.0281 -1.6143 -2.3315
  786MOL0     H 3704   4.218   8.282  10.277  0.8477  1.1533 -0.7196
  786MOL0     H 3705   4.174   8.013  10.380  1.4230 -4.1841  2.4256
  786MOL0     H 3706   4.215   7.877  10.730 -1.3280 -1.3405 -1.7193
  786MOL0     H 3707   4.334   7.877  10.603 -0.0558 -0.0604  1.6257
  786MOL0     H 3708   4.163   7.687  10.613  1.1048 -0.2501 -1.6347
  786MOL0     H 3709   4.154   7.759  10.457 -2.7092 -0.9642 -0.2547
  786MOL0     H 3710   3.945   7.781  10.682 -0.4572  3.1544  1.2842
  786MOL0     H 3711   3.951   7.894  10.551 -0.0201 -1.0046 -0.0254
  786MOL0     H 3712   3.976   7.598  10.501  1.3585  0.1050  0.7587
  786MOL0     H 3713   3.928   7.733  10.398  0.0006  2.4228  1.3247
  786MOL0     H 3714   3.783   7.627  10.278 -0.6684 -1.0510 -1.5934
  786MOL0     H 3715   3.607   7.524  10.150  4.1188  0.9385 -0.1180
  786MOL0     H 3716   3.185   7.278  10.094  1.8589 -1.8990 -1.3839
  786MOL0     H 3717   3.035   7.241   9.921 -0.1440 -0.7731 -3.9423
  786MOL0     H 3718   2.887   7.266   9.729 -1.1149 -1.2213 -0.9522
  786MOL0     H 3719   3.033   7.179   9.671  1.8932  1.1320  1.5389
  786MOL0     H 3720   2.874   7.119   9.512 -2.5658  0.2985  1.0629
  786MOL0     H 3721   2.960   7.251   9.435  1.4754 -2.2275  0.5325
  786MOL0     H 3722   2.786   7.423   9.507 -0.6393 -0.3919  0.9523
  786MOL0     H 3723   2.707   7.290   9.595  1.3628  3.6603  0.9552
  786MOL0     H 3724   2.757   7.299   9.294 -0.2985 -0.8819 -1.1618
  786MOL0     H 3725   2.684   7.164   9.373 -0.9713  0.7286 -1.4156
  786MOL0     H 3726   2.576   7.453   9.368  2.1669 -0.2729  4.5469
  786MOL0     H 3727   2.506   7.324   9.468 -0.5353  2.0517  0.5222
  786MOL0     H 3728   2.510   7.174   9.245  2.6277  1.4818  0.6262
  786MOL0     H 3729   2.537   7.320   9.164  1.3618 -3.1363 -1.0591
  786MOL0     H 3730   2.289   7.286   9.158 -2.2271  1.2273  1.1782
  786MOL0     H 3731   2.293   7.234   9.330 -0.3652  3.2517  2.7915
  786MOL0     H 3732   2.358   7.522   9.244 -1.1812  1.0420 -1.1397
  786MOL0     H 3733   2.296   7.471   9.401  1.1850  0.5995  0.4272
  786MOL0     H 3734   3.185   7.573   9.696 -1.8886 -1.1316 -1.2691
  786MOL0     H 3735   3.323   7.631   9.908  1.7392  0.6798  2.6301
  786MOL0     H 3736   3.382   7.481  10.527 -0.5996  3.0576 -1.0403
  786MOL0     H 3737   3.565   7.573  10.646  1.6878 -1.4842 -0.0378
  786MOL0     H 3738   3.214   8.489  10.517 -1.9940 -0.0739 -0.1107
  786MOL0     H 3739   3.024   8.373  10.626 -0.0193 -1.5877  1.1752
  786MOL0     H 3740   2.876   7.904  10.667  1.8108  0.6568 -1.9858
  786MOL0     H 3741   2.709   7.735  10.718  2.6246  0.3757 -0.2520
  786MOL0     H 3742   2.539   7.585  10.683 -0.4542 -0.9865 -0.7254
  786MOL0     H 3743   2.452   7.662  10.549  1.4403  2.5370  1.0872
  786MOL0     H 3744   2.374   7.468  10.681  1.6034  0.4346  2.4564
  786MOL0     H 3745   2.334   7.579  10.805  1.4911 -1.9563 -0.3080
  786MOL0     H 3746   2.232   7.606  10.510 -0.8789 -0.8823 -0.1552
  786MOL0     H 3747   2.174   7.696  10.646  0.0511 -1.2617  0.4999
  786MOL0     H 3748   2.047   7.517  10.725 -2.6852 -2.2250 -0.5565
  786MOL0     H 3749   2.011   7.534  10.554 -1.7719 -1.4635  0.2281
  786MOL0     H 3750   2.243   7.165  10.562  0.2040 -0.0173 -0.2705
  786MOL0     H 3751   2.403   8.038  10.661  0.6114  0.1274  0.0153
  786MOL0     H 3752   2.594   8.200  10.606 -0.2991  0.8850 -1.2103
  787MOL0     O 3753   3.838   1.039  10.210  0.2789 -0.6016  0.8953
  787MOL0     C 3754   3.898   1.034  10.100 -0.4031  0.4897 -0.7786
  787MOL0     O 3755   3.853   1.089   9.983 -0.4814  0.1589  0.4483
  787MOL0     C 3756   3.723   1.130   9.974 -0.0809 -0.9091 -0.7226
  787MOL0     C 3757   3.695   1.250   9.919 -0.5693 -0.4198  0.0308
  787MOL0     C 3758   3.567   1.289   9.911  0.5485  0.1578  0.5675
  787MOL0     C 3759   3.458   1.214   9.939 -0.2579  0.0797  0.2704
  787MOL0     O 3760   3.322   1.247   9.932 -0.1167 -0.1004  0.5759
  787MOL0     C 3761   3.291   1.381   9.977  0.6671 -0.4494 -0.3184
  787MOL0     C 3762   3.139   1.397   9.964  0.2353 -0.4963 -0.2079
  787MOL0     C 3763   3.089   1.501   9.862 -0.7782 -0.5510  0.1784
  787MOL0     C 3764   2.932   1.512   9.848 -1.2857  0.2281  0.7677
  787MOL0     C 3765   2.877   1.378   9.799 -0.4472 -0.7116 -0.2881
  787MOL0     C 3766   2.730   1.374   9.765 -0.1469  0.8322  0.1300
  787MOL0     C 3767   2.691   1.231   9.720  0.0835  0.2168  0.1887
  787MOL0     C 3768   2.576   1.203   9.626  0.2334  0.1515 -0.2325
  787MOL0     N 3769   2.455   1.187   9.694  0.4249  0.2491 -0.1370
  787MOL0     C 3770   2.389   1.288   9.760  0.6378 -0.0480  0.8628
  787MOL0     C 3771   2.300   1.235   9.838  0.0618  0.0933 -0.2924
  787MOL0     C 3772   2.229   1.295   9.961  0.0747  0.2405  0.0066
  787MOL0     C 3773   2.325   1.376  10.052  0.7236  0.2813  0.0591
  787MOL0     C 3774   2.410   1.304  10.158 -0.1873 -0.2398 -0.4934
  787MOL0     C 3775   2.509   1.389  10.243 -0.8791 -0.2342 -0.0095
  787MOL0     O 3776   2.575   1.309  10.342  0.1486  0.3052  0.0405
  787MOL0     C 3777   2.659   1.371  10.436  0.8614  0.4285 -0.1908
  787MOL0     C 3778   2.680   1.506  10.455  0.3591 -0.6299  0.2576
  787MOL0     C 3779   2.773   1.548  10.550  0.3924  0.1160 -0.3167
  787MOL0     C 3780   2.825   1.452  10.638 -0.1347 -1.1748  0.7473
  787MOL0     C 3781   2.929   1.494  10.735  0.9800  0.2990  0.2592
  787MOL0     O 3782   2.946   1.628  10.722  0.2866  0.2415  0.4331
  787MOL0     C 3783   3.033   1.687  10.811 -0.1995 -0.6443  0.4479
  787MOL0     C 3784   3.047   1.664  10.952  0.3791  0.5207 -0.1280
  787MOL0     C 3785   3.131   1.726  11.030 -0.0820 -0.0542  0.4517
  787MOL0     C 3786   3.217   1.817  10.973 -0.2122  0.0439  1.3559
  787MOL0     O 3787   3.303   1.891  11.045  0.1837  0.3701  0.0830
  787MOL0     C 3788   3.339   2.027  11.017  0.7739  0.9973 -0.2336
  787MOL0     C 3789   3.466   2.049  11.092  0.5552  0.8075  0.0410
  787MOL0     C 3790   3.481   1.972  11.230  0.3300 -0.3008 -0.1825
  787MOL0     C 3791   3.605   2.015  11.307  0.7336 -0.3949 -0.1303
  787MOL0     C 3792   3.618   1.957  11.447  0.5833  0.0371 -0.5715
  787MOL0     C 3793   3.731   2.024  11.533 -0.1647 -0.6741  0.2466
  787MOL0     C 3794   3.871   1.999  11.466 -0.3359  0.8956 -1.4770
  787MOL0     C 3795   3.997   2.015  11.567  0.4039  0.5311  0.1006
  787MOL0    Cl 3796   4.144   1.976  11.459  0.2093 -0.2213 -0.1087
  787MOL0     C 3797   3.222   1.842  10.831  0.4019 -0.0278 -0.1103
  787MOL0     C 3798   3.124   1.782  10.753  1.1453  0.0745 -0.2975
  787MOL0     O 3799   2.975   1.422  10.823  0.0290 -0.6050  0.1061
  787MOL0     C 3800   2.788   1.317  10.634 -0.2948 -0.6909 -0.5328
  787MOL0     C 3801   2.715   1.281  10.529  0.5374 -0.8422  0.5828
  787MOL0     N 3802   2.300   1.101   9.813 -0.2455 -1.2046 -0.1246
  787MOL0     N 3803   2.393   1.076   9.726  0.0659 -0.6286 -0.1097
  787MOL0     C 3804   3.488   1.082   9.976  0.1361 -0.5318  0.2541
  787MOL0     C 3805   3.618   1.041  10.001 -0.5591 -0.2317  0.7416
  787MOL0     C 3806   4.046   0.988  10.094 -0.3000 -0.0258 -0.6799
  787MOL0     C 3807   4.091   0.911  10.211 -1.0836 -0.3625  0.1673
  787MOL0     C 3808   4.231   0.884  10.212  0.2793  0.0963 -0.0276
  787MOL0     C 3809   4.312   0.914  10.103 -0.7541 -0.0974  0.8797
  787MOL0     O 3810   4.450   0.887  10.109  0.3787 -0.4239  0.0103
  787MOL0     C 3811   4.505   0.788  10.193  0.2384 -0.2830  0.2349
  787MOL0     C 3812   4.463   0.647  10.153 -0.7472 -0.1476 -0.3865
  787MOL0     C 3813   4.490   0.627  10.002 -0.0725  0.6223 -0.0340
  787MOL0     C 3814   4.485   0.478   9.975 -0.3854 -0.4592  0.1242
  787MOL0     C 3815   4.360   0.415  10.002 -0.1427  0.6218 -0.4427
  787MOL0     C 3816   4.256   0.373  10.041  0.2431  0.3061 -0.0590
  787MOL0     C 3817   4.273   0.987   9.990  0.8044  0.1377 -0.0509
  787MOL0     C 3818   4.138   1.029   9.984  0.2520  0.2838 -0.4486
  787MOL0     H 3819   3.781   1.302   9.878 -1.5006 -0.7041 -2.4755
  787MOL0     H 3820   3.550   1.393   9.882 -1.8285 -0.0017  1.2418
  787MOL0     H 3821   3.345   1.457   9.919  1.7773 -0.3463  0.8136
  787MOL0     H 3822   3.321   1.391  10.081  0.2329  0.9211 -0.2980
  787MOL0     H 3823   3.093   1.428  10.058 -2.2033 -0.9958 -1.1621
  787MOL0     H 3824   3.100   1.297   9.942  1.7590 -0.8417 -1.5390
  787MOL0     H 3825   3.137   1.487   9.765 -0.9557  2.7470 -0.5081
  787MOL0     H 3826   3.129   1.598   9.895  1.6976 -1.5276  0.2474
  787MOL0     H 3827   2.879   1.534   9.941 -2.4140 -3.5409  1.2211
  787MOL0     H 3828   2.909   1.596   9.783 -1.3809  1.2312  2.0516
  787MOL0     H 3829   2.899   1.312   9.883  1.2300  0.0853 -0.0569
  787MOL0     H 3830   2.927   1.340   9.709 -0.4579 -1.9609  0.2103
  787MOL0     H 3831   2.719   1.440   9.679  2.7941 -0.0504 -1.0417
  787MOL0     H 3832   2.666   1.412   9.845 -1.4469  0.0268 -0.4932
  787MOL0     H 3833   2.777   1.176   9.679 -1.2797 -3.1506  1.4841
  787MOL0     H 3834   2.678   1.161   9.803 -0.4348 -2.1197 -1.7332
  787MOL0     H 3835   2.585   1.106   9.576 -0.6441 -0.4465  0.7362
  787MOL0     H 3836   2.589   1.275   9.544  2.1485 -2.0420 -2.0078
  787MOL0     H 3837   2.412   1.393   9.753 -1.6301  0.5055  1.0141
  787MOL0     H 3838   2.183   1.213  10.017  0.7705 -1.2490 -1.5097
  787MOL0     H 3839   2.146   1.359   9.927 -0.7053 -0.7416  0.0094
  787MOL0     H 3840   2.270   1.452  10.108  2.2971  0.2250  1.7744
  787MOL0     H 3841   2.390   1.435   9.988 -3.0134  1.8755 -2.6463
  787MOL0     H 3842   2.341   1.261  10.231  0.0951 -0.9033 -0.6067
  787MOL0     H 3843   2.472   1.227  10.111  0.1887  0.4544 -1.1508
  787MOL0     H 3844   2.457   1.471  10.292 -3.8270 -0.3055 -2.7134
  787MOL0     H 3845   2.577   1.446  10.179 -3.3359  2.6284 -0.2903
  787MOL0     H 3846   2.635   1.579  10.390 -2.1657 -2.3738 -0.0865
  787MOL0     H 3847   2.792   1.655  10.546  0.3372  0.1031 -1.5491
  787MOL0     H 3848   2.978   1.597  11.003  0.6366 -0.0149 -0.4795
  787MOL0     H 3849   3.138   1.722  11.138  0.0520  4.9957  0.8497
  787MOL0     H 3850   3.267   2.099  11.057 -0.8651 -1.0685  0.7462
  787MOL0     H 3851   3.351   2.050  10.910 -1.0762  0.1667 -0.6552
  787MOL0     H 3852   3.472   2.153  11.124 -0.2870  0.3740  1.7768
  787MOL0     H 3853   3.546   2.023  11.022  1.2646  3.1989 -0.1105
  787MOL0     H 3854   3.493   1.864  11.216 -2.3631 -0.5849 -0.8795
  787MOL0     H 3855   3.400   2.001  11.297 -1.7585 -4.0737 -0.7647
  787MOL0     H 3856   3.699   2.020  11.252  1.3418  0.4079  0.9488
  787MOL0     H 3857   3.577   2.118  11.330  2.5693 -0.7031  4.6042
  787MOL0     H 3858   3.629   1.848  11.440 -0.4988  0.0144 -3.2268
  787MOL0     H 3859   3.520   1.981  11.491  0.2570 -3.7880  1.2589
  787MOL0     H 3860   3.719   1.993  11.637 -0.2394  1.8118  1.0615
  787MOL0     H 3861   3.718   2.133  11.537 -0.8891 -0.7925  1.5626
  787MOL0     H 3862   3.871   1.893  11.441 -0.2357 -1.0775  5.0783
  787MOL0     H 3863   3.883   2.054  11.372  1.5438  2.1402 -0.5798
  787MOL0     H 3864   3.998   1.944  11.650 -3.1490  1.6805  1.2969
  787MOL0     H 3865   4.001   2.114  11.613  0.3690  1.2283 -1.3426
  787MOL0     H 3866   3.297   1.907  10.786  1.1083 -0.3110  0.6327
  787MOL0     H 3867   3.114   1.791  10.645  0.3788  1.9982 -0.1111
  787MOL0     H 3868   2.843   1.246  10.695  0.8902  0.6717  0.0236
  787MOL0     H 3869   2.689   1.177  10.512  1.2765 -1.3289  2.2661
  787MOL0     H 3870   3.399   1.022   9.995  0.1828 -0.3395  1.1016
  787MOL0     H 3871   3.635   0.937  10.028 -1.2330 -0.4157  0.4871
  787MOL0     H 3872   4.019   0.886  10.289  0.1741 -0.0318  1.4768
  787MOL0     H 3873   4.259   0.823  10.298 -2.0958 -0.6823  0.2762
  787MOL0     H 3874   4.474   0.815  10.295  0.3985  1.0278 -0.0473
  787MOL0     H 3875   4.613   0.795  10.179  0.3554 -0.9387  0.7271
  787MOL0     H 3876   4.531   0.580  10.207 -0.7895  0.5121  0.4982
  787MOL0     H 3877   4.361   0.618  10.180 -1.6123 -0.2615 -3.3948
  787MOL0     H 3878   4.589   0.665   9.974 -0.1226  0.1967 -0.8217
  787MOL0     H 3879   4.411   0.673   9.941  0.7794  0.5139 -1.2624
  787MOL0     H 3880   4.504   0.471   9.868  0.3512 -0.2045  0.2294
  787MOL0     H 3881   4.567   0.425  10.025 -0.1868 -0.4334 -0.1743
  787MOL0     H 3882   4.160   0.346  10.078 -0.3980  1.3896 -0.8641
  787MOL0     H 3883   4.335   1.008   9.903  0.4723 -0.2855 -0.3978
  787MOL0     H 3884   4.109   1.077   9.892  0.2199  0.2548 -0.4529
  788MOL0     O 3885   0.748   7.577   9.328 -0.1840  0.0580  1.2996
  788MOL0     C 3886   0.627   7.591   9.330  0.8171 -0.0044  0.5730
  788MOL0     O 3887   0.539   7.489   9.319  0.2666  0.2509  0.3061
  788MOL0     C 3888   0.593   7.374   9.365  0.1422 -0.9625 -0.1230
  788MOL0     C 3889   0.637   7.293   9.269  0.5196  0.1821 -0.2753
  788MOL0     C 3890   0.688   7.163   9.304 -0.1866  0.2731 -0.0999
  788MOL0     C 3891   0.669   7.118   9.441  0.3384 -0.8334  0.6277
  788MOL0     O 3892   0.728   7.011   9.499 -0.3009  0.5411  0.3597
  788MOL0     C 3893   0.798   6.917   9.418  0.6876  0.1543  1.2537
  788MOL0     C 3894   0.841   6.811   9.520  1.1384  0.4645 -0.5526
  788MOL0     C 3895   0.927   6.698   9.467  0.1087 -0.3374 -0.6863
  788MOL0     C 3896   1.065   6.691   9.537  0.4100 -0.7535  0.4655
  788MOL0     C 3897   1.159   6.588   9.486  0.2509 -0.5774  0.5247
  788MOL0     C 3898   1.118   6.437   9.502  0.0843 -0.2107 -0.7156
  788MOL0     C 3899   1.231   6.344   9.517  0.4002  0.4557 -0.2073
  788MOL0     C 3900   1.329   6.331   9.396  0.6077  1.0825 -0.8659
  788MOL0     N 3901   1.456   6.263   9.440 -0.1576  0.4321  0.1140
  788MOL0     C 3902   1.477   6.143   9.494 -1.0649 -0.5240 -0.3741
  788MOL0     C 3903   1.611   6.132   9.514  0.1455  0.0167  0.2976
  788MOL0     C 3904   1.694   6.026   9.570  1.1176 -0.5145 -0.4292
  788MOL0     C 3905   1.801   5.958   9.482  0.6095  1.1063 -0.3498
  788MOL0     C 3906   1.760   5.923   9.342 -0.3322 -0.6497  0.6545
  788MOL0     C 3907   1.637   5.839   9.331 -0.8354 -0.8614  0.0119
  788MOL0     O 3908   1.534   5.915   9.257 -0.0632 -0.5408 -0.0201
  788MOL0     C 3909   1.409   5.854   9.230  0.0594 -0.6149 -0.3093
  788MOL0     C 3910   1.319   5.936   9.161 -0.2644 -0.1390 -0.5219
  788MOL0     C 3911   1.196   5.891   9.117 -0.3791  0.0545 -0.1460
  788MOL0     C 3912   1.139   5.776   9.162  0.9627  0.3534  0.9253
  788MOL0     C 3913   1.004   5.735   9.111 -0.4491  0.6066 -0.8976
  788MOL0     O 3914   0.920   5.841   9.060  0.3722  0.9639  0.1338
  788MOL0     C 3915   0.798   5.796   9.014 -0.0312  0.6876  0.2884
  788MOL0     C 3916   0.787   5.761   8.886 -0.6980  0.9648  0.6857
  788MOL0     C 3917   0.658   5.719   8.838 -0.3649  1.0113 -0.4141
  788MOL0     C 3918   0.544   5.722   8.916 -0.0237  0.0895 -0.3303
  788MOL0     O 3919   0.422   5.684   8.858 -1.1385 -0.3592 -0.6053
  788MOL0     C 3920   0.421   5.540   8.852 -0.1771  0.8844 -0.7284
  788MOL0     C 3921   0.296   5.494   8.782  0.1099  0.2179 -0.3230
  788MOL0     C 3922   0.161   5.552   8.827 -0.7583  0.3310 -1.1186
  788MOL0     C 3923   0.045   5.472   8.786  0.7774 -0.5145 -0.5398
  788MOL0     C 3924  -0.086   5.523   8.860  0.1900 -0.4351  0.8315
  788MOL0     C 3925  -0.212   5.440   8.815 -0.1799  0.5069 -0.1074
  788MOL0     C 3926  -0.333   5.496   8.877 -0.4146 -0.0530 -0.4858
  788MOL0     C 3927  -0.457   5.431   8.817 -0.0854 -0.6722  0.2134
  788MOL0    Cl 3928  -0.608   5.475   8.901  0.0747 -0.1332  0.3590
  788MOL0     C 3929   0.563   5.770   9.046 -0.1178 -0.1079 -0.0594
  788MOL0     C 3930   0.688   5.799   9.102  0.0425 -0.9284 -0.3431
  788MOL0     O 3931   0.975   5.617   9.126  0.2408 -0.3128  0.2500
  788MOL0     C 3932   1.227   5.689   9.238 -0.7377  0.1903  0.1984
  788MOL0     C 3933   1.362   5.725   9.267 -0.0324 -0.5658 -0.5188
  788MOL0     N 3934   1.670   6.247   9.474  0.3667 -0.4940  0.5638
  788MOL0     N 3935   1.579   6.318   9.418  0.0958 -0.5962 -0.1702
  788MOL0     C 3936   0.600   7.211   9.528 -0.1899 -0.1876 -0.2748
  788MOL0     C 3937   0.560   7.333   9.494 -0.3020  0.6005  0.6794
  788MOL0     C 3938   0.565   7.725   9.360 -0.4089 -0.9281 -0.2550
  788MOL0     C 3939   0.437   7.752   9.413  1.2140  1.0230 -0.7931
  788MOL0     C 3940   0.387   7.876   9.442 -0.8127  0.1358 -0.7411
  788MOL0     C 3941   0.466   7.986   9.414 -1.0163  0.4613 -1.0340
  788MOL0     O 3942   0.419   8.113   9.449  0.4400  0.2198  0.3944
  788MOL0     C 3943   0.386   8.126   9.588 -0.5433 -0.0669 -0.2827
  788MOL0     C 3944   0.254   8.200   9.603  0.4877  0.3775 -0.6459
  788MOL0     C 3945   0.130   8.104   9.600 -0.0745 -0.5721 -0.7383
  788MOL0     C 3946   0.007   8.181   9.659  0.1625 -0.4364 -0.0523
  788MOL0     C 3947  -0.045   8.291   9.581  0.7394 -0.4641  0.6049
  788MOL0     C 3948  -0.087   8.384   9.509  1.6460  0.3419 -0.5339
  788MOL0     C 3949   0.596   7.969   9.357  0.7556  0.1380 -0.3965
  788MOL0     C 3950   0.645   7.840   9.334 -0.8369  0.2022  0.1700
  788MOL0     H 3951   0.631   7.332   9.168  1.0493 -1.8711 -1.1371
  788MOL0     H 3952   0.744   7.101   9.234 -3.5646  0.2316 -3.0530
  788MOL0     H 3953   0.894   6.954   9.380  2.3866 -2.9250  2.1822
  788MOL0     H 3954   0.742   6.892   9.328 -0.1353  0.8556  1.5583
  788MOL0     H 3955   0.759   6.766   9.575  1.6849  1.7630  1.4396
  788MOL0     H 3956   0.903   6.864   9.593  1.8905  2.3457 -2.4509
  788MOL0     H 3957   0.952   6.708   9.361 -1.8248 -0.0812 -1.1505
  788MOL0     H 3958   0.887   6.596   9.476  0.8742 -0.6340 -0.5226
  788MOL0     H 3959   1.120   6.784   9.550  1.1530 -0.9786 -0.8971
  788MOL0     H 3960   1.041   6.661   9.639  2.6859  0.9839  1.6068
  788MOL0     H 3961   1.253   6.597   9.542 -0.7940 -5.0554  3.5718
  788MOL0     H 3962   1.178   6.604   9.380 -0.5871 -0.1379  0.4355
  788MOL0     H 3963   1.053   6.410   9.418  2.4814 -0.2814 -2.6555
  788MOL0     H 3964   1.061   6.423   9.594  2.4448 -3.4160  0.4815
  788MOL0     H 3965   1.297   6.359   9.603 -0.9492 -2.3773  1.4999
  788MOL0     H 3966   1.197   6.241   9.531 -2.6457  1.5052  1.2635
  788MOL0     H 3967   1.350   6.436   9.376 -1.3336  1.4805 -0.9490
  788MOL0     H 3968   1.285   6.287   9.306  0.2719  0.1187 -0.2484
  788MOL0     H 3969   1.393   6.082   9.524 -1.5319 -0.5653 -1.6841
  788MOL0     H 3970   1.623   5.958   9.618 -0.0692  1.6632  1.0578
  788MOL0     H 3971   1.746   6.063   9.659  0.2093  1.7747 -0.8054
  788MOL0     H 3972   1.825   5.865   9.534  2.0584  2.6491  1.9185
  788MOL0     H 3973   1.892   6.018   9.486  0.4460  1.3125  0.4039
  788MOL0     H 3974   1.749   6.013   9.282  2.8446 -0.5448  0.0911
  788MOL0     H 3975   1.843   5.870   9.295  0.1886  0.5719  0.1789
  788MOL0     H 3976   1.602   5.807   9.430 -0.1651  1.3832  1.0473
  788MOL0     H 3977   1.659   5.751   9.271 -0.5725  0.4662 -1.9585
  788MOL0     H 3978   1.344   6.036   9.126  1.9638 -0.8586 -1.1757
  788MOL0     H 3979   1.139   5.952   9.048 -0.2355 -1.9960 -2.2079
  788MOL0     H 3980   0.865   5.750   8.811 -1.5079  2.9183 -0.5088
  788MOL0     H 3981   0.650   5.683   8.736  1.1109  1.7165 -0.8036
  788MOL0     H 3982   0.420   5.498   8.953  0.3919 -1.3494 -1.6075
  788MOL0     H 3983   0.507   5.493   8.803 -1.9824 -4.9861  0.8668
  788MOL0     H 3984   0.285   5.389   8.812 -2.8383  0.3511 -0.5885
  788MOL0     H 3985   0.304   5.519   8.676  1.5203 -0.3371 -0.3574
  788MOL0     H 3986   0.152   5.653   8.786 -1.2364  1.2484  1.0691
  788MOL0     H 3987   0.166   5.561   8.936 -0.6524  0.3286 -1.1223
  788MOL0     H 3988   0.048   5.480   8.677  2.9539  1.9488 -0.3921
  788MOL0     H 3989   0.065   5.369   8.815 -1.0755 -0.6736  0.3314
  788MOL0     H 3990  -0.099   5.631   8.852 -1.9267 -0.6955  0.0876
  788MOL0     H 3991  -0.088   5.508   8.968 -2.7507  2.6697  1.3614
  788MOL0     H 3992  -0.195   5.332   8.827  0.8232  0.5799 -0.7574
  788MOL0     H 3993  -0.209   5.450   8.706  3.7036  1.9726 -0.0235
  788MOL0     H 3994  -0.329   5.462   8.981 -2.3182 -0.9280 -0.6442
  788MOL0     H 3995  -0.330   5.605   8.882  0.7857 -0.1047  0.3266
  788MOL0     H 3996  -0.441   5.323   8.816 -3.3563 -1.3555  2.4298
  788MOL0     H 3997  -0.465   5.467   8.714  0.7406 -0.0237  0.3598
  788MOL0     H 3998   0.475   5.795   9.104 -0.3583 -0.0846 -0.4328
  788MOL0     H 3999   0.698   5.840   9.203  0.2415 -1.0623 -0.3081
  788MOL0     H 4000   1.204   5.583   9.250 -1.8316  0.4263  0.2016
  788MOL0     H 4001   1.439   5.670   9.321  1.6238  2.3872  0.3341
  788MOL0     H 4002   0.579   7.172   9.627 -0.0661  1.1841  0.3201
  788MOL0     H 4003   0.518   7.399   9.569  1.2047  2.0234  0.3362
  788MOL0     H 4004   0.375   7.667   9.439  1.5514  1.3699  1.4002
  788MOL0     H 4005   0.291   7.879   9.491 -1.0956 -0.0912 -1.2778
  788MOL0     H 4006   0.467   8.182   9.634  1.9251 -4.0867  0.7822
  788MOL0     H 4007   0.389   8.030   9.641 -0.2088 -0.6167 -1.2592
  788MOL0     H 4008   0.251   8.237   9.705 -3.5225 -0.1586 -0.4182
  788MOL0     H 4009   0.247   8.289   9.540 -2.3617 -0.8808 -2.3055
  788MOL0     H 4010   0.150   8.012   9.655  0.2773 -0.7792 -1.1973
  788MOL0     H 4011   0.113   8.076   9.496 -0.0244 -1.5321 -0.4952
  788MOL0     H 4012  -0.069   8.102   9.658 -3.1189  2.3978 -2.8131
  788MOL0     H 4013   0.027   8.214   9.761  0.7721 -0.9776  0.0072
  788MOL0     H 4014  -0.135   8.467   9.460  1.8376  1.1423  0.5856
  788MOL0     H 4015   0.653   8.058   9.330  3.0927 -2.0944 -3.5111
  788MOL0     H 4016   0.743   7.808   9.299 -0.2959 -0.0706  1.8401
  789MOL0     O 4017   6.896  10.478   8.731 -0.0509 -0.0041  0.3183
  789MOL0     C 4018   7.018  10.457   8.773  1.1150 -1.3708  0.2712
  789MOL0     O 4019   7.065  10.513   8.890  0.4520 -0.5907 -0.4068
  789MOL0     C 4020   6.976  10.594   8.969 -0.6420 -0.6787 -0.1345
  789MOL0     C 4021   7.029  10.710   9.019 -0.5613 -0.7423 -0.2176
  789MOL0     C 4022   6.949  10.794   9.102 -0.2199 -0.5524  0.3180
  789MOL0     C 4023   6.828  10.751   9.148  0.5407 -0.0052  0.9137
  789MOL0     O 4024   6.733  10.819   9.224 -0.0403 -0.4044  0.1153
  789MOL0     C 4025   6.641  10.900   9.143 -0.2647  0.0928 -0.8099
  789MOL0     C 4026   6.521  10.830   9.071  0.0950  0.7399  0.2229
  789MOL0     C 4027   6.409  10.918   9.021  0.0203 -1.3675 -0.0323
  789MOL0     C 4028   6.339  10.979   9.141 -0.1101  0.1849 -0.5797
  789MOL0     C 4029   6.209  11.060   9.107  0.1119  0.4767  0.4051
  789MOL0     C 4030   6.083  10.980   9.074 -1.3219  0.3119 -0.3907
  789MOL0     C 4031   5.962  11.061   9.024  0.6462 -0.4093  0.1964
  789MOL0     C 4032   5.985  11.174   8.922 -0.1654 -0.3007  0.0705
  789MOL0     N 4033   5.995  11.117   8.786  0.1403  0.1060 -0.8593
  789MOL0     C 4034   5.890  11.119   8.689 -0.6329  0.3813 -0.2074
  789MOL0     C 4035   5.939  11.027   8.597  0.9754  0.6378 -0.9439
  789MOL0     C 4036   5.869  10.972   8.472 -0.2882 -0.5366  0.5346
  789MOL0     C 4037   5.850  11.077   8.369 -0.4981  0.0637  0.8888
  789MOL0     C 4038   5.794  11.022   8.251  1.0940 -0.0691  0.2722
  789MOL0     C 4039   5.640  11.046   8.224 -0.2768 -0.6995  0.3314
  789MOL0     O 4040   5.577  10.999   8.344  0.3193  0.4565 -0.4237
  789MOL0     C 4041   5.444  11.024   8.363 -0.2624  0.3394  1.4022
  789MOL0     C 4042   5.388  11.004   8.491  0.1963  0.0821  0.1908
  789MOL0     C 4043   5.264  11.061   8.525  0.7437  0.0385 -0.5383
  789MOL0     C 4044   5.169  11.094   8.421 -0.7965 -0.5240 -0.8156
  789MOL0     C 4045   5.030  11.119   8.449  1.3069  0.4555  0.1957
  789MOL0     O 4046   4.987  11.107   8.577 -0.4603  0.3015 -1.1609
  789MOL0     C 4047   4.859  11.128   8.619  0.1899 -0.2720  0.8271
  789MOL0     C 4048   4.844  11.180   8.749 -0.4223  0.4736 -0.1342
  789MOL0     C 4049   4.716  11.207   8.800 -0.5248  0.5422 -1.2879
  789MOL0     C 4050   4.602  11.183   8.728  0.0773 -0.4211  0.4682
  789MOL0     O 4051   4.473  11.204   8.777  0.1248 -0.3770  0.3198
  789MOL0     C 4052   4.459  11.248   8.902  0.2940  0.0422 -0.7345
  789MOL0     C 4053   4.309  11.293   8.928 -0.6838  0.1131  1.2552
  789MOL0     C 4054   4.205  11.186   8.902  1.5893  0.5503  0.3236
  789MOL0     C 4055   4.057  11.231   8.886  0.2726  0.1661  0.5548
  789MOL0     C 4056   4.011  11.349   8.975  0.1015  0.4577 -0.1570
  789MOL0     C 4057   3.857  11.372   8.965  0.2732 -0.3234 -0.3493
  789MOL0     C 4058   3.769  11.266   9.032 -0.0250  0.0730 -0.3379
  789MOL0     C 4059   3.623  11.283   9.014  0.0158 -0.3793  0.2041
  789MOL0    Cl 4060   3.584  11.324   8.846  0.1139  0.4473  0.0572
  789MOL0     C 4061   4.618  11.124   8.602 -0.5750  0.4367  0.0680
  789MOL0     C 4062   4.748  11.098   8.544  0.0069 -0.0025 -0.5994
  789MOL0     O 4063   4.955  11.139   8.354  0.4584 -0.1937  0.0007
  789MOL0     C 4064   5.220  11.108   8.290 -0.4405  0.1719 -0.0595
  789MOL0     C 4065   5.361  11.078   8.263 -0.1238 -0.0425  0.8111
  789MOL0     N 4066   6.067  10.991   8.629  0.8846  0.5106 -0.0944
  789MOL0     N 4067   6.104  11.050   8.736 -0.5260 -0.0096  0.4328
  789MOL0     C 4068   6.784  10.627   9.101  0.5205  0.1038 -0.4010
  789MOL0     C 4069   6.847  10.554   9.002 -0.0904  0.3499 -0.2645
  789MOL0     C 4070   7.105  10.410   8.670 -0.0462  0.3064 -0.0760
  789MOL0     C 4071   7.066  10.334   8.568 -0.5172  0.2341 -0.3404
  789MOL0     C 4072   7.150  10.271   8.483 -0.8181 -0.2634  0.1389
  789MOL0     C 4073   7.294  10.290   8.487  0.6555 -0.0546 -0.5002
  789MOL0     O 4074   7.384  10.222   8.410 -0.2111  0.4632 -0.0225
  789MOL0     C 4075   7.360  10.079   8.386 -0.9917 -0.6700 -0.6162
  789MOL0     C 4076   7.485  10.042   8.301  0.7075  0.1532 -0.1507
  789MOL0     C 4077   7.485   9.895   8.282 -0.4003  0.1507 -0.0372
  789MOL0     C 4078   7.351   9.842   8.219 -0.7791 -0.1420 -0.5555
  789MOL0     C 4079   7.336   9.879   8.079  0.3829 -0.5323  0.5340
  789MOL0     C 4080   7.354   9.918   7.966 -0.4395 -0.0986 -0.5899
  789MOL0     C 4081   7.331  10.380   8.587  0.3073  0.6758 -0.4693
  789MOL0     C 4082   7.243  10.444   8.671  0.4576  0.0905  0.1354
  789MOL0     H 4083   7.131  10.743   9.000 -0.2291 -0.9161  1.1192
  789MOL0     H 4084   6.987  10.891   9.133  0.7130 -1.5345  2.4447
  789MOL0     H 4085   6.697  10.948   9.061 -0.8885  1.1588 -0.6286
  789MOL0     H 4086   6.603  10.981   9.206  0.3525  0.7957 -1.3218
  789MOL0     H 4087   6.482  10.754   9.139  0.4531  1.0688  0.8085
  789MOL0     H 4088   6.560  10.771   8.987  1.4370  2.1123 -0.1563
  789MOL0     H 4089   6.322  10.878   8.968 -2.9290  2.0345  1.8075
  789MOL0     H 4090   6.465  10.989   8.960  1.8531 -2.5523  0.1855
  789MOL0     H 4091   6.308  10.898   9.208 -0.0792  0.9862  0.4156
  789MOL0     H 4092   6.413  11.048   9.182  0.4349 -1.1449  0.8066
  789MOL0     H 4093   6.239  11.128   9.027 -0.2037 -0.9957 -1.0278
  789MOL0     H 4094   6.174  11.115   9.194 -2.5926 -0.6827  0.1790
  789MOL0     H 4095   6.061  10.914   9.159  0.8993  0.9582  0.7832
  789MOL0     H 4096   6.106  10.905   8.998  0.6167  1.2252 -0.7749
  789MOL0     H 4097   5.885  11.005   8.970 -2.6864  2.4441  1.6615
  789MOL0     H 4098   5.923  11.112   9.112 -0.5504  2.6021 -1.9153
  789MOL0     H 4099   6.074  11.233   8.948  0.4373  0.0624 -2.5954
  789MOL0     H 4100   5.902  11.245   8.933  0.7622  0.5302  2.5088
  789MOL0     H 4101   5.797  11.175   8.694  1.4341  4.2693 -1.1157
  789MOL0     H 4102   5.774  10.932   8.509 -0.8327  0.5799  0.4050
  789MOL0     H 4103   5.929  10.887   8.439  0.6534  1.1841 -2.6863
  789MOL0     H 4104   5.944  11.120   8.335 -1.6739 -0.4408 -3.7002
  789MOL0     H 4105   5.790  11.162   8.405 -2.5532 -1.5706  1.5519
  789MOL0     H 4106   5.840  11.072   8.165  0.2301  2.1248  1.0036
  789MOL0     H 4107   5.818  10.916   8.250  2.1212  0.1177  1.5003
  789MOL0     H 4108   5.604  11.003   8.130  0.2647  1.1647 -0.7851
  789MOL0     H 4109   5.625  11.153   8.208  3.7663 -0.5026 -4.7144
  789MOL0     H 4110   5.446  10.942   8.560 -1.2053 -1.2000  0.2675
  789MOL0     H 4111   5.241  11.063   8.631  0.2893 -0.1644 -0.6270
  789MOL0     H 4112   4.932  11.184   8.812 -0.0738 -0.6839 -0.5291
  789MOL0     H 4113   4.720  11.253   8.899  2.2650  1.1104 -1.5884
  789MOL0     H 4114   4.526  11.328   8.934 -0.9987  0.6658  0.5419
  789MOL0     H 4115   4.471  11.166   8.973 -0.5579  0.9514  0.5018
  789MOL0     H 4116   4.286  11.382   8.869  0.7595  1.9267  3.2571
  789MOL0     H 4117   4.301  11.334   9.030 -2.8577  0.6127  0.9366
  789MOL0     H 4118   4.204  11.111   8.981  0.5023  0.9648  0.7247
  789MOL0     H 4119   4.231  11.142   8.805  0.4946  0.3068  0.1213
  789MOL0     H 4120   4.035  11.265   8.784 -0.5093  2.7266  1.4941
  789MOL0     H 4121   3.994  11.145   8.909  0.9889  0.6546  5.4453
  789MOL0     H 4122   4.066  11.439   8.948  2.3228 -0.6543  0.3655
  789MOL0     H 4123   4.043  11.334   9.079  0.0504  0.4607 -0.1409
  789MOL0     H 4124   3.832  11.387   8.860 -1.4005  1.8548  0.2894
  789MOL0     H 4125   3.825  11.458   9.025 -0.8953 -0.5632 -0.6100
  789MOL0     H 4126   3.793  11.169   8.987  2.1801  0.1242  0.5795
  789MOL0     H 4127   3.797  11.273   9.137  0.4963 -0.9520 -0.3866
  789MOL0     H 4128   3.569  11.354   9.077 -2.2440 -1.9451  0.1341
  789MOL0     H 4129   3.572  11.194   9.050 -0.8338  1.6534  4.7555
  789MOL0     H 4130   4.530  11.106   8.540  0.1580  1.5919 -1.3548
  789MOL0     H 4131   4.758  11.065   8.441 -1.3246  0.8324 -1.0142
  789MOL0     H 4132   5.159  11.131   8.203 -0.9556 -0.8815  0.0112
  789MOL0     H 4133   5.410  11.087   8.166 -0.4849 -1.5050  0.4570
  789MOL0     H 4134   6.690  10.603   9.150  2.3003  2.4083  4.8979
  789MOL0     H 4135   6.812  10.460   8.962 -1.2083  0.7789 -0.3347
  789MOL0     H 4136   6.963  10.310   8.542 -0.4790 -0.8292  0.4520
  789MOL0     H 4137   7.111  10.203   8.408  0.5957 -1.3362  0.3388
  789MOL0     H 4138   7.268  10.065   8.328 -1.2068  0.6222 -0.6191
  789MOL0     H 4139   7.370  10.029   8.483 -1.3169 -0.1343 -0.2942
  789MOL0     H 4140   7.480  10.093   8.205  0.2867 -0.5505 -0.5062
  789MOL0     H 4141   7.571  10.073   8.361 -1.3478  0.4242  2.8730
  789MOL0     H 4142   7.501   9.853   8.382 -1.4175  0.8715  0.4534
  789MOL0     H 4143   7.570   9.862   8.223 -0.2693 -1.4504  0.9925
  789MOL0     H 4144   7.362   9.733   8.222  2.6348  0.0450 -1.7564
  789MOL0     H 4145   7.271   9.876   8.286  2.4198  3.4187  1.8478
  789MOL0     H 4146   7.350   9.933   7.860 -2.6983  2.0018 -0.2886
  789MOL0     H 4147   7.435  10.409   8.599  0.3250 -0.1130  1.8241
  789MOL0     H 4148   7.278  10.509   8.750  0.0248  1.5002 -0.7959
  790MOL0     O 4149  11.121   1.664   8.343  0.1639  0.5978  1.0439
  790MOL0     C 4150  11.138   1.672   8.220  0.0014  0.5510 -0.2924
  790MOL0     O 4151  11.045   1.649   8.126  0.1155 -0.0403  0.6442
  790MOL0     C 4152  10.911   1.627   8.167 -0.0781 -0.7415  0.3885
  790MOL0     C 4153  10.870   1.522   8.241  0.0691  0.4280 -0.5178
  790MOL0     C 4154  10.730   1.497   8.266  0.2065  0.6397  0.0833
  790MOL0     C 4155  10.638   1.589   8.227  0.3673  0.3716 -0.2099
  790MOL0     O 4156  10.497   1.577   8.240 -0.4420 -0.1092  0.1115
  790MOL0     C 4157  10.438   1.444   8.248  0.8355  0.2373  0.1499
  790MOL0     C 4158  10.286   1.449   8.287  0.0299  0.3687 -0.6409
  790MOL0     C 4159  10.191   1.538   8.200 -0.1830 -0.1913 -0.1153
  790MOL0     C 4160  10.046   1.525   8.258 -0.4320  0.3824  0.1770
  790MOL0     C 4161   9.983   1.401   8.191 -0.3912 -0.8045 -0.3391
  790MOL0     C 4162   9.844   1.364   8.263  0.7601 -1.1672 -0.2784
  790MOL0     C 4163   9.775   1.240   8.201 -0.4716  0.1577  0.5799
  790MOL0     C 4164   9.837   1.109   8.263 -0.1767  0.3234 -0.0103
  790MOL0     N 4165   9.779   0.991   8.201  0.0239  0.1111  0.6210
  790MOL0     C 4166   9.639   0.967   8.191  0.2032 -0.7925 -0.1999
  790MOL0     C 4167   9.626   0.837   8.164  0.3193 -0.4048 -0.2806
  790MOL0     C 4168   9.493   0.772   8.167  0.2972  0.7970  0.0771
  790MOL0     C 4169   9.443   0.725   8.298 -0.5191 -0.0693 -0.2474
  790MOL0     C 4170   9.325   0.625   8.294 -0.0384 -0.9662 -0.7344
  790MOL0     C 4171   9.247   0.616   8.425 -0.5862  0.2922 -0.2938
  790MOL0     O 4172   9.140   0.518   8.424 -0.2732 -0.3133 -0.3370
  790MOL0     C 4173   9.049   0.530   8.525  0.1555 -1.4907 -1.3432
  790MOL0     C 4174   8.924   0.483   8.501  0.1718 -0.8850  0.1629
  790MOL0     C 4175   8.830   0.472   8.605  0.5157 -0.4102 -0.0536
  790MOL0     C 4176   8.860   0.525   8.725  0.7702  0.1327  0.0626
  790MOL0     C 4177   8.771   0.538   8.839 -0.6607 -0.7259  0.9775
  790MOL0     O 4178   8.654   0.463   8.823  0.4134  1.0234 -0.7373
  790MOL0     C 4179   8.563   0.462   8.934 -0.5863  0.4243  0.3087
  790MOL0     C 4180   8.426   0.469   8.914 -0.5257 -0.0509 -0.0408
  790MOL0     C 4181   8.340   0.440   9.025 -0.0071 -0.1255 -0.5850
  790MOL0     C 4182   8.395   0.403   9.146 -0.2054  0.1649  0.2641
  790MOL0     O 4183   8.316   0.369   9.254  0.4809 -0.2780 -0.3647
  790MOL0     C 4184   8.205   0.288   9.217 -0.0468  0.6621  0.2900
  790MOL0     C 4185   8.122   0.245   9.327 -0.0696 -0.3020 -0.1156
  790MOL0     C 4186   8.058   0.363   9.399  0.9000 -1.4783  0.4957
  790MOL0     C 4187   7.914   0.347   9.452  0.0422 -0.4778  0.9651
  790MOL0     C 4188   7.874   0.436   9.566  0.4076  0.2532  0.3449
  790MOL0     C 4189   7.736   0.421   9.605 -0.0994 -0.1995 -0.0061
  790MOL0     C 4190   7.716   0.511   9.724 -0.1790 -0.2335 -1.0065
  790MOL0     C 4191   7.574   0.559   9.735  0.0565  0.0412  0.0993
  790MOL0    Cl 4192   7.564   0.625   9.902  0.2411 -0.1303  0.2292
  790MOL0     C 4193   8.528   0.403   9.165 -0.1153 -0.5809  1.4881
  790MOL0     C 4194   8.615   0.426   9.059 -0.3303 -0.5247  0.5153
  790MOL0     O 4195   8.810   0.618   8.933 -0.4245  0.3952 -0.2044
  790MOL0     C 4196   8.989   0.583   8.747  0.7354  0.4752  0.3344
  790MOL0     C 4197   9.074   0.584   8.649 -0.0376  0.7078  0.9641
  790MOL0     N 4198   9.756   0.781   8.167  0.1192  0.4022  0.2000
  790MOL0     N 4199   9.840   0.870   8.200 -0.0453  0.5120  0.0390
  790MOL0     C 4200  10.678   1.707   8.161  0.2672  0.1329  0.5970
  790MOL0     C 4201  10.813   1.721   8.133 -0.6750 -0.1088  0.1648
  790MOL0     C 4202  11.277   1.698   8.191  0.2073 -0.0166  0.9897
  790MOL0     C 4203  11.380   1.669   8.280 -0.5831  0.3753 -0.7995
  790MOL0     C 4204  11.513   1.694   8.239  0.7210  0.9787 -0.1634
  790MOL0     C 4205  11.551   1.723   8.110 -0.8008  0.7482  0.1389
  790MOL0     O 4206  11.681   1.722   8.086 -0.0432 -1.1234  0.7984
  790MOL0     C 4207  11.732   1.797   7.978 -0.7517  0.1437  0.0711
  790MOL0     C 4208  11.882   1.778   7.951 -0.0040 -0.4439  0.2247
  790MOL0     C 4209  11.972   1.799   8.080 -0.1199 -0.2066 -0.2996
  790MOL0     C 4210  12.101   1.844   8.030 -0.4704 -0.0621  0.2029
  790MOL0     C 4211  12.200   1.896   8.139  0.2127  0.0999 -0.0477
  790MOL0     C 4212  12.281   1.948   8.218  1.2348  0.3715 -0.6833
  790MOL0     C 4213  11.442   1.767   8.023 -0.7782  0.0271 -0.5581
  790MOL0     C 4214  11.308   1.756   8.061 -0.1541  0.0177 -0.2637
  790MOL0     H 4215  10.942   1.459   8.293 -0.8155 -0.3298 -0.1858
  790MOL0     H 4216  10.700   1.409   8.322  0.9532  0.1243 -0.3165
  790MOL0     H 4217  10.475   1.378   8.328  0.1797  2.1414  2.1411
  790MOL0     H 4218  10.453   1.394   8.152  0.2213 -1.6354  0.9891
  790MOL0     H 4219  10.279   1.481   8.391 -3.3813 -1.7768 -0.0512
  790MOL0     H 4220  10.241   1.350   8.286 -2.0454  1.2595 -1.0625
  790MOL0     H 4221  10.204   1.526   8.092  0.1829  1.1808 -0.2324
  790MOL0     H 4222  10.216   1.641   8.225 -2.1326  0.8425 -2.1396
  790MOL0     H 4223  10.052   1.506   8.366 -1.8691 -3.3214 -0.2275
  790MOL0     H 4224   9.995   1.620   8.242  0.5555  1.0626  0.9642
  790MOL0     H 4225  10.053   1.319   8.209 -3.1246 -2.8033  2.5466
  790MOL0     H 4226   9.966   1.421   8.085 -0.6422  2.6204  0.2169
  790MOL0     H 4227   9.776   1.449   8.267  1.2758 -0.8132  1.9153
  790MOL0     H 4228   9.850   1.356   8.372 -2.5404  4.7720  0.7292
  790MOL0     H 4229   9.667   1.234   8.218 -0.9500 -1.7348 -2.4409
  790MOL0     H 4230   9.778   1.237   8.092 -2.1668 -0.6700  0.5219
  790MOL0     H 4231   9.812   1.096   8.369 -2.1538  0.1397 -0.4608
  790MOL0     H 4232   9.945   1.110   8.242 -0.7158 -3.3981 -4.5495
  790MOL0     H 4233   9.555   1.036   8.193  0.6812  0.0952 -3.8783
  790MOL0     H 4234   9.509   0.672   8.124 -2.3623 -0.4116  1.6581
  790MOL0     H 4235   9.415   0.824   8.111 -1.7666 -3.0688 -1.0104
  790MOL0     H 4236   9.404   0.811   8.353 -3.5162  0.0090 -2.2431
  790MOL0     H 4237   9.527   0.679   8.350 -0.1479 -2.1986 -2.5356
  790MOL0     H 4238   9.258   0.656   8.214  0.0029  2.2532  0.3310
  790MOL0     H 4239   9.370   0.527   8.274  1.2602 -0.8684  1.3583
  790MOL0     H 4240   9.201   0.712   8.448 -1.8121 -0.6201  1.3284
  790MOL0     H 4241   9.323   0.601   8.502 -1.3029 -3.7498 -0.1507
  790MOL0     H 4242   8.906   0.469   8.395  2.2419  0.1005 -0.3810
  790MOL0     H 4243   8.733   0.428   8.585  0.7735 -2.6795  3.0082
  790MOL0     H 4244   8.387   0.505   8.820 -1.0398  1.0184  0.5515
  790MOL0     H 4245   8.233   0.446   9.006  0.1176  1.4460 -0.9103
  790MOL0     H 4246   8.246   0.205   9.158 -3.9369 -1.8931  0.7864
  790MOL0     H 4247   8.139   0.342   9.149 -0.8679 -0.7026 -0.0297
  790MOL0     H 4248   8.171   0.179   9.400 -1.0704  2.2266  3.1032
  790MOL0     H 4249   8.036   0.194   9.283 -1.4513  1.0414  0.9177
  790MOL0     H 4250   8.056   0.453   9.337  2.4547 -0.2693  2.0952
  790MOL0     H 4251   8.127   0.390   9.480 -0.4879  0.6237  1.0579
  790MOL0     H 4252   7.851   0.372   9.366  1.3062 -3.1040 -0.8544
  790MOL0     H 4253   7.907   0.240   9.477  3.4788 -1.4097 -1.2876
  790MOL0     H 4254   7.885   0.545   9.556 -4.2645  1.0551  1.5467
  790MOL0     H 4255   7.945   0.409   9.645  2.4631  1.1906 -1.0784
  790MOL0     H 4256   7.702   0.319   9.628  0.2210  0.4094  3.7400
  790MOL0     H 4257   7.674   0.462   9.525  0.0263  1.2587  0.6145
  790MOL0     H 4258   7.728   0.452   9.815 -4.4373 -1.4770 -1.0327
  790MOL0     H 4259   7.792   0.590   9.727  0.0154 -0.3875 -1.7168
  790MOL0     H 4260   7.507   0.473   9.732 -1.1585  0.9014  1.2116
  790MOL0     H 4261   7.544   0.622   9.651 -0.2678 -1.4584 -0.9406
  790MOL0     H 4262   8.563   0.387   9.266 -2.3616  2.4673  2.9219
  790MOL0     H 4263   8.721   0.413   9.077 -0.4337 -1.5760  0.4331
  790MOL0     H 4264   9.028   0.611   8.844  1.6484 -1.3043  0.5202
  790MOL0     H 4265   9.174   0.623   8.665  1.3700 -2.4923  0.5786
  790MOL0     H 4266  10.597   1.774   8.136  0.9221  0.8789  0.4461
  790MOL0     H 4267  10.843   1.810   8.079 -1.0240  0.4054  0.7973
  790MOL0     H 4268  11.356   1.619   8.373 -0.0052  2.7665  0.7178
  790MOL0     H 4269  11.579   1.656   8.316 -2.7408  0.3456  2.7919
  790MOL0     H 4270  11.701   1.901   7.990  0.6492  1.0036 -2.8887
  790MOL0     H 4271  11.682   1.766   7.886  0.2056 -1.0206 -0.0865
  790MOL0     H 4272  11.897   1.685   7.895 -0.0563  0.5707 -1.5276
  790MOL0     H 4273  11.904   1.858   7.881 -0.7074 -0.1308  0.3512
  790MOL0     H 4274  11.976   1.704   8.132 -2.3288 -0.6657 -0.8452
  790MOL0     H 4275  11.930   1.867   8.155  3.4428 -0.4418  2.1181
  790MOL0     H 4276  12.143   1.764   7.968 -1.7897  0.6336 -1.6778
  790MOL0     H 4277  12.083   1.931   7.966  0.6719  1.4716  1.8445
  790MOL0     H 4278  12.358   1.995   8.277 -0.1358  0.1220  1.4375
  790MOL0     H 4279  11.451   1.782   7.915 -0.7615  0.6543 -0.4744
  790MOL0     H 4280  11.223   1.791   8.002 -1.9022 -1.5424  1.1974
  791MOL0     O 4281   2.721   9.082   2.279 -0.9209 -0.0602  0.6417
  791MOL0     C 4282   2.782   9.190   2.269 -0.9374  0.4446 -0.7909
  791MOL0     O 4283   2.722   9.311   2.259  0.1698  0.0199 -0.4820
  791MOL0     C 4284   2.586   9.312   2.277 -0.0249 -0.5919 -0.6247
  791MOL0     C 4285   2.496   9.280   2.172  0.0566 -0.0536 -0.0949
  791MOL0     C 4286   2.362   9.271   2.211  1.1555  1.0762  0.5449
  791MOL0     C 4287   2.317   9.310   2.348  0.1619 -0.0718  0.1182
  791MOL0     O 4288   2.189   9.305   2.385  0.2507  0.4721  0.1496
  791MOL0     C 4289   2.148   9.163   2.398 -0.6412 -0.0901 -0.0393
  791MOL0     C 4290   2.088   9.136   2.534 -0.1565  0.6568  0.1498
  791MOL0     C 4291   1.980   9.243   2.589  0.1957 -0.3228 -0.2221
  791MOL0     C 4292   1.859   9.266   2.505 -0.8482  0.2691  0.0689
  791MOL0     C 4293   1.780   9.141   2.480  0.9081 -0.7331 -0.2707
  791MOL0     C 4294   1.711   9.101   2.610  0.2060 -0.3671  0.2201
  791MOL0     C 4295   1.597   9.001   2.588  0.3576  0.0167  0.4358
  791MOL0     C 4296   1.539   8.954   2.721  0.3619 -0.6579 -0.1871
  791MOL0     N 4297   1.439   8.849   2.714  0.7603  0.0838  0.2555
  791MOL0     C 4298   1.401   8.780   2.601 -0.4527 -0.4825 -0.7197
  791MOL0     C 4299   1.300   8.705   2.656 -0.4415  0.1938 -0.6561
  791MOL0     C 4300   1.203   8.607   2.581 -0.0349 -0.8841  0.6442
  791MOL0     C 4301   1.092   8.541   2.662  1.0655 -0.3583 -0.1292
  791MOL0     C 4302   0.987   8.641   2.713  0.5295  1.4898  0.7335
  791MOL0     C 4303   0.885   8.583   2.812  0.3576  0.5906  0.8739
  791MOL0     O 4304   0.845   8.452   2.774 -0.0163 -0.7241  0.6329
  791MOL0     C 4305   0.742   8.397   2.851  0.7495  0.0809 -0.4392
  791MOL0     C 4306   0.689   8.453   2.969  0.5167  0.2995  0.7455
  791MOL0     C 4307   0.572   8.397   3.028  0.3673  0.2215 -0.2579
  791MOL0     C 4308   0.519   8.277   2.980  0.1840  0.1140 -0.2244
  791MOL0     C 4309   0.385   8.225   3.016  0.0280 -0.8163  0.1968
  791MOL0     O 4310   0.327   8.250   3.135 -1.1275  0.0781 -0.3581
  791MOL0     C 4311   0.209   8.201   3.183 -0.3480  0.2911 -0.3566
  791MOL0     C 4312   0.150   8.074   3.157 -0.6025 -0.6154 -0.1480
  791MOL0     C 4313   0.027   8.039   3.216 -0.2789 -1.2863  1.0351
  791MOL0     C 4314  -0.042   8.127   3.301 -0.0665 -0.9331  0.1752
  791MOL0     O 4315  -0.168   8.100   3.356  0.2605  0.0068  0.2694
  791MOL0     C 4316  -0.198   7.968   3.411 -0.2034 -0.1597  0.1977
  791MOL0     C 4317  -0.165   7.955   3.559 -0.9776 -1.0187  0.1342
  791MOL0     C 4318  -0.019   7.945   3.593 -0.6244 -0.6624  0.0634
  791MOL0     C 4319   0.009   7.873   3.724 -0.5264 -0.3370  0.4428
  791MOL0     C 4320   0.162   7.861   3.757  0.7478  0.7761 -0.0464
  791MOL0     C 4321   0.156   7.771   3.888 -0.3434  0.7037 -0.0974
  791MOL0     C 4322   0.299   7.729   3.922 -0.2806  0.1151  0.0277
  791MOL0     C 4323   0.332   7.729   4.072  0.8232 -0.5256 -0.0574
  791MOL0    Cl 4324   0.270   7.603   4.162  0.2196  0.6973 -0.1794
  791MOL0     C 4325   0.012   8.252   3.313 -0.5008  0.1426 -0.4436
  791MOL0     C 4326   0.137   8.288   3.265 -1.4342  1.2877 -0.0068
  791MOL0     O 4327   0.331   8.161   2.925  0.0988  1.0422 -1.0042
  791MOL0     C 4328   0.582   8.213   2.873  0.5741  0.2547  0.6046
  791MOL0     C 4329   0.697   8.266   2.812  0.6204 -0.6777  0.1682
  791MOL0     N 4330   1.302   8.711   2.790  0.5950 -0.8763 -0.3891
  791MOL0     N 4331   1.388   8.789   2.824 -1.2827 -0.2321 -0.1477
  791MOL0     C 4332   2.411   9.354   2.444 -0.3498 -0.2366 -0.1074
  791MOL0     C 4333   2.546   9.353   2.404  0.4180 -0.4873 -0.5041
  791MOL0     C 4334   2.928   9.180   2.255  1.1507 -0.3977 -0.0866
  791MOL0     C 4335   3.001   9.298   2.240  0.1369  0.7256 -0.4985
  791MOL0     C 4336   3.136   9.299   2.249 -0.9439 -0.3049 -0.3935
  791MOL0     C 4337   3.212   9.176   2.270  0.6399  0.0953  0.2976
  791MOL0     O 4338   3.346   9.166   2.273 -0.4022  0.0230  0.1996
  791MOL0     C 4339   3.437   9.285   2.282  0.7726 -0.0601  0.0747
  791MOL0     C 4340   3.569   9.254   2.212  0.2613 -1.1397 -0.2953
  791MOL0     C 4341   3.674   9.361   2.229  0.3408  0.0950  0.5242
  791MOL0     C 4342   3.796   9.336   2.129 -1.0583  0.2251 -0.2462
  791MOL0     C 4343   3.892   9.453   2.133 -0.6130  0.5010 -0.5716
  791MOL0     C 4344   3.955   9.553   2.161 -0.1674  0.6736  0.8477
  791MOL0     C 4345   3.137   9.054   2.274  0.2541 -0.7917  0.6738
  791MOL0     C 4346   3.003   9.062   2.277  0.1995 -0.7023 -0.5176
  791MOL0     H 4347   2.527   9.251   2.072 -0.0648  3.2610 -1.2066
  791MOL0     H 4348   2.287   9.249   2.136  1.4577 -1.1039  0.7980
  791MOL0     H 4349   2.234   9.098   2.386 -0.8403  0.0998 -3.8854
  791MOL0     H 4350   2.080   9.142   2.315 -1.2203  1.7221 -0.0825
  791MOL0     H 4351   2.164   9.127   2.611 -1.7442  3.6156  2.2565
  791MOL0     H 4352   2.043   9.036   2.532  1.8530 -0.3590  2.1782
  791MOL0     H 4353   2.027   9.340   2.603 -1.6093  0.6387 -0.5747
  791MOL0     H 4354   1.941   9.208   2.685  0.2815 -0.5687 -0.2767
  791MOL0     H 4355   1.796   9.342   2.553 -1.9355  0.3782 -1.4361
  791MOL0     H 4356   1.890   9.311   2.410 -0.9348  0.8809  0.3254
  791MOL0     H 4357   1.842   9.062   2.437  2.8720  0.7033 -0.2038
  791MOL0     H 4358   1.699   9.160   2.409  1.3246 -0.9323 -0.8037
  791MOL0     H 4359   1.671   9.186   2.667 -1.2361 -0.1509 -1.0620
  791MOL0     H 4360   1.797   9.049   2.653  0.8687 -1.4946 -2.2949
  791MOL0     H 4361   1.515   9.033   2.523 -0.9658 -1.4751  1.3322
  791MOL0     H 4362   1.643   8.917   2.535  1.7389  1.7010 -1.1803
  791MOL0     H 4363   1.499   9.038   2.778  1.6144  2.9011 -3.9894
  791MOL0     H 4364   1.620   8.914   2.783  0.4824 -0.2592 -0.0844
  791MOL0     H 4365   1.437   8.794   2.500 -0.0687 -0.6485 -0.6095
  791MOL0     H 4366   1.269   8.538   2.529  0.4876  0.9417 -1.2342
  791MOL0     H 4367   1.162   8.659   2.494  1.7008  3.2748  2.0681
  791MOL0     H 4368   1.140   8.502   2.752 -2.4426 -0.6948  1.8129
  791MOL0     H 4369   1.043   8.468   2.598 -4.9874  2.1493  0.8546
  791MOL0     H 4370   1.040   8.720   2.766 -1.2230  1.9421  1.8998
  791MOL0     H 4371   0.937   8.669   2.620 -0.7464 -1.5510  0.3692
  791MOL0     H 4372   0.804   8.658   2.811  1.3335  1.7624 -2.0184
  791MOL0     H 4373   0.940   8.565   2.904 -0.5742 -0.4672  1.2388
  791MOL0     H 4374   0.726   8.551   3.000  3.2214  0.5814 -2.7607
  791MOL0     H 4375   0.532   8.450   3.114  1.4881  1.6130 -0.5499
  791MOL0     H 4376   0.198   8.003   3.090  1.2459  0.1862  0.2814
  791MOL0     H 4377  -0.026   7.950   3.184  0.0443 -0.7405 -1.1663
  791MOL0     H 4378  -0.143   7.892   3.354 -1.8480 -1.6433  0.4897
  791MOL0     H 4379  -0.305   7.951   3.394  0.0187 -1.2212 -0.2176
  791MOL0     H 4380  -0.216   7.874   3.612 -0.5082  1.2058  4.3773
  791MOL0     H 4381  -0.201   8.047   3.606  0.9204 -0.7121  1.0928
  791MOL0     H 4382   0.022   8.046   3.600 -1.8868 -0.2506  2.5927
  791MOL0     H 4383   0.041   7.888   3.520  0.9618  2.1702 -0.9929
  791MOL0     H 4384  -0.053   7.928   3.795  0.5473 -0.8467  1.8111
  791MOL0     H 4385  -0.023   7.769   3.719  1.2085 -0.8404 -1.2193
  791MOL0     H 4386   0.209   7.958   3.775 -2.0064  2.1119  0.3510
  791MOL0     H 4387   0.205   7.811   3.670  0.0761  0.6136 -0.2895
  791MOL0     H 4388   0.085   7.687   3.894 -1.4186  1.6429  0.8801
  791MOL0     H 4389   0.126   7.841   3.967 -2.1316 -1.7082  1.5151
  791MOL0     H 4390   0.323   7.634   3.873  1.9544  0.5394  0.2000
  791MOL0     H 4391   0.371   7.793   3.870 -1.3416  1.9147  0.6946
  791MOL0     H 4392   0.306   7.823   4.123  0.8172  0.3530 -1.6269
  791MOL0     H 4393   0.439   7.708   4.078  1.2890  1.8280  1.3081
  791MOL0     H 4394  -0.041   8.325   3.373 -0.3416  1.2749 -1.6177
  791MOL0     H 4395   0.171   8.388   3.291 -0.2021  0.9531 -0.2256
  791MOL0     H 4396   0.535   8.119   2.845 -2.1219  1.6068  0.2070
  791MOL0     H 4397   0.735   8.203   2.731 -0.0943 -1.6678  0.5935
  791MOL0     H 4398   2.374   9.383   2.542 -0.1992  4.2919 -1.2042
  791MOL0     H 4399   2.610   9.389   2.484 -0.9281  1.1033 -0.0683
  791MOL0     H 4400   2.958   9.398   2.229 -3.6754 -0.4401  1.7609
  791MOL0     H 4401   3.188   9.391   2.225  0.4207 -1.3685 -1.7094
  791MOL0     H 4402   3.462   9.310   2.386  1.0643 -0.4675  0.1077
  791MOL0     H 4403   3.383   9.365   2.231 -0.5199 -0.3600  0.9296
  791MOL0     H 4404   3.609   9.168   2.266 -0.9718 -1.1832  0.5970
  791MOL0     H 4405   3.542   9.238   2.107 -4.5782  2.6002 -0.0073
  791MOL0     H 4406   3.713   9.369   2.331 -1.7428  2.8240  1.1956
  791MOL0     H 4407   3.637   9.461   2.209 -0.2389 -0.1690  0.2619
  791MOL0     H 4408   3.853   9.248   2.160 -0.1723 -0.4647 -3.4741
  791MOL0     H 4409   3.757   9.301   2.033  0.2779 -1.8089 -0.1161
  791MOL0     H 4410   4.016   9.629   2.205  1.4348 -2.0235  3.6493
  791MOL0     H 4411   3.201   8.966   2.276  0.7814 -0.7311 -3.7858
  791MOL0     H 4412   2.939   8.975   2.288 -2.7363  1.5295  1.2754
  792MOL0     O 4413   5.271   7.154   3.048 -0.3245 -0.2059 -0.4956
  792MOL0     C 4414   5.228   7.040   3.061  0.4209 -1.2629  0.5742
  792MOL0     O 4415   5.279   6.943   3.149 -0.1931 -0.1188 -0.0695
  792MOL0     C 4416   5.367   6.976   3.254 -0.8279  0.0341  0.5692
  792MOL0     C 4417   5.453   6.876   3.287  0.3412 -0.2465  0.5225
  792MOL0     C 4418   5.526   6.871   3.409  0.1622  0.0065  0.4801
  792MOL0     C 4419   5.532   6.985   3.491  0.3273 -0.5716 -0.4173
  792MOL0     O 4420   5.607   7.005   3.605 -0.3206 -0.6439 -0.0195
  792MOL0     C 4421   5.745   6.964   3.603 -1.1176 -0.6968 -0.6982
  792MOL0     C 4422   5.826   6.982   3.740  0.0918 -0.2698  0.2417
  792MOL0     C 4423   5.983   7.001   3.718  0.8336  0.2566 -0.4741
  792MOL0     C 4424   6.048   6.881   3.646  0.2742  0.8598 -0.4392
  792MOL0     C 4425   6.026   6.735   3.703  0.4721 -0.1013 -0.2535
  792MOL0     C 4426   6.082   6.614   3.620  0.8330  0.5641 -1.2070
  792MOL0     C 4427   6.066   6.477   3.699 -0.0658 -0.0444 -0.0792
  792MOL0     C 4428   5.913   6.456   3.730 -1.4227 -0.0638  0.5860
  792MOL0     N 4429   5.832   6.471   3.606 -0.5205  0.7193 -0.2408
  792MOL0     C 4430   5.789   6.366   3.541  0.4524  0.2485 -0.0859
  792MOL0     C 4431   5.693   6.414   3.461 -0.3845  0.2882 -0.9256
  792MOL0     C 4432   5.617   6.315   3.373  0.5008 -0.2854  0.6954
  792MOL0     C 4433   5.710   6.229   3.287  0.4532 -0.3376  0.4528
  792MOL0     C 4434   5.805   6.301   3.197 -0.0606 -0.3609 -0.3025
  792MOL0     C 4435   5.922   6.216   3.144  0.5377  0.1325 -1.2040
  792MOL0     O 4436   6.014   6.222   3.251  0.1933 -0.2789 -0.9632
  792MOL0     C 4437   6.132   6.292   3.238  0.5174 -0.0808  0.4123
  792MOL0     C 4438   6.243   6.238   3.291  0.8210  0.5992 -0.2468
  792MOL0     C 4439   6.357   6.308   3.312 -0.7053  0.2773 -0.1628
  792MOL0     C 4440   6.367   6.442   3.284  0.4821 -0.0357 -0.2573
  792MOL0     C 4441   6.489   6.523   3.298 -0.4106 -0.6341 -0.7755
  792MOL0     O 4442   6.493   6.638   3.223 -0.2231 -0.4603 -0.5895
  792MOL0     C 4443   6.620   6.687   3.203 -0.1356 -0.0826  0.0024
  792MOL0     C 4444   6.639   6.824   3.228 -0.0337  0.5175  0.6317
  792MOL0     C 4445   6.763   6.883   3.230 -1.0426  0.4552 -0.2775
  792MOL0     C 4446   6.884   6.804   3.201  0.0609 -0.2472  0.3025
  792MOL0     O 4447   7.009   6.868   3.197  0.4515  0.4472 -0.4897
  792MOL0     C 4448   7.117   6.778   3.246  0.4609  0.2003 -0.5244
  792MOL0     C 4449   7.246   6.859   3.266 -0.0341  0.1906  0.1782
  792MOL0     C 4450   7.358   6.771   3.309 -0.2283  0.2870 -0.5673
  792MOL0     C 4451   7.475   6.836   3.372 -0.8593 -0.0804  0.2205
  792MOL0     C 4452   7.607   6.830   3.304 -0.0489 -0.2149  0.5695
  792MOL0     C 4453   7.715   6.909   3.370 -0.6813  0.9921  1.2169
  792MOL0     C 4454   7.757   6.864   3.513  0.0276  0.2848  0.0605
  792MOL0     C 4455   7.877   6.939   3.565 -0.0010 -0.6588  0.7965
  792MOL0    Cl 4456   7.935   6.867   3.729 -0.5891  0.6446  0.3054
  792MOL0     C 4457   6.859   6.665   3.169  1.0642 -0.3987  1.3835
  792MOL0     C 4458   6.729   6.612   3.173 -0.2005 -0.3619  0.5471
  792MOL0     O 4459   6.576   6.481   3.383 -0.1297 -0.1376  0.4612
  792MOL0     C 4460   6.254   6.504   3.234 -0.4046 -0.3298 -0.1573
  792MOL0     C 4461   6.132   6.433   3.217 -0.8668  0.4942  0.3642
  792MOL0     N 4462   5.680   6.549   3.470 -0.0218 -0.0855 -0.2999
  792MOL0     N 4463   5.753   6.576   3.574 -0.6682 -0.5738  0.0272
  792MOL0     C 4464   5.460   7.098   3.440 -0.4767  0.2701 -0.0865
  792MOL0     C 4465   5.380   7.093   3.328  0.6351 -0.0176  0.7652
  792MOL0     C 4466   5.122   6.991   2.977  0.2807 -0.8692 -1.0077
  792MOL0     C 4467   5.041   7.077   2.904  0.1658 -0.2292 -0.0108
  792MOL0     C 4468   4.928   7.024   2.831  0.5134 -0.1669  0.3883
  792MOL0     C 4469   4.896   6.886   2.841 -0.8566 -0.3205 -0.1096
  792MOL0     O 4470   4.792   6.840   2.760 -0.0108 -0.2737  0.6065
  792MOL0     C 4471   4.831   6.831   2.620  0.7955 -0.5028  0.1584
  792MOL0     C 4472   4.900   6.689   2.594  1.2415 -0.7989 -0.6134
  792MOL0     C 4473   4.825   6.565   2.643  0.6573  0.8375 -0.1813
  792MOL0     C 4474   4.676   6.576   2.618  0.1386  0.1870 -0.5634
  792MOL0     C 4475   4.592   6.460   2.651 -0.7253 -0.4215  0.5241
  792MOL0     C 4476   4.529   6.355   2.685  0.0145  0.3354  0.2970
  792MOL0     C 4477   4.991   6.806   2.907  1.0416  0.1041 -0.0626
  792MOL0     C 4478   5.101   6.855   2.964  0.3146 -0.1247 -0.4132
  792MOL0     H 4479   5.461   6.789   3.222  0.4472 -0.7458  1.1974
  792MOL0     H 4480   5.589   6.785   3.431 -0.0285 -0.1547  0.3968
  792MOL0     H 4481   5.792   7.022   3.523  0.0758 -0.6949 -0.0142
  792MOL0     H 4482   5.744   6.856   3.588 -0.9779 -0.6073 -1.4448
  792MOL0     H 4483   5.806   6.898   3.807 -2.1925 -0.1107 -0.1551
  792MOL0     H 4484   5.791   7.075   3.787 -1.6262  0.0848 -1.5857
  792MOL0     H 4485   6.018   6.993   3.822  0.3970 -0.5513 -0.3883
  792MOL0     H 4486   6.003   7.098   3.671  1.1128  0.7840  0.6731
  792MOL0     H 4487   6.026   6.887   3.539 -0.9189  0.0374 -0.2607
  792MOL0     H 4488   6.155   6.901   3.656  0.7369 -1.4435 -0.1254
  792MOL0     H 4489   5.920   6.712   3.716  0.4753 -1.6996 -2.4912
  792MOL0     H 4490   6.071   6.729   3.803 -1.2339  1.1362  0.6557
  792MOL0     H 4491   6.185   6.638   3.593  2.3018  0.3003  3.3594
  792MOL0     H 4492   6.026   6.609   3.526 -1.0348 -0.2852 -0.1027
  792MOL0     H 4493   6.112   6.398   3.639  0.9922 -1.7173  2.7209
  792MOL0     H 4494   6.119   6.490   3.794 -1.1388  1.1683  0.3836
  792MOL0     H 4495   5.889   6.517   3.817  5.0794  2.8273  0.9034
  792MOL0     H 4496   5.908   6.351   3.763  0.2663 -0.5280 -0.5535
  792MOL0     H 4497   5.815   6.261   3.551  1.7899  0.3229 -2.1796
  792MOL0     H 4498   5.561   6.368   3.295  1.0610 -2.5004 -1.3429
  792MOL0     H 4499   5.569   6.249   3.445  1.7631 -1.2324  0.7132
  792MOL0     H 4500   5.648   6.172   3.218  0.0051 -0.0458  0.6109
  792MOL0     H 4501   5.769   6.170   3.358  2.2224 -2.0076 -2.2166
  792MOL0     H 4502   5.746   6.336   3.112  0.5483  2.4785  0.3394
  792MOL0     H 4503   5.843   6.386   3.255  0.0976 -1.9390  2.0506
  792MOL0     H 4504   5.967   6.256   3.053 -1.5666  1.1281 -1.8516
  792MOL0     H 4505   5.880   6.118   3.120  2.5497 -1.5570  1.4745
  792MOL0     H 4506   6.232   6.134   3.320  1.2606 -0.0268 -2.1854
  792MOL0     H 4507   6.453   6.267   3.339  0.4102  2.2582 -0.9237
  792MOL0     H 4508   6.545   6.872   3.255  0.3251  0.3296  2.2777
  792MOL0     H 4509   6.776   6.990   3.247 -1.7181  0.2561  1.7377
  792MOL0     H 4510   7.140   6.708   3.166  0.5320 -0.9641  0.4958
  792MOL0     H 4511   7.095   6.712   3.330 -0.2646 -3.3624 -3.2914
  792MOL0     H 4512   7.224   6.940   3.336 -0.0416  0.7971 -0.5164
  792MOL0     H 4513   7.281   6.910   3.176 -2.3313  1.8908  0.1673
  792MOL0     H 4514   7.395   6.717   3.222 -0.4959  0.5975 -0.8800
  792MOL0     H 4515   7.316   6.709   3.390 -0.2586  1.6284  0.4878
  792MOL0     H 4516   7.459   6.940   3.404 -0.8444  0.5716 -1.7260
  792MOL0     H 4517   7.502   6.794   3.469 -2.7780  2.8155  2.1829
  792MOL0     H 4518   7.589   6.856   3.200 -1.8566 -2.2765  0.3032
  792MOL0     H 4519   7.638   6.725   3.312  1.6846  0.1472 -0.7963
  792MOL0     H 4520   7.679   7.012   3.372 -0.4508  1.2122 -1.7277
  792MOL0     H 4521   7.799   6.897   3.301 -0.9594  0.7855  0.9070
  792MOL0     H 4522   7.675   6.886   3.582 -0.7781 -3.4297  0.5229
  792MOL0     H 4523   7.767   6.755   3.513  0.7293  0.3438  0.3259
  792MOL0     H 4524   7.833   7.039   3.565  0.1675 -0.2549 -4.8771
  792MOL0     H 4525   7.966   6.937   3.501 -0.7870  2.5563 -0.5879
  792MOL0     H 4526   6.946   6.605   3.146 -0.7416 -3.4122  1.9577
  792MOL0     H 4527   6.732   6.505   3.153  1.9707 -0.6544  2.1031
  792MOL0     H 4528   6.259   6.612   3.230  1.6008 -0.4193 -0.7958
  792MOL0     H 4529   6.036   6.473   3.187 -0.0945  0.9992 -1.6110
  792MOL0     H 4530   5.474   7.194   3.489  0.4437 -0.7583  1.8016
  792MOL0     H 4531   5.313   7.169   3.291  0.8630 -0.7932 -1.3395
  792MOL0     H 4532   5.067   7.181   2.888 -0.3895 -0.1748 -0.6207
  792MOL0     H 4533   4.856   7.086   2.779  0.4546 -0.5030  0.0693
  792MOL0     H 4534   4.903   6.905   2.583 -0.3673  0.2082 -0.7596
  792MOL0     H 4535   4.735   6.852   2.571  0.6822  1.2410  1.0478
  792MOL0     H 4536   4.902   6.686   2.485 -0.6074  2.2010 -0.8330
  792MOL0     H 4537   5.003   6.687   2.632  1.5530  3.2683 -0.8380
  792MOL0     H 4538   4.839   6.543   2.750  0.1481 -2.0892 -0.6268
  792MOL0     H 4539   4.862   6.472   2.599  2.7850  0.6101  1.8656
  792MOL0     H 4540   4.643   6.670   2.663  0.9999  1.2424 -2.0425
  792MOL0     H 4541   4.666   6.594   2.511  0.4319 -1.1360 -0.8352
  792MOL0     H 4542   4.465   6.274   2.714 -1.0500  0.2724 -1.9807
  792MOL0     H 4543   4.981   6.699   2.894  0.3305 -0.1543  2.1721
  792MOL0     H 4544   5.162   6.791   3.027  2.6926  2.6115  0.2744
  793MOL0     O 4545   6.776   2.005   9.207 -0.9293 -0.1585  0.3367
  793MOL0     C 4546   6.704   2.043   9.302 -0.2343  0.0739 -0.0972
  793MOL0     O 4547   6.746   2.051   9.436 -0.2491 -0.2139  0.8909
  793MOL0     C 4548   6.872   2.028   9.473  0.2081 -0.0404  0.1877
  793MOL0     C 4549   6.906   1.932   9.571 -0.3903 -0.0041 -0.0648
  793MOL0     C 4550   7.041   1.915   9.597 -0.6440  1.0766 -0.6771
  793MOL0     C 4551   7.145   1.982   9.528 -0.3286  0.1795 -0.4063
  793MOL0     O 4552   7.282   1.975   9.557  0.6187  0.4511 -0.1050
  793MOL0     C 4553   7.341   1.843   9.565 -0.1301 -0.8344  0.5428
  793MOL0     C 4554   7.397   1.791   9.425 -0.3002  1.2249  1.1121
  793MOL0     C 4555   7.460   1.909   9.354  0.9855 -0.3730 -0.2050
  793MOL0     C 4556   7.551   1.865   9.239  0.4451  0.2800 -0.8689
  793MOL0     C 4557   7.580   1.977   9.151 -0.8298  0.2206 -0.1247
  793MOL0     C 4558   7.711   2.058   9.188  0.4500 -0.4954  0.2526
  793MOL0     C 4559   7.756   2.160   9.076 -0.7611  0.7148  0.0453
  793MOL0     C 4560   7.643   2.261   9.046 -0.4207 -0.1862  0.6681
  793MOL0     N 4561   7.689   2.367   8.948  0.5874 -0.7359 -0.7501
  793MOL0     C 4562   7.774   2.472   8.982  0.2615 -0.1729 -0.2268
  793MOL0     C 4563   7.789   2.529   8.856 -0.7899 -0.9726 -0.2395
  793MOL0     C 4564   7.878   2.657   8.843 -0.5210  0.4121 -0.2348
  793MOL0     C 4565   7.945   2.663   8.708  0.2615  0.0520 -0.0305
  793MOL0     C 4566   7.961   2.808   8.658  0.0670 -0.5669  0.5304
  793MOL0     C 4567   7.996   2.812   8.507 -0.6234  0.1334  0.6587
  793MOL0     O 4568   8.047   2.942   8.462 -0.7018 -0.6988 -0.5656
  793MOL0     C 4569   7.963   3.038   8.399 -0.1326 -1.0069 -0.4718
  793MOL0     C 4570   8.008   3.162   8.372 -0.1313  0.3983 -0.2316
  793MOL0     C 4571   7.935   3.264   8.317  1.3523  0.5926 -0.0602
  793MOL0     C 4572   7.801   3.238   8.285  0.9679  0.0270 -0.4789
  793MOL0     C 4573   7.722   3.342   8.208  0.1001 -0.1408 -0.2973
  793MOL0     O 4574   7.586   3.321   8.186  0.5089  0.3675  0.1268
  793MOL0     C 4575   7.524   3.433   8.136 -0.4047  0.9691  0.3376
  793MOL0     C 4576   7.525   3.565   8.188 -1.1666  0.4323 -0.4937
  793MOL0     C 4577   7.427   3.659   8.138 -0.0366 -0.3854  0.3535
  793MOL0     C 4578   7.339   3.627   8.039  0.4699  0.0668  1.1122
  793MOL0     O 4579   7.249   3.721   8.008  0.8608 -0.2072  0.2323
  793MOL0     C 4580   7.131   3.680   7.943 -0.0594  0.2058  0.3208
  793MOL0     C 4581   7.024   3.782   7.929  0.1128 -0.5739 -0.1155
  793MOL0     C 4582   7.086   3.900   7.849  0.5211  0.8259 -0.0098
  793MOL0     C 4583   6.963   3.981   7.786  0.4390 -0.6541 -0.3264
  793MOL0     C 4584   6.901   4.082   7.891  0.0355  0.1641  0.7888
  793MOL0     C 4585   6.873   4.215   7.819  0.0916  0.8712  0.4843
  793MOL0     C 4586   6.811   4.309   7.923  0.3241  0.1417  0.1003
  793MOL0     C 4587   6.737   4.424   7.851  0.5117  0.8747 -0.0938
  793MOL0    Cl 4588   6.833   4.497   7.722  0.1268  0.0394 -0.2876
  793MOL0     C 4589   7.343   3.498   7.988  0.0926  1.2395  0.2335
  793MOL0     C 4590   7.427   3.400   8.040  0.8615 -0.1621  0.1614
  793MOL0     O 4591   7.789   3.425   8.156  0.1638  0.0075 -0.1913
  793MOL0     C 4592   7.750   3.109   8.306 -0.2455  0.3840 -0.2608
  793MOL0     C 4593   7.832   3.011   8.367  0.3198 -0.0564 -0.0852
  793MOL0     N 4594   7.696   2.488   8.767  0.5210  0.3451 -0.9130
  793MOL0     N 4595   7.658   2.376   8.817  0.2887 -0.0484 -0.5458
  793MOL0     C 4596   7.104   2.067   9.427 -0.6399 -0.1337  0.2380
  793MOL0     C 4597   6.974   2.100   9.415  0.3472  0.1459 -0.0794
  793MOL0     C 4598   6.567   2.073   9.272  0.9607 -0.2831  0.7133
  793MOL0     C 4599   6.518   2.069   9.138  0.4540  0.8056 -0.3119
  793MOL0     C 4600   6.385   2.097   9.109 -0.5715  0.1549 -0.3135
  793MOL0     C 4601   6.292   2.109   9.211  0.0570  0.2857 -0.1416
  793MOL0     O 4602   6.156   2.113   9.195  0.5277 -0.2430  0.3739
  793MOL0     C 4603   6.107   2.179   9.076  0.4656 -0.1751  0.3793
  793MOL0     C 4604   5.952   2.196   9.071 -0.4528  0.7812  0.6027
  793MOL0     C 4605   5.898   2.271   9.188  0.4161  0.2743  0.1635
  793MOL0     C 4606   5.838   2.401   9.137 -0.4302 -0.3095 -0.2793
  793MOL0     C 4607   5.705   2.387   9.078 -0.9927 -1.0257  0.2164
  793MOL0     C 4608   5.604   2.366   9.013 -0.3180 -0.0953 -0.9000
  793MOL0     C 4609   6.337   2.128   9.339  0.3086 -0.0992 -1.2253
  793MOL0     C 4610   6.474   2.111   9.378 -0.7102  0.0652  0.4256
  793MOL0     H 4611   6.819   1.895   9.625 -2.0739 -0.4816 -2.9301
  793MOL0     H 4612   7.078   1.844   9.670  0.7100  1.8569 -0.5807
  793MOL0     H 4613   7.275   1.762   9.597 -2.4967  0.0061 -1.7763
  793MOL0     H 4614   7.425   1.839   9.634  2.0808  0.5003 -1.8832
  793MOL0     H 4615   7.318   1.746   9.364  1.3185 -0.3413  0.0433
  793MOL0     H 4616   7.472   1.713   9.442 -1.4973  0.3851  2.8443
  793MOL0     H 4617   7.516   1.965   9.429  0.0962 -0.8333  0.8206
  793MOL0     H 4618   7.381   1.964   9.303  0.9121 -0.3412 -0.0553
  793MOL0     H 4619   7.641   1.813   9.272  0.0225  0.5168  0.7652
  793MOL0     H 4620   7.481   1.806   9.179 -2.7527  3.3267 -0.4929
  793MOL0     H 4621   7.492   2.042   9.150  1.4321  3.5459  0.1392
  793MOL0     H 4622   7.603   1.934   9.053 -0.4259 -2.1706  0.9528
  793MOL0     H 4623   7.796   1.998   9.222  1.2348 -0.1460 -0.9763
  793MOL0     H 4624   7.692   2.120   9.276  0.0707 -1.0908  0.5950
  793MOL0     H 4625   7.839   2.211   9.126  1.0736 -2.5171  0.5902
  793MOL0     H 4626   7.784   2.108   8.984 -0.8480 -1.6977  1.3128
  793MOL0     H 4627   7.590   2.304   9.131  0.2149  3.4932 -0.6346
  793MOL0     H 4628   7.564   2.210   8.991  0.4872  1.1532 -2.0898
  793MOL0     H 4629   7.811   2.505   9.079 -1.2757  1.7871 -0.2440
  793MOL0     H 4630   7.954   2.656   8.922  0.0672 -0.3737 -0.7896
  793MOL0     H 4631   7.819   2.747   8.859 -2.1341 -0.2708 -1.9419
  793MOL0     H 4632   7.876   2.617   8.637  0.0078  1.0034 -0.4139
  793MOL0     H 4633   8.043   2.615   8.707  1.4223  2.2647 -0.2468
  793MOL0     H 4634   7.867   2.863   8.666  1.0854  1.2383  0.6360
  793MOL0     H 4635   8.050   2.850   8.705  0.6291 -1.6693  0.4955
  793MOL0     H 4636   7.910   2.785   8.445  0.7530  1.1614 -1.8615
  793MOL0     H 4637   8.080   2.744   8.490 -1.1476  0.3385 -4.5080
  793MOL0     H 4638   8.109   3.191   8.398 -0.0719 -0.6884  0.8019
  793MOL0     H 4639   7.980   3.358   8.286  0.3905  1.8860  2.1653
  793MOL0     H 4640   7.592   3.598   8.267 -2.3792  0.8656  0.3871
  793MOL0     H 4641   7.407   3.756   8.183 -2.0670  1.0357 -3.2161
  793MOL0     H 4642   7.080   3.607   8.007 -2.0233  1.5666  0.3842
  793MOL0     H 4643   7.163   3.648   7.843 -1.0645  0.0501  0.0333
  793MOL0     H 4644   7.003   3.821   8.029 -2.9652  0.2289 -0.9655
  793MOL0     H 4645   6.928   3.748   7.888 -1.5697  1.3445  2.0203
  793MOL0     H 4646   7.151   3.856   7.773  1.7717  5.0343 -1.6812
  793MOL0     H 4647   7.137   3.957   7.926 -0.8467  0.6395  1.0711
  793MOL0     H 4648   7.012   4.036   7.705 -2.3366  0.5151 -1.3390
  793MOL0     H 4649   6.894   3.911   7.739  0.0215  1.5159 -3.2318
  793MOL0     H 4650   6.959   4.090   7.983  3.3155  2.0725 -1.2708
  793MOL0     H 4651   6.807   4.040   7.928 -0.9470  1.2728 -0.3415
  793MOL0     H 4652   6.802   4.198   7.738 -1.5018  0.3999  1.9317
  793MOL0     H 4653   6.968   4.261   7.788  0.3878  1.7183  2.5035
  793MOL0     H 4654   6.739   4.266   7.994  1.1921 -2.2594 -0.3746
  793MOL0     H 4655   6.888   4.353   7.987 -1.2344  2.0107  0.7962
  793MOL0     H 4656   6.714   4.508   7.916 -1.0392  0.9387 -0.6948
  793MOL0     H 4657   6.647   4.377   7.811 -0.3645  2.4300 -0.0225
  793MOL0     H 4658   7.271   3.476   7.910 -1.0678  0.6652  1.4292
  793MOL0     H 4659   7.412   3.301   7.997  0.2584 -0.3687  0.8176
  793MOL0     H 4660   7.649   3.072   8.291 -1.0418  2.1639  0.4656
  793MOL0     H 4661   7.780   2.920   8.395  1.1038  0.1504  2.1964
  793MOL0     H 4662   7.178   2.117   9.365 -2.5424 -0.5110 -2.4894
  793MOL0     H 4663   6.968   2.170   9.332  0.7606 -0.4761 -0.6410
  793MOL0     H 4664   6.586   2.036   9.060 -0.1388  1.9840 -1.3727
  793MOL0     H 4665   6.354   2.098   9.005  1.2029  0.7039 -0.8693
  793MOL0     H 4666   6.124   2.115   8.989  1.3548 -1.1298  1.2284
  793MOL0     H 4667   6.162   2.272   9.057  0.1317  0.1456  0.9679
  793MOL0     H 4668   5.914   2.243   8.980 -2.8059 -1.6548  0.2032
  793MOL0     H 4669   5.919   2.092   9.076  0.9744  0.3464  2.1273
  793MOL0     H 4670   5.972   2.295   9.265  0.2372  1.1693  0.0597
  793MOL0     H 4671   5.818   2.212   9.235 -0.3216  0.3518 -0.9722
  793MOL0     H 4672   5.833   2.468   9.223  1.0290 -0.6288  0.0867
  793MOL0     H 4673   5.914   2.442   9.070  2.3388  0.8125  3.2116
  793MOL0     H 4674   5.510   2.343   8.967 -1.3772 -1.4393  1.6922
  793MOL0     H 4675   6.253   2.157   9.401  0.6049  0.7402 -1.2001
  793MOL0     H 4676   6.509   2.142   9.476  0.8929  1.6546 -0.5981
  794MOL0     O 4677   0.727   9.509   2.311 -0.1330 -0.4510 -0.1099
  794MOL0     C 4678   0.781   9.589   2.385  0.3950  0.2817 -0.7836
  794MOL0     O 4679   0.724   9.639   2.496 -0.8208 -0.2467  0.2883
  794MOL0     C 4680   0.594   9.605   2.522 -1.0033 -1.6647 -0.0574
  794MOL0     C 4681   0.558   9.535   2.632  0.5636 -0.1137 -0.2940
  794MOL0     C 4682   0.423   9.515   2.656 -0.8043  0.3403 -0.1192
  794MOL0     C 4683   0.323   9.566   2.571  0.0384  0.0638  0.2928
  794MOL0     O 4684   0.190   9.546   2.600 -0.4302 -0.1911 -0.2836
  794MOL0     C 4685   0.120   9.664   2.654  0.1757  0.1589  0.5765
  794MOL0     C 4686  -0.016   9.627   2.697  0.2124 -0.4293 -0.6388
  794MOL0     C 4687  -0.071   9.756   2.769  0.0752 -0.2456 -1.1187
  794MOL0     C 4688  -0.212   9.730   2.807  1.0923 -0.8990 -0.1592
  794MOL0     C 4689  -0.266   9.851   2.893  1.3811 -0.6391 -0.8344
  794MOL0     C 4690  -0.401   9.822   2.975  0.5628 -0.7720 -0.7520
  794MOL0     C 4691  -0.523   9.817   2.878 -0.9217 -0.0999 -0.0777
  794MOL0     C 4692  -0.646   9.823   2.966  0.6739  0.8537  0.3505
  794MOL0     N 4693  -0.761   9.828   2.881  0.3179 -0.3367 -0.3992
  794MOL0     C 4694  -0.807   9.932   2.793  0.7056 -0.1576  0.5595
  794MOL0     C 4695  -0.933   9.883   2.749  1.0372 -0.1380 -0.0777
  794MOL0     C 4696  -1.031   9.947   2.661 -0.4590  0.5989  0.2242
  794MOL0     C 4697  -1.066  10.094   2.663 -0.4774 -0.1974 -0.6552
  794MOL0     C 4698  -1.124  10.136   2.523 -0.0795 -0.0032 -0.4018
  794MOL0     C 4699  -1.249  10.067   2.471  0.7578  0.2484 -0.4171
  794MOL0     O 4700  -1.353  10.070   2.573 -0.0632  0.3974  0.2946
  794MOL0     C 4701  -1.464   9.999   2.538  0.4273 -0.9820 -0.7062
  794MOL0     C 4702  -1.507   9.966   2.405 -0.5968  0.1121 -0.8586
  794MOL0     C 4703  -1.626   9.891   2.388 -0.3460 -0.1494  0.6070
  794MOL0     C 4704  -1.703   9.843   2.496 -0.1434  0.1386 -0.1005
  794MOL0     C 4705  -1.834   9.786   2.475 -0.4773  0.9520 -0.6086
  794MOL0     O 4706  -1.905   9.747   2.591 -0.3163  0.8535  0.2147
  794MOL0     C 4707  -2.034   9.708   2.583  0.4494  0.0829 -0.6330
  794MOL0     C 4708  -2.133   9.794   2.534  0.7266 -0.7918 -0.0914
  794MOL0     C 4709  -2.269   9.754   2.531 -0.0450 -0.0738  0.0891
  794MOL0     C 4710  -2.312   9.630   2.577  0.3001  0.2292  0.1452
  794MOL0     O 4711  -2.445   9.593   2.571 -0.1242 -0.0938  0.0312
  794MOL0     C 4712  -2.479   9.462   2.615  0.6748 -0.0176 -0.2927
  794MOL0     C 4713  -2.631   9.450   2.635  0.6900 -0.4294  0.4586
  794MOL0     C 4714  -2.686   9.304   2.648 -0.7459  1.2527  0.4032
  794MOL0     C 4715  -2.832   9.296   2.690  0.6603  0.5904 -0.5178
  794MOL0     C 4716  -2.886   9.143   2.701 -0.7285  0.7165  0.0909
  794MOL0     C 4717  -2.953   9.106   2.564  0.0549 -0.5105 -0.2788
  794MOL0     C 4718  -2.954   8.962   2.532  0.8985  0.3129 -0.0455
  794MOL0     C 4719  -3.092   8.909   2.510  0.7857  0.1328  0.4327
  794MOL0    Cl 4720  -3.098   8.726   2.513  0.1618  0.1375 -0.5108
  794MOL0     C 4721  -2.204   9.541   2.616  0.5391 -0.2777 -0.4800
  794MOL0     C 4722  -2.075   9.583   2.629  0.3099 -0.2108  0.9279
  794MOL0     O 4723  -1.875   9.793   2.360  0.7618 -0.0482 -0.3999
  794MOL0     C 4724  -1.658   9.874   2.627 -0.7521  0.2767 -0.2095
  794MOL0     C 4725  -1.537   9.941   2.649 -0.7421  0.8013  0.0156
  794MOL0     N 4726  -0.955   9.753   2.798  0.6636  0.4544 -0.3843
  794MOL0     N 4727  -0.846   9.724   2.876 -0.1578 -0.4364  0.2468
  794MOL0     C 4728   0.362   9.649   2.465 -0.6375 -1.0998  0.2198
  794MOL0     C 4729   0.499   9.675   2.444 -0.3431 -0.6846  0.0952
  794MOL0     C 4730   0.918   9.625   2.362 -0.0693 -0.5197  0.2757
  794MOL0     C 4731   0.994   9.572   2.260  0.6965 -0.0786 -0.2822
  794MOL0     C 4732   1.135   9.582   2.250 -0.3089  0.6882  0.0713
  794MOL0     C 4733   1.200   9.675   2.331  0.0269 -0.3136 -0.0943
  794MOL0     O 4734   1.334   9.688   2.313 -0.3599 -0.1796  0.7638
  794MOL0     C 4735   1.392   9.807   2.368  0.4591  0.9154 -0.6123
  794MOL0     C 4736   1.451   9.885   2.252  0.3646 -1.4563 -0.2829
  794MOL0     C 4737   1.568   9.967   2.295  0.1626 -0.8816  0.2636
  794MOL0     C 4738   1.700   9.908   2.234 -0.8858 -0.3807 -0.3537
  794MOL0     C 4739   1.738   9.775   2.296  0.5111 -0.3370 -0.1137
  794MOL0     C 4740   1.756   9.666   2.351 -0.4828  0.6271 -0.5074
  794MOL0     C 4741   1.126   9.746   2.434  0.4303 -0.1248  0.8194
  794MOL0     C 4742   0.993   9.708   2.453 -0.5357 -0.3915 -0.0588
  794MOL0     H 4743   0.634   9.491   2.696  0.8807  1.6289  0.5836
  794MOL0     H 4744   0.396   9.453   2.741  1.1275  0.1339  0.3826
  794MOL0     H 4745   0.117   9.735   2.571  0.8268  1.7344  1.8344
  794MOL0     H 4746   0.187   9.698   2.734  0.6216  1.6213 -0.3922
  794MOL0     H 4747  -0.008   9.547   2.771  0.8653  0.5151  0.3401
  794MOL0     H 4748  -0.090   9.600   2.621 -0.7006 -1.4261  0.5655
  794MOL0     H 4749  -0.067   9.847   2.708  0.1636  0.5221  0.0052
  794MOL0     H 4750   0.002   9.770   2.849  0.9321 -0.4119 -1.8493
  794MOL0     H 4751  -0.276   9.714   2.719 -1.1138  0.1507  1.1577
  794MOL0     H 4752  -0.218   9.639   2.868  1.4686  0.3294  1.7675
  794MOL0     H 4753  -0.276   9.937   2.826  1.6265 -0.4438 -0.6233
  794MOL0     H 4754  -0.187   9.883   2.961 -0.0809 -1.6785  1.4782
  794MOL0     H 4755  -0.415   9.899   3.051  3.3142 -1.0595  0.1446
  794MOL0     H 4756  -0.395   9.722   3.019 -1.3444 -0.2136  0.9425
  794MOL0     H 4757  -0.512   9.901   2.808  1.5853 -0.4366 -0.1469
  794MOL0     H 4758  -0.524   9.725   2.820 -1.8274 -2.6630  3.6610
  794MOL0     H 4759  -0.644   9.912   3.030  0.1217 -0.1236  1.7836
  794MOL0     H 4760  -0.658   9.737   3.032  2.3188  1.5122  1.5832
  794MOL0     H 4761  -0.766  10.021   2.747 -0.0325 -0.9606 -1.8133
  794MOL0     H 4762  -1.128   9.898   2.676 -0.5752 -0.5365 -3.2723
  794MOL0     H 4763  -0.995   9.909   2.565  1.3127 -0.1441  1.1337
  794MOL0     H 4764  -0.978  10.154   2.689  0.1828 -1.8023  1.1032
  794MOL0     H 4765  -1.126  10.114   2.752  1.6243 -3.7134  1.8356
  794MOL0     H 4766  -1.150  10.242   2.532 -0.4421  0.0481 -1.8326
  794MOL0     H 4767  -1.043  10.133   2.450 -2.1337  1.5860 -2.9411
  794MOL0     H 4768  -1.225   9.965   2.440  2.1697  1.3889 -3.5584
  794MOL0     H 4769  -1.279  10.128   2.385  0.7378 -0.0312 -0.6087
  794MOL0     H 4770  -1.458   9.999   2.314 -2.6027  1.1772 -1.6128
  794MOL0     H 4771  -1.660   9.878   2.286 -1.0890 -3.1813  1.1537
  794MOL0     H 4772  -2.091   9.886   2.494 -1.6159 -0.5169 -2.1796
  794MOL0     H 4773  -2.348   9.819   2.493 -1.2247 -1.2118  0.5125
  794MOL0     H 4774  -2.425   9.442   2.708 -2.9070 -1.4951  1.6740
  794MOL0     H 4775  -2.466   9.376   2.548 -1.1083 -3.4954  3.4151
  794MOL0     H 4776  -2.695   9.483   2.552 -1.6810  0.4691  2.5203
  794MOL0     H 4777  -2.658   9.520   2.715  1.6286  1.3120 -0.6855
  794MOL0     H 4778  -2.618   9.256   2.719  0.2301 -0.2875 -1.4898
  794MOL0     H 4779  -2.679   9.256   2.550  1.3868  0.3494  0.9399
  794MOL0     H 4780  -2.838   9.334   2.792  0.1027 -0.9227  0.0379
  794MOL0     H 4781  -2.889   9.362   2.624 -1.4125 -0.6443 -0.0782
  794MOL0     H 4782  -2.953   9.148   2.787 -0.3609 -2.4777  0.7008
  794MOL0     H 4783  -2.802   9.073   2.712 -1.1285 -0.2601 -2.3448
  794MOL0     H 4784  -2.913   9.155   2.475  1.6706 -1.1889  0.0205
  794MOL0     H 4785  -3.056   9.141   2.575  1.1099  2.6457  0.7495
  794MOL0     H 4786  -2.905   8.943   2.436  0.1857  0.2201 -0.3990
  794MOL0     H 4787  -2.890   8.897   2.593 -0.0935  2.0050  2.9975
  794MOL0     H 4788  -3.122   8.948   2.412  4.2601 -0.7129 -1.1100
  794MOL0     H 4789  -3.163   8.942   2.587  0.7441 -0.3238  0.5936
  794MOL0     H 4790  -2.228   9.438   2.641  1.4345 -1.0854 -2.7581
  794MOL0     H 4791  -1.995   9.518   2.662 -0.2186 -3.1098 -2.8038
  794MOL0     H 4792  -1.718   9.843   2.712  0.9131  5.5591  3.3997
  794MOL0     H 4793  -1.497   9.967   2.746  0.7299  0.0333 -0.3690
  794MOL0     H 4794   0.295   9.694   2.393 -0.5936 -1.7878 -0.2710
  794MOL0     H 4795   0.528   9.728   2.354  0.6371  1.5808  1.6406
  794MOL0     H 4796   0.941   9.514   2.185 -1.0336 -0.8931  1.4769
  794MOL0     H 4797   1.199   9.537   2.175  1.0948 -1.5134  2.4528
  794MOL0     H 4798   1.462   9.777   2.447 -0.3972 -1.3463 -0.6387
  794MOL0     H 4799   1.322   9.885   2.401  0.9517  0.4781  1.6200
  794MOL0     H 4800   1.488   9.822   2.169 -0.3976 -2.1120 -0.1356
  794MOL0     H 4801   1.369   9.945   2.211 -0.2742 -1.9449  0.2649
  794MOL0     H 4802   1.575   9.956   2.403  1.8931  0.0588  0.2837
  794MOL0     H 4803   1.556  10.070   2.261 -2.3396 -1.2374 -0.1667
  794MOL0     H 4804   1.699   9.883   2.128 -2.2804  0.0994 -0.4692
  794MOL0     H 4805   1.781   9.979   2.252 -3.4159  2.0584  2.7291
  794MOL0     H 4806   1.791   9.576   2.398 -1.4756 -0.4394 -1.7424
  794MOL0     H 4807   1.173   9.811   2.507  3.2205  0.2156 -1.1324
  794MOL0     H 4808   0.945   9.751   2.541 -0.6107  0.6074 -0.5821
  795MOL0     O 4809   2.444   5.972   8.133  0.5393  0.1888  0.1711
  795MOL0     C 4810   2.440   5.934   8.247  0.0004  0.3218  0.0743
  795MOL0     O 4811   2.330   5.878   8.310 -0.1939 -0.0800  0.2341
  795MOL0     C 4812   2.203   5.902   8.276 -1.1391  0.6725  0.1067
  795MOL0     C 4813   2.111   5.838   8.357  0.1476 -0.0937  0.0640
  795MOL0     C 4814   1.977   5.861   8.337 -0.5537 -0.0995 -0.2941
  795MOL0     C 4815   1.928   5.965   8.255 -0.1186  0.0187 -1.1335
  795MOL0     O 4816   1.798   5.999   8.268 -0.2875 -0.2199  0.1009
  795MOL0     C 4817   1.753   6.133   8.231  0.2904  0.7183  0.0121
  795MOL0     C 4818   1.605   6.147   8.269 -1.3489 -0.4635  0.3348
  795MOL0     C 4819   1.561   6.292   8.213  0.0452  0.3281  0.3446
  795MOL0     C 4820   1.539   6.295   8.062 -0.0396 -0.0624  0.2074
  795MOL0     C 4821   1.443   6.412   8.037  0.7203  0.8106 -0.2266
  795MOL0     C 4822   1.404   6.420   7.887  0.7638  0.1725 -0.3342
  795MOL0     C 4823   1.294   6.521   7.855  0.5614 -0.8996 -0.6753
  795MOL0     C 4824   1.166   6.504   7.948 -0.1968 -0.1636 -1.5307
  795MOL0     N 4825   1.047   6.574   7.895 -0.7043 -0.1412  0.2894
  795MOL0     C 4826   0.994   6.558   7.771  0.2909 -0.3475  0.0126
  795MOL0     C 4827   0.885   6.627   7.772  0.4415 -0.7381 -0.0485
  795MOL0     C 4828   0.807   6.630   7.642  0.7421 -0.2342  0.2305
  795MOL0     C 4829   0.678   6.550   7.645  0.4837  0.0392 -0.8243
  795MOL0     C 4830   0.580   6.640   7.725 -0.6395 -0.0926 -0.6713
  795MOL0     C 4831   0.439   6.572   7.723  0.2577  0.0523 -0.4821
  795MOL0     O 4832   0.398   6.562   7.587 -0.3267 -0.3635  0.1744
  795MOL0     C 4833   0.273   6.578   7.554 -0.4186 -0.0704  0.3402
  795MOL0     C 4834   0.241   6.606   7.415  0.3327  0.2496  0.3948
  795MOL0     C 4835   0.106   6.609   7.372  0.0031  0.3804 -0.3406
  795MOL0     C 4836  -0.001   6.608   7.465  0.2376  0.1812 -0.8290
  795MOL0     C 4837  -0.141   6.635   7.421  0.1696 -0.4857  0.4896
  795MOL0     O 4838  -0.226   6.655   7.535 -0.2976  0.0243  0.1662
  795MOL0     C 4839  -0.358   6.680   7.499 -0.6673  0.3816 -0.0633
  795MOL0     C 4840  -0.434   6.570   7.499 -0.5468 -1.1400  0.4004
  795MOL0     C 4841  -0.567   6.598   7.479  1.4516  0.3451  0.2853
  795MOL0     C 4842  -0.628   6.723   7.472  0.8308  0.5491  1.0594
  795MOL0     O 4843  -0.760   6.764   7.475  0.6343 -0.2036  0.4073
  795MOL0     C 4844  -0.856   6.664   7.500  0.4932 -0.9344  0.1113
  795MOL0     C 4845  -0.988   6.737   7.470  0.0430 -0.0772  0.7111
  795MOL0     C 4846  -1.114   6.643   7.486  0.6019  0.2984 -0.3303
  795MOL0     C 4847  -1.241   6.709   7.539  0.2165  0.7117  0.0970
  795MOL0     C 4848  -1.279   6.825   7.435  0.3776  0.3995 -0.1620
  795MOL0     C 4849  -1.428   6.866   7.458 -0.9014  0.7408  1.1057
  795MOL0     C 4850  -1.462   6.928   7.589  0.4681 -0.0675  0.7350
  795MOL0     C 4851  -1.615   6.954   7.617  0.3036 -0.0006  0.1187
  795MOL0    Cl 4852  -1.700   6.806   7.629 -0.0999 -0.3731  0.1580
  795MOL0     C 4853  -0.546   6.833   7.481  0.4290  0.4703 -0.8968
  795MOL0     C 4854  -0.408   6.809   7.489  0.1065 -0.3528  0.1241
  795MOL0     O 4855  -0.177   6.652   7.304 -0.1335  0.1444 -0.7127
  795MOL0     C 4856   0.034   6.579   7.598  0.8529  0.0144 -0.0070
  795MOL0     C 4857   0.163   6.560   7.647  0.2294 -0.1738 -0.4736
  795MOL0     N 4858   0.872   6.698   7.886  0.4556 -0.1727  0.6980
  795MOL0     N 4859   0.974   6.659   7.961 -0.2496  0.3924 -0.8302
  795MOL0     C 4860   2.023   6.038   8.183  0.7076 -0.1990 -0.2433
  795MOL0     C 4861   2.155   6.006   8.192  0.4092 -1.2321  0.7507
  795MOL0     C 4862   2.571   5.935   8.326 -0.4812 -0.4089  0.1620
  795MOL0     C 4863   2.571   5.911   8.468  0.4546  0.2998  0.9278
  795MOL0     C 4864   2.687   5.907   8.538  0.1410 -0.6705  0.0726
  795MOL0     C 4865   2.815   5.946   8.485  0.1483 -0.1200 -0.4272
  795MOL0     O 4866   2.936   5.943   8.553  0.0606 -0.3442 -0.3158
  795MOL0     C 4867   2.938   5.959   8.694 -0.0534  0.1596 -0.1323
  795MOL0     C 4868   3.070   5.995   8.750 -0.1791  0.2628 -0.5589
  795MOL0     C 4869   3.160   5.875   8.755  0.1406  0.2201  0.6530
  795MOL0     C 4870   3.303   5.904   8.798  0.1735 -0.3204 -0.1246
  795MOL0     C 4871   3.387   5.783   8.813  0.0765  0.2250 -0.6716
  795MOL0     C 4872   3.445   5.674   8.819  0.3555 -0.6273  0.0208
  795MOL0     C 4873   2.812   5.988   8.357  0.2226 -0.5721  0.1751
  795MOL0     C 4874   2.699   5.981   8.279  1.0062  0.2175  0.2802
  795MOL0     H 4875   2.138   5.770   8.437  1.4589  1.1237  0.7012
  795MOL0     H 4876   1.897   5.829   8.403 -0.4046  0.3007  0.0862
  795MOL0     H 4877   1.762   6.129   8.122  2.1431 -2.1233  0.1711
  795MOL0     H 4878   1.812   6.218   8.268  1.0332  0.1260  0.2255
  795MOL0     H 4879   1.584   6.154   8.376  2.3185  3.1253  1.0698
  795MOL0     H 4880   1.546   6.073   8.214 -1.4581 -0.0161 -0.1575
  795MOL0     H 4881   1.649   6.356   8.231 -0.7427  1.4314  0.3781
  795MOL0     H 4882   1.476   6.336   8.264 -0.4718 -2.9613  2.6069
  795MOL0     H 4883   1.629   6.305   8.001  0.6103 -2.6808  0.6306
  795MOL0     H 4884   1.489   6.202   8.032  1.3982 -1.0097  0.6468
  795MOL0     H 4885   1.485   6.506   8.074  2.6227  0.9475 -2.5028
  795MOL0     H 4886   1.350   6.397   8.093  1.3160  2.4399  1.3038
  795MOL0     H 4887   1.372   6.320   7.855 -0.8801  1.0320 -1.5539
  795MOL0     H 4888   1.500   6.436   7.837  1.7623 -2.0181  0.7281
  795MOL0     H 4889   1.338   6.620   7.872 -0.1589 -1.0067  2.5909
  795MOL0     H 4890   1.256   6.526   7.753 -0.3423  0.4101 -0.3107
  795MOL0     H 4891   1.201   6.540   8.045  3.9015 -0.5015 -2.6815
  795MOL0     H 4892   1.145   6.398   7.967  0.6008  0.1294  1.5372
  795MOL0     H 4893   1.040   6.515   7.682  1.6341 -0.6159  0.8034
  795MOL0     H 4894   0.859   6.582   7.559  2.4612  4.4538 -1.7325
  795MOL0     H 4895   0.787   6.726   7.593 -1.1755 -0.0194  1.3096
  795MOL0     H 4896   0.692   6.455   7.698 -0.9293 -0.9461 -2.1375
  795MOL0     H 4897   0.623   6.532   7.552 -0.4897 -2.1220  0.1052
  795MOL0     H 4898   0.612   6.652   7.828 -1.2143 -1.0415 -0.3661
  795MOL0     H 4899   0.573   6.741   7.684  0.5613  0.3200  0.1133
  795MOL0     H 4900   0.364   6.624   7.782  0.3007 -1.7502  1.2731
  795MOL0     H 4901   0.442   6.470   7.763  1.9209  0.4984  0.5986
  795MOL0     H 4902   0.313   6.643   7.342 -0.5508  2.3490  0.4953
  795MOL0     H 4903   0.068   6.595   7.272 -2.4619 -0.5502  0.6505
  795MOL0     H 4904  -0.405   6.466   7.497 -0.9887 -1.2997  1.5555
  795MOL0     H 4905  -0.629   6.510   7.470  1.8995  0.2452 -3.7008
  795MOL0     H 4906  -0.851   6.623   7.601  3.7861 -1.3402 -0.1038
  795MOL0     H 4907  -0.847   6.575   7.437 -0.9795 -2.3481  1.7826
  795MOL0     H 4908  -0.978   6.776   7.368  3.6606 -0.6820  0.7160
  795MOL0     H 4909  -1.005   6.819   7.540 -0.2799 -0.7796  1.4820
  795MOL0     H 4910  -1.092   6.553   7.544  0.2342 -0.1707 -0.9160
  795MOL0     H 4911  -1.143   6.607   7.387 -1.8990 -0.5342  0.6128
  795MOL0     H 4912  -1.312   6.626   7.533  1.0855  0.0333 -1.1005
  795MOL0     H 4913  -1.228   6.746   7.641  0.1837  3.7009 -0.8749
  795MOL0     H 4914  -1.269   6.788   7.332  0.8198  2.0266 -0.7455
  795MOL0     H 4915  -1.220   6.917   7.446  2.6789 -0.9386 -0.5500
  795MOL0     H 4916  -1.492   6.778   7.463 -0.2054  0.0061 -1.3972
  795MOL0     H 4917  -1.470   6.925   7.376 -1.6497 -0.6057  0.4941
  795MOL0     H 4918  -1.426   6.864   7.671 -0.6421  1.3967  2.4560
  795MOL0     H 4919  -1.418   7.027   7.606 -0.1085  0.0460  1.6493
  795MOL0     H 4920  -1.653   7.018   7.537 -1.4600  2.0913  2.4636
  795MOL0     H 4921  -1.628   7.019   7.704  0.1194 -0.5122  0.4799
  795MOL0     H 4922  -0.569   6.939   7.481  2.1230  0.9734  2.5569
  795MOL0     H 4923  -0.339   6.893   7.488  1.1756 -1.0424  3.2914
  795MOL0     H 4924  -0.037   6.601   7.678  1.5202  0.4737  0.4705
  795MOL0     H 4925   0.174   6.534   7.752 -1.5964  0.6976 -0.0226
  795MOL0     H 4926   1.999   6.132   8.134  3.2226  0.9905  0.6089
  795MOL0     H 4927   2.228   6.066   8.138  0.4609  0.5766  2.6813
  795MOL0     H 4928   2.475   5.896   8.518  1.3146  0.1495  2.6259
  795MOL0     H 4929   2.682   5.874   8.641  1.6237 -1.7233 -0.1650
  795MOL0     H 4930   2.898   5.867   8.737 -3.7214  0.7543 -1.8692
  795MOL0     H 4931   2.866   6.039   8.714 -0.4789 -0.3992  0.6048
  795MOL0     H 4932   3.116   6.069   8.685  2.0798 -0.5348  0.0561
  795MOL0     H 4933   3.066   6.037   8.851 -2.2124  0.8574 -0.8389
  795MOL0     H 4934   3.150   5.816   8.663 -0.8164  2.1663 -0.5577
  795MOL0     H 4935   3.117   5.802   8.825  1.5735 -1.8527 -0.5203
  795MOL0     H 4936   3.360   5.960   8.723 -1.7584  1.2418 -0.5163
  795MOL0     H 4937   3.293   5.960   8.891 -2.0480 -3.1658  1.5074
  795MOL0     H 4938   3.488   5.579   8.845 -1.8960 -1.6482  0.2447
  795MOL0     H 4939   2.896   6.038   8.309  1.0902 -0.0165  2.1637
  795MOL0     H 4940   2.700   6.024   8.179 -0.5364 -0.8729 -0.2402
  796MOL0     O 4941   7.508   6.147   9.741 -0.5130 -0.1279  0.3127
  796MOL0     C 4942   7.548   6.152   9.861 -0.2572 -0.6636 -0.9853
  796MOL0     O 4943   7.473   6.145   9.972  0.9057 -0.0527  0.5772
  796MOL0     C 4944   7.337   6.136   9.968 -0.4523  0.3321 -0.4998
  796MOL0     C 4945   7.294   6.084  10.087 -0.3813  0.1491 -0.4389
  796MOL0     C 4946   7.159   6.044  10.115 -0.2378 -0.6468  0.3364
  796MOL0     C 4947   7.077   6.032  10.000  0.5480  0.7241 -0.9144
  796MOL0     O 4948   6.961   5.961   9.991 -0.1245 -0.3469  0.1766
  796MOL0     C 4949   6.934   5.869  10.105 -0.3888 -0.2276  0.1347
  796MOL0     C 4950   6.795   5.799  10.099  0.0363  0.6924  0.7982
  796MOL0     C 4951   6.676   5.896  10.087  1.2325  0.3263  0.0710
  796MOL0     C 4952   6.555   5.814  10.024 -1.7636 -0.1417 -0.0286
  796MOL0     C 4953   6.442   5.910  10.001  0.3065 -0.4974  0.2553
  796MOL0     C 4954   6.317   5.845   9.940  0.1504  0.0517  0.9375
  796MOL0     C 4955   6.205   5.947   9.908 -0.5219 -0.7340  0.0343
  796MOL0     C 4956   6.099   5.879   9.820  0.6800 -0.2951 -0.9191
  796MOL0     N 4957   5.977   5.967   9.816 -1.0815  0.1033 -1.2153
  796MOL0     C 4958   5.939   6.056   9.725  0.2278  0.6722  0.5165
  796MOL0     C 4959   5.804   6.093   9.746 -0.3746  0.0877 -0.8305
  796MOL0     C 4960   5.710   6.191   9.691  0.1748  0.0876  0.4521
  796MOL0     C 4961   5.749   6.248   9.553 -0.3656 -0.0196  0.7315
  796MOL0     C 4962   5.659   6.366   9.505 -0.2312  0.0487  1.0492
  796MOL0     C 4963   5.532   6.323   9.436  0.4602 -0.8460  0.2298
  796MOL0     O 4964   5.459   6.245   9.538 -0.2473  0.5492  0.1673
  796MOL0     C 4965   5.340   6.191   9.518 -1.0024 -0.8227 -0.3232
  796MOL0     C 4966   5.285   6.103   9.607  1.6017 -0.1360  0.2556
  796MOL0     C 4967   5.159   6.047   9.583  0.1423 -0.1637  0.1908
  796MOL0     C 4968   5.075   6.090   9.481  0.1490  0.1188  0.2596
  796MOL0     C 4969   4.934   6.056   9.467  0.2611  0.8438 -0.6564
  796MOL0     O 4970   4.878   5.972   9.563  0.9828  0.3499 -0.5730
  796MOL0     C 4971   4.748   5.977   9.593  0.8698 -0.7481 -0.2245
  796MOL0     C 4972   4.670   5.858   9.606 -0.2305 -0.9023 -0.2726
  796MOL0     C 4973   4.535   5.861   9.630 -0.4675 -0.6661 -0.4677
  796MOL0     C 4974   4.475   5.982   9.656 -0.3604  0.3663  0.3872
  796MOL0     O 4975   4.349   6.005   9.695 -0.4550  0.4807 -0.7184
  796MOL0     C 4976   4.269   5.889   9.729  0.0294 -0.1754 -0.3692
  796MOL0     C 4977   4.150   5.913   9.830  1.0287 -0.3298 -0.0822
  796MOL0     C 4978   4.058   5.792   9.850  0.7787  0.9086  0.5639
  796MOL0     C 4979   3.946   5.801   9.958  0.5237 -0.9053  0.4887
  796MOL0     C 4980   3.834   5.896   9.917 -0.9544 -0.5921  0.4428
  796MOL0     C 4981   3.713   5.887  10.009 -0.2271 -0.1960 -0.5492
  796MOL0     C 4982   3.600   5.975   9.950 -0.4265  0.5290 -0.1900
  796MOL0     C 4983   3.485   5.889   9.901 -0.2854 -0.7889 -0.2538
  796MOL0    Cl 4984   3.391   5.818  10.031 -0.2151 -0.1448  0.5421
  796MOL0     C 4985   4.548   6.107   9.650 -0.1956  0.5791 -0.2189
  796MOL0     C 4986   4.680   6.090   9.603  0.2783 -0.2822 -0.8426
  796MOL0     O 4987   4.870   6.126   9.386 -0.2976  0.3960  0.7390
  796MOL0     C 4988   5.130   6.192   9.397  0.1637 -0.2661 -0.0955
  796MOL0     C 4989   5.259   6.232   9.415 -1.5212 -0.5917  0.0797
  796MOL0     N 4990   5.776   6.022   9.855  1.0649  0.2891  0.3590
  796MOL0     N 4991   5.873   5.943   9.889  0.3839 -0.2840 -0.5998
  796MOL0     C 4992   7.121   6.093   9.878 -0.0851 -0.3547  0.3990
  796MOL0     C 4993   7.253   6.146   9.859 -0.3567  0.4596 -0.1274
  796MOL0     C 4994   7.693   6.162   9.884  0.2127  0.1742  0.2506
  796MOL0     C 4995   7.733   6.190  10.009 -1.2265 -0.0337 -0.9071
  796MOL0     C 4996   7.868   6.204  10.038 -0.9503 -0.1930 -0.1619
  796MOL0     C 4997   7.966   6.190   9.939 -0.1789  0.9558 -0.4303
  796MOL0     O 4998   8.087   6.199   9.985  1.2069 -1.0966 -0.2853
  796MOL0     C 4999   8.206   6.172   9.906  0.8833 -0.7118 -0.2678
  796MOL0     C 5000   8.305   6.078   9.979  0.6445 -0.2716  0.1949
  796MOL0     C 5001   8.343   6.119  10.125  0.6192  1.0801 -0.1100
  796MOL0     C 5002   8.378   6.268  10.145  0.9823 -0.2533 -1.1303
  796MOL0     C 5003   8.422   6.294  10.279  0.0005 -0.5919  0.1193
  796MOL0     C 5004   8.466   6.307  10.389  0.4101  0.9313  0.3337
  796MOL0     C 5005   7.920   6.172   9.807  0.7973 -0.0690 -1.0927
  796MOL0     C 5006   7.786   6.160   9.777 -0.5502 -0.5948 -0.7705
  796MOL0     H 5007   7.372   6.082  10.163  0.7493 -0.1077 -1.5774
  796MOL0     H 5008   7.147   6.007  10.216  1.3351 -2.6951 -0.1652
  796MOL0     H 5009   6.944   5.916  10.203  3.2414  1.4510 -0.8864
  796MOL0     H 5010   7.005   5.786  10.105 -0.7587 -0.5782  1.8070
  796MOL0     H 5011   6.786   5.725  10.179 -1.9679  1.6294  1.5285
  796MOL0     H 5012   6.804   5.734  10.011 -0.4285 -0.7533  1.7888
  796MOL0     H 5013   6.703   5.989  10.037  1.4067  0.3224  0.1587
  796MOL0     H 5014   6.642   5.918  10.189  0.0864  2.2176 -0.6755
  796MOL0     H 5015   6.584   5.762   9.933 -0.8419  3.9926 -2.3630
  796MOL0     H 5016   6.525   5.735  10.093 -1.4366  0.9571  1.4209
  796MOL0     H 5017   6.467   5.999   9.942 -3.2924  0.2740 -0.3663
  796MOL0     H 5018   6.431   5.940  10.105  3.8608  0.4580  0.4772
  796MOL0     H 5019   6.274   5.765  10.002  0.0852 -2.0706 -1.6530
  796MOL0     H 5020   6.351   5.789   9.852 -0.1150 -2.2535  2.2092
  796MOL0     H 5021   6.168   5.981  10.006  0.2925 -1.6491  0.6775
  796MOL0     H 5022   6.243   6.040   9.864 -0.7606 -1.0439 -0.8457
  796MOL0     H 5023   6.075   5.789   9.879  0.3340  0.5917  0.3379
  796MOL0     H 5024   6.129   5.848   9.720  1.3359 -0.6808 -0.6127
  796MOL0     H 5025   5.997   6.090   9.640 -0.7020 -2.6477 -1.6595
  796MOL0     H 5026   5.706   6.271   9.766  2.6822 -1.6844  2.6211
  796MOL0     H 5027   5.609   6.148   9.692  0.5080 -0.7954 -1.1945
  796MOL0     H 5028   5.735   6.169   9.478 -0.5988  0.8952 -0.2145
  796MOL0     H 5029   5.852   6.283   9.563 -0.6935  0.9874  0.6848
  796MOL0     H 5030   5.631   6.434   9.586 -5.5258  0.6419 -0.9139
  796MOL0     H 5031   5.725   6.419   9.435  0.8985  1.9366  3.3769
  796MOL0     H 5032   5.546   6.277   9.338  3.8753 -0.7673  0.5586
  796MOL0     H 5033   5.481   6.416   9.410 -0.1714 -1.1188  0.4761
  796MOL0     H 5034   5.339   6.066   9.693  1.8846  2.0671  1.0837
  796MOL0     H 5035   5.117   5.962   9.635 -1.8387 -0.5754 -1.8825
  796MOL0     H 5036   4.710   5.758   9.617 -1.8836 -1.3136  3.9858
  796MOL0     H 5037   4.483   5.768   9.609  0.7939 -0.8674 -3.2683
  796MOL0     H 5038   4.324   5.796   9.745 -0.1683  0.1919  3.1523
  796MOL0     H 5039   4.215   5.869   9.635  0.1898 -0.9078 -0.3119
  796MOL0     H 5040   4.091   5.996   9.790 -1.0088 -2.2271 -1.2838
  796MOL0     H 5041   4.193   5.944   9.926  0.0276  0.2023  0.2172
  796MOL0     H 5042   4.114   5.698   9.864 -0.1527 -0.6555 -4.2851
  796MOL0     H 5043   4.015   5.767   9.753  0.3835  2.7091  0.2450
  796MOL0     H 5044   3.898   5.705   9.981  0.3833 -0.4203  2.4425
  796MOL0     H 5045   3.989   5.837  10.052  1.6639  0.1217 -0.4010
  796MOL0     H 5046   3.793   5.874   9.818  0.8032  2.8713 -1.2339
  796MOL0     H 5047   3.871   5.998   9.902  0.0447 -1.0818 -0.6168
  796MOL0     H 5048   3.750   5.923  10.105  0.3784 -0.3042 -0.7345
  796MOL0     H 5049   3.670   5.787  10.019  1.4717 -1.2523 -2.8366
  796MOL0     H 5050   3.573   6.052  10.023 -0.0831  0.3513  0.1298
  796MOL0     H 5051   3.630   6.028   9.859  0.3496 -4.5347 -3.3230
  796MOL0     H 5052   3.523   5.804   9.843 -0.5639 -0.9166 -0.2493
  796MOL0     H 5053   3.423   5.953   9.838  0.9424  0.9769  0.2389
  796MOL0     H 5054   4.505   6.205   9.665  0.0412  0.7920 -0.9119
  796MOL0     H 5055   4.738   6.181   9.598  0.8173 -0.6372 -1.0446
  796MOL0     H 5056   5.085   6.238   9.310 -1.7529 -0.6994  0.6047
  796MOL0     H 5057   5.299   6.307   9.347 -3.6778  1.4943  0.9825
  796MOL0     H 5058   7.044   6.087   9.802  0.4244  1.3802 -0.3083
  796MOL0     H 5059   7.273   6.185   9.760  1.4907 -1.8338 -0.7420
  796MOL0     H 5060   7.676   6.185  10.101 -2.6221 -2.2562 -1.8107
  796MOL0     H 5061   7.897   6.220  10.142  0.5643  0.4556 -0.6570
  796MOL0     H 5062   8.271   6.257   9.881  0.0459  0.0765  0.1659
  796MOL0     H 5063   8.169   6.121   9.816  0.0610 -0.5912 -0.0055
  796MOL0     H 5064   8.270   5.974   9.975  2.1697 -0.9138  2.1067
  796MOL0     H 5065   8.401   6.081   9.928  0.1175  0.4138 -0.7851
  796MOL0     H 5066   8.427   6.055  10.152 -0.0688 -0.6488 -1.8146
  796MOL0     H 5067   8.263   6.086  10.192 -0.4355  1.0267 -1.3417
  796MOL0     H 5068   8.461   6.295  10.080  1.0905  1.7180 -0.2312
  796MOL0     H 5069   8.290   6.331  10.129 -0.3496 -1.0419  2.2752
  796MOL0     H 5070   8.494   6.320  10.492 -1.2294  1.5062  0.7508
  796MOL0     H 5071   7.994   6.139   9.735 -0.2802 -2.2793 -1.2478
  796MOL0     H 5072   7.760   6.114   9.682 -0.1171 -0.4536 -0.9582
  797MOL0     O 5073   6.861   5.593   7.163 -1.0262  0.3711  0.3729
  797MOL0     C 5074   6.950   5.618   7.089  0.7394  0.5891  1.1825
  797MOL0     O 5075   6.926   5.643   6.951 -0.3540 -0.2084 -0.6770
  797MOL0     C 5076   6.794   5.652   6.906 -0.7738 -0.2632  0.3550
  797MOL0     C 5077   6.725   5.762   6.947  0.0234  0.2075 -0.5294
  797MOL0     C 5078   6.603   5.797   6.894 -0.3568 -0.2995  0.1539
  797MOL0     C 5079   6.540   5.710   6.802 -0.2302  0.5113 -0.6632
  797MOL0     O 5080   6.421   5.733   6.731  0.0956 -0.0511 -0.9583
  797MOL0     C 5081   6.384   5.869   6.710  0.5229 -0.5481  0.3784
  797MOL0     C 5082   6.250   5.885   6.633  0.8295 -0.0596 -0.3011
  797MOL0     C 5083   6.262   5.829   6.483  0.8874  0.6311 -0.3307
  797MOL0     C 5084   6.114   5.837   6.425  0.1709 -0.3266  0.1984
  797MOL0     C 5085   6.114   5.837   6.272 -0.7330 -0.1566 -0.3624
  797MOL0     C 5086   5.989   5.890   6.207 -0.8257 -0.4556 -0.3339
  797MOL0     C 5087   5.988   5.830   6.065  0.0585 -0.7992 -0.6547
  797MOL0     C 5088   5.887   5.904   5.979  0.1358  0.6921  0.2966
  797MOL0     N 5089   5.751   5.870   6.015  0.6885  0.8952  0.4286
  797MOL0     C 5090   5.646   5.935   5.957 -0.2495 -0.8357 -0.7726
  797MOL0     C 5091   5.541   5.849   5.959 -0.9493 -0.4476 -0.1186
  797MOL0     C 5092   5.411   5.885   5.897 -0.4248  0.6149 -0.2359
  797MOL0     C 5093   5.321   5.969   5.991  0.0263 -1.1310  0.0161
  797MOL0     C 5094   5.190   6.006   5.918 -0.4107 -0.9454 -0.3328
  797MOL0     C 5095   5.103   6.119   5.989  0.3377  0.4468  0.5391
  797MOL0     O 5096   4.980   6.129   5.917 -0.0476  0.9089  0.5708
  797MOL0     C 5097   4.871   6.195   5.972 -0.9360  0.2434  0.2792
  797MOL0     C 5098   4.747   6.188   5.905 -0.0416  0.5491  0.6369
  797MOL0     C 5099   4.635   6.252   5.954 -0.6520 -0.8148  0.0583
  797MOL0     C 5100   4.645   6.330   6.062 -0.5505  0.4775 -0.8619
  797MOL0     C 5101   4.531   6.415   6.103 -0.0161  0.3563  0.2136
  797MOL0     O 5102   4.419   6.418   6.015  0.2488  0.0523  0.6334
  797MOL0     C 5103   4.303   6.486   6.049 -0.2624  0.0237  1.0438
  797MOL0     C 5104   4.198   6.461   5.957  0.5442  0.0491 -0.0601
  797MOL0     C 5105   4.066   6.525   5.972  0.0749  0.2761  0.7604
  797MOL0     C 5106   4.039   6.621   6.063 -0.4034  0.5347 -0.2939
  797MOL0     O 5107   3.921   6.681   6.087  0.1667 -0.1790  0.1118
  797MOL0     C 5108   3.856   6.694   5.965  0.2281 -0.3849 -0.1248
  797MOL0     C 5109   3.717   6.742   6.014  0.0675  0.0774 -0.0217
  797MOL0     C 5110   3.617   6.755   5.894 -0.0642 -0.5768  0.3096
  797MOL0     C 5111   3.482   6.804   5.953 -0.0257 -1.3725 -0.2347
  797MOL0     C 5112   3.376   6.757   5.864 -0.1077  0.2029 -0.1239
  797MOL0     C 5113   3.261   6.860   5.854 -0.3186 -0.0142  0.2733
  797MOL0     C 5114   3.207   6.908   5.991  0.1999  0.0169 -0.3763
  797MOL0     C 5115   3.190   7.060   6.017  1.1950  0.9365  0.0984
  797MOL0    Cl 5116   3.061   7.142   5.912  0.2434 -0.7428  0.3579
  797MOL0     C 5117   4.144   6.655   6.148 -0.2685  0.5266  0.2524
  797MOL0     C 5118   4.271   6.584   6.142  0.1717  0.4247  0.0504
  797MOL0     O 5119   4.541   6.472   6.214 -0.2819  0.4468  0.9478
  797MOL0     C 5120   4.765   6.323   6.148  1.0236  0.3324 -0.3836
  797MOL0     C 5121   4.874   6.268   6.096 -0.9537  0.0120  0.7785
  797MOL0     N 5122   5.571   5.730   6.009 -0.7817  0.5416  0.7261
  797MOL0     N 5123   5.697   5.738   6.035 -0.8370  0.1709  0.1552
  797MOL0     C 5124   6.602   5.593   6.776 -0.1171  0.0600  0.2310
  797MOL0     C 5125   6.732   5.559   6.826 -0.5354  0.3759  0.1543
  797MOL0     C 5126   7.080   5.641   7.140  0.2736  0.0182  0.9509
  797MOL0     C 5127   7.180   5.692   7.048  0.3712  0.4421  0.5570
  797MOL0     C 5128   7.318   5.697   7.095 -0.8449  0.1125 -0.5439
  797MOL0     C 5129   7.348   5.668   7.240  0.4119 -1.2938  0.8232
  797MOL0     O 5130   7.469   5.673   7.298 -0.2270  0.2320 -0.2127
  797MOL0     C 5131   7.576   5.598   7.244  0.1697  0.4913 -0.0303
  797MOL0     C 5132   7.539   5.443   7.254  0.2638 -0.0125  0.1575
  797MOL0     C 5133   7.463   5.410   7.383  0.9019 -0.8352  0.2205
  797MOL0     C 5134   7.510   5.288   7.448  0.1541 -0.2142 -0.3646
  797MOL0     C 5135   7.400   5.225   7.523  0.2258 -0.0455 -0.1574
  797MOL0     C 5136   7.298   5.169   7.562 -0.1161 -0.4341  0.2554
  797MOL0     C 5137   7.249   5.631   7.324  0.9914  0.3326  0.6715
  797MOL0     C 5138   7.119   5.607   7.267  0.0488 -0.0694 -1.5502
  797MOL0     H 5139   6.780   5.830   7.011  0.2670 -3.0123  3.1185
  797MOL0     H 5140   6.558   5.894   6.912 -1.1113 -1.2607  4.9057
  797MOL0     H 5141   6.469   5.906   6.651 -0.8273 -1.1318 -2.0649
  797MOL0     H 5142   6.369   5.931   6.799 -2.1425  1.8267 -1.5556
  797MOL0     H 5143   6.210   5.986   6.634  1.6180  0.3166  2.6327
  797MOL0     H 5144   6.181   5.822   6.689 -1.8392  2.9703  0.0869
  797MOL0     H 5145   6.297   5.725   6.490  1.6904  0.8985 -0.3538
  797MOL0     H 5146   6.325   5.877   6.408  1.2496 -3.5928 -3.0563
  797MOL0     H 5147   6.042   5.768   6.470  0.4652 -0.2374  0.8241
  797MOL0     H 5148   6.069   5.933   6.452 -0.7087 -0.3011 -1.2644
  797MOL0     H 5149   6.117   5.732   6.241  2.1483 -0.1670 -0.2738
  797MOL0     H 5150   6.200   5.892   6.233 -0.4525  0.6437  1.2820
  797MOL0     H 5151   5.998   5.999   6.207 -0.2548 -0.5000 -0.6405
  797MOL0     H 5152   5.904   5.854   6.266 -0.7699 -1.3627 -0.7900
  797MOL0     H 5153   6.089   5.838   6.024  0.3646  0.9941  0.3258
  797MOL0     H 5154   5.959   5.726   6.080  0.6674 -0.7006  1.6828
  797MOL0     H 5155   5.906   5.877   5.875  1.2157  2.8592 -0.1377
  797MOL0     H 5156   5.906   6.012   5.970  1.9545  0.2520 -2.4068
  797MOL0     H 5157   5.657   6.031   5.908  0.0089 -0.5475 -0.1533
  797MOL0     H 5158   5.358   5.793   5.869  0.8722 -0.0783 -0.4873
  797MOL0     H 5159   5.429   5.940   5.804  2.8783  0.6361  0.3017
  797MOL0     H 5160   5.385   6.054   6.014  1.8766 -2.2777 -0.6834
  797MOL0     H 5161   5.294   5.922   6.086  1.0492 -0.1552  0.8236
  797MOL0     H 5162   5.213   6.053   5.821  0.9457 -0.9664 -0.0435
  797MOL0     H 5163   5.136   5.919   5.881  0.1197 -0.7745 -1.5795
  797MOL0     H 5164   5.163   6.210   5.983  0.4910  0.2796 -0.5928
  797MOL0     H 5165   5.081   6.099   6.094 -0.8175  0.8219  0.3838
  797MOL0     H 5166   4.745   6.127   5.815 -1.9119 -0.3209  1.2123
  797MOL0     H 5167   4.539   6.234   5.907 -1.2804 -2.2798  1.8159
  797MOL0     H 5168   4.208   6.383   5.882 -1.3374 -1.4631  1.1406
  797MOL0     H 5169   3.999   6.492   5.893 -0.2469  3.6273 -0.5148
  797MOL0     H 5170   3.832   6.602   5.911 -0.2155  0.0038 -0.5910
  797MOL0     H 5171   3.901   6.769   5.899 -1.2039  0.5997 -0.0381
  797MOL0     H 5172   3.736   6.836   6.066 -3.1479  0.3217  0.9062
  797MOL0     H 5173   3.672   6.659   6.068 -0.0167  0.5432  0.6268
  797MOL0     H 5174   3.608   6.652   5.859  0.3549 -0.6386  0.3853
  797MOL0     H 5175   3.657   6.820   5.815 -0.0746 -1.0170 -0.0624
  797MOL0     H 5176   3.466   6.769   6.056  1.2178 -1.6944 -0.1279
  797MOL0     H 5177   3.494   6.913   5.953  0.9140 -1.4654 -0.5249
  797MOL0     H 5178   3.332   6.667   5.907 -0.0600  0.1359 -0.2139
  797MOL0     H 5179   3.414   6.739   5.762 -2.8356  2.4754 -1.6970
  797MOL0     H 5180   3.181   6.809   5.799 -0.3960 -0.6481  0.9558
  797MOL0     H 5181   3.301   6.947   5.801 -0.3069  0.2648  0.7359
  797MOL0     H 5182   3.105   6.869   6.000 -0.1390  0.6932 -1.2579
  797MOL0     H 5183   3.269   6.860   6.067 -0.5571  0.1218  0.3231
  797MOL0     H 5184   3.289   7.103   5.998  2.0085 -0.7651  0.2906
  797MOL0     H 5185   3.150   7.071   6.118 -0.5702  3.1990 -0.7749
  797MOL0     H 5186   4.118   6.713   6.235 -0.1520 -0.2511  0.8182
  797MOL0     H 5187   4.345   6.604   6.218 -1.8138 -1.2558  2.5918
  797MOL0     H 5188   4.767   6.373   6.245  3.5929  0.2151 -0.3227
  797MOL0     H 5189   4.973   6.286   6.137 -0.1166 -0.5634 -0.8950
  797MOL0     H 5190   6.548   5.520   6.716 -3.3140  0.9716  1.7968
  797MOL0     H 5191   6.774   5.460   6.808 -1.2698 -0.6709  3.4405
  797MOL0     H 5192   7.159   5.725   6.947  2.2434  3.5069  1.0403
  797MOL0     H 5193   7.391   5.729   7.021  0.1910  0.9355  0.7947
  797MOL0     H 5194   7.663   5.626   7.305 -1.5443  0.5235  2.5579
  797MOL0     H 5195   7.593   5.628   7.141 -0.2404  1.0517  0.0640
  797MOL0     H 5196   7.472   5.413   7.173  0.3725 -2.0320  0.7631
  797MOL0     H 5197   7.620   5.369   7.250 -0.7120 -1.0765 -3.0762
  797MOL0     H 5198   7.354   5.404   7.373  0.8242 -1.4245  1.2902
  797MOL0     H 5199   7.466   5.506   7.436 -0.0359  0.8415 -2.5336
  797MOL0     H 5200   7.542   5.213   7.374  2.2722 -0.7571  1.0066
  797MOL0     H 5201   7.596   5.306   7.514 -1.0475  0.5402  1.0550
  797MOL0     H 5202   7.209   5.115   7.587  0.2622 -1.8151 -1.2373
  797MOL0     H 5203   7.265   5.608   7.429  0.5362  0.9151  0.8718
  797MOL0     H 5204   7.043   5.594   7.344  1.0584 -2.3501 -0.8178
  798MOL0     O 5205   4.728  10.944   4.368  0.0534 -1.2590  0.0213
  798MOL0     C 5206   4.644  11.031   4.363 -0.4681 -0.0440  1.0048
  798MOL0     O 5207   4.662  11.156   4.410  0.2193 -0.0418 -0.0884
  798MOL0     C 5208   4.746  11.186   4.518 -0.2145  0.3694  0.3558
  798MOL0     C 5209   4.795  11.093   4.618  0.0926  0.3374 -0.0194
  798MOL0     C 5210   4.879  11.139   4.722  0.0292  0.3034 -0.5571
  798MOL0     C 5211   4.923  11.274   4.723 -0.8534 -0.0353  0.3241
  798MOL0     O 5212   5.012  11.323   4.810 -0.3111 -0.8449  0.0533
  798MOL0     C 5213   5.108  11.238   4.869  0.4892 -0.8586  0.7455
  798MOL0     C 5214   5.178  11.325   4.976  0.3024 -0.1887  0.2965
  798MOL0     C 5215   5.077  11.375   5.074 -0.2003 -0.1950  0.2614
  798MOL0     C 5216   5.148  11.406   5.209  0.5601  0.1926  0.0477
  798MOL0     C 5217   5.039  11.472   5.297 -0.4539 -0.1468 -0.5767
  798MOL0     C 5218   4.913  11.384   5.330 -0.1222 -0.2128  0.7926
  798MOL0     C 5219   4.821  11.432   5.447 -0.7911 -0.0243  0.4838
  798MOL0     C 5220   4.827  11.380   5.586 -0.6791  0.1974 -0.8676
  798MOL0     N 5221   4.960  11.412   5.643 -0.1774 -0.6245  0.6916
  798MOL0     C 5222   4.990  11.509   5.736 -0.3656  0.3854 -0.3630
  798MOL0     C 5223   5.128  11.502   5.737  0.1224 -0.0130 -0.1960
  798MOL0     C 5224   5.216  11.602   5.801  0.9464 -0.2411 -0.0796
  798MOL0     C 5225   5.193  11.610   5.956 -0.2395  0.0316  0.1152
  798MOL0     C 5226   5.215  11.470   6.021  0.1553 -1.1176  0.4676
  798MOL0     C 5227   5.251  11.475   6.165 -0.2869 -0.0071  0.2585
  798MOL0     O 5228   5.159  11.547   6.248 -0.6310 -0.2075 -0.8521
  798MOL0     C 5229   5.053  11.484   6.311  0.4092  0.0290  0.3511
  798MOL0     C 5230   5.013  11.347   6.290 -0.2544  0.2671 -0.3326
  798MOL0     C 5231   4.904  11.300   6.359  0.4784 -0.2298  0.0977
  798MOL0     C 5232   4.826  11.380   6.445 -0.4447 -0.7606 -0.0105
  798MOL0     C 5233   4.706  11.328   6.513 -0.5729 -1.1099 -0.8418
  798MOL0     O 5234   4.613  11.429   6.552 -0.4009 -0.2092  0.7543
  798MOL0     C 5235   4.522  11.400   6.649 -0.2726  1.5467 -0.7964
  798MOL0     C 5236   4.507  11.510   6.737 -0.7175 -0.0746  0.4954
  798MOL0     C 5237   4.412  11.521   6.843 -0.4452 -0.1244  0.1299
  798MOL0     C 5238   4.328  11.408   6.863  0.4779 -0.7649  0.7252
  798MOL0     O 5239   4.228  11.407   6.957  0.0741 -0.2558  1.0605
  798MOL0     C 5240   4.265  11.448   7.089  0.9188 -0.0484 -1.1321
  798MOL0     C 5241   4.157  11.375   7.188 -0.0721 -0.7443  1.2511
  798MOL0     C 5242   4.030  11.458   7.193 -0.0889 -0.1415 -0.3958
  798MOL0     C 5243   3.911  11.399   7.279 -0.6414 -0.0894 -0.6897
  798MOL0     C 5244   3.783  11.490   7.279  0.2819 -0.8685  0.0251
  798MOL0     C 5245   3.702  11.472   7.150  0.3221  0.5512 -0.4834
  798MOL0     C 5246   3.592  11.580   7.144 -0.2870  1.0391  0.6363
  798MOL0     C 5247   3.487  11.544   7.033 -0.8678 -0.0517  0.0175
  798MOL0    Cl 5248   3.399  11.688   6.989  0.2113 -0.2392 -0.0363
  798MOL0     C 5249   4.354  11.295   6.786  0.6122  0.1692 -0.4112
  798MOL0     C 5250   4.432  11.293   6.666  0.0372 -0.7649 -0.1996
  798MOL0     O 5251   4.694  11.209   6.548 -0.5261 -0.0979  0.2256
  798MOL0     C 5252   4.863  11.515   6.467 -0.0411  0.4260  0.4873
  798MOL0     C 5253   4.977  11.568   6.398  0.2342  0.1961  1.1604
  798MOL0     N 5254   5.173  11.400   5.656 -0.5481  0.3134  0.6792
  798MOL0     N 5255   5.071  11.350   5.600 -0.2069 -0.4036  0.7188
  798MOL0     C 5256   4.884  11.359   4.619  0.3554  0.3210  0.7691
  798MOL0     C 5257   4.800  11.320   4.517  0.3955  0.3715 -0.9843
  798MOL0     C 5258   4.525  10.986   4.298  0.5783  0.4137 -0.8724
  798MOL0     C 5259   4.406  11.063   4.308 -0.8965 -0.8255  0.3384
  798MOL0     C 5260   4.288  11.018   4.256 -0.1512 -0.2383 -0.6691
  798MOL0     C 5261   4.270  10.899   4.189  0.0656 -0.1260  0.4222
  798MOL0     O 5262   4.145  10.885   4.124  0.0786  0.3052 -1.1839
  798MOL0     C 5263   4.120  10.773   4.038  0.2867  0.0359 -0.1666
  798MOL0     C 5264   4.004  10.799   3.941  0.2830 -0.1113  0.3942
  798MOL0     C 5265   3.986  10.681   3.847  0.1224 -0.4469 -0.3637
  798MOL0     C 5266   3.846  10.671   3.782  0.0971  0.2654 -1.1651
  798MOL0     C 5267   3.821  10.793   3.707 -0.6319 -0.4916 -0.2094
  798MOL0     C 5268   3.805  10.911   3.673 -0.5803  0.6142  0.1845
  798MOL0     C 5269   4.378  10.813   4.186  0.1317 -0.0139 -0.9261
  798MOL0     C 5270   4.508  10.861   4.232 -0.1938 -0.1295 -0.2861
  798MOL0     H 5271   4.763  10.989   4.617 -3.1816  1.2349 -2.1492
  798MOL0     H 5272   4.913  11.067   4.795  2.4346 -1.7259 -3.4145
  798MOL0     H 5273   5.187  11.199   4.805  0.7581 -2.9304  2.2318
  798MOL0     H 5274   5.053  11.157   4.919 -2.5340  0.7930  0.3457
  798MOL0     H 5275   5.229  11.413   4.937 -4.2820  3.3303  1.4403
  798MOL0     H 5276   5.247  11.263   5.034  0.6533  0.0321  0.1174
  798MOL0     H 5277   5.004  11.296   5.092 -0.6713  0.1620 -0.0604
  798MOL0     H 5278   5.024  11.464   5.038 -0.5294 -0.4995  0.0007
  798MOL0     H 5279   5.186  11.308   5.239  1.8645  0.0331 -1.9191
  798MOL0     H 5280   5.238  11.469   5.198  1.4051 -1.3043 -2.3459
  798MOL0     H 5281   5.009  11.569   5.258  0.4430  0.7924  0.9757
  798MOL0     H 5282   5.090  11.501   5.390  0.6848  0.3989 -1.3502
  798MOL0     H 5283   4.942  11.279   5.342  1.7328  0.3712  1.7533
  798MOL0     H 5284   4.859  11.395   5.235  0.6588 -0.5365  0.2986
  798MOL0     H 5285   4.849  11.537   5.440  3.2846 -1.0037 -2.1244
  798MOL0     H 5286   4.720  11.421   5.408  0.3542 -1.3830 -2.4075
  798MOL0     H 5287   4.817  11.271   5.584  1.5113 -0.1920  2.5352
  798MOL0     H 5288   4.751  11.421   5.653 -0.6317  0.8496 -1.2013
  798MOL0     H 5289   4.932  11.587   5.785 -0.1070 -0.0832  0.7075
  798MOL0     H 5290   5.190  11.701   5.762 -1.3780  0.0511  1.9286
  798MOL0     H 5291   5.318  11.584   5.767  1.9730  5.9345 -1.3789
  798MOL0     H 5292   5.091  11.649   5.961 -0.8836 -1.2629 -1.7200
  798MOL0     H 5293   5.262  11.681   6.003 -0.3590 -1.2319  2.3231
  798MOL0     H 5294   5.119  11.416   6.022 -0.7767  0.4287  2.4647
  798MOL0     H 5295   5.286  11.404   5.970  1.1012 -1.4656  2.1507
  798MOL0     H 5296   5.345  11.529   6.175  0.4571 -1.3968  1.0905
  798MOL0     H 5297   5.281  11.377   6.202  1.6062  0.3005 -0.3749
  798MOL0     H 5298   5.066  11.271   6.233  1.9355 -1.5743  3.6971
  798MOL0     H 5299   4.882  11.195   6.340 -0.7192  0.2002 -0.9765
  798MOL0     H 5300   4.578  11.592   6.738 -1.3444  0.4738  1.0884
  798MOL0     H 5301   4.422  11.606   6.909 -1.5973 -0.0563  0.2259
  798MOL0     H 5302   4.258  11.556   7.097 -1.3667 -0.0958 -1.8907
  798MOL0     H 5303   4.370  11.428   7.111  0.8911  1.9185  1.1776
  798MOL0     H 5304   4.200  11.368   7.289 -0.5474  0.5764  1.5693
  798MOL0     H 5305   4.125  11.276   7.154 -2.3830  0.7011 -1.0926
  798MOL0     H 5306   3.981  11.455   7.096 -0.2443 -2.0002 -0.3038
  798MOL0     H 5307   4.057  11.559   7.226 -0.2463  0.5587 -2.3017
  798MOL0     H 5308   3.868  11.304   7.246 -1.4392 -0.7183  1.9289
  798MOL0     H 5309   3.941  11.385   7.383  0.7681 -1.0852 -1.1932
  798MOL0     H 5310   3.806  11.597   7.285  0.3118 -0.5853 -3.2667
  798MOL0     H 5311   3.714  11.463   7.359  1.1599  1.1490  1.5281
  798MOL0     H 5312   3.661  11.371   7.158  1.5129  0.1154  0.3356
  798MOL0     H 5313   3.772  11.480   7.067  1.8424  1.4707  0.8337
  798MOL0     H 5314   3.553  11.582   7.247 -0.3953 -1.8082  0.7324
  798MOL0     H 5315   3.633  11.679   7.122  0.2978  1.6276  3.8579
  798MOL0     H 5316   3.412  11.474   7.070 -1.0982  1.5887  2.9702
  798MOL0     H 5317   3.535  11.510   6.940  2.9598  0.5528  1.5934
  798MOL0     H 5318   4.298  11.207   6.816  0.7882  0.4395  0.7530
  798MOL0     H 5319   4.426  11.201   6.609 -1.9403 -0.6347 -0.2735
  798MOL0     H 5320   4.798  11.563   6.539 -1.2740 -0.0214 -0.3009
  798MOL0     H 5321   5.000  11.674   6.411 -0.9131  0.4008  1.6142
  798MOL0     H 5322   4.910  11.464   4.608  1.8692 -0.2515 -2.2696
  798MOL0     H 5323   4.769  11.383   4.434  0.4940  2.3205  0.4025
  798MOL0     H 5324   4.402  11.163   4.349  0.2159 -0.4048 -0.5222
  798MOL0     H 5325   4.202  11.084   4.259 -0.2893 -0.4524  0.4503
  798MOL0     H 5326   4.080  10.689   4.096 -0.3079 -0.4613 -1.2730
  798MOL0     H 5327   4.205  10.739   3.978  2.8322 -0.3590  3.3463
  798MOL0     H 5328   3.909  10.813   3.993 -0.6527 -0.7194 -1.0717
  798MOL0     H 5329   4.025  10.889   3.882 -0.3630  0.2606  0.7224
  798MOL0     H 5330   4.015  10.585   3.891 -1.2135 -1.5474 -1.7557
  798MOL0     H 5331   4.056  10.691   3.763  1.5366  1.8386  0.9804
  798MOL0     H 5332   3.839  10.588   3.712 -0.0082 -1.1357  0.4412
  798MOL0     H 5333   3.772  10.648   3.860  2.5914 -1.0737  0.9748
  798MOL0     H 5334   3.772  11.005   3.633 -1.1469  0.3277 -0.0364
  798MOL0     H 5335   4.364  10.710   4.154  0.3884 -1.7478  3.7055
  798MOL0     H 5336   4.593  10.795   4.218 -1.4149 -1.4936 -1.5731
  799MOL0     O 5337   5.668   3.782   4.181 -0.2911  0.2001 -0.0028
  799MOL0     C 5338   5.748   3.745   4.094 -0.0520  0.7118 -0.6004
  799MOL0     O 5339   5.722   3.640   4.017 -0.0827  0.9550  0.2144
  799MOL0     C 5340   5.616   3.556   4.018 -0.3640 -0.6944  0.0009
  799MOL0     C 5341   5.513   3.554   4.112  0.0565 -0.4846  0.0069
  799MOL0     C 5342   5.417   3.458   4.123  1.2101  0.6123  0.2771
  799MOL0     C 5343   5.412   3.356   4.027 -0.0638 -0.8217 -0.0314
  799MOL0     O 5344   5.319   3.258   4.042 -0.1657 -0.5682  0.1055
  799MOL0     C 5345   5.333   3.141   3.960  0.2906  0.0826  1.0997
  799MOL0     C 5346   5.224   3.036   3.992  0.2325  0.1187  0.0590
  799MOL0     C 5347   5.205   2.982   4.126 -0.8572 -0.1646 -0.5277
  799MOL0     C 5348   5.063   2.915   4.123  0.4555 -0.4933 -0.2065
  799MOL0     C 5349   5.020   2.870   4.267 -0.6611 -0.4087  0.9909
  799MOL0     C 5350   5.048   2.720   4.292  0.4170 -0.1696  0.1441
  799MOL0     C 5351   5.066   2.689   4.441 -0.3294 -0.2605  0.1057
  799MOL0     C 5352   4.932   2.716   4.516  0.1529 -0.9869 -0.5661
  799MOL0     N 5353   4.908   2.633   4.628 -0.0388 -0.4782  0.2551
  799MOL0     C 5354   4.939   2.668   4.758  0.1575 -0.2952  0.3225
  799MOL0     C 5355   4.874   2.570   4.838 -0.0670 -0.1320  1.0373
  799MOL0     C 5356   4.876   2.560   4.988 -0.2153  0.5930 -0.0063
  799MOL0     C 5357   5.009   2.542   5.058 -0.0771  0.6046  0.6243
  799MOL0     C 5358   4.992   2.505   5.216 -0.4326 -0.0375  0.1783
  799MOL0     C 5359   5.118   2.544   5.287 -0.8523 -0.3055  0.3608
  799MOL0     O 5360   5.114   2.690   5.293 -0.1818 -0.1285  0.2772
  799MOL0     C 5361   5.232   2.751   5.294 -0.6471 -0.5791  0.3815
  799MOL0     C 5362   5.340   2.728   5.384  0.8272  0.5001  0.0896
  799MOL0     C 5363   5.457   2.801   5.380  0.2963  0.2205 -0.1404
  799MOL0     C 5364   5.478   2.910   5.298  0.7165  0.0624  0.5901
  799MOL0     C 5365   5.595   2.994   5.312  1.3988 -0.0321  1.0858
  799MOL0     O 5366   5.673   2.980   5.421  0.4663 -0.0676 -0.1281
  799MOL0     C 5367   5.768   3.070   5.448  0.5666 -0.0592 -0.3894
  799MOL0     C 5368   5.745   3.202   5.488 -0.0228  0.4124 -0.4699
  799MOL0     C 5369   5.854   3.286   5.535  0.0297  0.0686 -0.0992
  799MOL0     C 5370   5.984   3.237   5.538 -0.1168 -0.6117  0.0167
  799MOL0     O 5371   6.079   3.335   5.560  0.3897  0.5389 -0.1068
  799MOL0     C 5372   6.159   3.312   5.675 -0.2797  0.1076 -0.0229
  799MOL0     C 5373   6.249   3.431   5.692 -0.9661  0.0784  0.2298
  799MOL0     C 5374   6.188   3.569   5.722  0.3321  0.1324 -0.5565
  799MOL0     C 5375   6.110   3.572   5.857  0.7595 -0.1347  0.2007
  799MOL0     C 5376   6.083   3.712   5.919 -0.3995 -0.4766  0.2087
  799MOL0     C 5377   6.001   3.801   5.832 -0.0971  0.5737  0.1266
  799MOL0     C 5378   6.014   3.952   5.882 -0.0595  0.5198  0.3506
  799MOL0     C 5379   5.991   3.969   6.040  0.8577  0.8023  0.7888
  799MOL0    Cl 5380   6.004   4.139   6.083 -0.1299  0.5589 -0.0250
  799MOL0     C 5381   6.006   3.106   5.499  0.3736 -0.3614  0.2530
  799MOL0     C 5382   5.903   3.028   5.456  0.3024  0.3693  0.1523
  799MOL0     O 5383   5.620   3.067   5.207  0.6358  0.6885  0.1280
  799MOL0     C 5384   5.370   2.945   5.205  0.5574 -0.2261 -0.2395
  799MOL0     C 5385   5.247   2.863   5.199 -0.0527  0.7162  0.1741
  799MOL0     N 5386   4.818   2.471   4.755 -0.3435  0.2718 -0.2465
  799MOL0     N 5387   4.850   2.508   4.629 -0.1388  0.5846  0.2952
  799MOL0     C 5388   5.510   3.354   3.924 -1.3153 -0.1055  0.2372
  799MOL0     C 5389   5.607   3.462   3.916 -0.6154  0.8521 -1.3413
  799MOL0     C 5390   5.881   3.819   4.063 -0.3919  1.0369 -0.0232
  799MOL0     C 5391   5.926   3.789   3.930 -1.8927 -0.7745  0.1196
  799MOL0     C 5392   6.045   3.852   3.901  0.8829  0.1538 -0.1123
  799MOL0     C 5393   6.119   3.939   3.979 -0.0519 -0.9915 -0.8158
  799MOL0     O 5394   6.242   3.973   3.930  0.1364 -0.5160  0.5895
  799MOL0     C 5395   6.283   4.113   3.948 -0.6455 -0.7158 -0.3481
  799MOL0     C 5396   6.184   4.202   3.871 -0.7708  0.2106 -0.3743
  799MOL0     C 5397   6.226   4.356   3.845 -0.1573  0.2377 -0.4862
  799MOL0     C 5398   6.363   4.375   3.771 -0.1787 -0.0593 -0.1696
  799MOL0     C 5399   6.415   4.499   3.826  0.1741 -0.4506 -0.2912
  799MOL0     C 5400   6.461   4.611   3.862  0.1734 -0.9220 -0.0967
  799MOL0     C 5401   6.059   3.977   4.100  0.1963  0.5218  0.6014
  799MOL0     C 5402   5.948   3.917   4.146 -0.6212  0.2643  0.6305
  799MOL0     H 5403   5.515   3.615   4.201 -0.2096  0.2293 -0.4705
  799MOL0     H 5404   5.343   3.464   4.202  1.0669 -0.9933  0.3028
  799MOL0     H 5405   5.430   3.093   3.975  0.3461 -0.3386 -0.4902
  799MOL0     H 5406   5.319   3.178   3.858 -0.4477 -2.3103  0.2468
  799MOL0     H 5407   5.243   2.949   3.929  0.4833  0.1220  0.1301
  799MOL0     H 5408   5.142   3.091   3.944  0.2785  0.9835  0.9269
  799MOL0     H 5409   5.195   3.068   4.193 -1.3684  1.0963 -2.1638
  799MOL0     H 5410   5.283   2.911   4.158 -0.3951 -1.4883 -4.1672
  799MOL0     H 5411   4.987   2.982   4.082  0.5937 -0.2193 -0.0214
  799MOL0     H 5412   5.075   2.824   4.065 -1.9984 -3.3803  3.3627
  799MOL0     H 5413   4.911   2.880   4.265 -0.5578  0.8080  1.0530
  799MOL0     H 5414   5.067   2.940   4.337  0.7640 -0.7986  0.4609
  799MOL0     H 5415   5.142   2.697   4.241 -0.2034  0.4354 -1.3302
  799MOL0     H 5416   4.971   2.652   4.257  2.5709 -1.4751 -2.4591
  799MOL0     H 5417   5.089   2.583   4.450 -3.7671 -1.1966 -0.6089
  799MOL0     H 5418   5.148   2.741   4.491 -0.4155  0.4203 -0.4402
  799MOL0     H 5419   4.847   2.713   4.448 -0.5562  1.1387  0.1315
  799MOL0     H 5420   4.934   2.817   4.559 -3.9481 -2.1008  2.8588
  799MOL0     H 5421   5.000   2.754   4.784 -2.9072  2.0159  0.4678
  799MOL0     H 5422   4.819   2.470   5.012 -2.2528  1.1937 -2.2399
  799MOL0     H 5423   4.819   2.644   5.031 -0.2306  1.4625 -1.6523
  799MOL0     H 5424   5.054   2.641   5.064  0.2888  0.3298  4.3296
  799MOL0     H 5425   5.063   2.466   5.001 -0.0181  1.3631 -0.3545
  799MOL0     H 5426   4.912   2.563   5.262 -2.7767 -2.0045 -1.1959
  799MOL0     H 5427   4.973   2.398   5.230 -2.6661  0.1899 -0.6545
  799MOL0     H 5428   5.209   2.508   5.237 -0.2664  0.5550  0.7799
  799MOL0     H 5429   5.127   2.504   5.388  2.9010  0.7006  0.5774
  799MOL0     H 5430   5.320   2.642   5.448 -1.2040  1.1321  0.3630
  799MOL0     H 5431   5.544   2.775   5.439  0.6441 -0.7495 -1.0441
  799MOL0     H 5432   5.649   3.254   5.487  0.6842  2.0079  2.3718
  799MOL0     H 5433   5.834   3.387   5.568 -4.7009 -0.5640 -0.4022
  799MOL0     H 5434   6.220   3.221   5.665  0.0555  0.2449  0.6961
  799MOL0     H 5435   6.097   3.295   5.763 -1.6538  2.6060 -0.3990
  799MOL0     H 5436   6.302   3.438   5.596 -1.2004 -2.3031 -0.1301
  799MOL0     H 5437   6.323   3.415   5.771  1.4879  1.4947 -1.6093
  799MOL0     H 5438   6.116   3.596   5.644  1.0673  0.3120 -1.1877
  799MOL0     H 5439   6.269   3.641   5.723  1.1516 -0.7228  2.0824
  799MOL0     H 5440   6.015   3.524   5.831  1.4845 -2.0893  0.9862
  799MOL0     H 5441   6.166   3.514   5.930  0.0350 -1.5559 -0.3493
  799MOL0     H 5442   6.182   3.759   5.932  0.7661 -2.8055  0.2119
  799MOL0     H 5443   6.043   3.700   6.019 -1.8295 -2.5327 -0.5645
  799MOL0     H 5444   5.896   3.780   5.858  0.7456  1.6981  5.8683
  799MOL0     H 5445   6.005   3.789   5.724 -0.9184  1.2529  0.0066
  799MOL0     H 5446   6.113   3.991   5.860 -0.3029 -0.4049 -2.7812
  799MOL0     H 5447   5.948   4.012   5.818  1.1539 -0.0058 -1.4702
  799MOL0     H 5448   6.054   3.905   6.102  0.9312  1.0791  1.0038
  799MOL0     H 5449   5.887   3.953   6.069  0.5651  5.4186  3.2493
  799MOL0     H 5450   6.098   3.048   5.496 -0.7676 -2.2010 -2.2025
  799MOL0     H 5451   5.925   2.925   5.430 -1.7059  0.1035 -0.7060
  799MOL0     H 5452   5.396   3.037   5.152  1.6860  0.9468  2.1806
  799MOL0     H 5453   5.171   2.907   5.136 -1.2734  1.0474  1.8161
  799MOL0     H 5454   5.513   3.279   3.846 -0.6468  1.3715 -1.2065
  799MOL0     H 5455   5.684   3.463   3.839 -0.2475 -1.5212 -1.0848
  799MOL0     H 5456   5.867   3.733   3.858 -1.8523 -0.0171 -0.5092
  799MOL0     H 5457   6.084   3.824   3.804  1.8220  0.7971  0.0691
  799MOL0     H 5458   6.387   4.118   3.916  0.5721  1.7136  3.2949
  799MOL0     H 5459   6.279   4.142   4.054  1.1641 -0.0014 -0.4549
  799MOL0     H 5460   6.154   4.149   3.780  1.0065  3.4118 -3.0182
  799MOL0     H 5461   6.100   4.213   3.940 -2.1289  0.4629 -1.9873
  799MOL0     H 5462   6.224   4.394   3.947  0.9292 -1.4110  0.1923
  799MOL0     H 5463   6.147   4.410   3.792  1.4103  0.9396 -2.2301
  799MOL0     H 5464   6.444   4.304   3.793 -0.2917 -0.1855 -0.1591
  799MOL0     H 5465   6.349   4.364   3.663 -2.4027  0.7076  0.0125
  799MOL0     H 5466   6.499   4.703   3.902  1.5076 -1.9706  1.1713
  799MOL0     H 5467   6.101   4.047   4.171  1.3989 -3.6632  4.5214
  799MOL0     H 5468   5.908   3.945   4.243  1.4832 -0.3648  1.7469
  800MOL0     O 5469   7.846  10.619   2.502 -0.0768  0.2231  0.1200
  800MOL0     C 5470   7.962  10.591   2.478  0.2447 -0.1347 -0.5304
  800MOL0     O 5471   8.005  10.478   2.419 -0.2999  0.1463  0.2174
  800MOL0     C 5472   7.907  10.374   2.407 -0.1496  0.3238  0.2996
  800MOL0     C 5473   7.901  10.269   2.497  0.2283 -0.6565 -0.5162
  800MOL0     C 5474   7.798  10.178   2.497  0.1812 -0.5283 -1.1135
  800MOL0     C 5475   7.705  10.178   2.387  0.1118  0.0314 -0.8257
  800MOL0     O 5476   7.603  10.095   2.365  0.8026 -0.5355 -0.4785
  800MOL0     C 5477   7.565   9.992   2.455 -0.6181 -0.1089 -0.8199
  800MOL0     C 5478   7.420   9.951   2.425 -0.3471  0.1399 -0.1594
  800MOL0     C 5479   7.318  10.051   2.482 -0.4081  0.4993  0.4740
  800MOL0     C 5480   7.170  10.022   2.445 -0.6167 -0.1903 -0.0210
  800MOL0     C 5481   7.079  10.123   2.497 -0.5867 -0.1316 -0.0816
  800MOL0     C 5482   6.936  10.110   2.431  0.6009 -0.4294 -0.8124
  800MOL0     C 5483   6.837  10.178   2.515  0.0033  0.0130 -0.5710
  800MOL0     C 5484   6.690  10.172   2.466 -1.1526 -0.9919 -0.1236
  800MOL0     N 5485   6.646  10.246   2.353 -1.2064 -0.4863  0.0469
  800MOL0     C 5486   6.529  10.211   2.280 -0.2240 -0.2419 -0.1821
  800MOL0     C 5487   6.496  10.331   2.223 -0.6268 -0.1655  0.0612
  800MOL0     C 5488   6.381  10.337   2.129 -1.3441 -0.3621 -0.8372
  800MOL0     C 5489   6.269  10.441   2.165 -0.7184  0.0185 -0.2822
  800MOL0     C 5490   6.198  10.432   2.302 -0.0101 -0.2119 -0.8741
  800MOL0     C 5491   6.079  10.541   2.308  0.6272 -0.9654 -0.8210
  800MOL0     O 5492   5.998  10.537   2.191 -0.0323 -0.6534  0.2438
  800MOL0     C 5493   5.861  10.572   2.191 -0.1554  0.4324  0.2007
  800MOL0     C 5494   5.780  10.546   2.083  0.7405  0.0389  0.5505
  800MOL0     C 5495   5.647  10.588   2.074  0.3553 -0.1249 -0.0569
  800MOL0     C 5496   5.584  10.642   2.190 -0.4327  0.1692 -0.0073
  800MOL0     C 5497   5.440  10.687   2.175  0.1705  0.2719  0.1283
  800MOL0     O 5498   5.372  10.706   2.291  0.5138  0.1001 -0.1965
  800MOL0     C 5499   5.257  10.784   2.285 -1.1028  0.7740 -0.0065
  800MOL0     C 5500   5.155  10.749   2.195 -0.2527 -0.7928 -0.2991
  800MOL0     C 5501   5.030  10.817   2.204 -0.5701 -0.2426  0.5570
  800MOL0     C 5502   5.011  10.920   2.302 -0.9672 -0.9827  0.4950
  800MOL0     O 5503   4.902  10.996   2.315  0.0785  0.3554 -0.1232
  800MOL0     C 5504   4.772  10.930   2.293 -0.4528  0.5939 -0.0450
  800MOL0     C 5505   4.649  11.031   2.290  0.3295  0.2435 -0.2358
  800MOL0     C 5506   4.521  10.953   2.288  0.2476 -0.9881 -0.1448
  800MOL0     C 5507   4.509  10.871   2.409  0.1107  0.8071  0.1461
  800MOL0     C 5508   4.367  10.828   2.442  0.1132 -0.1012  0.3673
  800MOL0     C 5509   4.365  10.702   2.534 -0.1444  0.0357  0.1573
  800MOL0     C 5510   4.453  10.713   2.662 -0.6554 -0.6974  0.7154
  800MOL0     C 5511   4.429  10.602   2.767 -1.0299  0.1423 -0.0358
  800MOL0    Cl 5512   4.515  10.664   2.920  0.2096 -0.3407  0.3075
  800MOL0     C 5513   5.120  10.953   2.382  0.5995  0.2649  0.3133
  800MOL0     C 5514   5.238  10.879   2.374 -0.5656  0.0120  0.1874
  800MOL0     O 5515   5.403  10.723   2.057  0.3421 -0.0921 -0.4616
  800MOL0     C 5516   5.658  10.656   2.310  0.2697 -0.2592  0.5100
  800MOL0     C 5517   5.797  10.623   2.311 -0.6942 -1.2786  0.7891
  800MOL0     N 5518   6.587  10.428   2.270 -0.3624 -0.3459  0.2161
  800MOL0     N 5519   6.675  10.378   2.335  0.4695  0.2638  0.1170
  800MOL0     C 5520   7.707  10.275   2.288 -0.0997 -1.6539 -0.9320
  800MOL0     C 5521   7.811  10.381   2.294 -0.1716  0.9030 -0.3953
  800MOL0     C 5522   8.058  10.691   2.514 -0.1430  0.6192 -0.2727
  800MOL0     C 5523   8.192  10.665   2.519  0.2016  1.0499 -0.5248
  800MOL0     C 5524   8.289  10.757   2.567 -0.1588 -0.4730  0.2936
  800MOL0     C 5525   8.251  10.885   2.608 -0.0772  0.9590  0.3203
  800MOL0     O 5526   8.330  10.982   2.651 -0.0225  0.5253  0.2929
  800MOL0     C 5527   8.469  10.982   2.603 -0.2451 -0.4190  0.2553
  800MOL0     C 5528   8.556  11.079   2.672  1.2659 -0.5478  0.3744
  800MOL0     C 5529   8.698  11.064   2.609  0.0695 -0.2886  0.8251
  800MOL0     C 5530   8.793  11.164   2.686  0.9054  0.9508  0.4788
  800MOL0     C 5531   8.924  11.144   2.633  0.2911  0.9472 -0.4457
  800MOL0     C 5532   9.030  11.136   2.582 -0.1295 -0.2777  0.3063
  800MOL0     C 5533   8.110  10.922   2.595 -0.7680  0.3150 -0.3958
  800MOL0     C 5534   8.024  10.815   2.558  0.2510  0.2850  0.2140
  800MOL0     H 5535   7.964  10.265   2.585  1.9367 -0.2089 -1.6556
  800MOL0     H 5536   7.797  10.106   2.578  0.7695  0.2114 -0.4424
  800MOL0     H 5537   7.572  10.028   2.558  0.9229 -1.2716 -0.4847
  800MOL0     H 5538   7.628   9.904   2.440  0.2899  0.4620 -0.4131
  800MOL0     H 5539   7.406   9.861   2.486 -1.1661  1.5368  1.8379
  800MOL0     H 5540   7.405   9.929   2.319  1.2702 -1.1177 -0.1732
  800MOL0     H 5541   7.337  10.156   2.458  0.2478  0.8474  2.4057
  800MOL0     H 5542   7.322  10.042   2.590 -2.8805  1.5003  0.7088
  800MOL0     H 5543   7.157  10.008   2.338  0.6337 -1.7922 -0.0073
  800MOL0     H 5544   7.156   9.927   2.498 -2.1914  0.6474  1.1296
  800MOL0     H 5545   7.118  10.221   2.469  1.7241 -1.5969 -2.4698
  800MOL0     H 5546   7.075  10.125   2.607 -0.2061  0.0889 -0.0699
  800MOL0     H 5547   6.911  10.004   2.425  0.1995 -0.4184  0.3969
  800MOL0     H 5548   6.942  10.149   2.329  1.3951 -0.5212 -0.8139
  800MOL0     H 5549   6.831  10.151   2.621 -4.1288  1.4658 -0.2640
  800MOL0     H 5550   6.863  10.284   2.524  1.9639 -0.4972  0.5738
  800MOL0     H 5551   6.634  10.205   2.553  2.4195  3.4249  0.8569
  800MOL0     H 5552   6.667  10.067   2.441 -2.5559 -1.1407  1.5661
  800MOL0     H 5553   6.484  10.113   2.271  2.1657 -1.4417  0.1103
  800MOL0     H 5554   6.347  10.233   2.126 -1.3090 -0.8403  4.4412
  800MOL0     H 5555   6.433  10.371   2.039 -0.6880  1.4015  0.1421
  800MOL0     H 5556   6.192  10.426   2.089  0.3619  3.9058 -2.4060
  800MOL0     H 5557   6.319  10.537   2.153  4.3550 -2.0890  1.3827
  800MOL0     H 5558   6.143  10.341   2.325  0.6955 -0.7966 -1.4583
  800MOL0     H 5559   6.266  10.449   2.385  0.3024 -1.2701 -0.9075
  800MOL0     H 5560   6.127  10.638   2.327 -0.2800 -0.8726  1.3241
  800MOL0     H 5561   6.022  10.517   2.398  1.2633 -1.8207 -0.6337
  800MOL0     H 5562   5.834  10.508   1.997 -0.8412  2.8666 -1.9043
  800MOL0     H 5563   5.586  10.576   1.985  0.5366 -1.6110 -0.0000
  800MOL0     H 5564   5.160  10.671   2.119  0.4708 -0.7558 -0.2917
  800MOL0     H 5565   4.953  10.787   2.134  0.1406 -0.4583 -0.1441
  800MOL0     H 5566   4.762  10.859   2.376  0.6609 -0.9926 -1.2182
  800MOL0     H 5567   4.785  10.871   2.203  1.3960  0.0891  0.5275
  800MOL0     H 5568   4.661  11.104   2.209  1.1820  1.2452  0.7649
  800MOL0     H 5569   4.637  11.092   2.380 -1.8241  0.8382 -0.8554
  800MOL0     H 5570   4.525  10.891   2.197  0.4908 -1.1845 -0.0015
  800MOL0     H 5571   4.436  11.019   2.271  0.4831 -0.1076  1.8767
  800MOL0     H 5572   4.567  10.779   2.405 -3.5427 -1.6479 -1.4220
  800MOL0     H 5573   4.542  10.939   2.489  0.2769  1.3338 -0.3558
  800MOL0     H 5574   4.303  10.819   2.354 -1.4605  3.1592  1.0222
  800MOL0     H 5575   4.306  10.902   2.494 -1.3156  0.0647 -1.4347
  800MOL0     H 5576   4.410  10.623   2.473  0.3879  0.9667 -0.6907
  800MOL0     H 5577   4.264  10.675   2.566 -0.9278  1.2730 -1.1434
  800MOL0     H 5578   4.560  10.709   2.637 -0.8506  1.0689 -0.6429
  800MOL0     H 5579   4.440  10.817   2.694 -2.2249 -0.7508  0.3302
  800MOL0     H 5580   4.460  10.506   2.723 -3.1179  0.1841 -1.7646
  800MOL0     H 5581   4.326  10.586   2.799 -1.4704  0.7890 -1.0905
  800MOL0     H 5582   5.104  11.036   2.449 -0.7321  0.7202 -0.5336
  800MOL0     H 5583   5.312  10.903   2.449 -0.1588 -1.0564  0.1502
  800MOL0     H 5584   5.610  10.700   2.396 -1.5000  0.6578 -0.8888
  800MOL0     H 5585   5.845  10.630   2.408  0.2211 -0.5349  0.3046
  800MOL0     H 5586   7.640  10.282   2.202 -1.0709 -3.5207 -0.3882
  800MOL0     H 5587   7.814  10.459   2.218  0.6460  1.0203 -0.2580
  800MOL0     H 5588   8.235  10.577   2.471 -2.3179  0.3391 -1.6261
  800MOL0     H 5589   8.389  10.715   2.561  0.2691  0.7639 -2.0185
  800MOL0     H 5590   8.452  11.000   2.497 -2.1787  1.7728  0.8214
  800MOL0     H 5591   8.513  10.883   2.618 -2.7247 -1.6358  0.0361
  800MOL0     H 5592   8.512  11.177   2.653 -0.9929 -0.9722  2.8242
  800MOL0     H 5593   8.559  11.069   2.781  0.6504  1.0368  0.5682
  800MOL0     H 5594   8.703  11.088   2.502  1.7296 -1.1462  0.6845
  800MOL0     H 5595   8.740  10.965   2.626  0.2242  0.1351  3.4625
  800MOL0     H 5596   8.762  11.266   2.663  0.5228  0.2278 -2.7875
  800MOL0     H 5597   8.784  11.141   2.792 -0.0006  0.5073  0.3138
  800MOL0     H 5598   9.129  11.129   2.541 -0.0592  1.6368  0.0398
  800MOL0     H 5599   8.058  11.015   2.618 -1.7569  0.5195 -3.0633
  800MOL0     H 5600   7.920  10.848   2.559 -1.3142 -3.6666 -3.4584
  801MOL0     O 5601   1.624  10.814   6.176  1.0255  0.1472 -0.6254
  801MOL0     C 5602   1.611  10.700   6.210 -0.3376  0.6702 -1.1211
  801MOL0     O 5603   1.697  10.593   6.185 -0.2522  0.7828  1.2592
  801MOL0     C 5604   1.817  10.613   6.134 -0.5789 -0.7110 -0.3159
  801MOL0     C 5605   1.876  10.520   6.051 -0.4361 -0.0054 -0.5829
  801MOL0     C 5606   2.003  10.530   5.996 -0.1033 -1.0123 -1.4566
  801MOL0     C 5607   2.087  10.630   6.044  0.1501 -0.3244  0.8156
  801MOL0     O 5608   2.216  10.628   5.995  1.1115 -0.0618  0.0134
  801MOL0     C 5609   2.305  10.731   6.022 -0.3424 -0.0317  0.7586
  801MOL0     C 5610   2.441  10.701   5.948  1.0193  0.0925  0.1081
  801MOL0     C 5611   2.436  10.668   5.807  0.7855 -0.9493  0.1078
  801MOL0     C 5612   2.566  10.608   5.772 -0.1646 -0.1961  0.0042
  801MOL0     C 5613   2.575  10.567   5.624  0.6906 -0.1733 -0.1460
  801MOL0     C 5614   2.457  10.466   5.579  0.3463  0.1101  1.4341
  801MOL0     C 5615   2.486  10.427   5.441  0.8534 -1.3136  0.0838
  801MOL0     C 5616   2.601  10.321   5.423  1.4658 -0.0432 -0.8794
  801MOL0     N 5617   2.718  10.385   5.368 -0.1546 -0.3474  0.4271
  801MOL0     C 5618   2.841  10.352   5.423  1.3433  0.1137 -0.2136
  801MOL0     C 5619   2.924  10.417   5.337 -0.1981  0.3505  0.5310
  801MOL0     C 5620   3.072  10.393   5.324  1.5608  0.0161 -0.3264
  801MOL0     C 5621   3.104  10.243   5.291  0.2633  0.4529  0.5746
  801MOL0     C 5622   3.052  10.196   5.142 -0.2578 -0.1504 -0.3042
  801MOL0     C 5623   2.902  10.136   5.141 -0.1675 -0.3456 -0.6789
  801MOL0     O 5624   2.875  10.072   5.268 -0.1481  0.6697  0.0321
  801MOL0     C 5625   2.762   9.996   5.270 -0.3959  0.2945 -0.8272
  801MOL0     C 5626   2.652  10.002   5.184 -0.1348  0.3614  0.5282
  801MOL0     C 5627   2.542   9.928   5.218  0.4202  0.3139 -0.5565
  801MOL0     C 5628   2.543   9.851   5.333 -0.8660 -0.5898  1.1207
  801MOL0     C 5629   2.433   9.769   5.366  1.5906 -0.4527 -0.4649
  801MOL0     O 5630   2.311   9.803   5.320 -0.3837 -0.1023 -0.5479
  801MOL0     C 5631   2.205   9.722   5.361 -0.5751  1.1712 -0.1443
  801MOL0     C 5632   2.176   9.598   5.303  0.0119  0.9255 -0.0097
  801MOL0     C 5633   2.053   9.535   5.345  0.7375 -0.7767  1.2069
  801MOL0     C 5634   1.970   9.577   5.447 -0.8202  0.1125  0.1595
  801MOL0     O 5635   1.859   9.515   5.494  0.3971  0.8161  0.4608
  801MOL0     C 5636   1.858   9.368   5.478  0.1424  0.4856  0.3688
  801MOL0     C 5637   1.735   9.310   5.549 -0.8079  0.5297 -0.2279
  801MOL0     C 5638   1.615   9.370   5.488  0.8314  0.1442  0.2313
  801MOL0     C 5639   1.492   9.299   5.553  0.2679  0.5170  0.5242
  801MOL0     C 5640   1.363   9.356   5.490 -0.1656 -0.1069 -1.2313
  801MOL0     C 5641   1.324   9.495   5.548  0.0779 -0.0304  0.7121
  801MOL0     C 5642   1.192   9.558   5.501 -0.7219  0.0355 -0.4242
  801MOL0     C 5643   1.079   9.455   5.478  0.1178 -0.2070 -0.5637
  801MOL0    Cl 5644   0.918   9.533   5.483  0.3766 -0.0294 -0.3202
  801MOL0     C 5645   2.013   9.699   5.506 -0.4555  0.2910  0.7160
  801MOL0     C 5646   2.125   9.770   5.462 -0.7294 -0.1097 -0.0827
  801MOL0     O 5647   2.449   9.679   5.449 -0.3873  0.3271 -0.8987
  801MOL0     C 5648   2.650   9.856   5.413 -0.0166  0.6814 -0.0994
  801MOL0     C 5649   2.763   9.926   5.387 -1.1557 -0.2910 -0.3944
  801MOL0     N 5650   2.851  10.482   5.241  0.2950 -0.0341  0.4717
  801MOL0     N 5651   2.728  10.466   5.256 -0.8067 -0.1031 -0.3149
  801MOL0     C 5652   2.037  10.720   6.134  0.5601 -0.3971 -0.2559
  801MOL0     C 5653   1.898  10.719   6.170 -0.7459 -0.5857 -0.2929
  801MOL0     C 5654   1.498  10.674   6.304  0.0144  0.2119  0.5060
  801MOL0     C 5655   1.366  10.715   6.261 -1.3109 -0.0150  0.2523
  801MOL0     C 5656   1.261  10.688   6.347  0.2193  0.7106  0.1581
  801MOL0     C 5657   1.289  10.641   6.473 -1.1259  0.1358  0.8434
  801MOL0     O 5658   1.205  10.605   6.575  0.1518 -0.4342  0.0496
  801MOL0     C 5659   1.073  10.644   6.576  0.2160 -0.1801 -0.3259
  801MOL0     C 5660   1.036  10.681   6.721  0.3028  0.9197  0.6958
  801MOL0     C 5661   0.885  10.692   6.758  1.1499 -0.0344  0.1001
  801MOL0     C 5662   0.875  10.690   6.916 -0.8794 -0.0185 -0.4152
  801MOL0     C 5663   0.745  10.719   6.992 -0.3491  0.3265 -0.6207
  801MOL0     C 5664   0.647  10.731   7.066 -0.2437  0.4448 -0.0110
  801MOL0     C 5665   1.417  10.605   6.509 -0.4306  0.6656 -0.6699
  801MOL0     C 5666   1.522  10.612   6.422 -0.7540 -0.1313  0.9623
  801MOL0     H 5667   1.824  10.425   6.042  2.0015 -1.4145 -0.6300
  801MOL0     H 5668   2.047  10.449   5.939  0.2422 -1.2783 -0.8139
  801MOL0     H 5669   2.322  10.735   6.130 -0.9923  2.6711  0.8162
  801MOL0     H 5670   2.275  10.831   5.992 -0.0756 -0.1594  0.0415
  801MOL0     H 5671   2.479  10.617   6.007 -0.6452 -1.4501 -0.9417
  801MOL0     H 5672   2.516  10.779   5.965 -0.2887  1.7573 -1.4750
  801MOL0     H 5673   2.409  10.762   5.759  2.0700 -0.8563 -0.4877
  801MOL0     H 5674   2.353  10.601   5.784 -1.1506  1.4575 -0.2332
  801MOL0     H 5675   2.653  10.673   5.783 -0.5429  0.3914 -0.4150
  801MOL0     H 5676   2.587  10.523   5.837 -3.2440 -1.0068  0.1209
  801MOL0     H 5677   2.669  10.518   5.597  1.6482  1.7666 -0.4439
  801MOL0     H 5678   2.571  10.651   5.554 -3.8141 -1.4073 -1.7123
  801MOL0     H 5679   2.357  10.509   5.590  0.0158 -0.4734  0.7928
  801MOL0     H 5680   2.450  10.376   5.642 -5.1495 -0.8556 -0.0547
  801MOL0     H 5681   2.401  10.390   5.382  1.0040 -0.9062 -0.3968
  801MOL0     H 5682   2.510  10.523   5.395 -1.5046 -0.3326  0.7954
  801MOL0     H 5683   2.568  10.258   5.340  0.5347 -0.7873  0.0347
  801MOL0     H 5684   2.604  10.256   5.510 -4.8266 -1.4708 -1.2410
  801MOL0     H 5685   2.866  10.284   5.504 -0.2469 -1.4991 -0.9846
  801MOL0     H 5686   3.099  10.444   5.417  1.7045 -1.5356  0.5207
  801MOL0     H 5687   3.112  10.452   5.242 -2.5393  1.1446 -1.7361
  801MOL0     H 5688   3.064  10.164   5.355  1.3518 -0.0690  0.6340
  801MOL0     H 5689   3.212  10.240   5.309  0.5511  1.7121 -0.7473
  801MOL0     H 5690   3.041  10.284   5.079 -0.3982 -0.4812 -0.7411
  801MOL0     H 5691   3.119  10.130   5.087 -0.3742  1.1459 -2.0777
  801MOL0     H 5692   2.889  10.077   5.050  0.3436  0.0791 -1.0332
  801MOL0     H 5693   2.837  10.222   5.122  1.5390  1.7604  2.1318
  801MOL0     H 5694   2.635  10.061   5.094 -1.6469 -1.2430 -0.2959
  801MOL0     H 5695   2.457   9.945   5.153 -0.1164  0.1940  0.1083
  801MOL0     H 5696   2.241   9.566   5.222  0.7362  1.4842  0.3415
  801MOL0     H 5697   2.021   9.450   5.286  0.4949  1.5262 -2.3028
  801MOL0     H 5698   1.944   9.315   5.519 -0.4563  0.3334  1.4755
  801MOL0     H 5699   1.849   9.347   5.371 -1.7684  1.5344  0.2697
  801MOL0     H 5700   1.741   9.333   5.655  2.5476  0.6915 -0.3624
  801MOL0     H 5701   1.730   9.204   5.523 -1.4759  0.5686 -0.2840
  801MOL0     H 5702   1.607   9.353   5.381  1.7866 -3.7466  0.6080
  801MOL0     H 5703   1.607   9.477   5.511 -0.4837 -0.3012  2.1581
  801MOL0     H 5704   1.509   9.193   5.533  1.1328  0.2381  2.5299
  801MOL0     H 5705   1.484   9.299   5.662 -2.5739 -3.4892  0.5214
  801MOL0     H 5706   1.274   9.293   5.485 -1.5964  1.6382  0.3998
  801MOL0     H 5707   1.374   9.376   5.383 -0.4830  0.4859 -1.1575
  801MOL0     H 5708   1.401   9.561   5.507 -0.3414  0.8274  1.2635
  801MOL0     H 5709   1.314   9.498   5.657  0.8386  1.6406  0.7741
  801MOL0     H 5710   1.159   9.626   5.580 -2.3791  0.4619 -1.4238
  801MOL0     H 5711   1.210   9.619   5.412  0.4333  1.3353  0.6586
  801MOL0     H 5712   1.100   9.378   5.553 -0.3115  0.7012  0.5296
  801MOL0     H 5713   1.093   9.401   5.384  2.8248  0.9516 -0.9353
  801MOL0     H 5714   1.945   9.731   5.584 -1.1217 -1.3101  0.8153
  801MOL0     H 5715   2.151   9.863   5.510 -2.5242 -1.2677  3.4909
  801MOL0     H 5716   2.649   9.800   5.506 -0.4838 -2.7872 -2.0067
  801MOL0     H 5717   2.849   9.940   5.452 -0.1228 -2.7163 -1.1149
  801MOL0     H 5718   2.101  10.803   6.160  2.1517 -1.5460 -0.3053
  801MOL0     H 5719   1.864  10.803   6.229 -0.6028 -0.8240  0.1315
  801MOL0     H 5720   1.366  10.754   6.160  0.2806  0.7302  0.5074
  801MOL0     H 5721   1.161  10.700   6.306  0.5986 -2.1359 -1.8599
  801MOL0     H 5722   1.009  10.561   6.543 -0.8457 -0.8386  3.0607
  801MOL0     H 5723   1.057  10.734   6.514 -1.2220 -1.4661 -1.9342
  801MOL0     H 5724   1.084  10.603   6.779 -1.3449 -0.5292  0.1912
  801MOL0     H 5725   1.080  10.780   6.739 -0.6317  0.8993  3.5780
  801MOL0     H 5726   0.823  10.612   6.717  0.2138  1.1520 -0.9047
  801MOL0     H 5727   0.839  10.784   6.721  0.0390  1.0674  3.7025
  801MOL0     H 5728   0.905  10.592   6.955 -1.5780 -0.6249 -1.3691
  801MOL0     H 5729   0.946  10.768   6.944  0.1438 -0.9627 -0.3091
  801MOL0     H 5730   0.569  10.738   7.138  0.0826 -1.3192  0.5675
  801MOL0     H 5731   1.433  10.559   6.605  2.2443  1.4226 -0.6694
  801MOL0     H 5732   1.611  10.553   6.438 -1.0406 -0.9512 -0.2767
  802MOL0     O 5733  11.112   6.528   4.819  0.0310  0.0790  0.2022
  802MOL0     C 5734  11.199   6.608   4.801  1.2537 -0.6817 -0.6333
  802MOL0     O 5735  11.181   6.744   4.791 -0.1630 -0.1127 -0.2144
  802MOL0     C 5736  11.047   6.778   4.776 -0.0888  0.1461 -0.0802
  802MOL0     C 5737  10.975   6.760   4.657  0.2436  0.5621  0.4748
  802MOL0     C 5738  10.831   6.776   4.650 -0.4602  0.4986  0.6702
  802MOL0     C 5739  10.760   6.823   4.760 -0.4249  0.1168 -0.8303
  802MOL0     O 5740  10.631   6.850   4.761  0.7912  0.3470 -0.6117
  802MOL0     C 5741  10.574   6.953   4.840 -0.1583 -0.8160 -0.3552
  802MOL0     C 5742  10.433   6.994   4.777 -0.0052  0.6262 -0.5897
  802MOL0     C 5743  10.458   7.077   4.660  0.3666  0.4254  0.6801
  802MOL0     C 5744  10.320   7.105   4.584  0.9371  0.2198 -0.0774
  802MOL0     C 5745  10.353   7.160   4.446  0.9594  0.9551  0.6685
  802MOL0     C 5746  10.229   7.216   4.381  0.5081  0.5336 -0.1587
  802MOL0     C 5747  10.246   7.245   4.224  0.2776 -0.9489 -0.6678
  802MOL0     C 5748  10.116   7.236   4.153 -0.1949 -0.1565 -0.0098
  802MOL0     N 5749  10.018   7.333   4.201 -0.2499  0.9892 -0.5855
  802MOL0     C 5750  10.011   7.466   4.163  0.2351 -0.6598  0.0281
  802MOL0     C 5751   9.918   7.529   4.230 -0.4717  0.8776 -0.4340
  802MOL0     C 5752   9.873   7.678   4.223 -0.3028 -0.1175  0.7247
  802MOL0     C 5753   9.890   7.744   4.358 -0.4205  0.2103 -0.0588
  802MOL0     C 5754   9.873   7.897   4.365  0.4733  0.6060 -0.7586
  802MOL0     C 5755   9.742   7.944   4.322  0.0655  0.0301  0.4835
  802MOL0     O 5756   9.649   7.896   4.408  0.7800  0.1028 -0.0504
  802MOL0     C 5757   9.519   7.918   4.372  0.7919  0.7732  0.1275
  802MOL0     C 5758   9.424   7.817   4.397 -0.8449  0.6881 -0.5684
  802MOL0     C 5759   9.293   7.820   4.351  0.6627  0.3055  0.9714
  802MOL0     C 5760   9.244   7.922   4.277  0.0839 -1.1019 -0.3923
  802MOL0     C 5761   9.093   7.940   4.262  0.0562 -0.6542 -0.7725
  802MOL0     O 5762   9.028   7.833   4.309 -0.1598 -0.1396  0.6689
  802MOL0     C 5763   8.893   7.831   4.321  0.5551  0.0474 -0.5070
  802MOL0     C 5764   8.799   7.860   4.216 -0.0545 -0.7825 -0.5726
  802MOL0     C 5765   8.662   7.837   4.236 -0.6312 -0.5311 -0.1775
  802MOL0     C 5766   8.618   7.772   4.355 -0.0129 -0.0899  0.3433
  802MOL0     O 5767   8.486   7.741   4.361 -0.0572  0.4738 -0.2234
  802MOL0     C 5768   8.439   7.656   4.463 -0.4014  0.8426 -0.3806
  802MOL0     C 5769   8.289   7.633   4.429  0.2040 -0.5679  0.4571
  802MOL0     C 5770   8.230   7.554   4.539  0.9333 -0.1974 -0.3582
  802MOL0     C 5771   8.228   7.616   4.679  0.0443 -0.3203 -0.2686
  802MOL0     C 5772   8.154   7.755   4.669  0.4004 -0.5003  0.2386
  802MOL0     C 5773   8.003   7.749   4.619 -0.5430 -0.0467  0.2101
  802MOL0     C 5774   7.895   7.656   4.691  0.5613 -0.3576 -0.5576
  802MOL0     C 5775   7.876   7.524   4.608 -0.6490 -0.2002  0.7470
  802MOL0    Cl 5776   7.699   7.526   4.553  0.1013 -0.0260  0.2535
  802MOL0     C 5777   8.714   7.761   4.462 -0.0412  0.9722  0.6941
  802MOL0     C 5778   8.851   7.779   4.444  0.2615 -0.2495  0.7534
  802MOL0     O 5779   9.043   8.055   4.246 -0.5132  0.6101  0.6446
  802MOL0     C 5780   9.335   8.031   4.255  0.7602 -0.0891  0.8464
  802MOL0     C 5781   9.470   8.025   4.298  0.3468 -0.0858  0.6688
  802MOL0     N 5782   9.861   7.428   4.307 -0.4536 -0.5407 -1.0611
  802MOL0     N 5783   9.923   7.311   4.288  0.4090 -0.9359  0.7722
  802MOL0     C 5784  10.831   6.833   4.882 -0.3837 -0.1142  0.4289
  802MOL0     C 5785  10.972   6.827   4.882 -0.5990  0.9411 -0.1865
  802MOL0     C 5786  11.336   6.555   4.802 -0.0570  0.0582 -0.5960
  802MOL0     C 5787  11.364   6.417   4.823  0.5025 -1.0677  0.1161
  802MOL0     C 5788  11.502   6.369   4.825  0.3167 -0.8468 -0.3324
  802MOL0     C 5789  11.613   6.461   4.816  0.1383 -0.3890 -0.3037
  802MOL0     O 5790  11.751   6.427   4.814 -0.0666 -0.1054  0.7513
  802MOL0     C 5791  11.782   6.294   4.839 -0.5238 -0.2438  0.0737
  802MOL0     C 5792  11.933   6.292   4.873  0.3395  0.4202  0.2878
  802MOL0     C 5793  12.002   6.160   4.825  0.2428  0.4492  0.1904
  802MOL0     C 5794  12.013   6.154   4.672 -0.0335  0.4313  0.7387
  802MOL0     C 5795  12.112   6.045   4.635  0.0763 -0.6278 -0.1316
  802MOL0     C 5796  12.182   5.949   4.626  0.0827 -0.7228  0.0721
  802MOL0     C 5797  11.580   6.599   4.790  0.3047  0.1364  0.2611
  802MOL0     C 5798  11.451   6.646   4.787  0.0043  0.3626 -0.1825
  802MOL0     H 5799  11.037   6.723   4.575 -0.5580  1.0155 -0.3551
  802MOL0     H 5800  10.766   6.775   4.563  2.6598 -0.3429 -1.8573
  802MOL0     H 5801  10.644   7.034   4.863  1.3904 -2.5348  1.3656
  802MOL0     H 5802  10.560   6.900   4.935  0.0314 -1.8401 -0.8851
  802MOL0     H 5803  10.382   7.056   4.851  1.5333  1.6089 -0.3025
  802MOL0     H 5804  10.372   6.910   4.743  2.3915  0.2239 -4.4934
  802MOL0     H 5805  10.520   7.009   4.602 -1.7355 -1.0342  0.0211
  802MOL0     H 5806  10.510   7.171   4.679 -2.7240  2.8461 -1.5977
  802MOL0     H 5807  10.245   7.025   4.590  1.3618 -0.1000  1.4157
  802MOL0     H 5808  10.266   7.179   4.644  0.9400 -0.8983  1.3456
  802MOL0     H 5809  10.373   7.073   4.382 -1.7991  1.5786 -1.2428
  802MOL0     H 5810  10.440   7.225   4.449  4.1123 -2.8219 -0.5742
  802MOL0     H 5811  10.206   7.312   4.429  0.2000  2.1001 -3.1959
  802MOL0     H 5812  10.152   7.140   4.398  0.8319  0.1525 -0.3883
  802MOL0     H 5813  10.291   7.345   4.222  2.3648 -1.7139  2.0528
  802MOL0     H 5814  10.327   7.180   4.190  0.7923 -0.7818  0.1934
  802MOL0     H 5815  10.059   7.143   4.161 -1.6013  0.7925  2.0185
  802MOL0     H 5816  10.147   7.254   4.050  2.4081  0.9136  0.8895
  802MOL0     H 5817  10.077   7.503   4.086  1.8540 -0.4369  1.4735
  802MOL0     H 5818   9.770   7.683   4.189 -0.0301  0.3898 -0.0675
  802MOL0     H 5819   9.930   7.733   4.147 -3.9478  3.5617  0.2990
  802MOL0     H 5820   9.986   7.713   4.399 -0.2897  0.6303 -0.0392
  802MOL0     H 5821   9.821   7.700   4.430  1.8036 -0.7545  1.5828
  802MOL0     H 5822   9.871   7.920   4.472 -0.4630 -0.4576 -0.5207
  802MOL0     H 5823   9.946   7.952   4.306  0.4563 -1.1337 -2.5357
  802MOL0     H 5824   9.724   7.914   4.218  1.1790  1.2911 -0.1092
  802MOL0     H 5825   9.746   8.053   4.314  2.7208 -0.1345 -1.9534
  802MOL0     H 5826   9.459   7.741   4.467  3.1813 -1.1118 -4.0859
  802MOL0     H 5827   9.228   7.744   4.392  0.2850  0.6823  1.0691
  802MOL0     H 5828   8.851   7.892   4.126  1.0947  0.4892  0.5064
  802MOL0     H 5829   8.597   7.868   4.155  0.2340  1.3427 -0.2014
  802MOL0     H 5830   8.453   7.703   4.561 -1.2958  0.6394 -0.1433
  802MOL0     H 5831   8.494   7.562   4.453  0.7414  1.6607 -2.3866
  802MOL0     H 5832   8.279   7.564   4.345 -4.0802  0.7871 -0.4016
  802MOL0     H 5833   8.226   7.722   4.415  3.3720  1.6700 -0.9655
  802MOL0     H 5834   8.299   7.471   4.556 -0.1738 -1.2722 -0.9787
  802MOL0     H 5835   8.130   7.524   4.508  1.2309 -0.1513 -1.4154
  802MOL0     H 5836   8.169   7.551   4.744  0.0452 -0.3060 -0.2528
  802MOL0     H 5837   8.327   7.622   4.724 -0.6056  1.5954  1.0544
  802MOL0     H 5838   8.216   7.822   4.609  1.3538 -1.9471 -0.4520
  802MOL0     H 5839   8.147   7.798   4.770  1.0955  1.1615 -0.3817
  802MOL0     H 5840   7.997   7.722   4.513 -2.4076  2.1566 -0.3191
  802MOL0     H 5841   7.969   7.852   4.627 -1.4730 -0.1897 -1.4538
  802MOL0     H 5842   7.927   7.630   4.792  0.9373 -1.2448 -0.8991
  802MOL0     H 5843   7.805   7.718   4.699  2.7062  3.1836 -1.6810
  802MOL0     H 5844   7.904   7.434   4.663 -1.2017 -1.4506 -0.9306
  802MOL0     H 5845   7.939   7.530   4.518  1.1031 -1.1361  1.8589
  802MOL0     H 5846   8.674   7.727   4.557  0.2752  0.9844  0.8317
  802MOL0     H 5847   8.932   7.759   4.513  1.4343 -2.5246 -1.0880
  802MOL0     H 5848   9.295   8.116   4.201 -2.3494 -1.2776  1.0196
  802MOL0     H 5849   9.541   8.104   4.280 -3.2194  2.9826 -1.3768
  802MOL0     H 5850  10.780   6.859   4.974  0.4431  1.5452  0.4588
  802MOL0     H 5851  11.031   6.844   4.972 -1.8653  0.8819  0.6762
  802MOL0     H 5852  11.278   6.351   4.824 -0.0938 -0.3185 -0.6040
  802MOL0     H 5853  11.513   6.263   4.842 -1.8153 -0.7491  2.5835
  802MOL0     H 5854  11.751   6.225   4.760 -3.7683  0.8006  0.3255
  802MOL0     H 5855  11.732   6.281   4.935  1.2969  0.8366  1.2362
  802MOL0     H 5856  11.988   6.375   4.828  1.7697  1.4965  3.6964
  802MOL0     H 5857  11.940   6.301   4.982  2.1364 -0.6071  0.2870
  802MOL0     H 5858  11.961   6.073   4.877  0.9228 -0.0484 -0.0885
  802MOL0     H 5859  12.108   6.161   4.853  1.4356  0.7903 -3.7415
  802MOL0     H 5860  11.919   6.122   4.628  1.2096  1.2996 -2.9247
  802MOL0     H 5861  12.054   6.248   4.635  0.2600  1.9734  4.5106
  802MOL0     H 5862  12.219   5.849   4.625 -1.6812 -1.4096  0.6703
  802MOL0     H 5863  11.672   6.657   4.788  0.1445  0.4592  1.6248
  802MOL0     H 5864  11.433   6.752   4.769  0.1668  1.0360  3.0358
  803MOL0     O 5865  11.154   1.549   9.508 -0.0994 -0.3228  0.3577
  803MOL0     C 5866  11.203   1.631   9.581  0.2200  0.2011 -0.3800
  803MOL0     O 5867  11.179   1.645   9.717  0.2054  0.3230  0.1159
  803MOL0     C 5868  11.065   1.582   9.768 -0.8809 -0.2373 -0.2575
  803MOL0     C 5869  11.048   1.444   9.762 -0.0091 -0.2946  0.2001
  803MOL0     C 5870  10.928   1.381   9.813  0.2509 -0.1089 -0.5091
  803MOL0     C 5871  10.824   1.461   9.863  0.4025  0.0113 -0.4519
  803MOL0     O 5872  10.707   1.403   9.896 -0.0479 -0.1469 -0.4939
  803MOL0     C 5873  10.583   1.465   9.849 -0.9686 -0.4818  0.1695
  803MOL0     C 5874  10.479   1.395   9.925 -1.0944 -0.5268  0.3754
  803MOL0     C 5875  10.351   1.487   9.911 -0.8202 -0.4724 -0.6254
  803MOL0     C 5876  10.238   1.396   9.973 -0.0863  0.5005  0.2245
  803MOL0     C 5877  10.090   1.445   9.950  0.5915  0.5159  0.1997
  803MOL0     C 5878  10.072   1.594   9.997 -1.0640  0.6005 -0.0979
  803MOL0     C 5879   9.932   1.637  10.000  0.1079  0.1589 -0.1538
  803MOL0     C 5880   9.868   1.590  10.135 -0.2273  0.4714  0.2112
  803MOL0     N 5881   9.727   1.623  10.129  0.6095 -0.4242  0.3224
  803MOL0     C 5882   9.617   1.572  10.071 -0.0871 -0.5020  0.9023
  803MOL0     C 5883   9.523   1.669  10.078  0.2674 -0.0206 -0.8242
  803MOL0     C 5884   9.390   1.670  10.022  0.0129 -0.3337 -0.2786
  803MOL0     C 5885   9.273   1.660  10.126 -0.4975 -0.5484 -0.4990
  803MOL0     C 5886   9.207   1.793  10.167  0.1038 -0.5783  0.4739
  803MOL0     C 5887   9.076   1.771  10.246 -0.7909  0.3167  0.7955
  803MOL0     O 5888   9.004   1.668  10.173  0.1961  0.5865  0.2537
  803MOL0     C 5889   8.895   1.597  10.222  0.2193 -0.0498  0.6283
  803MOL0     C 5890   8.797   1.661  10.305  0.0471  0.0635  0.6190
  803MOL0     C 5891   8.686   1.591  10.344 -0.2640  0.1186 -0.1322
  803MOL0     C 5892   8.675   1.457  10.322  0.0129 -0.1489  0.7001
  803MOL0     C 5893   8.549   1.389  10.364  0.1158  0.6191 -0.0957
  803MOL0     O 5894   8.564   1.254  10.349 -0.2665 -0.1838 -0.2510
  803MOL0     C 5895   8.465   1.167  10.393 -0.9486 -0.3218  0.6153
  803MOL0     C 5896   8.441   1.148  10.525 -0.1415 -0.6457  0.0211
  803MOL0     C 5897   8.346   1.060  10.570  0.2490  0.1962  0.1455
  803MOL0     C 5898   8.277   0.982  10.481 -0.6458  0.2951  0.5806
  803MOL0     O 5899   8.194   0.879  10.517 -0.0588 -0.2138 -0.2375
  803MOL0     C 5900   8.108   0.903  10.626 -1.1228  0.5410 -0.3306
  803MOL0     C 5901   8.016   0.785  10.642 -0.0958  0.4335 -0.1365
  803MOL0     C 5902   8.086   0.658  10.689  0.1057  0.1034 -0.0781
  803MOL0     C 5903   8.012   0.528  10.670 -0.4497  0.0347 -0.1262
  803MOL0     C 5904   7.886   0.533  10.757 -0.4526  0.4353  0.3065
  803MOL0     C 5905   7.807   0.401  10.737 -1.3390 -0.0240 -0.5781
  803MOL0     C 5906   7.750   0.381  10.592  0.2227  0.3789 -0.4494
  803MOL0     C 5907   7.648   0.503  10.549 -0.6285  1.2932  0.2370
  803MOL0    Cl 5908   7.539   0.465  10.403 -0.1821  0.3176 -0.0424
  803MOL0     C 5909   8.306   0.995  10.341  0.4953 -0.4601 -0.0568
  803MOL0     C 5910   8.399   1.092  10.304  0.2742 -0.0854  0.1219
  803MOL0     O 5911   8.453   1.441  10.414 -0.6063 -0.0062 -0.1667
  803MOL0     C 5912   8.775   1.386  10.247 -0.0490 -0.2971  0.5182
  803MOL0     C 5913   8.877   1.463  10.188 -0.0105 -0.4844 -0.4346
  803MOL0     N 5914   9.571   1.774  10.150  0.1558  0.1745  0.2399
  803MOL0     N 5915   9.689   1.744  10.185 -0.9962  0.7278  0.8867
  803MOL0     C 5916  10.851   1.594   9.871 -0.1327  0.1546  0.9266
  803MOL0     C 5917  10.965   1.652   9.824  0.1527 -0.3689 -0.1383
  803MOL0     C 5918  11.292   1.726   9.522 -0.8285  0.1915 -0.8703
  803MOL0     C 5919  11.343   1.701   9.391  0.5055 -0.6483  0.2589
  803MOL0     C 5920  11.430   1.788   9.336 -0.1858  1.0127 -0.9539
  803MOL0     C 5921  11.485   1.891   9.408  0.0525  0.0567 -0.4582
  803MOL0     O 5922  11.582   1.972   9.368 -0.1539  0.1285 -0.3851
  803MOL0     C 5923  11.597   2.002   9.229  0.4931  0.0421  0.7277
  803MOL0     C 5924  11.470   2.079   9.169  0.5560 -0.7926  0.3360
  803MOL0     C 5925  11.462   2.071   9.014 -0.2822 -0.2641 -0.9971
  803MOL0     C 5926  11.579   2.139   8.939  0.3374 -0.0612 -0.0933
  803MOL0     C 5927  11.711   2.069   8.950 -0.4952 -0.1102 -0.3693
  803MOL0     C 5928  11.809   2.010   8.963 -0.9354 -0.2092 -0.3802
  803MOL0     C 5929  11.445   1.910   9.537 -0.4524  0.1155  0.2598
  803MOL0     C 5930  11.348   1.833   9.601  0.1871  0.6439 -0.0362
  803MOL0     H 5931  11.121   1.380   9.714 -0.7869 -1.1285  0.0876
  803MOL0     H 5932  10.916   1.273   9.814  3.6815 -0.6196  1.4883
  803MOL0     H 5933  10.583   1.452   9.740  5.2015 -1.3433 -0.0815
  803MOL0     H 5934  10.581   1.571   9.879 -0.4917  0.5187 -2.9234
  803MOL0     H 5935  10.500   1.393  10.032 -0.2306 -1.1685  0.1998
  803MOL0     H 5936  10.471   1.288   9.903 -0.4453 -1.1777  2.9191
  803MOL0     H 5937  10.336   1.516   9.806  1.0633 -3.8731 -2.0177
  803MOL0     H 5938  10.357   1.571   9.981  1.1129 -1.3755  0.3703
  803MOL0     H 5939  10.247   1.291   9.945 -0.2567 -0.1075  2.2767
  803MOL0     H 5940  10.254   1.389  10.081  2.2707  0.3080 -0.0970
  803MOL0     H 5941  10.016   1.381   9.999  2.3372  0.6808  3.2595
  803MOL0     H 5942  10.070   1.436   9.843 -1.4938  1.6737  0.4490
  803MOL0     H 5943  10.120   1.661   9.925  2.3518 -1.1679  0.3032
  803MOL0     H 5944  10.123   1.592  10.093 -2.4748 -2.8633  0.7341
  803MOL0     H 5945   9.923   1.746   9.989  2.8708  0.4281 -0.5123
  803MOL0     H 5946   9.875   1.584   9.923 -2.9524  2.1699  0.5393
  803MOL0     H 5947   9.910   1.651  10.215 -0.9152 -2.1737  2.7123
  803MOL0     H 5948   9.888   1.483  10.143  0.7820  0.5762 -0.6167
  803MOL0     H 5949   9.604   1.484  10.009  1.3073  0.3180 -0.6127
  803MOL0     H 5950   9.379   1.589   9.949  3.3936 -1.0069 -0.2191
  803MOL0     H 5951   9.399   1.761   9.962  3.3353  0.8225  1.6633
  803MOL0     H 5952   9.324   1.618  10.214 -0.5912 -3.7985 -1.8580
  803MOL0     H 5953   9.211   1.572  10.105 -3.1532  0.5788  1.9063
  803MOL0     H 5954   9.281   1.846  10.229  1.6290  0.0327 -1.7622
  803MOL0     H 5955   9.190   1.854  10.078  0.8036  0.4579  1.0178
  803MOL0     H 5956   9.008   1.856  10.239 -0.8147  0.1606 -1.7734
  803MOL0     H 5957   9.101   1.751  10.351  0.0953  1.9473  0.9188
  803MOL0     H 5958   8.793   1.769  10.321 -0.8351  0.3118 -1.0829
  803MOL0     H 5959   8.605   1.646  10.392 -0.6318  0.2012 -0.8399
  803MOL0     H 5960   8.502   1.201  10.597  2.7381 -1.1824 -1.8726
  803MOL0     H 5961   8.337   1.047  10.678 -2.3851 -1.2560 -0.1775
  803MOL0     H 5962   8.047   0.992  10.609 -2.2053 -0.0030  0.6138
  803MOL0     H 5963   8.165   0.903  10.719 -0.1147  0.4143 -0.9244
  803MOL0     H 5964   7.980   0.761  10.542  1.5834 -1.0540 -0.4343
  803MOL0     H 5965   7.926   0.804  10.701  0.0294 -1.0484  0.5755
  803MOL0     H 5966   8.111   0.667  10.795 -1.2758 -4.9555  0.9796
  803MOL0     H 5967   8.177   0.646  10.630  1.0661  1.3943  1.1029
  803MOL0     H 5968   7.990   0.521  10.563 -1.2882 -0.7079  0.0739
  803MOL0     H 5969   8.069   0.437  10.695 -0.7466  0.3722  1.9496
  803MOL0     H 5970   7.821   0.609  10.713 -2.3348 -2.0266 -1.4419
  803MOL0     H 5971   7.922   0.554  10.859 -0.1890 -0.3064  0.3682
  803MOL0     H 5972   7.731   0.391  10.816 -0.5394 -1.4139  0.0537
  803MOL0     H 5973   7.876   0.318  10.751  0.3570  1.0921 -1.9919
  803MOL0     H 5974   7.825   0.363  10.515 -1.2282 -0.9785 -1.6269
  803MOL0     H 5975   7.680   0.297  10.601  0.2563  0.3264 -0.6781
  803MOL0     H 5976   7.702   0.595  10.524  1.8304 -0.6265 -2.2566
  803MOL0     H 5977   7.574   0.519  10.628  1.3700  1.0495  2.2683
  803MOL0     H 5978   8.254   0.946  10.260 -2.5265  1.2785  0.6548
  803MOL0     H 5979   8.431   1.092  10.200  0.5074  1.0844  0.1797
  803MOL0     H 5980   8.775   1.279  10.230  2.2229 -1.0623  4.2382
  803MOL0     H 5981   8.951   1.409  10.130  3.6016  2.0119  1.5058
  803MOL0     H 5982  10.780   1.657   9.924  0.5293 -0.3707  2.4811
  803MOL0     H 5983  10.973   1.760   9.833  1.0467 -0.2205 -2.1215
  803MOL0     H 5984  11.313   1.625   9.319 -1.7749  0.6285 -0.2357
  803MOL0     H 5985  11.465   1.763   9.237 -1.0848 -2.2787 -0.5483
  803MOL0     H 5986  11.608   1.912   9.167 -2.2509 -0.7208  1.2112
  803MOL0     H 5987  11.682   2.069   9.216 -2.1192  3.6173  0.7103
  803MOL0     H 5988  11.376   2.044   9.212  0.2660  1.2242  1.4570
  803MOL0     H 5989  11.476   2.186   9.190  3.0686  0.9402 -6.4857
  803MOL0     H 5990  11.376   2.126   8.974 -0.1816  0.3823 -0.3376
  803MOL0     H 5991  11.450   1.966   8.985  1.3675 -1.2722  1.6507
  803MOL0     H 5992  11.564   2.125   8.831  1.7385 -0.5969 -0.2416
  803MOL0     H 5993  11.591   2.242   8.971  1.2880 -0.5275  1.1182
  803MOL0     H 5994  11.896   1.949   8.981 -3.0627 -2.6363  2.9211
  803MOL0     H 5995  11.493   1.984   9.600  0.8599 -0.0675 -0.5001
  803MOL0     H 5996  11.314   1.856   9.701 -3.4233 -2.7892 -0.2138
  804MOL0     O 5997   3.520   6.446   2.539  0.0998 -0.6070 -0.8248
  804MOL0     C 5998   3.578   6.368   2.615 -0.5626 -0.3447 -0.2078
  804MOL0     O 5999   3.529   6.260   2.667  0.0503 -0.2342 -1.0033
  804MOL0     C 6000   3.396   6.240   2.653  0.1448  0.0467 -0.0486
  804MOL0     C 6001   3.297   6.324   2.710 -0.6504 -0.5494  1.3681
  804MOL0     C 6002   3.161   6.299   2.666 -0.2962  0.9661 -0.4027
  804MOL0     C 6003   3.128   6.188   2.588  0.3605  0.2393  0.7823
  804MOL0     O 6004   3.000   6.150   2.546  0.3121  0.1792 -0.3618
  804MOL0     C 6005   2.897   6.164   2.646 -0.0503  0.4274  0.1802
  804MOL0     C 6006   2.768   6.132   2.577  0.3228  0.4698 -0.9028
  804MOL0     C 6007   2.745   6.217   2.446 -0.0584  0.1753  0.3674
  804MOL0     C 6008   2.768   6.368   2.456 -0.0891 -0.6516 -0.5845
  804MOL0     C 6009   2.673   6.441   2.558 -0.1074  0.1230  0.8787
  804MOL0     C 6010   2.524   6.431   2.513 -0.3931 -0.0121  0.6054
  804MOL0     C 6011   2.409   6.503   2.589 -0.5190 -0.6513  1.0923
  804MOL0     C 6012   2.419   6.496   2.738  0.1061  0.7532  0.1006
  804MOL0     N 6013   2.397   6.353   2.792 -0.2723 -0.4668  0.2335
  804MOL0     C 6014   2.297   6.268   2.769  0.1157 -0.1192  0.6556
  804MOL0     C 6015   2.354   6.148   2.812  0.6981  0.5433 -0.0335
  804MOL0     C 6016   2.290   6.016   2.830  0.1955 -0.7123 -0.7451
  804MOL0     C 6017   2.215   6.013   2.970 -0.9515  0.3679 -0.0821
  804MOL0     C 6018   2.070   6.063   2.983 -1.0276  0.2435 -1.3705
  804MOL0     C 6019   2.024   6.057   3.139  0.4832 -0.3591  0.9196
  804MOL0     O 6020   1.887   6.100   3.165 -0.2152  0.3935  0.2241
  804MOL0     C 6021   1.776   6.026   3.133  0.4310 -0.3417  0.3161
  804MOL0     C 6022   1.779   5.897   3.068  0.1939  0.5544  0.0812
  804MOL0     C 6023   1.660   5.816   3.070  1.0131  0.2596  0.5045
  804MOL0     C 6024   1.543   5.868   3.121  0.1647 -0.0108  0.4202
  804MOL0     C 6025   1.417   5.787   3.133  0.1239  0.0511  0.1415
  804MOL0     O 6026   1.419   5.651   3.119 -0.4569  0.4645 -0.0938
  804MOL0     C 6027   1.292   5.590   3.120 -0.9784 -1.2213  0.7181
  804MOL0     C 6028   1.219   5.559   3.007 -0.4195 -1.1843 -0.3948
  804MOL0     C 6029   1.098   5.491   3.017  0.7509  0.1152 -0.8621
  804MOL0     C 6030   1.041   5.448   3.138  0.6614  0.5375  0.0108
  804MOL0     O 6031   0.925   5.378   3.126  0.4028  0.4466 -0.1685
  804MOL0     C 6032   0.843   5.332   3.238 -0.0907 -0.2693 -0.0773
  804MOL0     C 6033   0.743   5.443   3.275 -0.6134 -0.2855  0.2573
  804MOL0     C 6034   0.616   5.384   3.333  0.2611 -0.6398  0.0573
  804MOL0     C 6035   0.521   5.487   3.407 -0.0421  1.2590  0.6064
  804MOL0     C 6036   0.382   5.445   3.392 -0.3873  0.1259  0.2576
  804MOL0     C 6037   0.355   5.321   3.486 -0.3176 -0.0597  0.4130
  804MOL0     C 6038   0.206   5.289   3.516  0.0387 -0.0763 -0.1117
  804MOL0     C 6039   0.124   5.294   3.388 -0.5423  0.9416  1.2966
  804MOL0    Cl 6040   0.040   5.445   3.346  0.3825 -0.1901 -0.3884
  804MOL0     C 6041   1.115   5.481   3.258  0.2085  0.5637  0.1678
  804MOL0     C 6042   1.236   5.558   3.242 -0.4454 -0.3100  0.6352
  804MOL0     O 6043   1.314   5.854   3.153  0.1095  0.0775  0.2082
  804MOL0     C 6044   1.545   5.998   3.178 -0.2856  0.2728  0.0680
  804MOL0     C 6045   1.655   6.077   3.181 -0.9413  0.0489 -0.4216
  804MOL0     N 6046   2.487   6.164   2.847 -0.6180 -0.4138  0.3635
  804MOL0     N 6047   2.506   6.293   2.841 -0.4327 -0.0175  0.4682
  804MOL0     C 6048   3.226   6.118   2.534  0.2150 -0.2077 -0.3976
  804MOL0     C 6049   3.358   6.138   2.569 -0.3829 -0.3578 -0.1726
  804MOL0     C 6050   3.714   6.408   2.648  0.3320  0.7461 -0.7335
  804MOL0     C 6051   3.753   6.541   2.629  0.0065 -0.4028 -0.3296
  804MOL0     C 6052   3.868   6.588   2.677 -0.2896  0.8286 -0.9858
  804MOL0     C 6053   3.963   6.502   2.738  0.3133 -0.7541 -0.1931
  804MOL0     O 6054   4.096   6.535   2.776 -0.0290 -0.3717  0.0008
  804MOL0     C 6055   4.151   6.647   2.705 -0.2229 -0.0341 -0.4125
  804MOL0     C 6056   4.303   6.654   2.743 -0.6505 -1.1933  0.4372
  804MOL0     C 6057   4.369   6.787   2.684 -0.8993  0.7584 -0.4935
  804MOL0     C 6058   4.310   6.921   2.727  0.4607 -0.7005 -0.0463
  804MOL0     C 6059   4.326   6.945   2.863 -0.0349 -0.2601  0.3265
  804MOL0     C 6060   4.337   6.973   2.980 -0.2809  0.9553  0.4323
  804MOL0     C 6061   3.917   6.370   2.764  0.4141  0.2504 -0.9646
  804MOL0     C 6062   3.798   6.326   2.718  0.5624  0.4333  0.4103
  804MOL0     H 6063   3.333   6.400   2.779  0.0977 -0.9239  1.4041
  804MOL0     H 6064   3.091   6.376   2.697  3.2386  3.9204  1.0953
  804MOL0     H 6065   2.887   6.266   2.682 -1.8735  0.6906 -0.9048
  804MOL0     H 6066   2.902   6.095   2.731  2.4098  0.9511  0.5283
  804MOL0     H 6067   2.678   6.148   2.637 -0.9642 -1.8084 -2.0892
  804MOL0     H 6068   2.764   6.025   2.556 -0.5121  0.1116  0.9078
  804MOL0     H 6069   2.641   6.198   2.416 -1.1468  0.8083  3.3901
  804MOL0     H 6070   2.812   6.189   2.364  0.1996  0.4988  0.4648
  804MOL0     H 6071   2.868   6.401   2.487 -0.4694 -1.7262  2.0327
  804MOL0     H 6072   2.752   6.416   2.359  1.9038  0.8675 -0.2249
  804MOL0     H 6073   2.692   6.547   2.576  2.0930 -0.2433  0.9981
  804MOL0     H 6074   2.681   6.386   2.651  0.3391 -3.1168 -0.9313
  804MOL0     H 6075   2.507   6.323   2.523  4.0257 -0.8615  1.0210
  804MOL0     H 6076   2.510   6.463   2.409  0.3442 -4.0958 -0.9618
  804MOL0     H 6077   2.406   6.607   2.555 -1.6765 -0.8626  0.5007
  804MOL0     H 6078   2.310   6.466   2.560  0.5586 -2.0899 -0.9331
  804MOL0     H 6079   2.342   6.559   2.783  1.3071  1.2598  1.5375
  804MOL0     H 6080   2.518   6.528   2.772  0.9455 -1.2448 -0.3207
  804MOL0     H 6081   2.200   6.285   2.723 -0.0439 -1.5199  0.4313
  804MOL0     H 6082   2.364   5.935   2.829  0.0359 -0.8576 -0.8561
  804MOL0     H 6083   2.215   5.993   2.754  0.8513  0.2842 -1.7177
  804MOL0     H 6084   2.266   6.071   3.048 -0.5923 -1.6645  1.2664
  804MOL0     H 6085   2.217   5.909   3.004  0.1047 -0.2199 -1.8384
  804MOL0     H 6086   2.072   6.168   2.951  0.8634  0.6233 -0.1587
  804MOL0     H 6087   2.022   5.994   2.914  1.5800 -1.3684 -1.7303
  804MOL0     H 6088   2.091   6.120   3.198 -0.5180  1.1246  0.5101
  804MOL0     H 6089   2.044   5.961   3.189 -0.7313 -0.5008  1.1632
  804MOL0     H 6090   1.875   5.859   3.034  1.8805  2.0977  2.7690
  804MOL0     H 6091   1.662   5.719   3.022 -1.0924  0.8492 -0.8729
  804MOL0     H 6092   1.254   5.598   2.913 -3.0613  0.2828 -0.8521
  804MOL0     H 6093   1.036   5.471   2.930 -2.1597  0.9728  0.8810
  804MOL0     H 6094   0.907   5.303   3.322 -0.5271  2.4869  1.3374
  804MOL0     H 6095   0.787   5.240   3.220  0.6180 -0.6340 -0.4497
  804MOL0     H 6096   0.711   5.500   3.188 -2.6657  0.0641  1.1781
  804MOL0     H 6097   0.790   5.516   3.342  0.7552 -0.9870  0.0986
  804MOL0     H 6098   0.649   5.307   3.403  1.9024 -0.0823 -0.0553
  804MOL0     H 6099   0.555   5.349   3.249  1.2805 -2.0108 -0.1377
  804MOL0     H 6100   0.545   5.513   3.511 -0.4410  1.3833  0.6686
  804MOL0     H 6101   0.528   5.582   3.353 -0.6179  0.6279 -0.6029
  804MOL0     H 6102   0.350   5.428   3.289 -0.3300  5.2855 -0.8740
  804MOL0     H 6103   0.320   5.528   3.429  0.8160 -0.0698  2.9773
  804MOL0     H 6104   0.413   5.328   3.578 -0.3363  2.3386  0.3029
  804MOL0     H 6105   0.395   5.235   3.431  1.2017  1.3584 -0.8038
  804MOL0     H 6106   0.204   5.188   3.558 -2.7306 -0.5579 -1.1602
  804MOL0     H 6107   0.166   5.363   3.586  0.5739 -0.0468  0.1667
  804MOL0     H 6108   0.054   5.211   3.398  1.3839 -1.4016 -2.4978
  804MOL0     H 6109   0.194   5.266   3.309 -1.9685  2.2300 -0.5112
  804MOL0     H 6110   1.085   5.468   3.362 -1.2334  1.9598 -0.0395
  804MOL0     H 6111   1.289   5.573   3.336  0.7406 -4.9008  0.9817
  804MOL0     H 6112   1.460   6.039   3.231  0.8468  0.3103  1.9304
  804MOL0     H 6113   1.652   6.179   3.218  5.4143 -0.7293  3.8043
  804MOL0     H 6114   3.188   6.048   2.460 -0.8627 -0.3297  0.2442
  804MOL0     H 6115   3.442   6.084   2.526 -1.5007  0.0061 -3.0078
  804MOL0     H 6116   3.703   6.616   2.569  0.4035  2.2000  2.3706
  804MOL0     H 6117   3.894   6.691   2.652  0.6123  0.1172 -3.2508
  804MOL0     H 6118   4.095   6.733   2.743  0.7408 -0.4949  2.3151
  804MOL0     H 6119   4.131   6.643   2.598 -0.6232  2.5843 -0.4924
  804MOL0     H 6120   4.318   6.647   2.851  3.4122  1.5094  0.2890
  804MOL0     H 6121   4.350   6.563   2.703 -0.0992 -0.3223 -0.9815
  804MOL0     H 6122   4.362   6.788   2.575 -0.3611 -0.4802 -0.5457
  804MOL0     H 6123   4.472   6.795   2.720 -1.7227  0.5131  2.1565
  804MOL0     H 6124   4.372   6.998   2.681  1.9767 -1.2382  1.0325
  804MOL0     H 6125   4.205   6.936   2.698  0.3896 -0.5532  0.2821
  804MOL0     H 6126   4.329   7.006   3.082 -1.9653 -0.7283  0.9174
  804MOL0     H 6127   3.975   6.298   2.822 -3.6187 -0.6546  2.4626
  804MOL0     H 6128   3.764   6.227   2.747 -1.3293  1.1716  0.8716
  805MOL0     O 6129  11.210   5.971   4.282 -0.5023  0.3387  0.2611
  805MOL0     C 6130  11.277   6.002   4.382 -0.2670 -0.0452 -0.7327
  805MOL0     O 6131  11.237   6.091   4.483 -0.1853 -0.1499 -0.4403
  805MOL0     C 6132  11.111   6.154   4.488  0.1108 -0.1769  0.6845
  805MOL0     C 6133  11.091   6.248   4.594 -0.3470  0.7580  0.8849
  805MOL0     C 6134  10.963   6.297   4.620 -0.2613 -0.2835  0.8430
  805MOL0     C 6135  10.859   6.270   4.537  0.3465 -0.0017  0.6642
  805MOL0     O 6136  10.734   6.328   4.565 -0.2739  0.4006 -0.6099
  805MOL0     C 6137  10.711   6.409   4.682 -0.2856  0.2810  0.5420
  805MOL0     C 6138  10.562   6.439   4.701  0.0229  0.5735 -0.3715
  805MOL0     C 6139  10.508   6.509   4.580  0.0833  0.2773 -0.3209
  805MOL0     C 6140  10.355   6.531   4.583  0.6251  0.9705  0.0651
  805MOL0     C 6141  10.320   6.664   4.517  0.1474 -0.4188 -1.2210
  805MOL0     C 6142  10.175   6.673   4.484 -0.7715 -1.5252  0.1296
  805MOL0     C 6143  10.148   6.775   4.380 -0.2996 -0.1704  1.2116
  805MOL0     C 6144   9.999   6.813   4.381 -0.2032  0.2269  0.1661
  805MOL0     N 6145   9.924   6.704   4.316  0.2820 -0.4373 -0.4302
  805MOL0     C 6146   9.831   6.623   4.385  0.9639  0.5805 -0.6604
  805MOL0     C 6147   9.776   6.542   4.283 -0.5894 -0.1852 -0.1454
  805MOL0     C 6148   9.656   6.462   4.321  0.1074  0.8340  0.8857
  805MOL0     C 6149   9.645   6.326   4.254 -0.2490  0.7452  0.4270
  805MOL0     C 6150   9.541   6.240   4.332  0.2149 -0.6808  0.7109
  805MOL0     C 6151   9.489   6.128   4.243  0.1436  0.4579  0.4032
  805MOL0     O 6152   9.412   6.029   4.323  0.1571 -0.4974 -0.1397
  805MOL0     C 6153   9.278   6.014   4.287  0.4209 -0.8170 -0.1492
  805MOL0     C 6154   9.185   6.046   4.382 -0.1967  0.4062  0.3268
  805MOL0     C 6155   9.052   6.048   4.339 -0.1486 -0.0755 -0.3215
  805MOL0     C 6156   9.006   6.019   4.207 -0.4280  0.1879  0.4341
  805MOL0     C 6157   8.863   6.018   4.178 -0.0503  0.3525  0.1024
  805MOL0     O 6158   8.783   6.053   4.276  0.5208  0.4750 -0.9442
  805MOL0     C 6159   8.652   6.006   4.263 -0.4688 -0.1707  0.6376
  805MOL0     C 6160   8.556   6.096   4.223  1.1061 -0.1262 -0.3095
  805MOL0     C 6161   8.423   6.060   4.212 -0.2971 -0.2969  0.1251
  805MOL0     C 6162   8.383   5.923   4.235 -0.4921 -0.1375  0.0808
  805MOL0     O 6163   8.259   5.862   4.217 -0.4961 -0.4532  0.5112
  805MOL0     C 6164   8.191   5.891   4.104 -0.0567 -0.4325  0.1940
  805MOL0     C 6165   8.217   5.792   4.001 -0.4839  0.3297  0.0860
  805MOL0     C 6166   8.115   5.673   4.018 -0.1401 -1.3218  0.3830
  805MOL0     C 6167   8.127   5.553   3.919  0.3435 -0.1804  0.6146
  805MOL0     C 6168   8.141   5.598   3.772 -0.0462 -0.0751  0.1449
  805MOL0     C 6169   8.145   5.474   3.680 -0.0992 -0.4169 -0.3427
  805MOL0     C 6170   8.165   5.523   3.535  0.0029 -0.4365 -0.4203
  805MOL0     C 6171   8.170   5.392   3.451  1.0490  0.8167 -0.5740
  805MOL0    Cl 6172   8.179   5.432   3.277 -0.2568 -0.3823 -0.3749
  805MOL0     C 6173   8.487   5.830   4.269 -0.2943 -1.0662 -0.0173
  805MOL0     C 6174   8.619   5.870   4.287 -0.0835  0.4582  0.4008
  805MOL0     O 6175   8.824   5.991   4.061 -0.2120  0.9652 -0.3858
  805MOL0     C 6176   9.108   5.980   4.115 -0.1378  0.4016  0.3335
  805MOL0     C 6177   9.242   5.980   4.153  0.8148  0.6546 -0.4520
  805MOL0     N 6178   9.829   6.599   4.163  0.4115 -0.7325 -0.1614
  805MOL0     N 6179   9.925   6.690   4.184 -0.1464  0.4963  0.4960
  805MOL0     C 6180  10.877   6.192   4.421  0.7430  0.3668 -0.6281
  805MOL0     C 6181  10.991   6.124   4.409 -0.6426  0.3143  1.0046
  805MOL0     C 6182  11.406   5.933   4.410  0.8297  0.1864 -0.9176
  805MOL0     C 6183  11.496   5.974   4.513  0.3930 -0.2969 -0.2160
  805MOL0     C 6184  11.608   5.903   4.550 -0.1323  0.4877 -0.0204
  805MOL0     C 6185  11.651   5.792   4.476 -0.1992 -1.0356  0.0470
  805MOL0     O 6186  11.761   5.733   4.527 -0.3189  0.3385  0.1006
  805MOL0     C 6187  11.786   5.602   4.470  0.0006 -0.4012 -0.5030
  805MOL0     C 6188  11.849   5.624   4.327 -0.1211  0.4869  0.8875
  805MOL0     C 6189  11.998   5.649   4.317 -1.0892  0.3056  0.6195
  805MOL0     C 6190  12.064   5.515   4.300 -0.6767 -0.7790  0.6492
  805MOL0     C 6191  12.193   5.532   4.225  0.7077 -0.1213  0.9649
  805MOL0     C 6192  12.303   5.542   4.170  1.2752 -0.0132 -0.7452
  805MOL0     C 6193  11.558   5.752   4.379  0.6904 -0.5222  0.3399
  805MOL0     C 6194  11.441   5.811   4.347  0.7576 -0.1207 -0.2637
  805MOL0     H 6195  11.172   6.270   4.663  0.0460 -1.8917  1.3668
  805MOL0     H 6196  10.953   6.361   4.707  4.3564  0.4857  1.0784
  805MOL0     H 6197  10.762   6.506   4.678  1.8860 -0.7548  1.4373
  805MOL0     H 6198  10.743   6.350   4.769 -1.8391 -2.4457 -0.6216
  805MOL0     H 6199  10.544   6.494   4.794  1.1976  1.7356 -0.7911
  805MOL0     H 6200  10.515   6.342   4.717 -0.3795  0.7823 -0.2707
  805MOL0     H 6201  10.541   6.469   4.484  2.3214 -1.9249  1.2615
  805MOL0     H 6202  10.547   6.611   4.588 -0.1710  0.4656 -1.3153
  805MOL0     H 6203  10.301   6.445   4.540  2.4773 -0.8294  1.1489
  805MOL0     H 6204  10.326   6.532   4.688  1.6632 -0.5167  0.3981
  805MOL0     H 6205  10.378   6.665   4.425  2.5841  0.8913  0.1934
  805MOL0     H 6206  10.350   6.752   4.575  0.5705 -0.1212 -1.8901
  805MOL0     H 6207  10.123   6.699   4.577 -1.5324  0.5653 -0.8264
  805MOL0     H 6208  10.139   6.572   4.460 -0.9695 -2.0000  2.1810
  805MOL0     H 6209  10.210   6.864   4.392  0.0572 -0.4699  1.6356
  805MOL0     H 6210  10.165   6.740   4.278  0.2098 -0.0826  1.2608
  805MOL0     H 6211   9.986   6.906   4.324 -1.5462 -0.9144 -1.4860
  805MOL0     H 6212   9.966   6.838   4.482 -1.3509  0.2102 -0.1883
  805MOL0     H 6213   9.813   6.621   4.492 -0.9628 -0.6972 -0.9389
  805MOL0     H 6214   9.561   6.509   4.296  1.1140  1.9407 -1.1319
  805MOL0     H 6215   9.649   6.455   4.430  0.0488 -3.4897  0.7974
  805MOL0     H 6216   9.744   6.281   4.240 -0.7188 -0.0158 -0.5837
  805MOL0     H 6217   9.611   6.332   4.150  0.5441  0.8747  0.1655
  805MOL0     H 6218   9.585   6.175   4.408  0.2726 -2.0585 -0.4589
  805MOL0     H 6219   9.462   6.300   4.378 -1.5840  0.5601 -3.4869
  805MOL0     H 6220   9.573   6.076   4.196 -0.5354  0.3008 -0.6736
  805MOL0     H 6221   9.421   6.174   4.171 -2.9299  0.7457  3.3095
  805MOL0     H 6222   9.215   6.066   4.484  1.0679  2.7708 -0.4230
  805MOL0     H 6223   8.978   6.077   4.413  1.9125  2.9765  0.7289
  805MOL0     H 6224   8.583   6.200   4.209 -1.9586  0.6010 -1.6440
  805MOL0     H 6225   8.342   6.128   4.185 -1.5073 -1.5166  0.5554
  805MOL0     H 6226   8.222   5.991   4.071  2.4422 -0.4463  2.1839
  805MOL0     H 6227   8.083   5.897   4.120  0.0025 -1.4193  1.0608
  805MOL0     H 6228   8.319   5.756   3.989 -1.5309 -3.8700  1.8120
  805MOL0     H 6229   8.187   5.838   3.907 -0.3217  2.7761  1.1554
  805MOL0     H 6230   8.017   5.718   4.003  0.7153  1.1255  1.5263
  805MOL0     H 6231   8.118   5.637   4.121  0.2305 -1.7303  0.2314
  805MOL0     H 6232   8.210   5.485   3.942 -0.3645 -2.5779 -3.1954
  805MOL0     H 6233   8.036   5.496   3.935  0.7325 -1.1430 -0.4609
  805MOL0     H 6234   8.236   5.652   3.764  2.3804 -3.4867  2.9262
  805MOL0     H 6235   8.048   5.654   3.755 -1.4881 -1.9266  1.4765
  805MOL0     H 6236   8.048   5.427   3.699  0.1656 -0.7872  0.1392
  805MOL0     H 6237   8.223   5.400   3.700 -0.1146 -0.4053 -0.2378
  805MOL0     H 6238   8.091   5.596   3.502  3.2709  1.9789 -3.0932
  805MOL0     H 6239   8.259   5.579   3.529 -1.9976  3.0884 -1.9661
  805MOL0     H 6240   8.087   5.322   3.463  1.0319  0.9565  0.1482
  805MOL0     H 6241   8.261   5.338   3.477  0.2209 -0.5952 -0.5123
  805MOL0     H 6242   8.456   5.727   4.277  0.9844 -1.4837 -0.2352
  805MOL0     H 6243   8.700   5.802   4.311  0.9947  0.7473 -2.0711
  805MOL0     H 6244   9.076   5.972   4.011 -0.0048 -0.0887  0.3258
  805MOL0     H 6245   9.314   5.946   4.080 -1.1207  0.2703 -2.2664
  805MOL0     H 6246  10.796   6.160   4.357 -2.0457  0.8781  2.3670
  805MOL0     H 6247  10.990   6.044   4.336 -0.2342 -1.2229  2.6082
  805MOL0     H 6248  11.478   6.067   4.565  0.0334  0.0292 -0.9149
  805MOL0     H 6249  11.664   5.936   4.637  1.6623  0.4761 -1.1368
  805MOL0     H 6250  11.693   5.545   4.458  0.1127 -1.1378  1.6761
  805MOL0     H 6251  11.863   5.541   4.518  1.6912 -1.0576 -3.7421
  805MOL0     H 6252  11.816   5.531   4.280 -1.7706 -0.4452  3.6813
  805MOL0     H 6253  11.800   5.705   4.273 -0.5150 -0.1464  0.2840
  805MOL0     H 6254  12.041   5.711   4.395 -0.4151  0.9571 -0.2447
  805MOL0     H 6255  12.018   5.712   4.230  4.6305  0.9336  1.9914
  805MOL0     H 6256  12.096   5.467   4.393 -0.2156  0.9243  1.4058
  805MOL0     H 6257  12.011   5.443   4.237  2.5410 -0.9656 -2.1275
  805MOL0     H 6258  12.408   5.540   4.148  2.1333 -1.4399  2.7499
  805MOL0     H 6259  11.573   5.667   4.313  0.6590 -1.3647  1.3905
  805MOL0     H 6260  11.384   5.749   4.279 -4.3172  1.0134  2.3731
  806MOL0     O 6261   7.000   4.685   2.535 -0.0569  0.0784 -0.9505
  806MOL0     C 6262   6.999   4.730   2.647  0.4692  0.0195 -0.1420
  806MOL0     O 6263   6.941   4.655   2.752 -0.2497 -0.7479  0.3651
  806MOL0     C 6264   6.866   4.549   2.737  1.0937  1.4242 -0.4475
  806MOL0     C 6265   6.877   4.436   2.825  0.6733 -0.2431  0.1797
  806MOL0     C 6266   6.786   4.328   2.802  0.7048 -0.4710 -0.1192
  806MOL0     C 6267   6.683   4.333   2.712 -0.3638  0.2396  0.3685
  806MOL0     O 6268   6.598   4.228   2.700 -0.2325 -0.8603  0.4067
  806MOL0     C 6269   6.464   4.253   2.647 -0.6173 -0.6441 -0.3586
  806MOL0     C 6270   6.371   4.141   2.679 -0.7679  1.0660  0.6315
  806MOL0     C 6271   6.230   4.157   2.636  0.5555 -0.0212  0.6399
  806MOL0     C 6272   6.165   4.023   2.601 -0.0465 -0.1430 -0.1650
  806MOL0     C 6273   6.018   4.040   2.589 -0.2090 -0.5469 -0.7149
  806MOL0     C 6274   5.956   3.901   2.595 -0.6015 -0.0687 -0.4348
  806MOL0     C 6275   5.803   3.903   2.581  0.2732 -0.2808 -0.5673
  806MOL0     C 6276   5.759   3.891   2.435  0.6284  0.6736 -0.4708
  806MOL0     N 6277   5.615   3.867   2.418 -0.3708 -0.3854  1.5710
  806MOL0     C 6278   5.513   3.961   2.414  0.1738  0.2503 -0.1351
  806MOL0     C 6279   5.395   3.888   2.400  0.3996 -0.0021 -0.0971
  806MOL0     C 6280   5.261   3.960   2.388  0.0349  0.2577 -0.8012
  806MOL0     C 6281   5.223   3.954   2.246 -0.2082 -0.0229  0.0093
  806MOL0     C 6282   5.115   4.051   2.205  0.1474 -0.1272 -0.3177
  806MOL0     C 6283   4.985   4.067   2.294  0.4017 -0.9569 -0.5205
  806MOL0     O 6284   4.896   4.181   2.252  0.4795 -0.4103  0.2631
  806MOL0     C 6285   4.783   4.200   2.331  0.0931  0.4934  0.4459
  806MOL0     C 6286   4.700   4.299   2.281 -0.0796 -0.7210  0.0563
  806MOL0     C 6287   4.580   4.330   2.339 -0.7141 -0.2657  0.3018
  806MOL0     C 6288   4.532   4.262   2.449 -0.4286  0.1058 -0.0365
  806MOL0     C 6289   4.407   4.305   2.523  0.1395 -0.3589  1.1121
  806MOL0     O 6290   4.378   4.433   2.521 -0.5798  0.1299 -0.1784
  806MOL0     C 6291   4.265   4.479   2.587  1.0781 -0.4813  0.3736
  806MOL0     C 6292   4.136   4.412   2.587 -0.5923  0.2995  0.2619
  806MOL0     C 6293   4.025   4.458   2.643  0.9232  0.3178 -0.4028
  806MOL0     C 6294   4.022   4.578   2.701  0.4352 -0.1302 -1.3763
  806MOL0     O 6295   3.902   4.625   2.749  0.6613 -0.9583 -0.0642
  806MOL0     C 6296   3.882   4.755   2.807  0.5092  0.3647 -0.1711
  806MOL0     C 6297   3.754   4.774   2.895 -0.0771  0.4558  0.7243
  806MOL0     C 6298   3.779   4.870   3.004  0.4696  0.1307  1.0601
  806MOL0     C 6299   3.653   4.882   3.092  0.1462 -0.5074  0.8929
  806MOL0     C 6300   3.678   4.968   3.215 -0.0038 -0.4518  1.0955
  806MOL0     C 6301   3.764   4.904   3.330 -0.1388 -0.3860  0.0082
  806MOL0     C 6302   3.775   4.976   3.459 -0.1547  0.2495 -0.0000
  806MOL0     C 6303   3.848   4.896   3.569 -0.0619 -0.0174 -0.6331
  806MOL0    Cl 6304   3.792   4.932   3.738 -0.2036  0.3147  0.0629
  806MOL0     C 6305   4.139   4.654   2.699  0.2720 -0.2061 -0.2492
  806MOL0     C 6306   4.259   4.609   2.643  0.4424 -0.1214  0.4206
  806MOL0     O 6307   4.358   4.225   2.600  0.5135 -0.5292 -0.0404
  806MOL0     C 6308   4.601   4.148   2.491 -0.3665  0.3002 -0.3280
  806MOL0     C 6309   4.727   4.118   2.439 -1.1187  0.3178  0.7179
  806MOL0     N 6310   5.423   3.753   2.395  0.5373 -0.2178  0.2482
  806MOL0     N 6311   5.554   3.748   2.383 -0.7731 -0.4597 -0.2974
  806MOL0     C 6312   6.684   4.437   2.625 -0.0657  0.2788  0.0585
  806MOL0     C 6313   6.772   4.547   2.636  0.4261  0.2965  0.8383
  806MOL0     C 6314   7.068   4.855   2.690 -0.1927  0.3547 -0.0258
  806MOL0     C 6315   7.140   4.931   2.608 -0.2541 -0.1482  0.4183
  806MOL0     C 6316   7.207   5.044   2.644  0.0776  0.3567 -1.1432
  806MOL0     C 6317   7.204   5.084   2.778  0.0070  0.0302  0.0782
  806MOL0     O 6318   7.281   5.193   2.823  0.3968 -0.0232 -0.6869
  806MOL0     C 6319   7.227   5.313   2.774 -0.1682  1.0263 -0.3025
  806MOL0     C 6320   7.326   5.432   2.788  0.1519  0.2840  0.8800
  806MOL0     C 6321   7.261   5.549   2.872 -0.1036  0.2697  0.4263
  806MOL0     C 6322   7.347   5.675   2.873 -0.3166 -0.3129  0.5373
  806MOL0     C 6323   7.305   5.760   2.983 -0.3076  0.5313 -0.4796
  806MOL0     C 6324   7.256   5.825   3.060 -0.2902 -0.1920 -0.8883
  806MOL0     C 6325   7.138   5.004   2.872  0.1524  0.1696  0.1138
  806MOL0     C 6326   7.065   4.893   2.828  0.0923 -0.4165  0.2904
  806MOL0     H 6327   6.961   4.416   2.890 -1.2714  1.6813  3.5859
  806MOL0     H 6328   6.784   4.236   2.860  0.1071 -0.4151 -0.0522
  806MOL0     H 6329   6.468   4.269   2.539 -1.0393 -1.7195 -0.5450
  806MOL0     H 6330   6.416   4.344   2.685  1.8058  0.8497 -0.6599
  806MOL0     H 6331   6.381   4.136   2.787 -0.2029 -0.0450  0.5409
  806MOL0     H 6332   6.397   4.052   2.621 -1.0067  3.7000 -4.0850
  806MOL0     H 6333   6.221   4.227   2.552  3.1242  1.1985  1.2639
  806MOL0     H 6334   6.172   4.208   2.714 -1.3478  0.6215 -1.1195
  806MOL0     H 6335   6.192   3.971   2.508 -1.9277 -1.8825  0.1911
  806MOL0     H 6336   6.191   3.952   2.680 -1.8425 -0.4566  0.1906
  806MOL0     H 6337   5.990   4.085   2.493 -1.2289  1.3944  0.4341
  806MOL0     H 6338   5.972   4.098   2.669 -2.3263 -2.7345 -0.2341
  806MOL0     H 6339   5.971   3.849   2.690  0.2297 -0.2415 -0.6607
  806MOL0     H 6340   5.995   3.835   2.517  0.2005 -0.9425  0.6744
  806MOL0     H 6341   5.753   3.818   2.630 -0.9124 -0.3753 -1.8575
  806MOL0     H 6342   5.750   3.986   2.628  0.1869  0.0867 -1.3028
  806MOL0     H 6343   5.807   3.803   2.392  3.1503  1.1202  1.2300
  806MOL0     H 6344   5.798   3.981   2.386  2.6612 -0.8236 -1.7616
  806MOL0     H 6345   5.522   4.069   2.414 -0.5018  0.5854 -5.2740
  806MOL0     H 6346   5.290   4.063   2.412  1.2067 -0.3305  0.4317
  806MOL0     H 6347   5.195   3.914   2.461  0.7478  2.4660  1.3788
  806MOL0     H 6348   5.192   3.852   2.225 -1.0272 -0.2088  1.8639
  806MOL0     H 6349   5.314   3.983   2.192  0.4478  3.3844  2.5450
  806MOL0     H 6350   5.157   4.152   2.209  2.4647 -0.9917 -1.4001
  806MOL0     H 6351   5.074   4.029   2.106 -2.3881  3.3877 -0.2603
  806MOL0     H 6352   5.017   4.067   2.399 -1.8407  2.1360  0.2921
  806MOL0     H 6353   4.916   3.982   2.290 -1.0561  0.2404 -1.8398
  806MOL0     H 6354   4.737   4.360   2.199 -2.4850 -0.1588 -0.7050
  806MOL0     H 6355   4.534   4.417   2.294  1.5709  1.8386  1.7689
  806MOL0     H 6356   4.123   4.313   2.544  1.1908  0.8075 -1.5868
  806MOL0     H 6357   3.928   4.412   2.627  0.1079  1.2459  1.4908
  806MOL0     H 6358   3.887   4.827   2.725  2.2031 -2.1150 -2.4203
  806MOL0     H 6359   3.966   4.771   2.876 -0.1810  0.4344  0.6815
  806MOL0     H 6360   3.721   4.675   2.927 -0.4739 -0.3887 -1.9906
  806MOL0     H 6361   3.670   4.807   2.833  0.2605  1.0706  0.5842
  806MOL0     H 6362   3.822   4.963   2.965  1.9824 -0.5912  0.9261
  806MOL0     H 6363   3.862   4.835   3.065  2.1117  2.0732  0.0530
  806MOL0     H 6364   3.568   4.911   3.029 -2.5963 -3.7371  2.7134
  806MOL0     H 6365   3.634   4.781   3.130 -1.6099 -1.3475 -1.8870
  806MOL0     H 6366   3.574   4.980   3.249 -1.2508  0.9119 -2.7328
  806MOL0     H 6367   3.719   5.066   3.193  4.1762 -2.3231 -0.3933
  806MOL0     H 6368   3.865   4.888   3.289  0.1200  3.3847 -1.2413
  806MOL0     H 6369   3.716   4.809   3.354 -0.8628 -0.1270 -0.3908
  806MOL0     H 6370   3.834   5.067   3.447  1.4849 -0.5795  1.3769
  806MOL0     H 6371   3.673   5.005   3.487 -0.0637 -0.2699  0.9149
  806MOL0     H 6372   3.953   4.926   3.563  0.4686 -1.6774 -0.2368
  806MOL0     H 6373   3.857   4.787   3.562  0.7929 -0.2315  2.2744
  806MOL0     H 6374   4.134   4.749   2.751 -1.1064 -0.1722 -0.4083
  806MOL0     H 6375   4.356   4.658   2.648  0.9572 -1.0112 -0.5277
  806MOL0     H 6376   4.556   4.089   2.571 -0.2190 -0.1558 -0.5761
  806MOL0     H 6377   4.789   4.036   2.474  0.3840  0.3443 -1.6319
  806MOL0     H 6378   6.604   4.449   2.552  1.4122  2.4940 -1.3180
  806MOL0     H 6379   6.763   4.627   2.562  0.8066  1.5873  2.1368
  806MOL0     H 6380   7.153   4.888   2.509 -2.4115  0.9641 -0.4033
  806MOL0     H 6381   7.271   5.104   2.580  1.4745  1.8704  1.4740
  806MOL0     H 6382   7.137   5.341   2.830  1.1961  2.7428  1.1496
  806MOL0     H 6383   7.197   5.299   2.669  1.1836  1.5065 -0.7823
  806MOL0     H 6384   7.428   5.409   2.822  0.0074 -2.1677 -0.1936
  806MOL0     H 6385   7.340   5.482   2.692 -0.6313 -1.6253 -0.2713
  806MOL0     H 6386   7.245   5.496   2.967  0.1190 -5.3675 -2.2347
  806MOL0     H 6387   7.164   5.583   2.835  1.3578  1.0358 -3.1282
  806MOL0     H 6388   7.452   5.647   2.883 -0.8767 -2.4997  0.7886
  806MOL0     H 6389   7.338   5.738   2.785 -1.5796  1.6563  1.9863
  806MOL0     H 6390   7.223   5.899   3.131 -0.1598 -0.0523 -0.9734
  806MOL0     H 6391   7.142   5.027   2.978 -1.3918 -1.2517  0.5326
  806MOL0     H 6392   6.995   4.843   2.895 -2.1014  0.0599 -1.5053
  807MOL0     O 6393   9.990   6.461   9.658 -0.1980  0.5338  0.0089
  807MOL0     C 6394   9.983   6.413   9.777 -1.0374 -0.3528 -0.5173
  807MOL0     O 6395   9.875   6.369   9.840 -0.0182 -0.0816  0.3067
  807MOL0     C 6396   9.755   6.394   9.781  0.0465 -0.5298  0.1278
  807MOL0     C 6397   9.705   6.305   9.683 -0.3582  0.0844 -0.6386
  807MOL0     C 6398   9.585   6.337   9.618 -0.2836 -0.2103  0.0582
  807MOL0     C 6399   9.514   6.456   9.647  0.0495  0.5956 -0.5336
  807MOL0     O 6400   9.403   6.498   9.585 -0.3867 -0.0339 -0.0532
  807MOL0     C 6401   9.345   6.421   9.475  0.0553 -0.6134 -0.3072
  807MOL0     C 6402   9.260   6.510   9.396 -0.7545 -1.0193 -0.7100
  807MOL0     C 6403   9.131   6.562   9.468 -0.7627  0.1593 -0.2888
  807MOL0     C 6404   9.057   6.652   9.368 -0.1560  0.7515 -0.1978
  807MOL0     C 6405   8.918   6.681   9.429  0.1817 -1.0057  0.0803
  807MOL0     C 6406   8.837   6.769   9.331 -0.5904 -0.1686  0.2740
  807MOL0     C 6407   8.709   6.820   9.407  0.3201  0.0731 -0.1051
  807MOL0     C 6408   8.622   6.906   9.316 -0.1593  0.0372  0.5288
  807MOL0     N 6409   8.484   6.921   9.363 -0.6817 -0.4345  0.4929
  807MOL0     C 6410   8.417   7.030   9.343  0.0281 -0.9735 -0.6619
  807MOL0     C 6411   8.290   7.011   9.395 -0.8239 -0.4304  0.3139
  807MOL0     C 6412   8.174   7.102   9.377  0.3795  0.5149 -0.0395
  807MOL0     C 6413   8.029   7.055   9.428 -0.6512  0.1272  1.7379
  807MOL0     C 6414   7.981   6.926   9.362  0.1904  0.7192  0.3857
  807MOL0     C 6415   7.825   6.912   9.394 -0.4086 -0.3128  0.0777
  807MOL0     O 6416   7.751   7.028   9.364  0.3124  1.1208  0.1473
  807MOL0     C 6417   7.625   7.038   9.418 -0.2637  0.7319  0.8002
  807MOL0     C 6418   7.525   6.945   9.384 -0.5256 -0.4471 -0.1326
  807MOL0     C 6419   7.399   6.958   9.437  0.1626  0.1279 -0.3078
  807MOL0     C 6420   7.364   7.073   9.514  0.3062 -0.1583 -0.0951
  807MOL0     C 6421   7.226   7.088   9.569  0.5677 -0.6736 -0.5011
  807MOL0     O 6422   7.198   7.209   9.609  0.4229 -0.8517  0.1583
  807MOL0     C 6423   7.069   7.235   9.653 -0.0325 -0.5274 -0.3722
  807MOL0     C 6424   6.976   7.294   9.563  0.5717 -0.3231  0.1502
  807MOL0     C 6425   6.850   7.346   9.598  0.9284  0.1325  0.0453
  807MOL0     C 6426   6.802   7.319   9.730 -0.2520  0.1881 -0.9387
  807MOL0     O 6427   6.675   7.351   9.766 -0.4517  0.0687 -0.5436
  807MOL0     C 6428   6.677   7.482   9.840  0.3791  0.2283  0.3100
  807MOL0     C 6429   6.702   7.471   9.987  0.0572  0.3506  0.3911
  807MOL0     C 6430   6.589   7.408  10.075 -0.1781  0.5225  0.9154
  807MOL0     C 6431   6.520   7.287  10.005 -0.4775  0.0757  0.0838
  807MOL0     C 6432   6.443   7.176  10.087 -0.6502  0.4916  0.8005
  807MOL0     C 6433   6.296   7.203  10.106 -0.1897  0.2137  0.0879
  807MOL0     C 6434   6.262   7.156  10.243 -0.6120  0.1757  0.1797
  807MOL0     C 6435   6.108   7.186  10.270 -0.2182 -0.2459 -0.1240
  807MOL0    Cl 6436   6.100   7.365  10.290 -0.3328  0.2079  0.1731
  807MOL0     C 6437   6.892   7.250   9.818  0.0691  0.2379  0.3662
  807MOL0     C 6438   7.023   7.215   9.787 -0.3339  0.0276  0.4778
  807MOL0     O 6439   7.149   6.988   9.597  0.0305 -0.1404  0.7213
  807MOL0     C 6440   7.464   7.166   9.540  0.1832 -1.2227  0.6472
  807MOL0     C 6441   7.597   7.147   9.494  0.5200 -0.8300 -0.2395
  807MOL0     N 6442   8.293   6.882   9.448  0.0964  0.2836 -0.6623
  807MOL0     N 6443   8.405   6.823   9.427 -0.2857  0.3099  0.7776
  807MOL0     C 6444   9.579   6.543   9.736 -0.5347  0.0153 -0.1403
  807MOL0     C 6445   9.695   6.518   9.800 -0.7607 -0.0150  0.2454
  807MOL0     C 6446  10.124   6.402   9.847  0.6443  0.8676 -0.1702
  807MOL0     C 6447  10.133   6.356   9.978 -1.2524  0.9254  0.5623
  807MOL0     C 6448  10.263   6.340  10.031  1.3701 -0.3569 -0.5291
  807MOL0     C 6449  10.373   6.386   9.967 -0.6331 -0.2076  0.9643
  807MOL0     O 6450  10.496   6.354  10.018 -1.1693  0.4150 -0.9542
  807MOL0     C 6451  10.629   6.370   9.962  0.7174  0.3653 -0.2071
  807MOL0     C 6452  10.694   6.516   9.970  0.4736 -0.0674 -0.3318
  807MOL0     C 6453  10.807   6.523   9.865  0.0728 -0.0038  0.2955
  807MOL0     C 6454  10.767   6.557   9.722  1.3376 -0.0177 -0.4129
  807MOL0     C 6455  10.882   6.558   9.630  0.7578 -0.5149 -1.0823
  807MOL0     C 6456  10.968   6.552   9.553 -0.4501 -0.7942 -0.4919
  807MOL0     C 6457  10.369   6.438   9.845 -0.8010 -0.2499  0.0706
  807MOL0     C 6458  10.243   6.448   9.782 -0.0857 -0.7567 -0.0044
  807MOL0     H 6459   9.763   6.216   9.661 -3.1931 -2.2121  0.4974
  807MOL0     H 6460   9.553   6.266   9.542  1.0527  0.8540 -1.5809
  807MOL0     H 6461   9.292   6.333   9.512  0.2934 -0.8526 -0.5262
  807MOL0     H 6462   9.420   6.382   9.406  1.4217  2.5860 -0.8255
  807MOL0     H 6463   9.221   6.460   9.307  2.2926 -0.1773 -2.6825
  807MOL0     H 6464   9.317   6.599   9.368 -0.1877 -0.5651  1.6868
  807MOL0     H 6465   9.157   6.610   9.562  0.1276 -2.2578  0.7775
  807MOL0     H 6466   9.075   6.472   9.495  2.5835 -1.6132  1.4259
  807MOL0     H 6467   9.108   6.746   9.347  0.1655  0.6501  0.1098
  807MOL0     H 6468   9.046   6.594   9.276 -0.2791  1.4172 -0.6037
  807MOL0     H 6469   8.915   6.730   9.527  2.2112  1.9413 -1.2080
  807MOL0     H 6470   8.875   6.581   9.441 -1.0647 -0.2944  1.9216
  807MOL0     H 6471   8.815   6.704   9.246  1.9369 -5.0727  2.9413
  807MOL0     H 6472   8.890   6.857   9.293  2.7627 -1.7333  0.9663
  807MOL0     H 6473   8.656   6.730   9.438  0.7741  0.0324  0.5604
  807MOL0     H 6474   8.743   6.874   9.496 -0.3730  1.5289 -0.7020
  807MOL0     H 6475   8.614   6.865   9.215  0.4150  2.0964 -0.4061
  807MOL0     H 6476   8.664   7.008   9.310  1.8008 -0.5475  2.6196
  807MOL0     H 6477   8.443   7.119   9.285 -2.1353  1.5117  1.8610
  807MOL0     H 6478   8.170   7.107   9.268  2.3957  1.2357 -0.1291
  807MOL0     H 6479   8.188   7.206   9.409 -2.5265  1.4765 -1.5201
  807MOL0     H 6480   7.959   7.136   9.404 -0.9541 -0.6547 -0.1768
  807MOL0     H 6481   8.034   7.050   9.537  4.8404  0.6948  1.7923
  807MOL0     H 6482   8.001   6.928   9.255 -2.3419  3.7908 -0.1844
  807MOL0     H 6483   8.037   6.846   9.410  1.8252  0.7417 -1.3702
  807MOL0     H 6484   7.820   6.892   9.501  1.9326  1.5680  0.6389
  807MOL0     H 6485   7.793   6.819   9.346  0.7217 -1.0957  0.7860
  807MOL0     H 6486   7.557   6.863   9.321  0.0264  0.5456 -1.1799
  807MOL0     H 6487   7.316   6.888   9.425 -1.9878  2.5612 -0.5196
  807MOL0     H 6488   7.014   7.295   9.461 -0.0965 -2.9538 -0.2147
  807MOL0     H 6489   6.794   7.397   9.520 -0.8476  2.1324  2.4265
  807MOL0     H 6490   6.585   7.539   9.830  0.5225  0.0967 -3.0044
  807MOL0     H 6491   6.751   7.545   9.790  0.2364 -0.5856 -0.9853
  807MOL0     H 6492   6.714   7.574  10.021  4.4350 -0.4127  1.7527
  807MOL0     H 6493   6.793   7.417  10.014  0.0583 -1.1210 -2.2058
  807MOL0     H 6494   6.511   7.481  10.098 -2.0702 -1.6194  1.7050
  807MOL0     H 6495   6.628   7.373  10.171 -0.2331 -0.6631  0.5326
  807MOL0     H 6496   6.462   7.298   9.913 -1.2625 -2.3618  0.1987
  807MOL0     H 6497   6.610   7.236   9.970 -0.2370  0.6938 -0.2043
  807MOL0     H 6498   6.503   7.163  10.177  5.2266 -1.8926 -2.8478
  807MOL0     H 6499   6.442   7.083  10.030 -3.5913  0.1059  1.3269
  807MOL0     H 6500   6.245   7.146  10.027  0.4570  1.0474 -0.9545
  807MOL0     H 6501   6.285   7.310  10.091  1.6233  0.1836 -2.0921
  807MOL0     H 6502   6.292   7.051  10.250 -2.2763 -0.4173 -0.8865
  807MOL0     H 6503   6.324   7.222  10.305  0.4792 -0.1829 -0.5051
  807MOL0     H 6504   6.061   7.141  10.358  0.2922 -1.3907 -0.4134
  807MOL0     H 6505   6.051   7.164  10.179 -1.7889  1.8211  0.2691
  807MOL0     H 6506   6.866   7.230   9.921  1.7727 -0.6788  0.6566
  807MOL0     H 6507   7.092   7.181   9.863 -0.3279  1.9834  1.4090
  807MOL0     H 6508   7.422   7.251   9.594  0.1519  1.2484 -2.9440
  807MOL0     H 6509   7.674   7.219   9.520  0.8762  0.1905 -3.6928
  807MOL0     H 6510   9.522   6.627   9.775 -1.5445 -0.7428  0.0589
  807MOL0     H 6511   9.737   6.579   9.879  0.2134  0.7790 -0.8521
  807MOL0     H 6512  10.048   6.321  10.036  0.9006  0.6239  3.8365
  807MOL0     H 6513  10.274   6.289  10.126  1.3425 -2.2174 -1.4752
  807MOL0     H 6514  10.621   6.337   9.858 -0.9247 -0.8523  0.2598
  807MOL0     H 6515  10.696   6.306  10.019  0.0054  0.2466  0.5290
  807MOL0     H 6516  10.631   6.600   9.941 -1.3572 -1.5097 -0.7560
  807MOL0     H 6517  10.715   6.519  10.077  2.6602  1.0380 -0.7295
  807MOL0     H 6518  10.860   6.427   9.866 -1.2360 -0.7447  0.1662
  807MOL0     H 6519  10.864   6.615   9.883 -1.1918  0.8014  0.3595
  807MOL0     H 6520  10.695   6.486   9.680  0.6948  1.5099 -2.0299
  807MOL0     H 6521  10.712   6.652   9.724 -2.4339 -1.9944  0.7146
  807MOL0     H 6522  11.045   6.543   9.479  2.0087  0.0638  1.8075
  807MOL0     H 6523  10.461   6.456   9.791 -0.6748 -0.0394  0.3564
  807MOL0     H 6524  10.239   6.490   9.682  0.1985  0.3176  0.4240
  808MOL0     O 6525   0.680   6.117   9.354  0.2215  0.8631 -0.1931
  808MOL0     C 6526   0.799   6.085   9.358  0.0847  0.6432  0.2262
  808MOL0     O 6527   0.907   6.159   9.311 -0.0600  0.6848 -0.7559
  808MOL0     C 6528   0.884   6.273   9.239  0.1076  0.9195 -0.3703
  808MOL0     C 6529   0.985   6.311   9.152 -0.0399  0.0654 -0.1848
  808MOL0     C 6530   0.986   6.438   9.081 -0.1032  0.4141 -0.5001
  808MOL0     C 6531   0.880   6.525   9.093 -0.7280  0.2606  0.0667
  808MOL0     O 6532   0.872   6.644   9.026 -0.6981 -0.2153 -0.3493
  808MOL0     C 6533   0.994   6.727   9.016  0.1704  0.6381  1.2963
  808MOL0     C 6534   0.962   6.877   8.982 -0.2065  0.4810 -0.4338
  808MOL0     C 6535   0.893   6.903   8.846  0.7676  0.3423  0.1232
  808MOL0     C 6536   0.985   6.871   8.725  0.1738 -0.3551 -0.9060
  808MOL0     C 6537   0.898   6.896   8.598 -0.3038 -0.1102 -0.2958
  808MOL0     C 6538   0.849   6.763   8.542  0.1774  0.4407  0.1978
  808MOL0     C 6539   0.937   6.713   8.423 -0.2707 -0.3336 -0.0219
  808MOL0     C 6540   0.882   6.611   8.325  0.5440 -0.5911 -0.8626
  808MOL0     N 6541   0.736   6.611   8.297 -0.0168 -0.5022  0.1590
  808MOL0     C 6542   0.679   6.649   8.182  0.1849  0.2403  0.7805
  808MOL0     C 6543   0.546   6.636   8.201  0.2056  0.2150 -0.6032
  808MOL0     C 6544   0.435   6.679   8.108  0.1259  0.0819  0.2639
  808MOL0     C 6545   0.309   6.616   8.142  0.6438  0.5098  0.0871
  808MOL0     C 6546   0.197   6.674   8.049  0.2838 -0.2231 -0.4170
  808MOL0     C 6547   0.048   6.658   8.099 -0.1200  0.5185 -0.3405
  808MOL0     O 6548  -0.026   6.729   8.004  0.5424  0.2871  0.2565
  808MOL0     C 6549  -0.160   6.719   8.001 -0.0932 -0.1332  0.0960
  808MOL0     C 6550  -0.216   6.790   7.901 -0.0922  0.4074  0.0808
  808MOL0     C 6551  -0.355   6.770   7.871 -0.2078  0.2164 -0.0715
  808MOL0     C 6552  -0.449   6.706   7.954 -0.6444 -0.3044 -0.9620
  808MOL0     C 6553  -0.596   6.698   7.918 -0.1207 -0.7037  0.0117
  808MOL0     O 6554  -0.669   6.622   8.000 -0.3781  0.2223 -0.5877
  808MOL0     C 6555  -0.805   6.633   7.973  0.0846 -0.0507 -0.7078
  808MOL0     C 6556  -0.873   6.695   8.074  0.3833  0.1784 -1.2265
  808MOL0     C 6557  -1.011   6.710   8.065  0.4507  0.3681 -0.0891
  808MOL0     C 6558  -1.085   6.656   7.955 -1.5408  0.5311  0.4096
  808MOL0     O 6559  -1.221   6.669   7.955  0.6375  0.5651 -0.9978
  808MOL0     C 6560  -1.303   6.571   7.886 -0.4207 -0.7669 -0.0070
  808MOL0     C 6561  -1.443   6.627   7.907 -0.3327 -0.3713 -0.5202
  808MOL0     C 6562  -1.544   6.579   7.809  0.0996  1.0000  0.4795
  808MOL0     C 6563  -1.552   6.424   7.795 -0.9146  0.1575 -0.9331
  808MOL0     C 6564  -1.604   6.365   7.921 -0.1556  0.1743 -0.3929
  808MOL0     C 6565  -1.742   6.402   7.964  0.3705  0.1913 -0.1061
  808MOL0     C 6566  -1.859   6.392   7.848  0.1321 -1.0563 -0.1011
  808MOL0     C 6567  -1.997   6.422   7.891 -0.5095  0.6400 -0.2683
  808MOL0    Cl 6568  -2.028   6.579   7.965 -0.5565 -0.1355 -0.0603
  808MOL0     C 6569  -1.006   6.576   7.867  0.7450 -0.1631  0.5632
  808MOL0     C 6570  -0.872   6.562   7.873 -0.3251  0.2879  0.4759
  808MOL0     O 6571  -0.640   6.756   7.819 -0.2777  0.1590  0.5689
  808MOL0     C 6572  -0.387   6.648   8.071  1.0200  0.8005  1.3134
  808MOL0     C 6573  -0.241   6.638   8.079 -0.2412  0.0987 -0.8742
  808MOL0     N 6574   0.523   6.582   8.327 -0.0186 -0.7651 -0.3060
  808MOL0     N 6575   0.635   6.575   8.386 -0.2632 -1.1461 -0.2496
  808MOL0     C 6576   0.784   6.490   9.179 -0.3559  0.8074 -0.1032
  808MOL0     C 6577   0.777   6.365   9.250 -0.5006 -0.0065  0.7593
  808MOL0     C 6578   0.822   5.953   9.434 -0.6366  0.6372 -0.2648
  808MOL0     C 6579   0.952   5.896   9.449 -0.1250  0.1639  0.1043
  808MOL0     C 6580   0.968   5.775   9.511  0.4223 -0.4633 -0.7554
  808MOL0     C 6581   0.860   5.711   9.573  0.5307 -0.1018 -0.3163
  808MOL0     O 6582   0.878   5.592   9.640  0.1433  0.0170  0.0065
  808MOL0     C 6583   0.817   5.480   9.578  0.0027 -0.0379 -0.1532
  808MOL0     C 6584   0.869   5.449   9.435 -0.1731 -0.3266  1.1077
  808MOL0     C 6585   0.838   5.317   9.377  0.6874  0.3057 -0.5596
  808MOL0     C 6586   0.834   5.320   9.225 -0.2925  0.2642  0.4067
  808MOL0     C 6587   0.804   5.190   9.164  0.2196  0.1229 -1.1127
  808MOL0     C 6588   0.770   5.090   9.106  0.8250  0.8392 -0.2619
  808MOL0     C 6589   0.731   5.764   9.561  0.3590  0.2002 -0.2296
  808MOL0     C 6590   0.714   5.874   9.476  0.3053 -0.1291 -0.4330
  808MOL0     H 6591   1.064   6.238   9.137  1.5263  1.6112  0.2702
  808MOL0     H 6592   1.073   6.456   9.018 -1.2877  1.6120 -1.8510
  808MOL0     H 6593   1.055   6.680   8.938 -1.4370 -2.4599  1.7289
  808MOL0     H 6594   1.056   6.731   9.106 -0.5473  0.1645  1.8268
  808MOL0     H 6595   1.060   6.925   8.987 -0.3484  0.7560 -0.2328
  808MOL0     H 6596   0.897   6.928   9.054 -0.2604  1.7655 -1.3660
  808MOL0     H 6597   0.860   7.006   8.830  0.4255  0.0337 -1.2791
  808MOL0     H 6598   0.798   6.849   8.851  1.3878 -0.7905 -0.0660
  808MOL0     H 6599   1.073   6.934   8.735  1.2007 -1.9094  0.2148
  808MOL0     H 6600   1.014   6.766   8.737 -1.8619 -0.7408  1.4614
  808MOL0     H 6601   0.966   6.952   8.533  0.3564 -0.4469  0.0916
  808MOL0     H 6602   0.814   6.965   8.615  0.8329  1.4662 -0.8225
  808MOL0     H 6603   0.753   6.794   8.499 -0.0625  1.0600  1.1430
  808MOL0     H 6604   0.837   6.681   8.613 -1.3767  0.5466  0.0930
  808MOL0     H 6605   0.958   6.803   8.364  0.7802  0.8241  1.9811
  808MOL0     H 6606   1.037   6.683   8.457 -2.3961 -3.7341  4.2332
  808MOL0     H 6607   0.904   6.510   8.360  0.3228  0.3412  2.2412
  808MOL0     H 6608   0.947   6.630   8.239 -0.0325  2.3474 -0.7493
  808MOL0     H 6609   0.729   6.683   8.092 -1.0093  0.2218  0.0779
  808MOL0     H 6610   0.472   6.683   8.005 -1.2395  2.3552 -0.2043
  808MOL0     H 6611   0.419   6.787   8.120 -2.5602  0.0665 -2.0549
  808MOL0     H 6612   0.276   6.631   8.245 -0.9258 -2.2004  0.0865
  808MOL0     H 6613   0.308   6.507   8.127 -0.1926 -0.2236  4.3116
  808MOL0     H 6614   0.220   6.779   8.031  0.0949  0.2415  1.7069
  808MOL0     H 6615   0.207   6.628   7.950  1.1939  4.0395 -2.5127
  808MOL0     H 6616   0.028   6.707   8.195 -3.7502  2.1002 -1.7105
  808MOL0     H 6617   0.025   6.552   8.107 -0.4502  0.7117  2.0958
  808MOL0     H 6618  -0.149   6.841   7.832 -0.8114  2.8802  1.1251
  808MOL0     H 6619  -0.389   6.823   7.782  1.7896 -0.7370 -1.4993
  808MOL0     H 6620  -0.822   6.745   8.156  0.7346 -0.7802 -0.8482
  808MOL0     H 6621  -1.067   6.774   8.132 -1.4816  1.1958 -2.3718
  808MOL0     H 6622  -1.299   6.478   7.944  0.0029  1.2296  3.4713
  808MOL0     H 6623  -1.288   6.559   7.779 -1.9101 -0.5146 -0.2633
  808MOL0     H 6624  -1.454   6.735   7.894 -2.4868 -0.3704  0.7739
  808MOL0     H 6625  -1.464   6.615   8.014  2.1698 -0.2552  0.0536
  808MOL0     H 6626  -1.517   6.618   7.710  0.3939 -0.1951  0.0686
  808MOL0     H 6627  -1.646   6.612   7.828 -0.7165 -0.8559 -0.4295
  808MOL0     H 6628  -1.613   6.381   7.715 -1.7929 -0.1927 -0.0966
  808MOL0     H 6629  -1.458   6.376   7.766 -1.5913 -1.8527  0.0861
  808MOL0     H 6630  -1.539   6.382   8.007 -1.1532 -1.7100  0.8047
  808MOL0     H 6631  -1.595   6.259   7.895 -2.0785  0.3993 -2.2523
  808MOL0     H 6632  -1.746   6.507   7.994  0.1806  0.4051 -0.8630
  808MOL0     H 6633  -1.768   6.346   8.055  0.4292  1.0444  0.4505
  808MOL0     H 6634  -1.833   6.454   7.762  0.6865 -3.6902 -1.9749
  808MOL0     H 6635  -1.868   6.294   7.799 -0.4847 -0.8535 -0.4043
  808MOL0     H 6636  -2.024   6.340   7.958  2.3812  0.7277  1.1798
  808MOL0     H 6637  -2.064   6.420   7.804 -1.8248  3.7504  0.5337
  808MOL0     H 6638  -1.073   6.528   7.796 -0.4880  1.6587  0.4135
  808MOL0     H 6639  -0.815   6.503   7.802  0.3290  3.0950 -1.4938
  808MOL0     H 6640  -0.451   6.594   8.140 -0.2019 -0.0557 -0.4076
  808MOL0     H 6641  -0.187   6.603   8.166 -0.5841  1.3552 -0.1300
  808MOL0     H 6642   0.698   6.554   9.195 -2.4881 -1.4275 -1.9863
  808MOL0     H 6643   0.702   6.349   9.327 -0.0436  0.3146  1.2802
  808MOL0     H 6644   1.040   5.936   9.400  0.4663  0.5153  1.4155
  808MOL0     H 6645   1.068   5.736   9.531  1.1931  2.5664  2.3854
  808MOL0     H 6646   0.709   5.496   9.569 -0.1758 -0.0407  1.6083
  808MOL0     H 6647   0.828   5.389   9.637 -0.0577  0.1423  0.1338
  808MOL0     H 6648   0.821   5.520   9.367 -0.3491 -1.0816  0.4194
  808MOL0     H 6649   0.978   5.452   9.428 -0.2192 -1.5296 -2.8971
  808MOL0     H 6650   0.740   5.286   9.413 -0.1746  3.2628 -0.0844
  808MOL0     H 6651   0.919   5.261   9.425  1.4084  4.0500  3.2502
  808MOL0     H 6652   0.760   5.394   9.192 -4.2546 -3.1227  0.8540
  808MOL0     H 6653   0.935   5.339   9.188  0.4732  3.1097  3.4286
  808MOL0     H 6654   0.730   5.008   9.049 -0.6886  1.5910 -0.3361
  808MOL0     H 6655   0.645   5.710   9.600  0.6934  2.1029  3.6511
  808MOL0     H 6656   0.610   5.904   9.469  0.2367  0.9530  3.2219
  809MOL0     O 6657   2.756   4.791   9.155 -0.0613 -0.0062  0.3197
  809MOL0     C 6658   2.727   4.686   9.087  0.2292  0.6165  0.0804
  809MOL0     O 6659   2.814   4.627   8.998  0.2631 -0.4447 -0.1132
  809MOL0     C 6660   2.946   4.675   8.991  0.6251 -0.2513 -0.5136
  809MOL0     C 6661   2.995   4.756   8.887  0.1019 -0.1468  0.5970
  809MOL0     C 6662   3.126   4.796   8.888  0.0592 -1.0536 -0.2599
  809MOL0     C 6663   3.222   4.746   8.982  0.1191 -0.0168 -1.1032
  809MOL0     O 6664   3.347   4.797   8.964  0.6922 -0.7282  0.5593
  809MOL0     C 6665   3.441   4.798   9.075  0.8548  1.1947  0.0530
  809MOL0     C 6666   3.509   4.936   9.061 -0.4481 -0.5265 -0.0507
  809MOL0     C 6667   3.612   4.933   8.945 -0.2951  0.1056  0.0307
  809MOL0     C 6668   3.742   5.008   8.985  0.2833  0.1660 -0.3389
  809MOL0     C 6669   3.859   4.978   8.892 -0.0442 -0.0528 -0.3245
  809MOL0     C 6670   3.954   4.876   8.959  0.4944  0.2336  0.6074
  809MOL0     C 6671   4.084   4.870   8.882 -0.4212 -0.5054 -0.3019
  809MOL0     C 6672   4.183   4.768   8.950 -0.0511  0.4917 -0.8026
  809MOL0     N 6673   4.193   4.773   9.098  0.3594 -0.9877  0.3623
  809MOL0     C 6674   4.236   4.885   9.162  0.2340  0.2251  0.0900
  809MOL0     C 6675   4.215   4.858   9.288  0.6914  0.6779 -0.3852
  809MOL0     C 6676   4.266   4.949   9.400 -1.0140  0.4357  0.0172
  809MOL0     C 6677   4.170   5.068   9.411 -0.0496  0.8280 -0.3950
  809MOL0     C 6678   4.086   5.060   9.547 -0.1691  0.4595  0.9408
  809MOL0     C 6679   3.991   5.176   9.556  0.2037 -0.4715  0.0315
  809MOL0     O 6680   3.900   5.176   9.444 -0.0778 -0.6637  0.1752
  809MOL0     C 6681   3.793   5.088   9.441 -0.1241 -0.2968 -0.5110
  809MOL0     C 6682   3.683   5.117   9.519  0.3422 -1.2008  0.4886
  809MOL0     C 6683   3.575   5.021   9.514 -0.6843 -0.6593  0.0607
  809MOL0     C 6684   3.582   4.906   9.436  0.5960 -0.1147 -0.9867
  809MOL0     C 6685   3.488   4.799   9.448  0.1737  0.6331  0.9492
  809MOL0     O 6686   3.380   4.835   9.517 -0.0285 -0.0048 -0.8394
  809MOL0     C 6687   3.266   4.754   9.500  0.3562 -0.5251 -0.0706
  809MOL0     C 6688   3.245   4.627   9.553 -0.2059 -0.2027  0.5944
  809MOL0     C 6689   3.135   4.547   9.530  0.4024 -0.0383 -0.0687
  809MOL0     C 6690   3.030   4.604   9.461  0.5899  0.3305  0.4780
  809MOL0     O 6691   2.916   4.535   9.421 -0.0848  1.0202 -0.0946
  809MOL0     C 6692   2.869   4.423   9.489  0.6722  0.5220  0.0614
  809MOL0     C 6693   2.737   4.400   9.401  0.8137  0.0665 -0.4855
  809MOL0     C 6694   2.672   4.257   9.428 -0.4288 -0.4116 -1.0284
  809MOL0     C 6695   2.548   4.227   9.354 -0.4262  0.2238  0.1796
  809MOL0     C 6696   2.491   4.089   9.375  0.0078  0.9375 -0.7624
  809MOL0     C 6697   2.399   4.072   9.503  0.1069  0.0769 -0.1359
  809MOL0     C 6698   2.337   3.934   9.516 -0.4299  0.3643  0.3673
  809MOL0     C 6699   2.249   3.898   9.397  1.1954 -0.2332  1.1221
  809MOL0    Cl 6700   2.115   4.018   9.352 -0.3048 -0.1086 -0.3174
  809MOL0     C 6701   3.045   4.727   9.404  0.3538  0.9210  0.8438
  809MOL0     C 6702   3.160   4.801   9.428 -0.6540 -0.0731 -0.0974
  809MOL0     O 6703   3.499   4.692   9.383 -0.1103  0.2870  0.5596
  809MOL0     C 6704   3.694   4.880   9.360  0.1097  0.2081  0.4011
  809MOL0     C 6705   3.796   4.968   9.367 -0.6129 -0.5764 -0.7758
  809MOL0     N 6706   4.142   4.742   9.305  0.1018 -0.4768 -0.1118
  809MOL0     N 6707   4.123   4.693   9.193  0.1791 -0.1754 -0.4730
  809MOL0     C 6708   3.180   4.656   9.083 -0.2584 -0.3758  0.0446
  809MOL0     C 6709   3.042   4.615   9.083  1.0282  0.2033 -0.4783
  809MOL0     C 6710   2.593   4.625   9.091  0.2969 -0.5458 -0.5507
  809MOL0     C 6711   2.492   4.690   9.165 -0.4247  0.3075 -0.2624
  809MOL0     C 6712   2.367   4.624   9.181 -0.1214 -0.0332 -1.1105
  809MOL0     C 6713   2.340   4.503   9.125  0.4774  0.0389 -0.5389
  809MOL0     O 6714   2.218   4.445   9.161 -1.1909 -0.5242  0.0795
  809MOL0     C 6715   2.183   4.333   9.094 -0.3591  0.1006 -0.0500
  809MOL0     C 6716   2.032   4.300   9.111  0.0316  0.9411  0.3891
  809MOL0     C 6717   1.941   4.415   9.074 -0.7939 -0.6415  0.3898
  809MOL0     C 6718   1.791   4.396   9.100  0.9301 -0.2467  0.3931
  809MOL0     C 6719   1.718   4.525   9.098 -0.4517 -0.7161 -0.8833
  809MOL0     C 6720   1.640   4.620   9.095  0.8803 -0.1603  0.4184
  809MOL0     C 6721   2.442   4.440   9.055 -0.4492 -0.5166  0.7976
  809MOL0     C 6722   2.571   4.503   9.038 -0.3079  0.9328  0.1505
  809MOL0     H 6723   2.936   4.803   8.808  5.2976  1.6936 -2.7079
  809MOL0     H 6724   3.178   4.865   8.822  0.1116 -1.4004 -0.5866
  809MOL0     H 6725   3.500   4.706   9.073 -4.3058 -2.5612 -2.7761
  809MOL0     H 6726   3.379   4.794   9.165 -2.0840  0.9002 -1.8564
  809MOL0     H 6727   3.548   4.968   9.158 -4.4865  1.5597  1.0687
  809MOL0     H 6728   3.435   5.014   9.041 -2.5370 -0.9480  4.6724
  809MOL0     H 6729   3.574   4.969   8.849  0.2216 -1.9171 -0.9995
  809MOL0     H 6730   3.636   4.828   8.925 -0.6875 -0.5210  2.5810
  809MOL0     H 6731   3.718   5.114   8.967 -1.9940 -0.3903 -0.8712
  809MOL0     H 6732   3.764   4.992   9.091  2.7544 -1.5596 -1.0422
  809MOL0     H 6733   3.918   5.068   8.874 -1.0828  0.5347 -0.8888
  809MOL0     H 6734   3.836   4.931   8.797 -1.3735  3.8412 -2.1385
  809MOL0     H 6735   3.897   4.785   8.943  2.4734 -0.7677 -1.1921
  809MOL0     H 6736   3.970   4.896   9.066  0.6272 -1.1690  0.8596
  809MOL0     H 6737   4.055   4.836   8.782  1.7963 -0.0973 -1.1319
  809MOL0     H 6738   4.131   4.963   8.849  1.0214 -1.4713 -1.0812
  809MOL0     H 6739   4.280   4.786   8.903  1.0234 -1.9339  0.3290
  809MOL0     H 6740   4.148   4.666   8.932  0.4613 -0.6966  3.8268
  809MOL0     H 6741   4.280   4.978   9.128 -1.9192  1.1324 -0.3812
  809MOL0     H 6742   4.360   4.998   9.373 -1.7017  2.8680  1.6492
  809MOL0     H 6743   4.289   4.902   9.496 -0.1976  0.0326 -0.3713
  809MOL0     H 6744   4.107   5.081   9.323 -3.4436  0.4973  1.7849
  809MOL0     H 6745   4.227   5.161   9.414  2.3510 -0.5215 -1.2521
  809MOL0     H 6746   4.030   4.966   9.536 -1.5345  1.5674 -3.7873
  809MOL0     H 6747   4.159   5.075   9.627  2.1763  0.3094 -1.0429
  809MOL0     H 6748   4.043   5.272   9.552 -2.5770  1.2183  1.2789
  809MOL0     H 6749   3.939   5.172   9.652  2.2252  1.6732  1.3063
  809MOL0     H 6750   3.673   5.204   9.583 -1.5357 -1.6487  0.8864
  809MOL0     H 6751   3.492   5.056   9.575  0.1863  1.7830 -0.0384
  809MOL0     H 6752   3.326   4.592   9.617 -1.9941 -0.1497  3.0345
  809MOL0     H 6753   3.119   4.445   9.564 -0.7081  0.5054  1.0987
  809MOL0     H 6754   2.849   4.446   9.594  0.5239  1.6847 -0.2133
  809MOL0     H 6755   2.942   4.344   9.470  1.6942  1.0067  1.7953
  809MOL0     H 6756   2.770   4.389   9.297 -2.1354 -2.7462 -1.2927
  809MOL0     H 6757   2.662   4.479   9.412  1.6401  0.8392 -0.2525
  809MOL0     H 6758   2.644   4.259   9.533  2.2066 -0.0227 -0.2470
  809MOL0     H 6759   2.748   4.182   9.403 -0.5052 -0.1594 -2.0533
  809MOL0     H 6760   2.469   4.296   9.386 -0.7329 -1.6450  3.8925
  809MOL0     H 6761   2.562   4.239   9.246 -1.5620 -1.9761 -0.2643
  809MOL0     H 6762   2.569   4.012   9.380  0.3283  1.1768 -1.8887
  809MOL0     H 6763   2.436   4.061   9.285  1.0593 -1.4999 -0.7109
  809MOL0     H 6764   2.316   4.142   9.492 -2.5928 -2.7585  0.6931
  809MOL0     H 6765   2.461   4.107   9.586  0.2551 -1.6426  0.5177
  809MOL0     H 6766   2.419   3.869   9.546 -0.0431  0.5686 -0.2255
  809MOL0     H 6767   2.265   3.935   9.599 -2.3096 -3.8192 -0.9517
  809MOL0     H 6768   2.196   3.806   9.426  1.6696 -1.7190 -2.2132
  809MOL0     H 6769   2.310   3.875   9.309  0.4788  0.9381  0.2900
  809MOL0     H 6770   2.969   4.760   9.334  0.6804 -0.8964 -0.4503
  809MOL0     H 6771   3.161   4.903   9.392 -2.9877  0.5239  1.2848
  809MOL0     H 6772   3.701   4.779   9.319  0.6285  1.1802 -2.0870
  809MOL0     H 6773   3.893   4.937   9.329  0.6252 -0.9248  2.3773
  809MOL0     H 6774   3.250   4.617   9.156  0.8989 -0.3896 -1.0309
  809MOL0     H 6775   2.987   4.554   9.155  1.8502  1.3944  1.2367
  809MOL0     H 6776   2.499   4.791   9.206 -0.0983  0.7551 -1.3704
  809MOL0     H 6777   2.297   4.686   9.237 -0.5892 -1.9469  0.5179
  809MOL0     H 6778   2.243   4.247   9.124 -0.3238  1.4156  4.4515
  809MOL0     H 6779   2.193   4.349   8.986  0.9892  0.0953  0.0575
  809MOL0     H 6780   2.007   4.225   9.036  2.9040 -0.2777  0.5272
  809MOL0     H 6781   2.006   4.246   9.203 -2.0316 -0.6064 -0.9966
  809MOL0     H 6782   1.953   4.443   8.969 -1.0728 -1.8090  0.0295
  809MOL0     H 6783   1.975   4.502   9.131  3.8690 -2.0391  0.1385
  809MOL0     H 6784   1.751   4.344   9.012  0.8022  1.1949 -0.4428
  809MOL0     H 6785   1.765   4.340   9.190  2.4871 -0.1236  0.9411
  809MOL0     H 6786   1.571   4.701   9.083 -0.3891 -0.9927  1.7220
  809MOL0     H 6787   2.415   4.347   9.006  0.3700  0.4268 -1.5667
  809MOL0     H 6788   2.651   4.445   8.993  0.1931  1.9335 -0.2604
  810MOL0     O 6789   1.031   7.863   7.516  0.0166 -0.2574  0.4056
  810MOL0     C 6790   1.120   7.787   7.532 -0.3148  0.2105  0.3065
  810MOL0     O 6791   1.137   7.698   7.636 -0.7778  0.1062 -0.1648
  810MOL0     C 6792   1.037   7.671   7.734 -0.4078 -0.2989 -0.1395
  810MOL0     C 6793   1.078   7.685   7.867  0.5988  0.1535  0.0412
  810MOL0     C 6794   0.981   7.670   7.972  0.1411  0.5219 -0.1504
  810MOL0     C 6795   0.848   7.654   7.936 -0.8878 -0.6672  0.5108
  810MOL0     O 6796   0.751   7.620   8.025  0.0319 -0.1762  0.2045
  810MOL0     C 6797   0.760   7.483   8.062 -0.2298  0.6646 -0.0018
  810MOL0     C 6798   0.868   7.451   8.173  0.1854 -0.3920  0.2174
  810MOL0     C 6799   0.847   7.519   8.293 -0.2706 -0.5213 -0.1634
  810MOL0     C 6800   0.955   7.473   8.386  0.0948  0.2258  0.6927
  810MOL0     C 6801   1.086   7.563   8.374  0.2165 -0.0847 -0.2888
  810MOL0     C 6802   1.066   7.687   8.465 -0.1026  0.0334 -0.0865
  810MOL0     C 6803   1.164   7.794   8.420  0.1092  0.6786 -0.3863
  810MOL0     C 6804   1.141   7.903   8.523 -0.8520  0.3553  0.3003
  810MOL0     N 6805   1.248   8.000   8.511 -0.1897 -0.8621  0.0618
  810MOL0     C 6806   1.259   8.085   8.403  0.6049  0.3146 -1.6464
  810MOL0     C 6807   1.379   8.142   8.421  0.6956 -0.2559 -1.8782
  810MOL0     C 6808   1.451   8.221   8.318  0.2151 -0.2701 -0.2028
  810MOL0     C 6809   1.593   8.163   8.300  0.5281  0.1966 -0.1001
  810MOL0     C 6810   1.599   8.018   8.247 -0.0486  0.0432  0.1968
  810MOL0     C 6811   1.746   7.987   8.209  0.8409  0.2118  0.6334
  810MOL0     O 6812   1.791   8.066   8.087 -0.1412  0.0194 -0.5498
  810MOL0     C 6813   1.918   8.104   8.097 -0.6037 -0.6587  0.3893
  810MOL0     C 6814   1.962   8.231   8.052  0.3740  0.2365 -0.6566
  810MOL0     C 6815   2.099   8.270   8.054 -0.2036 -0.3691  1.2803
  810MOL0     C 6816   2.202   8.177   8.078 -0.0028  0.1748 -0.1266
  810MOL0     C 6817   2.348   8.213   8.080 -0.0381  0.4070 -0.8508
  810MOL0     O 6818   2.439   8.110   8.062 -0.4015 -0.6892  0.2438
  810MOL0     C 6819   2.574   8.136   8.056 -1.0535 -0.2553  0.8298
  810MOL0     C 6820   2.649   8.029   7.998  0.4012 -0.7989 -0.7164
  810MOL0     C 6821   2.788   8.038   7.983  0.5827  0.4347  0.2693
  810MOL0     C 6822   2.867   8.153   8.016  0.7199  0.7706 -0.3800
  810MOL0     O 6823   2.999   8.157   8.010  0.2258  0.0339  0.7799
  810MOL0     C 6824   3.070   8.034   7.960 -0.6212 -0.4893  0.4006
  810MOL0     C 6825   3.223   8.069   7.970  0.1874 -0.8359  0.4998
  810MOL0     C 6826   3.311   7.975   7.899  0.1802 -0.8595  0.3600
  810MOL0     C 6827   3.458   7.992   7.943  0.1648 -0.6534 -0.2429
  810MOL0     C 6828   3.546   7.891   7.871 -0.2272 -0.2292  0.4185
  810MOL0     C 6829   3.666   7.868   7.958  0.3775  0.7445 -0.4731
  810MOL0     C 6830   3.746   7.749   7.923  0.4739  0.8961  0.3619
  810MOL0     C 6831   3.872   7.741   7.996 -0.3984  0.2124 -0.2424
  810MOL0    Cl 6832   3.954   7.583   7.986  0.0283  0.2747 -0.1103
  810MOL0     C 6833   2.789   8.259   8.079  0.2439 -0.2940 -0.4561
  810MOL0     C 6834   2.651   8.250   8.099 -0.4394  0.0222  0.0031
  810MOL0     O 6835   2.375   8.333   8.101 -0.6525  0.5933  0.8743
  810MOL0     C 6836   2.169   8.052   8.124  0.2316 -0.1413 -0.5256
  810MOL0     C 6837   2.029   8.014   8.135  1.7841 -0.0385  0.9196
  810MOL0     N 6838   1.438   8.106   8.539 -0.6282 -0.2643 -0.5805
  810MOL0     N 6839   1.353   8.022   8.602  0.9902  0.3546  1.3903
  810MOL0     C 6840   0.815   7.639   7.801 -0.0154 -0.2932  0.6143
  810MOL0     C 6841   0.912   7.648   7.701 -0.1880 -0.3038 -0.6817
  810MOL0     C 6842   1.229   7.812   7.438 -0.3800 -0.4022 -0.4737
  810MOL0     C 6843   1.338   7.726   7.439 -0.0184  0.9194  0.6095
  810MOL0     C 6844   1.451   7.738   7.362 -0.4394  0.8780 -0.1052
  810MOL0     C 6845   1.453   7.842   7.267  1.2452 -0.0581  0.4142
  810MOL0     O 6846   1.574   7.871   7.196  0.4861  0.0045 -0.6178
  810MOL0     C 6847   1.565   7.969   7.090  0.9929 -0.7585  1.0285
  810MOL0     C 6848   1.701   7.970   7.014 -0.6718  0.4741  0.7466
  810MOL0     C 6849   1.832   7.998   7.099  0.2568 -1.7415 -0.1778
  810MOL0     C 6850   1.854   8.145   7.117  0.2101 -0.0511  0.3966
  810MOL0     C 6851   1.982   8.187   7.182  0.0818  1.2864 -0.3130
  810MOL0     C 6852   2.083   8.205   7.243  0.3283 -0.0598 -1.4789
  810MOL0     C 6853   1.335   7.915   7.248  0.7296  0.4494  0.9019
  810MOL0     C 6854   1.238   7.909   7.340  0.4685 -0.4004 -0.2144
  810MOL0     H 6855   1.183   7.684   7.896  1.0332  0.1929 -1.4201
  810MOL0     H 6856   1.001   7.687   8.078  2.5736  1.7035 -0.7184
  810MOL0     H 6857   0.782   7.428   7.970  3.8863  0.6779  0.7948
  810MOL0     H 6858   0.666   7.450   8.107 -0.9284 -1.9468 -2.9894
  810MOL0     H 6859   0.971   7.458   8.136  0.0875 -2.3740 -0.5543
  810MOL0     H 6860   0.854   7.346   8.199 -0.8889  0.0127  1.3531
  810MOL0     H 6861   0.753   7.486   8.337 -0.4060 -1.2932 -1.0111
  810MOL0     H 6862   0.848   7.628   8.279 -0.3456 -0.5854 -0.6878
  810MOL0     H 6863   0.923   7.473   8.491 -1.4990  0.5419  0.2301
  810MOL0     H 6864   0.987   7.371   8.365 -1.8083 -0.1463 -0.6854
  810MOL0     H 6865   1.095   7.591   8.269 -2.8658  1.3188 -0.2904
  810MOL0     H 6866   1.176   7.507   8.404  1.1891  2.0964  1.1118
  810MOL0     H 6867   1.078   7.649   8.566  3.2052  2.7482  0.7433
  810MOL0     H 6868   0.967   7.732   8.459  0.2936  0.9157 -0.2086
  810MOL0     H 6869   1.262   7.748   8.436 -1.5406 -2.5105  1.8852
  810MOL0     H 6870   1.134   7.821   8.319  2.2783 -3.0386 -2.2329
  810MOL0     H 6871   1.163   7.860   8.621  1.2088  0.3035 -0.1419
  810MOL0     H 6872   1.036   7.933   8.527 -2.6637 -4.9835  4.9157
  810MOL0     H 6873   1.200   8.087   8.312  0.8942  0.1740 -1.8385
  810MOL0     H 6874   1.448   8.328   8.344  0.4506  0.3036 -2.3437
  810MOL0     H 6875   1.391   8.207   8.227 -1.1127  2.6390  0.0918
  810MOL0     H 6876   1.640   8.162   8.398 -0.2694 -1.9886  0.3209
  810MOL0     H 6877   1.643   8.232   8.232 -1.1106 -1.0842 -2.8145
  810MOL0     H 6878   1.556   7.942   8.313 -1.1958  1.6988  1.4343
  810MOL0     H 6879   1.536   8.017   8.158 -1.7135  1.4529  1.2997
  810MOL0     H 6880   1.745   7.879   8.195 -3.8186 -0.5686  4.5928
  810MOL0     H 6881   1.809   8.005   8.297  0.8882 -1.8963  1.0762
  810MOL0     H 6882   1.891   8.308   8.024  0.6089  1.0828  0.9200
  810MOL0     H 6883   2.129   8.370   8.026 -0.9860 -1.1481 -3.1721
  810MOL0     H 6884   2.595   7.944   7.958  0.8804 -0.4260 -2.2159
  810MOL0     H 6885   2.839   7.955   7.937 -0.4397 -0.1358  0.1381
  810MOL0     H 6886   3.058   8.025   7.852  1.5245 -1.3237  0.1891
  810MOL0     H 6887   3.055   7.939   8.012  1.4095 -0.5138  1.0140
  810MOL0     H 6888   3.232   8.067   8.079 -0.0476  3.7544  0.8254
  810MOL0     H 6889   3.245   8.172   7.938  1.6624 -1.2651  0.0623
  810MOL0     H 6890   3.296   8.005   7.795 -2.0337  1.2923  1.2051
  810MOL0     H 6891   3.287   7.870   7.919  3.1401 -1.7844 -0.4207
  810MOL0     H 6892   3.496   8.093   7.928 -2.5106  0.3578 -0.6296
  810MOL0     H 6893   3.465   7.964   8.048  2.0481 -1.4602 -0.5333
  810MOL0     H 6894   3.571   7.924   7.769 -0.3113 -1.8972 -0.1686
  810MOL0     H 6895   3.498   7.796   7.845  2.0887 -0.6234 -3.0823
  810MOL0     H 6896   3.634   7.852   8.061 -1.7192  4.0978 -0.4637
  810MOL0     H 6897   3.722   7.962   7.956 -0.9240  1.5603  0.2466
  810MOL0     H 6898   3.685   7.668   7.962  0.4191  1.3295  1.1992
  810MOL0     H 6899   3.757   7.744   7.814 -0.9740 -3.0810  0.2507
  810MOL0     H 6900   3.873   7.780   8.098  1.3804 -2.7469  0.9859
  810MOL0     H 6901   3.942   7.812   7.952 -0.4806  0.6019  0.2488
  810MOL0     H 6902   2.842   8.352   8.096 -3.3156  1.7425  0.4917
  810MOL0     H 6903   2.601   8.334   8.145  1.4042  1.0434  0.2420
  810MOL0     H 6904   2.238   7.974   8.155 -1.4795 -1.8005 -0.6389
  810MOL0     H 6905   1.999   7.914   8.163 -5.1252  1.3211  0.1934
  810MOL0     H 6906   0.709   7.627   7.782  0.1934 -1.3010  0.0131
  810MOL0     H 6907   0.873   7.649   7.600 -4.9673  0.2438  0.8995
  810MOL0     H 6908   1.342   7.650   7.517  0.2276  0.3916  0.0902
  810MOL0     H 6909   1.544   7.683   7.371 -1.5414 -0.9710  0.6202
  810MOL0     H 6910   1.532   8.066   7.129  1.5802 -0.3887  0.6297
  810MOL0     H 6911   1.502   7.936   7.007  2.1005  2.1649 -1.1722
  810MOL0     H 6912   1.719   7.876   6.961  2.4804  2.7890 -2.9110
  810MOL0     H 6913   1.698   8.047   6.936 -0.3400  0.4269  0.6843
  810MOL0     H 6914   1.920   7.954   7.052  1.2518  0.6947 -0.7327
  810MOL0     H 6915   1.818   7.953   7.198 -2.0187  0.5419  0.6523
  810MOL0     H 6916   1.838   8.186   7.017 -3.0563 -1.6150  0.1391
  810MOL0     H 6917   1.773   8.189   7.175  0.5480  0.5476  0.4201
  810MOL0     H 6918   2.177   8.210   7.294 -0.2770  1.1298 -0.4351
  810MOL0     H 6919   1.312   7.988   7.171 -0.2443 -0.3902  0.3819
  810MOL0     H 6920   1.158   7.982   7.329  0.8330 -0.2704 -2.5651
  811MOL0     O 6921   3.578   3.202   2.628  0.2334 -0.0438 -0.5004
  811MOL0     C 6922   3.637   3.225   2.730 -0.8110 -1.2312 -0.8034
  811MOL0     O 6923   3.766   3.205   2.756 -0.1325 -0.9469  0.0481
  811MOL0     C 6924   3.829   3.120   2.665 -0.5211 -0.4516 -0.6026
  811MOL0     C 6925   3.905   3.174   2.561  0.6658 -0.3876 -0.8347
  811MOL0     C 6926   3.967   3.097   2.466 -0.1389 -1.3327 -1.9321
  811MOL0     C 6927   3.948   2.953   2.471 -0.5689 -0.9647  0.1134
  811MOL0     O 6928   4.019   2.865   2.387  0.1394 -0.6308 -0.2763
  811MOL0     C 6929   4.091   2.925   2.273 -0.4012  0.4460 -0.0993
  811MOL0     C 6930   4.164   2.809   2.209  0.0129 -0.6808  0.1992
  811MOL0     C 6931   4.058   2.698   2.160 -0.4421  0.5347  1.6331
  811MOL0     C 6932   4.123   2.586   2.075  0.1164 -0.5949  0.3312
  811MOL0     C 6933   4.046   2.450   2.095  0.7424  0.1183 -0.1419
  811MOL0     C 6934   4.073   2.363   1.976  0.3799 -1.1793 -0.4873
  811MOL0     C 6935   4.002   2.230   1.987  0.1448  0.3190  0.1406
  811MOL0     C 6936   4.012   2.156   1.852 -0.6265  0.6095 -0.3396
  811MOL0     N 6937   3.982   2.014   1.870 -0.3608 -0.5517 -0.1562
  811MOL0     C 6938   4.086   1.925   1.869  0.2893  0.1389  0.0837
  811MOL0     C 6939   4.022   1.803   1.871  0.9566 -0.7809  0.5215
  811MOL0     C 6940   4.070   1.659   1.873  0.6741 -0.2871  0.1651
  811MOL0     C 6941   4.225   1.642   1.847  0.3640  0.2333  0.2062
  811MOL0     C 6942   4.277   1.526   1.762  0.8421 -0.4023 -0.2939
  811MOL0     C 6943   4.415   1.548   1.711  0.1178 -0.3614 -0.5072
  811MOL0     O 6944   4.396   1.639   1.598  0.1757  0.4187 -0.4318
  811MOL0     C 6945   4.506   1.664   1.524  0.8885 -0.4500  0.7411
  811MOL0     C 6946   4.633   1.607   1.542 -0.4637  0.1917 -0.1654
  811MOL0     C 6947   4.740   1.652   1.456 -0.3887 -0.0100 -0.4678
  811MOL0     C 6948   4.730   1.761   1.378 -0.9649 -0.3597  0.0238
  811MOL0     C 6949   4.846   1.805   1.302 -0.1556 -0.4991  0.3478
  811MOL0     O 6950   4.927   1.699   1.266  0.0090 -0.3746  0.6513
  811MOL0     C 6951   5.035   1.731   1.191  0.9102  0.5875 -0.2490
  811MOL0     C 6952   5.158   1.699   1.245 -0.9723 -0.7630 -0.5398
  811MOL0     C 6953   5.279   1.722   1.178  0.3026  0.8512 -0.3541
  811MOL0     C 6954   5.272   1.763   1.042 -0.4646  0.5327  0.2138
  811MOL0     O 6955   5.382   1.793   0.959 -1.6720 -0.3121  0.4872
  811MOL0     C 6956   5.508   1.791   1.023 -1.0709 -0.2252  0.1851
  811MOL0     C 6957   5.524   1.924   1.112 -0.1749 -0.9850 -0.4153
  811MOL0     C 6958   5.511   2.044   1.008 -0.1562 -0.4007  0.0714
  811MOL0     C 6959   5.568   2.169   1.085  0.0504 -0.3454 -0.2809
  811MOL0     C 6960   5.601   2.277   0.991 -0.7587 -0.0748  0.3494
  811MOL0     C 6961   5.732   2.246   0.923  0.6217 -0.1404 -1.0479
  811MOL0     C 6962   5.787   2.373   0.857  0.0204  0.0871 -0.6497
  811MOL0     C 6963   5.926   2.353   0.799  0.1187  0.6504 -0.1888
  811MOL0    Cl 6964   5.947   2.219   0.699 -0.0254  0.2771  0.2456
  811MOL0     C 6965   5.145   1.787   0.983  0.1171  0.3627  0.6439
  811MOL0     C 6966   5.028   1.776   1.062 -0.3332  0.6058  0.9424
  811MOL0     O 6967   4.863   1.928   1.282  0.5306  0.3002  0.5251
  811MOL0     C 6968   4.601   1.814   1.354  0.3453 -0.0105 -0.1427
  811MOL0     C 6969   4.491   1.755   1.419  0.5472 -0.2771  0.8415
  811MOL0     N 6970   3.887   1.829   1.858 -0.3341 -0.5367  0.2720
  811MOL0     N 6971   3.859   1.953   1.865 -0.4659 -0.4268 -0.4945
  811MOL0     C 6972   3.867   2.896   2.571 -0.2516  0.4884  0.3689
  811MOL0     C 6973   3.806   2.987   2.663  0.5231  0.8930 -0.4935
  811MOL0     C 6974   3.559   3.303   2.832  0.4386 -0.0536 -0.8300
  811MOL0     C 6975   3.421   3.305   2.840 -0.6756  0.1339  0.2039
  811MOL0     C 6976   3.348   3.380   2.935 -0.0593  0.0785 -0.4139
  811MOL0     C 6977   3.410   3.473   3.015  0.0903 -0.4884  0.0679
  811MOL0     O 6978   3.350   3.551   3.108 -0.0310 -0.1643 -0.9333
  811MOL0     C 6979   3.209   3.549   3.142  0.2260 -0.0563  0.3771
  811MOL0     C 6980   3.127   3.627   3.038 -0.2372 -0.4167 -0.2066
  811MOL0     C 6981   2.983   3.650   3.088  0.0407  0.2495 -0.5840
  811MOL0     C 6982   2.920   3.766   3.010 -0.5372 -0.0632  0.8375
  811MOL0     C 6983   2.771   3.777   3.004 -0.3856  0.5661  0.4404
  811MOL0     C 6984   2.651   3.786   2.992  1.0549 -0.8729  0.2485
  811MOL0     C 6985   3.546   3.470   2.999  0.6394  0.5895  0.1031
  811MOL0     C 6986   3.624   3.389   2.917  0.0027 -0.1242  0.2094
  811MOL0     H 6987   3.930   3.280   2.571 -1.0954 -0.0623  0.7642
  811MOL0     H 6988   4.046   3.136   2.403  1.9132  0.6150  1.5380
  811MOL0     H 6989   4.168   2.997   2.304  0.0903 -0.2404  0.3202
  811MOL0     H 6990   4.022   2.972   2.202 -0.2956  1.9194  0.7254
  811MOL0     H 6991   4.238   2.774   2.281  0.4488 -0.2663 -0.0450
  811MOL0     H 6992   4.225   2.831   2.121 -1.8545 -2.6648 -1.7293
  811MOL0     H 6993   3.981   2.729   2.089  1.5459  0.3530 -0.7411
  811MOL0     H 6994   4.016   2.655   2.251  0.4207 -1.5567  1.1006
  811MOL0     H 6995   4.123   2.606   1.968 -1.2956  1.5633  0.6627
  811MOL0     H 6996   4.226   2.577   2.111 -0.3937 -0.4472  1.9203
  811MOL0     H 6997   3.937   2.464   2.099  0.8403  0.7032  1.3211
  811MOL0     H 6998   4.074   2.400   2.189 -0.6863  0.7989  0.6875
  811MOL0     H 6999   4.182   2.371   1.966  0.2929  0.5313 -0.4208
  811MOL0     H 7000   4.025   2.407   1.889  0.2224  0.6488  0.4722
  811MOL0     H 7001   4.044   2.173   2.070  1.4882  2.1503  0.7854
  811MOL0     H 7002   3.894   2.243   1.995 -0.4011  1.7055 -5.1871
  811MOL0     H 7003   4.104   2.180   1.799 -0.5574  1.6906  0.2430
  811MOL0     H 7004   3.941   2.194   1.778  1.0299  0.4262 -2.1076
  811MOL0     H 7005   4.193   1.941   1.870  0.0765  1.9023 -0.7014
  811MOL0     H 7006   4.015   1.593   1.805 -1.5495 -0.0252  1.6042
  811MOL0     H 7007   4.049   1.617   1.972  2.1574 -0.7964  0.2790
  811MOL0     H 7008   4.283   1.639   1.939  0.1329  1.5458  0.4146
  811MOL0     H 7009   4.248   1.739   1.802 -0.9886  1.1875  1.4370
  811MOL0     H 7010   4.273   1.438   1.827 -0.5557  0.6468  1.1113
  811MOL0     H 7011   4.210   1.511   1.676  0.3034  0.1526  0.0237
  811MOL0     H 7012   4.462   1.457   1.673  1.7946  0.7798 -1.2990
  811MOL0     H 7013   4.473   1.602   1.786 -1.0307 -0.8415  0.7557
  811MOL0     H 7014   4.663   1.533   1.615  0.9323  0.9801  0.0896
  811MOL0     H 7015   4.840   1.616   1.481  0.9096  3.2630 -0.4688
  811MOL0     H 7016   5.161   1.671   1.350 -0.6837 -1.5548 -0.7544
  811MOL0     H 7017   5.371   1.703   1.232 -2.6529 -3.7619  3.9505
  811MOL0     H 7018   5.590   1.789   0.951  0.7188  0.2987  2.0944
  811MOL0     H 7019   5.522   1.702   1.085 -0.7597 -0.1208  0.2697
  811MOL0     H 7020   5.623   1.922   1.158  0.0121  2.0286 -0.5301
  811MOL0     H 7021   5.449   1.925   1.192  0.4120  1.1050  0.1719
  811MOL0     H 7022   5.413   2.064   0.962 -0.5787  1.9730  1.7982
  811MOL0     H 7023   5.583   2.018   0.930  0.2613  0.1768  0.2630
  811MOL0     H 7024   5.498   2.206   1.160 -0.5563 -1.6340 -0.1681
  811MOL0     H 7025   5.651   2.130   1.145 -2.4646 -2.1674  2.2799
  811MOL0     H 7026   5.603   2.369   1.052  2.5095 -1.0204  1.8885
  811MOL0     H 7027   5.518   2.278   0.921 -1.1689  0.1014  0.8283
  811MOL0     H 7028   5.726   2.167   0.847 -2.2242  0.5428 -1.6518
  811MOL0     H 7029   5.796   2.210   1.004 -0.0089 -2.2886 -1.4220
  811MOL0     H 7030   5.715   2.406   0.782 -1.4662 -0.9435  0.2598
  811MOL0     H 7031   5.793   2.453   0.932 -1.1094 -0.2093 -0.2161
  811MOL0     H 7032   5.992   2.339   0.885 -0.6512  1.6807  0.5971
  811MOL0     H 7033   5.968   2.444   0.757  1.0627  1.5401  2.4990
  811MOL0     H 7034   5.124   1.813   0.880 -2.0342 -3.4385 -0.0694
  811MOL0     H 7035   4.931   1.814   1.030 -0.9769 -1.0564  0.8000
  811MOL0     H 7036   4.592   1.878   1.267  0.2343 -0.6012 -0.5724
  811MOL0     H 7037   4.395   1.792   1.384  0.8591 -0.4123 -0.1648
  811MOL0     H 7038   3.839   2.792   2.559 -3.3383  1.4295 -1.4881
  811MOL0     H 7039   3.729   2.971   2.737 -1.9488  1.1401 -2.8287
  811MOL0     H 7040   3.378   3.230   2.776 -0.0251  1.0221 -1.3178
  811MOL0     H 7041   3.242   3.367   2.955  0.3333  0.2967  2.1988
  811MOL0     H 7042   3.192   3.601   3.236 -1.9234  2.5293 -1.3064
  811MOL0     H 7043   3.167   3.448   3.148 -1.0641  0.4056 -0.2992
  811MOL0     H 7044   3.171   3.726   3.023 -0.3978 -0.5160 -1.4015
  811MOL0     H 7045   3.130   3.566   2.948  0.1650  0.0824 -0.5321
  811MOL0     H 7046   2.990   3.685   3.192 -1.2734 -2.5123  0.5220
  811MOL0     H 7047   2.919   3.563   3.072 -1.3977  1.1207  0.2519
  811MOL0     H 7048   2.953   3.852   3.070  3.1477 -1.4785  1.0929
  811MOL0     H 7049   2.964   3.773   2.911  1.1983 -1.3792  1.4553
  811MOL0     H 7050   2.546   3.791   2.971  0.4477  2.7669  3.2152
  811MOL0     H 7051   3.594   3.529   3.076  4.0504 -1.1248 -0.5088
  811MOL0     H 7052   3.732   3.394   2.920  0.0912 -0.4085 -1.4699
  812MOL0     O 7053   4.188   8.506   3.591  0.3470 -0.0960 -0.1755
  812MOL0     C 7054   4.242   8.616   3.610  1.2397  0.5171 -0.2849
  812MOL0     O 7055   4.177   8.730   3.623 -0.1809  0.0400 -0.2968
  812MOL0     C 7056   4.045   8.737   3.598  0.0509 -0.6668 -0.4164
  812MOL0     C 7057   3.954   8.663   3.515 -0.4934 -1.0593 -0.1632
  812MOL0     C 7058   3.826   8.702   3.492 -0.0696  0.3256 -0.0973
  812MOL0     C 7059   3.779   8.821   3.545  0.5012  0.4013 -0.4050
  812MOL0     O 7060   3.653   8.861   3.515  0.4220  0.0940 -0.4205
  812MOL0     C 7061   3.581   8.920   3.621 -0.6742  0.0699  0.3804
  812MOL0     C 7062   3.441   8.870   3.615 -0.9082  0.1550 -0.3724
  812MOL0     C 7063   3.355   8.921   3.724  0.0265  0.4953  0.7951
  812MOL0     C 7064   3.210   8.882   3.714  1.0057  0.8460 -0.2316
  812MOL0     C 7065   3.125   9.009   3.765 -0.2215 -0.5372 -0.7796
  812MOL0     C 7066   2.979   8.987   3.740 -0.4834 -0.7814 -0.1674
  812MOL0     C 7067   2.890   9.120   3.740  0.5018  0.3108  0.1884
  812MOL0     C 7068   2.765   9.083   3.657  0.4555 -0.2923  0.0511
  812MOL0     N 7069   2.673   9.190   3.621 -0.4667 -0.2804 -0.6488
  812MOL0     C 7070   2.543   9.170   3.607  1.1453 -0.1588  0.8636
  812MOL0     C 7071   2.486   9.293   3.581  0.1301 -0.5679 -0.9860
  812MOL0     C 7072   2.335   9.311   3.556 -0.1993 -0.0108 -0.6400
  812MOL0     C 7073   2.297   9.284   3.413 -0.0472 -0.1337  0.9637
  812MOL0     C 7074   2.147   9.254   3.416  0.6115  0.3575 -0.0104
  812MOL0     C 7075   2.082   9.251   3.273 -0.9061 -0.1952  0.4357
  812MOL0     O 7076   2.160   9.167   3.180  0.1415 -0.1188  0.1336
  812MOL0     C 7077   2.127   9.039   3.158  0.4479  0.8197 -0.1894
  812MOL0     C 7078   2.047   8.961   3.248 -0.9305 -0.2044  0.2036
  812MOL0     C 7079   1.999   8.839   3.218 -0.3602  0.3265  1.1456
  812MOL0     C 7080   2.040   8.775   3.100 -0.4443  0.5546  0.0091
  812MOL0     C 7081   1.967   8.650   3.056 -0.4330 -0.4942  0.1201
  812MOL0     O 7082   1.838   8.655   3.102  0.6051 -0.1236  0.3279
  812MOL0     C 7083   1.746   8.560   3.066  0.4113  0.3329  0.5187
  812MOL0     C 7084   1.628   8.603   3.004  0.3045  0.2640 -0.5490
  812MOL0     C 7085   1.536   8.506   2.977  0.0755 -0.3308 -1.3017
  812MOL0     C 7086   1.549   8.376   3.016  0.3585  0.1475  0.6764
  812MOL0     O 7087   1.457   8.274   2.991  0.1593  0.1746  0.2249
  812MOL0     C 7088   1.318   8.303   3.032  0.1235  0.7458  0.0815
  812MOL0     C 7089   1.235   8.190   2.987  0.4050 -0.1711  0.9775
  812MOL0     C 7090   1.085   8.218   3.008 -0.2340  0.6347 -0.1858
  812MOL0     C 7091   1.031   8.146   3.136 -0.4728  0.4580  0.2423
  812MOL0     C 7092   0.872   8.175   3.147 -0.1573 -0.5347  0.2560
  812MOL0     C 7093   0.805   8.093   3.258 -0.7978  0.0662 -0.3261
  812MOL0     C 7094   0.652   8.117   3.243  0.1754  0.3826  0.3598
  812MOL0     C 7095   0.584   8.020   3.330  0.2113  0.5439 -0.1418
  812MOL0    Cl 7096   0.600   7.862   3.251  0.4115  0.1751  0.0498
  812MOL0     C 7097   1.662   8.338   3.084  0.1095 -1.0133  0.0688
  812MOL0     C 7098   1.766   8.434   3.110  0.1153  1.0163 -0.0226
  812MOL0     O 7099   2.024   8.555   3.004  0.5057 -0.3745 -0.5645
  812MOL0     C 7100   2.138   8.837   3.017 -0.4200 -0.3335  0.4600
  812MOL0     C 7101   2.179   8.966   3.049 -0.4946 -0.8053 -0.5843
  812MOL0     N 7102   2.591   9.383   3.558  1.0089  0.9653  0.8651
  812MOL0     N 7103   2.702   9.312   3.576 -0.2210  0.0463 -0.4389
  812MOL0     C 7104   3.865   8.900   3.632  0.2961 -0.8227  0.0853
  812MOL0     C 7105   3.998   8.861   3.650 -0.2937  0.3793 -0.1824
  812MOL0     C 7106   4.388   8.609   3.631  0.6962 -0.1560  1.5409
  812MOL0     C 7107   4.453   8.727   3.664  0.3138 -0.3849 -0.2956
  812MOL0     C 7108   4.592   8.728   3.691 -0.3834  1.4629  0.1933
  812MOL0     C 7109   4.661   8.603   3.683  0.1343 -1.1805 -0.6667
  812MOL0     O 7110   4.794   8.604   3.730 -0.4119 -0.4828 -0.2628
  812MOL0     C 7111   4.872   8.492   3.765  0.4213  0.3872  0.5529
  812MOL0     C 7112   5.022   8.516   3.739 -0.0805  0.2171 -0.3001
  812MOL0     C 7113   5.073   8.652   3.811 -0.5791 -0.8993 -0.5774
  812MOL0     C 7114   5.224   8.690   3.781 -1.0740 -0.1654  0.2048
  812MOL0     C 7115   5.274   8.717   3.644  0.7229 -0.1551 -1.0314
  812MOL0     C 7116   5.344   8.742   3.540  0.9367  0.0819 -0.7226
  812MOL0     C 7117   4.594   8.490   3.648  0.4188  1.0569  0.6188
  812MOL0     C 7118   4.458   8.491   3.622 -0.3087  0.9735  0.1783
  812MOL0     H 7119   3.986   8.564   3.485  0.6575 -0.6371 -0.3915
  812MOL0     H 7120   3.757   8.640   3.436  1.6616  3.0298 -5.9069
  812MOL0     H 7121   3.582   9.027   3.597  1.0354 -0.2984 -1.4263
  812MOL0     H 7122   3.618   8.909   3.723 -3.9342  2.6628  2.0552
  812MOL0     H 7123   3.450   8.762   3.621  0.7140  0.1725 -1.8144
  812MOL0     H 7124   3.396   8.895   3.518  1.4692  1.1814 -1.2867
  812MOL0     H 7125   3.369   9.029   3.736  0.7663  0.1541  3.9657
  812MOL0     H 7126   3.392   8.872   3.815  0.0691  1.8166  1.5268
  812MOL0     H 7127   3.176   8.872   3.611 -1.0051  0.2649  0.4341
  812MOL0     H 7128   3.174   8.804   3.783  0.9055 -0.4714 -1.7100
  812MOL0     H 7129   3.152   9.105   3.721 -3.2088  0.0676 -1.5579
  812MOL0     H 7130   3.143   9.023   3.872 -0.3484  1.4288 -0.9781
  812MOL0     H 7131   2.942   8.920   3.819  2.2000 -1.6963  0.4249
  812MOL0     H 7132   2.956   8.922   3.655 -1.6414 -1.3442  0.5485
  812MOL0     H 7133   2.854   9.142   3.841 -0.3141 -1.4932  0.3352
  812MOL0     H 7134   2.940   9.205   3.694  1.4913 -1.8720 -3.1701
  812MOL0     H 7135   2.705   9.016   3.719 -1.7033 -0.7567 -2.3839
  812MOL0     H 7136   2.793   9.030   3.565  0.4397 -0.3755  0.0939
  812MOL0     H 7137   2.490   9.076   3.619 -1.1655  0.9200 -0.3639
  812MOL0     H 7138   2.313   9.417   3.571 -0.9063 -0.3999  1.4323
  812MOL0     H 7139   2.263   9.268   3.627  0.4886 -0.5779 -0.2726
  812MOL0     H 7140   2.350   9.198   3.372 -0.3052 -0.2650  0.9008
  812MOL0     H 7141   2.324   9.373   3.355  1.4819 -1.4622 -0.4825
  812MOL0     H 7142   2.125   9.160   3.467 -2.3365  1.4794  0.9578
  812MOL0     H 7143   2.102   9.340   3.466  3.1814  1.1392  1.1475
  812MOL0     H 7144   2.073   9.356   3.243 -0.0890  0.7991  3.3331
  812MOL0     H 7145   1.979   9.213   3.271 -0.5855 -1.0381 -0.5506
  812MOL0     H 7146   2.027   9.019   3.337  0.7034  1.6451 -0.5663
  812MOL0     H 7147   1.927   8.791   3.283  1.3016 -0.8223  2.2302
  812MOL0     H 7148   1.615   8.701   2.958  0.0858  1.7957  2.5228
  812MOL0     H 7149   1.443   8.525   2.923 -0.2697  0.1345 -0.5634
  812MOL0     H 7150   1.276   8.394   2.987 -2.2531 -1.0218 -1.5571
  812MOL0     H 7151   1.314   8.314   3.141  0.2288 -0.5584  0.2233
  812MOL0     H 7152   1.262   8.097   3.039 -0.3179 -1.0135 -0.1156
  812MOL0     H 7153   1.265   8.176   2.883  2.5532  0.8603  1.4029
  812MOL0     H 7154   1.040   8.166   2.923 -1.9380 -1.3678  1.8068
  812MOL0     H 7155   1.059   8.324   3.005 -1.9349  0.2617  0.3564
  812MOL0     H 7156   1.048   8.038   3.131 -1.7417  0.1244  2.1486
  812MOL0     H 7157   1.080   8.185   3.226 -2.0098  0.0416  1.3098
  812MOL0     H 7158   0.829   8.171   3.047  0.8766 -3.4213 -0.1603
  812MOL0     H 7159   0.854   8.282   3.161 -0.2451 -0.1087 -2.5055
  812MOL0     H 7160   0.843   8.126   3.354 -0.4582 -2.8782  0.6578
  812MOL0     H 7161   0.826   7.985   3.256  0.1624  0.1426  2.2896
  812MOL0     H 7162   0.639   8.221   3.272  0.2982  0.4542  0.1564
  812MOL0     H 7163   0.611   8.099   3.143  1.5400 -2.3251  0.1870
  812MOL0     H 7164   0.476   8.037   3.334  0.2071  0.3041  1.4466
  812MOL0     H 7165   0.625   8.021   3.432  0.8586  0.8055 -0.3988
  812MOL0     H 7166   1.684   8.241   3.126 -3.6401 -1.1315  2.1983
  812MOL0     H 7167   1.858   8.410   3.162  0.9640 -2.4750 -2.7595
  812MOL0     H 7168   2.155   8.796   2.918 -0.4457  0.2941  0.1868
  812MOL0     H 7169   2.249   9.021   2.986  2.3692 -2.8804  0.5869
  812MOL0     H 7170   3.816   8.982   3.683 -1.9823 -0.9279 -1.7422
  812MOL0     H 7171   4.060   8.931   3.705  0.4635 -0.6526  0.3251
  812MOL0     H 7172   4.406   8.823   3.686 -0.2729  0.0261 -3.0761
  812MOL0     H 7173   4.650   8.815   3.721 -1.2190  1.5534  1.6682
  812MOL0     H 7174   4.835   8.401   3.718 -0.7064 -0.1150  2.3146
  812MOL0     H 7175   4.864   8.471   3.872  2.4670 -0.1883  0.6461
  812MOL0     H 7176   5.082   8.432   3.777 -0.8922  0.0586  0.6725
  812MOL0     H 7177   5.031   8.503   3.631  1.9259  1.6075 -0.3680
  812MOL0     H 7178   5.054   8.644   3.919 -1.5115  1.3257 -0.5167
  812MOL0     H 7179   5.014   8.738   3.778 -1.3896 -2.2295 -2.9091
  812MOL0     H 7180   5.241   8.787   3.828 -3.6215 -0.9132  2.9717
  812MOL0     H 7181   5.281   8.613   3.835  1.3987  2.7589  2.0509
  812MOL0     H 7182   5.392   8.775   3.450 -2.6319  0.3955 -2.6842
  812MOL0     H 7183   4.651   8.397   3.642  2.8822  2.5812 -2.7603
  812MOL0     H 7184   4.414   8.395   3.594  3.1337 -0.9479  0.8156
  813MOL0     O 7185   8.324   6.454   0.300 -0.8544 -0.1676 -0.3179
  813MOL0     C 7186   8.365   6.472   0.411 -0.0211  0.3603 -0.3982
  813MOL0     O 7187   8.316   6.560   0.491 -0.5353  0.1721 -0.2562
  813MOL0     C 7188   8.202   6.623   0.450 -0.2953 -0.4664 -0.7897
  813MOL0     C 7189   8.190   6.694   0.324 -0.9309  0.3013 -0.2618
  813MOL0     C 7190   8.077   6.765   0.291 -0.0920 -0.2665 -0.2129
  813MOL0     C 7191   7.967   6.758   0.375  1.3937 -0.5006 -0.6348
  813MOL0     O 7192   7.851   6.823   0.336  0.0633  0.5311  0.1696
  813MOL0     C 7193   7.725   6.782   0.401  0.2623  0.1407  0.2263
  813MOL0     C 7194   7.675   6.640   0.368 -0.7757 -0.4542  0.6598
  813MOL0     C 7195   7.577   6.581   0.464 -0.0542  0.6933  0.9362
  813MOL0     C 7196   7.534   6.446   0.417 -0.7503 -0.1651 -0.4789
  813MOL0     C 7197   7.385   6.426   0.440 -0.1775 -0.2989  1.3912
  813MOL0     C 7198   7.344   6.434   0.587  1.1757  1.0380  0.3512
  813MOL0     C 7199   7.409   6.326   0.667  0.3946 -0.3352  0.2420
  813MOL0     C 7200   7.352   6.339   0.805 -0.7679  0.2881  1.0362
  813MOL0     N 7201   7.409   6.226   0.880 -0.0108 -0.0321  0.2899
  813MOL0     C 7202   7.339   6.113   0.906  0.1162 -0.5113  0.0552
  813MOL0     C 7203   7.422   6.020   0.952  0.4677  0.5083  0.1474
  813MOL0     C 7204   7.399   5.875   1.008 -0.1934  0.0065  0.2334
  813MOL0     C 7205   7.312   5.880   1.129 -0.1013 -0.3416 -0.0722
  813MOL0     C 7206   7.257   5.735   1.145 -0.7874  0.0675 -1.1643
  813MOL0     C 7207   7.144   5.722   1.246  0.3219  0.3662 -0.6586
  813MOL0     O 7208   7.032   5.809   1.206 -0.3826 -0.5776  0.0223
  813MOL0     C 7209   6.918   5.808   1.288 -0.3514 -0.1580 -0.2753
  813MOL0     C 7210   6.819   5.902   1.247  0.2854 -0.3799 -0.7638
  813MOL0     C 7211   6.699   5.906   1.312  0.1696  0.3733  0.3902
  813MOL0     C 7212   6.668   5.804   1.414 -1.3082  0.1721  0.6500
  813MOL0     C 7213   6.539   5.796   1.469 -0.4839 -0.9672  0.2547
  813MOL0     O 7214   6.522   5.701   1.572  0.1770 -0.2180 -0.5668
  813MOL0     C 7215   6.396   5.651   1.601  0.4523 -0.6936  0.8341
  813MOL0     C 7216   6.389   5.566   1.712  0.9443  0.0961 -0.2731
  813MOL0     C 7217   6.286   5.486   1.740  0.0577 -0.2107 -0.7811
  813MOL0     C 7218   6.179   5.486   1.660 -0.8376  0.2051  0.7320
  813MOL0     O 7219   6.080   5.378   1.683 -0.4006 -0.1920  0.4425
  813MOL0     C 7220   6.007   5.326   1.582 -0.1974 -0.6527  0.1463
  813MOL0     C 7221   6.031   5.179   1.558  0.2252 -0.0677  0.1654
  813MOL0     C 7222   6.163   5.112   1.605 -0.1888  0.1265 -0.4079
  813MOL0     C 7223   6.289   5.181   1.541 -0.0365 -0.1636  0.2470
  813MOL0     C 7224   6.289   5.188   1.391 -0.7497  0.0511  0.3071
  813MOL0     C 7225   6.405   5.264   1.331 -0.1316  0.0374 -0.0700
  813MOL0     C 7226   6.361   5.323   1.191 -0.2824 -0.1716  0.2333
  813MOL0     C 7227   6.483   5.373   1.116  0.9638  0.5544 -0.0712
  813MOL0    Cl 7228   6.553   5.513   1.211 -0.2603 -0.0430  0.0831
  813MOL0     C 7229   6.168   5.577   1.547 -0.0367  0.5387  0.1852
  813MOL0     C 7230   6.278   5.665   1.519  0.1344  0.1033  0.1872
  813MOL0     O 7231   6.454   5.872   1.423  0.2206 -0.5312  0.2804
  813MOL0     C 7232   6.775   5.728   1.461 -0.6127 -0.0203  0.2747
  813MOL0     C 7233   6.899   5.723   1.390 -0.3050  0.2101  0.3311
  813MOL0     N 7234   7.544   6.088   0.961  0.3517  0.3380 -0.5854
  813MOL0     N 7235   7.536   6.203   0.919  0.4270  0.7644  0.8269
  813MOL0     C 7236   7.974   6.683   0.492  0.3141  0.6797 -0.9844
  813MOL0     C 7237   8.092   6.612   0.534 -0.3042  0.1103  0.4961
  813MOL0     C 7238   8.476   6.384   0.465 -0.1516 -0.2175 -0.3424
  813MOL0     C 7239   8.573   6.321   0.384 -1.3121  0.0895  0.3289
  813MOL0     C 7240   8.670   6.239   0.435  0.3666  0.1958  0.4716
  813MOL0     C 7241   8.695   6.225   0.567  0.0899 -1.0553 -1.0452
  813MOL0     O 7242   8.811   6.168   0.603 -0.8387  0.1852  0.3781
  813MOL0     C 7243   8.826   6.143   0.738  0.7339  0.6369 -0.4133
  813MOL0     C 7244   8.966   6.092   0.760 -0.4661  0.3871 -0.2244
  813MOL0     C 7245   8.977   5.961   0.683  0.6822  0.8387  1.0679
  813MOL0     C 7246   9.058   5.856   0.757 -0.0599  0.5518 -0.0655
  813MOL0     C 7247   9.197   5.890   0.797 -0.0569 -1.2846 -0.4444
  813MOL0     C 7248   9.296   5.904   0.855  0.1489  0.9298 -0.3028
  813MOL0     C 7249   8.594   6.284   0.662  0.4639  0.2246 -0.6906
  813MOL0     C 7250   8.497   6.372   0.607  0.0469  1.1099  0.7727
  813MOL0     H 7251   8.277   6.701   0.260 -0.7820  2.6070  0.0903
  813MOL0     H 7252   8.076   6.824   0.200 -2.0873 -0.5646 -0.4250
  813MOL0     H 7253   7.648   6.855   0.376 -0.6673 -1.3103 -1.3144
  813MOL0     H 7254   7.725   6.787   0.510  1.7984  1.0963  0.2322
  813MOL0     H 7255   7.756   6.566   0.359 -0.1395  0.0615  2.0349
  813MOL0     H 7256   7.635   6.643   0.266  1.7889  0.7690 -0.4197
  813MOL0     H 7257   7.488   6.644   0.464 -1.3622 -1.0017 -1.8441
  813MOL0     H 7258   7.613   6.587   0.568 -1.2501  3.5682  1.2822
  813MOL0     H 7259   7.553   6.428   0.311 -3.8983 -1.8030 -0.9010
  813MOL0     H 7260   7.595   6.372   0.470 -1.6456  0.6663  1.8780
  813MOL0     H 7261   7.362   6.328   0.397  0.0001  0.2096  0.0988
  813MOL0     H 7262   7.325   6.502   0.388 -0.3279 -0.1583  1.7662
  813MOL0     H 7263   7.234   6.428   0.591  1.0366  1.8464 -1.2519
  813MOL0     H 7264   7.372   6.532   0.627  1.8088  1.3123 -0.7178
  813MOL0     H 7265   7.396   6.225   0.626  3.5049  0.0403 -2.0129
  813MOL0     H 7266   7.516   6.345   0.662  0.4461 -0.8720 -3.1891
  813MOL0     H 7267   7.244   6.323   0.805 -0.7487 -0.2096 -1.0278
  813MOL0     H 7268   7.384   6.438   0.838  0.5193  1.3846 -2.9113
  813MOL0     H 7269   7.232   6.091   0.904  0.0712 -0.3402  0.3924
  813MOL0     H 7270   7.495   5.828   1.030 -0.1889 -1.5851 -2.7083
  813MOL0     H 7271   7.354   5.819   0.926  0.8123  1.0606 -1.0843
  813MOL0     H 7272   7.228   5.950   1.119 -0.3887 -0.6001  0.4512
  813MOL0     H 7273   7.370   5.905   1.219 -0.8709  1.3361 -0.0108
  813MOL0     H 7274   7.224   5.699   1.047 -1.6594  0.0038 -0.8585
  813MOL0     H 7275   7.336   5.678   1.195 -0.4068  2.8745  1.7292
  813MOL0     H 7276   7.174   5.738   1.350  1.4147  1.1185 -1.0741
  813MOL0     H 7277   7.124   5.614   1.244  3.1156 -0.2247 -2.7457
  813MOL0     H 7278   6.843   5.960   1.158  1.7915  1.8694  0.9949
  813MOL0     H 7279   6.631   5.987   1.289 -0.0167  0.5510  1.4997
  813MOL0     H 7280   6.473   5.555   1.780 -0.6216 -1.0744  1.5940
  813MOL0     H 7281   6.293   5.407   1.815  2.6626  2.2579  1.8448
  813MOL0     H 7282   6.032   5.365   1.483  1.7699 -2.7025 -0.2386
  813MOL0     H 7283   5.902   5.354   1.596 -0.5795 -0.9677 -1.8316
  813MOL0     H 7284   6.014   5.135   1.459 -0.7694 -0.7688  0.6328
  813MOL0     H 7285   5.960   5.138   1.630 -1.6048  4.4871  1.3402
  813MOL0     H 7286   6.157   5.008   1.570  0.8762 -0.0089 -0.2020
  813MOL0     H 7287   6.167   5.102   1.714 -1.0147  1.2041 -0.2635
  813MOL0     H 7288   6.309   5.279   1.586  1.2746 -0.2338 -0.1427
  813MOL0     H 7289   6.378   5.126   1.572 -0.0156  1.4367  3.5166
  813MOL0     H 7290   6.209   5.248   1.347  1.3110  1.8127 -1.2903
  813MOL0     H 7291   6.293   5.090   1.344  1.4765  1.0308 -1.7626
  813MOL0     H 7292   6.494   5.200   1.326 -2.2158 -2.9948 -2.9584
  813MOL0     H 7293   6.414   5.342   1.407 -1.6835 -0.5754  0.7740
  813MOL0     H 7294   6.327   5.244   1.123 -1.9619  0.5852  0.1388
  813MOL0     H 7295   6.283   5.399   1.201 -0.3831 -0.0699 -1.0770
  813MOL0     H 7296   6.446   5.422   1.025  0.6900  1.6468  0.5991
  813MOL0     H 7297   6.559   5.296   1.100 -1.2398 -2.2136  1.8231
  813MOL0     H 7298   6.080   5.588   1.485 -0.4552 -0.0305  0.6663
  813MOL0     H 7299   6.260   5.728   1.432  0.6926  0.4269  0.2997
  813MOL0     H 7300   6.759   5.656   1.541  0.0141 -2.4525 -1.6700
  813MOL0     H 7301   6.970   5.642   1.406  1.6004  0.8806 -3.4185
  813MOL0     H 7302   7.884   6.669   0.552  0.1810  0.9293 -1.1244
  813MOL0     H 7303   8.100   6.569   0.633 -1.1105 -0.3540  0.3683
  813MOL0     H 7304   8.571   6.326   0.275 -1.0045  1.9756  0.3736
  813MOL0     H 7305   8.727   6.176   0.367  2.4845  2.3700  0.0692
  813MOL0     H 7306   8.752   6.067   0.764  0.5241  0.5552 -1.2284
  813MOL0     H 7307   8.811   6.226   0.808  0.9244  1.0835 -0.8895
  813MOL0     H 7308   9.037   6.162   0.717 -2.6212  1.5879 -2.0879
  813MOL0     H 7309   8.989   6.069   0.864  0.3740 -2.1176 -0.8867
  813MOL0     H 7310   9.014   5.976   0.581 -2.5836 -0.8459 -0.5223
  813MOL0     H 7311   8.874   5.929   0.669  1.5179 -1.4406 -0.5776
  813MOL0     H 7312   9.010   5.859   0.855 -0.3764 -0.5447 -0.1725
  813MOL0     H 7313   9.056   5.755   0.715 -2.9880  0.9670 -1.1655
  813MOL0     H 7314   9.390   5.904   0.906  0.0707 -0.7127 -0.1012
  813MOL0     H 7315   8.586   6.274   0.770 -2.1126  2.7647 -0.5278
  813MOL0     H 7316   8.430   6.423   0.676  1.9606 -0.1518  3.7622
  814MOL0     O 7317   4.486   6.587   2.237 -0.0244  0.6571  0.6786
  814MOL0     C 7318   4.531   6.699   2.257 -0.1419  0.1061  0.5837
  814MOL0     O 7319   4.661   6.738   2.240 -0.5004 -0.6862 -0.2207
  814MOL0     C 7320   4.749   6.665   2.160  0.5149  0.3777 -0.3579
  814MOL0     C 7321   4.882   6.697   2.190  0.2225 -0.7717  0.1010
  814MOL0     C 7322   4.990   6.647   2.117  0.3219  0.0361 -0.2326
  814MOL0     C 7323   4.959   6.558   2.013  0.2426 -0.0063 -0.3120
  814MOL0     O 7324   5.053   6.496   1.938 -0.9888  0.0337 -0.4582
  814MOL0     C 7325   5.187   6.518   1.981  0.1699  0.7911 -0.6675
  814MOL0     C 7326   5.285   6.431   1.898 -0.9078 -0.2526  0.0218
  814MOL0     C 7327   5.240   6.424   1.750  0.1408  0.0065 -0.2369
  814MOL0     C 7328   5.337   6.338   1.663 -0.3736 -0.1463 -0.6584
  814MOL0     C 7329   5.288   6.276   1.534  0.0513  0.6773  0.2618
  814MOL0     C 7330   5.257   6.395   1.441 -0.2299  0.7951  0.1400
  814MOL0     C 7331   5.198   6.344   1.314 -0.2798  0.3007  0.3785
  814MOL0     C 7332   5.064   6.258   1.320  0.2724 -0.7159 -0.5652
  814MOL0     N 7333   4.961   6.320   1.405 -0.5569 -0.1658 -0.0377
  814MOL0     C 7334   4.905   6.441   1.387  0.1935 -0.5097  0.9487
  814MOL0     C 7335   4.846   6.474   1.507  0.2358 -0.1693 -0.0475
  814MOL0     C 7336   4.795   6.605   1.551 -0.4944 -0.8808 -0.8292
  814MOL0     C 7337   4.640   6.612   1.561 -0.2333  0.4617 -0.5209
  814MOL0     C 7338   4.575   6.644   1.427 -0.1636 -0.6305 -0.1958
  814MOL0     C 7339   4.423   6.649   1.440 -0.5069 -0.4162 -0.2876
  814MOL0     O 7340   4.360   6.741   1.530  0.0682 -0.3720  0.8409
  814MOL0     C 7341   4.227   6.741   1.566  0.4605  0.3981  0.2613
  814MOL0     C 7342   4.179   6.798   1.679  0.1910  0.2670  0.2186
  814MOL0     C 7343   4.036   6.811   1.698 -0.1640 -0.9261  0.5269
  814MOL0     C 7344   3.941   6.765   1.610 -0.6271  0.2821 -1.0222
  814MOL0     C 7345   3.793   6.792   1.622 -0.4939 -0.0790  0.3125
  814MOL0     O 7346   3.719   6.722   1.525 -0.3902  0.2610 -0.1408
  814MOL0     C 7347   3.595   6.763   1.494 -0.5582  0.3080 -0.4973
  814MOL0     C 7348   3.556   6.863   1.402 -0.3844  0.2471 -0.4388
  814MOL0     C 7349   3.420   6.881   1.371  0.4720  0.7967  0.1325
  814MOL0     C 7350   3.318   6.801   1.427 -0.8531 -0.3072 -0.1662
  814MOL0     O 7351   3.186   6.835   1.410 -0.0362  0.0264  0.0179
  814MOL0     C 7352   3.084   6.801   1.496 -0.1468  0.4331 -0.0909
  814MOL0     C 7353   3.009   6.929   1.514  0.8288 -0.5276  0.0953
  814MOL0     C 7354   2.888   6.912   1.614 -0.0639 -0.1711  0.1691
  814MOL0     C 7355   2.832   7.049   1.653  1.1494 -0.1914 -0.3969
  814MOL0     C 7356   2.729   7.037   1.764  0.8521  0.1031 -0.2820
  814MOL0     C 7357   2.657   7.172   1.799 -0.0981  0.7694  1.0484
  814MOL0     C 7358   2.554   7.191   1.694 -0.3640  0.0606  0.8219
  814MOL0     C 7359   2.463   7.307   1.712  1.0636 -0.1137 -0.0346
  814MOL0    Cl 7360   2.355   7.288   1.563  0.2902 -0.1961  0.2375
  814MOL0     C 7361   3.357   6.688   1.503  0.1295  0.0423  0.8751
  814MOL0     C 7362   3.496   6.675   1.545  0.3899 -0.5648  0.8763
  814MOL0     O 7363   3.753   6.859   1.712 -0.2786 -0.2019 -0.7142
  814MOL0     C 7364   3.994   6.688   1.505 -1.2192 -0.3567  0.3413
  814MOL0     C 7365   4.135   6.681   1.484  0.5041 -0.4242 -0.3902
  814MOL0     N 7366   4.864   6.363   1.591 -0.2058 -0.3662  0.4206
  814MOL0     N 7367   4.931   6.269   1.527  0.0356 -0.4178  0.2352
  814MOL0     C 7368   4.828   6.509   1.993  0.0225  0.5936  0.4389
  814MOL0     C 7369   4.723   6.570   2.063  0.5199  0.4131  0.0634
  814MOL0     C 7370   4.433   6.797   2.305 -0.4803 -0.0412 -0.6705
  814MOL0     C 7371   4.292   6.762   2.311  0.5657  0.1040 -0.0421
  814MOL0     C 7372   4.198   6.863   2.337  0.2180  0.7166 -0.4385
  814MOL0     C 7373   4.230   6.995   2.359  0.7159 -0.4093  0.8080
  814MOL0     O 7374   4.127   7.096   2.364 -0.2231  0.4166  0.3635
  814MOL0     C 7375   4.165   7.240   2.340  0.5013  0.4077  0.1883
  814MOL0     C 7376   4.214   7.256   2.190 -0.6209  0.3160 -0.1474
  814MOL0     C 7377   4.087   7.239   2.102 -0.6244 -0.4196 -0.9418
  814MOL0     C 7378   4.122   7.165   1.976 -0.3805  0.1127  0.6240
  814MOL0     C 7379   4.141   7.020   1.981  0.4981 -0.4052 -0.3019
  814MOL0     C 7380   4.154   6.902   2.002  0.5048 -0.3014 -0.2969
  814MOL0     C 7381   4.363   7.031   2.362  0.4101  0.6566  0.1671
  814MOL0     C 7382   4.466   6.935   2.337  0.3388  0.1687 -0.1749
  814MOL0     H 7383   4.908   6.785   2.249  0.9094 -1.5305  0.9600
  814MOL0     H 7384   5.086   6.679   2.156 -0.4378  1.9581  0.1614
  814MOL0     H 7385   5.204   6.493   2.086  0.7055  0.4875 -0.8242
  814MOL0     H 7386   5.210   6.624   1.964  0.4037  0.6240 -1.4301
  814MOL0     H 7387   5.288   6.329   1.935  1.0452  0.0624  0.8988
  814MOL0     H 7388   5.387   6.471   1.910 -1.8032  1.8743  1.0832
  814MOL0     H 7389   5.245   6.524   1.705 -2.5185 -1.2773 -3.9326
  814MOL0     H 7390   5.135   6.398   1.735 -0.0435  0.0227  0.9401
  814MOL0     H 7391   5.426   6.396   1.639  1.4218 -3.5259 -2.8440
  814MOL0     H 7392   5.371   6.264   1.736 -2.4747 -0.7231 -0.2055
  814MOL0     H 7393   5.202   6.215   1.565  1.6813 -1.0590  1.5899
  814MOL0     H 7394   5.354   6.206   1.483 -1.0266  0.9749 -1.6284
  814MOL0     H 7395   5.350   6.444   1.413 -0.6682 -0.0381 -3.2355
  814MOL0     H 7396   5.192   6.475   1.479  1.1811  2.5472 -0.9946
  814MOL0     H 7397   5.181   6.423   1.241  0.2756  1.4120  1.4193
  814MOL0     H 7398   5.271   6.276   1.269 -2.9062 -2.5364  0.0104
  814MOL0     H 7399   5.072   6.153   1.349 -0.7401 -0.7581 -0.3891
  814MOL0     H 7400   5.034   6.247   1.216 -1.1684  0.9379 -0.3758
  814MOL0     H 7401   4.901   6.512   1.305 -2.3938  1.1513  2.3759
  814MOL0     H 7402   4.820   6.681   1.476  0.3563 -1.0024 -0.6742
  814MOL0     H 7403   4.839   6.629   1.648 -1.1542  2.3037 -1.1862
  814MOL0     H 7404   4.613   6.685   1.637 -2.2718 -1.5242  0.7629
  814MOL0     H 7405   4.608   6.517   1.604 -2.2181  1.9964  1.6603
  814MOL0     H 7406   4.602   6.744   1.392 -4.9979  0.9394 -0.1681
  814MOL0     H 7407   4.605   6.568   1.355  0.7705 -1.6183  1.1667
  814MOL0     H 7408   4.396   6.548   1.474  2.1854 -1.2506 -0.4534
  814MOL0     H 7409   4.384   6.671   1.340 -0.9611  1.5594  0.2716
  814MOL0     H 7410   4.258   6.829   1.746  1.9048  0.3915 -1.7712
  814MOL0     H 7411   3.993   6.869   1.778  1.0264 -1.1079  1.3265
  814MOL0     H 7412   3.636   6.916   1.351  1.5704 -2.8249 -0.8656
  814MOL0     H 7413   3.388   6.953   1.297  2.0503 -1.3606 -2.9112
  814MOL0     H 7414   3.115   6.738   1.580 -3.5985  0.0035  1.0500
  814MOL0     H 7415   3.021   6.736   1.434 -0.1983  0.8961 -0.5275
  814MOL0     H 7416   2.971   6.960   1.417  0.4228 -2.6187 -0.4789
  814MOL0     H 7417   3.084   7.004   1.540  1.4875 -0.7696 -1.0351
  814MOL0     H 7418   2.928   6.862   1.703  1.1804 -1.5302 -1.1067
  814MOL0     H 7419   2.807   6.854   1.569 -2.2842  2.1683  0.8871
  814MOL0     H 7420   2.915   7.113   1.685  1.8130 -1.8782  1.4127
  814MOL0     H 7421   2.782   7.100   1.569  1.3025 -0.4812 -0.6655
  814MOL0     H 7422   2.774   6.994   1.854 -1.0952 -1.6198 -0.0632
  814MOL0     H 7423   2.645   6.973   1.736 -0.5963  2.6327 -2.1039
  814MOL0     H 7424   2.727   7.252   1.824  2.5359 -0.2937 -2.2444
  814MOL0     H 7425   2.601   7.148   1.890 -2.5736  1.4873 -0.2222
  814MOL0     H 7426   2.613   7.192   1.602  0.1033  1.9228  1.1098
  814MOL0     H 7427   2.485   7.106   1.689  0.1533 -0.5653  3.1888
  814MOL0     H 7428   2.496   7.409   1.732 -0.8465  0.8287 -1.4157
  814MOL0     H 7429   2.391   7.293   1.794 -1.1956  0.1509 -1.8715
  814MOL0     H 7430   3.283   6.616   1.536  1.0363 -2.4956 -2.1036
  814MOL0     H 7431   3.526   6.589   1.603  0.0467 -0.4846  1.1769
  814MOL0     H 7432   3.932   6.645   1.426  0.0584 -1.3416 -0.1556
  814MOL0     H 7433   4.157   6.637   1.387  0.7348  0.0330 -0.5505
  814MOL0     H 7434   4.813   6.435   1.915  0.5090  0.4956  0.4333
  814MOL0     H 7435   4.624   6.538   2.033  0.5685 -0.7460  1.0556
  814MOL0     H 7436   4.276   6.658   2.286  1.6447 -0.7911  2.6148
  814MOL0     H 7437   4.094   6.831   2.344  0.8035 -1.1921 -0.0557
  814MOL0     H 7438   4.253   7.262   2.402 -0.2532 -1.6477  2.1124
  814MOL0     H 7439   4.081   7.310   2.351  2.1298  2.2256  1.9219
  814MOL0     H 7440   4.262   7.351   2.165  1.6956 -1.4331 -2.9928
  814MOL0     H 7441   4.291   7.181   2.169 -1.6046 -0.6307 -0.5188
  814MOL0     H 7442   4.052   7.337   2.070 -2.1037 -0.2080  1.1534
  814MOL0     H 7443   4.001   7.187   2.146 -0.8252 -0.9990 -1.9633
  814MOL0     H 7444   4.041   7.189   1.907  0.7443 -2.7076 -1.8753
  814MOL0     H 7445   4.206   7.212   1.924 -1.2530  0.4009 -0.5706
  814MOL0     H 7446   4.175   6.799   2.020  0.2021  0.1402  3.2157
  814MOL0     H 7447   4.402   7.130   2.384  0.8372  0.1993  1.5698
  814MOL0     H 7448   4.568   6.973   2.344 -0.5587  2.5405  1.2905
  815MOL0     O 7449   0.204   4.830   3.527 -0.4478 -0.6366  0.3349
  815MOL0     C 7450   0.094   4.797   3.483  0.2010 -0.4197  0.8179
  815MOL0     O 7451   0.065   4.797   3.342 -0.8572 -0.0553 -0.1685
  815MOL0     C 7452   0.168   4.829   3.265  0.3862 -0.0373  0.6770
  815MOL0     C 7453   0.256   4.730   3.220  1.0106 -0.5554 -0.9951
  815MOL0     C 7454   0.354   4.777   3.134  0.0253  0.2902  0.3436
  815MOL0     C 7455   0.366   4.910   3.093 -0.1939 -0.1189 -0.3454
  815MOL0     O 7456   0.470   4.938   3.004 -0.4409 -0.3777  0.4412
  815MOL0     C 7457   0.526   5.075   3.004  0.1740  0.1690 -0.0322
  815MOL0     C 7458   0.638   5.082   2.903  0.2642 -0.1887  0.7668
  815MOL0     C 7459   0.678   5.227   2.873 -0.4757  0.0002 -0.9567
  815MOL0     C 7460   0.783   5.233   2.764 -0.0897  0.4324 -0.2181
  815MOL0     C 7461   0.815   5.360   2.701 -0.5621  0.2217  0.2346
  815MOL0     C 7462   0.931   5.343   2.594  0.1362  0.8711  0.5415
  815MOL0     C 7463   0.932   5.463   2.498 -0.8174  0.0314  0.5927
  815MOL0     C 7464   0.990   5.591   2.559  0.7329  0.0153  0.6238
  815MOL0     N 7465   1.015   5.685   2.446 -0.7218 -0.0136  0.1110
  815MOL0     C 7466   0.947   5.797   2.401 -0.5574  0.8229 -0.0321
  815MOL0     C 7467   1.027   5.853   2.304 -0.6824  1.1298  0.3584
  815MOL0     C 7468   0.977   5.966   2.215  0.4847  0.1569  0.5478
  815MOL0     C 7469   0.987   5.935   2.066 -0.3344 -0.0812  0.1921
  815MOL0     C 7470   0.944   6.040   1.963 -0.9407 -0.4850 -0.9039
  815MOL0     C 7471   0.798   6.083   1.939  0.1574 -0.1361  0.6580
  815MOL0     O 7472   0.714   5.971   1.984  0.4479 -0.1076  0.7607
  815MOL0     C 7473   0.582   6.014   1.992  0.6783  0.2889  0.9351
  815MOL0     C 7474   0.534   6.021   2.123 -0.0341  0.7180 -0.0842
  815MOL0     C 7475   0.409   6.079   2.146  0.9871  0.5707 -0.2452
  815MOL0     C 7476   0.318   6.106   2.033  0.5855  0.1766 -0.2105
  815MOL0     C 7477   0.171   6.145   2.060  0.2066 -1.2826  0.0116
  815MOL0     O 7478   0.089   6.136   1.950  0.7506 -0.2665 -0.2687
  815MOL0     C 7479  -0.045   6.152   1.980 -0.3565  0.8575  0.9073
  815MOL0     C 7480  -0.093   6.277   2.029 -0.8658  0.7016  0.6471
  815MOL0     C 7481  -0.225   6.286   2.069 -0.5103 -0.1949  1.1808
  815MOL0     C 7482  -0.315   6.180   2.064 -0.4092 -0.5593 -0.3602
  815MOL0     O 7483  -0.445   6.181   2.102 -0.3860 -0.4818  0.0981
  815MOL0     C 7484  -0.481   6.279   2.197  0.2545  0.2578  0.8288
  815MOL0     C 7485  -0.588   6.213   2.289 -0.6512  1.4177  0.0487
  815MOL0     C 7486  -0.724   6.196   2.210 -0.0241 -0.1975 -0.9284
  815MOL0     C 7487  -0.812   6.335   2.193 -0.4593  0.0984  0.3656
  815MOL0     C 7488  -0.847   6.412   2.326 -0.1578  0.4255  0.0348
  815MOL0     C 7489  -0.921   6.327   2.428 -0.2773  0.2912 -0.1344
  815MOL0     C 7490  -1.055   6.273   2.371 -0.4656 -0.1003  0.2641
  815MOL0     C 7491  -1.101   6.155   2.459 -0.0276  0.0311  0.7820
  815MOL0    Cl 7492  -0.981   6.025   2.429 -0.1451  0.2035  0.0537
  815MOL0     C 7493  -0.269   6.058   2.014  0.0439 -0.7310  0.7116
  815MOL0     C 7494  -0.133   6.043   1.981  0.4087 -0.4766 -0.4221
  815MOL0     O 7495   0.138   6.175   2.179 -0.3719 -0.4583 -0.1557
  815MOL0     C 7496   0.381   6.104   1.905  0.1178 -0.4216 -0.3641
  815MOL0     C 7497   0.508   6.055   1.881  0.5135  0.5520  0.3541
  815MOL0     N 7498   1.146   5.781   2.299  0.2823  0.1008  0.0183
  815MOL0     N 7499   1.140   5.685   2.387  0.7314  0.5938  0.0879
  815MOL0     C 7500   0.284   5.005   3.152 -0.6105  0.2464  0.8321
  815MOL0     C 7501   0.185   4.963   3.237  0.9334  0.0113  0.2742
  815MOL0     C 7502  -0.012   4.788   3.575 -0.0627 -0.1973 -0.3472
  815MOL0     C 7503  -0.144   4.794   3.535  1.1766 -0.2811 -0.0159
  815MOL0     C 7504  -0.250   4.797   3.636 -0.7589  0.0422 -0.3814
  815MOL0     C 7505  -0.225   4.799   3.774 -0.0668 -0.0669 -1.3100
  815MOL0     O 7506  -0.324   4.800   3.866  0.0814 -0.7442 -0.0894
  815MOL0     C 7507  -0.429   4.899   3.852  0.1538  0.0975 -0.0487
  815MOL0     C 7508  -0.416   5.002   3.967  0.1924 -0.1719  0.0440
  815MOL0     C 7509  -0.281   5.071   3.982  0.1396  0.0106 -0.9499
  815MOL0     C 7510  -0.239   5.163   3.858 -0.7930 -0.6642  0.7065
  815MOL0     C 7511  -0.135   5.265   3.882  0.4828  0.2901 -0.3592
  815MOL0     C 7512  -0.036   5.332   3.886  0.7214 -0.3351 -0.0929
  815MOL0     C 7513  -0.091   4.787   3.813 -0.0339  0.3176 -0.7320
  815MOL0     C 7514   0.013   4.797   3.721  0.4102 -0.7297  1.0075
  815MOL0     H 7515   0.235   4.628   3.251 -0.3097 -1.1377 -3.5104
  815MOL0     H 7516   0.423   4.700   3.101 -2.0005 -1.4526 -0.0064
  815MOL0     H 7517   0.568   5.103   3.101 -1.4347 -0.3450  0.8604
  815MOL0     H 7518   0.450   5.148   2.977  0.8283  0.7690 -0.2656
  815MOL0     H 7519   0.608   5.031   2.811  0.3502  1.6015 -0.3150
  815MOL0     H 7520   0.730   5.035   2.939 -0.0948 -1.1867  0.4222
  815MOL0     H 7521   0.716   5.281   2.961  0.9734 -2.1043 -0.2318
  815MOL0     H 7522   0.582   5.272   2.847 -1.1372 -2.4958 -3.2229
  815MOL0     H 7523   0.880   5.191   2.793 -0.0648  0.2741 -0.5279
  815MOL0     H 7524   0.744   5.168   2.686  1.0398  0.2466 -0.6513
  815MOL0     H 7525   0.826   5.444   2.770 -4.4928 -0.0038  1.3575
  815MOL0     H 7526   0.724   5.385   2.646 -0.9009  2.4983  1.7024
  815MOL0     H 7527   0.935   5.253   2.532  1.8094  2.0577 -1.2086
  815MOL0     H 7528   1.021   5.338   2.657  0.7695  2.6070 -0.1627
  815MOL0     H 7529   0.998   5.441   2.413  1.2738 -0.6689  2.3180
  815MOL0     H 7530   0.836   5.491   2.454  0.7498  1.8957 -1.9664
  815MOL0     H 7531   1.080   5.555   2.611  0.3815  0.5033  1.6002
  815MOL0     H 7532   0.924   5.644   2.628 -0.4748  1.2045 -1.3665
  815MOL0     H 7533   0.846   5.825   2.427 -1.1303  0.0023 -1.2591
  815MOL0     H 7534   1.029   6.057   2.246  0.6265  0.0119  0.7470
  815MOL0     H 7535   0.872   5.985   2.235 -0.0968  1.4050 -3.0571
  815MOL0     H 7536   0.935   5.843   2.036 -0.1890  0.1979 -0.9368
  815MOL0     H 7537   1.092   5.906   2.054  0.0260  0.7441  1.2688
  815MOL0     H 7538   1.004   6.127   1.990  0.5438 -0.9254 -2.6327
  815MOL0     H 7539   0.979   5.998   1.869 -0.8857  1.2013 -1.6674
  815MOL0     H 7540   0.779   6.098   1.833 -0.9888 -1.9206  0.5733
  815MOL0     H 7541   0.759   6.168   1.996 -1.9238  0.4546 -1.4944
  815MOL0     H 7542   0.599   5.989   2.204 -0.1614 -0.3184 -0.3800
  815MOL0     H 7543   0.370   6.105   2.244 -2.1220  2.1389 -1.7285
  815MOL0     H 7544  -0.019   6.356   2.037  1.1219 -1.0136  0.2162
  815MOL0     H 7545  -0.265   6.383   2.096  1.4718  1.0938 -0.1982
  815MOL0     H 7546  -0.516   6.366   2.141  1.5010  1.3152  1.6418
  815MOL0     H 7547  -0.397   6.312   2.259 -0.0456  1.0384  0.8292
  815MOL0     H 7548  -0.609   6.283   2.371  1.7900  1.1399  0.9884
  815MOL0     H 7549  -0.547   6.118   2.325  0.2744  0.4734 -3.1442
  815MOL0     H 7550  -0.787   6.120   2.258  3.2141 -1.1711  2.2390
  815MOL0     H 7551  -0.710   6.151   2.112 -2.2268 -0.5592 -1.1157
  815MOL0     H 7552  -0.742   6.399   2.139  1.9167  1.8697  4.9533
  815MOL0     H 7553  -0.902   6.315   2.135 -1.7334 -0.8889  2.5191
  815MOL0     H 7554  -0.898   6.508   2.311  1.8107  1.8130  1.7372
  815MOL0     H 7555  -0.751   6.437   2.372 -1.9694  2.1319  3.2438
  815MOL0     H 7556  -0.929   6.373   2.527  2.7840  1.6992 -0.4290
  815MOL0     H 7557  -0.850   6.246   2.446  2.4314  2.2084 -1.5734
  815MOL0     H 7558  -1.133   6.347   2.351 -2.8111 -2.6722 -0.6356
  815MOL0     H 7559  -1.029   6.225   2.277 -0.2527  0.3497  0.0893
  815MOL0     H 7560  -1.199   6.110   2.438 -0.6545  1.5290  0.3507
  815MOL0     H 7561  -1.108   6.193   2.561 -1.3890  0.7554  0.4429
  815MOL0     H 7562  -0.333   5.970   2.016 -0.1248 -0.6153  0.5281
  815MOL0     H 7563  -0.092   5.946   1.954 -4.3007 -2.6980 -0.5786
  815MOL0     H 7564   0.330   6.145   1.819  1.6807 -0.3518 -1.2911
  815MOL0     H 7565   0.566   6.074   1.791  2.1975  3.1527  1.8485
  815MOL0     H 7566   0.296   5.112   3.140  2.0121  0.1212  1.6740
  815MOL0     H 7567   0.129   5.045   3.281  1.7980  2.1626 -2.3771
  815MOL0     H 7568  -0.178   4.799   3.432 -0.5856 -1.3989  0.4774
  815MOL0     H 7569  -0.349   4.804   3.593 -0.7845  0.8044 -0.2166
  815MOL0     H 7570  -0.525   4.848   3.845 -0.1658  0.6944 -0.1089
  815MOL0     H 7571  -0.417   4.956   3.760  1.8007 -0.5502 -0.2617
  815MOL0     H 7572  -0.504   5.067   3.961  0.3823  0.0034 -1.0399
  815MOL0     H 7573  -0.436   4.941   4.055  2.5328  1.6784  2.0290
  815MOL0     H 7574  -0.200   5.000   3.996 -1.7302 -2.0441  0.1152
  815MOL0     H 7575  -0.290   5.133   4.072  0.6295 -2.5963  1.0129
  815MOL0     H 7576  -0.209   5.097   3.777 -2.5391 -0.4221 -0.1846
  815MOL0     H 7577  -0.325   5.219   3.820 -0.5890  0.7245  2.1568
  815MOL0     H 7578   0.050   5.394   3.871  0.6635  0.4236  2.2117
  815MOL0     H 7579  -0.078   4.773   3.920 -1.8997 -3.0916 -0.8147
  815MOL0     H 7580   0.114   4.809   3.757  0.8492  0.6448 -0.5485
  816MOL0     O 7581   7.610   6.182   6.915 -0.5785 -0.5651  0.1415
  816MOL0     C 7582   7.632   6.088   6.845 -0.2805  0.0846 -0.5853
  816MOL0     O 7583   7.531   6.023   6.773 -0.0048 -0.8716  0.1639
  816MOL0     C 7584   7.395   6.060   6.777 -0.4043 -0.2397 -0.8536
  816MOL0     C 7585   7.341   6.112   6.660  0.1129 -0.5532 -0.8112
  816MOL0     C 7586   7.203   6.142   6.657  0.1180 -0.1555 -0.7075
  816MOL0     C 7587   7.125   6.108   6.770  0.2371  0.3339  0.0864
  816MOL0     O 7588   6.986   6.135   6.784 -0.8311 -0.6337  1.0762
  816MOL0     C 7589   6.909   6.187   6.675 -0.0673 -0.0698 -0.2160
  816MOL0     C 7590   6.881   6.072   6.575  0.1744  0.0383  0.5845
  816MOL0     C 7591   6.760   6.091   6.470 -0.0772  0.2090  0.7265
  816MOL0     C 7592   6.639   6.158   6.540  0.1999  0.1393  0.7253
  816MOL0     C 7593   6.513   6.134   6.455 -0.4569 -0.4486  0.4979
  816MOL0     C 7594   6.400   6.232   6.489 -0.3456  0.0541  0.3604
  816MOL0     C 7595   6.274   6.207   6.398 -0.4633 -0.3512 -1.0611
  816MOL0     C 7596   6.182   6.333   6.432 -1.0017  0.4012 -0.5526
  816MOL0     N 7597   6.061   6.336   6.351 -0.4272 -0.1373 -0.2647
  816MOL0     C 7598   5.943   6.401   6.393 -0.8347  0.0790  0.4818
  816MOL0     C 7599   5.846   6.347   6.313  0.5980 -0.2160 -0.0917
  816MOL0     C 7600   5.700   6.391   6.315  0.0357 -0.5834 -0.0528
  816MOL0     C 7601   5.603   6.274   6.273 -1.1863 -0.7360  0.3290
  816MOL0     C 7602   5.464   6.290   6.315  0.3052 -0.6556  0.7185
  816MOL0     C 7603   5.397   6.404   6.245 -1.0725  0.2162  0.5867
  816MOL0     O 7604   5.257   6.411   6.292 -0.7377  0.2506 -0.3618
  816MOL0     C 7605   5.177   6.510   6.243 -0.0356 -0.1824 -0.0174
  816MOL0     C 7606   5.220   6.618   6.157  0.2115 -0.1610 -0.3587
  816MOL0     C 7607   5.128   6.718   6.129 -0.5309 -0.7319  0.2567
  816MOL0     C 7608   4.992   6.706   6.164 -0.1018  0.7057 -0.0138
  816MOL0     C 7609   4.894   6.802   6.125 -0.5022 -0.9232 -0.5019
  816MOL0     O 7610   4.765   6.749   6.120  1.1874 -0.2205  0.1727
  816MOL0     C 7611   4.663   6.824   6.065 -0.2024 -0.8965  1.0344
  816MOL0     C 7612   4.646   6.954   6.124  0.4347 -0.6381 -0.3408
  816MOL0     C 7613   4.539   7.034   6.077 -0.0544 -0.1680 -0.5651
  816MOL0     C 7614   4.452   6.989   5.976  0.5626  0.1102 -0.6045
  816MOL0     O 7615   4.336   7.055   5.935  0.1156  0.0724  0.1146
  816MOL0     C 7616   4.262   7.114   6.043  0.4742  0.4410 -0.3574
  816MOL0     C 7617   4.118   7.080   6.016 -0.1787 -1.0122 -0.2695
  816MOL0     C 7618   4.022   7.141   6.127 -1.0078  0.3092  0.7702
  816MOL0     C 7619   3.878   7.091   6.119  0.7229 -0.8350 -0.4189
  816MOL0     C 7620   3.789   7.147   6.234  0.1112  0.4067 -0.0886
  816MOL0     C 7621   3.641   7.114   6.215 -0.1775 -0.6720  0.1184
  816MOL0     C 7622   3.554   7.189   6.314 -0.2258  1.2761 -0.1901
  816MOL0     C 7623   3.416   7.143   6.287  0.3001 -0.0950  0.1627
  816MOL0    Cl 7624   3.397   6.961   6.315 -0.7243  0.4010  0.1505
  816MOL0     C 7625   4.484   6.872   5.908  0.0569  0.1027  0.0108
  816MOL0     C 7626   4.586   6.789   5.952 -0.1062  0.2415 -0.0051
  816MOL0     O 7627   4.932   6.913   6.077 -0.3832  0.2773 -0.0160
  816MOL0     C 7628   4.958   6.589   6.230  0.6371  0.2830  0.8576
  816MOL0     C 7629   5.046   6.494   6.274 -0.0695  0.5278  0.0116
  816MOL0     N 7630   5.903   6.240   6.235 -0.6560  0.6200  0.0778
  816MOL0     N 7631   6.033   6.252   6.257  0.5747 -0.0581  0.3767
  816MOL0     C 7632   7.190   6.065   6.891  0.8763 -0.2126  0.7932
  816MOL0     C 7633   7.324   6.044   6.893 -0.0398 -0.6300  0.2664
  816MOL0     C 7634   7.764   6.039   6.834  0.2923  0.3727  0.3991
  816MOL0     C 7635   7.783   5.917   6.760 -0.2115  0.0610  0.7333
  816MOL0     C 7636   7.914   5.876   6.735  0.2642 -0.2291  0.4417
  816MOL0     C 7637   8.029   5.943   6.785 -0.0892 -0.8419 -0.4833
  816MOL0     O 7638   8.152   5.890   6.774  0.4558  0.4205  0.0088
  816MOL0     C 7639   8.167   5.759   6.826 -0.6014  0.3594  0.9050
  816MOL0     C 7640   8.313   5.714   6.853 -0.8218  0.3454 -0.3633
  816MOL0     C 7641   8.404   5.710   6.727 -0.3153 -0.8946  0.2108
  816MOL0     C 7642   8.526   5.605   6.742  0.3405  0.3634  1.2717
  816MOL0     C 7643   8.607   5.625   6.862 -0.3937  0.4008 -0.8774
  816MOL0     C 7644   8.681   5.644   6.960  0.4204  0.2249  1.3558
  816MOL0     C 7645   8.008   6.064   6.862  0.3327  0.3482  0.0337
  816MOL0     C 7646   7.879   6.112   6.882  0.9143  0.4012  0.1192
  816MOL0     H 7647   7.409   6.123   6.576  1.2523  0.5222  0.2041
  816MOL0     H 7648   7.153   6.188   6.573 -1.2551  0.7448  0.5429
  816MOL0     H 7649   6.950   6.280   6.637 -0.0960  0.2372  0.4890
  816MOL0     H 7650   6.817   6.231   6.714 -0.9215 -1.7405 -0.2528
  816MOL0     H 7651   6.847   5.985   6.633 -0.6178 -0.3384 -0.4231
  816MOL0     H 7652   6.969   6.036   6.521  0.2351 -0.5358  1.0471
  816MOL0     H 7653   6.725   5.996   6.430 -2.1063  1.9549 -2.0370
  816MOL0     H 7654   6.785   6.161   6.389 -4.7772  0.9073 -0.4309
  816MOL0     H 7655   6.609   6.094   6.623  0.0249 -2.5767 -1.2877
  816MOL0     H 7656   6.654   6.258   6.582  1.5385 -0.7640  2.5879
  816MOL0     H 7657   6.480   6.030   6.457 -2.1470 -0.0976 -2.9568
  816MOL0     H 7658   6.540   6.156   6.352 -0.9421  4.3979  1.1747
  816MOL0     H 7659   6.440   6.333   6.480  2.2180 -0.8366  0.8681
  816MOL0     H 7660   6.375   6.225   6.595  2.2779  2.5257  1.2599
  816MOL0     H 7661   6.319   6.202   6.298  2.2484  0.9887 -0.0010
  816MOL0     H 7662   6.223   6.113   6.420 -1.8851  0.7320  0.5392
  816MOL0     H 7663   6.242   6.422   6.412 -2.3292  1.0614 -1.8575
  816MOL0     H 7664   6.159   6.325   6.538 -1.5247 -0.2637 -0.7126
  816MOL0     H 7665   5.926   6.481   6.465  2.2806 -1.0638  2.7136
  816MOL0     H 7666   5.690   6.477   6.248  1.7706 -0.3115 -0.0185
  816MOL0     H 7667   5.678   6.436   6.413  3.0040  0.0175  0.4449
  816MOL0     H 7668   5.639   6.179   6.313 -1.4366 -3.0544 -4.2422
  816MOL0     H 7669   5.616   6.259   6.165  2.6246 -0.9268  0.6708
  816MOL0     H 7670   5.414   6.195   6.293  0.9079 -0.5264 -1.5120
  816MOL0     H 7671   5.458   6.309   6.422  2.8423 -0.6535  0.9217
  816MOL0     H 7672   5.411   6.400   6.136 -3.0682 -0.9554  0.3285
  816MOL0     H 7673   5.444   6.497   6.279 -0.7554  1.8030 -3.5315
  816MOL0     H 7674   5.322   6.622   6.119  0.3779  1.5281  0.1887
  816MOL0     H 7675   5.173   6.801   6.074  1.0023 -2.3879 -1.1183
  816MOL0     H 7676   4.709   6.985   6.207 -0.7530 -0.9278  0.7014
  816MOL0     H 7677   4.526   7.135   6.115  0.8296  0.4334 -1.7874
  816MOL0     H 7678   4.278   7.222   6.036 -2.2849  1.0467  1.2132
  816MOL0     H 7679   4.285   7.077   6.143 -1.1000  0.7788  0.1604
  816MOL0     H 7680   4.100   6.972   6.014  2.4119 -1.8013  4.4626
  816MOL0     H 7681   4.086   7.134   5.927  3.0603  1.0137 -0.3801
  816MOL0     H 7682   4.026   7.249   6.111  1.6442  0.0359 -0.8182
  816MOL0     H 7683   4.059   7.119   6.228  1.9558  0.7074 -0.1551
  816MOL0     H 7684   3.828   7.109   6.023  1.0343  2.5844 -0.0696
  816MOL0     H 7685   3.877   6.983   6.138 -0.6477 -0.3947  2.4452
  816MOL0     H 7686   3.791   7.256   6.230  2.5638  0.5790  2.4550
  816MOL0     H 7687   3.834   7.112   6.328  1.0882  0.8352 -0.3824
  816MOL0     H 7688   3.633   7.006   6.227  1.1649 -1.0611 -1.9508
  816MOL0     H 7689   3.602   7.149   6.119 -0.9853  1.7482  1.2470
  816MOL0     H 7690   3.573   7.156   6.417  3.0906  1.9231 -0.4616
  816MOL0     H 7691   3.565   7.297   6.310 -4.8319  1.9490  0.1767
  816MOL0     H 7692   3.392   7.164   6.182 -1.3046  1.7030  0.8172
  816MOL0     H 7693   3.347   7.192   6.356  1.9510  0.6174  1.3709
  816MOL0     H 7694   4.420   6.830   5.830 -0.9149  0.3123  0.6739
  816MOL0     H 7695   4.587   6.699   5.892  0.4726  1.8645 -2.5836
  816MOL0     H 7696   4.851   6.571   6.221  0.7989  0.3702 -3.7021
  816MOL0     H 7697   5.012   6.405   6.326 -3.6136  3.9867  4.4914
  816MOL0     H 7698   7.127   6.044   6.977  0.6806 -0.1650  0.6616
  816MOL0     H 7699   7.377   5.993   6.973  0.1587 -0.9290 -0.0472
  816MOL0     H 7700   7.699   5.856   6.728 -0.4710 -0.0840  1.6772
  816MOL0     H 7701   7.911   5.779   6.687 -3.1368  0.1562 -0.3861
  816MOL0     H 7702   8.119   5.698   6.749 -2.6203  0.1086  2.2583
  816MOL0     H 7703   8.105   5.738   6.914 -0.5663 -2.1077  0.3991
  816MOL0     H 7704   8.355   5.786   6.924 -1.5090 -0.0627  0.4863
  816MOL0     H 7705   8.310   5.616   6.902 -0.7383 -0.2855 -1.5942
  816MOL0     H 7706   8.452   5.808   6.713 -3.3287  0.6903  0.0906
  816MOL0     H 7707   8.337   5.685   6.644 -2.1419 -2.0537  1.9562
  816MOL0     H 7708   8.498   5.499   6.737  1.9026 -0.0398 -1.6345
  816MOL0     H 7709   8.589   5.625   6.654  0.1626  3.9933  1.8298
  816MOL0     H 7710   8.742   5.655   7.048 -0.0348 -4.0197  2.4195
  816MOL0     H 7711   8.105   6.100   6.896  0.0130  2.0927 -0.8061
  816MOL0     H 7712   7.863   6.200   6.943  2.6048 -0.6103  2.1726
  817MOL0     O 7713   3.272   8.275   6.526  0.6362 -0.2351 -0.2533
  817MOL0     C 7714   3.297   8.390   6.565 -0.0671 -0.0223 -0.0836
  817MOL0     O 7715   3.209   8.478   6.619  0.0724  0.9490  0.6834
  817MOL0     C 7716   3.075   8.465   6.625  0.2490 -0.4374  0.3680
  817MOL0     C 7717   3.012   8.579   6.667 -0.2157 -0.0017  0.0264
  817MOL0     C 7718   2.879   8.576   6.697  0.3176  0.1099 -0.1334
  817MOL0     C 7719   2.801   8.461   6.674  1.3903 -0.9673  0.1157
  817MOL0     O 7720   2.664   8.454   6.693 -0.3926 -0.0957 -0.1523
  817MOL0     C 7721   2.586   8.544   6.624  0.0157  0.4232  0.3025
  817MOL0     C 7722   2.445   8.496   6.611 -0.2589  0.0176 -0.3174
  817MOL0     C 7723   2.360   8.570   6.509  0.1843 -0.5577  0.4736
  817MOL0     C 7724   2.208   8.534   6.520 -1.0226  0.7927 -0.2593
  817MOL0     C 7725   2.122   8.563   6.392 -0.6107  0.5729 -0.4595
  817MOL0     C 7726   1.981   8.559   6.415  0.2669  0.6189  0.0696
  817MOL0     C 7727   1.919   8.454   6.500  0.3476 -0.5378  0.2101
  817MOL0     C 7728   1.771   8.485   6.497  0.4300  0.0917  0.4570
  817MOL0     N 7729   1.696   8.454   6.611  0.5252 -0.4579 -0.4359
  817MOL0     C 7730   1.727   8.506   6.736  0.2805 -0.1766 -0.4160
  817MOL0     C 7731   1.658   8.428   6.827 -0.1338 -0.2024  0.2714
  817MOL0     C 7732   1.630   8.453   6.973 -0.1808 -0.2053  1.4065
  817MOL0     C 7733   1.766   8.494   7.033 -0.6279  0.4734 -0.1186
  817MOL0     C 7734   1.752   8.497   7.189 -1.1182 -0.1670 -0.7632
  817MOL0     C 7735   1.673   8.620   7.260 -0.6429  0.4584 -0.5342
  817MOL0     O 7736   1.649   8.594   7.401 -0.2178  0.0612  0.2562
  817MOL0     C 7737   1.535   8.520   7.406  0.4165 -0.9115 -0.7048
  817MOL0     C 7738   1.523   8.382   7.427 -1.0502 -0.3830 -0.0974
  817MOL0     C 7739   1.394   8.327   7.427  0.1843  0.1591 -0.0244
  817MOL0     C 7740   1.276   8.406   7.422 -0.0142 -0.2436  0.0195
  817MOL0     C 7741   1.146   8.349   7.446  0.0768 -0.7606  0.2741
  817MOL0     O 7742   1.049   8.453   7.462  0.4345  0.1217  0.0638
  817MOL0     C 7743   0.922   8.412   7.475  0.2049  0.1369  0.4434
  817MOL0     C 7744   0.862   8.395   7.601  0.0322 -0.1316 -0.3458
  817MOL0     C 7745   0.728   8.354   7.608  0.3841 -0.4384 -0.4625
  817MOL0     C 7746   0.656   8.339   7.487 -0.0442  0.2655  0.0956
  817MOL0     O 7747   0.522   8.332   7.508  0.0147  0.0087 -0.0812
  817MOL0     C 7748   0.437   8.338   7.390  0.5816 -0.0824  0.6048
  817MOL0     C 7749   0.286   8.308   7.440 -0.1912 -0.0383  0.2159
  817MOL0     C 7750   0.268   8.159   7.469 -0.0130 -0.2564  1.1642
  817MOL0     C 7751   0.141   8.154   7.564 -1.0485  0.3469  0.3197
  817MOL0     C 7752   0.103   8.006   7.588 -0.2680 -0.2773 -0.5940
  817MOL0     C 7753   0.019   7.949   7.464 -0.2998  0.4427 -1.0958
  817MOL0     C 7754  -0.126   8.000   7.462  0.2291  0.1964  0.5516
  817MOL0     C 7755  -0.195   7.957   7.333  0.0041 -0.0834 -0.4810
  817MOL0    Cl 7756  -0.368   7.995   7.347  0.3560  0.2762  0.2580
  817MOL0     C 7757   0.724   8.353   7.363  0.9359 -0.9839 -0.0838
  817MOL0     C 7758   0.861   8.389   7.353  0.6584 -0.5116  0.3484
  817MOL0     O 7759   1.116   8.231   7.450  0.0851  0.1798  0.1022
  817MOL0     C 7760   1.294   8.545   7.429 -1.0981 -0.1055  0.0376
  817MOL0     C 7761   1.423   8.601   7.419  0.1276  1.2684 -0.0506
  817MOL0     N 7762   1.590   8.332   6.759  0.4462  0.0008  0.5364
  817MOL0     N 7763   1.608   8.347   6.634 -1.0055  1.1034  0.1164
  817MOL0     C 7764   2.864   8.348   6.629  0.6459  0.1315  0.3305
  817MOL0     C 7765   3.001   8.355   6.603  0.8193  0.2534  0.0046
  817MOL0     C 7766   3.439   8.428   6.554  0.3715 -0.5006  0.2455
  817MOL0     C 7767   3.532   8.341   6.492  0.9619  0.6554 -0.2661
  817MOL0     C 7768   3.666   8.386   6.471 -1.2716  1.2341  0.5159
  817MOL0     C 7769   3.708   8.521   6.506 -0.5451 -0.3409  0.1250
  817MOL0     O 7770   3.828   8.585   6.474 -0.3393  0.7436  0.2231
  817MOL0     C 7771   3.910   8.515   6.375  0.1601 -0.4176 -0.9199
  817MOL0     C 7772   3.994   8.620   6.300 -0.6568  0.4671 -0.6208
  817MOL0     C 7773   4.121   8.632   6.397  1.1742  0.4513 -0.3950
  817MOL0     C 7774   4.184   8.764   6.357 -0.4005  0.8007  0.3315
  817MOL0     C 7775   4.327   8.784   6.382 -0.7922  0.2256  0.5551
  817MOL0     C 7776   4.445   8.815   6.381 -0.4450  1.4038 -1.3902
  817MOL0     C 7777   3.607   8.600   6.568 -0.5609 -0.1774  0.2222
  817MOL0     C 7778   3.478   8.557   6.590  0.3801  0.0237  1.3817
  817MOL0     H 7779   3.073   8.666   6.685 -0.0898  0.1968 -1.3149
  817MOL0     H 7780   2.845   8.675   6.727  2.3650  0.6553  0.5048
  817MOL0     H 7781   2.618   8.536   6.520 -0.0760 -1.5284  0.3877
  817MOL0     H 7782   2.603   8.643   6.666  2.4443  1.0300 -1.8642
  817MOL0     H 7783   2.399   8.513   6.708  2.1333 -1.7048  1.2521
  817MOL0     H 7784   2.450   8.387   6.603 -0.8259  0.0292 -0.9083
  817MOL0     H 7785   2.407   8.563   6.410 -0.5078  3.8272 -0.3880
  817MOL0     H 7786   2.376   8.678   6.522  0.8359 -0.7630  1.5301
  817MOL0     H 7787   2.204   8.426   6.541 -1.3072  0.9821  0.7489
  817MOL0     H 7788   2.157   8.580   6.606 -0.3907  2.5629 -0.8070
  817MOL0     H 7789   2.146   8.475   6.330  0.3543 -1.0608  2.0822
  817MOL0     H 7790   2.139   8.655   6.335 -1.4995  0.5579 -0.7664
  817MOL0     H 7791   1.927   8.567   6.320  1.2237 -2.4029 -0.8410
  817MOL0     H 7792   1.961   8.657   6.458  3.6655  1.0627  0.9332
  817MOL0     H 7793   1.947   8.351   6.475  0.8806 -0.0657 -1.2147
  817MOL0     H 7794   1.961   8.474   6.599  0.7937  2.0266 -0.4368
  817MOL0     H 7795   1.734   8.446   6.402 -0.2138 -0.2172  0.8231
  817MOL0     H 7796   1.758   8.594   6.492 -1.0093 -0.1185 -2.4943
  817MOL0     H 7797   1.787   8.595   6.751 -2.3991  1.7801 -0.4945
  817MOL0     H 7798   1.591   8.361   7.019 -2.4995 -0.4292 -0.7915
  817MOL0     H 7799   1.552   8.528   6.989 -0.8675 -0.7490  0.6554
  817MOL0     H 7800   1.805   8.590   6.997  0.6081  0.3028  0.7198
  817MOL0     H 7801   1.846   8.424   7.006 -2.2804 -2.0171  1.0822
  817MOL0     H 7802   1.699   8.407   7.221 -0.6493  0.8512  3.5671
  817MOL0     H 7803   1.856   8.494   7.223 -0.9725  0.2187 -1.1648
  817MOL0     H 7804   1.577   8.633   7.210 -0.2261 -1.9175 -2.0972
  817MOL0     H 7805   1.742   8.703   7.248 -1.3157  1.3078  1.1711
  817MOL0     H 7806   1.609   8.316   7.431 -2.2685 -2.1600 -1.9358
  817MOL0     H 7807   1.378   8.220   7.442  3.0818 -0.2332  0.9033
  817MOL0     H 7808   0.929   8.395   7.686 -1.6259 -3.4861  1.1241
  817MOL0     H 7809   0.684   8.349   7.708 -0.2228  0.3469 -0.6811
  817MOL0     H 7810   0.466   8.265   7.314  0.4965  1.7609 -1.2826
  817MOL0     H 7811   0.442   8.434   7.338 -0.2701 -2.0458 -3.5061
  817MOL0     H 7812   0.218   8.348   7.365  1.3122  0.1639 -1.1076
  817MOL0     H 7813   0.282   8.363   7.535 -2.9308  1.2892 -0.5663
  817MOL0     H 7814   0.349   8.103   7.517 -2.3616 -3.2714  1.9270
  817MOL0     H 7815   0.245   8.108   7.375  3.3108  3.8944 -2.3187
  817MOL0     H 7816   0.174   8.204   7.655 -0.2132 -1.7205  1.2283
  817MOL0     H 7817   0.059   8.217   7.531 -1.2556 -0.2287 -0.3096
  817MOL0     H 7818   0.038   7.985   7.673 -1.0534  2.7458 -0.3662
  817MOL0     H 7819   0.200   7.955   7.598  1.7166  3.2392 -0.1216
  817MOL0     H 7820   0.012   7.840   7.468 -0.8414  0.4545 -1.6286
  817MOL0     H 7821   0.070   7.959   7.368 -0.5539 -4.2127 -1.9597
  817MOL0     H 7822  -0.172   7.955   7.550  1.0909 -0.7688  0.5177
  817MOL0     H 7823  -0.132   8.109   7.466  2.7516  0.3849  0.2681
  817MOL0     H 7824  -0.175   7.850   7.321  3.0869  0.4090 -0.5918
  817MOL0     H 7825  -0.139   7.994   7.246  1.4658  0.7510  0.7623
  817MOL0     H 7826   0.673   8.353   7.267  1.9392 -2.1383 -0.6370
  817MOL0     H 7827   0.899   8.409   7.253 -0.7299  1.2920  0.1262
  817MOL0     H 7828   1.216   8.619   7.442 -2.7592 -1.5430 -1.1956
  817MOL0     H 7829   1.441   8.707   7.426  0.1258  1.3684 -1.3038
  817MOL0     H 7830   2.820   8.251   6.609  4.8615 -1.3774 -3.1417
  817MOL0     H 7831   3.041   8.262   6.565  1.0721  0.7195 -0.8837
  817MOL0     H 7832   3.499   8.241   6.467 -1.8368  0.9259  1.8383
  817MOL0     H 7833   3.740   8.337   6.408 -1.9034  1.6263 -0.5628
  817MOL0     H 7834   3.843   8.476   6.299 -1.7407 -0.8938  0.8960
  817MOL0     H 7835   3.962   8.428   6.414 -1.4692 -0.7446  0.6695
  817MOL0     H 7836   4.018   8.590   6.198  0.3037 -0.4544 -0.1477
  817MOL0     H 7837   3.944   8.716   6.284 -0.8186  0.5067  0.0962
  817MOL0     H 7838   4.182   8.542   6.385  0.2082  0.0711 -3.1487
  817MOL0     H 7839   4.091   8.640   6.502 -2.8583 -1.4567 -1.2192
  817MOL0     H 7840   4.181   8.789   6.251  1.4559  0.8026  0.2410
  817MOL0     H 7841   4.124   8.843   6.405 -2.7914 -1.4321  1.2729
  817MOL0     H 7842   4.548   8.840   6.389  0.0660 -0.8668  0.1986
  817MOL0     H 7843   3.639   8.699   6.598 -1.2204 -0.8321  3.3784
  817MOL0     H 7844   3.416   8.628   6.644 -1.1312 -0.1569 -0.0247
  818MOL0     O 7845   7.658  10.787  10.315 -0.3384  0.0207  0.2625
  818MOL0     C 7846   7.566  10.745  10.251  0.5695  0.6876  0.3117
  818MOL0     O 7847   7.443  10.703  10.295 -0.1202 -0.4365  0.4713
  818MOL0     C 7848   7.395  10.758  10.413  0.1085 -0.0522 -0.4400
  818MOL0     C 7849   7.399  10.887  10.466 -0.6092 -0.5509 -0.6437
  818MOL0     C 7850   7.348  10.912  10.590  1.0444 -0.3349  0.1085
  818MOL0     C 7851   7.291  10.816  10.670 -0.0751 -0.0266 -0.7484
  818MOL0     O 7852   7.246  10.851  10.798 -0.5813 -0.4585 -0.4386
  818MOL0     C 7853   7.149  10.770  10.855 -0.3379  0.3052 -0.8859
  818MOL0     C 7854   7.089  10.833  10.981 -0.0538  0.9074 -0.2573
  818MOL0     C 7855   7.006  10.960  10.955 -0.3113 -0.5603  0.2332
  818MOL0     C 7856   6.924  11.003  11.075 -0.2095 -0.5232  0.1313
  818MOL0     C 7857   6.819  11.105  11.033  0.0408  0.3967  0.1544
  818MOL0     C 7858   6.683  11.046  10.999  0.5413 -0.1254 -0.0689
  818MOL0     C 7859   6.573  11.143  10.983 -0.2096 -0.5844 -0.9329
  818MOL0     C 7860   6.519  11.208  11.120 -0.4820  0.0476  0.2912
  818MOL0     N 7861   6.400  11.288  11.098  0.6485  0.2886  0.1286
  818MOL0     C 7862   6.277  11.266  11.165 -0.8051  0.3976  0.3000
  818MOL0     C 7863   6.190  11.361  11.120 -0.0613 -1.2895 -0.5372
  818MOL0     C 7864   6.049  11.371  11.166 -0.7852  0.6573  0.0548
  818MOL0     C 7865   5.954  11.295  11.074  0.2651  0.4320 -0.5229
  818MOL0     C 7866   5.924  11.377  10.957  0.8029  0.0651 -0.2642
  818MOL0     C 7867   5.763  11.367  10.922 -1.7326  0.2059 -0.2002
  818MOL0     O 7868   5.687  11.421  11.039  0.2810  0.9601 -0.3150
  818MOL0     C 7869   5.546  11.403  11.042 -0.2974  0.2730  0.1374
  818MOL0     C 7870   5.498  11.274  11.071 -0.4327  0.6409  1.0346
  818MOL0     C 7871   5.363  11.236  11.093 -0.6805  0.2710 -0.1632
  818MOL0     C 7872   5.264  11.338  11.067 -0.0539  0.3724 -0.0995
  818MOL0     C 7873   5.116  11.319  11.080  0.2132 -0.2060 -1.0736
  818MOL0     O 7874   5.072  11.198  11.126  0.1701  0.2493 -0.3978
  818MOL0     C 7875   4.942  11.156  11.141 -0.3119  0.2217  0.0806
  818MOL0     C 7876   4.920  11.053  11.234 -0.3872  0.5288 -0.1347
  818MOL0     C 7877   4.785  11.013  11.252 -0.1765  0.1063  0.0870
  818MOL0     C 7878   4.677  11.064  11.181  0.7316  0.0536 -1.0244
  818MOL0     O 7879   4.559  11.004  11.204 -0.1675  0.1434  0.1346
  818MOL0     C 7880   4.446  11.095  11.186  0.6814  0.4631  0.4621
  818MOL0     C 7881   4.328  11.021  11.239  0.0862 -0.3448 -0.0292
  818MOL0     C 7882   4.305  11.033  11.390  0.8509 -0.0502 -0.2773
  818MOL0     C 7883   4.418  10.989  11.475 -0.6607 -1.5898  0.3875
  818MOL0     C 7884   4.458  10.836  11.463 -0.4842  0.3520 -0.2996
  818MOL0     C 7885   4.556  10.801  11.568 -0.0009 -0.6721  0.3541
  818MOL0     C 7886   4.617  10.663  11.540  0.2625 -0.1886  1.1039
  818MOL0     C 7887   4.700  10.620  11.663 -0.7447  0.1447 -0.4621
  818MOL0    Cl 7888   4.815  10.736  11.715  0.0728 -0.3288 -0.0896
  818MOL0     C 7889   4.708  11.164  11.087 -0.4606 -0.5097  0.0881
  818MOL0     C 7890   4.833  11.206  11.059 -0.4102 -1.1843  0.0633
  818MOL0     O 7891   5.037  11.407  11.049 -0.0363 -0.3687  0.7058
  818MOL0     C 7892   5.315  11.461  11.020 -0.4754 -0.2495  0.5294
  818MOL0     C 7893   5.450  11.493  11.013  0.4477 -0.8275 -0.3020
  818MOL0     N 7894   6.264  11.446  11.029 -0.0404  0.7804 -0.6297
  818MOL0     N 7895   6.394  11.406  11.029 -0.5663  0.0639 -0.1742
  818MOL0     C 7896   7.300  10.687  10.619 -0.2121  0.7628 -0.5607
  818MOL0     C 7897   7.337  10.654  10.492  0.4141 -0.2962 -0.6398
  818MOL0     C 7898   7.596  10.693  10.111  0.0203 -0.4272  0.1995
  818MOL0     C 7899   7.726  10.686  10.063 -0.1064 -0.1900 -0.5127
  818MOL0     C 7900   7.753  10.647   9.932  0.5623  0.2669  0.1617
  818MOL0     C 7901   7.649  10.608   9.840  1.0058 -0.8920  0.2344
  818MOL0     O 7902   7.666  10.563   9.709  0.8132 -0.1877 -0.1845
  818MOL0     C 7903   7.792  10.588   9.653  0.4674 -0.5292 -0.5461
  818MOL0     C 7904   7.789  10.534   9.515  0.1651  0.1996  0.1826
  818MOL0     C 7905   7.742  10.386   9.496 -0.1631 -0.4513 -0.5690
  818MOL0     C 7906   7.806  10.330   9.366 -0.2720 -0.3716  0.0034
  818MOL0     C 7907   7.947  10.299   9.393  0.1443  0.2075  0.5269
  818MOL0     C 7908   8.056  10.263   9.424 -0.0088 -0.8192 -0.2533
  818MOL0     C 7909   7.513  10.617   9.888  0.1778 -0.5761  0.0595
  818MOL0     C 7910   7.493  10.658  10.016 -0.4946  0.9277 -0.5146
  818MOL0     H 7911   7.442  10.971  10.412 -2.8680  2.0184  1.3187
  818MOL0     H 7912   7.352  11.011  10.635  1.0315 -2.0468  4.2505
  818MOL0     H 7913   7.206  10.681  10.885 -0.5591  1.1476  2.4662
  818MOL0     H 7914   7.068  10.758  10.783 -0.2903 -0.3454 -0.8432
  818MOL0     H 7915   7.179  10.853  11.040  0.1877  1.7066 -0.9001
  818MOL0     H 7916   7.031  10.758  11.037 -0.6415  2.8879  1.9603
  818MOL0     H 7917   6.939  10.945  10.870 -0.8556 -1.7157  0.8393
  818MOL0     H 7918   7.082  11.033  10.927 -4.3045  3.2726 -1.6764
  818MOL0     H 7919   6.865  10.921  11.117  1.3724 -2.2606 -0.8494
  818MOL0     H 7920   6.988  11.043  11.155 -1.3295  0.3846  0.5996
  818MOL0     H 7921   6.857  11.170  10.954 -0.2115 -2.6782 -2.6901
  818MOL0     H 7922   6.817  11.166  11.124  1.1212  0.5382  0.0989
  818MOL0     H 7923   6.664  10.972  11.077  1.4787  0.3821  0.6581
  818MOL0     H 7924   6.678  10.999  10.901 -0.6397 -1.6476  0.6785
  818MOL0     H 7925   6.611  11.220  10.915  0.3589 -0.1701 -0.1766
  818MOL0     H 7926   6.492  11.093  10.929  1.3405 -0.7877 -3.2002
  818MOL0     H 7927   6.595  11.274  11.162 -1.3159  0.9983  0.3433
  818MOL0     H 7928   6.496  11.124  11.186  0.5590 -1.6860 -1.4176
  818MOL0     H 7929   6.273  11.189  11.241 -0.8361 -0.2690 -0.3655
  818MOL0     H 7930   6.008  11.472  11.176  1.2949  1.5023  0.5388
  818MOL0     H 7931   6.051  11.330  11.267 -0.3436  1.7768  0.5188
  818MOL0     H 7932   5.861  11.297  11.131  1.5512  3.5880  1.7180
  818MOL0     H 7933   5.995  11.195  11.054 -0.1177  0.1003  0.3344
  818MOL0     H 7934   5.950  11.481  10.975 -0.5753  0.4338 -0.3408
  818MOL0     H 7935   5.974  11.348  10.864 -1.2948  0.4043 -1.5544
  818MOL0     H 7936   5.736  11.265  10.895  2.9877 -0.6354 -2.7790
  818MOL0     H 7937   5.747  11.448  10.849  0.9505  1.9609  0.9948
  818MOL0     H 7938   5.572  11.195  11.081 -3.0743 -2.7007 -2.5647
  818MOL0     H 7939   5.315  11.142  11.117 -1.4210  0.6840  0.0260
  818MOL0     H 7940   5.004  10.999  11.278  0.2867  1.3358 -0.3979
  818MOL0     H 7941   4.772  10.926  11.315 -0.9913 -0.0102 -0.2321
  818MOL0     H 7942   4.421  11.105  11.080  0.7574 -1.4202  0.2279
  818MOL0     H 7943   4.469  11.191  11.232  4.0813  1.0938 -2.2047
  818MOL0     H 7944   4.350  10.915  11.223  2.9470  0.3464 -1.4149
  818MOL0     H 7945   4.235  11.052  11.190  0.2447 -0.0148 -0.1203
  818MOL0     H 7946   4.217  10.972  11.414  1.8658 -0.9464  1.3340
  818MOL0     H 7947   4.273  11.137  11.404 -3.8781 -1.4174  1.1412
  818MOL0     H 7948   4.510  11.048  11.468  0.3264 -3.1512 -0.2704
  818MOL0     H 7949   4.384  11.005  11.578  1.7167 -2.3245  1.3728
  818MOL0     H 7950   4.500  10.823  11.363 -3.6438 -2.5898 -1.4495
  818MOL0     H 7951   4.364  10.782  11.478 -0.2720  0.6527  2.6704
  818MOL0     H 7952   4.513  10.811  11.668  1.5849  1.7995  0.8791
  818MOL0     H 7953   4.631  10.880  11.566 -0.0636 -0.6163 -1.1311
  818MOL0     H 7954   4.535  10.592  11.522  0.8493 -0.8638  1.0730
  818MOL0     H 7955   4.681  10.671  11.452  0.8504  3.3977  1.6866
  818MOL0     H 7956   4.758  10.530  11.638  2.5306  1.7079  0.9132
  818MOL0     H 7957   4.631  10.603  11.746 -0.5482 -0.0421 -0.3344
  818MOL0     H 7958   4.635  11.213  11.022 -2.2820 -1.0559  1.6344
  818MOL0     H 7959   4.846  11.282  10.983 -0.4267 -1.3478 -0.1035
  818MOL0     H 7960   5.252  11.545  10.990  1.8694  1.9647  1.4320
  818MOL0     H 7961   5.476  11.592  10.977  1.0324 -1.4967 -1.8024
  818MOL0     H 7962   7.277  10.601  10.681  0.0436 -0.8051 -2.5510
  818MOL0     H 7963   7.315  10.558  10.447 -0.3638 -1.5355  2.1812
  818MOL0     H 7964   7.806  10.726  10.124  0.1591 -1.2274 -0.1543
  818MOL0     H 7965   7.857  10.627   9.906  0.1784 -1.7384 -0.0432
  818MOL0     H 7966   7.863  10.532   9.715 -1.3815 -2.4724 -0.0898
  818MOL0     H 7967   7.820  10.693   9.661  3.6489 -1.3993  2.1277
  818MOL0     H 7968   7.705  10.597   9.487  0.0148 -0.2861 -0.4802
  818MOL0     H 7969   7.883  10.545   9.461  0.4711 -1.2064  0.3848
  818MOL0     H 7970   7.633  10.378   9.490 -0.1597  0.3674 -2.7476
  818MOL0     H 7971   7.767  10.312   9.572  1.9421 -0.0239 -0.7668
  818MOL0     H 7972   7.761  10.234   9.339 -0.2741  0.1402 -1.9222
  818MOL0     H 7973   7.794  10.405   9.288 -2.1652 -0.2682  0.3511
  818MOL0     H 7974   8.156  10.238   9.455 -0.6098  0.3796  3.1514
  818MOL0     H 7975   7.429  10.603   9.821 -0.4672  2.2405  0.1652
  818MOL0     H 7976   7.391  10.677  10.047 -1.2734  1.2210 -3.0233
  819MOL0     O 7977   3.826   9.401   9.027  0.0863  0.1038  0.0357
  819MOL0     C 7978   3.796   9.520   9.021 -0.6987  0.7198 -0.0855
  819MOL0     O 7979   3.674   9.577   9.054  0.3201  0.0064 -0.5704
  819MOL0     C 7980   3.550   9.511   9.057 -0.1066  0.1040  0.2798
  819MOL0     C 7981   3.434   9.587   9.095 -0.3875  0.2133 -0.1929
  819MOL0     C 7982   3.311   9.530   9.095 -0.9779  0.1841 -0.1110
  819MOL0     C 7983   3.289   9.397   9.083 -0.6396 -0.2969 -0.4978
  819MOL0     O 7984   3.164   9.341   9.096  0.2922  0.3236  0.0248
  819MOL0     C 7985   3.053   9.432   9.119 -0.0049 -0.3916 -1.0356
  819MOL0     C 7986   2.922   9.357   9.098  0.5846  0.2409  0.0118
  819MOL0     C 7987   2.796   9.418   9.157 -0.5334  0.2535 -0.3792
  819MOL0     C 7988   2.683   9.317   9.139  0.1584 -0.6849 -0.7843
  819MOL0     C 7989   2.632   9.295   8.998 -0.6807  0.1023  0.4797
  819MOL0     C 7990   2.479   9.292   8.989  0.2043 -0.9552  0.5919
  819MOL0     C 7991   2.418   9.192   9.093 -0.5100  0.7023  0.2018
  819MOL0     C 7992   2.268   9.210   9.100  0.9226 -0.7817  0.1787
  819MOL0     N 7993   2.223   9.336   9.154 -0.2132 -0.8119  0.4009
  819MOL0     C 7994   2.241   9.379   9.289 -0.2719 -0.1382 -0.1696
  819MOL0     C 7995   2.192   9.501   9.300 -0.1551 -0.2656 -0.4152
  819MOL0     C 7996   2.171   9.595   9.417 -0.8654  0.6254 -0.3077
  819MOL0     C 7997   2.069   9.704   9.376 -0.3177  0.6737  0.0780
  819MOL0     C 7998   2.074   9.821   9.485  0.0451  0.2687  0.1480
  819MOL0     C 7999   2.193   9.909   9.445 -0.6939  0.5764 -0.2654
  819MOL0     O 8000   2.205  10.035   9.518 -0.0290  0.9923  0.6561
  819MOL0     C 8001   2.322  10.043   9.595 -0.4007  0.0091  0.2988
  819MOL0     C 8002   2.361   9.943   9.679 -0.8009 -0.6273 -0.4857
  819MOL0     C 8003   2.477   9.950   9.757 -0.6282  0.7205  0.3578
  819MOL0     C 8004   2.554  10.070   9.742  0.1360  0.5846 -0.6349
  819MOL0     C 8005   2.681  10.081   9.816  1.0657  0.3797 -0.7378
  819MOL0     O 8006   2.725   9.952   9.858  0.1798 -0.2919 -0.3635
  819MOL0     C 8007   2.850   9.943   9.912 -0.0248 -0.0821 -0.3462
  819MOL0     C 8008   2.937  10.042   9.974  0.2693 -0.6620 -0.4984
  819MOL0     C 8009   3.078  10.017   9.993  0.3952 -0.7421 -0.5582
  819MOL0     C 8010   3.123   9.888   9.979  0.1563 -0.7264  0.1967
  819MOL0     O 8011   3.244   9.842  10.025 -0.6829 -0.3356 -0.3992
  819MOL0     C 8012   3.346   9.935  10.035  1.0008  0.4829 -0.5738
  819MOL0     C 8013   3.474   9.878  10.083 -0.1241  0.0412 -0.0986
  819MOL0     C 8014   3.451   9.810  10.229  0.4921  0.8037  0.0589
  819MOL0     C 8015   3.575   9.740  10.273 -0.3547 -0.5291 -0.7355
  819MOL0     C 8016   3.676   9.839  10.346  0.1467  0.3998 -0.1154
  819MOL0     C 8017   3.782   9.758  10.416 -0.6902  0.1570  0.2416
  819MOL0     C 8018   3.890   9.697  10.320  0.1672 -0.1470 -0.7765
  819MOL0     C 8019   3.996   9.594  10.388  0.7948  0.1538  0.0313
  819MOL0    Cl 8020   3.920   9.435  10.452 -0.3260 -0.0390 -0.4203
  819MOL0     C 8021   3.041   9.790   9.927  0.0891  1.4076 -0.0244
  819MOL0     C 8022   2.904   9.817   9.901 -0.0537  0.5404  0.0140
  819MOL0     O 8023   2.735  10.195   9.826 -0.2071  0.1784  1.3120
  819MOL0     C 8024   2.501  10.172   9.670 -0.6003  0.3635 -0.3426
  819MOL0     C 8025   2.388  10.161   9.589 -0.6673 -0.3760  0.7682
  819MOL0     N 8026   2.157   9.532   9.172 -0.8538 -0.4611  0.4643
  819MOL0     N 8027   2.170   9.437   9.083 -0.6235  0.6888 -0.1419
  819MOL0     C 8028   3.394   9.315   9.049  0.6630 -0.3833 -1.0859
  819MOL0     C 8029   3.526   9.370   9.033 -0.5471 -0.6026  0.4483
  819MOL0     C 8030   3.911   9.612   8.977  0.7023 -0.2865  0.2567
  819MOL0     C 8031   3.885   9.755   8.965  0.1346  0.1233  0.0531
  819MOL0     C 8032   3.989   9.838   8.923 -0.6079  0.3014 -1.4244
  819MOL0     C 8033   4.109   9.787   8.880 -0.1190 -0.1629 -0.0630
  819MOL0     O 8034   4.203   9.873   8.823  0.6988  0.6780 -0.1683
  819MOL0     C 8035   4.338   9.875   8.870  0.1335 -0.2171 -0.6822
  819MOL0     C 8036   4.362  10.014   8.925 -0.7781 -0.1105 -0.1099
  819MOL0     C 8037   4.387  10.120   8.809  0.6990  1.1225 -0.1686
  819MOL0     C 8038   4.465  10.242   8.859 -0.3436  0.1533  0.4168
  819MOL0     C 8039   4.488  10.330   8.751  0.2159 -0.5066  0.6921
  819MOL0     C 8040   4.492  10.404   8.654 -1.1537  0.0740 -0.6438
  819MOL0     C 8041   4.139   9.650   8.900  0.1333 -0.2679  0.0637
  819MOL0     C 8042   4.039   9.558   8.948  0.4492 -0.6757  0.7151
  819MOL0     H 8043   3.438   9.691   9.126 -1.4406 -0.2177  1.5779
  819MOL0     H 8044   3.226   9.595   9.111 -0.4205  0.9963 -0.3872
  819MOL0     H 8045   3.050   9.511   9.044  0.2234  0.1132 -0.5195
  819MOL0     H 8046   3.054   9.481   9.217 -2.3249 -0.4662 -0.9176
  819MOL0     H 8047   2.927   9.260   9.149 -3.5427 -0.7027 -0.9914
  819MOL0     H 8048   2.912   9.328   8.993 -0.2378 -0.2343  0.2101
  819MOL0     H 8049   2.772   9.506   9.097 -3.0804 -1.1367 -1.5683
  819MOL0     H 8050   2.815   9.450   9.259 -3.3510  0.1917  0.2519
  819MOL0     H 8051   2.714   9.230   9.198 -0.9394 -0.6999 -0.2037
  819MOL0     H 8052   2.604   9.357   9.203 -0.6708 -2.2738 -0.7684
  819MOL0     H 8053   2.685   9.203   8.970  2.9438  2.5548 -1.5683
  819MOL0     H 8054   2.668   9.372   8.929  0.3816  1.0497  2.0298
  819MOL0     H 8055   2.457   9.262   8.886  0.2852 -1.8074  0.8201
  819MOL0     H 8056   2.450   9.395   9.010  4.1112  0.6901 -1.1331
  819MOL0     H 8057   2.444   9.098   9.044 -0.2985  2.5209 -3.5613
  819MOL0     H 8058   2.452   9.207   9.196  1.6700  1.3473 -0.5448
  819MOL0     H 8059   2.220   9.122   9.144  1.9321 -2.4961 -1.9631
  819MOL0     H 8060   2.235   9.203   8.996  3.2393 -1.0959 -0.5850
  819MOL0     H 8061   2.291   9.323   9.368 -3.1803 -1.0218  1.1971
  819MOL0     H 8062   2.270   9.635   9.443 -0.7046 -0.9703  1.7434
  819MOL0     H 8063   2.126   9.534   9.496 -0.0219 -0.1404 -0.4117
  819MOL0     H 8064   1.973   9.653   9.380  0.1559 -0.2390  0.1612
  819MOL0     H 8065   2.090   9.741   9.275  0.3477 -1.6550 -0.6925
  819MOL0     H 8066   1.987   9.887   9.476 -0.7536 -0.8709 -0.9371
  819MOL0     H 8067   2.076   9.785   9.588  2.3834  2.6785  1.0348
  819MOL0     H 8068   2.173   9.931   9.340  1.4972  3.5462 -0.1945
  819MOL0     H 8069   2.281   9.846   9.443 -1.6460 -0.7950 -2.0135
  819MOL0     H 8070   2.294   9.858   9.684 -1.9203  0.2517 -0.0826
  819MOL0     H 8071   2.507   9.862   9.813  1.2049 -0.1725 -1.8866
  819MOL0     H 8072   2.908  10.145   9.992 -2.2226 -1.3090 -0.4570
  819MOL0     H 8073   3.142  10.089  10.043  1.2723 -1.1767 -1.0254
  819MOL0     H 8074   3.320  10.009  10.110 -1.2356 -0.4779 -0.3377
  819MOL0     H 8075   3.356   9.983   9.937 -1.6336  0.1794 -1.0607
  819MOL0     H 8076   3.551   9.956  10.087 -0.4719  0.3795  0.0812
  819MOL0     H 8077   3.498   9.798  10.013 -0.6997 -0.8031  0.6526
  819MOL0     H 8078   3.374   9.733  10.237  1.3610 -0.0305  0.8131
  819MOL0     H 8079   3.422   9.886  10.302 -3.8280  0.1301 -0.6916
  819MOL0     H 8080   3.550   9.671  10.354 -0.6923  0.5974  0.1619
  819MOL0     H 8081   3.618   9.683  10.191  2.8734  3.3403 -2.0911
  819MOL0     H 8082   3.629   9.905  10.419  2.6996  1.9583  0.2574
  819MOL0     H 8083   3.723   9.905  10.273 -0.4100  0.0081 -0.8420
  819MOL0     H 8084   3.738   9.679  10.479 -1.2804  1.1232  1.0800
  819MOL0     H 8085   3.837   9.818  10.490 -0.5344 -1.4412  1.4963
  819MOL0     H 8086   3.833   9.647  10.241  0.9630 -0.8424 -0.9235
  819MOL0     H 8087   3.949   9.779  10.277  0.2148 -1.0959 -2.6429
  819MOL0     H 8088   4.042   9.640  10.476  1.1129 -1.3891  0.7044
  819MOL0     H 8089   4.084   9.566  10.330  1.4884 -2.5491  2.1753
  819MOL0     H 8090   3.075   9.688   9.914 -1.4336  0.8392  0.1396
  819MOL0     H 8091   2.835   9.737   9.874 -2.7157  2.4775  0.7321
  819MOL0     H 8092   2.553  10.268   9.669  1.9723 -0.9105 -1.7889
  819MOL0     H 8093   2.364  10.247   9.527  1.5279 -0.0486  0.2765
  819MOL0     H 8094   3.384   9.207   9.057 -1.5948 -0.0909  1.3751
  819MOL0     H 8095   3.608   9.304   9.005 -2.5965 -2.7269 -0.8828
  819MOL0     H 8096   3.786   9.799   8.969 -0.0354 -0.0377 -1.7343
  819MOL0     H 8097   3.967   9.943   8.911  0.7352  1.4587  3.6565
  819MOL0     H 8098   4.420   9.855   8.801  3.7812  3.2489  2.1784
  819MOL0     H 8099   4.335   9.805   8.954  0.8639  1.6808  1.0146
  819MOL0     H 8100   4.284  10.050   8.993 -0.3180  0.1531  0.2862
  819MOL0     H 8101   4.448  10.005   8.992 -1.0661 -1.4849  0.1057
  819MOL0     H 8102   4.283  10.139   8.780  0.5331 -0.6672 -0.8693
  819MOL0     H 8103   4.435  10.061   8.730  0.7409 -2.9456  2.5891
  819MOL0     H 8104   4.408  10.300   8.932 -0.7203 -0.3102  0.4921
  819MOL0     H 8105   4.564  10.218   8.898  1.4131  3.0529 -1.8142
  819MOL0     H 8106   4.504  10.433   8.551  0.5364 -1.1223 -0.8407
  819MOL0     H 8107   4.239   9.619   8.871  1.2618  2.6776  0.3741
  819MOL0     H 8108   4.071   9.455   8.943  3.3395  0.1038 -4.5344
  820MOL0     O 8109   8.617   8.010   8.470 -0.6867 -0.0385  0.1813
  820MOL0     C 8110   8.641   7.891   8.490  0.7844 -0.1390  0.8143
  820MOL0     O 8111   8.569   7.811   8.575 -0.1056 -0.1788 -0.6585
  820MOL0     C 8112   8.468   7.855   8.656  0.0713  0.6612 -0.3385
  820MOL0     C 8113   8.407   7.985   8.674 -0.4382 -0.2834  0.5005
  820MOL0     C 8114   8.308   8.003   8.768  0.3539 -0.8998 -0.6800
  820MOL0     C 8115   8.251   7.901   8.846 -0.1751  1.0273  0.2025
  820MOL0     O 8116   8.142   7.927   8.925  0.4035 -0.2404  0.1391
  820MOL0     C 8117   8.067   7.828   8.982 -0.2269  0.2913 -0.7297
  820MOL0     C 8118   7.949   7.898   9.041 -0.4968 -0.8582  0.0621
  820MOL0     C 8119   7.866   7.808   9.137  0.0735 -0.1471  0.0259
  820MOL0     C 8120   7.739   7.877   9.188  0.2761  0.5626  0.4410
  820MOL0     C 8121   7.777   8.007   9.264  0.1466  0.0559  0.6410
  820MOL0     C 8122   7.706   8.009   9.407  0.1925  0.1303 -0.6387
  820MOL0     C 8123   7.559   8.052   9.388  0.4589  0.4579 -0.0520
  820MOL0     C 8124   7.478   8.068   9.522 -0.3561 -0.1706 -0.4098
  820MOL0     N 8125   7.350   8.121   9.499  1.2058  0.2464  0.2262
  820MOL0     C 8126   7.321   8.260   9.503  0.5056  0.7525 -0.1905
  820MOL0     C 8127   7.191   8.275   9.454  0.2611  0.0965 -0.4859
  820MOL0     C 8128   7.116   8.409   9.415 -0.0569 -0.2478  0.3022
  820MOL0     C 8129   7.065   8.393   9.266  0.1957 -0.2293  0.0903
  820MOL0     C 8130   7.061   8.526   9.180 -0.7663 -0.7879 -0.7967
  820MOL0     C 8131   6.937   8.616   9.181  0.0519 -0.2330 -0.6256
  820MOL0     O 8132   6.859   8.588   9.300 -0.0466  0.1375 -0.1427
  820MOL0     C 8133   6.728   8.581   9.270  0.0518  0.1848  0.6335
  820MOL0     C 8134   6.679   8.469   9.213  0.1149  0.3847  0.2267
  820MOL0     C 8135   6.540   8.443   9.213  0.2574 -1.1770 -0.4031
  820MOL0     C 8136   6.444   8.539   9.256  0.7731  0.0915  0.3616
  820MOL0     C 8137   6.302   8.520   9.255 -0.5396  0.0351 -0.0245
  820MOL0     O 8138   6.231   8.613   9.326 -0.4997  0.7442  0.2562
  820MOL0     C 8139   6.093   8.598   9.327 -0.5669  0.2853 -0.8488
  820MOL0     C 8140   6.026   8.486   9.373  0.1643 -0.3495  0.6154
  820MOL0     C 8141   5.891   8.467   9.374  0.1258  0.2060  1.1406
  820MOL0     C 8142   5.807   8.582   9.338 -0.1130 -1.0315 -0.3164
  820MOL0     O 8143   5.667   8.588   9.343  0.1161 -0.3879 -0.2052
  820MOL0     C 8144   5.598   8.539   9.460 -0.1517  0.1571  0.8677
  820MOL0     C 8145   5.445   8.578   9.462  0.6323  0.1610  1.3302
  820MOL0     C 8146   5.357   8.503   9.357 -0.2536 -0.5563 -0.1395
  820MOL0     C 8147   5.203   8.513   9.388 -0.5175 -0.0695  0.1312
  820MOL0     C 8148   5.119   8.408   9.297  0.0706  0.2690 -0.1670
  820MOL0     C 8149   4.967   8.404   9.341  0.5487  0.5532 -0.1737
  820MOL0     C 8150   4.928   8.367   9.475  0.9938  0.2693 -0.3833
  820MOL0     C 8151   4.915   8.225   9.497 -0.1416  0.8216 -0.2779
  820MOL0    Cl 8152   5.060   8.130   9.501  0.2237  0.1253 -0.1873
  820MOL0     C 8153   5.877   8.694   9.282 -0.6439  0.4291 -0.0669
  820MOL0     C 8154   6.014   8.706   9.284 -0.0910  0.6401  0.6708
  820MOL0     O 8155   6.257   8.420   9.195 -0.0956  0.3272  0.2423
  820MOL0     C 8156   6.501   8.646   9.333 -0.5969 -0.1480  0.0016
  820MOL0     C 8157   6.641   8.669   9.330 -1.1561  0.8543  0.7539
  820MOL0     N 8158   7.153   8.147   9.415  1.0007  0.2642  0.0602
  820MOL0     N 8159   7.240   8.053   9.445  0.4504  0.5847 -0.1646
  820MOL0     C 8160   8.313   7.773   8.827 -0.8799 -0.3426  0.8073
  820MOL0     C 8161   8.425   7.756   8.739  0.6467  1.4199  0.2142
  820MOL0     C 8162   8.755   7.826   8.405  0.6657 -0.4775  0.6204
  820MOL0     C 8163   8.814   7.909   8.305  0.3397  0.7848 -0.4872
  820MOL0     C 8164   8.912   7.854   8.229  0.4257 -0.3139  0.2080
  820MOL0     C 8165   8.965   7.723   8.250 -0.4705 -1.1027 -0.3702
  820MOL0     O 8166   9.045   7.649   8.162  0.2837 -0.2149 -0.0923
  820MOL0     C 8167   9.089   7.706   8.036  1.0328  0.4756  0.5953
  820MOL0     C 8168   8.993   7.726   7.914  0.8801  0.5865 -0.0023
  820MOL0     C 8169   8.926   7.601   7.856  0.2086 -0.4857 -1.1942
  820MOL0     C 8170   8.807   7.621   7.770  0.0355  0.2383 -0.0612
  820MOL0     C 8171   8.754   7.506   7.707 -0.2875 -0.0194  0.2448
  820MOL0     C 8172   8.706   7.405   7.655 -0.4813 -0.2842 -0.5750
  820MOL0     C 8173   8.913   7.652   8.358 -0.5389  0.4593  0.0718
  820MOL0     C 8174   8.805   7.698   8.435 -0.8751  0.2458  0.5629
  820MOL0     H 8175   8.444   8.072   8.621 -1.4234 -1.0007 -1.4425
  820MOL0     H 8176   8.261   8.100   8.784 -0.6358 -1.6284  1.2249
  820MOL0     H 8177   8.120   7.774   9.062 -1.3109  0.3175  0.0305
  820MOL0     H 8178   8.029   7.754   8.912 -1.3626  0.8412 -0.7181
  820MOL0     H 8179   7.887   7.927   8.956  0.2504  2.2074  0.4483
  820MOL0     H 8180   7.984   7.990   9.089 -2.0969  0.9009 -1.9357
  820MOL0     H 8181   7.924   7.780   9.226 -0.3151 -1.6018 -0.1577
  820MOL0     H 8182   7.833   7.711   9.100 -0.8134  1.2391 -3.1371
  820MOL0     H 8183   7.660   7.884   9.112  1.1277  0.8076 -0.4313
  820MOL0     H 8184   7.696   7.816   9.269  3.9392 -0.1240  2.0654
  820MOL0     H 8185   7.759   8.094   9.201  0.5425  0.5168  1.1524
  820MOL0     H 8186   7.884   8.003   9.287  0.0964 -0.9297  0.7303
  820MOL0     H 8187   7.773   8.076   9.459 -0.1012 -0.9817  1.2640
  820MOL0     H 8188   7.693   7.917   9.465  0.5159  0.6601  0.2959
  820MOL0     H 8189   7.558   8.143   9.328 -0.0838 -0.4433 -1.4558
  820MOL0     H 8190   7.513   7.975   9.326 -0.2015  0.5024  0.3650
  820MOL0     H 8191   7.526   8.138   9.590  0.3470 -0.4501 -0.6139
  820MOL0     H 8192   7.461   7.978   9.582  0.9097 -0.7324 -0.8585
  820MOL0     H 8193   7.393   8.333   9.539  1.4268  0.0722 -0.6233
  820MOL0     H 8194   7.183   8.494   9.433 -0.7224 -0.0429  1.9527
  820MOL0     H 8195   7.031   8.415   9.482 -2.5875  2.2411 -2.7793
  820MOL0     H 8196   6.962   8.355   9.262 -0.9949  2.7628 -2.0277
  820MOL0     H 8197   7.129   8.326   9.208 -0.4116  1.1056 -2.2672
  820MOL0     H 8198   7.152   8.584   9.200 -1.7230 -0.2499  2.6020
  820MOL0     H 8199   7.061   8.508   9.072 -2.2457  1.7441 -1.2784
  820MOL0     H 8200   6.869   8.621   9.096 -2.1260  1.7227  1.1072
  820MOL0     H 8201   6.962   8.721   9.200 -1.5332 -0.1519  1.1926
  820MOL0     H 8202   6.746   8.396   9.170 -1.8863 -0.5130 -1.5226
  820MOL0     H 8203   6.501   8.353   9.168 -0.7466 -0.1768 -1.6002
  820MOL0     H 8204   6.089   8.407   9.412  1.2457  0.4940  0.6206
  820MOL0     H 8205   5.840   8.379   9.413  1.0438 -0.1031  1.6710
  820MOL0     H 8206   5.639   8.587   9.549  0.6446  1.4756 -0.1670
  820MOL0     H 8207   5.605   8.430   9.467 -3.5766 -0.6020 -3.3535
  820MOL0     H 8208   5.440   8.685   9.440 -1.2672  0.3496  2.5119
  820MOL0     H 8209   5.411   8.577   9.566  0.3535 -3.4302  1.3419
  820MOL0     H 8210   5.395   8.401   9.346  1.4659  0.0961 -0.6100
  820MOL0     H 8211   5.380   8.547   9.260 -1.1573  0.7539  0.2084
  820MOL0     H 8212   5.182   8.502   9.495 -0.0916  2.8725  0.6189
  820MOL0     H 8213   5.163   8.613   9.368  0.6364  0.1005 -1.4681
  820MOL0     H 8214   5.167   8.310   9.310  0.6551  0.3094 -1.7633
  820MOL0     H 8215   5.143   8.432   9.193 -3.1752 -1.1727 -1.4122
  820MOL0     H 8216   4.918   8.330   9.277  0.7950 -0.4234  0.7405
  820MOL0     H 8217   4.933   8.503   9.310 -0.5215  0.0236 -0.7462
  820MOL0     H 8218   4.999   8.410   9.546 -0.4621  0.3463  1.0872
  820MOL0     H 8219   4.827   8.401   9.502 -0.5550 -3.2303 -1.0936
  820MOL0     H 8220   4.852   8.178   9.421  2.6076 -3.0375 -0.4610
  820MOL0     H 8221   4.866   8.223   9.595  0.8270  1.2578  0.2227
  820MOL0     H 8222   5.826   8.775   9.231 -0.4968 -0.5847 -1.9284
  820MOL0     H 8223   6.064   8.800   9.260  0.1595 -0.3040 -3.1701
  820MOL0     H 8224   6.440   8.725   9.376 -0.4802  0.0603 -0.2147
  820MOL0     H 8225   6.687   8.760   9.369  3.0373  0.0845 -1.7263
  820MOL0     H 8226   8.289   7.680   8.877 -0.4472  0.0320  1.7254
  820MOL0     H 8227   8.469   7.657   8.741 -2.2407 -0.1664 -3.0822
  820MOL0     H 8228   8.792   8.013   8.286  0.1079  0.2143 -4.2424
  820MOL0     H 8229   8.960   7.900   8.143 -2.2704  1.3787 -0.5247
  820MOL0     H 8230   9.170   7.644   7.997  0.7715  0.6061 -0.1607
  820MOL0     H 8231   9.133   7.806   8.051 -1.3556  1.9805 -1.6707
  820MOL0     H 8232   8.914   7.796   7.944  0.5339 -0.1967  0.9601
  820MOL0     H 8233   9.057   7.776   7.840 -0.4012  3.9766  0.9926
  820MOL0     H 8234   8.895   7.542   7.943  0.4982  1.8093  0.5441
  820MOL0     H 8235   9.000   7.545   7.797  0.4710  0.1723 -1.4996
  820MOL0     H 8236   8.726   7.659   7.833 -1.6603 -1.3316 -1.1657
  820MOL0     H 8237   8.827   7.698   7.693 -4.1168  0.1549 -1.4775
  820MOL0     H 8238   8.674   7.319   7.600  1.1949 -2.5695  1.7555
  820MOL0     H 8239   8.949   7.549   8.366  2.5747  1.5242  1.5483
  820MOL0     H 8240   8.781   7.632   8.518  4.0389  0.5333  2.5802
  821MOL0     O 8241   9.657  10.814   7.721  0.2479 -0.2820  0.1537
  821MOL0     C 8242   9.658  10.839   7.599 -0.1954 -0.2858 -0.4503
  821MOL0     O 8243   9.552  10.824   7.516  0.0848  0.3022 -0.0252
  821MOL0     C 8244   9.441  10.774   7.580  0.2156  0.6593 -0.5461
  821MOL0     C 8245   9.362  10.853   7.664 -0.8900 -0.4683 -0.6867
  821MOL0     C 8246   9.253  10.794   7.727  0.9174 -0.9855  0.5001
  821MOL0     C 8247   9.226  10.661   7.718 -0.3102  0.1340 -0.2311
  821MOL0     O 8248   9.127  10.604   7.796  0.1093  0.1640  0.2629
  821MOL0     C 8249   9.012  10.681   7.843  0.9658 -0.2216  0.1103
  821MOL0     C 8250   9.033  10.715   7.994 -0.6673 -0.4024 -1.0781
  821MOL0     C 8251   8.917  10.797   8.059 -0.8347  0.3075  0.3537
  821MOL0     C 8252   8.801  10.712   8.070  0.0097 -0.6751  0.1603
  821MOL0     C 8253   8.700  10.751   8.177  0.5435  0.0625 -0.4885
  821MOL0     C 8254   8.635  10.891   8.167 -0.1359 -0.5237 -0.7440
  821MOL0     C 8255   8.567  10.938   8.032  0.5107  0.5392  0.0396
  821MOL0     C 8256   8.454  10.835   8.002  0.7689 -0.0272  0.0060
  821MOL0     N 8257   8.407  10.839   7.861 -0.2760  0.1104 -0.4172
  821MOL0     C 8258   8.469  10.877   7.752 -0.1406 -0.9024  0.5976
  821MOL0     C 8259   8.375  10.880   7.661 -0.6373 -0.1878 -0.4344
  821MOL0     C 8260   8.399  10.902   7.508  0.9167 -1.2417  0.1337
  821MOL0     C 8261   8.382  11.050   7.467  0.4673 -0.2209  0.5218
  821MOL0     C 8262   8.370  11.050   7.323 -0.2571  0.2077  0.9674
  821MOL0     C 8263   8.367  11.193   7.264  0.8661  0.1250 -0.3581
  821MOL0     O 8264   8.395  11.172   7.128  0.3200  0.1479 -0.1341
  821MOL0     C 8265   8.505  11.236   7.070  0.6414  0.4708 -0.8925
  821MOL0     C 8266   8.615  11.297   7.136 -0.2813 -0.5752 -0.1697
  821MOL0     C 8267   8.699  11.374   7.050 -0.4063 -0.1901  0.9451
  821MOL0     C 8268   8.686  11.400   6.912  0.3354 -0.1325 -0.0676
  821MOL0     C 8269   8.779  11.472   6.819  0.2145 -0.6607 -0.0924
  821MOL0     O 8270   8.788  11.437   6.682  0.6768  0.4231  0.5534
  821MOL0     C 8271   8.885  11.500   6.603  0.6067  0.1861 -0.4824
  821MOL0     C 8272   8.845  11.605   6.527  0.4033 -0.6591  1.3727
  821MOL0     C 8273   8.934  11.680   6.450  0.1946 -0.0862  0.4053
  821MOL0     C 8274   9.065  11.647   6.437  0.0739 -0.6992 -0.2490
  821MOL0     O 8275   9.155  11.716   6.361 -0.3236 -0.0017 -0.2324
  821MOL0     C 8276   9.154  11.862   6.340  0.2172 -0.3770  0.1947
  821MOL0     C 8277   9.289  11.928   6.346  0.0623  0.6879  0.3944
  821MOL0     C 8278   9.390  11.867   6.250 -0.2309  0.5976  0.1592
  821MOL0     C 8279   9.490  11.968   6.201 -0.2502 -1.0637 -0.3879
  821MOL0     C 8280   9.584  11.920   6.092 -0.9048  0.3532  0.4076
  821MOL0     C 8281   9.695  12.028   6.066  0.4723  0.3529 -0.5930
  821MOL0     C 8282   9.790  11.968   5.956 -0.8772 -0.7495  1.2702
  821MOL0     C 8283   9.878  12.080   5.908  1.0773 -0.6570 -0.3581
  821MOL0    Cl 8284  10.001  12.102   6.021  0.4847 -0.1687  0.4832
  821MOL0     C 8285   9.112  11.530   6.502  0.5773  0.4532 -0.6808
  821MOL0     C 8286   9.019  11.457   6.583  0.4651 -0.0359  0.6564
  821MOL0     O 8287   8.848  11.549   6.875 -0.7847 -0.3034 -0.2798
  821MOL0     C 8288   8.582  11.325   6.855 -0.0421 -0.2487 -0.0537
  821MOL0     C 8289   8.490  11.257   6.939 -0.3701  1.0352 -0.0894
  821MOL0     N 8290   8.258  10.834   7.713 -0.0278  0.4892 -0.4238
  821MOL0     N 8291   8.276  10.815   7.839  0.1231 -0.4647  0.4761
  821MOL0     C 8292   9.292  10.580   7.632 -0.1136  0.7757  0.4372
  821MOL0     C 8293   9.399  10.640   7.562 -0.3874 -0.1146  0.5835
  821MOL0     C 8294   9.782  10.879   7.533  0.6292 -0.1748 -0.4808
  821MOL0     C 8295   9.889  10.916   7.607 -0.5083  0.2373  0.0925
  821MOL0     C 8296  10.015  10.943   7.557 -0.5307 -0.4453 -0.1101
  821MOL0     C 8297  10.035  10.933   7.416  0.0932 -1.2785  0.4503
  821MOL0     O 8298  10.158  10.961   7.360  0.2675  0.0311 -0.1026
  821MOL0     C 8299  10.264  11.023   7.437  0.7147 -0.0315  0.1662
  821MOL0     C 8300  10.389  11.047   7.339  1.0460 -0.1910  0.0372
  821MOL0     C 8301  10.427  10.915   7.272 -0.6701  0.1330  0.3783
  821MOL0     C 8302  10.572  10.912   7.233 -0.5043 -0.5569  0.6655
  821MOL0     C 8303  10.604  11.037   7.173 -0.3073  0.0226 -0.1972
  821MOL0     C 8304  10.639  11.141   7.130  0.0727  0.1047  0.6141
  821MOL0     C 8305   9.932  10.894   7.339  0.9622 -0.7678 -0.4634
  821MOL0     C 8306   9.808  10.862   7.393 -0.7548 -0.0678 -0.3175
  821MOL0     H 8307   9.388  10.956   7.683 -4.3693  0.7813 -1.8832
  821MOL0     H 8308   9.198  10.852   7.800  0.7476 -0.3787 -0.1060
  821MOL0     H 8309   8.925  10.619   7.821  0.7294 -0.4626  1.6028
  821MOL0     H 8310   8.999  10.771   7.782 -0.1160  0.2693  1.0393
  821MOL0     H 8311   9.130  10.766   7.999  0.4114 -2.1772 -2.4093
  821MOL0     H 8312   9.041  10.624   8.054  1.3250 -0.3326 -1.1474
  821MOL0     H 8313   8.892  10.898   8.022  1.1284  1.3039  1.5706
  821MOL0     H 8314   8.954  10.821   8.159  2.3586 -0.4861 -0.5233
  821MOL0     H 8315   8.745  10.712   7.976 -0.4574 -0.5182  0.4357
  821MOL0     H 8316   8.840  10.614   8.098  1.5285 -0.0163  0.4236
  821MOL0     H 8317   8.758  10.761   8.270  1.5269 -0.8155 -0.9852
  821MOL0     H 8318   8.623  10.676   8.193 -0.0503  0.9684  1.2779
  821MOL0     H 8319   8.723  10.956   8.172 -0.5453  0.1688 -1.9909
  821MOL0     H 8320   8.571  10.906   8.254 -1.1178  1.9422 -1.8078
  821MOL0     H 8321   8.519  11.036   8.037 -0.1758  0.2102 -0.1059
  821MOL0     H 8322   8.643  10.928   7.954  0.4753 -1.5585  0.2204
  821MOL0     H 8323   8.378  10.848   8.078  3.0633  3.3792  1.9707
  821MOL0     H 8324   8.506  10.739   8.016  3.3849  1.4269  0.9046
  821MOL0     H 8325   8.572  10.909   7.738 -1.0299  1.2530 -1.8589
  821MOL0     H 8326   8.318  10.851   7.456 -0.2771 -0.7460  1.4426
  821MOL0     H 8327   8.497  10.867   7.473  1.2359  1.3960 -1.9679
  821MOL0     H 8328   8.467  11.113   7.493 -0.3306  1.0982  0.0265
  821MOL0     H 8329   8.300  11.097   7.522  0.1035 -1.3522  0.9909
  821MOL0     H 8330   8.457  10.998   7.283 -0.2091  2.5938 -2.4931
  821MOL0     H 8331   8.277  11.001   7.291 -0.0459  0.4473 -0.0567
  821MOL0     H 8332   8.449  11.247   7.311  3.7339 -4.1086 -0.0068
  821MOL0     H 8333   8.267  11.234   7.281  1.5169  2.2533 -1.2593
  821MOL0     H 8334   8.628  11.284   7.243 -1.1635 -3.4064 -0.3227
  821MOL0     H 8335   8.780  11.433   7.092  1.2934  1.4658 -4.0234
  821MOL0     H 8336   8.738  11.621   6.534  0.5572  0.8243  0.7803
  821MOL0     H 8337   8.895  11.766   6.396 -0.2255 -0.7828 -0.4214
  821MOL0     H 8338   9.094  11.905   6.420 -1.0865  1.7607 -1.8035
  821MOL0     H 8339   9.116  11.887   6.240  1.3405  3.4524  0.5779
  821MOL0     H 8340   9.324  11.917   6.450  2.0062  1.8431 -0.0862
  821MOL0     H 8341   9.278  12.035   6.329  0.3997  0.6949  0.1988
  821MOL0     H 8342   9.338  11.834   6.159  1.5190  0.2139 -0.7461
  821MOL0     H 8343   9.435  11.776   6.291  2.5747  2.5959  1.8169
  821MOL0     H 8344   9.425  12.052   6.173 -2.6743 -2.8387 -0.3914
  821MOL0     H 8345   9.547  12.007   6.286 -0.3734  1.4174 -1.3488
  821MOL0     H 8346   9.530  11.910   5.998  0.7628  2.3967 -0.8512
  821MOL0     H 8347   9.635  11.828   6.121  0.1595  0.5857 -0.6578
  821MOL0     H 8348   9.749  12.056   6.156 -0.0963  0.0114 -0.1383
  821MOL0     H 8349   9.638  12.114   6.031  1.5230  0.5129 -1.9970
  821MOL0     H 8350   9.844  11.880   5.993  0.8289 -0.1006  0.4525
  821MOL0     H 8351   9.731  11.931   5.871  2.3652 -3.4639 -0.0564
  821MOL0     H 8352   9.817  12.170   5.894 -0.4796 -1.6063  0.0431
  821MOL0     H 8353   9.919  12.052   5.810 -2.2201  0.0715 -2.0997
  821MOL0     H 8354   9.215  11.497   6.497 -0.0929 -1.9470  0.0917
  821MOL0     H 8355   9.045  11.362   6.628  0.7371 -0.6795 -0.7989
  821MOL0     H 8356   8.558  11.336   6.749  0.0503 -0.4414 -0.0952
  821MOL0     H 8357   8.399  11.231   6.886  0.4633  1.7077 -1.9215
  821MOL0     H 8358   9.280  10.474   7.616 -1.7801  1.0879 -0.6632
  821MOL0     H 8359   9.452  10.581   7.488 -2.5250 -2.7213  0.9801
  821MOL0     H 8360   9.870  10.930   7.713  1.0224  0.6314  0.3333
  821MOL0     H 8361  10.096  10.981   7.620  0.0860 -1.5433 -0.2043
  821MOL0     H 8362  10.301  10.957   7.516  0.4399  1.0855  1.2447
  821MOL0     H 8363  10.227  11.115   7.484  1.8958  0.2869  0.5099
  821MOL0     H 8364  10.362  11.128   7.270 -2.9261 -0.6082  0.8739
  821MOL0     H 8365  10.467  11.072   7.411 -0.9027  3.2170  1.1697
  821MOL0     H 8366  10.358  10.896   7.189 -0.3791  0.2091  0.1137
  821MOL0     H 8367  10.414  10.836   7.347 -2.1943  0.0927  0.0939
  821MOL0     H 8368  10.637  10.888   7.318 -0.2981 -1.8430  0.1668
  821MOL0     H 8369  10.580  10.826   7.166  1.5676  0.7544 -0.9015
  821MOL0     H 8370  10.682  11.233   7.098 -0.2944  0.5694  1.4301
  821MOL0     H 8371   9.935  10.893   7.230  1.5790 -0.3539 -0.4531
  821MOL0     H 8372   9.731  10.835   7.322  0.0061  0.4737 -1.3738
  822MOL0     O 8373   2.131   3.435   4.032  0.2077  0.3074  0.6425
  822MOL0     C 8374   2.163   3.551   4.019  0.4223  0.2142  0.4988
  822MOL0     O 8375   2.067   3.650   3.972  0.2427  0.4430  0.1050
  822MOL0     C 8376   1.931   3.620   3.983  0.5416 -0.1597 -0.2860
  822MOL0     C 8377   1.848   3.580   3.877  0.6309 -0.6063 -0.3185
  822MOL0     C 8378   1.723   3.539   3.897  0.5298 -0.4740  0.0964
  822MOL0     C 8379   1.659   3.556   4.022  0.3258  0.4687  0.3762
  822MOL0     O 8380   1.527   3.519   4.017  0.1425 -0.8003  0.3484
  822MOL0     C 8381   1.453   3.576   4.126 -0.2652  0.0058 -0.4622
  822MOL0     C 8382   1.303   3.543   4.110  0.4088 -0.3723  0.7241
  822MOL0     C 8383   1.222   3.582   4.238  0.4179  0.3890  0.0705
  822MOL0     C 8384   1.087   3.511   4.246  0.2747  0.4113  0.4758
  822MOL0     C 8385   0.980   3.552   4.148 -0.3257 -0.5556 -0.3782
  822MOL0     C 8386   0.858   3.473   4.176  0.9265 -0.4095 -0.2168
  822MOL0     C 8387   0.745   3.508   4.089 -0.6499 -0.2554 -0.5975
  822MOL0     C 8388   0.611   3.439   4.121 -0.5154 -0.0789  0.1747
  822MOL0     N 8389   0.536   3.440   3.994  0.3654  0.3175  0.6339
  822MOL0     C 8390   0.479   3.557   3.938  0.0098 -0.4058  0.0025
  822MOL0     C 8391   0.385   3.523   3.845  0.3178  0.0164 -0.4099
  822MOL0     C 8392   0.276   3.603   3.781 -0.5764 -0.6835  0.4644
  822MOL0     C 8393   0.150   3.609   3.855 -0.0379  1.1193 -0.3431
  822MOL0     C 8394   0.056   3.705   3.787 -0.1837 -0.5374 -0.0521
  822MOL0     C 8395  -0.075   3.731   3.862  0.4297  0.7466  0.0804
  822MOL0     O 8396  -0.132   3.841   3.789  0.6480  0.1400 -0.0872
  822MOL0     C 8397  -0.259   3.885   3.825 -0.1877  0.9795  0.3114
  822MOL0     C 8398  -0.323   3.963   3.735 -0.3409 -0.0273 -1.0026
  822MOL0     C 8399  -0.453   3.998   3.749 -0.1919 -0.6810  0.1900
  822MOL0     C 8400  -0.520   3.970   3.868 -0.4817 -0.6135 -0.7388
  822MOL0     C 8401  -0.643   4.030   3.906  0.2860 -0.4257  0.0637
  822MOL0     O 8402  -0.698   4.013   4.033 -0.2986  0.0747  0.1580
  822MOL0     C 8403  -0.820   4.063   4.063 -0.3303  0.2654 -0.3344
  822MOL0     C 8404  -0.838   4.167   4.156 -0.2084  0.7318 -0.4659
  822MOL0     C 8405  -0.968   4.216   4.181  0.0005 -1.1256  0.4870
  822MOL0     C 8406  -1.082   4.159   4.119  0.8005  0.4574 -0.1876
  822MOL0     O 8407  -1.207   4.222   4.135 -0.4091 -0.0644 -0.6566
  822MOL0     C 8408  -1.251   4.243   4.272  0.4200 -0.2975  0.1801
  822MOL0     C 8409  -1.407   4.277   4.278 -0.0611  0.3251  0.1634
  822MOL0     C 8410  -1.492   4.163   4.205 -0.1562  0.3390  1.4487
  822MOL0     C 8411  -1.644   4.167   4.194 -0.0110  1.0556  0.0205
  822MOL0     C 8412  -1.723   4.116   4.314  0.0834  0.9924  0.6878
  822MOL0     C 8413  -1.873   4.150   4.297 -0.5269 -0.6616  0.3223
  822MOL0     C 8414  -1.910   4.304   4.303  0.7990 -0.0109  0.4474
  822MOL0     C 8415  -1.832   4.384   4.415  0.0760  0.3385 -0.2870
  822MOL0    Cl 8416  -1.866   4.296   4.569 -0.1112 -0.5202  0.2261
  822MOL0     C 8417  -1.067   4.046   4.045  0.1535  0.3727  0.2028
  822MOL0     C 8418  -0.938   4.000   4.012 -0.4549 -0.1045  0.1703
  822MOL0     O 8419  -0.713   4.077   3.812  0.1558 -0.2274 -0.1554
  822MOL0     C 8420  -0.454   3.895   3.969  0.7866  0.7730 -0.1551
  822MOL0     C 8421  -0.324   3.837   3.937  0.1905 -0.8207 -0.6998
  822MOL0     N 8422   0.383   3.379   3.841 -0.1862  0.5170  0.7081
  822MOL0     N 8423   0.480   3.333   3.919  0.1306 -0.1330 -0.2718
  822MOL0     C 8424   1.737   3.605   4.128  0.3232  0.2521 -0.5359
  822MOL0     C 8425   1.870   3.639   4.106  0.2747 -0.1284 -0.1885
  822MOL0     C 8426   2.300   3.587   4.046  0.2061 -0.5800  0.0795
  822MOL0     C 8427   2.398   3.484   4.089  0.2617  0.2155  0.7411
  822MOL0     C 8428   2.529   3.512   4.100  0.1787  0.9124  0.3555
  822MOL0     C 8429   2.576   3.643   4.082 -0.3118  0.1690 -0.7752
  822MOL0     O 8430   2.700   3.687   4.130  0.5238 -0.6406 -0.6978
  822MOL0     C 8431   2.780   3.593   4.187  0.0703 -0.3117 -0.8979
  822MOL0     C 8432   2.922   3.628   4.221  0.6674 -0.3531  0.1884
  822MOL0     C 8433   2.982   3.513   4.304 -0.0493 -0.0704 -1.0774
  822MOL0     C 8434   2.963   3.519   4.456 -0.0407 -0.1073 -0.7396
  822MOL0     C 8435   3.006   3.638   4.526  0.1670  0.1742 -0.4857
  822MOL0     C 8436   3.053   3.732   4.587  0.2495 -0.0670 -0.1866
  822MOL0     C 8437   2.486   3.747   4.054  0.5560 -0.4140  0.1038
  822MOL0     C 8438   2.356   3.716   4.021  0.6218  1.0417 -0.0477
  822MOL0     H 8439   1.895   3.565   3.780  0.7558 -1.5075 -0.1303
  822MOL0     H 8440   1.666   3.499   3.814 -0.5131  3.1860 -1.1743
  822MOL0     H 8441   1.464   3.683   4.145 -1.3134 -0.0287  0.4464
  822MOL0     H 8442   1.486   3.531   4.220 -0.8733  0.7593  0.1291
  822MOL0     H 8443   1.273   3.439   4.095 -3.0312  0.4332  1.1185
  822MOL0     H 8444   1.268   3.602   4.025  3.1435  1.1364  0.5101
  822MOL0     H 8445   1.207   3.689   4.226 -0.2978  0.7910  3.4909
  822MOL0     H 8446   1.282   3.557   4.326  1.9174 -1.0333 -1.2896
  822MOL0     H 8447   1.099   3.402   4.246 -0.4921  0.3139  0.3103
  822MOL0     H 8448   1.041   3.530   4.343 -1.9065 -4.5390  0.7693
  822MOL0     H 8449   1.013   3.545   4.044  0.2284 -1.7860 -0.1296
  822MOL0     H 8450   0.970   3.658   4.173  3.3962 -0.2334  0.3251
  822MOL0     H 8451   0.830   3.491   4.281 -0.2468  0.6572 -0.6716
  822MOL0     H 8452   0.879   3.366   4.172 -0.6173 -0.7670  0.5305
  822MOL0     H 8453   0.743   3.617   4.075  3.9837  0.2530  0.8243
  822MOL0     H 8454   0.789   3.476   3.994  1.7931  0.7245  0.0977
  822MOL0     H 8455   0.555   3.485   4.203 -3.0236 -0.3333 -1.3027
  822MOL0     H 8456   0.619   3.332   4.143  2.2347 -0.5900 -2.5923
  822MOL0     H 8457   0.492   3.654   3.986 -0.1986 -0.5869  0.4358
  822MOL0     H 8458   0.252   3.551   3.687  0.2420  0.3258 -0.3244
  822MOL0     H 8459   0.327   3.696   3.753 -0.8023 -0.7941 -0.3303
  822MOL0     H 8460   0.182   3.632   3.957  3.0206  0.9415 -1.1621
  822MOL0     H 8461   0.107   3.509   3.847  4.5755 -1.2514  0.7939
  822MOL0     H 8462   0.107   3.801   3.794  0.0562 -0.4747 -2.1540
  822MOL0     H 8463   0.030   3.689   3.682  0.5078  1.7677 -0.6399
  822MOL0     H 8464  -0.043   3.770   3.960 -1.2360  1.5182  0.3439
  822MOL0     H 8465  -0.136   3.641   3.865  0.2953  0.8490  0.4534
  822MOL0     H 8466  -0.264   3.984   3.646 -2.1748 -1.9530 -2.7773
  822MOL0     H 8467  -0.492   4.068   3.676  2.2741  0.3932 -0.1864
  822MOL0     H 8468  -0.754   4.209   4.211 -0.2451 -1.2025  1.2093
  822MOL0     H 8469  -0.977   4.310   4.235  2.1297 -0.9326  0.5829
  822MOL0     H 8470  -1.194   4.323   4.318 -2.5452  1.7367  0.5784
  822MOL0     H 8471  -1.247   4.155   4.337  0.6736  0.4927  1.2539
  822MOL0     H 8472  -1.433   4.375   4.235  0.8428 -0.6523 -2.9029
  822MOL0     H 8473  -1.441   4.279   4.382 -3.4455 -1.3130 -0.7816
  822MOL0     H 8474  -1.468   4.064   4.244  0.8650 -0.0997 -0.1868
  822MOL0     H 8475  -1.451   4.148   4.104 -0.9367 -2.3720  1.4463
  822MOL0     H 8476  -1.673   4.273   4.194 -1.9265  0.5909 -1.4096
  822MOL0     H 8477  -1.686   4.120   4.105 -2.1117  0.6099  1.1955
  822MOL0     H 8478  -1.683   4.140   4.413 -0.6250 -0.2295  1.2984
  822MOL0     H 8479  -1.723   4.007   4.307  0.9859  0.8770  2.1004
  822MOL0     H 8480  -1.930   4.092   4.370 -0.5379 -0.3821  0.5372
  822MOL0     H 8481  -1.904   4.109   4.200  2.1855  0.0891 -0.9723
  822MOL0     H 8482  -1.875   4.342   4.207  2.0011 -0.3251  0.7347
  822MOL0     H 8483  -2.018   4.320   4.310  0.9072  0.3800  1.4388
  822MOL0     H 8484  -1.877   4.484   4.422 -3.5633 -1.2228  1.3639
  822MOL0     H 8485  -1.725   4.392   4.395  0.5660 -0.8862  1.5161
  822MOL0     H 8486  -1.149   3.991   4.000 -1.3251 -0.4781  3.6139
  822MOL0     H 8487  -0.913   3.910   3.956 -0.9469 -1.2090  1.6478
  822MOL0     H 8488  -0.493   3.877   4.069 -0.7262  2.5112 -0.3752
  822MOL0     H 8489  -0.277   3.771   4.009 -2.3511 -1.9993  0.0008
  822MOL0     H 8490   1.697   3.616   4.228  3.1331 -0.1292  0.7094
  822MOL0     H 8491   1.930   3.671   4.190 -1.4210  1.8980  0.3485
  822MOL0     H 8492   2.377   3.379   4.107 -1.3820  0.5549  0.9484
  822MOL0     H 8493   2.589   3.431   4.141  0.3055  1.4633  1.2836
  822MOL0     H 8494   2.791   3.506   4.121  2.9933 -0.7426  0.0142
  822MOL0     H 8495   2.738   3.563   4.283  0.1479  1.8521 -0.1344
  822MOL0     H 8496   2.970   3.633   4.123  2.2177 -0.3615  0.9271
  822MOL0     H 8497   2.934   3.726   4.268  0.9632 -0.5440  0.5139
  822MOL0     H 8498   3.090   3.517   4.286 -0.0182  3.5367 -0.8674
  822MOL0     H 8499   2.946   3.417   4.265  2.2106 -0.1827 -3.1407
  822MOL0     H 8500   2.858   3.494   4.477  0.7075 -1.5797  1.6000
  822MOL0     H 8501   3.022   3.436   4.496 -0.4611 -1.0354 -1.9642
  822MOL0     H 8502   3.101   3.812   4.639  0.8621 -0.8721  0.5044
  822MOL0     H 8503   2.521   3.849   4.042  1.3662 -0.7003 -0.0400
  822MOL0     H 8504   2.303   3.801   3.980  0.3355  1.5005  1.2422
  823MOL0     O 8505   0.301   4.425   4.282  0.5152 -0.1780  0.0760
  823MOL0     C 8506   0.365   4.391   4.383  0.3493  0.0723  0.0447
  823MOL0     O 8507   0.314   4.387   4.510  0.9451 -0.0267  0.4212
  823MOL0     C 8508   0.208   4.475   4.529  0.1103  0.7215  0.4359
  823MOL0     C 8509   0.131   4.446   4.635  0.0240 -0.0422  0.1946
  823MOL0     C 8510   0.024   4.529   4.677  0.1830  0.6018  0.1557
  823MOL0     C 8511  -0.002   4.652   4.618 -0.1917  0.2708  0.8831
  823MOL0     O 8512  -0.112   4.734   4.654 -0.3536 -0.6319 -1.2459
  823MOL0     C 8513  -0.127   4.747   4.798 -0.0177 -0.0377  0.2210
  823MOL0     C 8514  -0.255   4.677   4.838  0.4040 -0.3049 -0.5040
  823MOL0     C 8515  -0.383   4.744   4.779  0.0955  1.3113 -0.1587
  823MOL0     C 8516  -0.508   4.672   4.839  0.1528  0.2626  0.0512
  823MOL0     C 8517  -0.639   4.719   4.776  0.4386 -0.5326 -1.0558
  823MOL0     C 8518  -0.674   4.866   4.803  0.9951 -0.5225  0.4316
  823MOL0     C 8519  -0.822   4.904   4.752  0.5573 -1.2837  0.5078
  823MOL0     C 8520  -0.860   5.018   4.837  0.6354 -0.2944 -0.6212
  823MOL0     N 8521  -0.984   5.078   4.793  0.2219  0.3999  0.3773
  823MOL0     C 8522  -1.086   5.101   4.883  0.0696 -0.5953  0.7314
  823MOL0     C 8523  -1.191   5.132   4.796  0.0271 -0.5526 -0.4311
  823MOL0     C 8524  -1.333   5.170   4.830  0.3534  0.0281  0.0557
  823MOL0     C 8525  -1.351   5.320   4.859 -0.2883  0.9616  0.2125
  823MOL0     C 8526  -1.294   5.364   4.993  0.0393 -0.6356  0.3212
  823MOL0     C 8527  -1.323   5.512   5.023  0.2847  0.3112  0.8118
  823MOL0     O 8528  -1.460   5.539   5.033 -0.1518 -0.2954  0.3303
  823MOL0     C 8529  -1.499   5.661   5.063  0.3927  1.0482 -0.2587
  823MOL0     C 8530  -1.426   5.744   5.140 -0.3031 -0.0082 -0.3682
  823MOL0     C 8531  -1.466   5.874   5.154 -0.0442 -1.1683  0.1308
  823MOL0     C 8532  -1.590   5.925   5.100 -0.1150 -0.0863  0.0310
  823MOL0     C 8533  -1.643   6.066   5.135 -0.4260 -0.8138  0.6824
  823MOL0     O 8534  -1.751   6.106   5.082  0.2571  0.4932 -0.5812
  823MOL0     C 8535  -1.812   6.212   5.137 -0.0138  0.6538  0.1082
  823MOL0     C 8536  -1.875   6.201   5.267 -0.7746  0.5495  0.0671
  823MOL0     C 8537  -1.937   6.304   5.329 -0.2485 -0.8211  0.1757
  823MOL0     C 8538  -1.942   6.429   5.259  0.2701  0.1017 -0.2557
  823MOL0     O 8539  -2.003   6.529   5.327  0.1166  0.3574  0.1088
  823MOL0     C 8540  -2.062   6.643   5.266  0.9484  0.3893 -0.0512
  823MOL0     C 8541  -2.160   6.699   5.371 -0.2029  0.6824 -0.3034
  823MOL0     C 8542  -2.225   6.831   5.337  0.7517  0.2285  0.9491
  823MOL0     C 8543  -2.375   6.841   5.389 -0.4444  0.2992  0.4508
  823MOL0     C 8544  -2.461   6.948   5.311 -0.7231  0.5878 -0.5947
  823MOL0     C 8545  -2.595   6.968   5.383 -0.0791 -0.4289 -0.0161
  823MOL0     C 8546  -2.585   7.055   5.515 -0.4406 -0.4173  0.3279
  823MOL0     C 8547  -2.709   7.060   5.607  0.7782  0.4994  0.1020
  823MOL0    Cl 8548  -2.831   7.181   5.555 -0.2780 -0.2786 -0.4701
  823MOL0     C 8549  -1.886   6.442   5.137  0.2142 -0.0458 -0.0550
  823MOL0     C 8550  -1.825   6.332   5.070 -0.1412 -0.9299  0.8016
  823MOL0     O 8551  -1.578   6.121   5.222  0.2677  0.5215 -0.1488
  823MOL0     C 8552  -1.673   5.828   5.029 -0.6032  0.1838 -0.2892
  823MOL0     C 8553  -1.624   5.697   5.015 -0.0332  0.4450  0.6259
  823MOL0     N 8554  -1.148   5.135   4.663  0.0272  0.2659  0.9853
  823MOL0     N 8555  -1.024   5.099   4.663  0.6308  0.6321 -0.7905
  823MOL0     C 8556   0.072   4.685   4.507  0.4823  0.0993 -0.4512
  823MOL0     C 8557   0.179   4.603   4.470 -0.0423  0.8832  0.1718
  823MOL0     C 8558   0.518   4.346   4.369 -0.3049  0.6425 -0.3733
  823MOL0     C 8559   0.608   4.339   4.480  0.7547  0.5565 -0.8814
  823MOL0     C 8560   0.742   4.315   4.458  0.2661  0.1085 -0.7488
  823MOL0     C 8561   0.796   4.294   4.329  0.4032  0.4394 -0.2028
  823MOL0     O 8562   0.927   4.265   4.291  0.2417 -0.6951 -0.4493
  823MOL0     C 8563   1.034   4.330   4.363  0.7462 -0.1633  0.6540
  823MOL0     C 8564   1.092   4.444   4.274 -0.6177 -0.5570 -0.3282
  823MOL0     C 8565   1.241   4.465   4.302 -0.2744 -0.2135 -0.5739
  823MOL0     C 8566   1.300   4.580   4.223 -0.0391 -0.1057 -0.6490
  823MOL0     C 8567   1.441   4.610   4.265 -0.6461  0.5179  0.1803
  823MOL0     C 8568   1.559   4.630   4.278  0.1125  0.2473  0.1299
  823MOL0     C 8569   0.699   4.298   4.224 -0.0831  0.0780 -0.4640
  823MOL0     C 8570   0.565   4.328   4.235 -0.2047 -0.8112 -0.9939
  823MOL0     H 8571   0.142   4.356   4.694 -0.2808 -0.9907 -1.1493
  823MOL0     H 8572  -0.022   4.490   4.767  2.0648  2.2140  1.9315
  823MOL0     H 8573  -0.136   4.855   4.811  5.2996  0.5931  0.8259
  823MOL0     H 8574  -0.044   4.722   4.865 -2.3581  2.0935  4.3318
  823MOL0     H 8575  -0.250   4.685   4.947 -0.6308  1.1659 -0.5511
  823MOL0     H 8576  -0.257   4.573   4.804 -2.7889  0.2135 -2.3340
  823MOL0     H 8577  -0.383   4.732   4.671 -0.0301  0.0729 -0.0285
  823MOL0     H 8578  -0.386   4.851   4.803  0.5371  0.7429  2.8685
  823MOL0     H 8579  -0.512   4.563   4.830  2.9122 -0.0937  1.9489
  823MOL0     H 8580  -0.501   4.680   4.947  1.6845 -2.7641  0.2874
  823MOL0     H 8581  -0.718   4.657   4.820 -0.3487  0.3122 -1.2493
  823MOL0     H 8582  -0.647   4.710   4.668 -0.3949 -2.7646 -0.8524
  823MOL0     H 8583  -0.603   4.939   4.765  1.2852 -1.3252 -0.6067
  823MOL0     H 8584  -0.666   4.874   4.912  2.7489 -0.3803  0.3225
  823MOL0     H 8585  -0.802   4.941   4.651  1.1761  3.3366  2.0938
  823MOL0     H 8586  -0.891   4.820   4.741  0.0037 -0.6245 -1.5856
  823MOL0     H 8587  -0.784   5.097   4.838 -1.5263  1.9176 -0.7060
  823MOL0     H 8588  -0.877   4.986   4.940  0.6730  0.2404 -0.4449
  823MOL0     H 8589  -1.098   5.081   4.989  0.7501 -0.0030  0.9272
  823MOL0     H 8590  -1.349   5.126   4.929  3.9166  1.0923  1.3005
  823MOL0     H 8591  -1.403   5.134   4.755 -1.3649  2.3190  0.4326
  823MOL0     H 8592  -1.460   5.327   4.867 -0.2685  0.6108  0.8092
  823MOL0     H 8593  -1.325   5.385   4.775 -2.1534  0.6759 -0.6278
  823MOL0     H 8594  -1.331   5.304   5.077 -0.3370  0.5201  1.0078
  823MOL0     H 8595  -1.185   5.357   4.992  0.2181  1.2633  1.6761
  823MOL0     H 8596  -1.279   5.564   4.938  1.5860 -1.5513  0.2743
  823MOL0     H 8597  -1.259   5.537   5.108  0.1411  0.3762  0.9017
  823MOL0     H 8598  -1.330   5.722   5.184 -1.9821 -1.5443  2.8702
  823MOL0     H 8599  -1.420   5.943   5.224 -1.2911 -1.4725  1.2964
  823MOL0     H 8600  -1.862   6.106   5.317  1.3814 -1.0053 -3.0804
  823MOL0     H 8601  -1.979   6.293   5.428  1.3621  2.3795  1.3634
  823MOL0     H 8602  -2.107   6.617   5.170  1.7987 -0.2298 -0.2961
  823MOL0     H 8603  -1.985   6.720   5.254 -1.2536  2.7311 -0.1407
  823MOL0     H 8604  -2.109   6.698   5.468  2.8709  0.1381 -1.8056
  823MOL0     H 8605  -2.234   6.619   5.380  0.4901 -0.3125 -2.6758
  823MOL0     H 8606  -2.232   6.842   5.228  1.4471  2.8235  1.0936
  823MOL0     H 8607  -2.167   6.917   5.371  0.4518  0.4443  0.9110
  823MOL0     H 8608  -2.426   6.745   5.377 -1.1525  0.6053  0.9207
  823MOL0     H 8609  -2.360   6.857   5.496  0.6713  1.3827  0.1608
  823MOL0     H 8610  -2.473   6.918   5.207 -2.3598  3.6470 -1.4220
  823MOL0     H 8611  -2.415   7.046   5.325  3.2792 -1.3591  1.4201
  823MOL0     H 8612  -2.638   6.870   5.404 -0.2927  0.0585  1.9870
  823MOL0     H 8613  -2.661   7.014   5.309 -1.1018 -3.8927 -1.4812
  823MOL0     H 8614  -2.509   7.002   5.573 -0.7568  0.5947  1.7223
  823MOL0     H 8615  -2.550   7.156   5.494 -2.1425  0.4046  1.1986
  823MOL0     H 8616  -2.681   7.095   5.707  2.6518  0.8421 -0.5008
  823MOL0     H 8617  -2.744   6.957   5.612  2.3266 -0.0805 -0.5076
  823MOL0     H 8618  -1.893   6.536   5.082  3.3563 -0.8097 -2.0218
  823MOL0     H 8619  -1.777   6.347   4.974  2.2853 -0.4185  2.0212
  823MOL0     H 8620  -1.770   5.865   4.999 -0.2244  1.7094  0.2807
  823MOL0     H 8621  -1.684   5.621   4.967  2.2971  0.2219 -2.2496
  823MOL0     H 8622   0.040   4.773   4.452 -2.4968  0.2636  1.3100
  823MOL0     H 8623   0.236   4.623   4.381  2.0344 -1.3282  0.8968
  823MOL0     H 8624   0.583   4.367   4.582 -0.6613 -1.7635 -0.5275
  823MOL0     H 8625   0.816   4.307   4.537 -0.7231  1.0265  0.3061
  823MOL0     H 8626   1.117   4.263   4.388 -0.7186 -0.8538  4.3265
  823MOL0     H 8627   1.011   4.374   4.461 -2.9412 -0.9200  0.2492
  823MOL0     H 8628   1.075   4.423   4.168  1.2765  3.1290 -1.5663
  823MOL0     H 8629   1.037   4.537   4.285  0.1129 -0.4642  3.8820
  823MOL0     H 8630   1.287   4.373   4.263  0.0247 -1.5888  2.6973
  823MOL0     H 8631   1.251   4.476   4.410 -0.6008 -0.2358 -0.5385
  823MOL0     H 8632   1.309   4.564   4.115  1.6765 -0.1632 -0.5131
  823MOL0     H 8633   1.233   4.664   4.243  1.5923  0.5878  2.5257
  823MOL0     H 8634   1.663   4.655   4.290  0.1345  0.4439 -0.4312
  823MOL0     H 8635   0.736   4.292   4.123  0.3485  1.2861 -0.3945
  823MOL0     H 8636   0.502   4.346   4.149  2.1109 -0.1993 -2.6528
  824MOL0     O 8637   7.260   1.499   5.768 -0.1771  0.1000 -0.0469
  824MOL0     C 8638   7.366   1.465   5.705  0.2970  0.2024 -1.1173
  824MOL0     O 8639   7.391   1.340   5.659  0.6541 -0.5485  0.0118
  824MOL0     C 8640   7.297   1.248   5.667  0.3203 -0.2039  0.2111
  824MOL0     C 8641   7.176   1.276   5.614  0.1600 -0.1136  0.0935
  824MOL0     C 8642   7.073   1.176   5.632  0.5225 -0.2450  0.8887
  824MOL0     C 8643   7.098   1.047   5.678  0.0221  0.5764 -0.1981
  824MOL0     O 8644   7.006   0.948   5.680 -0.5629  0.2784  0.4500
  824MOL0     C 8645   6.870   0.985   5.657 -1.5711  0.0627  0.2523
  824MOL0     C 8646   6.835   0.979   5.501  0.9539  0.4172  0.3806
  824MOL0     C 8647   6.687   1.017   5.476  0.0811  0.2052 -0.6018
  824MOL0     C 8648   6.649   1.043   5.333  0.4393 -0.9938  0.2403
  824MOL0     C 8649   6.517   1.121   5.326 -0.9736 -1.2467  0.1755
  824MOL0     C 8650   6.399   1.039   5.364 -0.4577 -0.7728  0.1039
  824MOL0     C 8651   6.282   1.141   5.366 -0.5651  0.1564 -1.2505
  824MOL0     C 8652   6.289   1.226   5.502  1.1351 -0.4825 -0.7053
  824MOL0     N 8653   6.298   1.137   5.617 -0.0210 -0.8037 -0.1804
  824MOL0     C 8654   6.387   1.152   5.731  0.3869 -0.3922  0.1074
  824MOL0     C 8655   6.335   1.085   5.834  0.1350  0.9087  0.0391
  824MOL0     C 8656   6.408   1.055   5.961  0.5024 -0.1225  0.2167
  824MOL0     C 8657   6.549   0.996   5.933  0.6406  0.3177 -0.2699
  824MOL0     C 8658   6.617   0.967   6.056 -1.0109  0.0356  0.2152
  824MOL0     C 8659   6.679   1.092   6.127  0.0770  0.5189 -0.3174
  824MOL0     O 8660   6.782   1.156   6.047  0.0778 -0.3016  0.4661
  824MOL0     C 8661   6.868   1.244   6.107  0.1253 -0.8530  0.7266
  824MOL0     C 8662   6.880   1.274   6.242  0.4078  1.0486 -0.5379
  824MOL0     C 8663   6.984   1.353   6.286  0.5596 -0.1462 -0.1287
  824MOL0     C 8664   7.089   1.411   6.211  0.0888 -0.0168  0.7302
  824MOL0     C 8665   7.191   1.497   6.273  0.6824 -0.7312  1.0522
  824MOL0     O 8666   7.203   1.497   6.407  0.4889  0.5359  0.4760
  824MOL0     C 8667   7.287   1.580   6.480  0.3927  0.1647 -0.1020
  824MOL0     C 8668   7.361   1.687   6.425 -0.2539 -0.4107 -1.5859
  824MOL0     C 8669   7.438   1.758   6.518  0.1314 -1.0885 -0.3917
  824MOL0     C 8670   7.436   1.745   6.660  0.1369  0.4563  0.8296
  824MOL0     O 8671   7.526   1.828   6.727  0.5819 -0.5882  0.8697
  824MOL0     C 8672   7.560   1.812   6.858 -0.2980  0.4198 -0.4706
  824MOL0     C 8673   7.650   1.918   6.919 -0.4606  0.7438 -0.1340
  824MOL0     C 8674   7.646   1.910   7.071 -0.5104  0.4577 -0.4757
  824MOL0     C 8675   7.780   1.968   7.123  0.2641 -0.8542 -0.7249
  824MOL0     C 8676   7.782   1.940   7.273  0.2385 -0.0760  1.2119
  824MOL0     C 8677   7.907   1.992   7.338  0.1463 -0.5030  0.2662
  824MOL0     C 8678   7.928   1.940   7.477  0.4275 -0.1063  0.0380
  824MOL0     C 8679   8.057   2.003   7.529 -0.4782 -0.1953  0.8133
  824MOL0    Cl 8680   8.194   1.939   7.436 -0.2327 -0.3061 -0.3898
  824MOL0     C 8681   7.353   1.651   6.711  0.2955  0.5732 -0.5654
  824MOL0     C 8682   7.279   1.569   6.621  0.0628 -0.6384 -0.1484
  824MOL0     O 8683   7.259   1.554   6.188  0.2623  0.1896  1.0844
  824MOL0     C 8684   7.085   1.373   6.073  0.1820 -0.8936 -0.3357
  824MOL0     C 8685   6.974   1.297   6.030 -0.9078 -0.4680 -0.6453
  824MOL0     N 8686   6.216   1.020   5.786  0.4318  0.1042  0.9523
  824MOL0     N 8687   6.189   1.063   5.657 -0.1080 -1.0787 -0.0475
  824MOL0     C 8688   7.222   1.024   5.741 -0.8266 -0.5518 -1.0857
  824MOL0     C 8689   7.313   1.128   5.738  0.9799 -0.5082 -0.9414
  824MOL0     C 8690   7.447   1.588   5.664 -0.3671 -0.6161 -0.1523
  824MOL0     C 8691   7.572   1.567   5.606  0.7816 -0.4375  0.1649
  824MOL0     C 8692   7.643   1.680   5.563  0.1007  0.5070  0.6377
  824MOL0     C 8693   7.600   1.807   5.564 -0.0459 -0.4037  0.5013
  824MOL0     O 8694   7.681   1.922   5.544  0.2017 -0.0210 -0.5041
  824MOL0     C 8695   7.797   1.928   5.456  0.1977 -0.1627 -1.2704
  824MOL0     C 8696   7.884   2.045   5.496 -0.0483  0.1907 -0.3499
  824MOL0     C 8697   8.007   2.058   5.413 -0.1916  0.0036  0.0921
  824MOL0     C 8698   8.113   2.145   5.480 -0.8033 -0.1435 -0.3203
  824MOL0     C 8699   8.064   2.280   5.506  0.7084  0.8620 -0.0608
  824MOL0     C 8700   8.026   2.397   5.526  0.3782 -0.8528  0.2879
  824MOL0     C 8701   7.477   1.824   5.616  0.0879  0.9529  0.5136
  824MOL0     C 8702   7.402   1.718   5.673 -0.5276  0.0959  0.5806
  824MOL0     H 8703   7.164   1.357   5.542  1.4150  0.4646  0.5138
  824MOL0     H 8704   6.985   1.202   5.574  0.9548  2.1065  1.1596
  824MOL0     H 8705   6.836   1.080   5.698 -2.8962  0.6295 -1.9519
  824MOL0     H 8706   6.807   0.908   5.703 -0.5408 -2.1574 -1.8239
  824MOL0     H 8707   6.867   0.885   5.456  1.3724  0.7582 -0.0427
  824MOL0     H 8708   6.891   1.051   5.440 -2.3707  1.4169 -1.7620
  824MOL0     H 8709   6.661   1.104   5.536 -0.5029 -0.5230  0.2310
  824MOL0     H 8710   6.623   0.944   5.526  0.1176  1.2449  1.0347
  824MOL0     H 8711   6.726   1.104   5.285 -0.6229 -0.5712 -0.9840
  824MOL0     H 8712   6.638   0.950   5.276  1.7732 -0.4123 -1.0302
  824MOL0     H 8713   6.503   1.159   5.224  2.7034  1.4213  0.4226
  824MOL0     H 8714   6.527   1.211   5.387 -1.5570 -0.0659 -1.3928
  824MOL0     H 8715   6.420   0.983   5.456  1.8124 -0.7786 -0.3478
  824MOL0     H 8716   6.376   0.961   5.291 -0.2602  0.1741 -0.9905
  824MOL0     H 8717   6.293   1.211   5.283 -0.5017  2.5882  0.7006
  824MOL0     H 8718   6.189   1.083   5.365  0.1589 -1.0452 -1.7486
  824MOL0     H 8719   6.187   1.265   5.504  0.8038 -1.3534 -0.0374
  824MOL0     H 8720   6.365   1.305   5.510 -0.2282  1.3514 -3.7872
  824MOL0     H 8721   6.489   1.186   5.744  1.0624 -1.5455 -1.7918
  824MOL0     H 8722   6.347   0.983   6.016  0.7367 -0.5387 -0.0647
  824MOL0     H 8723   6.415   1.145   6.022 -1.4865  1.6513 -2.0081
  824MOL0     H 8724   6.614   1.052   5.865  0.8531  2.9206  1.9048
  824MOL0     H 8725   6.521   0.901   5.886 -2.9552  1.5788 -1.0387
  824MOL0     H 8726   6.550   0.921   6.130 -2.4323  0.6940 -0.6151
  824MOL0     H 8727   6.684   0.882   6.037 -5.0487 -2.7946 -3.4796
  824MOL0     H 8728   6.722   1.052   6.219  1.3212 -1.0935 -1.5321
  824MOL0     H 8729   6.594   1.159   6.144 -0.9496 -0.8885  0.2686
  824MOL0     H 8730   6.797   1.241   6.303 -0.3581  0.3954 -1.9027
  824MOL0     H 8731   6.967   1.392   6.386 -1.2297  1.1473 -0.8742
  824MOL0     H 8732   7.350   1.717   6.322 -1.6519  0.2298 -1.2713
  824MOL0     H 8733   7.490   1.841   6.470 -0.1327 -0.9652 -0.4668
  824MOL0     H 8734   7.619   1.720   6.863  1.0101  1.2516  0.1505
  824MOL0     H 8735   7.471   1.809   6.921 -0.0121 -1.7619 -0.0896
  824MOL0     H 8736   7.603   2.008   6.878 -3.1232 -0.6838 -0.4534
  824MOL0     H 8737   7.752   1.907   6.883  0.3826 -0.4774  2.3932
  824MOL0     H 8738   7.646   1.803   7.096  0.8120  0.0043 -2.2292
  824MOL0     H 8739   7.556   1.948   7.120 -0.6867 -1.4526  0.8101
  824MOL0     H 8740   7.866   1.920   7.076  0.1779  0.4504 -2.3301
  824MOL0     H 8741   7.788   2.076   7.106  3.7657 -1.0235 -0.8344
  824MOL0     H 8742   7.779   1.830   7.279 -0.8015  0.0030  2.9429
  824MOL0     H 8743   7.702   1.991   7.327  0.8697  1.2392  0.9329
  824MOL0     H 8744   7.922   2.100   7.329 -0.8334 -0.3839  0.0279
  824MOL0     H 8745   7.983   1.939   7.278 -1.6626 -2.1357 -0.6899
  824MOL0     H 8746   7.849   1.982   7.540  1.0668  0.5453  0.4290
  824MOL0     H 8747   7.921   1.831   7.480 -2.1609 -0.0173  2.5050
  824MOL0     H 8748   8.065   1.974   7.634  1.5081  0.8743  1.0215
  824MOL0     H 8749   8.046   2.111   7.516 -2.3980  0.0376  3.6046
  824MOL0     H 8750   7.339   1.633   6.817 -2.6411 -0.5716 -1.0407
  824MOL0     H 8751   7.220   1.494   6.673 -0.7391 -1.0223 -1.5437
  824MOL0     H 8752   7.174   1.396   6.015  1.0643  2.8648  2.1193
  824MOL0     H 8753   6.981   1.259   5.929  2.8835 -1.6032 -0.1282
  824MOL0     H 8754   7.248   0.929   5.788 -2.7688  0.1079  1.6305
  824MOL0     H 8755   7.411   1.116   5.784  1.2855  2.4305 -0.6186
  824MOL0     H 8756   7.602   1.464   5.589 -0.7846 -0.8738 -0.1911
  824MOL0     H 8757   7.750   1.675   5.545 -0.1446 -1.7517 -0.6108
  824MOL0     H 8758   7.752   1.928   5.356 -0.4904  1.8459 -1.0020
  824MOL0     H 8759   7.862   1.840   5.454  1.0788  0.4808 -1.4093
  824MOL0     H 8760   7.829   2.138   5.515  0.3338 -0.0215  2.2122
  824MOL0     H 8761   7.916   2.018   5.597 -0.5146 -0.3463 -0.3369
  824MOL0     H 8762   7.969   2.098   5.319 -1.7396 -0.6828  0.4005
  824MOL0     H 8763   8.048   1.960   5.388 -2.4359 -1.3590  1.4170
  824MOL0     H 8764   8.111   2.100   5.580 -0.3151 -1.2333 -0.7793
  824MOL0     H 8765   8.213   2.146   5.437  0.2330  0.7521  1.9662
  824MOL0     H 8766   7.997   2.499   5.538  2.4430 -0.3251  1.1668
  824MOL0     H 8767   7.457   1.931   5.625  1.3060  1.0565  2.7348
  824MOL0     H 8768   7.301   1.746   5.704 -0.9484  2.1471 -2.2064
  825MOL0     O 8769   9.647   0.774   1.693 -0.6187  0.1022  0.0261
  825MOL0     C 8770   9.638   0.729   1.579 -0.3595 -0.1518  0.4661
  825MOL0     O 8771   9.520   0.718   1.498  0.5708  1.1425  0.0251
  825MOL0     C 8772   9.402   0.741   1.544  0.9225  0.7176 -0.4592
  825MOL0     C 8773   9.355   0.746   1.676  0.9461  0.2425 -0.1305
  825MOL0     C 8774   9.229   0.790   1.703  0.9152  1.0918  0.4169
  825MOL0     C 8775   9.148   0.845   1.603 -0.2477 -0.5188  0.2328
  825MOL0     O 8776   9.018   0.893   1.634  0.7931  0.2721 -0.0713
  825MOL0     C 8777   9.030   0.984   1.739  0.1548  0.6192  0.5046
  825MOL0     C 8778   8.901   1.004   1.817 -0.1274  0.0938  0.2127
  825MOL0     C 8779   8.790   1.052   1.720 -0.5961 -0.3098 -0.2798
  825MOL0     C 8780   8.660   1.077   1.794 -0.4498  0.0363 -0.2641
  825MOL0     C 8781   8.546   1.148   1.718 -0.9605  0.3695  0.1515
  825MOL0     C 8782   8.581   1.286   1.672 -0.2926  0.2642  0.2512
  825MOL0     C 8783   8.462   1.343   1.597  0.9563  1.1309 -0.7585
  825MOL0     C 8784   8.481   1.490   1.550  0.2491 -0.1069  0.4422
  825MOL0     N 8785   8.440   1.588   1.651  0.2299 -0.3515  0.3891
  825MOL0     C 8786   8.333   1.679   1.643 -0.4929  0.1931 -0.6503
  825MOL0     C 8787   8.337   1.744   1.765  0.4027 -0.6635 -0.0311
  825MOL0     C 8788   8.237   1.830   1.831 -0.0495 -0.8031 -0.4509
  825MOL0     C 8789   8.092   1.771   1.828 -0.6092  0.8484 -0.4493
  825MOL0     C 8790   8.079   1.628   1.882 -0.4397  0.1794 -0.0801
  825MOL0     C 8791   7.936   1.567   1.871  0.1028  0.0673  0.5129
  825MOL0     O 8792   7.832   1.655   1.916 -0.6157 -0.0333  1.0191
  825MOL0     C 8793   7.701   1.619   1.906 -0.2762 -0.0556  0.8194
  825MOL0     C 8794   7.662   1.495   1.844 -0.4995 -0.4383 -0.4770
  825MOL0     C 8795   7.523   1.463   1.833 -0.1853  0.0555 -0.1657
  825MOL0     C 8796   7.427   1.547   1.898  0.5534 -0.1915 -0.0924
  825MOL0     C 8797   7.280   1.511   1.907  0.6138  0.8203 -0.8743
  825MOL0     O 8798   7.212   1.452   1.800  0.1542 -0.7113 -0.8383
  825MOL0     C 8799   7.087   1.403   1.814  0.1939 -0.0101  0.9141
  825MOL0     C 8800   7.063   1.263   1.807  0.6458 -1.0372  0.0848
  825MOL0     C 8801   6.927   1.218   1.797  0.7176 -0.4115 -0.1962
  825MOL0     C 8802   6.819   1.301   1.810  1.2149 -0.5086 -0.5117
  825MOL0     O 8803   6.682   1.281   1.795 -0.6771  1.0545 -0.2603
  825MOL0     C 8804   6.615   1.206   1.896 -1.0791 -0.6444 -0.1113
  825MOL0     C 8805   6.470   1.217   1.878  0.3580 -0.0907  0.4196
  825MOL0     C 8806   6.406   1.346   1.921 -0.4326  0.5473 -0.7018
  825MOL0     C 8807   6.369   1.435   1.807 -0.7650  0.6088 -0.7113
  825MOL0     C 8808   6.224   1.392   1.759 -0.0840  0.2515 -0.2080
  825MOL0     C 8809   6.162   1.487   1.653 -0.3552  0.2601  0.1075
  825MOL0     C 8810   6.095   1.605   1.731  0.3167  0.0781 -0.6357
  825MOL0     C 8811   5.986   1.670   1.649  0.0984 -0.4089  0.3929
  825MOL0    Cl 8812   5.889   1.785   1.744  0.3028  0.4164 -0.0916
  825MOL0     C 8813   6.849   1.436   1.820  0.9344  0.0369 -0.0761
  825MOL0     C 8814   6.974   1.489   1.819 -0.2772 -0.0567 -0.3664
  825MOL0     O 8815   7.225   1.545   2.013  0.1690 -0.2739 -1.0145
  825MOL0     C 8816   7.471   1.663   1.952 -0.6384  0.1784  0.0789
  825MOL0     C 8817   7.610   1.695   1.956 -0.4739  0.1528  0.2142
  825MOL0     N 8818   8.450   1.701   1.843 -1.3627  0.5293  0.6989
  825MOL0     N 8819   8.503   1.605   1.771  0.4871 -0.3456  0.2977
  825MOL0     C 8820   9.193   0.836   1.470 -0.1198 -0.2932  0.7077
  825MOL0     C 8821   9.316   0.767   1.437  0.5658  0.3838 -0.0818
  825MOL0     C 8822   9.759   0.663   1.531  0.4810 -0.3039 -0.0809
  825MOL0     C 8823   9.785   0.644   1.398  0.7242 -0.1136  0.8277
  825MOL0     C 8824   9.909   0.593   1.352 -0.2903 -0.2034 -1.2352
  825MOL0     C 8825  10.012   0.569   1.442 -0.2840  0.9852 -0.1175
  825MOL0     O 8826  10.137   0.540   1.386 -0.5990 -0.1272 -0.0675
  825MOL0     C 8827  10.248   0.511   1.476  0.2162  0.2892  0.9188
  825MOL0     C 8828  10.372   0.461   1.396 -0.1920 -0.1309 -0.0127
  825MOL0     C 8829  10.491   0.471   1.479 -0.9067  0.0735  0.0126
  825MOL0     C 8830  10.573   0.602   1.460  0.5935  0.0186  0.0905
  825MOL0     C 8831  10.685   0.601   1.552  0.2483  0.7153  0.2232
  825MOL0     C 8832  10.789   0.587   1.616  0.4851 -0.8630 -0.1685
  825MOL0     C 8833   9.983   0.568   1.579  0.9061  0.5515 -0.1050
  825MOL0     C 8834   9.861   0.615   1.622 -0.0773  1.3109 -0.1488
  825MOL0     H 8835   9.425   0.719   1.755  1.6926  1.3180 -0.4136
  825MOL0     H 8836   9.208   0.797   1.809 -0.2792  4.2828  0.0982
  825MOL0     H 8837   9.048   1.077   1.683 -0.0646  0.5493  0.3155
  825MOL0     H 8838   9.118   0.967   1.802  0.9033 -0.9642 -0.8965
  825MOL0     H 8839   8.926   1.087   1.883  3.2773  0.3201 -1.1225
  825MOL0     H 8840   8.873   0.917   1.877 -1.2390  0.5923  0.4326
  825MOL0     H 8841   8.774   0.982   1.638  0.2174  0.6820 -1.3125
  825MOL0     H 8842   8.796   1.152   1.677  0.2385  0.3625  1.3337
  825MOL0     H 8843   8.611   0.987   1.833 -0.2859 -1.6295 -3.5737
  825MOL0     H 8844   8.683   1.134   1.884 -1.3592  1.0749 -0.6690
  825MOL0     H 8845   8.459   1.158   1.784 -1.2728  0.3192 -0.2503
  825MOL0     H 8846   8.530   1.083   1.631  5.1215 -1.3139 -0.1787
  825MOL0     H 8847   8.660   1.278   1.597 -0.1967 -1.2285  0.4712
  825MOL0     H 8848   8.612   1.349   1.756  3.1634  0.1205 -0.7762
  825MOL0     H 8849   8.439   1.272   1.517  1.3902  0.8844 -0.6659
  825MOL0     H 8850   8.369   1.351   1.654 -1.4766 -1.7178 -3.8831
  825MOL0     H 8851   8.428   1.515   1.457  0.9073 -1.7124 -0.4044
  825MOL0     H 8852   8.588   1.502   1.532  0.6887 -0.7511  2.3783
  825MOL0     H 8853   8.261   1.697   1.564  0.9668 -1.8068 -2.5350
  825MOL0     H 8854   8.234   1.933   1.795 -0.0669 -0.4641  0.4934
  825MOL0     H 8855   8.273   1.831   1.935 -1.5662  0.5796  0.1006
  825MOL0     H 8856   8.047   1.782   1.728  1.0481  0.5573 -1.2642
  825MOL0     H 8857   8.033   1.832   1.897 -0.8582  0.6174 -0.4566
  825MOL0     H 8858   8.157   1.567   1.834  0.4877 -0.6939  2.4101
  825MOL0     H 8859   8.105   1.624   1.988  0.1018 -0.5516 -0.2306
  825MOL0     H 8860   7.930   1.467   1.915  0.8224  0.7256  2.1958
  825MOL0     H 8861   7.920   1.566   1.763  4.1580  3.0059 -0.3580
  825MOL0     H 8862   7.727   1.428   1.789 -1.9866 -1.6164 -0.8659
  825MOL0     H 8863   7.497   1.365   1.796  2.4645 -1.7953  2.4092
  825MOL0     H 8864   7.145   1.194   1.788  0.6574 -1.6662  2.1596
  825MOL0     H 8865   6.912   1.115   1.766 -1.0738  0.0902 -1.1967
  825MOL0     H 8866   6.642   1.244   1.995  0.3267  0.6707 -0.9591
  825MOL0     H 8867   6.630   1.098   1.886 -4.2055 -1.0260 -1.8498
  825MOL0     H 8868   6.425   1.124   1.915  0.9412 -1.4179 -2.0023
  825MOL0     H 8869   6.450   1.208   1.770  0.8341 -0.1509  0.3357
  825MOL0     H 8870   6.474   1.409   1.979 -0.3178  1.3180 -1.6515
  825MOL0     H 8871   6.314   1.325   1.977 -0.1254  0.8051 -0.0864
  825MOL0     H 8872   6.360   1.539   1.837 -3.2381  0.1036  0.5838
  825MOL0     H 8873   6.442   1.438   1.725 -2.5384  4.4338 -2.4068
  825MOL0     H 8874   6.165   1.378   1.850  1.4778 -0.1835  0.7931
  825MOL0     H 8875   6.245   1.291   1.724 -0.7168 -0.0318  0.2145
  825MOL0     H 8876   6.089   1.431   1.593 -2.5772  1.2764  1.7395
  825MOL0     H 8877   6.238   1.533   1.589  0.5051 -0.7447  0.3759
  825MOL0     H 8878   6.042   1.569   1.820  0.1780 -1.4265 -1.2930
  825MOL0     H 8879   6.164   1.679   1.774 -2.7303  1.8594  1.5481
  825MOL0     H 8880   5.922   1.595   1.601 -1.5523  2.3660 -2.0543
  825MOL0     H 8881   6.030   1.734   1.572 -0.3399  0.6478  1.0047
  825MOL0     H 8882   6.758   1.495   1.820  0.4009 -0.7697 -0.8412
  825MOL0     H 8883   6.996   1.595   1.834  0.5191 -0.3110  0.3086
  825MOL0     H 8884   7.388   1.723   1.990 -1.8874 -0.7197 -1.1319
  825MOL0     H 8885   7.644   1.783   2.010 -4.3797  2.5035 -0.7654
  825MOL0     H 8886   9.133   0.874   1.388 -0.6596  0.9435  1.6515
  825MOL0     H 8887   9.338   0.746   1.333  4.0629 -1.3578  0.8618
  825MOL0     H 8888   9.710   0.681   1.328  1.1127 -1.0906 -0.1343
  825MOL0     H 8889   9.933   0.594   1.246  4.5324 -1.1192 -0.3713
  825MOL0     H 8890  10.209   0.422   1.526 -0.6634 -0.4944 -1.0713
  825MOL0     H 8891  10.268   0.603   1.532  1.4317  0.9989 -0.6265
  825MOL0     H 8892  10.368   0.357   1.364  3.4410 -0.8107  1.2923
  825MOL0     H 8893  10.393   0.518   1.304  0.3490  0.3962  0.4236
  825MOL0     H 8894  10.547   0.379   1.456 -0.2085  1.2470 -3.7366
  825MOL0     H 8895  10.459   0.472   1.583  1.6752  0.4017  0.8906
  825MOL0     H 8896  10.622   0.617   1.363  0.4817  3.1851  0.4367
  825MOL0     H 8897  10.502   0.682   1.480 -2.9622 -3.2710  2.2213
  825MOL0     H 8898  10.876   0.576   1.677  0.6794 -1.2421 -0.5006
  825MOL0     H 8899  10.045   0.543   1.665  2.1315 -1.1808 -1.4174
  825MOL0     H 8900   9.850   0.632   1.729  0.7310  3.7134 -0.3780
  826MOL0     O 8901  10.896   2.219   8.191  0.5917 -0.9124 -0.1693
  826MOL0     C 8902  10.987   2.150   8.233 -0.7752 -0.6335 -0.5498
  826MOL0     O 8903  10.984   2.051   8.329 -0.1525  0.5188 -0.0637
  826MOL0     C 8904  10.865   2.033   8.413  0.5098 -0.8144 -0.4688
  826MOL0     C 8905  10.854   1.909   8.484 -0.3133  0.1409 -0.0164
  826MOL0     C 8906  10.745   1.878   8.560 -0.6115 -0.0898  0.2880
  826MOL0     C 8907  10.640   1.966   8.569  0.3248 -0.1795 -1.0032
  826MOL0     O 8908  10.536   1.927   8.652 -0.0964  0.0818 -0.8806
  826MOL0     C 8909  10.417   2.002   8.647  0.0384 -0.4448 -0.4485
  826MOL0     C 8910  10.300   1.916   8.675 -0.1356 -0.9952  0.1016
  826MOL0     C 8911  10.258   1.829   8.554 -0.7563  0.2772 -0.9761
  826MOL0     C 8912  10.133   1.755   8.581 -0.0814  0.2277 -0.1371
  826MOL0     C 8913  10.002   1.834   8.555 -0.5481 -1.2707 -0.3464
  826MOL0     C 8914   9.880   1.772   8.626 -0.0127 -1.5375  0.9691
  826MOL0     C 8915   9.875   1.622   8.585 -0.3969 -0.9791 -1.0265
  826MOL0     C 8916   9.734   1.575   8.612  0.0881  0.2911  0.4337
  826MOL0     N 8917   9.698   1.554   8.751  0.0966  0.3756 -0.8891
  826MOL0     C 8918   9.778   1.501   8.857 -0.2849 -0.0014 -0.2897
  826MOL0     C 8919   9.699   1.490   8.965 -0.4706 -0.3725 -0.1501
  826MOL0     C 8920   9.742   1.445   9.103 -0.4648  0.2514 -0.5597
  826MOL0     C 8921   9.889   1.472   9.132  0.0967 -0.2310  0.5340
  826MOL0     C 8922   9.922   1.626   9.149 -0.1265  0.4305 -0.2525
  826MOL0     C 8923  10.072   1.655   9.124  0.1477 -0.3246 -0.3238
  826MOL0     O 8924  10.101   1.623   8.988  0.2606  0.3567 -0.9369
  826MOL0     C 8925  10.225   1.608   8.945  0.7736 -0.1122  0.2136
  826MOL0     C 8926  10.347   1.630   9.017  0.0858  0.0169 -0.1788
  826MOL0     C 8927  10.476   1.602   8.957 -0.2585 -0.2546 -0.0167
  826MOL0     C 8928  10.479   1.527   8.836  0.6390 -0.0120 -0.6152
  826MOL0     C 8929  10.604   1.501   8.767 -0.2373 -0.7564 -0.2107
  826MOL0     O 8930  10.713   1.578   8.808 -0.0778 -0.6345  0.4560
  826MOL0     C 8931  10.842   1.557   8.761  0.0543  0.5655 -0.2333
  826MOL0     C 8932  10.897   1.444   8.702 -0.3682 -0.8962  0.4229
  826MOL0     C 8933  11.039   1.444   8.671  0.7117 -0.3415 -0.0953
  826MOL0     C 8934  11.123   1.557   8.689  1.1511 -0.8621 -0.8482
  826MOL0     O 8935  11.245   1.568   8.630 -0.0824 -0.4177 -0.4549
  826MOL0     C 8936  11.337   1.459   8.647 -0.3775  0.8934  0.0701
  826MOL0     C 8937  11.484   1.486   8.613 -0.2814  0.1733 -0.0450
  826MOL0     C 8938  11.563   1.367   8.677 -1.4948  1.0934 -0.7041
  826MOL0     C 8939  11.719   1.384   8.652  0.0120  0.2153  0.4765
  826MOL0     C 8940  11.793   1.247   8.666 -0.3170 -0.8777  1.1072
  826MOL0     C 8941  11.927   1.252   8.592 -0.2772 -0.4153 -0.5979
  826MOL0     C 8942  11.974   1.098   8.569 -0.0636 -0.0962 -0.2750
  826MOL0     C 8943  12.117   1.104   8.519 -0.0266 -0.2281  0.2565
  826MOL0    Cl 8944  12.195   0.948   8.509 -0.0466  0.3841 -0.6460
  826MOL0     C 8945  11.066   1.675   8.739  0.6351  0.5424 -0.1971
  826MOL0     C 8946  10.926   1.666   8.774  0.0916 -0.0154 -0.6375
  826MOL0     O 8947  10.615   1.399   8.696 -0.2873 -0.1778 -0.0540
  826MOL0     C 8948  10.360   1.498   8.773 -0.5872  0.0159 -0.2734
  826MOL0     C 8949  10.237   1.547   8.818 -0.4349 -0.4896 -0.3197
  826MOL0     N 8950   9.581   1.553   8.940  0.6722  0.6164  0.6785
  826MOL0     N 8951   9.580   1.582   8.817  0.1244 -0.6189  0.1526
  826MOL0     C 8952  10.651   2.089   8.518  0.9967 -0.5968 -0.0980
  826MOL0     C 8953  10.752   2.124   8.427  0.5489  0.4386 -0.0816
  826MOL0     C 8954  11.128   2.185   8.188 -0.9743 -1.0008 -0.6404
  826MOL0     C 8955  11.232   2.096   8.222 -0.5457  0.5276  0.6463
  826MOL0     C 8956  11.362   2.132   8.185 -0.3862 -0.2783 -0.4464
  826MOL0     C 8957  11.400   2.242   8.113 -0.2032 -0.4846 -0.1074
  826MOL0     O 8958  11.524   2.280   8.073 -0.1024  0.1126 -0.4603
  826MOL0     C 8959  11.633   2.185   8.097 -0.0836  0.4606  0.2505
  826MOL0     C 8960  11.763   2.249   8.048 -0.6094  0.2773 -0.9807
  826MOL0     C 8961  11.894   2.161   8.073  0.4702 -0.3516 -0.8206
  826MOL0     C 8962  12.022   2.243   8.065  0.2665 -0.6846 -0.7478
  826MOL0     C 8963  12.054   2.273   7.932 -0.4302 -0.3356  1.2929
  826MOL0     C 8964  12.109   2.321   7.837  0.3892  0.7667 -0.1331
  826MOL0     C 8965  11.296   2.336   8.081 -0.4651 -0.0709 -0.7735
  826MOL0     C 8966  11.162   2.297   8.111  0.0842 -0.0877  0.3868
  826MOL0     H 8967  10.937   1.839   8.493 -0.2266  0.2907  0.3986
  826MOL0     H 8968  10.742   1.786   8.617 -1.8496 -0.6286 -0.5925
  826MOL0     H 8969  10.407   2.065   8.559 -1.5131 -0.1470 -0.0837
  826MOL0     H 8970  10.407   2.070   8.733 -1.9378 -1.5907  0.2777
  826MOL0     H 8971  10.220   1.980   8.713  0.8247 -0.2277  0.8488
  826MOL0     H 8972  10.320   1.851   8.761 -0.4064  0.6883  1.4754
  826MOL0     H 8973  10.337   1.754   8.549 -1.7835 -0.7930 -1.3483
  826MOL0     H 8974  10.250   1.874   8.454 -4.8772  0.9896 -0.5110
  826MOL0     H 8975  10.133   1.664   8.521  2.3027  0.4347 -0.5704
  826MOL0     H 8976  10.125   1.728   8.687  0.4103 -2.0052 -0.6106
  826MOL0     H 8977   9.988   1.855   8.449  2.6585 -3.3176 -1.3411
  826MOL0     H 8978  10.014   1.938   8.588  2.5092 -0.9557 -2.0216
  826MOL0     H 8979   9.791   1.823   8.590  1.7003  2.0219  1.2873
  826MOL0     H 8980   9.881   1.786   8.735 -1.6053  0.9309  0.7339
  826MOL0     H 8981   9.905   1.607   8.480  1.4782  1.0934 -0.8420
  826MOL0     H 8982   9.951   1.570   8.645 -0.7546 -0.8696 -0.4754
  826MOL0     H 8983   9.723   1.481   8.558 -1.7192  0.7010  0.0221
  826MOL0     H 8984   9.667   1.650   8.569  0.4793  1.4642  1.7785
  826MOL0     H 8985   9.882   1.473   8.843 -0.2542 -0.1405  0.2224
  826MOL0     H 8986   9.733   1.336   9.108  0.7828  0.2033  1.5279
  826MOL0     H 8987   9.678   1.485   9.182 -0.6910  1.7229 -1.4579
  826MOL0     H 8988   9.947   1.428   9.050 -1.3272 -0.8350 -0.1719
  826MOL0     H 8989   9.912   1.420   9.226  1.7483  1.9946  1.4699
  826MOL0     H 8990   9.859   1.670   9.072 -1.0052 -2.2599 -1.1887
  826MOL0     H 8991   9.893   1.665   9.247  0.8665  3.6117 -1.0839
  826MOL0     H 8992  10.133   1.605   9.200  0.8181 -0.7937 -1.1582
  826MOL0     H 8993  10.081   1.764   9.125 -0.5644 -0.2647  0.0569
  826MOL0     H 8994  10.347   1.683   9.112 -1.5723 -0.6072  0.2136
  826MOL0     H 8995  10.569   1.629   9.005 -1.1440  1.1633  0.9519
  826MOL0     H 8996  10.831   1.369   8.660 -0.9233  0.9342 -2.2398
  826MOL0     H 8997  11.085   1.367   8.610 -0.4037 -0.4157 -0.8520
  826MOL0     H 8998  11.312   1.378   8.577 -0.8014  2.8698 -2.1975
  826MOL0     H 8999  11.337   1.426   8.751  1.7175  0.4136 -0.0344
  826MOL0     H 9000  11.517   1.585   8.647  4.1781 -0.5414 -1.5488
  826MOL0     H 9001  11.504   1.482   8.505 -2.1543 -0.4766 -0.3961
  826MOL0     H 9002  11.524   1.275   8.633 -0.8980 -1.3269  3.2615
  826MOL0     H 9003  11.558   1.370   8.786 -0.4178  1.0893 -0.6420
  826MOL0     H 9004  11.736   1.416   8.548 -0.2218 -2.7982 -0.6000
  826MOL0     H 9005  11.772   1.447   8.723  3.3462  0.3905 -1.9029
  826MOL0     H 9006  11.737   1.168   8.616  2.7392 -1.4789 -1.7053
  826MOL0     H 9007  11.807   1.226   8.772  0.8935 -0.3498  1.0719
  826MOL0     H 9008  11.992   1.301   8.665  0.6553 -3.1989  0.5835
  826MOL0     H 9009  11.927   1.306   8.497  0.6890 -1.6744 -1.3413
  826MOL0     H 9010  11.966   1.042   8.663 -0.6134  2.1652  1.0970
  826MOL0     H 9011  11.923   1.054   8.483  3.0341 -2.9941 -0.8089
  826MOL0     H 9012  12.175   1.174   8.579  2.0769 -0.0137 -1.8363
  826MOL0     H 9013  12.122   1.147   8.418  1.2628  2.1164  1.2451
  826MOL0     H 9014  11.122   1.768   8.752 -1.5702  1.6105  2.7945
  826MOL0     H 9015  10.882   1.760   8.807  1.6742  1.1366 -1.6986
  826MOL0     H 9016  10.357   1.433   8.686 -2.1611  0.5154 -0.6276
  826MOL0     H 9017  10.144   1.530   8.765 -1.1794  1.1686  0.3879
  826MOL0     H 9018  10.569   2.159   8.524 -0.1115 -1.7050 -1.5793
  826MOL0     H 9019  10.752   2.219   8.374 -0.3283 -0.4684 -1.7597
  826MOL0     H 9020  11.224   1.994   8.260 -0.1321  0.3889  0.3583
  826MOL0     H 9021  11.432   2.060   8.228  1.8178  3.4626  2.9879
  826MOL0     H 9022  11.617   2.100   8.030  2.6281  0.6688 -0.7741
  826MOL0     H 9023  11.638   2.157   8.203  1.8524 -0.4650 -0.0455
  826MOL0     H 9024  11.750   2.283   7.945  1.5033  2.7495 -0.5503
  826MOL0     H 9025  11.772   2.338   8.111 -1.5404 -0.2878 -0.0175
  826MOL0     H 9026  11.889   2.072   8.010 -1.6733  0.2149 -1.5642
  826MOL0     H 9027  11.874   2.129   8.175 -1.5222 -0.7806 -1.2918
  826MOL0     H 9028  12.014   2.337   8.121  0.3487 -1.4937  0.6520
  826MOL0     H 9029  12.110   2.191   8.104  0.3750 -0.5802 -0.8526
  826MOL0     H 9030  12.165   2.357   7.753 -2.6111 -0.4950 -2.9456
  826MOL0     H 9031  11.322   2.430   8.033 -5.2685  1.8376 -0.2301
  826MOL0     H 9032  11.087   2.367   8.077 -0.4673 -1.5537 -1.5958
  827MOL0     O 9033   2.572   2.580   9.750  0.4352  0.6695  0.6476
  827MOL0     C 9034   2.594   2.668   9.659  0.1513 -0.3602 -0.4789
  827MOL0     O 9035   2.499   2.713   9.573  0.5103  0.1332 -0.4218
  827MOL0     C 9036   2.366   2.693   9.602 -0.0879  0.4499 -0.0813
  827MOL0     C 9037   2.312   2.758   9.716  0.3950 -0.0057 -0.4803
  827MOL0     C 9038   2.181   2.750   9.752  0.9446  0.5018 -0.4411
  827MOL0     C 9039   2.099   2.664   9.684 -0.1254  0.7476 -1.2830
  827MOL0     O 9040   1.970   2.650   9.734 -0.0593 -0.0526  0.4886
  827MOL0     C 9041   1.867   2.649   9.636  0.2175  0.5278 -0.2000
  827MOL0     C 9042   1.775   2.530   9.644  0.3817 -0.1470 -0.5465
  827MOL0     C 9043   1.841   2.404   9.579 -1.4045  1.1257 -0.3548
  827MOL0     C 9044   1.748   2.287   9.590 -0.6007  0.2276  0.2415
  827MOL0     C 9045   1.818   2.152   9.552  0.3670 -1.0903 -0.2948
  827MOL0     C 9046   1.717   2.037   9.580 -0.0270  0.0547  0.3884
  827MOL0     C 9047   1.803   1.906   9.613  0.1393 -0.2550 -0.4985
  827MOL0     C 9048   1.911   1.869   9.501  0.2435  0.2459  0.0152
  827MOL0     N 9049   1.849   1.821   9.374 -0.7988  0.0806 -0.2381
  827MOL0     C 9050   1.815   1.909   9.270 -1.0766  0.0589 -1.4764
  827MOL0     C 9051   1.820   1.827   9.160 -0.2468 -0.8079 -0.2420
  827MOL0     C 9052   1.800   1.882   9.022  0.5295 -0.0973  0.1315
  827MOL0     C 9053   1.929   1.858   8.934  0.1148 -0.7146 -0.0752
  827MOL0     C 9054   1.971   1.717   8.898 -0.0354  0.1900  0.9070
  827MOL0     C 9055   1.879   1.635   8.813  0.4947  0.3410 -0.3915
  827MOL0     O 9056   1.860   1.674   8.678  0.8071  0.2524 -0.4331
  827MOL0     C 9057   1.963   1.650   8.585  0.8329 -0.5452 -1.4271
  827MOL0     C 9058   2.087   1.589   8.614 -0.3718  0.1481  0.9803
  827MOL0     C 9059   2.183   1.565   8.515  0.7803  0.1577  0.4846
  827MOL0     C 9060   2.157   1.602   8.386  0.6265 -0.1271  0.8185
  827MOL0     C 9061   2.260   1.576   8.277  0.9325  0.3602  0.1141
  827MOL0     O 9062   2.372   1.512   8.324  0.6831 -0.0313  0.0253
  827MOL0     C 9063   2.503   1.533   8.284  0.4448  0.2583 -0.3068
  827MOL0     C 9064   2.542   1.635   8.193 -0.2947  0.1674 -0.2706
  827MOL0     C 9065   2.681   1.669   8.177  0.6388  0.1337 -0.6070
  827MOL0     C 9066   2.776   1.594   8.248  0.8907  0.3646  0.1103
  827MOL0     O 9067   2.912   1.608   8.239 -0.2555  0.0259  0.4299
  827MOL0     C 9068   2.985   1.496   8.195 -1.2411 -1.0472 -0.0595
  827MOL0     C 9069   3.088   1.541   8.093 -0.1907  0.0346 -0.3427
  827MOL0     C 9070   3.205   1.600   8.165 -0.0855 -0.3592 -0.6532
  827MOL0     C 9071   3.309   1.674   8.091  0.2373  0.8229 -0.2555
  827MOL0     C 9072   3.422   1.723   8.182  0.6752 -0.0194  0.0841
  827MOL0     C 9073   3.478   1.856   8.146 -0.1445  0.6604  0.3452
  827MOL0     C 9074   3.608   1.911   8.211  0.4310  0.4529  0.0066
  827MOL0     C 9075   3.732   1.822   8.195  0.8957  0.0808 -0.5809
  827MOL0    Cl 9076   3.792   1.790   8.023  0.1455 -0.4926 -0.2284
  827MOL0     C 9077   2.740   1.497   8.346  0.1906 -0.0545  0.0461
  827MOL0     C 9078   2.601   1.466   8.357 -0.2787  0.1826 -0.4233
  827MOL0     O 9079   2.244   1.629   8.164 -0.1078 -0.3791 -0.0625
  827MOL0     C 9080   2.041   1.671   8.352  0.4881 -0.0815 -0.0631
  827MOL0     C 9081   1.946   1.694   8.453 -0.3761  0.3745  1.1993
  827MOL0     N 9082   1.859   1.705   9.203 -0.3366 -0.3913  0.1424
  827MOL0     N 9083   1.864   1.694   9.327  0.8685  0.1137  0.2366
  827MOL0     C 9084   2.148   2.593   9.574 -0.9609 -0.7953 -0.6075
  827MOL0     C 9085   2.279   2.612   9.531  0.5358 -1.2369 -0.5228
  827MOL0     C 9086   2.730   2.706   9.622  0.3706  0.2982  0.5380
  827MOL0     C 9087   2.747   2.796   9.510 -0.1827  0.0867 -0.1606
  827MOL0     C 9088   2.872   2.847   9.476 -0.8863 -1.1802  0.5168
  827MOL0     C 9089   2.991   2.812   9.544  0.0496  0.5630 -0.6464
  827MOL0     O 9090   3.108   2.874   9.516  0.2480 -0.5776  0.4357
  827MOL0     C 9091   3.224   2.785   9.488 -0.5704 -0.0614  0.1405
  827MOL0     C 9092   3.355   2.868   9.495 -0.1313 -0.4016  0.0993
  827MOL0     C 9093   3.351   2.985   9.403  0.4899  0.0748  0.5460
  827MOL0     C 9094   3.489   3.011   9.345  0.0564  0.0731 -0.1287
  827MOL0     C 9095   3.594   3.031   9.448 -0.6494 -1.0293 -0.4453
  827MOL0     C 9096   3.669   3.040   9.541 -0.2283 -0.7173 -0.3265
  827MOL0     C 9097   2.973   2.718   9.649 -0.1909  0.3578  0.1490
  827MOL0     C 9098   2.844   2.671   9.691  0.8352  0.0144 -0.1007
  827MOL0     H 9099   2.373   2.824   9.777  0.0660  0.2789 -0.4566
  827MOL0     H 9100   2.128   2.794   9.836  0.6034  2.2366 -1.5306
  827MOL0     H 9101   1.889   2.675   9.532 -1.7951  1.0259 -0.5402
  827MOL0     H 9102   1.814   2.740   9.665  1.4589  2.5510 -3.6087
  827MOL0     H 9103   1.680   2.546   9.591  0.7598  0.2016 -1.1247
  827MOL0     H 9104   1.739   2.518   9.746  2.6810  3.3845  0.8279
  827MOL0     H 9105   1.941   2.380   9.616 -1.9136 -0.6318 -0.0109
  827MOL0     H 9106   1.867   2.418   9.473 -0.5641 -3.7800 -1.0321
  827MOL0     H 9107   1.713   2.278   9.693 -0.4076 -2.8135  0.1268
  827MOL0     H 9108   1.659   2.302   9.528 -0.1446  1.5655 -0.1166
  827MOL0     H 9109   1.907   2.137   9.615  0.3253 -2.0169 -0.4449
  827MOL0     H 9110   1.849   2.150   9.448 -1.1354  2.3230 -0.9397
  827MOL0     H 9111   1.643   2.024   9.501 -3.5082 -0.1284  3.4479
  827MOL0     H 9112   1.656   2.065   9.666 -0.1375  2.0155 -0.2754
  827MOL0     H 9113   1.858   1.925   9.707  0.4894 -0.3239 -0.6874
  827MOL0     H 9114   1.741   1.818   9.629 -1.2428  0.8666  0.5767
  827MOL0     H 9115   1.982   1.803   9.551  2.2601  2.6522  0.4938
  827MOL0     H 9116   1.965   1.959   9.471  1.2675 -1.2064 -2.8833
  827MOL0     H 9117   1.814   2.017   9.271  2.4314  0.2078 -0.5084
  827MOL0     H 9118   1.774   1.989   9.023  1.9592  0.2762 -0.1735
  827MOL0     H 9119   1.716   1.828   8.979  1.3747 -1.9853  0.7319
  827MOL0     H 9120   2.013   1.911   8.981 -1.9068  3.1776 -0.4592
  827MOL0     H 9121   1.918   1.912   8.840 -2.5266 -0.2334  0.4264
  827MOL0     H 9122   2.064   1.728   8.842 -1.4175 -0.7121 -1.7737
  827MOL0     H 9123   1.998   1.657   8.985 -4.1008 -1.4090  1.3228
  827MOL0     H 9124   1.779   1.628   8.857  1.4752 -1.1237  1.7958
  827MOL0     H 9125   1.924   1.536   8.808 -1.0321 -0.3203 -3.4214
  827MOL0     H 9126   2.108   1.558   8.716  0.0385  3.0529  1.8671
  827MOL0     H 9127   2.281   1.531   8.546  1.0567  2.5462  2.5463
  827MOL0     H 9128   2.467   1.688   8.136 -0.3212 -1.4068 -1.7845
  827MOL0     H 9129   2.724   1.742   8.108  3.7227  1.2828  2.2640
  827MOL0     H 9130   2.931   1.409   8.156  0.9366 -2.0301 -1.0720
  827MOL0     H 9131   3.050   1.463   8.277  3.2179  0.9932 -2.3630
  827MOL0     H 9132   3.050   1.613   8.019 -0.5485 -2.7595 -3.1121
  827MOL0     H 9133   3.107   1.452   8.033 -1.6179  0.1083 -0.9438
  827MOL0     H 9134   3.252   1.516   8.217 -0.2589  0.3560  0.6922
  827MOL0     H 9135   3.172   1.668   8.244  1.6596 -3.5171  3.1163
  827MOL0     H 9136   3.359   1.605   8.022  1.1975  1.3849 -0.1367
  827MOL0     H 9137   3.253   1.755   8.043  0.5919  1.6181  0.6324
  827MOL0     H 9138   3.497   1.643   8.186 -2.6133 -3.3472  0.2467
  827MOL0     H 9139   3.386   1.735   8.285  1.6547 -1.5480  0.6423
  827MOL0     H 9140   3.408   1.939   8.155 -1.2479 -0.2791  0.5908
  827MOL0     H 9141   3.503   1.853   8.040 -0.1849 -1.2344  0.3520
  827MOL0     H 9142   3.619   2.010   8.166 -0.1885  1.9684  2.9648
  827MOL0     H 9143   3.589   1.929   8.317  2.5854 -4.4061  1.4793
  827MOL0     H 9144   3.700   1.726   8.237  0.3822 -0.5879 -2.4041
  827MOL0     H 9145   3.814   1.865   8.253 -0.0391 -1.8758  2.4057
  827MOL0     H 9146   2.817   1.440   8.396  0.4447  0.9399  0.8456
  827MOL0     H 9147   2.577   1.379   8.417  0.3203 -0.4092 -1.0335
  827MOL0     H 9148   2.022   1.701   8.250 -1.9054 -0.3995  0.2301
  827MOL0     H 9149   1.853   1.743   8.428  1.2096  4.3656  2.3157
  827MOL0     H 9150   2.095   2.525   9.508 -0.4588 -3.3337  1.4117
  827MOL0     H 9151   2.304   2.552   9.444 -1.0902 -1.4508 -0.8751
  827MOL0     H 9152   2.671   2.809   9.434 -0.8230  2.6895  0.8029
  827MOL0     H 9153   2.867   2.927   9.403 -1.3721 -1.1511  0.5798
  827MOL0     H 9154   3.212   2.736   9.391 -0.0157 -0.4388  0.2619
  827MOL0     H 9155   3.221   2.700   9.556  1.7627  0.5058  1.0444
  827MOL0     H 9156   3.374   2.904   9.596  1.2009 -3.0129  0.8809
  827MOL0     H 9157   3.450   2.816   9.480 -1.6908 -3.0903 -1.1633
  827MOL0     H 9158   3.325   3.076   9.458 -0.4303  2.2790 -3.1753
  827MOL0     H 9159   3.276   2.969   9.325 -0.3116 -0.7799  1.4751
  827MOL0     H 9160   3.512   2.928   9.278 -1.2538 -0.9934  0.6885
  827MOL0     H 9161   3.480   3.107   9.293  0.0333  0.5571  0.7402
  827MOL0     H 9162   3.747   3.030   9.614  0.1147 -0.7716 -0.6953
  827MOL0     H 9163   3.064   2.689   9.701  0.4037 -0.2001 -1.1539
  827MOL0     H 9164   2.834   2.609   9.780 -1.7181 -1.3336 -1.2202
  828MOL0     O 9165   6.406   3.075   7.764  0.1977  0.2844  0.2373
  828MOL0     C 9166   6.373   3.127   7.866  0.2418 -0.8934 -0.2331
  828MOL0     O 9167   6.305   3.246   7.872 -0.2599  0.7875  0.2331
  828MOL0     C 9168   6.282   3.313   7.757  0.5723 -0.0335  0.4389
  828MOL0     C 9169   6.213   3.257   7.655  0.7804 -0.2270  0.7761
  828MOL0     C 9170   6.201   3.329   7.534 -0.1641 -0.6139  0.7851
  828MOL0     C 9171   6.257   3.456   7.517 -0.1796  0.8059  0.1299
  828MOL0     O 9172   6.228   3.512   7.398  0.4399  0.2744 -0.4277
  828MOL0     C 9173   6.295   3.628   7.346  0.5047  0.5537 -0.6960
  828MOL0     C 9174   6.259   3.654   7.202  0.4251  0.2328  1.6015
  828MOL0     C 9175   6.341   3.751   7.127  0.4467  0.4397 -0.6525
  828MOL0     C 9176   6.301   3.901   7.160  0.4448  0.9340  0.3250
  828MOL0     C 9177   6.369   4.003   7.063  0.2431 -0.9150 -0.1301
  828MOL0     C 9178   6.321   4.150   7.083  0.5511 -0.1278 -0.1965
  828MOL0     C 9179   6.170   4.167   7.038 -0.2939 -0.3310 -0.2686
  828MOL0     C 9180   6.133   4.315   7.005 -0.3967 -0.3123 -0.5406
  828MOL0     N 9181   5.992   4.331   6.965 -0.4037  0.1164 -0.3591
  828MOL0     C 9182   5.897   4.358   7.060  0.8783  0.2073  0.0040
  828MOL0     C 9183   5.781   4.350   6.987 -0.2681 -0.5561 -0.4289
  828MOL0     C 9184   5.640   4.377   7.028 -0.5577 -0.5206  1.0017
  828MOL0     C 9185   5.567   4.256   7.055  0.4905  0.5519  0.3278
  828MOL0     C 9186   5.630   4.166   7.161 -0.3023 -0.0168 -0.2157
  828MOL0     C 9187   5.663   4.231   7.301  0.3661  0.9989  0.3274
  828MOL0     O 9188   5.672   4.125   7.399  0.2872 -0.1604  0.0087
  828MOL0     C 9189   5.556   4.066   7.447 -0.0308 -0.1240 -0.2612
  828MOL0     C 9190   5.575   3.941   7.514  0.3207 -0.8479  0.0719
  828MOL0     C 9191   5.470   3.875   7.572 -0.0195 -0.3126  0.1181
  828MOL0     C 9192   5.341   3.934   7.564 -0.6618 -1.2477 -0.0899
  828MOL0     C 9193   5.226   3.880   7.634 -0.7389 -0.5619  0.4170
  828MOL0     O 9194   5.126   3.966   7.651  0.4808 -0.4171  0.3103
  828MOL0     C 9195   4.997   3.929   7.691 -0.2413 -0.2120  0.0640
  828MOL0     C 9196   4.909   4.039   7.714 -0.0677 -0.0413 -0.1061
  828MOL0     C 9197   4.778   4.019   7.769 -0.3723 -0.1183 -0.0573
  828MOL0     C 9198   4.738   3.892   7.797  0.3195  0.1465  0.6226
  828MOL0     O 9199   4.617   3.877   7.852  0.9628  1.4424 -0.0972
  828MOL0     C 9200   4.610   3.826   7.981  0.0247  0.2561  0.1277
  828MOL0     C 9201   4.458   3.797   8.010 -0.9329 -0.8849 -0.8870
  828MOL0     C 9202   4.390   3.929   8.060 -0.2471 -0.9945 -0.9836
  828MOL0     C 9203   4.335   4.014   7.947 -0.5186 -0.5693 -0.8697
  828MOL0     C 9204   4.204   3.969   7.902  0.2277 -0.8709 -0.4176
  828MOL0     C 9205   4.095   3.990   8.007 -0.5184  0.7609 -0.2236
  828MOL0     C 9206   3.948   4.012   7.952 -0.1595 -1.0457  0.3121
  828MOL0     C 9207   3.930   4.167   7.921 -0.0120  0.3996  0.5524
  828MOL0    Cl 9208   3.779   4.187   7.831  0.0062 -0.1248  0.2038
  828MOL0     C 9209   4.821   3.788   7.755 -0.2777  0.3910 -0.4740
  828MOL0     C 9210   4.946   3.803   7.704  0.1609 -0.1280  0.0589
  828MOL0     O 9211   5.228   3.761   7.668  0.9584 -0.2821  0.2802
  828MOL0     C 9212   5.316   4.056   7.494 -0.3708  0.1154 -0.1333
  828MOL0     C 9213   5.428   4.118   7.426  0.5163  0.2413 -0.6710
  828MOL0     N 9214   5.813   4.313   6.849  0.2621  0.6305  0.4022
  828MOL0     N 9215   5.944   4.309   6.842  0.2973 -0.3648 -0.6454
  828MOL0     C 9216   6.341   3.508   7.613  0.6960  0.5829 -0.4829
  828MOL0     C 9217   6.358   3.434   7.737  0.2781 -0.1318 -0.5245
  828MOL0     C 9218   6.434   3.073   7.991 -0.3551  1.2682  0.2745
  828MOL0     C 9219   6.449   3.153   8.106  1.1035  0.4651 -0.4802
  828MOL0     C 9220   6.498   3.112   8.230  0.1885 -0.3881  0.0004
  828MOL0     C 9221   6.539   2.977   8.241  0.4822  1.2931 -0.9510
  828MOL0     O 9222   6.569   2.915   8.364  0.1710 -0.1966  0.6080
  828MOL0     C 9223   6.504   2.961   8.480  0.1026  0.3289 -0.3992
  828MOL0     C 9224   6.569   2.913   8.613 -0.3731  0.3895 -1.0397
  828MOL0     C 9225   6.704   2.970   8.635 -0.3282  0.8979 -0.3844
  828MOL0     C 9226   6.694   3.121   8.657 -0.5895  0.1276  0.7440
  828MOL0     C 9227   6.818   3.173   8.730  0.4988 -0.2597  0.8890
  828MOL0     C 9228   6.904   3.219   8.797  0.0015 -0.2353 -0.1143
  828MOL0     C 9229   6.548   2.899   8.129 -0.1275  0.1988  0.2639
  828MOL0     C 9230   6.491   2.942   8.008  0.1283 -0.0587  0.1842
  828MOL0     H 9231   6.193   3.150   7.663  2.7360 -0.6394  0.6403
  828MOL0     H 9232   6.161   3.281   7.446  1.6221  1.1336 -1.0797
  828MOL0     H 9233   6.404   3.635   7.358  0.2255  0.0550  4.1511
  828MOL0     H 9234   6.261   3.719   7.396 -1.4542 -1.1256  1.2141
  828MOL0     H 9235   6.152   3.675   7.199 -0.1380 -2.3628 -1.6862
  828MOL0     H 9236   6.284   3.566   7.143  1.2787  2.2209 -1.1912
  828MOL0     H 9237   6.333   3.741   7.019  0.8012  1.0987 -0.7489
  828MOL0     H 9238   6.448   3.742   7.149  0.5519  0.7075 -1.0493
  828MOL0     H 9239   6.192   3.912   7.151  0.2622 -0.9496 -0.0538
  828MOL0     H 9240   6.326   3.921   7.265  0.4548 -0.3763  0.5886
  828MOL0     H 9241   6.362   3.967   6.960  2.8738  1.6394 -1.3483
  828MOL0     H 9242   6.473   3.997   7.095 -0.1243 -3.5599  0.8367
  828MOL0     H 9243   6.386   4.208   7.016  1.4730  1.4219  1.9301
  828MOL0     H 9244   6.320   4.180   7.188 -1.0202  2.5220 -0.8840
  828MOL0     H 9245   6.143   4.103   6.953  0.3268  0.7981 -1.3465
  828MOL0     H 9246   6.112   4.122   7.119  0.1521 -2.1803 -0.9145
  828MOL0     H 9247   6.197   4.337   6.920  0.6670 -3.0090 -0.5473
  828MOL0     H 9248   6.161   4.380   7.089 -0.5350  1.5662 -1.8873
  828MOL0     H 9249   5.899   4.392   7.164  3.9794  0.6309 -0.0881
  828MOL0     H 9250   5.593   4.416   6.938  3.9594  1.6193 -0.7333
  828MOL0     H 9251   5.622   4.441   7.115 -0.5356 -0.1453  0.7289
  828MOL0     H 9252   5.567   4.190   6.968  0.6732  1.4751 -0.3884
  828MOL0     H 9253   5.464   4.273   7.087  0.5002 -2.8789  2.7299
  828MOL0     H 9254   5.563   4.080   7.165  1.4725 -1.4402  1.9934
  828MOL0     H 9255   5.718   4.108   7.132 -1.8220 -1.7838 -1.5244
  828MOL0     H 9256   5.574   4.293   7.308  0.1592  0.8763 -0.8813
  828MOL0     H 9257   5.747   4.300   7.310 -0.6608  2.3260 -0.0332
  828MOL0     H 9258   5.671   3.891   7.525 -0.9239 -3.4364  0.0267
  828MOL0     H 9259   5.470   3.785   7.632 -0.9516  1.1336  2.4296
  828MOL0     H 9260   4.942   4.141   7.696 -3.2693  1.1381 -0.0453
  828MOL0     H 9261   4.711   4.104   7.779  1.7007  1.8867 -2.1494
  828MOL0     H 9262   4.646   3.893   8.060  1.5090 -1.5673  1.0938
  828MOL0     H 9263   4.668   3.733   7.987  1.6437  1.1562 -0.9386
  828MOL0     H 9264   4.465   3.722   8.089  1.5314  1.3469  1.1926
  828MOL0     H 9265   4.412   3.745   7.925  0.1185 -3.5223  0.0378
  828MOL0     H 9266   4.471   3.991   8.102 -0.5558 -1.2747  0.0714
  828MOL0     H 9267   4.318   3.905   8.139 -0.7139  1.0233 -0.7544
  828MOL0     H 9268   4.321   4.118   7.977 -3.5590 -0.3637 -2.5583
  828MOL0     H 9269   4.402   4.016   7.861 -3.3381  0.1869 -3.2032
  828MOL0     H 9270   4.223   3.863   7.886  0.8818 -0.9600  0.8063
  828MOL0     H 9271   4.182   4.018   7.807 -0.6607  0.1396  0.2757
  828MOL0     H 9272   4.122   4.080   8.064 -0.9970  0.3860  0.6260
  828MOL0     H 9273   4.100   3.903   8.073  0.5059  1.8109  1.1545
  828MOL0     H 9274   3.954   3.961   7.855 -1.5527 -0.2393 -0.2343
  828MOL0     H 9275   3.871   3.969   8.017 -0.6398 -1.1336 -0.3013
  828MOL0     H 9276   4.015   4.206   7.866 -0.2425  2.7969  1.7648
  828MOL0     H 9277   3.923   4.217   8.018 -0.6538  1.2883  0.0660
  828MOL0     H 9278   4.799   3.683   7.769  0.5329 -0.0196 -2.0765
  828MOL0     H 9279   5.006   3.716   7.683 -2.1587 -1.5347 -1.0545
  828MOL0     H 9280   5.226   4.115   7.477  0.7280  1.6562 -0.8730
  828MOL0     H 9281   5.412   4.200   7.357 -2.2686  1.6869  1.5349
  828MOL0     H 9282   6.411   3.589   7.600  0.9955  0.8904  2.3971
  828MOL0     H 9283   6.432   3.457   7.812  0.1490 -1.4262  0.0333
  828MOL0     H 9284   6.412   3.254   8.093 -0.3402 -0.3257 -3.3176
  828MOL0     H 9285   6.512   3.178   8.315 -2.1080  0.3929 -0.1660
  828MOL0     H 9286   6.405   2.914   8.479  0.5760 -1.0785  3.3321
  828MOL0     H 9287   6.488   3.069   8.479 -0.0890  0.2978 -1.0679
  828MOL0     H 9288   6.502   2.935   8.696  0.2646  0.7266 -0.6115
  828MOL0     H 9289   6.584   2.805   8.604  0.8623  0.5441 -1.0235
  828MOL0     H 9290   6.764   2.951   8.545 -1.6773 -2.2013 -0.7638
  828MOL0     H 9291   6.741   2.916   8.723 -2.7402 -1.3368 -0.6304
  828MOL0     H 9292   6.711   3.172   8.562  1.0231  0.9117  1.4263
  828MOL0     H 9293   6.595   3.152   8.691 -0.5235  1.7079 -0.4085
  828MOL0     H 9294   6.990   3.253   8.852  1.4682 -0.9187 -1.8822
  828MOL0     H 9295   6.592   2.801   8.145  0.3317  0.4562  0.6032
  828MOL0     H 9296   6.486   2.869   7.928  2.0550  0.4659 -0.4873
  829MOL0     O 9297   5.353   1.365   9.520 -0.3231 -0.4122  0.6674
  829MOL0     C 9298   5.259   1.323   9.590  0.2446  0.1836 -0.4787
  829MOL0     O 9299   5.125   1.360   9.589 -0.6604 -0.7560 -0.0544
  829MOL0     C 9300   5.085   1.485   9.534  0.2983 -0.4927 -0.4733
  829MOL0     C 9301   4.947   1.498   9.517 -0.2774 -0.7758 -0.2270
  829MOL0     C 9302   4.894   1.614   9.446  0.0762  0.3955  0.0248
  829MOL0     C 9303   4.978   1.721   9.419 -0.4391 -0.7545  0.6176
  829MOL0     O 9304   4.930   1.841   9.359 -0.1862 -0.6235 -0.5858
  829MOL0     C 9305   4.797   1.873   9.351 -0.4655  0.2397  0.6921
  829MOL0     C 9306   4.764   2.015   9.299  0.3504 -0.0206 -0.6094
  829MOL0     C 9307   4.840   2.117   9.362 -0.3689  0.7578 -0.0742
  829MOL0     C 9308   4.837   2.128   9.514 -0.0109  0.1208  0.1639
  829MOL0     C 9309   4.903   2.268   9.568 -0.4064  0.5058 -0.4273
  829MOL0     C 9310   4.908   2.279   9.723 -0.6289  0.2888 -0.8235
  829MOL0     C 9311   5.024   2.363   9.779 -0.9643  0.0616  0.3282
  829MOL0     C 9312   5.062   2.336   9.924 -0.4301  0.2774 -0.2771
  829MOL0     N 9313   4.938   2.334  10.003 -0.4210 -0.3334 -0.1307
  829MOL0     C 9314   4.915   2.243  10.096 -0.5422  0.2548 -0.2372
  829MOL0     C 9315   4.800   2.274  10.143  0.0527 -0.1734 -0.0792
  829MOL0     C 9316   4.729   2.179  10.228 -0.3447  0.9881 -0.3181
  829MOL0     C 9317   4.583   2.196  10.232 -1.0490  0.1281 -0.4014
  829MOL0     C 9318   4.531   2.106  10.349  0.0313  0.5051  0.9022
  829MOL0     C 9319   4.372   2.086  10.340  0.8166 -0.4382 -0.9089
  829MOL0     O 9320   4.294   2.209  10.337 -0.7621 -0.1421 -0.0295
  829MOL0     C 9321   4.165   2.183  10.295 -0.8082 -1.1089 -0.0610
  829MOL0     C 9322   4.094   2.285  10.229 -0.2285 -0.7042 -0.6253
  829MOL0     C 9323   3.959   2.272  10.187  0.2642 -0.3300  0.4821
  829MOL0     C 9324   3.891   2.149  10.197  0.1969 -0.1717  0.0453
  829MOL0     C 9325   3.745   2.141  10.145  0.9186 -0.6037  0.0890
  829MOL0     O 9326   3.698   2.228  10.055  0.1853  0.9363  0.1176
  829MOL0     C 9327   3.564   2.247  10.034  0.7011  0.0506  0.2065
  829MOL0     C 9328   3.523   2.344   9.937 -0.4734  0.3454 -0.1623
  829MOL0     C 9329   3.387   2.387   9.932  0.0228 -0.0911  0.1656
  829MOL0     C 9330   3.292   2.319  10.008 -0.4695 -0.3116 -0.3234
  829MOL0     O 9331   3.163   2.357   9.988  0.3791 -0.2472 -0.0077
  829MOL0     C 9332   3.061   2.282  10.039  0.1350  0.9481  0.0431
  829MOL0     C 9333   2.932   2.326   9.974  0.4571  0.4818  1.2810
  829MOL0     C 9334   2.814   2.243  10.037 -0.4719 -0.6445  0.1380
  829MOL0     C 9335   2.679   2.288   9.990 -0.6490 -0.5577  0.1719
  829MOL0     C 9336   2.569   2.208  10.056  0.3657 -0.3478 -0.4818
  829MOL0     C 9337   2.423   2.262  10.017 -0.5573 -1.0110 -0.9806
  829MOL0     C 9338   2.311   2.162  10.015  0.5858  0.2752 -0.4730
  829MOL0     C 9339   2.181   2.231   9.972  0.2823  0.4435 -0.0145
  829MOL0    Cl 9340   2.035   2.121  10.007  0.1339  0.1806 -0.5220
  829MOL0     C 9341   3.329   2.228  10.103 -0.1614  0.1931 -0.3887
  829MOL0     C 9342   3.462   2.193  10.113 -0.1500  0.2382 -0.0067
  829MOL0     O 9343   3.691   2.033  10.180 -0.1712  0.4774 -0.0030
  829MOL0     C 9344   3.966   2.042  10.256  0.0779  1.1951 -0.2559
  829MOL0     C 9345   4.099   2.058  10.300  0.0354 -0.8406  0.0655
  829MOL0     N 9346   4.755   2.388  10.083 -0.2495 -0.8433  0.2359
  829MOL0     N 9347   4.841   2.433   9.996  0.0833 -0.9769 -0.2840
  829MOL0     C 9348   5.108   1.716   9.465 -0.3957 -0.1771 -0.1376
  829MOL0     C 9349   5.164   1.602   9.517 -0.6676  0.3733 -0.1460
  829MOL0     C 9350   5.286   1.210   9.685  0.3655 -0.5276 -0.3856
  829MOL0     C 9351   5.411   1.165   9.702  0.1453 -0.6706 -0.3791
  829MOL0     C 9352   5.442   1.058   9.778 -0.0976 -0.2265 -0.0035
  829MOL0     C 9353   5.341   0.988   9.845  0.6773 -0.1020 -0.4925
  829MOL0     O 9354   5.347   0.869   9.909  0.0547  0.2050  0.8355
  829MOL0     C 9355   5.454   0.774   9.876  0.2708 -0.2727  0.2276
  829MOL0     C 9356   5.568   0.782   9.987 -0.1306  0.1795  0.4947
  829MOL0     C 9357   5.704   0.710   9.937 -0.2580  0.4032 -0.7132
  829MOL0     C 9358   5.761   0.783   9.821 -0.5649  0.0162 -0.5981
  829MOL0     C 9359   5.898   0.740   9.812  0.4227  0.4439 -0.9591
  829MOL0     C 9360   6.015   0.713   9.791  0.2873  0.4672 -0.5034
  829MOL0     C 9361   5.212   1.031   9.828  0.0492  0.8481  0.5931
  829MOL0     C 9362   5.181   1.138   9.756  0.1201 -2.0268  0.4621
  829MOL0     H 9363   4.879   1.416   9.540  2.3013 -2.6118  1.4554
  829MOL0     H 9364   4.788   1.622   9.422 -0.9916 -3.1341  2.6569
  829MOL0     H 9365   4.766   1.855   9.454 -2.8183  1.0728  0.1825
  829MOL0     H 9366   4.759   1.796   9.283 -1.0525  0.6023  0.6013
  829MOL0     H 9367   4.657   2.028   9.315 -0.4690  0.8272 -5.3656
  829MOL0     H 9368   4.790   2.022   9.193  1.7656  5.3924 -0.2040
  829MOL0     H 9369   4.804   2.211   9.319 -0.7615  0.7897  0.3156
  829MOL0     H 9370   4.944   2.106   9.331 -0.4079  1.1036 -0.3405
  829MOL0     H 9371   4.732   2.124   9.543 -0.7638 -0.1049 -2.3708
  829MOL0     H 9372   4.885   2.039   9.555 -1.0801 -0.5241  0.0349
  829MOL0     H 9373   4.857   2.351   9.514  0.4231  1.6034  0.5082
  829MOL0     H 9374   5.004   2.257   9.530 -1.2296 -2.5448 -2.0979
  829MOL0     H 9375   4.921   2.178   9.762  0.1514  0.7166  0.0872
  829MOL0     H 9376   4.813   2.317   9.761 -0.2675 -1.8439  2.6068
  829MOL0     H 9377   5.111   2.324   9.725 -0.0095 -0.4376  2.1529
  829MOL0     H 9378   5.005   2.468   9.756 -4.5785 -0.5092  0.2142
  829MOL0     H 9379   5.123   2.418   9.964 -1.4744 -0.0711  2.2213
  829MOL0     H 9380   5.121   2.245   9.931 -1.5752 -0.3701  2.7851
  829MOL0     H 9381   4.980   2.157  10.110 -1.5295 -0.3946  0.5858
  829MOL0     H 9382   4.761   2.188  10.332 -0.2779 -0.4889 -0.1988
  829MOL0     H 9383   4.745   2.075  10.201  0.0582  1.2693 -1.2218
  829MOL0     H 9384   4.530   2.181  10.138 -2.1194  1.2626 -0.0136
  829MOL0     H 9385   4.551   2.294  10.271 -0.3244 -0.5648  2.1590
  829MOL0     H 9386   4.567   2.008  10.320  0.9667  1.0159  0.2885
  829MOL0     H 9387   4.556   2.148  10.447  0.1061 -0.1434  1.1617
  829MOL0     H 9388   4.343   2.020  10.422  1.9721  1.0388  0.7982
  829MOL0     H 9389   4.352   2.040  10.243 -0.2057 -0.8031 -0.5339
  829MOL0     H 9390   4.126   2.389  10.226 -1.8050 -0.1986 -0.5502
  829MOL0     H 9391   3.911   2.363  10.154  1.6361 -0.2600 -1.4669
  829MOL0     H 9392   3.603   2.396   9.885 -0.6266 -0.7211 -1.5203
  829MOL0     H 9393   3.350   2.474   9.878 -1.3312  0.7270  2.2924
  829MOL0     H 9394   3.041   2.289  10.146 -1.5138 -0.9485 -0.0856
  829MOL0     H 9395   3.080   2.176  10.017  0.0615  1.2919 -1.7780
  829MOL0     H 9396   2.925   2.309   9.866  2.2241 -1.3017  1.3889
  829MOL0     H 9397   2.918   2.433   9.991 -0.8690  0.3583  1.0742
  829MOL0     H 9398   2.833   2.241  10.144  0.3829  3.2150  0.1939
  829MOL0     H 9399   2.824   2.137  10.014 -4.8387 -1.8991  2.8209
  829MOL0     H 9400   2.671   2.395  10.011 -1.1292 -0.3387 -1.0344
  829MOL0     H 9401   2.668   2.272   9.883 -2.0858 -5.0556  0.8093
  829MOL0     H 9402   2.568   2.199  10.165 -0.3886  0.2576 -0.4322
  829MOL0     H 9403   2.588   2.110  10.010 -1.4863 -0.6672 -0.6581
  829MOL0     H 9404   2.423   2.316   9.921 -1.8632  1.5027  0.3281
  829MOL0     H 9405   2.418   2.336  10.098  4.5461 -1.6699  0.2818
  829MOL0     H 9406   2.331   2.078   9.949  0.4037 -1.9250  2.1128
  829MOL0     H 9407   2.297   2.131  10.119  0.2555 -4.8661 -1.7993
  829MOL0     H 9408   2.177   2.251   9.865 -0.2097 -2.4737 -0.6458
  829MOL0     H 9409   2.176   2.317  10.039 -0.5050 -0.1244  0.6778
  829MOL0     H 9410   3.263   2.173  10.169  0.3688 -1.1324 -0.9331
  829MOL0     H 9411   3.491   2.123  10.190  1.2688 -0.1530 -0.8647
  829MOL0     H 9412   3.925   1.943  10.270  4.0110 -0.4886  0.3667
  829MOL0     H 9413   4.149   1.978  10.353  0.2396  0.1299  1.3805
  829MOL0     H 9414   5.165   1.808   9.468  0.7958 -0.8866 -0.0869
  829MOL0     H 9415   5.259   1.603   9.570  0.0712  1.6533 -1.4110
  829MOL0     H 9416   5.485   1.217   9.643 -2.2381  1.1356 -1.9466
  829MOL0     H 9417   5.532   0.997   9.767  0.7774  1.1777 -0.8369
  829MOL0     H 9418   5.499   0.785   9.777  2.0650 -1.0984  0.9088
  829MOL0     H 9419   5.422   0.670   9.873  1.2589 -0.5744 -1.2460
  829MOL0     H 9420   5.589   0.886  10.014 -2.8159  0.8321  0.3107
  829MOL0     H 9421   5.526   0.726  10.071 -1.0549  0.6678  0.3717
  829MOL0     H 9422   5.685   0.606   9.908  0.0113  0.3706 -0.7751
  829MOL0     H 9423   5.775   0.702  10.020 -0.2156  0.9543 -0.6905
  829MOL0     H 9424   5.721   0.770   9.719  1.9841  3.9745 -2.3699
  829MOL0     H 9425   5.772   0.890   9.842  3.0497 -0.5261  0.9555
  829MOL0     H 9426   6.114   0.673   9.785 -0.0816 -0.6513  0.2752
  829MOL0     H 9427   5.124   0.981   9.868 -0.1829 -3.3135 -4.1860
  829MOL0     H 9428   5.074   1.157   9.756 -0.2176 -3.6925 -0.7512
  830MOL0     O 9429   5.296   2.199   2.136 -0.6687  0.6745 -0.0793
  830MOL0     C 9430   5.390   2.269   2.109 -0.0413  0.1831 -0.7004
  830MOL0     O 9431   5.385   2.407   2.082 -0.1668  0.2205  0.4683
  830MOL0     C 9432   5.260   2.470   2.103 -0.1623  0.3741 -0.5468
  830MOL0     C 9433   5.234   2.561   2.203 -0.6377  0.2085  0.1820
  830MOL0     C 9434   5.120   2.639   2.204 -1.3255  0.8417 -0.8441
  830MOL0     C 9435   5.017   2.614   2.116  0.3043  0.0875 -0.2434
  830MOL0     O 9436   4.914   2.704   2.124 -0.7452  0.0988 -0.6170
  830MOL0     C 9437   4.788   2.665   2.069  0.0496 -0.1349  0.0007
  830MOL0     C 9438   4.678   2.761   2.118 -0.7419  0.2633  0.3479
  830MOL0     C 9439   4.687   2.898   2.058 -0.7754 -0.0827 -0.6034
  830MOL0     C 9440   4.664   2.895   1.909  1.2065 -0.3072 -0.2732
  830MOL0     C 9441   4.617   3.035   1.869 -0.3244 -0.1792  0.3601
  830MOL0     C 9442   4.628   3.065   1.716  0.2617  1.3949 -0.8989
  830MOL0     C 9443   4.573   3.203   1.674  0.2787  0.5967 -0.1401
  830MOL0     C 9444   4.598   3.249   1.531  0.0791  0.8383 -0.0093
  830MOL0     N 9445   4.504   3.200   1.420 -0.2105 -0.8788 -0.3305
  830MOL0     C 9446   4.376   3.252   1.422  1.1821  0.3013 -0.2570
  830MOL0     C 9447   4.312   3.169   1.332 -0.3996 -0.3151 -1.9895
  830MOL0     C 9448   4.162   3.185   1.303 -0.2196  0.5017 -0.2130
  830MOL0     C 9449   4.079   3.072   1.244 -0.1528  0.6969 -0.0056
  830MOL0     C 9450   3.983   3.009   1.342  1.2427  0.3732  0.2266
  830MOL0     C 9451   3.921   2.884   1.271 -0.1121 -0.9048 -0.6439
  830MOL0     O 9452   3.872   2.916   1.140  0.4120  0.5815 -0.3806
  830MOL0     C 9453   3.752   2.968   1.135  0.6306  0.1905 -1.2002
  830MOL0     C 9454   3.685   2.965   1.011 -0.0416 -0.3185 -0.2097
  830MOL0     C 9455   3.557   3.013   1.002  0.2274  0.4763 -0.8536
  830MOL0     C 9456   3.487   3.066   1.108 -0.7530 -0.4177 -0.2688
  830MOL0     C 9457   3.348   3.124   1.083 -0.3670  0.4598 -0.7200
  830MOL0     O 9458   3.280   3.166   1.194  0.3229 -0.4740  0.1721
  830MOL0     C 9459   3.154   3.230   1.196 -0.3315  0.1636  0.3084
  830MOL0     C 9460   3.099   3.303   1.096 -0.1117  0.2622 -0.0840
  830MOL0     C 9461   2.972   3.366   1.105  0.2977  0.4916  0.5163
  830MOL0     C 9462   2.890   3.332   1.211 -0.7292  0.5697  0.2417
  830MOL0     O 9463   2.768   3.379   1.243  0.6391  0.7142 -0.6168
  830MOL0     C 9464   2.713   3.480   1.150  0.1215 -0.0302 -0.3770
  830MOL0     C 9465   2.575   3.541   1.187  0.2270 -0.1890  0.5195
  830MOL0     C 9466   2.483   3.558   1.068  0.1965 -0.8902 -0.0509
  830MOL0     C 9467   2.349   3.624   1.107  1.0419 -0.1407  0.1574
  830MOL0     C 9468   2.241   3.625   0.998 -0.5667 -0.3875 -0.8965
  830MOL0     C 9469   2.133   3.733   1.023  0.9508  1.0111  0.8398
  830MOL0     C 9470   2.013   3.729   0.937  0.1417 -0.5933  0.4750
  830MOL0     C 9471   1.914   3.836   0.959 -0.7311 -0.7454 -0.0993
  830MOL0    Cl 9472   1.759   3.800   0.879  0.4989  0.0526 -0.5067
  830MOL0     C 9473   2.943   3.258   1.313  0.1866  0.8369 -0.7381
  830MOL0     C 9474   3.075   3.210   1.305 -0.1203 -1.9414 -0.7608
  830MOL0     O 9475   3.301   3.139   0.970  0.4109  1.1216 -0.1976
  830MOL0     C 9476   3.553   3.067   1.237  0.7837  0.7675 -0.6469
  830MOL0     C 9477   3.677   3.024   1.241  0.4400 -0.2068  0.5884
  830MOL0     N 9478   4.413   3.093   1.272  0.8659 -0.9908  0.4100
  830MOL0     N 9479   4.527   3.109   1.325 -0.8696 -0.5663 -0.0217
  830MOL0     C 9480   5.028   2.511   2.024  0.6188  0.1546 -0.1901
  830MOL0     C 9481   5.150   2.441   2.021  0.5277 -0.2677  0.2229
  830MOL0     C 9482   5.522   2.213   2.084  0.2586 -0.0223 -0.1750
  830MOL0     C 9483   5.629   2.294   2.031 -0.4655  0.2668 -0.2968
  830MOL0     C 9484   5.750   2.232   1.999  0.1663  0.1507  0.0604
  830MOL0     C 9485   5.763   2.097   2.017 -0.2077 -0.0674  0.1068
  830MOL0     O 9486   5.873   2.022   1.995  0.5475 -0.2238  0.6958
  830MOL0     C 9487   6.000   2.067   1.949  0.2508  0.6976  0.2997
  830MOL0     C 9488   6.101   2.070   2.059  0.0515  0.3864  0.2675
  830MOL0     C 9489   6.233   2.120   1.996 -0.1005 -0.6277  0.4895
  830MOL0     C 9490   6.326   2.168   2.112 -0.1327 -0.0926 -0.1530
  830MOL0     C 9491   6.452   2.224   2.061 -0.3192  0.1052  0.6674
  830MOL0     C 9492   6.565   2.268   2.012  0.2026 -0.0971 -0.3636
  830MOL0     C 9493   5.660   2.015   2.072  0.9745 -0.1605 -0.3033
  830MOL0     C 9494   5.542   2.080   2.105  0.1883  0.3309 -0.1197
  830MOL0     H 9495   5.313   2.583   2.274 -0.4182  2.3258 -0.6585
  830MOL0     H 9496   5.116   2.713   2.284 -0.9301  0.7606 -0.7473
  830MOL0     H 9497   4.768   2.563   2.102  2.1391 -0.6798 -0.2606
  830MOL0     H 9498   4.776   2.665   1.960  2.1256 -2.3693 -0.3107
  830MOL0     H 9499   4.691   2.785   2.224 -2.5386 -0.6504  0.8208
  830MOL0     H 9500   4.581   2.716   2.095 -0.1291 -0.9382  0.0179
  830MOL0     H 9501   4.789   2.928   2.085 -0.2160 -1.4835 -1.0541
  830MOL0     H 9502   4.616   2.960   2.113  1.5838  1.3121  1.0551
  830MOL0     H 9503   4.758   2.857   1.869  1.4052 -1.3288  1.0891
  830MOL0     H 9504   4.580   2.830   1.883  0.7045  0.3523 -0.3377
  830MOL0     H 9505   4.685   3.110   1.911  0.3528 -0.2092 -0.6402
  830MOL0     H 9506   4.516   3.061   1.902 -1.2529  1.9304 -3.4821
  830MOL0     H 9507   4.589   2.983   1.656 -0.0947 -0.0022  1.1595
  830MOL0     H 9508   4.738   3.071   1.711  0.4646 -0.2194  0.6137
  830MOL0     H 9509   4.467   3.209   1.698 -0.0515 -0.7950 -1.1271
  830MOL0     H 9510   4.627   3.268   1.743  0.4928 -0.0050  0.2759
  830MOL0     H 9511   4.702   3.223   1.512  0.0776  0.6779  0.2070
  830MOL0     H 9512   4.582   3.358   1.530  0.3716  0.9410 -3.1385
  830MOL0     H 9513   4.338   3.334   1.482  0.0805 -0.4537  0.1235
  830MOL0     H 9514   4.158   3.257   1.221 -3.5622  0.7817  0.0757
  830MOL0     H 9515   4.106   3.225   1.388 -3.8573 -2.3868 -0.9887
  830MOL0     H 9516   4.145   2.987   1.223  1.0081  1.4530  0.5054
  830MOL0     H 9517   4.025   3.107   1.156  0.6184  1.6313 -0.1141
  830MOL0     H 9518   4.030   2.967   1.431 -0.1207 -1.2676  0.2194
  830MOL0     H 9519   3.914   3.085   1.382 -0.0316  0.3557 -1.8140
  830MOL0     H 9520   3.837   2.849   1.333  1.2130 -1.5235  0.8698
  830MOL0     H 9521   3.980   2.792   1.271  0.3439 -0.6559  1.1043
  830MOL0     H 9522   3.747   2.942   0.925 -1.6387 -1.3373 -1.1435
  830MOL0     H 9523   3.499   3.006   0.910  0.1821 -2.3502 -0.7052
  830MOL0     H 9524   3.150   3.327   1.004 -1.7469  2.9309 -0.4159
  830MOL0     H 9525   2.933   3.424   1.022 -1.4984  0.1758  1.1026
  830MOL0     H 9526   2.712   3.437   1.049  1.5270 -0.4343 -0.2388
  830MOL0     H 9527   2.780   3.565   1.145  1.1293 -0.8516 -3.1705
  830MOL0     H 9528   2.586   3.642   1.227 -0.4578  0.4135 -0.7491
  830MOL0     H 9529   2.520   3.488   1.265 -1.7080 -1.0676 -1.3325
  830MOL0     H 9530   2.446   3.463   1.030 -3.7114  1.2023 -2.1223
  830MOL0     H 9531   2.525   3.608   0.980  0.2762  1.3381  1.1585
  830MOL0     H 9532   2.307   3.556   1.182  1.2896 -0.5192 -0.0461
  830MOL0     H 9533   2.363   3.723   1.151 -0.6193  0.1009  0.2097
  830MOL0     H 9534   2.193   3.526   0.995 -3.0431  0.5269  2.2256
  830MOL0     H 9535   2.284   3.648   0.900  1.1003 -0.5035 -0.2265
  830MOL0     H 9536   2.188   3.827   1.025  2.6457  0.2817 -2.7677
  830MOL0     H 9537   2.084   3.718   1.120 -0.4802 -0.7537 -0.0806
  830MOL0     H 9538   2.035   3.736   0.830 -3.5014  0.6673 -0.3273
  830MOL0     H 9539   1.967   3.634   0.966 -0.2250 -1.0935 -1.5675
  830MOL0     H 9540   1.949   3.935   0.930 -0.6744 -1.0294 -1.0366
  830MOL0     H 9541   1.897   3.834   1.067  1.2109 -0.0295  0.2606
  830MOL0     H 9542   2.886   3.258   1.406  0.8316  0.3913 -0.3386
  830MOL0     H 9543   3.112   3.169   1.399 -0.2704  1.1522  0.7651
  830MOL0     H 9544   3.491   3.088   1.324 -0.4537 -1.1875 -1.0065
  830MOL0     H 9545   3.726   3.022   1.338  1.8367  0.3817 -0.0768
  830MOL0     H 9546   4.953   2.486   1.950 -0.5982 -0.6306  1.2370
  830MOL0     H 9547   5.160   2.371   1.939 -4.1165 -1.6855  0.6050
  830MOL0     H 9548   5.623   2.402   2.031  0.1330  0.4007  2.6651
  830MOL0     H 9549   5.836   2.290   1.971 -0.8171 -0.1449 -4.1920
  830MOL0     H 9550   5.989   2.168   1.911 -0.8792 -0.0210 -1.3640
  830MOL0     H 9551   6.038   1.991   1.880 -0.9834 -3.3842  3.6877
  830MOL0     H 9552   6.063   2.130   2.142  2.1979  1.4942  0.5296
  830MOL0     H 9553   6.123   1.974   2.106 -0.3128 -0.7556 -1.7448
  830MOL0     H 9554   6.219   2.193   1.915  1.3840 -2.1976 -1.2685
  830MOL0     H 9555   6.278   2.037   1.941 -0.0269  0.6534 -1.5043
  830MOL0     H 9556   6.284   2.237   2.186 -0.2764  1.1074 -1.3176
  830MOL0     H 9557   6.364   2.086   2.174  1.1810 -0.6971 -1.6891
  830MOL0     H 9558   6.659   2.291   1.966  0.5496  3.9667  1.9471
  830MOL0     H 9559   5.670   1.911   2.100 -0.0265 -0.5663 -1.3735
  830MOL0     H 9560   5.468   2.015   2.149  0.9596  1.1736  2.5993
  831MOL0     O 9561  11.224   8.784   3.987  0.1073 -0.2007 -0.5092
  831MOL0     C 9562  11.309   8.845   3.927  0.6172  0.3875  0.8499
  831MOL0     O 9563  11.297   8.971   3.885 -0.4443 -0.4495 -0.8017
  831MOL0     C 9564  11.165   9.017   3.870  0.0547  0.0586  0.6729
  831MOL0     C 9565  11.108   9.091   3.976 -0.2029  0.3754 -0.3778
  831MOL0     C 9566  10.981   9.145   3.963 -0.1242  0.2020 -1.0939
  831MOL0     C 9567  10.908   9.120   3.845 -0.2371 -0.1312 -0.0840
  831MOL0     O 9568  10.789   9.177   3.817  0.6147 -1.1872 -0.5273
  831MOL0     C 9569  10.797   9.323   3.835 -0.0468  0.7911  0.2120
  831MOL0     C 9570  10.667   9.400   3.782 -0.0765  0.5854  0.5820
  831MOL0     C 9571  10.551   9.399   3.885 -1.0179  0.1382  0.4195
  831MOL0     C 9572  10.425   9.466   3.820 -0.1317 -0.7404  0.4626
  831MOL0     C 9573  10.317   9.498   3.917  0.2167  0.1750  0.0543
  831MOL0     C 9574  10.233   9.602   3.848 -0.2497 -0.4831  0.6381
  831MOL0     C 9575  10.115   9.656   3.932  0.9636  1.1420  0.0560
  831MOL0     C 9576  10.022   9.546   3.987 -0.1666 -0.6033 -0.1686
  831MOL0     N 9577   9.904   9.601   4.048 -0.1518 -0.2580 -0.1370
  831MOL0     C 9578   9.796   9.681   4.006 -0.6476  0.0722 -0.7939
  831MOL0     C 9579   9.710   9.694   4.113 -0.3895  0.5914 -1.1993
  831MOL0     C 9580   9.592   9.775   4.126  0.8561  0.0730  0.2421
  831MOL0     C 9581   9.621   9.930   4.123  0.0892 -0.2435  0.4515
  831MOL0     C 9582   9.501  10.024   4.149 -0.3088  0.1664 -0.0554
  831MOL0     C 9583   9.385   9.999   4.041 -0.2287  1.2200 -0.1542
  831MOL0     O 9584   9.284  10.085   4.070 -0.2350 -0.1099  0.0188
  831MOL0     C 9585   9.154  10.066   4.034 -0.1294  0.0376  0.2539
  831MOL0     C 9586   9.117   9.992   3.922  0.5125  0.1868  1.1069
  831MOL0     C 9587   8.983  10.001   3.874 -0.5020  0.1304  0.3217
  831MOL0     C 9588   8.882  10.071   3.943  0.6179 -0.8087 -0.7076
  831MOL0     C 9589   8.746  10.060   3.886 -0.6313 -0.3938 -0.5555
  831MOL0     O 9590   8.641  10.117   3.965 -0.0186  0.5091  0.5058
  831MOL0     C 9591   8.515  10.114   3.916  0.6865  0.2606 -0.4581
  831MOL0     C 9592   8.437  10.001   3.893  0.5221  0.4383  0.2271
  831MOL0     C 9593   8.313  10.020   3.835 -1.0083  0.0379  0.1021
  831MOL0     C 9594   8.252  10.145   3.810  0.2566  0.4532 -0.9024
  831MOL0     O 9595   8.130  10.149   3.748  0.9516 -0.1138 -0.6379
  831MOL0     C 9596   8.024  10.194   3.842  0.2459 -0.1385 -0.8227
  831MOL0     C 9597   7.903  10.244   3.759 -0.8678  0.2925  0.3173
  831MOL0     C 9598   7.784  10.293   3.844  0.4384  0.1159 -0.0267
  831MOL0     C 9599   7.643  10.276   3.784 -0.0661 -0.3547  0.2591
  831MOL0     C 9600   7.538  10.368   3.857  0.0467 -0.2551 -0.6255
  831MOL0     C 9601   7.401  10.367   3.776  0.1356 -0.1954  0.3216
  831MOL0     C 9602   7.287  10.414   3.871 -0.5587 -1.1967  0.3475
  831MOL0     C 9603   7.159  10.394   3.803  0.2868 -0.8404 -0.1368
  831MOL0    Cl 9604   7.010  10.475   3.905  0.0495 -0.0610  0.1718
  831MOL0     C 9605   8.324  10.260   3.846 -0.0530 -0.4073  0.7286
  831MOL0     C 9606   8.457  10.235   3.892  1.4166 -0.7284  0.4972
  831MOL0     O 9607   8.729  10.024   3.766 -0.1328 -0.0202 -0.3459
  831MOL0     C 9608   8.920  10.133   4.064  0.5045  0.3549  0.0772
  831MOL0     C 9609   9.052  10.139   4.094 -0.5961  0.1712 -0.0895
  831MOL0     N 9610   9.772   9.629   4.221  0.1982 -0.2326  0.4846
  831MOL0     N 9611   9.881   9.585   4.181 -0.8154  0.1212 -0.4186
  831MOL0     C 9612  10.964   9.044   3.740  0.7497  0.8974 -0.0939
  831MOL0     C 9613  11.094   8.997   3.751 -0.4502 -0.4881 -0.6147
  831MOL0     C 9614  11.451   8.797   3.923 -0.0473  0.2637  1.3623
  831MOL0     C 9615  11.538   8.870   3.837 -0.9974  0.1200  0.4435
  831MOL0     C 9616  11.668   8.826   3.826 -1.2021 -0.0747 -0.7587
  831MOL0     C 9617  11.719   8.723   3.910  0.3897  0.0755 -0.1108
  831MOL0     O 9618  11.851   8.699   3.903 -0.2827 -0.2805  0.4246
  831MOL0     C 9619  11.915   8.626   4.010  0.1551 -0.1128 -0.4707
  831MOL0     C 9620  12.068   8.606   3.981 -0.3346  0.6411 -0.1518
  831MOL0     C 9621  12.112   8.482   4.060  0.2254 -0.9060  0.3034
  831MOL0     C 9622  12.259   8.440   4.030 -0.0555 -0.3389 -0.2383
  831MOL0     C 9623  12.360   8.467   4.136  0.5594 -0.4440 -0.1367
  831MOL0     C 9624  12.431   8.491   4.230 -0.3130  0.6385 -0.2361
  831MOL0     C 9625  11.627   8.657   3.994 -1.1898  0.1419 -0.1894
  831MOL0     C 9626  11.495   8.688   3.997  0.3920  0.2387  0.1656
  831MOL0     H 9627  11.167   9.102   4.067 -0.0179 -1.8461 -0.1799
  831MOL0     H 9628  10.947   9.210   4.043 -2.0683 -0.3795 -1.3947
  831MOL0     H 9629  10.883   9.341   3.770 -1.1604 -0.1282 -1.6140
  831MOL0     H 9630  10.812   9.348   3.940  0.5962  2.7732 -0.3069
  831MOL0     H 9631  10.644   9.351   3.687  1.2846 -0.1709  0.6226
  831MOL0     H 9632  10.693   9.496   3.738  0.6954  0.2948  0.3918
  831MOL0     H 9633  10.577   9.462   3.971  1.9099  0.7239 -0.7636
  831MOL0     H 9634  10.532   9.297   3.921  1.1370 -0.4043  0.1593
  831MOL0     H 9635  10.455   9.555   3.765 -0.9279 -0.6061  0.2299
  831MOL0     H 9636  10.383   9.407   3.738  1.7154 -2.3449  0.6000
  831MOL0     H 9637  10.362   9.539   4.008  1.5323  1.0208 -0.9356
  831MOL0     H 9638  10.264   9.405   3.934 -1.2585  1.2921  1.9054
  831MOL0     H 9639  10.194   9.555   3.757  1.2659 -1.0072  0.2088
  831MOL0     H 9640  10.295   9.686   3.816 -1.4813 -0.5131 -2.1201
  831MOL0     H 9641  10.142   9.716   4.020 -2.9236  3.9312 -0.3742
  831MOL0     H 9642  10.056   9.727   3.874  0.2498  0.7859  0.3361
  831MOL0     H 9643  10.084   9.490   4.058 -0.3097  1.4446  1.6793
  831MOL0     H 9644   9.985   9.479   3.909 -1.3730 -0.5282  0.3155
  831MOL0     H 9645   9.782   9.727   3.908 -2.1277  1.1360 -0.1261
  831MOL0     H 9646   9.541   9.744   4.218  2.2169 -0.3035  0.8976
  831MOL0     H 9647   9.524   9.748   4.045  1.0728  2.0516 -0.6491
  831MOL0     H 9648   9.677   9.947   4.031  1.7607 -0.6679  1.3619
  831MOL0     H 9649   9.695   9.946   4.201  0.8351 -1.3560 -0.0094
  831MOL0     H 9650   9.460  10.023   4.250  0.0091 -1.4173  0.0853
  831MOL0     H 9651   9.542  10.125   4.138 -1.2221  0.7242  1.4547
  831MOL0     H 9652   9.348   9.896   4.044  1.8771  0.3697 -0.9648
  831MOL0     H 9653   9.428  10.019   3.942  2.3991  2.3768  1.1273
  831MOL0     H 9654   9.183   9.944   3.850  1.8417  1.6197  1.3283
  831MOL0     H 9655   8.960   9.957   3.778  1.5439  2.0384 -1.1330
  831MOL0     H 9656   8.472   9.902   3.921  2.6707  1.2242  0.5402
  831MOL0     H 9657   8.254   9.931   3.815  0.2083 -1.1095  1.3955
  831MOL0     H 9658   8.056  10.277   3.906  0.6924 -2.4056  2.1121
  831MOL0     H 9659   7.992  10.116   3.911  1.1430 -0.4483 -0.7418
  831MOL0     H 9660   7.868  10.168   3.689  0.8339  2.1137 -2.7634
  831MOL0     H 9661   7.937  10.331   3.702 -2.1141  1.0550  0.7113
  831MOL0     H 9662   7.804  10.393   3.884  1.3612  0.4866 -1.3644
  831MOL0     H 9663   7.781  10.245   3.943  0.6011  1.1878  0.5187
  831MOL0     H 9664   7.649  10.310   3.680  2.0519  0.6932  0.6570
  831MOL0     H 9665   7.612  10.172   3.787  3.4722 -1.5279  1.3107
  831MOL0     H 9666   7.573  10.472   3.864  0.2250 -0.3561  0.0496
  831MOL0     H 9667   7.528  10.330   3.959  0.6696 -1.0801 -0.8624
  831MOL0     H 9668   7.370  10.265   3.754 -2.0350  0.1130  1.6146
  831MOL0     H 9669   7.404  10.416   3.679  3.2533 -1.8592 -0.5380
  831MOL0     H 9670   7.301  10.358   3.964  2.0455 -3.1116 -1.0775
  831MOL0     H 9671   7.302  10.517   3.903 -0.2821 -1.4451  1.0233
  831MOL0     H 9672   7.135  10.291   3.775 -0.6383 -1.4031  2.4994
  831MOL0     H 9673   7.171  10.453   3.711 -1.9785  1.1711  0.7284
  831MOL0     H 9674   8.279  10.358   3.836 -1.6897 -0.9860  1.8076
  831MOL0     H 9675   8.522  10.321   3.904  3.1823 -1.5075 -2.2479
  831MOL0     H 9676   8.842  10.167   4.132  0.7658 -3.6637  2.7206
  831MOL0     H 9677   9.092  10.194   4.179  2.9999 -2.3400  0.0318
  831MOL0     H 9678  10.912   9.043   3.645  2.3242 -0.7540 -1.0160
  831MOL0     H 9679  11.142   8.935   3.676  1.4603 -1.0231  0.9906
  831MOL0     H 9680  11.507   8.949   3.770 -0.8940  0.1829  0.4709
  831MOL0     H 9681  11.726   8.882   3.754 -1.6743  1.4471  0.0094
  831MOL0     H 9682  11.861   8.533   4.031 -0.3107  0.7802  3.0667
  831MOL0     H 9683  11.918   8.683   4.103 -0.2229 -0.5087 -0.2107
  831MOL0     H 9684  12.079   8.576   3.877  2.2069 -2.3383  0.8270
  831MOL0     H 9685  12.122   8.699   4.002 -2.0006  1.5811  0.1495
  831MOL0     H 9686  12.053   8.397   4.024 -0.6653  0.6639 -2.2101
  831MOL0     H 9687  12.095   8.501   4.167  0.7235 -1.2890  0.4503
  831MOL0     H 9688  12.264   8.335   4.001  3.8078 -0.0468 -1.2167
  831MOL0     H 9689  12.292   8.492   3.939  0.9488 -1.4027 -0.5025
  831MOL0     H 9690  12.504   8.518   4.303 -0.4643  1.7913 -0.4951
  831MOL0     H 9691  11.655   8.571   4.055 -1.1589  0.7141  0.6164
  831MOL0     H 9692  11.416   8.642   4.055  0.3353  1.3373  0.9940
  832MOL0     O 9693   0.034  10.211   1.371  0.0664 -0.0670 -0.2646
  832MOL0     C 9694   0.060  10.106   1.432 -0.2535  0.0915  0.8424
  832MOL0     O 9695  -0.031  10.005   1.470 -0.1587 -0.3590  0.6748
  832MOL0     C 9696  -0.163  10.005   1.430  0.0865  0.5484 -0.0332
  832MOL0     C 9697  -0.225  10.101   1.356  0.0578 -0.9962 -0.3390
  832MOL0     C 9698  -0.369  10.091   1.351 -0.2140  0.1789  0.7393
  832MOL0     C 9699  -0.439   9.984   1.405 -1.4146 -0.3180  1.9184
  832MOL0     O 9700  -0.581   9.969   1.404  0.3026  0.1657 -0.1615
  832MOL0     C 9701  -0.647  10.000   1.281 -0.5149 -0.0876  0.4737
  832MOL0     C 9702  -0.785  10.051   1.298  0.4301 -0.1421  0.8684
  832MOL0     C 9703  -0.873  10.051   1.171 -0.5732  0.5566 -0.0291
  832MOL0     C 9704  -0.998  10.110   1.206 -0.2258 -0.1037 -0.5813
  832MOL0     C 9705  -1.096  10.073   1.098 -1.1443 -0.6148  0.7208
  832MOL0     C 9706  -1.233  10.117   1.113  0.5580  0.0350  0.8068
  832MOL0     C 9707  -1.308  10.033   1.226 -0.8072  0.0193 -0.1960
  832MOL0     C 9708  -1.331   9.886   1.201 -0.2898  1.3546 -0.4103
  832MOL0     N 9709  -1.206   9.802   1.229 -0.2160  0.4347 -0.4581
  832MOL0     C 9710  -1.126   9.726   1.142 -1.1434 -0.0642 -0.8202
  832MOL0     C 9711  -1.022   9.672   1.218 -0.5516  0.1010  0.3612
  832MOL0     C 9712  -0.915   9.572   1.189  0.4469  0.0347  0.3023
  832MOL0     C 9713  -0.968   9.431   1.176  0.3045  0.3979 -0.0702
  832MOL0     C 9714  -0.838   9.344   1.208  0.2559  0.8112  0.3913
  832MOL0     C 9715  -0.849   9.197   1.169 -0.8812 -0.2142 -0.8138
  832MOL0     O 9716  -0.891   9.186   1.035  0.8692 -0.5888  0.3808
  832MOL0     C 9717  -0.989   9.088   1.002 -0.1947  0.4173  0.3085
  832MOL0     C 9718  -1.003   9.069   0.866  0.2042 -0.2103 -0.3092
  832MOL0     C 9719  -1.087   8.976   0.804 -0.2626 -0.1017 -0.8342
  832MOL0     C 9720  -1.167   8.904   0.891 -0.1682  0.5359  0.1225
  832MOL0     C 9721  -1.265   8.814   0.829 -0.4006 -0.8280 -0.2387
  832MOL0     O 9722  -1.361   8.760   0.907 -0.1841 -0.0544  0.5358
  832MOL0     C 9723  -1.485   8.707   0.869 -0.5293 -0.0941  0.7580
  832MOL0     C 9724  -1.505   8.646   0.741 -0.0868 -0.1661 -0.1722
  832MOL0     C 9725  -1.634   8.601   0.709 -0.2122  0.8278 -0.2030
  832MOL0     C 9726  -1.741   8.614   0.785 -0.5073  0.2802 -0.6589
  832MOL0     O 9727  -1.867   8.592   0.749 -0.6859 -0.4106  1.2758
  832MOL0     C 9728  -1.893   8.491   0.648 -0.3761  0.7581  0.1018
  832MOL0     C 9729  -2.042   8.472   0.643  0.7867 -0.0241 -0.3690
  832MOL0     C 9730  -2.075   8.347   0.561  0.5306 -0.5564  0.2808
  832MOL0     C 9731  -2.221   8.330   0.532  0.4683 -0.7928 -0.6519
  832MOL0     C 9732  -2.297   8.318   0.663 -0.5401  0.6490  0.3934
  832MOL0     C 9733  -2.432   8.251   0.638 -0.3376  0.7505  0.9075
  832MOL0     C 9734  -2.522   8.305   0.520  0.4774 -0.1166 -0.8259
  832MOL0     C 9735  -2.658   8.235   0.520  0.6267  0.0539  0.0346
  832MOL0    Cl 9736  -2.644   8.060   0.508 -0.2851  0.7261  0.3517
  832MOL0     C 9737  -1.723   8.676   0.914 -0.0901  0.6443 -0.3134
  832MOL0     C 9738  -1.594   8.722   0.958  0.6732  0.6779  0.8216
  832MOL0     O 9739  -1.257   8.802   0.713  0.4802 -0.5728  0.6912
  832MOL0     C 9740  -1.168   8.932   1.031 -0.1923  0.1142 -0.2321
  832MOL0     C 9741  -1.083   9.026   1.083  1.0510 -0.3069 -0.6002
  832MOL0     N 9742  -1.028   9.723   1.344  0.1249  0.0251  0.4510
  832MOL0     N 9743  -1.140   9.797   1.345 -0.3764 -0.1195  0.9204
  832MOL0     C 9744  -0.366   9.885   1.463 -0.8324 -0.3816 -0.0779
  832MOL0     C 9745  -0.228   9.897   1.480 -0.0692  1.0287 -0.3592
  832MOL0     C 9746   0.200  10.094   1.483  0.4361  0.1291  0.2623
  832MOL0     C 9747   0.299  10.185   1.436 -0.0584  0.2229  0.1112
  832MOL0     C 9748   0.431  10.162   1.473 -0.5586 -0.8343  0.2576
  832MOL0     C 9749   0.468  10.050   1.543  0.6356 -0.3921 -0.3677
  832MOL0     O 9750   0.596  10.027   1.584  0.3212 -0.3508 -0.4731
  832MOL0     C 9751   0.696  10.069   1.488 -0.5554 -0.2653  0.8310
  832MOL0     C 9752   0.823  10.011   1.555  0.0580  0.1440 -0.2996
  832MOL0     C 9753   0.943  10.100   1.515 -0.0655  0.4171 -0.2352
  832MOL0     C 9754   1.071  10.019   1.531  0.0554 -0.6720  0.2692
  832MOL0     C 9755   1.193  10.095   1.488  0.6455  0.1407  0.9760
  832MOL0     C 9756   1.284  10.168   1.462  0.0596 -0.7484  0.2445
  832MOL0     C 9757   0.368   9.966   1.587 -0.2616 -0.0743 -0.2601
  832MOL0     C 9758   0.232   9.992   1.568  1.0791 -0.3387  0.3777
  832MOL0     H 9759  -0.187  10.193   1.313  1.0401 -0.6198  1.2423
  832MOL0     H 9760  -0.417  10.174   1.299  0.0459  0.4786  0.9739
  832MOL0     H 9761  -0.646   9.914   1.214 -3.1326  0.6555 -0.6445
  832MOL0     H 9762  -0.595  10.082   1.231 -1.2436 -1.9082 -3.6561
  832MOL0     H 9763  -0.767  10.157   1.319 -0.8380  0.0231  1.1979
  832MOL0     H 9764  -0.842  10.005   1.379  2.8224 -0.4432  2.4881
  832MOL0     H 9765  -0.879   9.946   1.141  1.6210  0.8158 -1.6002
  832MOL0     H 9766  -0.829  10.101   1.084 -3.0398 -0.3071 -1.8767
  832MOL0     H 9767  -1.029  10.064   1.301  2.4657 -2.0200 -0.5041
  832MOL0     H 9768  -0.975  10.214   1.227 -2.8140  0.2619  0.8573
  832MOL0     H 9769  -1.079   9.970   1.065  2.2784 -0.9579  2.9429
  832MOL0     H 9770  -1.065  10.119   1.004  0.4679  1.2016  2.0523
  832MOL0     H 9771  -1.280  10.101   1.016  0.7842 -0.4537  0.7721
  832MOL0     H 9772  -1.224  10.223   1.136 -1.3717  1.1949 -3.0613
  832MOL0     H 9773  -1.255  10.053   1.320 -0.1124  1.7524 -0.9129
  832MOL0     H 9774  -1.407  10.071   1.254 -1.0053 -2.0790  2.3627
  832MOL0     H 9775  -1.343   9.871   1.094  1.0278 -0.4403 -0.3611
  832MOL0     H 9776  -1.416   9.855   1.263 -0.7771  0.2458 -1.5907
  832MOL0     H 9777  -1.135   9.680   1.044  1.2674 -1.2287 -0.5574
  832MOL0     H 9778  -0.837   9.573   1.265  0.5733 -3.4205  0.3683
  832MOL0     H 9779  -0.870   9.605   1.095  3.3983 -1.0324  1.2190
  832MOL0     H 9780  -0.992   9.410   1.071  4.5728 -0.2052 -1.1453
  832MOL0     H 9781  -1.050   9.413   1.245  0.5594  1.1898  0.4507
  832MOL0     H 9782  -0.749   9.378   1.154  1.9067 -3.5259  0.0270
  832MOL0     H 9783  -0.817   9.347   1.315 -1.8853  0.2323  0.8623
  832MOL0     H 9784  -0.921   9.144   1.232 -0.1094 -0.0601  0.2364
  832MOL0     H 9785  -0.751   9.148   1.175  0.1647  1.3056 -3.5413
  832MOL0     H 9786  -0.944   9.133   0.801 -0.0579 -0.6844 -1.0284
  832MOL0     H 9787  -1.085   8.971   0.696 -1.7831  1.5213 -0.9826
  832MOL0     H 9788  -1.423   8.634   0.672 -0.6383  0.8935 -1.0428
  832MOL0     H 9789  -1.641   8.560   0.608  0.6277 -0.7176  0.3251
  832MOL0     H 9790  -1.835   8.401   0.672 -1.5001  0.5932  2.5802
  832MOL0     H 9791  -1.868   8.521   0.547 -3.1018  0.7677 -0.6543
  832MOL0     H 9792  -2.097   8.561   0.612  0.9352  0.7362  1.4486
  832MOL0     H 9793  -2.071   8.444   0.745  4.8787 -2.0790  0.4433
  832MOL0     H 9794  -2.025   8.261   0.606 -0.3515 -0.0616  2.3400
  832MOL0     H 9795  -2.035   8.364   0.461 -0.0857  1.1480  0.3011
  832MOL0     H 9796  -2.258   8.423   0.488  1.1017 -0.2977 -0.1385
  832MOL0     H 9797  -2.235   8.247   0.462  2.0111  0.3329 -2.3840
  832MOL0     H 9798  -2.304   8.412   0.719 -2.1261  1.1657 -0.6128
  832MOL0     H 9799  -2.247   8.247   0.729 -1.4971  1.4065  1.9850
  832MOL0     H 9800  -2.483   8.246   0.735 -0.7007 -0.6491  0.6773
  832MOL0     H 9801  -2.409   8.145   0.623  3.1047  1.1471  2.3692
  832MOL0     H 9802  -2.531   8.412   0.537 -1.9803 -0.5243  0.9772
  832MOL0     H 9803  -2.467   8.292   0.426  0.2733 -0.4276 -0.9043
  832MOL0     H 9804  -2.727   8.268   0.442  0.2300  5.4846  2.2645
  832MOL0     H 9805  -2.694   8.278   0.614 -2.6026  0.2090 -1.1474
  832MOL0     H 9806  -1.796   8.688   0.992 -1.8381  6.2302 -2.3621
  832MOL0     H 9807  -1.578   8.762   1.058  0.4225  1.4970  0.5455
  832MOL0     H 9808  -1.232   8.876   1.098  0.2989 -2.6729 -1.9317
  832MOL0     H 9809  -1.088   9.027   1.192 -1.1009 -0.4027 -0.6598
  832MOL0     H 9810  -0.420   9.796   1.495  0.6264 -0.9033  1.0757
  832MOL0     H 9811  -0.170   9.826   1.538 -0.0049  1.9814  0.7911
  832MOL0     H 9812   0.268  10.275   1.385  0.6643  0.5719  0.2655
  832MOL0     H 9813   0.488  10.251   1.448 -2.0407  0.3098  0.7947
  832MOL0     H 9814   0.717  10.176   1.489  5.6160 -0.9349 -3.2288
  832MOL0     H 9815   0.689  10.035   1.384 -0.6156  1.1757  0.3546
  832MOL0     H 9816   0.803  10.019   1.663 -2.3526  0.1390 -0.7011
  832MOL0     H 9817   0.831   9.905   1.531 -2.6913  0.0291 -0.9816
  832MOL0     H 9818   0.943  10.194   1.571 -0.6773  0.7280 -0.7501
  832MOL0     H 9819   0.937  10.113   1.407  0.5780  0.9196 -0.2168
  832MOL0     H 9820   1.079  10.004   1.639 -1.7712  2.3667  0.9182
  832MOL0     H 9821   1.065   9.926   1.473 -2.5597 -0.2973 -0.1652
  832MOL0     H 9822   1.363  10.241   1.453 -2.1774  2.0338  1.4677
  832MOL0     H 9823   0.402   9.875   1.637 -1.8797 -0.5338  0.0628
  832MOL0     H 9824   0.152   9.925   1.599 -0.6109  1.8888  1.0797
  833MOL0     O 9825   6.083   2.275   0.303 -0.1823 -0.0095  0.4556
  833MOL0     C 9826   6.210   2.271   0.297  0.7306  0.0039 -0.1258
  833MOL0     O 9827   6.285   2.337   0.207 -0.0879 -0.1152 -0.0209
  833MOL0     C 9828   6.213   2.403   0.112  0.0399  0.4328  0.6489
  833MOL0     C 9829   6.159   2.341   0.002  0.3343  0.3760 -0.5810
  833MOL0     C 9830   6.068   2.393  -0.092  0.2002 -0.0334  0.4070
  833MOL0     C 9831   6.049   2.536  -0.081  1.0112  0.0974  0.7129
  833MOL0     O 9832   5.954   2.574  -0.171 -0.1865 -0.0738 -0.0108
  833MOL0     C 9833   5.961   2.710  -0.203  0.1730 -0.5026  0.3586
  833MOL0     C 9834   5.848   2.748  -0.303  0.0834 -0.4952  1.0166
  833MOL0     C 9835   5.709   2.730  -0.256  0.3387  0.2123 -0.2953
  833MOL0     C 9836   5.661   2.841  -0.158 -0.0584 -0.6289 -0.3951
  833MOL0     C 9837   5.526   2.800  -0.106 -0.4489 -0.4127  0.4995
  833MOL0     C 9838   5.408   2.843  -0.191 -0.6688  0.3923  0.4334
  833MOL0     C 9839   5.367   2.986  -0.148 -0.4224 -0.2224 -0.4914
  833MOL0     C 9840   5.264   3.042  -0.236  0.4847  0.9085  0.0360
  833MOL0     N 9841   5.134   3.014  -0.183  0.1438 -0.1906  0.6593
  833MOL0     C 9842   5.056   3.112  -0.121 -0.4236  0.6212 -0.2895
  833MOL0     C 9843   4.927   3.063  -0.116  0.3860  0.7876  0.2687
  833MOL0     C 9844   4.793   3.120  -0.051  0.3820  0.5197  0.0753
  833MOL0     C 9845   4.801   3.265   0.010 -0.7861  1.1327  0.3197
  833MOL0     C 9846   4.674   3.316   0.080  0.0773  0.4551 -1.0487
  833MOL0     C 9847   4.596   3.396  -0.030  0.0426  0.4200 -0.8495
  833MOL0     O 9848   4.544   3.342  -0.146  0.4175  0.6186  0.1410
  833MOL0     C 9849   4.412   3.304  -0.144  0.3785 -0.8777 -0.6675
  833MOL0     C 9850   4.362   3.204  -0.058  0.3891  0.1714  0.8715
  833MOL0     C 9851   4.220   3.172  -0.059  0.2756 -0.1851  0.0629
  833MOL0     C 9852   4.136   3.244  -0.146  0.0114 -0.7421  0.2830
  833MOL0     C 9853   3.989   3.214  -0.135 -1.0559  0.1547 -0.2257
  833MOL0     O 9854   3.952   3.185  -0.006 -0.6164  0.0665 -0.0790
  833MOL0     C 9855   3.816   3.156   0.013  0.0532  0.0169  0.6900
  833MOL0     C 9856   3.767   3.033   0.032 -1.0296  0.1513  0.0906
  833MOL0     C 9857   3.638   3.008   0.058  1.0707  0.0114 -0.0008
  833MOL0     C 9858   3.539   3.106   0.059  0.1093  0.2186 -0.0182
  833MOL0     O 9859   3.403   3.068   0.065 -0.6029 -0.3022 -0.5596
  833MOL0     C 9860   3.301   3.161   0.088 -0.7932  0.4954  0.5828
  833MOL0     C 9861   3.161   3.091   0.116 -0.6759 -0.3868 -0.1181
  833MOL0     C 9862   3.041   3.180   0.067 -0.3241  0.5772  0.0614
  833MOL0     C 9863   2.984   3.255   0.183  0.0536  0.5274 -1.0012
  833MOL0     C 9864   2.874   3.354   0.143  0.2242  0.3904 -0.3040
  833MOL0     C 9865   2.917   3.473   0.054  0.5664  0.6754  0.5812
  833MOL0     C 9866   2.803   3.569   0.026 -0.0227  0.1144  0.4350
  833MOL0     C 9867   2.724   3.540  -0.101  0.1810 -1.0321 -0.6976
  833MOL0    Cl 9868   2.633   3.685  -0.163 -0.4898  0.0927  0.2305
  833MOL0     C 9869   3.581   3.234   0.040  1.8049 -0.1641 -0.9412
  833MOL0     C 9870   3.719   3.257   0.014  0.1993  0.0856 -0.4481
  833MOL0     O 9871   3.915   3.216  -0.231  0.4839  0.5355 -0.5101
  833MOL0     C 9872   4.191   3.333  -0.242  0.3952 -1.1558 -0.2086
  833MOL0     C 9873   4.329   3.366  -0.235  0.0953  0.6816  0.0719
  833MOL0     N 9874   4.934   2.933  -0.174  0.1473  0.2346  0.8098
  833MOL0     N 9875   5.054   2.908  -0.221  0.4352 -0.3661  0.2993
  833MOL0     C 9876   6.105   2.604   0.024  0.3333  0.1206  0.0169
  833MOL0     C 9877   6.183   2.536   0.125  0.3509 -0.6457  0.5568
  833MOL0     C 9878   6.280   2.208   0.404  0.0087  0.0328 -0.6348
  833MOL0     C 9879   6.425   2.202   0.404  0.0502 -0.5831  0.1962
  833MOL0     C 9880   6.492   2.133   0.505 -0.6743 -0.2476 -1.3396
  833MOL0     C 9881   6.429   2.073   0.619  0.3256  0.1671  0.7043
  833MOL0     O 9882   6.513   2.030   0.721  0.4744 -0.4589 -0.9740
  833MOL0     C 9883   6.453   1.998   0.844 -0.5700  0.8143  0.2060
  833MOL0     C 9884   6.555   1.996   0.963  0.0406  0.6040 -1.4509
  833MOL0     C 9885   6.517   1.887   1.063 -0.0294  0.1118  0.8546
  833MOL0     C 9886   6.598   1.890   1.210 -0.6701  0.3572  1.4650
  833MOL0     C 9887   6.655   2.025   1.258 -0.4099  0.5849  0.8756
  833MOL0     C 9888   6.716   2.127   1.297 -0.8032 -0.3050 -0.5479
  833MOL0     C 9889   6.282   2.065   0.620 -0.3295  0.0949 -0.0686
  833MOL0     C 9890   6.213   2.127   0.509 -0.4116 -0.4225 -0.2832
  833MOL0     H 9891   6.166   2.233   0.013  0.5859  0.5890  2.2073
  833MOL0     H 9892   6.015   2.334  -0.166  0.1516  1.2510 -0.6101
  833MOL0     H 9893   6.052   2.736  -0.257 -0.9631  1.6669 -0.6184
  833MOL0     H 9894   5.951   2.774  -0.115 -0.4381 -0.8340  0.5393
  833MOL0     H 9895   5.860   2.678  -0.386 -1.5181  1.7919 -1.2763
  833MOL0     H 9896   5.858   2.849  -0.344 -3.4488  0.3287  1.8322
  833MOL0     H 9897   5.693   2.633  -0.209  1.8706 -1.1527 -2.4304
  833MOL0     H 9898   5.650   2.729  -0.347 -1.8344  0.4379  1.0469
  833MOL0     H 9899   5.744   2.853  -0.088 -0.7842 -0.0880  0.3833
  833MOL0     H 9900   5.648   2.942  -0.198  0.3596  0.9533  3.1157
  833MOL0     H 9901   5.515   2.828  -0.000 -0.9916 -0.7836  0.5441
  833MOL0     H 9902   5.530   2.691  -0.104 -1.7742 -0.5230 -0.9625
  833MOL0     H 9903   5.336   2.763  -0.172 -1.3554  0.2473 -2.3115
  833MOL0     H 9904   5.425   2.826  -0.298 -1.7184 -2.4690  0.6168
  833MOL0     H 9905   5.327   2.977  -0.046  0.0915  1.6498 -0.0809
  833MOL0     H 9906   5.451   3.053  -0.129 -2.3772  1.5276  3.1381
  833MOL0     H 9907   5.280   2.992  -0.332  0.0541  0.6511  0.0943
  833MOL0     H 9908   5.282   3.148  -0.256 -0.2823  1.0665  0.1510
  833MOL0     H 9909   5.084   3.210  -0.082 -3.3035  1.1971  0.5482
  833MOL0     H 9910   4.762   3.045   0.022 -0.1108 -0.7942 -1.4305
  833MOL0     H 9911   4.714   3.118  -0.127 -1.1251  1.4927  1.5262
  833MOL0     H 9912   4.838   3.329  -0.070  0.3581 -0.1644 -0.2232
  833MOL0     H 9913   4.868   3.248   0.095  0.3980  0.5358 -0.6986
  833MOL0     H 9914   4.614   3.248   0.140 -0.8986  1.6409 -0.6380
  833MOL0     H 9915   4.715   3.389   0.150  1.5261 -3.7033  2.9567
  833MOL0     H 9916   4.657   3.479  -0.065 -0.8453  1.8720  0.8738
  833MOL0     H 9917   4.511   3.452   0.012  0.3430  0.0150  0.3406
  833MOL0     H 9918   4.432   3.150   0.004  1.7065 -0.6499 -1.2172
  833MOL0     H 9919   4.181   3.101   0.014 -1.8519  0.5313 -0.2994
  833MOL0     H 9920   3.835   2.950   0.014  0.9601  2.1428 -2.5320
  833MOL0     H 9921   3.598   2.907   0.069  2.0660 -0.8618 -3.2095
  833MOL0     H 9922   3.294   3.213  -0.008  2.7863 -1.1271 -0.7467
  833MOL0     H 9923   3.326   3.237   0.162 -1.4081  0.7965  0.4830
  833MOL0     H 9924   3.152   3.063   0.221 -0.4131 -2.0715 -0.5063
  833MOL0     H 9925   3.163   3.000   0.055  1.2331  0.8820 -2.1149
  833MOL0     H 9926   2.965   3.112   0.026  0.6298 -0.2557 -0.3689
  833MOL0     H 9927   3.062   3.251  -0.014  1.1900  1.8884  1.5412
  833MOL0     H 9928   2.956   3.184   0.261  1.0860 -0.3372 -1.3901
  833MOL0     H 9929   3.064   3.317   0.224  3.0011 -3.0903 -0.7562
  833MOL0     H 9930   2.825   3.378   0.237  2.6956 -0.4486  1.3022
  833MOL0     H 9931   2.803   3.292   0.088  0.8097 -2.0299  1.4787
  833MOL0     H 9932   2.967   3.440  -0.038  1.0745  0.5212  0.9097
  833MOL0     H 9933   2.987   3.535   0.110  4.3830  1.1368 -4.0529
  833MOL0     H 9934   2.731   3.583   0.106  0.7752 -0.1377  1.2121
  833MOL0     H 9935   2.850   3.667   0.007 -1.0249  0.3036 -1.3355
  833MOL0     H 9936   2.656   3.454  -0.089 -3.0193  1.4837  0.9599
  833MOL0     H 9937   2.794   3.515  -0.181  0.4602  1.3340 -1.2456
  833MOL0     H 9938   3.510   3.315   0.029  2.2279  0.1295 -1.6166
  833MOL0     H 9939   3.742   3.363   0.003  0.0475  0.0365 -1.3268
  833MOL0     H 9940   4.124   3.389  -0.306  0.0021  2.3547  2.9289
  833MOL0     H 9941   4.365   3.445  -0.300  1.8434  0.2800  0.5072
  833MOL0     H 9942   6.084   2.702   0.064  1.3581 -0.2287  1.4604
  833MOL0     H 9943   6.243   2.589   0.199 -2.0963  0.6297  1.7718
  833MOL0     H 9944   6.483   2.257   0.330 -1.8424 -0.2195 -1.0868
  833MOL0     H 9945   6.600   2.140   0.516 -0.9183  0.2558  1.5191
  833MOL0     H 9946   6.404   1.901   0.837  1.3308 -0.2301  0.9126
  833MOL0     H 9947   6.378   2.076   0.863 -0.4923  0.9423 -0.0108
  833MOL0     H 9948   6.658   1.996   0.927  0.0207  0.8384 -1.5130
  833MOL0     H 9949   6.544   2.098   1.002 -3.2265  0.2931 -1.2846
  833MOL0     H 9950   6.541   1.795   1.009  0.8477  1.3759 -0.9930
  833MOL0     H 9951   6.409   1.883   1.077 -0.1356  0.0300  0.0338
  833MOL0     H 9952   6.524   1.849   1.279 -0.0462 -2.3621  0.6473
  833MOL0     H 9953   6.683   1.821   1.206 -1.6220 -0.7963  0.1895
  833MOL0     H 9954   6.784   2.208   1.316 -1.4832  0.3404 -0.8610
  833MOL0     H 9955   6.220   2.010   0.690  0.7737  0.3019  1.1292
  833MOL0     H 9956   6.105   2.111   0.509 -0.7545  1.1076  2.7950
  834MOL0     O 9957   2.324   0.433   3.826 -0.0573  0.4519  0.1407
  834MOL0     C 9958   2.284   0.364   3.920  0.2691 -0.0232 -0.0510
  834MOL0     O 9959   2.154   0.333   3.942 -0.1388 -0.6304  0.1580
  834MOL0     C 9960   2.058   0.392   3.851  0.4152 -0.3712 -0.1662
  834MOL0     C 9961   2.045   0.527   3.823  0.6854  0.7390  0.1698
  834MOL0     C 9962   1.937   0.582   3.748 -0.5452 -0.0433  0.4245
  834MOL0     C 9963   1.852   0.499   3.682 -0.7312 -0.1754  0.2820
  834MOL0     O 9964   1.754   0.553   3.601  0.2144  0.3078  0.1644
  834MOL0     C 9965   1.637   0.617   3.657 -0.7253  0.0218 -0.0066
  834MOL0     C 9966   1.518   0.608   3.556 -0.4115 -0.6879 -0.1057
  834MOL0     C 9967   1.463   0.470   3.571 -0.0354 -0.2972  0.2055
  834MOL0     C 9968   1.333   0.437   3.510  0.6767 -0.4051  0.0492
  834MOL0     C 9969   1.337   0.437   3.358 -0.1898 -0.5653 -0.4128
  834MOL0     C 9970   1.198   0.408   3.308  0.3340 -0.2198  0.7181
  834MOL0     C 9971   1.192   0.402   3.158  0.1806 -0.1192  1.0814
  834MOL0     C 9972   1.043   0.369   3.128  0.7152 -0.7496  0.4776
  834MOL0     N 9973   1.012   0.345   2.983 -0.4979  0.2997  0.4526
  834MOL0     C 9974   1.016   0.225   2.910 -0.2707  0.4799  0.6216
  834MOL0     C 9975   0.965   0.260   2.786  1.4968 -0.5176  0.5506
  834MOL0     C 9976   0.982   0.172   2.665  0.0196  0.4723  0.7939
  834MOL0     C 9977   0.858   0.137   2.585 -0.1522 -0.3902  0.0533
  834MOL0     C 9978   0.773   0.039   2.664  0.3809  0.6001 -0.0733
  834MOL0     C 9979   0.661  -0.018   2.579  0.4657 -0.2108 -0.2369
  834MOL0     O 9980   0.557  -0.068   2.670  0.3258  0.3010 -0.2016
  834MOL0     C 9981   0.439  -0.101   2.606 -0.3652 -1.2123  0.1972
  834MOL0     C 9982   0.364  -0.002   2.549  0.0289 -0.6145  0.1931
  834MOL0     C 9983   0.242  -0.032   2.482  0.0999 -0.2460  1.1372
  834MOL0     C 9984   0.207  -0.163   2.456  0.0931  0.8966  0.0637
  834MOL0     C 9985   0.098  -0.200   2.363 -0.1639  0.4679 -0.0590
  834MOL0     O 9986   0.097  -0.339   2.320 -0.6021 -0.4616 -0.0939
  834MOL0     C 9987   0.009  -0.370   2.220 -1.0578 -0.4910 -0.2509
  834MOL0     C 9988  -0.107  -0.433   2.255 -0.0931 -0.1362  0.8962
  834MOL0     C 9989  -0.202  -0.472   2.161  1.2766 -0.7800  0.5338
  834MOL0     C 9990  -0.184  -0.443   2.026  1.1520 -0.4153  0.0962
  834MOL0     O 9991  -0.282  -0.487   1.933 -0.5498 -0.1582  0.0609
  834MOL0     C 9992  -0.308  -0.428   1.807  0.4762  0.3818 -0.4212
  834MOL0     C 9993  -0.383  -0.284   1.808 -0.0170 -0.2234 -0.8357
  834MOL0     C 9994  -0.514  -0.282   1.893 -0.3386 -0.3006 -0.1082
  834MOL0     C 9995  -0.620  -0.377   1.828 -0.7259 -0.7829  0.3398
  834MOL0     C 9996  -0.758  -0.332   1.869  0.1691 -0.5934 -0.2077
  834MOL0     C 9997  -0.855  -0.430   1.809 -0.2201 -0.3036  0.3133
  834MOL0     C 9998  -0.886  -0.399   1.663  0.3844  0.0786 -0.3067
  834MOL0     C 9999  -0.993  -0.495   1.615  0.8239 -0.2633 -0.1619
  834MOL0    Cl10000  -1.046  -0.412   1.465 -0.1517 -0.0679  0.4006
  834MOL0     C10001  -0.074  -0.368   1.985 -0.5746 -0.6829  0.5740
  834MOL0     C10002   0.023  -0.333   2.082 -0.0839  0.0741 -0.2019
  834MOL0     O10003   0.033  -0.111   2.314  0.5279 -0.3897  1.5371
  834MOL0     C10004   0.286  -0.266   2.505  0.3913 -0.4880  0.8804
  834MOL0     C10005   0.405  -0.232   2.577 -0.4204 -0.7964 -0.2677
  834MOL0     N10006   0.909   0.383   2.795 -0.4604 -0.7287 -0.2946
  834MOL0     N10007   0.942   0.436   2.904  0.0603 -0.8222  0.1748
  834MOL0     C10008   1.863   0.361   3.705 -0.1427 -0.1265 -1.3069
  834MOL0     C10009   1.960   0.305   3.799 -0.0192 -0.4051  0.0205
  834MOL0     C10010   2.378   0.330   4.028 -0.3787 -0.2714  0.0066
  834MOL0     C10011   2.341   0.229   4.125 -0.5536 -0.8979 -0.5895
  834MOL0     C10012   2.438   0.186   4.227  0.1742 -0.1906  1.5198
  834MOL0     C10013   2.576   0.222   4.213  0.3296  0.3268  0.2179
  834MOL0     O10014   2.663   0.201   4.312 -0.7916  0.3734  0.2637
  834MOL0     C10015   2.620   0.154   4.444 -0.8756 -0.8819 -0.4461
  834MOL0     C10016   2.732   0.127   4.540 -0.9862  0.0404  1.4607
  834MOL0     C10017   2.818   0.252   4.578  0.1564  0.2311 -0.3824
  834MOL0     C10018   2.947   0.224   4.644  0.3137  0.5913 -0.4114
  834MOL0     C10019   3.012   0.332   4.714  0.7068 -0.5072  0.2174
  834MOL0     C10020   3.043   0.433   4.772  1.1017 -0.7444 -0.4644
  834MOL0     C10021   2.604   0.308   4.116 -0.4667  0.9554  1.1913
  834MOL0     C10022   2.512   0.364   4.028 -0.1852  0.4189  0.3882
  834MOL0     H10023   2.119   0.593   3.867  2.8733 -0.3973 -1.6025
  834MOL0     H10024   1.938   0.691   3.744  1.0885 -0.0407 -0.3204
  834MOL0     H10025   1.667   0.721   3.675  0.4337 -0.8633  4.2827
  834MOL0     H10026   1.609   0.570   3.751  1.1319 -1.5774 -0.2034
  834MOL0     H10027   1.533   0.646   3.455  1.6922  0.2152  0.5060
  834MOL0     H10028   1.448   0.685   3.592  0.2619  0.6179 -1.4861
  834MOL0     H10029   1.458   0.444   3.677  0.0907 -1.1350  0.0103
  834MOL0     H10030   1.534   0.395   3.536  0.4745  0.8827 -1.3844
  834MOL0     H10031   1.299   0.340   3.546 -0.1605 -0.2838 -0.3990
  834MOL0     H10032   1.257   0.510   3.538  2.0427  1.5127 -1.0123
  834MOL0     H10033   1.406   0.361   3.320  1.2609  0.5055 -0.0155
  834MOL0     H10034   1.373   0.535   3.325  0.6473  0.2264  2.5800
  834MOL0     H10035   1.134   0.491   3.340 -0.1824 -1.8962  4.6380
  834MOL0     H10036   1.158   0.318   3.356  1.7921 -1.3931 -0.1777
  834MOL0     H10037   1.221   0.496   3.109  1.4505 -0.8037  0.4768
  834MOL0     H10038   1.259   0.325   3.119 -0.9011 -0.2404 -0.6533
  834MOL0     H10039   0.984   0.450   3.171  1.3368  0.8568 -1.5434
  834MOL0     H10040   1.012   0.276   3.176 -0.7105 -0.0796  0.8946
  834MOL0     H10041   1.065   0.133   2.940 -0.0084  0.6444  0.6982
  834MOL0     H10042   1.029   0.077   2.694 -1.4066 -2.4279 -4.8920
  834MOL0     H10043   1.059   0.216   2.601  1.6706 -0.9527  1.6708
  834MOL0     H10044   0.889   0.100   2.487 -0.6565 -0.3149 -0.1393
  834MOL0     H10045   0.804   0.231   2.568 -1.5693 -0.7921  1.8773
  834MOL0     H10046   0.832  -0.043   2.707 -0.9870 -2.4389 -3.4612
  834MOL0     H10047   0.743   0.088   2.757  3.8921  1.6681  0.6289
  834MOL0     H10048   0.699  -0.095   2.511  0.9331 -0.0148 -0.2005
  834MOL0     H10049   0.609   0.066   2.532 -1.6570 -1.4667 -0.2641
  834MOL0     H10050   0.394   0.099   2.575 -4.7799  0.6618  1.9319
  834MOL0     H10051   0.177   0.051   2.455 -0.0583 -0.5709  0.5205
  834MOL0     H10052  -0.105  -0.448   2.363  1.5034  0.3049  0.9509
  834MOL0     H10053  -0.291  -0.527   2.191 -0.4360  0.4318 -1.9254
  834MOL0     H10054  -0.364  -0.504   1.750 -2.5776 -0.4504  3.2921
  834MOL0     H10055  -0.212  -0.420   1.755  2.2599 -3.9964  1.6943
  834MOL0     H10056  -0.403  -0.255   1.704 -1.5755  0.2113 -0.4484
  834MOL0     H10057  -0.309  -0.218   1.853  1.5186 -1.0806 -2.0435
  834MOL0     H10058  -0.545  -0.177   1.894 -0.1718 -0.2585  1.1946
  834MOL0     H10059  -0.482  -0.310   1.993 -1.1482  3.1795  1.2785
  834MOL0     H10060  -0.605  -0.375   1.720  0.1147  0.1671  0.4578
  834MOL0     H10061  -0.595  -0.480   1.855 -1.0072 -0.8610  0.3079
  834MOL0     H10062  -0.786  -0.233   1.833 -1.6504 -0.7068  0.7889
  834MOL0     H10063  -0.763  -0.338   1.978 -0.9306 -2.4269 -0.3155
  834MOL0     H10064  -0.949  -0.427   1.865  0.0404 -0.9622  0.7936
  834MOL0     H10065  -0.825  -0.535   1.815  1.2724  0.1567  1.1920
  834MOL0     H10066  -0.937  -0.302   1.659 -0.7467 -0.5195 -1.0347
  834MOL0     H10067  -0.806  -0.410   1.589  0.7116 -2.9401  0.3814
  834MOL0     H10068  -1.073  -0.512   1.687  2.1756 -2.4173  0.9455
  834MOL0     H10069  -0.950  -0.595   1.597  0.6208 -0.2233 -0.8683
  834MOL0     H10070  -0.041  -0.343   1.885  0.4443 -4.2423 -0.1205
  834MOL0     H10071   0.109  -0.272   2.058 -1.0407  0.7869 -2.0126
  834MOL0     H10072   0.259  -0.371   2.502 -0.8296 -0.3247  3.4491
  834MOL0     H10073   0.480  -0.305   2.606  1.3816  0.2424 -2.0693
  834MOL0     H10074   1.780   0.306   3.664 -0.2445 -1.3056  0.3583
  834MOL0     H10075   1.976   0.197   3.802 -0.3144 -0.4992 -1.3861
  834MOL0     H10076   2.240   0.190   4.138 -0.9326  0.5804  1.4632
  834MOL0     H10077   2.403   0.104   4.289 -0.5560  0.7058  2.3304
  834MOL0     H10078   2.564   0.061   4.431 -0.2196 -1.3559  0.0689
  834MOL0     H10079   2.551   0.230   4.480 -2.9514 -2.3976 -1.0353
  834MOL0     H10080   2.689   0.088   4.632 -0.0073  0.1609  1.9859
  834MOL0     H10081   2.799   0.052   4.497 -1.5527  0.0660  0.5057
  834MOL0     H10082   2.751   0.303   4.647 -0.1187 -2.4926  1.5492
  834MOL0     H10083   2.830   0.314   4.489 -1.1876  0.3514 -0.5023
  834MOL0     H10084   2.931   0.143   4.716 -1.4103 -0.1689 -1.5791
  834MOL0     H10085   3.010   0.176   4.569 -2.9817 -1.7920 -1.9019
  834MOL0     H10086   3.050   0.517   4.838  0.0119  0.5631 -1.9331
  834MOL0     H10087   2.702   0.355   4.114  1.1630 -2.0873 -2.3018
  834MOL0     H10088   2.534   0.445   3.959 -1.8247  2.0308  1.6879
  835MOL0     O10089   3.378   4.948   7.988 -0.3559  0.5219 -0.6395
  835MOL0     C10090   3.390   4.892   7.887  0.6314 -0.6845  0.3863
  835MOL0     O10091   3.508   4.836   7.839 -0.6344 -0.1530  0.3004
  835MOL0     C10092   3.592   4.754   7.914 -0.1880 -0.0234 -0.1209
  835MOL0     C10093   3.560   4.711   8.047  0.1118  0.8554  0.3900
  835MOL0     C10094   3.656   4.634   8.124  0.6897 -0.3447 -0.3529
  835MOL0     C10095   3.769   4.581   8.070  0.1829 -0.1523  0.3975
  835MOL0     O10096   3.842   4.480   8.127 -0.4857 -0.2252  0.2699
  835MOL0     C10097   3.858   4.496   8.271  0.1870  0.0786 -0.7319
  835MOL0     C10098   3.953   4.394   8.340  0.0381  0.2808  0.4490
  835MOL0     C10099   3.883   4.262   8.370  0.1072 -0.4277 -0.9700
  835MOL0     C10100   3.846   4.162   8.271 -0.1886  0.0583  0.8161
  835MOL0     C10101   3.785   4.040   8.327 -0.6863 -0.5316 -0.0774
  835MOL0     C10102   3.877   3.955   8.411 -0.3053 -0.6385  0.2515
  835MOL0     C10103   3.851   3.808   8.397 -1.1300  0.4265  0.5317
  835MOL0     C10104   3.928   3.721   8.492  0.3860 -0.0599  0.4545
  835MOL0     N10105   4.025   3.651   8.410  0.0162  0.2972  0.2359
  835MOL0     C10106   4.003   3.529   8.354  0.6045  0.6832  0.9378
  835MOL0     C10107   4.126   3.487   8.316 -0.4289 -0.4829 -0.1031
  835MOL0     C10108   4.178   3.351   8.260  0.1334 -0.0615 -0.3657
  835MOL0     C10109   4.291   3.289   8.343  0.6314 -0.1201 -0.6828
  835MOL0     C10110   4.242   3.202   8.466 -0.2124  0.2803 -0.3976
  835MOL0     C10111   4.196   3.047   8.444  0.4151 -0.0651  0.2484
  835MOL0     O10112   4.236   2.969   8.557  0.6967 -0.0864  0.4836
  835MOL0     C10113   4.267   2.841   8.526 -0.3867 -0.3855 -0.4887
  835MOL0     C10114   4.395   2.812   8.507 -0.7147  1.0757  0.6166
  835MOL0     C10115   4.429   2.691   8.457 -0.3980  0.4488  0.2476
  835MOL0     C10116   4.337   2.590   8.419  0.2987 -0.6891  0.0624
  835MOL0     C10117   4.382   2.475   8.351  0.2053 -0.5575  1.2560
  835MOL0     O10118   4.515   2.457   8.326  0.6748 -0.4886  0.0998
  835MOL0     C10119   4.564   2.336   8.278  0.0496 -0.6104 -0.3547
  835MOL0     C10120   4.678   2.360   8.209 -0.1801 -0.0433  0.5661
  835MOL0     C10121   4.752   2.258   8.142  0.5354 -0.2492  0.0737
  835MOL0     C10122   4.695   2.130   8.149  0.1683 -0.2687  0.7872
  835MOL0     O10123   4.754   2.024   8.090  0.1322  0.2033 -0.7054
  835MOL0     C10124   4.902   2.008   8.125  0.3344  0.1105 -0.5002
  835MOL0     C10125   4.949   1.866   8.091 -0.3375  0.3968  0.4467
  835MOL0     C10126   5.093   1.842   8.040  0.5803  0.2356  0.0422
  835MOL0     C10127   5.148   1.720   8.118 -1.0325 -0.1797  0.6750
  835MOL0     C10128   5.278   1.675   8.044  0.8465  0.0406  0.2664
  835MOL0     C10129   5.335   1.540   8.107 -0.3979 -0.4236 -1.4009
  835MOL0     C10130   5.473   1.514   8.066 -0.3848  0.5997  0.2744
  835MOL0     C10131   5.501   1.451   7.928 -1.2339  0.2128  0.6208
  835MOL0    Cl10132   5.677   1.401   7.893 -0.4020 -0.2267 -0.0190
  835MOL0     C10133   4.577   2.103   8.222 -0.1960  0.5760 -0.6880
  835MOL0     C10134   4.514   2.202   8.294 -0.1106 -0.2615 -0.2187
  835MOL0     O10135   4.293   2.394   8.310 -0.3997 -0.3958 -0.4912
  835MOL0     C10136   4.204   2.622   8.442  0.5477  0.0971  0.7192
  835MOL0     C10137   4.174   2.745   8.491 -0.7662  1.0091 -0.1411
  835MOL0     N10138   4.215   3.579   8.355  0.2100  0.3914 -0.0310
  835MOL0     N10139   4.150   3.679   8.393 -0.9458 -1.0308  0.1371
  835MOL0     C10140   3.804   4.629   7.942  0.8176  0.4376  0.1238
  835MOL0     C10141   3.715   4.708   7.866 -0.0299  0.0396  0.2780
  835MOL0     C10142   3.274   4.890   7.795  0.7953  0.7796 -0.1249
  835MOL0     C10143   3.148   4.934   7.841 -0.7759 -0.0083 -0.4276
  835MOL0     C10144   3.044   4.935   7.746 -0.0417  0.5061  0.8554
  835MOL0     C10145   3.066   4.918   7.608 -0.7901 -0.2955 -0.7737
  835MOL0     O10146   2.974   4.907   7.517 -0.2447 -0.0877  0.0383
  835MOL0     C10147   2.831   4.960   7.533 -0.4774 -0.6137 -0.3893
  835MOL0     C10148   2.761   4.976   7.396  0.0700  0.6254  0.5174
  835MOL0     C10149   2.613   5.011   7.414 -0.2122 -0.2692  0.8363
  835MOL0     C10150   2.516   4.891   7.444 -0.3351  0.3516  0.2031
  835MOL0     C10151   2.373   4.907   7.411 -0.0953  0.3724  0.0106
  835MOL0     C10152   2.269   4.928   7.361  0.0035  0.0902 -0.4210
  835MOL0     C10153   3.194   4.873   7.564  0.3566 -0.4798 -0.6822
  835MOL0     C10154   3.292   4.857   7.659 -0.6803  0.0447 -0.6983
  835MOL0     H10155   3.484   4.759   8.108 -3.2043 -2.0262 -1.1323
  835MOL0     H10156   3.629   4.611   8.227  2.3510  4.1715  1.3469
  835MOL0     H10157   3.760   4.488   8.320  1.0262  1.5338  1.3376
  835MOL0     H10158   3.898   4.595   8.295 -1.9088  0.6929  0.5280
  835MOL0     H10159   3.976   4.442   8.436 -0.4128 -0.3986  0.9093
  835MOL0     H10160   4.037   4.376   8.272 -3.2743 -0.5954 -3.7850
  835MOL0     H10161   3.792   4.298   8.419  1.1157 -0.6883  1.2005
  835MOL0     H10162   3.931   4.214   8.455 -2.1381 -0.6389  0.2720
  835MOL0     H10163   3.768   4.201   8.205  0.9997 -3.5649 -3.2278
  835MOL0     H10164   3.931   4.135   8.208 -0.4934  0.9912 -0.0162
  835MOL0     H10165   3.747   3.974   8.249 -0.5577  1.2617 -1.7178
  835MOL0     H10166   3.700   4.078   8.385 -0.7862 -0.8839  0.0102
  835MOL0     H10167   3.871   3.995   8.513  2.2261 -1.0340  0.6335
  835MOL0     H10168   3.982   3.972   8.384 -1.1717  2.0058 -1.7718
  835MOL0     H10169   3.744   3.797   8.412 -1.2250  1.1571  0.4108
  835MOL0     H10170   3.865   3.786   8.291  1.0221  1.4008  0.5584
  835MOL0     H10171   3.859   3.655   8.546  0.9200  1.3458  3.0275
  835MOL0     H10172   3.985   3.767   8.573  0.9972 -2.8362  1.7286
  835MOL0     H10173   3.916   3.472   8.326  2.4456 -1.2403 -1.3237
  835MOL0     H10174   4.207   3.369   8.156 -2.0218  1.7160 -0.7209
  835MOL0     H10175   4.096   3.278   8.258 -0.4774  0.3559  2.9356
  835MOL0     H10176   4.356   3.373   8.365  0.1213  0.3172 -0.8236
  835MOL0     H10177   4.349   3.217   8.283  1.3913 -1.2323  1.3009
  835MOL0     H10178   4.336   3.201   8.522  1.2866 -1.5149 -2.7419
  835MOL0     H10179   4.164   3.261   8.516 -0.6483 -0.5941 -0.0250
  835MOL0     H10180   4.226   2.997   8.351  0.2706 -0.4868  0.4253
  835MOL0     H10181   4.087   3.039   8.439  0.1394  2.0341  1.5027
  835MOL0     H10182   4.475   2.883   8.526 -1.0393  1.7805 -0.5725
  835MOL0     H10183   4.535   2.673   8.444 -0.1520 -0.4144  2.8184
  835MOL0     H10184   4.718   2.460   8.192  1.1362 -1.0947 -3.7443
  835MOL0     H10185   4.840   2.278   8.082 -1.5414  1.9494 -2.4941
  835MOL0     H10186   4.921   2.041   8.227 -1.2142  2.0410 -0.7752
  835MOL0     H10187   4.956   2.075   8.058 -3.2377  1.3296 -2.4148
  835MOL0     H10188   4.888   1.826   8.009  1.6108  1.6029 -1.7120
  835MOL0     H10189   4.930   1.807   8.181  0.8355 -0.2116  0.3123
  835MOL0     H10190   5.165   1.924   8.034  1.9551 -0.6645  2.5195
  835MOL0     H10191   5.077   1.811   7.936  2.7874 -2.7969  0.4703
  835MOL0     H10192   5.164   1.752   8.222 -0.4136  0.0896  0.5071
  835MOL0     H10193   5.083   1.632   8.125 -1.8100  0.5111  3.0426
  835MOL0     H10194   5.338   1.765   8.057 -2.6836  2.4172  1.7804
  835MOL0     H10195   5.256   1.662   7.938  0.4748 -2.4593  0.5855
  835MOL0     H10196   5.280   1.451   8.075  0.3102 -1.4128  0.0323
  835MOL0     H10197   5.328   1.553   8.215 -2.7687 -1.1504 -1.4071
  835MOL0     H10198   5.519   1.613   8.066 -2.0725  1.4236  0.7967
  835MOL0     H10199   5.525   1.461   8.146 -0.5881  1.0823  0.7272
  835MOL0     H10200   5.486   1.531   7.854 -1.0606  0.7343  1.1449
  835MOL0     H10201   5.439   1.364   7.902 -0.5140  0.5830 -2.8955
  835MOL0     H10202   4.538   2.002   8.224  1.9969 -0.3378  1.0783
  835MOL0     H10203   4.422   2.180   8.347  0.1178 -0.4636  0.0960
  835MOL0     H10204   4.129   2.549   8.416  3.3086 -2.8613  0.4303
  835MOL0     H10205   4.072   2.761   8.524 -2.4214 -0.5142 -3.9890
  835MOL0     H10206   3.887   4.597   7.880  0.0092  1.7062 -1.7318
  835MOL0     H10207   3.742   4.748   7.769  1.9883  1.2330  1.2566
  835MOL0     H10208   3.131   4.964   7.944 -3.4100  2.3304 -1.4153
  835MOL0     H10209   2.941   4.962   7.767 -1.0280 -2.3709  0.1800
  835MOL0     H10210   2.830   5.057   7.583 -2.3443 -0.3203 -0.9070
  835MOL0     H10211   2.774   4.896   7.602  1.9600  0.3502  2.7702
  835MOL0     H10212   2.811   5.063   7.352 -1.5325  1.4015  0.1557
  835MOL0     H10213   2.760   4.886   7.334 -4.4228  0.5795  0.3605
  835MOL0     H10214   2.583   5.057   7.320 -2.1253 -4.5160 -0.9205
  835MOL0     H10215   2.595   5.092   7.485  2.6750  3.7293 -2.5608
  835MOL0     H10216   2.558   4.801   7.398 -0.6583 -0.6557  1.8058
  835MOL0     H10217   2.527   4.869   7.551 -0.3749  1.5243  0.4689
  835MOL0     H10218   2.173   4.960   7.327  0.7451  2.9104 -0.0832
  835MOL0     H10219   3.201   4.850   7.458 -1.8769  0.0659 -1.0025
  835MOL0     H10220   3.390   4.825   7.627  0.0142 -0.5162  1.7813
  836MOL0     O10221   7.984   2.449   2.326 -0.1791  0.7525 -0.1791
  836MOL0     C10222   8.080   2.526   2.323  0.3396 -0.0635  0.2084
  836MOL0     O10223   8.082   2.646   2.256  1.2002  0.2124 -1.2438
  836MOL0     C10224   7.989   2.668   2.166  0.2502 -0.7590  0.8533
  836MOL0     C10225   7.921   2.789   2.158  0.2136 -0.1159 -0.3766
  836MOL0     C10226   7.822   2.809   2.052 -0.5059 -0.0930 -0.5173
  836MOL0     C10227   7.785   2.709   1.963  0.1829 -0.2524 -0.0625
  836MOL0     O10228   7.685   2.728   1.868 -0.7690  0.0544  0.2374
  836MOL0     C10229   7.623   2.854   1.853 -0.9128 -0.7686 -0.2130
  836MOL0     C10230   7.531   2.868   1.732 -0.1815 -0.2721 -0.5380
  836MOL0     C10231   7.596   2.795   1.597  0.0072 -1.0963 -0.5323
  836MOL0     C10232   7.516   2.819   1.468 -0.5413  0.4538  0.2262
  836MOL0     C10233   7.479   2.963   1.439  0.3622 -0.3103 -0.2994
  836MOL0     C10234   7.393   2.971   1.298  0.3327 -0.4106  0.2150
  836MOL0     C10235   7.475   3.024   1.183  0.1922  0.5282  0.0434
  836MOL0     C10236   7.400   2.995   1.053  0.5815  0.6111  1.6939
  836MOL0     N10237   7.272   3.073   1.022  1.4194  0.2677  0.2343
  836MOL0     C10238   7.238   3.204   1.060  0.7252  0.3205  0.9405
  836MOL0     C10239   7.137   3.249   0.982  0.3771 -0.5712  0.2313
  836MOL0     C10240   7.059   3.382   0.972  0.0587 -0.3922 -0.1149
  836MOL0     C10241   7.001   3.442   1.103  0.2580  0.5933 -0.4017
  836MOL0     C10242   6.883   3.363   1.155  0.0810 -0.0299  0.4301
  836MOL0     C10243   6.733   3.403   1.118  0.9575 -0.0056  0.8257
  836MOL0     O10244   6.643   3.300   1.169 -0.5078 -0.2704  0.8479
  836MOL0     C10245   6.504   3.310   1.149 -0.0669 -1.0614  0.1129
  836MOL0     C10246   6.424   3.295   1.260 -0.4145  0.4552  0.5668
  836MOL0     C10247   6.283   3.289   1.232 -0.4113 -0.5274  0.5644
  836MOL0     C10248   6.219   3.330   1.112 -0.4251 -0.0605 -0.3157
  836MOL0     C10249   6.073   3.340   1.086 -0.9795  0.7718  0.8447
  836MOL0     O10250   6.039   3.340   0.954 -0.3129 -0.0223  0.1971
  836MOL0     C10251   5.907   3.337   0.940 -0.2641 -0.1297  0.0228
  836MOL0     C10252   5.845   3.465   0.941 -0.4744 -0.4245  0.2287
  836MOL0     C10253   5.711   3.480   0.913  0.8563  0.5173  0.1658
  836MOL0     C10254   5.642   3.362   0.885  1.6307 -0.6933  0.3251
  836MOL0     O10255   5.505   3.372   0.865  0.4137 -0.1913  0.7994
  836MOL0     C10256   5.419   3.413   0.967  0.6334 -0.1432 -0.0588
  836MOL0     C10257   5.304   3.484   0.896 -0.6165  0.3634  0.1089
  836MOL0     C10258   5.354   3.613   0.823  0.2468  0.1323 -0.0984
  836MOL0     C10259   5.399   3.721   0.917  0.2715 -0.4375  0.1450
  836MOL0     C10260   5.417   3.866   0.847  0.4187  0.8123 -0.1324
  836MOL0     C10261   5.274   3.927   0.809 -0.0888 -0.0846  0.0822
  836MOL0     C10262   5.297   4.059   0.733  0.7408  0.5931 -1.2395
  836MOL0     C10263   5.159   4.128   0.721 -0.2342 -0.5026 -0.7076
  836MOL0    Cl10264   5.122   4.200   0.884  0.6318  0.1126 -0.4072
  836MOL0     C10265   5.701   3.236   0.887  1.2066 -0.8096 -0.2413
  836MOL0     C10266   5.833   3.220   0.921  0.4167 -0.6147 -0.4828
  836MOL0     O10267   5.996   3.363   1.180 -0.1831 -0.0868  0.3175
  836MOL0     C10268   6.311   3.373   1.017 -0.1961  0.7018  0.3485
  836MOL0     C10269   6.451   3.357   1.025  0.3077  0.5630 -0.4537
  836MOL0     N10270   7.111   3.153   0.887 -0.7618  0.4797  0.1083
  836MOL0     N10271   7.188   3.052   0.905 -0.5800 -0.3303  0.5197
  836MOL0     C10272   7.851   2.601   1.972  1.2080  1.1732  0.1550
  836MOL0     C10273   7.941   2.567   2.075 -0.1775 -0.3491  0.5315
  836MOL0     C10274   8.200   2.490   2.390  0.4753 -0.0094 -0.0672
  836MOL0     C10275   8.206   2.392   2.492 -0.6455  0.2488  0.6717
  836MOL0     C10276   8.321   2.375   2.564  0.3857  0.0639  0.3778
  836MOL0     C10277   8.439   2.447   2.542 -0.8915  0.1387  0.5344
  836MOL0     O10278   8.543   2.413   2.623  0.1004 -0.4412 -0.5331
  836MOL0     C10279   8.686   2.430   2.588 -0.5942 -0.2007  0.8645
  836MOL0     C10280   8.773   2.346   2.677 -0.1641 -0.3572 -0.2955
  836MOL0     C10281   8.875   2.425   2.758  0.2128  0.2161 -0.1521
  836MOL0     C10282   8.983   2.329   2.799  0.6373  0.7250  0.1057
  836MOL0     C10283   9.067   2.388   2.907 -0.1393 -0.1430  0.3972
  836MOL0     C10284   9.142   2.433   2.992 -0.2925  0.4434  0.5928
  836MOL0     C10285   8.439   2.540   2.442  0.3981 -0.0616  0.7181
  836MOL0     C10286   8.322   2.557   2.362  0.8083  0.6508 -0.1808
  836MOL0     H10287   7.933   2.876   2.221  0.5842  0.8869 -1.7678
  836MOL0     H10288   7.768   2.903   2.049  1.8633  1.3621  0.0659
  836MOL0     H10289   7.705   2.926   1.846  1.4134 -2.8196  3.1623
  836MOL0     H10290   7.580   2.875   1.950 -3.8849 -1.7757 -1.2096
  836MOL0     H10291   7.506   2.974   1.719 -0.8343  0.1711  3.2174
  836MOL0     H10292   7.439   2.814   1.755 -0.2430 -1.3484 -2.9819
  836MOL0     H10293   7.600   2.687   1.613  1.7320 -0.8799  0.8151
  836MOL0     H10294   7.699   2.832   1.592 -0.4630  1.7303  4.3142
  836MOL0     H10295   7.582   2.790   1.386  3.2730  0.7009  2.9762
  836MOL0     H10296   7.421   2.764   1.461  0.0797 -0.5083 -1.1201
  836MOL0     H10297   7.570   3.023   1.430  0.9675 -1.1126  0.3144
  836MOL0     H10298   7.416   3.012   1.513  2.9123  0.2588  1.6305
  836MOL0     H10299   7.303   3.031   1.317 -0.3736 -0.7477 -1.7948
  836MOL0     H10300   7.361   2.870   1.269  0.6602 -0.5123  0.2030
  836MOL0     H10301   7.485   3.133   1.191  0.2381  0.7295 -2.2121
  836MOL0     H10302   7.570   2.971   1.184  1.3186  2.4543  0.4689
  836MOL0     H10303   7.368   2.891   1.038 -1.3200  1.3092  0.4227
  836MOL0     H10304   7.464   3.014   0.967 -1.3754  1.1607  0.2723
  836MOL0     H10305   7.286   3.269   1.132  0.0108  1.9459  0.0168
  836MOL0     H10306   6.979   3.368   0.899 -1.2225  1.8962  0.7542
  836MOL0     H10307   7.132   3.450   0.928  1.8368 -2.8021 -1.1094
  836MOL0     H10308   6.976   3.547   1.086 -2.7556 -0.0703 -0.6489
  836MOL0     H10309   7.082   3.452   1.176 -1.3064  0.5279  1.4292
  836MOL0     H10310   6.896   3.258   1.125  0.6128  0.2626 -0.3764
  836MOL0     H10311   6.893   3.361   1.264 -0.6964  0.6408  0.5217
  836MOL0     H10312   6.733   3.424   1.010 -0.9080 -0.7630  0.6469
  836MOL0     H10313   6.711   3.499   1.165 -2.1490 -0.8913  1.3532
  836MOL0     H10314   6.460   3.265   1.357 -0.1276 -2.4271 -0.3466
  836MOL0     H10315   6.211   3.266   1.310 -1.4077  0.2815 -0.0771
  836MOL0     H10316   5.892   3.563   0.949 -1.1425  0.0651 -1.3450
  836MOL0     H10317   5.662   3.576   0.905  3.4424  1.9282 -0.1422
  836MOL0     H10318   5.474   3.482   1.031  2.3907 -0.6974 -0.9050
  836MOL0     H10319   5.372   3.333   1.024 -0.3388 -0.4685 -1.2640
  836MOL0     H10320   5.231   3.518   0.970 -1.6247  0.7731 -1.0427
  836MOL0     H10321   5.247   3.411   0.839 -2.8006  1.4478  0.8076
  836MOL0     H10322   5.270   3.641   0.760 -0.7105 -3.0445 -0.4389
  836MOL0     H10323   5.437   3.578   0.761 -0.1232 -0.3371 -0.3321
  836MOL0     H10324   5.340   3.714   1.009 -0.0096 -3.2865 -0.1559
  836MOL0     H10325   5.498   3.704   0.960  0.8823  3.6667  0.7657
  836MOL0     H10326   5.487   3.846   0.765  2.3510  0.5407  1.4800
  836MOL0     H10327   5.457   3.947   0.910 -1.4996  0.0545  2.2259
  836MOL0     H10328   5.226   3.944   0.906 -2.9103  2.1693 -1.5473
  836MOL0     H10329   5.213   3.857   0.752  0.0488 -0.6642  0.6338
  836MOL0     H10330   5.366   4.119   0.792  0.6648 -0.0951 -0.4425
  836MOL0     H10331   5.341   4.025   0.638  2.2474  0.9865 -0.6943
  836MOL0     H10332   5.082   4.062   0.682 -1.3560  0.2762  0.1294
  836MOL0     H10333   5.176   4.208   0.648  0.3698 -1.5382 -1.7237
  836MOL0     H10334   5.639   3.153   0.852 -2.1488  1.0007  0.9428
  836MOL0     H10335   5.881   3.122   0.916 -2.4550 -2.1143 -0.8049
  836MOL0     H10336   6.261   3.397   0.923  1.2253  2.6042  0.0199
  836MOL0     H10337   6.510   3.374   0.935  0.2899  0.9315 -0.4003
  836MOL0     H10338   7.842   2.534   1.888 -2.5072  1.7102 -0.0492
  836MOL0     H10339   7.998   2.474   2.071 -0.6905 -0.6435 -0.1365
  836MOL0     H10340   8.124   2.325   2.516 -1.1784  0.8036  0.4190
  836MOL0     H10341   8.347   2.291   2.629  2.7283 -0.3503 -0.9816
  836MOL0     H10342   8.720   2.533   2.598  0.8153 -0.4937 -0.5318
  836MOL0     H10343   8.695   2.391   2.487  3.3062 -0.2166  1.0893
  836MOL0     H10344   8.713   2.299   2.756 -0.0158  2.5706  1.7355
  836MOL0     H10345   8.823   2.257   2.637 -0.4965 -0.4464 -0.5175
  836MOL0     H10346   8.817   2.467   2.841 -1.4191 -0.8666 -0.6979
  836MOL0     H10347   8.916   2.507   2.698 -0.1473  1.8446  1.7326
  836MOL0     H10348   8.946   2.232   2.835 -0.9890  1.0154 -0.7052
  836MOL0     H10349   9.043   2.304   2.711  0.9688  1.0701  0.2320
  836MOL0     H10350   9.185   2.478   3.080 -0.4635  1.8030 -0.0058
  836MOL0     H10351   8.534   2.586   2.413 -0.3193  1.4528  0.6572
  836MOL0     H10352   8.329   2.615   2.270 -1.2832  0.9716 -0.1972
  837MOL0     O10353   3.546   7.710   2.068 -0.7365 -0.1035  0.0282
  837MOL0     C10354   3.442   7.775   2.070  0.1723 -0.4714 -0.4765
  837MOL0     O10355   3.324   7.719   2.083  0.0376 -0.9357  0.3101
  837MOL0     C10356   3.321   7.592   2.144 -0.9151  0.1009 -0.2668
  837MOL0     C10357   3.312   7.590   2.286 -0.1141  0.5102 -0.5958
  837MOL0     C10358   3.329   7.467   2.357  0.5930  0.3482 -0.9644
  837MOL0     C10359   3.320   7.347   2.296  0.1009  0.3149  0.2891
  837MOL0     O10360   3.321   7.236   2.378  0.7525  0.6178 -0.5895
  837MOL0     C10361   3.361   7.112   2.311  0.7994 -0.6886  0.5837
  837MOL0     C10362   3.359   6.992   2.395 -0.1714 -0.2420 -0.0791
  837MOL0     C10363   3.463   6.993   2.511 -0.0254  0.5146 -0.8542
  837MOL0     C10364   3.610   6.967   2.470 -0.8581 -0.8625 -0.5688
  837MOL0     C10365   3.700   6.956   2.594 -0.5969  0.4834 -0.4939
  837MOL0     C10366   3.841   6.977   2.535 -0.8129  1.1385  0.4790
  837MOL0     C10367   3.951   6.972   2.645  0.3261 -0.3911  0.7916
  837MOL0     C10368   3.955   7.117   2.697 -0.7726  1.0874 -0.4207
  837MOL0     N10369   4.073   7.164   2.776 -0.3937  0.3085  0.3252
  837MOL0     C10370   4.096   7.166   2.909  0.8026  0.6323  0.6716
  837MOL0     C10371   4.171   7.268   2.935  0.0540  0.1896 -0.8264
  837MOL0     C10372   4.217   7.312   3.064  0.1211 -0.3445  0.5458
  837MOL0     C10373   4.220   7.470   3.054 -1.2224  0.3668 -0.2942
  837MOL0     C10374   4.268   7.521   3.188 -0.1178  0.3913 -0.0267
  837MOL0     C10375   4.156   7.528   3.300  0.1125 -0.5960 -0.1465
  837MOL0     O10376   4.208   7.546   3.430 -0.5529 -0.8562 -0.2138
  837MOL0     C10377   4.236   7.678   3.485 -0.5160  0.2668  0.3799
  837MOL0     C10378   4.268   7.669   3.620  0.5106 -0.0722 -0.0454
  837MOL0     C10379   4.297   7.796   3.686  0.1888  0.0223  0.2764
  837MOL0     C10380   4.294   7.920   3.614 -0.2054 -0.0309  0.3593
  837MOL0     C10381   4.335   8.046   3.677 -0.3881 -0.6951 -0.4686
  837MOL0     O10382   4.355   8.033   3.814  0.6760 -0.8414  0.2022
  837MOL0     C10383   4.388   8.143   3.889 -0.6918  0.2166  0.4893
  837MOL0     C10384   4.468   8.126   4.003  0.4155  0.3575 -0.3814
  837MOL0     C10385   4.505   8.230   4.090  1.6052 -0.4993 -0.7094
  837MOL0     C10386   4.474   8.361   4.062 -0.3680 -0.0235  0.3018
  837MOL0     O10387   4.521   8.458   4.153  0.6765  0.8482  0.1829
  837MOL0     C10388   4.544   8.588   4.100 -0.1225 -0.6372  0.1326
  837MOL0     C10389   4.571   8.686   4.218  0.7955 -0.6034  1.2100
  837MOL0     C10390   4.700   8.658   4.280  0.2079  0.7432 -0.7066
  837MOL0     C10391   4.697   8.726   4.425 -0.5409  0.0827 -0.2967
  837MOL0     C10392   4.808   8.669   4.512  1.6982 -0.2190  0.3780
  837MOL0     C10393   4.840   8.765   4.633  0.1604  0.0332 -0.7423
  837MOL0     C10394   4.735   8.772   4.746 -0.3411 -0.3367  0.9973
  837MOL0     C10395   4.768   8.858   4.868 -0.4413  0.4232 -0.5884
  837MOL0    Cl10396   4.635   8.864   4.978 -0.1848  0.3613 -0.1954
  837MOL0     C10397   4.389   8.381   3.948  0.2613 -0.5374  0.2045
  837MOL0     C10398   4.348   8.277   3.860  0.1198 -0.7321 -0.3692
  837MOL0     O10399   4.346   8.147   3.611 -0.4174  0.1850  0.1365
  837MOL0     C10400   4.260   7.912   3.474  0.0664  0.4420  0.1833
  837MOL0     C10401   4.238   7.797   3.408  0.0674  0.0085 -0.2949
  837MOL0     N10402   4.225   7.311   2.815 -0.6597  0.5829 -0.1678
  837MOL0     N10403   4.168   7.248   2.721 -0.0864  0.0046 -0.3853
  837MOL0     C10404   3.329   7.346   2.153  0.5578 -1.1842  0.0357
  837MOL0     C10405   3.326   7.471   2.079 -0.4755  0.3752 -0.6896
  837MOL0     C10406   3.449   7.916   2.052  0.9335  0.6008  0.5621
  837MOL0     C10407   3.550   7.971   1.961  0.3976  0.5831 -0.5036
  837MOL0     C10408   3.561   8.107   1.942 -0.6722 -0.8235 -1.1191
  837MOL0     C10409   3.473   8.195   1.987  0.4104  0.4289  0.0668
  837MOL0     O10410   3.479   8.321   1.943 -0.8137 -0.2759  0.1948
  837MOL0     C10411   3.448   8.420   2.037 -0.2879  0.1385 -0.2275
  837MOL0     C10412   3.374   8.538   1.971 -1.0810 -0.0690 -0.1341
  837MOL0     C10413   3.256   8.595   2.053 -0.4096  0.4407 -0.9072
  837MOL0     C10414   3.173   8.693   1.977  0.4407 -0.4067 -0.7661
  837MOL0     C10415   3.117   8.636   1.852 -0.7039  0.7873 -0.0908
  837MOL0     C10416   3.063   8.597   1.751  0.6940 -1.2891  0.2934
  837MOL0     C10417   3.361   8.139   2.055  0.0622  0.0760  0.4610
  837MOL0     C10418   3.357   8.006   2.101  0.6990 -0.9967  0.2626
  837MOL0     H10419   3.300   7.691   2.325  2.9069  0.5001  0.6140
  837MOL0     H10420   3.328   7.474   2.466 -3.0328  1.3399 -0.9192
  837MOL0     H10421   3.468   7.119   2.290  0.4086  2.8615 -0.8106
  837MOL0     H10422   3.294   7.087   2.228  1.4717 -0.9970  0.1243
  837MOL0     H10423   3.370   6.906   2.329 -2.4145  1.3097 -2.7134
  837MOL0     H10424   3.257   6.971   2.430 -0.3397  1.1908  0.3472
  837MOL0     H10425   3.439   6.901   2.566 -0.7858  0.8461 -0.6358
  837MOL0     H10426   3.451   7.076   2.581  1.2119  1.7794 -2.0793
  837MOL0     H10427   3.632   6.882   2.405  2.0952 -0.4841 -0.2013
  837MOL0     H10428   3.647   7.050   2.410 -0.0912  1.0755  2.3970
  837MOL0     H10429   3.696   6.881   2.674  0.3870  3.6677  2.7932
  837MOL0     H10430   3.681   7.046   2.653 -1.0805  0.9954 -1.4174
  837MOL0     H10431   3.853   7.064   2.469  1.3798 -0.8389 -1.9459
  837MOL0     H10432   3.865   6.897   2.464  2.1409  2.0054  0.3890
  837MOL0     H10433   3.933   6.898   2.724 -2.6127  2.1596  2.7528
  837MOL0     H10434   4.039   6.949   2.584 -0.7390  0.1072 -1.0163
  837MOL0     H10435   3.872   7.138   2.764 -0.7613 -2.7947  1.0264
  837MOL0     H10436   3.950   7.186   2.612  0.2188  1.9259  0.1746
  837MOL0     H10437   4.038   7.097   2.970 -0.7852  2.0201  0.8069
  837MOL0     H10438   4.320   7.277   3.067  0.9650  1.3335 -2.7895
  837MOL0     H10439   4.147   7.270   3.136  1.0812 -3.6279 -0.2854
  837MOL0     H10440   4.120   7.508   3.032  0.4701  4.5651 -1.7052
  837MOL0     H10441   4.289   7.509   2.979  2.7436  0.9167  3.2828
  837MOL0     H10442   4.356   7.469   3.227  0.9501  2.3390  0.2592
  837MOL0     H10443   4.293   7.626   3.173 -0.6979  0.6954  1.0312
  837MOL0     H10444   4.116   7.427   3.303 -1.1966 -0.1810 -1.8890
  837MOL0     H10445   4.073   7.594   3.273 -0.5738 -1.2092  0.4387
  837MOL0     H10446   4.277   7.572   3.667  0.7414 -0.5002 -0.9367
  837MOL0     H10447   4.339   7.795   3.786 -1.9825  1.3336  1.2635
  837MOL0     H10448   4.494   8.024   4.030  1.6494  1.5892  3.9407
  837MOL0     H10449   4.550   8.207   4.186  0.1577  2.5859  0.8777
  837MOL0     H10450   4.459   8.620   4.038  0.0357  2.7621  1.4216
  837MOL0     H10451   4.629   8.579   4.032  1.4911 -0.9037  2.0962
  837MOL0     H10452   4.488   8.668   4.287  0.8527 -0.2590  1.3700
  837MOL0     H10453   4.564   8.790   4.186 -1.9795 -1.2369 -0.5560
  837MOL0     H10454   4.780   8.690   4.212 -1.0311  1.1906 -2.0173
  837MOL0     H10455   4.709   8.552   4.303  1.4082  0.8433 -0.6580
  837MOL0     H10456   4.709   8.834   4.434 -0.9734  0.1954 -0.9809
  837MOL0     H10457   4.600   8.695   4.464  0.4366 -2.4653  0.3350
  837MOL0     H10458   4.893   8.657   4.444  0.0463 -0.2230 -1.8073
  837MOL0     H10459   4.766   8.577   4.552 -0.7788 -1.0163 -3.4550
  837MOL0     H10460   4.864   8.868   4.606  0.1441  1.5203  3.8872
  837MOL0     H10461   4.925   8.719   4.685 -0.0968 -1.0125 -1.2264
  837MOL0     H10462   4.647   8.811   4.695  1.1120  1.7716 -0.0317
  837MOL0     H10463   4.724   8.667   4.778  3.2478 -1.6950 -1.5102
  837MOL0     H10464   4.811   8.957   4.851 -0.5967  0.3130 -1.6968
  837MOL0     H10465   4.858   8.813   4.912  1.0245 -0.0283 -3.7101
  837MOL0     H10466   4.342   8.476   3.924  0.1337 -1.1771 -2.3608
  837MOL0     H10467   4.270   8.303   3.789  1.4620 -1.5483 -2.2350
  837MOL0     H10468   4.251   8.002   3.414  1.2282  0.3566 -0.1366
  837MOL0     H10469   4.213   7.795   3.302  1.6365  3.2458 -0.8280
  837MOL0     H10470   3.303   7.256   2.098  0.7566 -1.7011  0.7741
  837MOL0     H10471   3.333   7.478   1.971 -1.5191 -1.8712 -0.9453
  837MOL0     H10472   3.627   7.906   1.921  0.7258  0.7701 -0.1761
  837MOL0     H10473   3.648   8.136   1.884  1.8189  0.2509  2.7998
  837MOL0     H10474   3.545   8.460   2.066  0.0435  0.9500 -2.2941
  837MOL0     H10475   3.397   8.385   2.127  1.7934 -1.5770  0.3587
  837MOL0     H10476   3.449   8.612   1.940  0.4896 -1.2171  0.7968
  837MOL0     H10477   3.336   8.502   1.875  2.6383 -0.8531 -1.5051
  837MOL0     H10478   3.293   8.649   2.141  1.8222 -0.4395 -1.2561
  837MOL0     H10479   3.188   8.515   2.084 -1.9807  2.4470  1.2025
  837MOL0     H10480   3.093   8.723   2.046 -0.4551 -0.6504 -1.6739
  837MOL0     H10481   3.235   8.779   1.951  0.6470  0.1570  1.3703
  837MOL0     H10482   3.018   8.565   1.659 -1.6306  2.1934  0.0147
  837MOL0     H10483   3.274   8.202   2.068  1.5904  2.0514  1.9865
  837MOL0     H10484   3.271   7.979   2.161 -1.2735  1.7411 -1.0815
  838MOL0     O10485   8.149   2.440   3.128  0.1451  0.4886  0.5802
  838MOL0     C10486   8.180   2.334   3.071 -0.1739 -0.6360 -0.0730
  838MOL0     O10487   8.305   2.286   3.053 -0.8082  0.7899  0.0233
  838MOL0     C10488   8.414   2.362   3.094  0.4204  0.3482 -0.1315
  838MOL0     C10489   8.497   2.420   2.998  0.1064 -0.4248  0.2479
  838MOL0     C10490   8.613   2.483   3.047 -0.0113  0.8848 -0.6058
  838MOL0     C10491   8.650   2.488   3.183  0.2582 -0.5097 -0.1903
  838MOL0     O10492   8.771   2.544   3.224 -0.1764 -0.3263  0.5916
  838MOL0     C10493   8.784   2.588   3.360 -1.1855  0.6335  0.2672
  838MOL0     C10494   8.921   2.669   3.362  0.1474  1.4479  0.0591
  838MOL0     C10495   8.917   2.791   3.271  0.0456 -0.0625  0.5963
  838MOL0     C10496   9.038   2.885   3.291  0.4670 -0.8380  0.0980
  838MOL0     C10497   9.008   3.024   3.249  0.3091 -0.4445  0.6064
  838MOL0     C10498   9.126   3.120   3.253 -0.3856 -0.2973 -1.0116
  838MOL0     C10499   9.156   3.183   3.382 -0.6406  0.6642  0.0750
  838MOL0     C10500   9.250   3.300   3.352 -0.2194 -0.0198  0.3737
  838MOL0     N10501   9.312   3.366   3.464 -0.4862 -0.2812 -0.1381
  838MOL0     C10502   9.319   3.504   3.471  0.6075 -1.1381 -0.9024
  838MOL0     C10503   9.394   3.523   3.589 -0.2362  0.4810  0.5785
  838MOL0     C10504   9.425   3.663   3.641 -1.2842 -0.0311 -0.4862
  838MOL0     C10505   9.395   3.673   3.796  1.2151 -0.9295  0.2291
  838MOL0     C10506   9.250   3.650   3.846  0.1942  0.4279 -1.4222
  838MOL0     C10507   9.151   3.757   3.795  1.1136  0.1305  0.1177
  838MOL0     O10508   9.013   3.707   3.820 -0.3999  0.1836  0.6709
  838MOL0     C10509   8.907   3.776   3.774 -0.4588 -0.1236 -0.1446
  838MOL0     C10510   8.835   3.725   3.660 -0.2665 -0.8782 -0.2675
  838MOL0     C10511   8.718   3.794   3.618  2.0117  0.5966  0.7705
  838MOL0     C10512   8.679   3.913   3.683  0.1033  0.4163  0.1894
  838MOL0     C10513   8.565   3.996   3.631  0.2719  1.0690  0.0585
  838MOL0     O10514   8.497   3.941   3.523  0.0778  0.3657  0.0987
  838MOL0     C10515   8.375   3.996   3.477 -0.1464  0.6005  0.2657
  838MOL0     C10516   8.342   3.993   3.339 -0.8591 -0.4004 -0.4394
  838MOL0     C10517   8.224   4.046   3.289  0.3954 -1.2502 -0.2497
  838MOL0     C10518   8.133   4.115   3.375  0.2142  0.6881  0.0508
  838MOL0     O10519   8.018   4.172   3.326 -0.4597  0.1361  1.2231
  838MOL0     C10520   7.925   4.227   3.417  0.3384 -0.0284  0.4716
  838MOL0     C10521   7.787   4.241   3.360 -0.2498  0.5213 -0.2741
  838MOL0     C10522   7.772   4.347   3.250 -0.6705 -0.2927  1.1520
  838MOL0     C10523   7.764   4.498   3.300 -1.1558 -0.2991 -0.6015
  838MOL0     C10524   7.737   4.591   3.183 -0.1277 -0.1470 -0.4298
  838MOL0     C10525   7.729   4.735   3.233 -0.2826  0.9015  0.1753
  838MOL0     C10526   7.624   4.756   3.344 -0.2960  0.7902  0.2998
  838MOL0     C10527   7.584   4.900   3.356 -0.5790 -0.5964  0.3786
  838MOL0    Cl10528   7.712   5.006   3.409  0.1009  0.1000 -0.1585
  838MOL0     C10529   8.174   4.133   3.512 -0.1883  0.5533  0.1342
  838MOL0     C10530   8.281   4.056   3.562  1.0770  0.2335 -0.1070
  838MOL0     O10531   8.531   4.096   3.688 -0.3387  0.2158 -0.4991
  838MOL0     C10532   8.754   3.956   3.800  0.1744  0.7675  0.2351
  838MOL0     C10533   8.858   3.883   3.850  0.5589  0.9713 -0.8306
  838MOL0     N10534   9.423   3.392   3.639 -0.9559  0.0707 -0.2062
  838MOL0     N10535   9.382   3.302   3.560 -0.6928 -0.0764  0.5188
  838MOL0     C10536   8.574   2.416   3.271  0.0144  0.8246  0.5121
  838MOL0     C10537   8.451   2.361   3.223 -0.6918  0.6290 -0.5107
  838MOL0     C10538   8.082   2.240   3.024  0.3678 -0.7934  0.7941
  838MOL0     C10539   8.116   2.143   2.921 -0.3446  0.4551 -1.3210
  838MOL0     C10540   8.030   2.036   2.894 -0.2889  0.2316 -1.2984
  838MOL0     C10541   7.898   2.032   2.947  0.2806 -0.3713  0.5679
  838MOL0     O10542   7.811   1.930   2.906 -0.1715 -0.4865  0.0776
  838MOL0     C10543   7.673   1.932   2.953  0.0278  0.1671  0.1666
  838MOL0     C10544   7.597   1.815   2.891 -0.6771 -0.1323 -0.1063
  838MOL0     C10545   7.562   1.836   2.747 -0.4607  1.3067  0.7527
  838MOL0     C10546   7.682   1.866   2.657 -0.5432  0.2963  0.5030
  838MOL0     C10547   7.658   1.811   2.518 -0.0245  0.0563  0.1369
  838MOL0     C10548   7.648   1.788   2.398 -0.4511  0.0582  0.0670
  838MOL0     C10549   7.857   2.131   3.033 -1.0404  0.2463  0.1810
  838MOL0     C10550   7.944   2.236   3.073  1.0922 -0.1708 -0.8028
  838MOL0     H10551   8.467   2.420   2.894 -0.5441  5.7471  0.0968
  838MOL0     H10552   8.675   2.536   2.976  0.5730 -2.8848 -3.2046
  838MOL0     H10553   8.783   2.499   3.424 -1.2148  1.4897  1.4887
  838MOL0     H10554   8.698   2.650   3.388 -1.3145  0.1076  1.0533
  838MOL0     H10555   9.014   2.613   3.352 -0.3685 -0.1018  2.9463
  838MOL0     H10556   8.936   2.689   3.468 -0.2137 -0.4143  0.4908
  838MOL0     H10557   8.825   2.843   3.295 -1.2978 -2.1920  0.3218
  838MOL0     H10558   8.906   2.759   3.167 -0.2480  0.6009  0.4216
  838MOL0     H10559   9.066   2.895   3.397 -1.4906  0.7497  0.5230
  838MOL0     H10560   9.119   2.853   3.224 -0.4650 -0.9482 -0.9994
  838MOL0     H10561   8.926   3.063   3.310 -0.5495 -1.1014 -0.1042
  838MOL0     H10562   8.984   3.005   3.144 -0.0921 -2.6563  1.0570
  838MOL0     H10563   9.091   3.201   3.188  1.6565  0.7858 -0.8309
  838MOL0     H10564   9.218   3.083   3.208  0.2904 -0.0698  0.1691
  838MOL0     H10565   9.065   3.216   3.433 -1.2533 -0.5474 -0.1961
  838MOL0     H10566   9.203   3.115   3.454  1.9271 -0.8334 -2.7477
  838MOL0     H10567   9.193   3.371   3.291  1.9374  2.9588  1.6247
  838MOL0     H10568   9.331   3.262   3.290 -0.5317 -0.4106  0.2003
  838MOL0     H10569   9.275   3.580   3.408 -0.8692  0.2313  1.5882
  838MOL0     H10570   9.367   3.739   3.588  1.2412  2.3226 -0.0822
  838MOL0     H10571   9.532   3.684   3.630 -1.0778 -0.2088  1.0268
  838MOL0     H10572   9.431   3.770   3.833 -0.3630 -0.7061  1.2497
  838MOL0     H10573   9.450   3.596   3.851  1.2227 -0.5908  0.7055
  838MOL0     H10574   9.222   3.548   3.816  3.0798 -0.1505 -2.4610
  838MOL0     H10575   9.243   3.667   3.954 -0.2502 -1.7572 -1.0585
  838MOL0     H10576   9.163   3.776   3.688 -0.1259 -2.4976 -0.5810
  838MOL0     H10577   9.170   3.841   3.862  4.8338 -1.6648  1.6058
  838MOL0     H10578   8.872   3.640   3.602  1.9615  0.1561 -0.4815
  838MOL0     H10579   8.653   3.746   3.546  0.7889 -0.5288  2.5341
  838MOL0     H10580   8.405   3.937   3.270 -2.1060 -1.9167 -0.4122
  838MOL0     H10581   8.201   4.036   3.184 -1.5064 -6.0974  0.3845
  838MOL0     H10582   7.964   4.325   3.445 -1.9846  1.0345  0.2084
  838MOL0     H10583   7.917   4.155   3.500 -1.7590 -1.0862 -0.5605
  838MOL0     H10584   7.715   4.262   3.441  0.1454 -1.3250  0.6079
  838MOL0     H10585   7.763   4.150   3.306  0.6369  1.3199 -2.0956
  838MOL0     H10586   7.677   4.330   3.199 -1.0078  1.1207  1.2825
  838MOL0     H10587   7.858   4.337   3.183  0.1156  0.7665  1.9615
  838MOL0     H10588   7.677   4.497   3.365 -0.2566 -0.2653  0.6386
  838MOL0     H10589   7.862   4.524   3.342 -1.3522 -0.4209 -0.0723
  838MOL0     H10590   7.647   4.550   3.136  0.1818 -0.0937 -1.0854
  838MOL0     H10591   7.820   4.589   3.111  0.7509  2.4417  0.4020
  838MOL0     H10592   7.710   4.798   3.145 -1.0706  0.5502  0.0888
  838MOL0     H10593   7.828   4.762   3.272  0.7875  0.7808 -2.3040
  838MOL0     H10594   7.533   4.700   3.322 -1.3414  1.3717  2.8026
  838MOL0     H10595   7.674   4.729   3.438 -4.0944 -1.2733  1.9879
  838MOL0     H10596   7.502   4.922   3.425 -1.2123 -1.7148  0.0055
  838MOL0     H10597   7.546   4.923   3.256  1.0231 -2.3878 -0.6974
  838MOL0     H10598   8.121   4.199   3.580  0.6799 -0.9973  2.4482
  838MOL0     H10599   8.309   4.071   3.666  2.7491  1.3675 -0.6731
  838MOL0     H10600   8.727   4.047   3.853  0.6430  1.0083  0.0629
  838MOL0     H10601   8.918   3.912   3.936  0.2498 -2.0360  0.5192
  838MOL0     H10602   8.589   2.414   3.379 -0.8913  0.0356  0.6337
  838MOL0     H10603   8.378   2.306   3.282 -1.8692 -2.1525 -4.1376
  838MOL0     H10604   8.212   2.142   2.869  1.1782 -0.4542  1.3275
  838MOL0     H10605   8.054   1.965   2.815 -2.8449 -1.0727 -0.9984
  838MOL0     H10606   7.625   2.022   2.914  1.7525  0.5651 -1.1697
  838MOL0     H10607   7.676   1.909   3.060  0.8981 -4.2971 -0.6030
  838MOL0     H10608   7.669   1.733   2.895 -0.3987  0.0982 -0.3418
  838MOL0     H10609   7.513   1.787   2.955 -2.0057 -0.8116 -2.0487
  838MOL0     H10610   7.492   1.919   2.733  0.2148  1.7999  0.2195
  838MOL0     H10611   7.513   1.746   2.710  3.2078 -1.2414  1.5626
  838MOL0     H10612   7.717   1.970   2.663 -0.4015  0.4753 -2.0869
  838MOL0     H10613   7.768   1.812   2.698 -0.1108  1.6296  1.4171
  838MOL0     H10614   7.643   1.766   2.293  4.0719 -0.7062 -0.1784
  838MOL0     H10615   7.756   2.136   3.073 -0.9792  0.7255  0.2895
  838MOL0     H10616   7.908   2.309   3.145 -0.3522 -1.4749 -0.1320
  839MOL0     O10617   5.487  10.799  10.763  0.5741 -0.4039  0.2375
  839MOL0     C10618   5.551  10.809  10.872 -0.2854 -0.1114 -0.0527
  839MOL0     O10619   5.501  10.770  10.991 -0.4020 -1.1742  0.6748
  839MOL0     C10620   5.384  10.712  11.022  0.8753 -0.5311 -0.6100
  839MOL0     C10621   5.279  10.684  10.941  0.5062 -0.0432  0.3426
  839MOL0     C10622   5.155  10.643  10.994 -0.3916  0.2492  0.3273
  839MOL0     C10623   5.140  10.626  11.136  0.9296 -0.2651 -0.0392
  839MOL0     O10624   5.027  10.557  11.195 -0.0137  0.4380 -0.2159
  839MOL0     C10625   4.913  10.498  11.121 -0.0620 -1.1852  0.5392
  839MOL0     C10626   4.787  10.536  11.193 -0.3350 -0.4429  0.0212
  839MOL0     C10627   4.655  10.497  11.124  0.4797  0.3343 -0.9289
  839MOL0     C10628   4.547  10.538  11.217  0.2769  0.3542  0.3158
  839MOL0     C10629   4.406  10.533  11.140  0.6379  0.3488 -0.1092
  839MOL0     C10630   4.360  10.392  11.093  0.2298 -0.1654  1.2058
  839MOL0     C10631   4.225  10.402  11.015  0.3229 -0.4921 -0.6998
  839MOL0     C10632   4.151  10.268  11.003 -0.0882 -1.3054  0.3871
  839MOL0     N10633   4.097  10.223  11.132  0.8939  0.7545  0.4066
  839MOL0     C10634   3.967  10.236  11.165  0.0603 -0.2205 -0.2827
  839MOL0     C10635   3.949  10.152  11.278 -1.0491  0.3246  0.4574
  839MOL0     C10636   3.815  10.124  11.339  0.0740 -0.8908 -0.1113
  839MOL0     C10637   3.810   9.995  11.432  0.4051 -0.1139  0.0330
  839MOL0     C10638   3.665   9.968  11.450 -0.1811  0.0339 -0.5024
  839MOL0     C10639   3.587   9.889  11.342  0.1738  0.8947  0.3434
  839MOL0     O10640   3.454   9.858  11.386 -0.4583  0.5776  0.2775
  839MOL0     C10641   3.361   9.807  11.300  0.0737 -0.5403  0.0362
  839MOL0     C10642   3.377   9.776  11.163  0.0367  0.9118 -0.1826
  839MOL0     C10643   3.266   9.730  11.091  0.7815  0.0834 -0.5577
  839MOL0     C10644   3.143   9.692  11.149 -0.3351  0.1964 -0.6076
  839MOL0     C10645   3.043   9.651  11.051 -0.3652  0.1714 -0.5321
  839MOL0     O10646   3.078   9.579  10.930 -0.6515  0.5210  0.3357
  839MOL0     C10647   2.971   9.556  10.842 -0.2323 -0.0748 -0.4471
  839MOL0     C10648   2.902   9.443  10.867 -0.6772  0.1472  0.3620
  839MOL0     C10649   2.787   9.410  10.787 -0.2137 -0.8325  0.5027
  839MOL0     C10650   2.754   9.504  10.685 -0.0784 -0.8311  0.4693
  839MOL0     O10651   2.635   9.479  10.622 -1.3145  0.3196  0.3021
  839MOL0     C10652   2.599   9.558  10.510  0.5439 -0.2423 -0.1411
  839MOL0     C10653   2.513   9.468  10.432 -0.0196 -0.9259  0.6093
  839MOL0     C10654   2.476   9.532  10.296 -0.5545 -0.5463 -0.5505
  839MOL0     C10655   2.417   9.431  10.197  0.1817 -0.2823 -0.3343
  839MOL0     C10656   2.357   9.499  10.075 -0.1529  0.8664 -0.0952
  839MOL0     C10657   2.298   9.400   9.973 -0.7428 -0.9663 -0.1155
  839MOL0     C10658   2.223   9.486   9.860 -0.3124  1.0079 -0.5230
  839MOL0     C10659   2.067   9.488   9.875  0.4219  0.0536  0.2782
  839MOL0    Cl10660   1.964   9.537   9.731 -0.1282  0.1999 -0.0395
  839MOL0     C10661   2.828   9.620  10.663  0.3258  0.1137  0.5632
  839MOL0     C10662   2.940   9.638  10.734  0.6017 -0.7158  0.1686
  839MOL0     O10663   2.928   9.684  11.084  0.5129  0.3379  0.5125
  839MOL0     C10664   3.130   9.710  11.286  0.5646 -0.4242  0.0458
  839MOL0     C10665   3.230   9.783  11.357 -0.4899  1.0506  0.2506
  839MOL0     N10666   4.070  10.090  11.298 -0.3659 -0.1537  0.3554
  839MOL0     N10667   4.157  10.135  11.210  0.6408  0.2726 -0.1073
  839MOL0     C10668   5.242  10.666  11.220 -0.2138  0.6824  0.4714
  839MOL0     C10669   5.362  10.697  11.162  0.2050  0.0946  0.2609
  839MOL0     C10670   5.690  10.871  10.884  0.2758  0.1385  0.0067
  839MOL0     C10671   5.782  10.858  10.995  0.5927  0.2227 -1.1088
  839MOL0     C10672   5.906  10.928  10.993  0.3236  0.0976  0.5155
  839MOL0     C10673   5.942  11.006  10.877 -0.0524 -0.5384 -0.6275
  839MOL0     O10674   6.062  11.063  10.855 -0.1057 -0.1918 -0.6594
  839MOL0     C10675   6.182  11.025  10.924 -0.0060  0.1879 -0.3125
  839MOL0     C10676   6.261  10.916  10.852 -0.0693 -0.7499 -0.4265
  839MOL0     C10677   6.241  10.786  10.925 -0.1549  0.1170  0.5317
  839MOL0     C10678   6.315  10.660  10.879  0.4514 -0.1399  0.9088
  839MOL0     C10679   6.458  10.668  10.905 -1.4576  0.3947 -0.1049
  839MOL0     C10680   6.578  10.652  10.932  0.9603  0.0343 -0.2366
  839MOL0     C10681   5.845  11.025  10.776  0.4719 -1.0734 -0.4566
  839MOL0     C10682   5.724  10.959  10.780  0.0622  0.7743 -0.1515
  839MOL0     H10683   5.273  10.709  10.836  0.9710  2.5401  0.8553
  839MOL0     H10684   5.077  10.617  10.924 -0.1793  0.1021  0.1421
  839MOL0     H10685   4.917  10.389  11.112  1.4926 -1.0534 -0.7225
  839MOL0     H10686   4.908  10.542  11.021  0.2566 -2.6207 -0.1396
  839MOL0     H10687   4.793  10.644  11.205  1.5819 -0.3648 -1.2469
  839MOL0     H10688   4.791  10.489  11.292 -0.1281  3.4821  2.0896
  839MOL0     H10689   4.643  10.391  11.101 -0.6401  0.2108  0.1325
  839MOL0     H10690   4.634  10.544  11.027  0.4579  1.1394 -0.5468
  839MOL0     H10691   4.538  10.471  11.303 -1.4755  0.2409  0.0778
  839MOL0     H10692   4.556  10.641  11.253 -1.7942  0.3815  0.9087
  839MOL0     H10693   4.412  10.591  11.047  1.5834 -0.3197 -0.4778
  839MOL0     H10694   4.321  10.569  11.198 -0.9829 -2.7934 -0.3488
  839MOL0     H10695   4.336  10.333  11.182  0.6196 -0.5872  1.0342
  839MOL0     H10696   4.433  10.337  11.033 -1.4615 -0.4843 -0.6504
  839MOL0     H10697   4.160  10.469  11.072  0.6541 -2.2070  1.8716
  839MOL0     H10698   4.239  10.444  10.915  1.6580  0.9593  0.0501
  839MOL0     H10699   4.228  10.196  10.973  0.7297 -1.5012  2.7392
  839MOL0     H10700   4.066  10.276  10.934  0.5839  6.5826 -0.4547
  839MOL0     H10701   3.901  10.304  11.112 -0.3669 -1.1964 -1.0453
  839MOL0     H10702   3.742  10.099  11.262 -0.4452 -0.2395  0.1663
  839MOL0     H10703   3.781  10.215  11.388  0.9408 -1.0493  0.8237
  839MOL0     H10704   3.854  10.007  11.531 -2.2947 -1.7078  1.5669
  839MOL0     H10705   3.863   9.912  11.385 -0.9014  0.3041 -2.3683
  839MOL0     H10706   3.651   9.919  11.547 -1.1724  0.5720 -0.3568
  839MOL0     H10707   3.613  10.064  11.458 -2.6999 -1.3443  1.0520
  839MOL0     H10708   3.636   9.793  11.321 -1.3405 -0.0021  0.7321
  839MOL0     H10709   3.592   9.951  11.252  1.0159  0.2426 -0.0780
  839MOL0     H10710   3.473   9.803  11.121  1.6679  0.0398  2.7313
  839MOL0     H10711   3.272   9.713  10.984  0.1783 -0.7525 -0.4716
  839MOL0     H10712   2.934   9.371  10.942  0.5945  0.0797 -0.2207
  839MOL0     H10713   2.733   9.316  10.791 -0.9951 -0.9882 -5.1916
  839MOL0     H10714   2.691   9.572  10.453  2.1238 -4.7007  0.9034
  839MOL0     H10715   2.560   9.655  10.544  1.3931 -1.0288  3.5014
  839MOL0     H10716   2.420   9.449  10.487  0.2342  0.1312  1.4324
  839MOL0     H10717   2.562   9.374  10.405 -0.4201 -0.9745  0.0316
  839MOL0     H10718   2.566   9.564  10.242  0.6732  0.3340  1.8734
  839MOL0     H10719   2.405   9.613  10.308 -1.3819 -1.6130  2.8199
  839MOL0     H10720   2.500   9.365  10.173 -0.3516 -0.9106 -0.4929
  839MOL0     H10721   2.334   9.374  10.240 -0.8165  1.6179  0.3946
  839MOL0     H10722   2.438   9.544  10.016 -0.2978  1.8256  0.4247
  839MOL0     H10723   2.275   9.562  10.110  0.2549  1.6688 -0.5571
  839MOL0     H10724   2.234   9.337  10.035 -0.3975 -2.1164 -0.8829
  839MOL0     H10725   2.376   9.347   9.917 -1.0505 -3.0711  1.3414
  839MOL0     H10726   2.264   9.587   9.861 -0.9142  1.2523  0.6375
  839MOL0     H10727   2.248   9.450   9.760 -1.7187  1.3645 -1.0358
  839MOL0     H10728   2.051   9.560   9.956 -0.0289  0.3848 -0.0941
  839MOL0     H10729   2.044   9.382   9.890 -2.6342  0.8928  2.3930
  839MOL0     H10730   2.804   9.699  10.592  3.1131 -0.5729 -1.3499
  839MOL0     H10731   3.002   9.724  10.709  0.1033 -0.2629  0.4588
  839MOL0     H10732   3.039   9.677  11.335  1.3679 -2.4854  0.2458
  839MOL0     H10733   3.198   9.798  11.460 -1.6885 -0.8551  0.2180
  839MOL0     H10734   5.233  10.643  11.325 -1.4536 -3.3506 -0.3098
  839MOL0     H10735   5.433  10.727  11.238 -1.3117 -1.0419  2.2245
  839MOL0     H10736   5.749  10.797  11.078  0.3599  0.0985 -1.2928
  839MOL0     H10737   5.973  10.906  11.075  1.4040 -3.9471 -1.1885
  839MOL0     H10738   6.170  11.013  11.032  0.2766 -4.0451 -0.6025
  839MOL0     H10739   6.242  11.116  10.916  0.8605  0.1967  3.8234
  839MOL0     H10740   6.214  10.923  10.753 -0.1005 -0.5075 -0.3953
  839MOL0     H10741   6.366  10.945  10.842 -0.1985 -0.0124  0.2770
  839MOL0     H10742   6.135  10.761  10.925 -0.0949 -0.2275  2.0122
  839MOL0     H10743   6.282  10.794  11.026  1.4798 -1.5146  0.0570
  839MOL0     H10744   6.270  10.567  10.915 -0.1222  0.1826  1.0504
  839MOL0     H10745   6.298  10.647  10.772  2.2670  0.3047  0.5433
  839MOL0     H10746   6.681  10.656  10.963  1.7027  0.4515 -2.5055
  839MOL0     H10747   5.866  11.107  10.708  2.5421  0.5068  1.8898
  839MOL0     H10748   5.655  10.974  10.698 -1.8090 -1.3903  0.9086
  840MOL0     O10749   7.221  10.808   2.009 -0.0426  0.5160 -0.7596
  840MOL0     C10750   7.161  10.860   1.923 -0.4000 -0.8068 -0.5269
  840MOL0     O10751   7.223  10.924   1.814 -0.0750 -0.5425  0.1300
  840MOL0     C10752   7.362  10.925   1.800 -0.7538  1.3657  0.9104
  840MOL0     C10753   7.419  10.877   1.674 -0.8926  0.4765  0.1618
  840MOL0     C10754   7.558  10.858   1.661  0.1191  0.5239  0.2825
  840MOL0     C10755   7.644  10.904   1.767 -0.3810  0.8476 -0.6881
  840MOL0     O10756   7.771  10.872   1.769 -0.1710 -0.0820  0.0076
  840MOL0     C10757   7.849  10.925   1.660  0.1087  0.3819  0.0100
  840MOL0     C10758   7.893  11.070   1.688  1.0309 -0.5881 -0.0530
  840MOL0     C10759   7.965  11.135   1.566 -0.4153  0.0207  0.1259
  840MOL0     C10760   8.092  11.053   1.536 -0.4705 -1.2132 -0.0662
  840MOL0     C10761   8.191  11.125   1.447  0.1817  0.0945  0.3860
  840MOL0     C10762   8.320  11.041   1.430  1.4080 -0.0522  0.8144
  840MOL0     C10763   8.414  11.106   1.332  0.0809  0.7725  0.4911
  840MOL0     C10764   8.532  11.183   1.403 -0.1885 -0.3073  0.6372
  840MOL0     N10765   8.496  11.314   1.473 -0.3599  0.9549  0.4307
  840MOL0     C10766   8.415  11.411   1.419 -1.2882  0.2448  0.0457
  840MOL0     C10767   8.435  11.524   1.486  0.4079 -0.7211 -0.3440
  840MOL0     C10768   8.371  11.656   1.456 -0.6474  0.3054  0.5817
  840MOL0     C10769   8.218  11.647   1.445  0.4004 -0.1681  0.5044
  840MOL0     C10770   8.161  11.790   1.437  0.0925 -0.4536  0.3881
  840MOL0     C10771   8.014  11.797   1.410  0.3991 -0.3622  0.5201
  840MOL0     O10772   7.932  11.765   1.528  0.0769 -0.5258  0.9586
  840MOL0     C10773   7.793  11.744   1.510 -0.4639  0.0419 -0.2135
  840MOL0     C10774   7.717  11.693   1.610 -0.2902 -0.8231 -0.6300
  840MOL0     C10775   7.576  11.674   1.601 -0.6904  0.2969 -0.0307
  840MOL0     C10776   7.510  11.683   1.471 -0.4873 -0.7169 -0.7115
  840MOL0     C10777   7.363  11.683   1.451  0.5416 -0.4030 -0.7983
  840MOL0     O10778   7.285  11.684   1.567 -0.4443 -0.1648 -0.3053
  840MOL0     C10779   7.148  11.693   1.565 -0.5287  0.0848 -0.7119
  840MOL0     C10780   7.086  11.582   1.623 -0.0695 -0.8930  0.4972
  840MOL0     C10781   6.961  11.591   1.665  0.5803 -0.2513  0.2665
  840MOL0     C10782   6.885  11.707   1.640  0.0053  0.4051  0.5015
  840MOL0     O10783   6.759  11.724   1.677  0.9880 -1.2110 -0.0232
  840MOL0     C10784   6.681  11.613   1.720  0.2909  0.2309 -0.7922
  840MOL0     C10785   6.536  11.655   1.739  0.1449 -0.2348 -0.3206
  840MOL0     C10786   6.462  11.585   1.850 -0.3541  0.6214 -0.3408
  840MOL0     C10787   6.321  11.647   1.862 -0.2722  0.7108  0.3903
  840MOL0     C10788   6.229  11.552   1.945  0.5043 -0.2772 -0.3151
  840MOL0     C10789   6.279  11.490   2.075  0.0381  0.5992 -0.0252
  840MOL0     C10790   6.281  11.602   2.175  0.0300 -0.3449 -0.2507
  840MOL0     C10791   6.332  11.562   2.315  0.3144  0.0688  0.1925
  840MOL0    Cl10792   6.237  11.413   2.371  0.0204  0.4514  0.3318
  840MOL0     C10793   6.945  11.812   1.581  0.4650  0.2434 -0.3733
  840MOL0     C10794   7.077  11.805   1.541 -0.2046 -0.0849  0.2392
  840MOL0     O10795   7.309  11.693   1.343 -0.5343 -0.6314 -0.2894
  840MOL0     C10796   7.591  11.723   1.364 -0.6835  0.0817  0.0596
  840MOL0     C10797   7.730  11.754   1.385  0.4721 -0.3611 -0.0168
  840MOL0     N10798   8.502  11.490   1.600  0.6401 -0.5058 -0.2986
  840MOL0     N10799   8.540  11.367   1.589 -0.4995  0.1297  0.3980
  840MOL0     C10800   7.585  10.956   1.885 -1.3271 -0.8848 -0.5031
  840MOL0     C10801   7.450  10.969   1.901 -0.3356 -0.0454  0.5165
  840MOL0     C10802   7.011  10.856   1.918 -0.9060 -0.8732 -0.6223
  840MOL0     C10803   6.937  10.931   1.828 -0.0682 -0.4335  0.2610
  840MOL0     C10804   6.799  10.914   1.813 -0.0712 -0.0566 -0.1856
  840MOL0     C10805   6.732  10.825   1.894 -0.4286 -0.6553 -0.4244
  840MOL0     O10806   6.599  10.819   1.887  0.4654 -0.2030 -0.3184
  840MOL0     C10807   6.534  10.708   1.938  0.8031 -0.4318  0.2781
  840MOL0     C10808   6.379  10.722   1.923  0.4612  0.5656 -0.2245
  840MOL0     C10809   6.343  10.754   1.780  1.0850 -0.7197  0.1052
  840MOL0     C10810   6.303  10.635   1.693 -0.4445  0.2515 -0.7402
  840MOL0     C10811   6.173  10.593   1.743  0.0803 -0.7168 -0.0863
  840MOL0     C10812   6.053  10.563   1.755 -1.5402 -0.2132  0.3369
  840MOL0     C10813   6.809  10.753   1.995  0.8499 -0.0594 -0.0329
  840MOL0     C10814   6.950  10.765   1.993 -0.1973  0.3011  0.1842
  840MOL0     H10815   7.352  10.835   1.599  1.0021  1.2898 -2.1127
  840MOL0     H10816   7.605  10.808   1.578  2.3888  1.9193  0.6548
  840MOL0     H10817   7.798  10.929   1.563 -1.2051 -5.1111  0.1459
  840MOL0     H10818   7.924  10.849   1.635 -2.7904 -3.5318  2.1653
  840MOL0     H10819   7.955  11.070   1.778  2.0140 -0.1688 -0.7173
  840MOL0     H10820   7.803  11.131   1.705  1.9671  1.6451 -2.3389
  840MOL0     H10821   7.994  11.239   1.582  0.4520 -0.1481 -0.3395
  840MOL0     H10822   7.895  11.135   1.482 -3.4117 -2.5141  2.3710
  840MOL0     H10823   8.129  11.037   1.637 -1.7722  2.0533  1.0676
  840MOL0     H10824   8.066  10.961   1.483  0.2229 -1.8543  0.6769
  840MOL0     H10825   8.211  11.227   1.482  1.2190  1.3326 -3.3493
  840MOL0     H10826   8.139  11.109   1.352  0.0103  0.6277  0.3846
  840MOL0     H10827   8.282  10.954   1.374 -1.6474  1.7239 -0.0907
  840MOL0     H10828   8.365  11.013   1.525 -0.3973 -0.3333  1.6409
  840MOL0     H10829   8.440  11.030   1.257 -0.3609 -0.8857  1.9597
  840MOL0     H10830   8.371  11.180   1.264  1.4652  0.7308 -0.4907
  840MOL0     H10831   8.600  11.199   1.319  2.4165 -1.8125  2.2868
  840MOL0     H10832   8.572  11.106   1.471 -0.9197 -1.3329 -0.0581
  840MOL0     H10833   8.364  11.409   1.323  0.4395  2.2067 -0.9948
  840MOL0     H10834   8.422  11.710   1.376  0.0419  0.7578  1.3199
  840MOL0     H10835   8.388  11.726   1.537 -2.6902  2.6007 -0.8294
  840MOL0     H10836   8.185  11.595   1.536  3.2151 -2.8356  0.1625
  840MOL0     H10837   8.183  11.599   1.353 -1.4666  1.9280  0.0256
  840MOL0     H10838   8.182  11.846   1.529 -1.0643  0.6976 -0.0173
  840MOL0     H10839   8.208  11.843   1.354 -3.0452  0.6608 -0.8086
  840MOL0     H10840   7.983  11.741   1.322 -1.9201  0.8381  0.4844
  840MOL0     H10841   7.990  11.904   1.402  1.5987 -0.1878 -1.0138
  840MOL0     H10842   7.768  11.671   1.704 -1.7983  0.7803  0.6231
  840MOL0     H10843   7.523  11.648   1.693 -0.7194  1.9501  0.4518
  840MOL0     H10844   7.146  11.494   1.643 -0.3452 -0.6096  2.9358
  840MOL0     H10845   6.926  11.511   1.730 -2.3180  0.5492 -0.1540
  840MOL0     H10846   6.722  11.575   1.813  0.2778  2.5704  0.2593
  840MOL0     H10847   6.682  11.534   1.645 -0.5304  1.1337 -1.8091
  840MOL0     H10848   6.476  11.641   1.648 -1.8043  0.1787  0.8326
  840MOL0     H10849   6.540  11.761   1.764  2.0387 -0.5628  0.9868
  840MOL0     H10850   6.514  11.596   1.945 -1.8034  0.8642  0.4388
  840MOL0     H10851   6.453  11.479   1.824  0.8290  0.5442 -0.5023
  840MOL0     H10852   6.319  11.745   1.911 -0.2411  0.8918  0.0328
  840MOL0     H10853   6.268  11.650   1.766 -0.4933  0.9102  0.5187
  840MOL0     H10854   6.214  11.466   1.879 -3.4370  1.0760 -1.4384
  840MOL0     H10855   6.131  11.600   1.941  0.9656  0.7296  0.1415
  840MOL0     H10856   6.375  11.440   2.064  0.2863 -1.2131  6.3108
  840MOL0     H10857   6.212  11.409   2.107  1.1305 -0.7472 -1.0456
  840MOL0     H10858   6.351  11.680   2.144  0.0746 -0.0560  0.5604
  840MOL0     H10859   6.183  11.647   2.191  0.7578  1.6433 -1.1252
  840MOL0     H10860   6.297  11.637   2.386 -1.6748 -2.2972  1.8408
  840MOL0     H10861   6.441  11.554   2.310  0.3184  0.5625 -1.2210
  840MOL0     H10862   6.888  11.900   1.554  2.5216  1.6556 -0.3219
  840MOL0     H10863   7.123  11.900   1.517  0.2347 -0.1070  0.9587
  840MOL0     H10864   7.551  11.748   1.266 -2.1117  4.5092  1.5767
  840MOL0     H10865   7.778  11.810   1.305  1.5187  0.0972  0.8959
  840MOL0     H10866   7.655  10.984   1.963 -1.3759 -0.2096 -0.6902
  840MOL0     H10867   7.421  11.017   1.995 -0.8321 -0.8518  0.7810
  840MOL0     H10868   6.991  10.992   1.755  1.8658 -0.0865  1.9010
  840MOL0     H10869   6.739  10.977   1.749  0.2408  2.9557  2.2419
  840MOL0     H10870   6.561  10.702   2.044  1.4713 -0.2512  0.1236
  840MOL0     H10871   6.579  10.626   1.880  2.9681  0.5938  0.4270
  840MOL0     H10872   6.317  10.641   1.963 -1.6434  0.7786 -2.8242
  840MOL0     H10873   6.348  10.811   1.979 -1.0790  1.4502 -2.3745
  840MOL0     H10874   6.427  10.804   1.731  0.1451  1.5029  0.6311
  840MOL0     H10875   6.258  10.823   1.780  2.1522  0.7144 -2.1993
  840MOL0     H10876   6.300  10.655   1.586  0.7360  0.2735 -0.7721
  840MOL0     H10877   6.377  10.555   1.702 -2.5120 -1.5099  2.5094
  840MOL0     H10878   5.956  10.519   1.746 -1.3995  0.0011 -4.5617
  840MOL0     H10879   6.761  10.685   2.064  0.1322  1.0842  0.6266
  840MOL0     H10880   7.006  10.704   2.063 -0.0746  1.2379  0.9179
  841MOL0     O10881   3.801  11.037   7.471  0.1977 -0.3495  0.5532
  841MOL0     C10882   3.844  11.051   7.593  0.3728 -0.0608  1.4440
  841MOL0     O10883   3.759  11.065   7.702  0.4419  0.1140 -0.0106
  841MOL0     C10884   3.625  11.059   7.677 -0.8380  0.3838 -0.1250
  841MOL0     C10885   3.564  11.163   7.606 -0.7954  0.2341 -0.0115
  841MOL0     C10886   3.425  11.151   7.577 -0.4137  0.3813 -0.6992
  841MOL0     C10887   3.352  11.036   7.612 -0.1491 -0.2446  0.8587
  841MOL0     O10888   3.229  11.024   7.580  0.2399  0.0126 -0.1510
  841MOL0     C10889   3.145  11.134   7.627 -0.6770 -0.1226 -1.1134
  841MOL0     C10890   3.005  11.102   7.583  0.1891 -0.0990 -0.2111
  841MOL0     C10891   2.893  11.195   7.617  0.6508 -0.6647 -0.1165
  841MOL0     C10892   2.763  11.147   7.555  0.1684  0.0723  0.7838
  841MOL0     C10893   2.656  11.246   7.592 -1.1811 -0.6530 -0.2541
  841MOL0     C10894   2.527  11.191   7.534 -0.2674 -0.1644  0.5020
  841MOL0     C10895   2.412  11.269   7.577 -0.2499  0.5579 -0.3805
  841MOL0     C10896   2.278  11.235   7.514  0.2479  0.5568 -0.0396
  841MOL0     N10897   2.166  11.320   7.556  0.3698  0.3511  0.8198
  841MOL0     C10898   2.084  11.306   7.665  1.0684 -0.4361 -1.1321
  841MOL0     C10899   2.014  11.420   7.673 -0.0233 -0.8665  0.7234
  841MOL0     C10900   1.896  11.452   7.759 -0.1588  0.5749 -0.1638
  841MOL0     C10901   1.777  11.387   7.685  0.0805 -0.2601 -1.0710
  841MOL0     C10902   1.647  11.394   7.783  0.1933 -0.4243  0.4954
  841MOL0     C10903   1.549  11.280   7.751  0.2602 -0.1640 -0.3031
  841MOL0     O10904   1.420  11.301   7.817 -0.5873 -0.4170 -0.2672
  841MOL0     C10905   1.315  11.205   7.812 -0.8397  0.1180 -0.0034
  841MOL0     C10906   1.213  11.225   7.895  0.3955  0.3866  0.4929
  841MOL0     C10907   1.090  11.159   7.885  0.3117 -1.0554  1.0054
  841MOL0     C10908   1.069  11.056   7.791 -0.5391 -1.4162  0.2353
  841MOL0     C10909   0.939  10.986   7.782  0.3658 -0.6124 -0.0925
  841MOL0     O10910   0.829  11.059   7.811  0.2561 -0.2980  0.1515
  841MOL0     C10911   0.715  10.999   7.859 -0.0864  0.2165  1.0719
  841MOL0     C10912   0.697  10.874   7.915  0.0011 -1.0507 -0.0459
  841MOL0     C10913   0.576  10.844   7.967 -0.1126  0.4744  0.1295
  841MOL0     C10914   0.459  10.926   7.958 -0.5255 -0.1776 -0.6386
  841MOL0     O10915   0.330  10.895   8.001 -0.0616  0.0232  0.0168
  841MOL0     C10916   0.310  10.767   8.066  1.0225 -0.0116  1.3598
  841MOL0     C10917   0.180  10.787   8.139 -0.5670 -0.1104 -0.4297
  841MOL0     C10918   0.147  10.670   8.231  0.4225 -0.3717 -1.1914
  841MOL0     C10919   0.204  10.681   8.376 -0.1598 -0.2899  0.5187
  841MOL0     C10920   0.203  10.546   8.454 -0.0311 -0.3162  0.1151
  841MOL0     C10921   0.067  10.514   8.516 -0.2929  1.0698  0.4929
  841MOL0     C10922   0.088  10.383   8.601 -0.4654 -0.2756  0.8568
  841MOL0     C10923  -0.023  10.345   8.698 -0.9424  0.8579 -0.3143
  841MOL0    Cl10924  -0.170  10.320   8.616  0.3892 -0.0769 -0.7930
  841MOL0     C10925   0.478  11.056   7.907 -0.6566 -0.0602 -0.2146
  841MOL0     C10926   0.604  11.089   7.854 -0.4361 -0.2909 -0.3012
  841MOL0     O10927   0.936  10.870   7.757  0.1974  0.2834  0.8216
  841MOL0     C10928   1.186  11.028   7.707 -0.1010 -0.0006  0.5609
  841MOL0     C10929   1.311  11.099   7.723  0.2969  0.1482  0.0873
  841MOL0     N10930   2.064  11.509   7.581 -0.2488  0.6262  0.8361
  841MOL0     N10931   2.138  11.440   7.500  0.7517  0.2693  0.4388
  841MOL0     C10932   3.426  10.931   7.667  0.0172  0.7127 -0.2727
  841MOL0     C10933   3.557  10.940   7.698 -0.0115 -0.4335 -1.3573
  841MOL0     C10934   3.993  11.059   7.617 -0.0345  0.2561 -0.9062
  841MOL0     C10935   4.045  11.057   7.747 -1.2187 -0.2219 -0.2045
  841MOL0     C10936   4.181  11.075   7.773 -0.3743  0.1253  0.1631
  841MOL0     C10937   4.277  11.096   7.672  0.4803  0.7696  0.8272
  841MOL0     O10938   4.405  11.094   7.712 -0.4830  0.0887 -0.6206
  841MOL0     C10939   4.496  11.107   7.607  0.4030 -0.5655 -0.1130
  841MOL0     C10940   4.632  11.127   7.664 -0.3659 -0.3770 -1.0840
  841MOL0     C10941   4.690  10.996   7.713 -0.2698  0.3756 -0.1176
  841MOL0     C10942   4.836  11.022   7.741 -0.8522  0.3091  0.2905
  841MOL0     C10943   4.872  11.101   7.856 -0.8761  0.3867  0.5404
  841MOL0     C10944   4.919  11.153   7.951 -0.9303  0.3882 -0.1511
  841MOL0     C10945   4.227  11.102   7.540  0.5431  0.5899 -0.8031
  841MOL0     C10946   4.092  11.080   7.514 -0.4033  0.4058 -0.5929
  841MOL0     H10947   3.618  11.249   7.569  1.4955  0.0300  2.5674
  841MOL0     H10948   3.373  11.232   7.527 -0.8925  0.0572 -0.7295
  841MOL0     H10949   3.182  11.230   7.587  3.6787 -1.7036 -1.4265
  841MOL0     H10950   3.156  11.144   7.735 -0.9836  3.8311 -1.3094
  841MOL0     H10951   2.983  11.007   7.633 -1.8102  0.5114  0.1625
  841MOL0     H10952   3.001  11.090   7.475 -2.9948 -1.1051 -0.0879
  841MOL0     H10953   2.917  11.297   7.584  0.2154 -0.1976  0.9686
  841MOL0     H10954   2.878  11.205   7.724  1.6735  2.4026 -0.1648
  841MOL0     H10955   2.770  11.149   7.446 -1.0993  1.9238  0.6718
  841MOL0     H10956   2.731  11.049   7.590  0.3701  0.0850  1.0126
  841MOL0     H10957   2.671  11.348   7.557 -4.1069 -0.5135 -1.3989
  841MOL0     H10958   2.657  11.260   7.701 -0.4749  1.9649 -0.5319
  841MOL0     H10959   2.508  11.087   7.563 -2.6808  0.5535  1.8079
  841MOL0     H10960   2.534  11.196   7.425  1.7649 -1.5195  0.5023
  841MOL0     H10961   2.403  11.271   7.686 -1.8652 -0.7192 -0.4567
  841MOL0     H10962   2.433  11.375   7.567 -1.0853  0.6137 -1.9134
  841MOL0     H10963   2.254  11.131   7.539 -2.3334  1.4915  1.8351
  841MOL0     H10964   2.285  11.239   7.405 -0.2867  0.6144 -0.0730
  841MOL0     H10965   2.069  11.225   7.735 -0.5129  0.5577 -0.2552
  841MOL0     H10966   1.876  11.559   7.767 -0.2874  0.5030  0.5859
  841MOL0     H10967   1.915  11.419   7.862 -1.2732  4.2318  1.3951
  841MOL0     H10968   1.796  11.280   7.667  0.3934 -0.8788  2.2948
  841MOL0     H10969   1.767  11.431   7.585 -0.2944 -0.4472 -1.1170
  841MOL0     H10970   1.679  11.386   7.887  1.1233 -2.9766  0.0644
  841MOL0     H10971   1.592  11.489   7.777 -2.2420 -1.4488  4.0363
  841MOL0     H10972   1.588  11.188   7.794  1.1950 -0.9037 -2.5601
  841MOL0     H10973   1.550  11.265   7.643  2.1718 -1.4383 -0.1506
  841MOL0     H10974   1.218  11.313   7.959 -1.5190  0.7181  0.2441
  841MOL0     H10975   1.023  11.200   7.959  0.1468  0.6916 -0.0719
  841MOL0     H10976   0.781  10.805   7.923 -0.4464 -1.9009 -1.9337
  841MOL0     H10977   0.565  10.739   7.991 -0.1508  0.1123 -1.3764
  841MOL0     H10978   0.385  10.749   8.143  1.2175 -1.9057  0.8001
  841MOL0     H10979   0.291  10.690   7.990 -2.1676  0.6180  1.3880
  841MOL0     H10980   0.093  10.800   8.074  0.3802 -1.1809 -1.9843
  841MOL0     H10981   0.185  10.875   8.203 -2.9657  0.1031 -0.4217
  841MOL0     H10982   0.184  10.574   8.194  0.2309 -2.2837  2.9626
  841MOL0     H10983   0.038  10.655   8.227  0.6046 -1.6581 -1.5004
  841MOL0     H10984   0.307  10.716   8.377 -0.2508  0.0311 -0.3316
  841MOL0     H10985   0.157  10.768   8.423  1.1416  1.5896 -1.4491
  841MOL0     H10986   0.284  10.547   8.527  1.0818 -0.5025 -1.0871
  841MOL0     H10987   0.227  10.470   8.379  2.9795  0.8843 -0.2623
  841MOL0     H10988  -0.012  10.497   8.443 -0.2028 -1.3332  0.8837
  841MOL0     H10989   0.037  10.600   8.577 -1.5820  0.9015  0.1149
  841MOL0     H10990   0.088  10.311   8.517 -1.5982  0.6447  0.0350
  841MOL0     H10991   0.187  10.378   8.648  0.3045  0.8467 -0.5598
  841MOL0     H10992  -0.026  10.420   8.778  1.4752  0.1838  0.5273
  841MOL0     H10993   0.028  10.263   8.749  2.3695  1.1322 -2.8023
  841MOL0     H10994   0.401  11.131   7.896 -0.8460 -0.2368 -0.1211
  841MOL0     H10995   0.628  11.192   7.832  0.7701 -0.9605 -2.3451
  841MOL0     H10996   1.170  10.946   7.638 -0.1830 -1.4359  2.2026
  841MOL0     H10997   1.397  11.073   7.661  0.0795  1.5687 -0.8484
  841MOL0     H10998   3.368  10.841   7.686 -1.4295  1.3982 -1.2395
  841MOL0     H10999   3.606  10.856   7.746 -1.5703 -1.0828 -0.8143
  841MOL0     H11000   3.987  11.031   7.835  0.3952 -2.2901  0.3379
  841MOL0     H11001   4.216  11.061   7.875 -0.0738  1.9363  0.3519
  841MOL0     H11002   4.471  11.188   7.537  1.0761  0.8875  1.2641
  841MOL0     H11003   4.494  11.018   7.544 -0.9152  1.4798 -3.2396
  841MOL0     H11004   4.687  11.175   7.583 -0.6325  3.2168  0.7045
  841MOL0     H11005   4.625  11.199   7.746 -1.5663 -1.9788  0.3030
  841MOL0     H11006   4.688  10.918   7.636  3.5792 -0.2232  0.1896
  841MOL0     H11007   4.639  10.960   7.803  2.3464  0.1819  1.3876
  841MOL0     H11008   4.881  10.923   7.754  0.8431  0.5181 -2.8047
  841MOL0     H11009   4.884  11.060   7.650  1.3960 -3.1956 -0.1842
  841MOL0     H11010   4.967  11.198   8.036 -3.5323  0.2676  1.5016
  841MOL0     H11011   4.303  11.104   7.463  3.1332 -1.2970  1.5005
  841MOL0     H11012   4.048  11.077   7.414  1.9163  1.1051 -1.7017
  842MOL0     O11013  11.256   4.262   4.809  0.8507  0.4312  0.4281
  842MOL0     C11014  11.170   4.180   4.770  0.3862 -0.5123 -0.3442
  842MOL0     O11015  11.192   4.060   4.704  0.4678  0.4376  0.1087
  842MOL0     C11016  11.313   4.043   4.657 -0.9427  0.4422  0.7215
  842MOL0     C11017  11.418   3.981   4.725  0.1384  0.4230 -0.3446
  842MOL0     C11018  11.554   3.962   4.670  0.6007 -0.0603  0.2880
  842MOL0     C11019  11.583   3.999   4.539  0.2819 -0.0671  0.2357
  842MOL0     O11020  11.706   3.996   4.477 -0.4924 -1.2029 -0.0894
  842MOL0     C11021  11.815   3.981   4.571  0.4934 -0.4099 -0.4598
  842MOL0     C11022  11.938   3.971   4.477 -1.0900  0.0484 -0.4863
  842MOL0     C11023  11.923   3.875   4.358 -0.7915  1.3113  0.7377
  842MOL0     C11024  11.869   3.727   4.395 -0.0086  0.2928  0.2035
  842MOL0     C11025  11.973   3.649   4.476  0.4848  0.3445  0.8555
  842MOL0     C11026  11.935   3.502   4.510 -0.4164 -0.2340  0.0313
  842MOL0     C11027  12.054   3.424   4.572 -0.7419 -0.3600 -0.4446
  842MOL0     C11028  12.019   3.291   4.620 -0.2214  0.5169 -0.4627
  842MOL0     N11029  11.946   3.205   4.511  0.5138  0.5018 -0.5464
  842MOL0     C11030  11.812   3.213   4.488  0.7709  0.1934 -0.2010
  842MOL0     C11031  11.790   3.159   4.367  0.1475  0.4800 -0.5711
  842MOL0     C11032  11.656   3.155   4.293 -0.8609 -0.7599  0.0042
  842MOL0     C11033  11.619   3.288   4.236 -0.0008 -0.3928  1.2191
  842MOL0     C11034  11.570   3.403   4.329  0.2343  0.1377  0.5389
  842MOL0     C11035  11.546   3.537   4.247  0.7403 -0.2503 -0.3439
  842MOL0     O11036  11.427   3.529   4.162 -0.7436  0.3128  0.2629
  842MOL0     C11037  11.325   3.592   4.223 -0.6244 -0.1180 -1.1276
  842MOL0     C11038  11.330   3.734   4.261 -0.5265  0.6506  0.7130
  842MOL0     C11039  11.223   3.789   4.326 -0.0742 -0.7383 -0.9177
  842MOL0     C11040  11.100   3.723   4.346 -0.7084  0.9948 -0.4264
  842MOL0     C11041  10.985   3.782   4.415  0.0773  0.3550  0.2433
  842MOL0     O11042  10.857   3.734   4.394  0.1250  0.7749  0.4156
  842MOL0     C11043  10.758   3.795   4.465  0.4535 -0.1405  0.1848
  842MOL0     C11044  10.686   3.901   4.412 -0.7274  0.3811  0.1624
  842MOL0     C11045  10.573   3.951   4.482  0.2685  0.1442  0.0769
  842MOL0     C11046  10.523   3.879   4.595 -0.5527 -0.0409 -0.3554
  842MOL0     O11047  10.407   3.890   4.654  0.7428 -0.2134  0.2391
  842MOL0     C11048  10.343   4.019   4.656  0.0158  0.0484 -0.1773
  842MOL0     C11049  10.223   4.007   4.730 -0.3338  0.2990 -0.7397
  842MOL0     C11050  10.230   4.009   4.879  0.1816  0.3225 -0.3850
  842MOL0     C11051  10.090   3.979   4.949  0.7734 -0.0373 -0.0839
  842MOL0     C11052  10.097   3.971   5.095 -0.7412  0.6657 -0.1933
  842MOL0     C11053   9.961   3.917   5.146  0.5294 -0.2619 -0.1718
  842MOL0     C11054   9.849   4.023   5.121  0.0922 -0.9977  0.2655
  842MOL0     C11055   9.715   3.979   5.200 -0.2426 -0.1459 -0.3270
  842MOL0    Cl11056   9.672   3.824   5.124  0.3091 -0.3899  0.4922
  842MOL0     C11057  10.605   3.775   4.648 -0.5543 -0.1472 -0.1208
  842MOL0     C11058  10.721   3.724   4.586  0.4449 -0.9406  0.0790
  842MOL0     O11059  11.014   3.875   4.491  0.3103  0.6678  0.8613
  842MOL0     C11060  11.088   3.584   4.307  0.4093  0.1872 -0.0966
  842MOL0     C11061  11.204   3.516   4.256  0.3615 -0.1611  0.8286
  842MOL0     N11062  11.912   3.116   4.322 -0.2697  0.4707 -0.1273
  842MOL0     N11063  11.998   3.150   4.404 -0.0606 -0.2959 -0.3337
  842MOL0     C11064  11.470   4.044   4.466  0.5203 -0.1629  0.1636
  842MOL0     C11065  11.340   4.069   4.522  0.0254  0.3798 -0.8952
  842MOL0     C11066  11.033   4.215   4.825  0.8943 -0.1311  0.0072
  842MOL0     C11067  10.927   4.138   4.784  0.4268  0.3291 -0.8117
  842MOL0     C11068  10.795   4.143   4.844 -0.0477 -0.6948  0.2440
  842MOL0     C11069  10.768   4.246   4.939  0.1828 -0.0650  0.2259
  842MOL0     O11070  10.649   4.265   4.997 -0.1630 -0.6490  0.4557
  842MOL0     C11071  10.571   4.353   4.914 -0.0272 -0.2697 -0.4615
  842MOL0     C11072  10.547   4.476   5.008  0.4573  0.4851 -0.0948
  842MOL0     C11073  10.415   4.539   4.960 -0.4997 -0.7997 -0.3078
  842MOL0     C11074  10.371   4.676   5.021  0.0342 -0.1751 -1.4191
  842MOL0     C11075  10.228   4.698   5.007  0.0832  0.1551 -0.0645
  842MOL0     C11076  10.107   4.709   5.011  0.7349  0.4177  0.0115
  842MOL0     C11077  10.871   4.329   4.973 -0.3252  0.6297  0.8613
  842MOL0     C11078  11.007   4.321   4.918  0.3353  0.6208 -0.4231
  842MOL0     H11079  11.401   3.950   4.827  0.6514 -0.9668 -0.6602
  842MOL0     H11080  11.626   3.925   4.742  0.7150 -1.9001 -0.7156
  842MOL0     H11081  11.802   3.889   4.629  4.9923 -0.5991  0.5998
  842MOL0     H11082  11.814   4.063   4.643 -2.8096 -2.3125  1.9567
  842MOL0     H11083  12.022   3.940   4.539 -1.1279  3.9671  1.8284
  842MOL0     H11084  11.963   4.066   4.430 -2.3992  0.4754 -0.3822
  842MOL0     H11085  12.016   3.874   4.300 -0.1469  1.6278  1.7410
  842MOL0     H11086  11.856   3.922   4.285 -0.4890  0.8324  0.1378
  842MOL0     H11087  11.766   3.728   4.432 -0.1459  1.5577 -0.1747
  842MOL0     H11088  11.849   3.672   4.302 -1.3958  1.8676 -0.4869
  842MOL0     H11089  11.999   3.701   4.568  2.6086  4.0496 -1.5684
  842MOL0     H11090  12.065   3.643   4.417 -1.0590  1.7088 -1.9219
  842MOL0     H11091  11.912   3.445   4.420 -1.2654  0.5317 -0.2428
  842MOL0     H11092  11.854   3.493   4.583 -1.4934  1.5609 -0.8789
  842MOL0     H11093  12.136   3.409   4.502  2.9372 -1.2232  3.6642
  842MOL0     H11094  12.101   3.477   4.655  1.4918  0.1724 -1.9721
  842MOL0     H11095  11.972   3.291   4.719  1.5601  3.0256  0.5054
  842MOL0     H11096  12.116   3.242   4.633 -0.1127  0.7716 -0.3033
  842MOL0     H11097  11.732   3.255   4.549  0.7176 -2.5051  1.8221
  842MOL0     H11098  11.571   3.130   4.356 -1.8500  0.6545 -0.7151
  842MOL0     H11099  11.661   3.091   4.204  1.5349  1.2212 -1.4465
  842MOL0     H11100  11.542   3.282   4.159  3.3217 -1.1561 -2.3467
  842MOL0     H11101  11.718   3.328   4.210  1.5868 -3.6918  1.6961
  842MOL0     H11102  11.475   3.384   4.381 -1.2232  1.4307 -1.4910
  842MOL0     H11103  11.644   3.415   4.408 -0.9998 -2.0340  2.1698
  842MOL0     H11104  11.625   3.553   4.173  1.2584  0.2170  0.2925
  842MOL0     H11105  11.546   3.632   4.301 -1.3788  1.2945 -2.8165
  842MOL0     H11106  11.417   3.791   4.231  0.8680 -1.1463  1.2308
  842MOL0     H11107  11.220   3.890   4.365  0.1899 -1.5938  1.4659
  842MOL0     H11108  10.724   3.947   4.321  1.5768 -0.6948  0.5073
  842MOL0     H11109  10.509   4.032   4.448 -2.8438 -2.2207 -0.2023
  842MOL0     H11110  10.331   4.039   4.549  0.1729 -2.3550 -0.7183
  842MOL0     H11111  10.406   4.101   4.692 -0.2911  2.3527 -4.2578
  842MOL0     H11112  10.176   3.913   4.699  2.1386 -0.1304 -3.7482
  842MOL0     H11113  10.144   4.078   4.702 -1.0762  0.0639  0.7106
  842MOL0     H11114  10.261   4.111   4.905  2.0472 -0.2063 -0.3898
  842MOL0     H11115  10.298   3.930   4.911 -0.6730 -0.1050  0.4077
  842MOL0     H11116  10.025   4.063   4.922  0.5768 -0.0194  0.4268
  842MOL0     H11117  10.048   3.881   4.923  0.0326 -0.1211  1.3533
  842MOL0     H11118  10.124   4.064   5.147 -2.4435  1.3705 -0.4871
  842MOL0     H11119  10.184   3.907   5.112 -1.4876 -0.4550 -0.5340
  842MOL0     H11120   9.951   3.911   5.255  0.6801  0.7685 -0.0910
  842MOL0     H11121   9.937   3.820   5.102 -1.6210 -0.3969  1.1554
  842MOL0     H11122   9.886   4.122   5.150  1.2680 -1.2397 -0.3493
  842MOL0     H11123   9.818   4.031   5.017  1.2461 -0.4455 -0.0599
  842MOL0     H11124   9.642   4.059   5.190  0.7848  1.4776  3.4745
  842MOL0     H11125   9.725   3.964   5.308  0.0435 -2.3912 -0.6182
  842MOL0     H11126  10.574   3.735   4.744  1.0855  1.5150  1.1703
  842MOL0     H11127  10.780   3.641   4.624  0.0570 -0.6175  1.4311
  842MOL0     H11128  10.995   3.528   4.304  0.4750  0.0520  0.2674
  842MOL0     H11129  11.191   3.411   4.232 -0.1109  0.3168 -1.1294
  842MOL0     H11130  11.487   4.078   4.365  0.9160  1.1892  0.6604
  842MOL0     H11131  11.259   4.114   4.465 -2.0080 -0.6714  1.0108
  842MOL0     H11132  10.943   4.063   4.707 -0.6242  2.9590 -3.8169
  842MOL0     H11133  10.714   4.077   4.813  0.3430 -1.2800  0.4468
  842MOL0     H11134  10.476   4.300   4.906  0.9186 -2.1545  0.2110
  842MOL0     H11135  10.620   4.387   4.822 -1.6429 -0.3738 -1.3856
  842MOL0     H11136  10.534   4.451   5.114 -0.9802  1.1807 -0.0855
  842MOL0     H11137  10.640   4.533   5.005  1.1725 -0.6033  0.4660
  842MOL0     H11138  10.334   4.468   4.977 -0.0999 -1.4694 -1.1386
  842MOL0     H11139  10.426   4.558   4.853  0.6022 -1.4843 -0.3443
  842MOL0     H11140  10.398   4.690   5.127 -2.5464  3.1628 -1.0308
  842MOL0     H11141  10.422   4.764   4.979 -0.5127  0.1430 -1.4287
  842MOL0     H11142  10.003   4.736   5.020  0.2289 -0.6828 -1.8689
  842MOL0     H11143  10.832   4.393   5.051 -1.2110 -0.5582  1.4176
  842MOL0     H11144  11.080   4.380   4.973 -0.9497  1.2459  0.6572
  843MOL0     O11145  10.326   5.834   8.004 -1.2860 -0.3082 -0.2170
  843MOL0     C11146  10.262   5.744   8.064  1.0933  0.3779  0.4919
  843MOL0     O11147  10.278   5.718   8.200 -0.6451  0.0819 -0.4034
  843MOL0     C11148  10.336   5.814   8.282  0.0138 -0.1107 -0.1777
  843MOL0     C11149  10.468   5.795   8.313 -0.3647 -0.8636 -0.0062
  843MOL0     C11150  10.530   5.886   8.404 -0.2098  0.4353  0.7018
  843MOL0     C11151  10.459   5.984   8.467  0.5305  0.0934 -0.3247
  843MOL0     O11152  10.500   6.068   8.569  0.4796  0.0572 -0.6236
  843MOL0     C11153  10.630   6.032   8.625 -1.5190 -0.3177  0.7505
  843MOL0     C11154  10.629   6.088   8.774 -0.7214  0.4522  0.4895
  843MOL0     C11155  10.517   6.027   8.855  1.5076 -1.0055 -0.2672
  843MOL0     C11156  10.539   6.074   9.001  0.1328 -0.3987 -0.0761
  843MOL0     C11157  10.409   6.060   9.086  0.0087  0.6724  0.4961
  843MOL0     C11158  10.358   5.915   9.093 -0.3542 -0.0184 -0.3836
  843MOL0     C11159  10.481   5.817   9.133 -0.1887  0.0390 -0.9089
  843MOL0     C11160  10.430   5.685   9.143 -0.5088  0.3688  0.2950
  843MOL0     N11161  10.369   5.651   9.273 -0.2179 -0.5614 -0.4987
  843MOL0     C11162  10.252   5.689   9.329  1.0193  0.9104  0.2710
  843MOL0     C11163  10.252   5.651   9.458 -0.2294 -0.2590  0.2916
  843MOL0     C11164  10.148   5.699   9.563 -0.7092 -0.0741  0.2769
  843MOL0     C11165  10.018   5.616   9.555  0.8326  0.1834  1.0110
  843MOL0     C11166   9.889   5.664   9.627  1.1008  0.0599 -0.4668
  843MOL0     C11167   9.826   5.777   9.541 -0.3191 -0.0307 -0.2034
  843MOL0     O11168   9.755   5.851   9.647 -0.7622 -0.5115  0.1861
  843MOL0     C11169   9.642   5.914   9.603 -0.3149  0.4751 -0.3262
  843MOL0     C11170   9.541   5.912   9.689 -1.0075 -0.3954 -0.4016
  843MOL0     C11171   9.420   5.958   9.660  0.2224 -0.4639  0.2078
  843MOL0     C11172   9.402   6.019   9.534 -0.1798  0.3665 -0.2180
  843MOL0     C11173   9.271   6.070   9.501 -0.7890  0.5222 -0.5637
  843MOL0     O11174   9.179   6.081   9.611 -0.6416  0.8813 -0.3881
  843MOL0     C11175   9.051   6.127   9.578  0.0445  0.3000 -0.5820
  843MOL0     C11176   8.966   6.063   9.482  1.1054  0.1397  0.1275
  843MOL0     C11177   8.830   6.081   9.464 -0.3779  0.1396 -0.2685
  843MOL0     C11178   8.764   6.185   9.539 -0.0669  0.6606 -0.4653
  843MOL0     O11179   8.629   6.199   9.522  0.2692 -0.2674 -0.3381
  843MOL0     C11180   8.556   6.310   9.586 -1.2149  0.4489 -0.1031
  843MOL0     C11181   8.415   6.325   9.527  0.0582  0.3713 -0.3379
  843MOL0     C11182   8.348   6.187   9.554  0.1234 -0.2331  0.5921
  843MOL0     C11183   8.195   6.181   9.517 -0.1153  0.0094  0.5211
  843MOL0     C11184   8.175   6.233   9.372 -0.6143 -0.4865 -0.3036
  843MOL0     C11185   8.046   6.174   9.311  0.4100  0.1378  0.6386
  843MOL0     C11186   7.916   6.200   9.399  0.4259 -0.7858 -0.0841
  843MOL0     C11187   7.783   6.153   9.340 -0.6593 -0.2099  0.4152
  843MOL0    Cl11188   7.739   6.246   9.195  0.2595  0.1025 -0.2511
  843MOL0     C11189   8.842   6.249   9.639 -0.6034  0.3358 -0.4269
  843MOL0     C11190   8.980   6.220   9.658 -0.5427 -0.2053 -0.4309
  843MOL0     O11191   9.238   6.078   9.382  0.0136  0.3307  0.1137
  843MOL0     C11192   9.504   6.022   9.437 -0.3747  0.1494 -0.4243
  843MOL0     C11193   9.632   5.975   9.472  0.5471 -0.1115 -0.6391
  843MOL0     N11194  10.371   5.587   9.478 -0.1486  0.8317  0.3532
  843MOL0     N11195  10.447   5.582   9.376  0.6478 -0.0538 -0.1483
  843MOL0     C11196  10.324   6.004   8.429 -0.6696  0.1415  1.0309
  843MOL0     C11197  10.259   5.912   8.341 -0.0462 -1.0900 -0.2869
  843MOL0     C11198  10.179   5.646   7.979  0.5954  0.1355  0.5078
  843MOL0     C11199  10.171   5.512   8.021  0.3893 -0.8986 -0.3202
  843MOL0     C11200  10.089   5.418   7.954 -0.5381 -0.0630  0.1777
  843MOL0     C11201  10.023   5.462   7.839 -0.3871 -0.1255 -0.2069
  843MOL0     O11202   9.949   5.388   7.747  0.4580 -0.6009 -0.3390
  843MOL0     C11203   9.885   5.268   7.782  0.3586  0.3274  0.6348
  843MOL0     C11204   9.776   5.280   7.892  0.3756 -1.0247 -0.4162
  843MOL0     C11205   9.669   5.381   7.858 -0.6064  0.1656  0.0163
  843MOL0     C11206   9.597   5.439   7.985  0.3477 -0.3617  0.7171
  843MOL0     C11207   9.682   5.543   8.043  1.1011 -0.4721  0.4736
  843MOL0     C11208   9.755   5.627   8.096  0.0074 -0.2053 -0.6615
  843MOL0     C11209  10.033   5.596   7.795  0.0265 -0.0055 -0.4281
  843MOL0     C11210  10.103   5.692   7.864 -0.6751 -0.2061  0.2781
  843MOL0     H11211  10.526   5.712   8.272  0.4986  0.6326 -1.9540
  843MOL0     H11212  10.630   5.854   8.432 -0.3133 -1.2125 -0.6924
  843MOL0     H11213  10.715   6.074   8.569 -2.2413  2.4953  1.6276
  843MOL0     H11214  10.655   5.926   8.634  0.8006 -0.3976 -3.5870
  843MOL0     H11215  10.611   6.196   8.768  1.0222  0.7440 -0.0961
  843MOL0     H11216  10.721   6.059   8.825 -2.1285  1.4453  3.9128
  843MOL0     H11217  10.542   5.921   8.851  2.9549 -0.6679 -0.7527
  843MOL0     H11218  10.418   6.046   8.813  1.9905 -2.7872 -2.3883
  843MOL0     H11219  10.625   6.024   9.047 -0.2420 -0.6925  0.3116
  843MOL0     H11220  10.565   6.181   9.000 -2.3370  0.2891  1.2620
  843MOL0     H11221  10.331   6.130   9.058  1.2043  0.8168 -2.8915
  843MOL0     H11222  10.438   6.083   9.189  2.6283 -2.9862  0.7823
  843MOL0     H11223  10.323   5.874   8.997  1.7323 -1.3512 -0.6271
  843MOL0     H11224  10.279   5.910   9.168  1.6360 -0.7142  1.7855
  843MOL0     H11225  10.565   5.821   9.063  0.8092  2.9350  0.2929
  843MOL0     H11226  10.517   5.836   9.234 -2.5649 -0.6755  0.1433
  843MOL0     H11227  10.518   5.622   9.131  1.0808  2.2691  1.5413
  843MOL0     H11228  10.357   5.662   9.064 -0.1473 -1.5205  0.4469
  843MOL0     H11229  10.174   5.755   9.293  0.9706  1.6665  1.6855
  843MOL0     H11230  10.116   5.800   9.535  1.0233  0.6304  0.7132
  843MOL0     H11231  10.185   5.699   9.666 -2.5193  0.0215  0.9642
  843MOL0     H11232  10.036   5.516   9.594 -1.9326  0.0385  2.1535
  843MOL0     H11233   9.986   5.589   9.454 -3.1028  3.2116  1.1952
  843MOL0     H11234   9.812   5.586   9.632 -0.0511  1.2482  1.1421
  843MOL0     H11235   9.910   5.702   9.727  3.6151  0.3927 -1.0451
  843MOL0     H11236   9.766   5.722   9.468  2.0625 -4.2781  0.6793
  843MOL0     H11237   9.899   5.846   9.498 -1.1778  2.7878  2.4539
  843MOL0     H11238   9.554   5.865   9.786  0.0468  0.7749  0.0566
  843MOL0     H11239   9.339   5.943   9.730  1.6380 -0.5490  1.8862
  843MOL0     H11240   9.005   5.999   9.404  2.8968  0.1791  0.9422
  843MOL0     H11241   8.786   6.027   9.381 -1.0348 -2.1864  1.4527
  843MOL0     H11242   8.612   6.403   9.568 -1.0758  0.3696 -0.0814
  843MOL0     H11243   8.545   6.292   9.693 -1.0905 -0.3502 -0.2207
  843MOL0     H11244   8.427   6.349   9.421  0.6785  0.8802 -0.1557
  843MOL0     H11245   8.357   6.408   9.568  0.6748  0.8007 -0.3115
  843MOL0     H11246   8.374   6.164   9.657  2.1539  0.8495  0.3611
  843MOL0     H11247   8.391   6.114   9.485  0.4272  0.5067 -0.0254
  843MOL0     H11248   8.167   6.077   9.536 -0.2194 -0.6378 -2.6352
  843MOL0     H11249   8.152   6.249   9.591 -1.0331  1.6784 -1.4649
  843MOL0     H11250   8.265   6.222   9.312 -0.4797  0.1878 -0.2257
  843MOL0     H11251   8.161   6.340   9.390  3.4234 -0.0326  1.1274
  843MOL0     H11252   8.052   6.065   9.307  2.4452  0.0780  3.1679
  843MOL0     H11253   8.035   6.212   9.209 -0.4245  0.0748  0.6965
  843MOL0     H11254   7.925   6.160   9.500 -2.7860  1.8055  1.4231
  843MOL0     H11255   7.901   6.308   9.415 -1.9028 -1.1835  0.8527
  843MOL0     H11256   7.707   6.173   9.417  1.4879  3.2211  1.8817
  843MOL0     H11257   7.787   6.048   9.310 -1.1592  0.1552 -0.9841
  843MOL0     H11258   8.806   6.336   9.693 -0.7062  1.3817 -2.0928
  843MOL0     H11259   9.036   6.271   9.736 -0.1856  3.8138 -2.9705
  843MOL0     H11260   9.488   6.075   9.344 -1.5572  1.2631  0.3794
  843MOL0     H11261   9.707   5.966   9.394  0.5947 -1.3791 -0.4617
  843MOL0     H11262  10.277   6.095   8.467  0.9117  1.4410 -0.0129
  843MOL0     H11263  10.156   5.922   8.308 -0.4710 -0.5524  1.1553
  843MOL0     H11264  10.230   5.492   8.110 -0.1817 -0.8099  0.0816
  843MOL0     H11265  10.054   5.321   7.990 -1.2866  0.4071  0.7259
  843MOL0     H11266   9.962   5.193   7.799 -0.8886 -1.5956 -1.6541
  843MOL0     H11267   9.826   5.226   7.701 -2.3431  0.6656  2.2992
  843MOL0     H11268   9.728   5.182   7.903 -0.9888 -0.2321  1.2631
  843MOL0     H11269   9.829   5.308   7.983 -0.2976  2.3173 -0.9281
  843MOL0     H11270   9.600   5.341   7.783  1.2408 -0.4793 -1.4305
  843MOL0     H11271   9.716   5.464   7.804 -0.3066  0.0472  0.0925
  843MOL0     H11272   9.507   5.497   7.962  0.4416 -0.1121  0.9624
  843MOL0     H11273   9.560   5.367   8.058 -3.0582  0.9719  0.4977
  843MOL0     H11274   9.810   5.701   8.150 -2.6772  1.3990  0.0284
  843MOL0     H11275   9.974   5.617   7.707  0.8089 -2.7057 -1.6954
  843MOL0     H11276  10.106   5.796   7.836  1.2184 -0.8178 -2.1248
  844MOL0     O11277   7.241  10.433   3.442 -0.3352 -0.7034 -0.0919
  844MOL0     C11278   7.226  10.457   3.321  0.6782  0.2629 -0.1337
  844MOL0     O11279   7.325  10.459   3.226 -0.4546  0.6339  0.3617
  844MOL0     C11280   7.454  10.434   3.261  0.3968 -0.5248  0.4954
  844MOL0     C11281   7.561  10.524   3.237 -0.6375  0.2169 -0.3335
  844MOL0     C11282   7.691  10.491   3.284  0.8174 -1.1994 -0.2557
  844MOL0     C11283   7.717  10.360   3.325 -0.1953  0.4013  0.2227
  844MOL0     O11284   7.852  10.337   3.342 -0.1950 -0.5082 -0.7577
  844MOL0     C11285   7.894  10.194   3.339  0.8389 -0.7789 -0.3305
  844MOL0     C11286   8.042  10.179   3.307 -0.0189  0.7138  0.1944
  844MOL0     C11287   8.148  10.271   3.382  0.4067 -0.1515  0.5099
  844MOL0     C11288   8.281  10.208   3.372 -0.6480  0.3874  0.6452
  844MOL0     C11289   8.373  10.285   3.462 -1.0775  0.1167  0.4260
  844MOL0     C11290   8.519  10.287   3.399  0.4547 -0.4252  0.1866
  844MOL0     C11291   8.627  10.347   3.491  0.8460  0.9100 -0.0439
  844MOL0     C11292   8.681  10.252   3.595  0.1704  0.5488 -0.6339
  844MOL0     N11293   8.754  10.336   3.697 -0.0975  0.3074  1.5164
  844MOL0     C11294   8.888  10.339   3.715 -0.9369  0.2501 -0.4703
  844MOL0     C11295   8.915  10.427   3.814  0.6842  0.9432 -1.0493
  844MOL0     C11296   9.055  10.466   3.866  0.1875 -1.0311 -0.3730
  844MOL0     C11297   9.052  10.581   3.968  0.0859 -0.2803 -0.4855
  844MOL0     C11298   9.191  10.599   4.013  0.0639  0.1782  0.3650
  844MOL0     C11299   9.209  10.687   4.132  0.8662 -0.3667 -0.2294
  844MOL0     O11300   9.212  10.830   4.086 -0.0559  0.0941  0.0220
  844MOL0     C11301   9.336  10.894   4.092  0.8198  0.4242 -0.1454
  844MOL0     C11302   9.381  10.958   3.978 -0.6166  0.0173  0.6053
  844MOL0     C11303   9.507  11.024   3.988  0.8289 -0.8891  0.6490
  844MOL0     C11304   9.586  11.018   4.102  0.4746  0.2747  0.2123
  844MOL0     C11305   9.725  11.065   4.103 -0.3793  1.3288  0.1540
  844MOL0     O11306   9.764  11.108   4.229 -0.1963  1.0978 -0.6088
  844MOL0     C11307   9.896  11.143   4.247 -0.2721  0.0078  0.7700
  844MOL0     C11308   9.989  11.059   4.308  0.6735 -0.1580  0.3225
  844MOL0     C11309  10.122  11.090   4.308 -0.1328  0.0419  0.3320
  844MOL0     C11310  10.170  11.211   4.256  0.9289  0.1996  0.2539
  844MOL0     O11311  10.302  11.242   4.272  0.4179 -0.1341 -0.7151
  844MOL0     C11312  10.328  11.381   4.272 -0.2298  0.1202  0.3846
  844MOL0     C11313  10.470  11.389   4.335  0.7962 -0.9409  0.1495
  844MOL0     C11314  10.570  11.376   4.214  0.7223 -0.1292 -0.4060
  844MOL0     C11315  10.714  11.363   4.265 -1.1178  0.2787  1.0841
  844MOL0     C11316  10.826  11.390   4.162  0.0613 -1.1784 -0.5376
  844MOL0     C11317  10.956  11.350   4.213  0.2233 -0.4902 -0.0261
  844MOL0     C11318  11.084  11.420   4.159  0.2539 -1.0309  0.1730
  844MOL0     C11319  11.136  11.360   4.042 -0.1249 -0.4772  0.3420
  844MOL0    Cl11320  11.291  11.447   3.995  0.7452  0.1769 -0.0424
  844MOL0     C11321  10.077  11.293   4.199 -0.2393 -0.8986  0.1330
  844MOL0     C11322   9.947  11.259   4.172 -0.1658  0.8706 -0.6286
  844MOL0     O11323   9.791  11.048   4.000  0.2662  0.0543 -0.4827
  844MOL0     C11324   9.534  10.952   4.216  0.2225 -0.5363 -0.4463
  844MOL0     C11325   9.410  10.888   4.215  0.8770  0.0477  0.0603
  844MOL0     N11326   8.795  10.491   3.845 -0.1752 -0.8145  0.4490
  844MOL0     N11327   8.703  10.436   3.770 -0.4024 -0.2182  0.5910
  844MOL0     C11328   7.612  10.269   3.347  0.4398  0.1255  0.1023
  844MOL0     C11329   7.485  10.314   3.311 -0.2724  1.0726  0.3131
  844MOL0     C11330   7.108  10.521   3.269 -0.2974 -0.3295  0.1416
  844MOL0     C11331   7.065  10.499   3.137 -1.2478 -0.4652 -0.1545
  844MOL0     C11332   6.953  10.565   3.084 -0.1681 -0.2837  0.3885
  844MOL0     C11333   6.866  10.645   3.160 -0.6858  0.4093 -0.0668
  844MOL0     O11334   6.763  10.707   3.097 -0.3610 -0.1657  0.3255
  844MOL0     C11335   6.659  10.782   3.175  0.0872 -0.2945  0.1389
  844MOL0     C11336   6.556  10.818   3.073  0.2662 -0.1464  0.0326
  844MOL0     C11337   6.436  10.878   3.142  0.8375 -0.3055  0.8437
  844MOL0     C11338   6.338  10.920   3.030 -0.4678  0.0240 -0.3903
  844MOL0     C11339   6.208  10.849   3.024 -0.1314  0.6386  0.2623
  844MOL0     C11340   6.095  10.803   3.026 -0.0147 -0.3904 -0.2666
  844MOL0     C11341   6.897  10.657   3.293  0.2630  1.7126  0.1627
  844MOL0     C11342   7.017  10.600   3.346  1.3854  0.1192  1.0913
  844MOL0     H11343   7.550  10.619   3.186 -0.1027  0.2796 -0.3401
  844MOL0     H11344   7.773  10.552   3.250 -0.4868  2.5269  2.6610
  844MOL0     H11345   7.829  10.135   3.274  2.5355 -1.6910 -1.2945
  844MOL0     H11346   7.889  10.152   3.440  1.4145 -2.2208 -0.8736
  844MOL0     H11347   8.067  10.193   3.202  2.2426 -2.6894  0.1250
  844MOL0     H11348   8.069  10.074   3.324  0.0009  0.8176  0.8348
  844MOL0     H11349   8.130  10.275   3.489 -2.1303  1.7661  0.1151
  844MOL0     H11350   8.133  10.372   3.341 -2.2058 -0.9041 -0.6670
  844MOL0     H11351   8.286  10.105   3.406 -0.0616  0.3062  0.3290
  844MOL0     H11352   8.320  10.208   3.270  3.2642 -0.2269  1.9882
  844MOL0     H11353   8.365  10.246   3.564 -1.6507  4.0373  2.0387
  844MOL0     H11354   8.356  10.389   3.491 -1.5393  0.5436 -1.2402
  844MOL0     H11355   8.532  10.345   3.307  1.4122  1.1371  1.2636
  844MOL0     H11356   8.547  10.184   3.375  1.1915 -0.3267  0.5899
  844MOL0     H11357   8.707  10.387   3.428  3.1386  0.0303  2.1231
  844MOL0     H11358   8.581  10.429   3.546  2.2515  0.2719  2.2605
  844MOL0     H11359   8.724  10.160   3.554 -0.4565  0.0348 -0.1679
  844MOL0     H11360   8.598  10.204   3.648  0.4775 -0.7207 -1.2535
  844MOL0     H11361   8.961  10.272   3.670  0.6883  0.9016  1.0676
  844MOL0     H11362   9.125  10.488   3.785 -0.3740  2.1014 -0.1398
  844MOL0     H11363   9.092  10.381   3.924 -0.5087 -1.7310 -0.9372
  844MOL0     H11364   9.002  10.550   4.060  2.2267 -0.4276  0.6972
  844MOL0     H11365   9.013  10.676   3.929  1.7877  0.0171 -1.5828
  844MOL0     H11366   9.229  10.500   4.038 -0.7182 -0.8702 -2.2504
  844MOL0     H11367   9.253  10.641   3.932  0.2877 -4.5433 -2.2460
  844MOL0     H11368   9.300  10.654   4.183  0.1455 -2.5201 -0.2458
  844MOL0     H11369   9.131  10.673   4.207 -3.1658 -3.1665 -4.4266
  844MOL0     H11370   9.323  10.960   3.887 -2.2615 -0.1346  1.6056
  844MOL0     H11371   9.546  11.075   3.901 -0.3724  2.1797  1.7736
  844MOL0     H11372   9.969  10.957   4.340 -0.7771 -0.0275 -0.0823
  844MOL0     H11373  10.198  11.026   4.354  0.4226  0.4400 -0.0231
  844MOL0     H11374  10.265  11.436   4.342  1.2815  1.9372  0.4082
  844MOL0     H11375  10.324  11.416   4.168  2.0573  1.8006  0.7850
  844MOL0     H11376  10.481  11.315   4.414 -0.1067 -2.2188 -0.8845
  844MOL0     H11377  10.470  11.490   4.378  1.0600 -0.6218 -0.5857
  844MOL0     H11378  10.574  11.461   4.145 -0.3165  2.8490  2.9304
  844MOL0     H11379  10.545  11.277   4.174  2.6183 -2.2124  3.1152
  844MOL0     H11380  10.718  11.422   4.356 -0.7849 -0.7439  1.7516
  844MOL0     H11381  10.738  11.260   4.293  2.2287  0.2168 -1.3857
  844MOL0     H11382  10.824  11.498   4.144 -2.9251 -0.8074  1.3804
  844MOL0     H11383  10.799  11.336   4.070 -0.4018 -1.5050 -0.2090
  844MOL0     H11384  10.964  11.242   4.193  1.3475 -0.5100  0.4447
  844MOL0     H11385  10.964  11.364   4.321 -1.6374  0.0003  0.0702
  844MOL0     H11386  11.056  11.526   4.154  0.3692 -0.9714  0.6639
  844MOL0     H11387  11.161  11.416   4.237 -1.4841  1.4758  2.2341
  844MOL0     H11388  11.057  11.369   3.967  1.3100  0.1078 -1.1679
  844MOL0     H11389  11.161  11.254   4.046  1.4664 -0.2305 -1.4866
  844MOL0     H11390  10.109  11.389   4.162 -0.5120  0.2757  2.6833
  844MOL0     H11391   9.880  11.323   4.116 -3.5687 -0.7143  1.2979
  844MOL0     H11392   9.582  10.952   4.314  0.2439 -0.4324 -0.4565
  844MOL0     H11393   9.360  10.856   4.305  1.2819  1.3816  0.7866
  844MOL0     H11394   7.625  10.164   3.372  0.4194  0.4990  1.8063
  844MOL0     H11395   7.414  10.232   3.319  2.5850 -1.5919  0.3426
  844MOL0     H11396   7.129  10.442   3.070 -0.7877  0.6815 -0.7302
  844MOL0     H11397   6.919  10.561   2.981  1.9645 -1.5518 -0.3302
  844MOL0     H11398   6.694  10.872   3.225  0.9273  1.2355 -3.0397
  844MOL0     H11399   6.615  10.717   3.253 -2.7592  1.0367 -0.2160
  844MOL0     H11400   6.588  10.894   3.002 -0.6032 -1.3254 -1.6999
  844MOL0     H11401   6.531  10.728   3.016  3.7862 -0.1556 -1.7544
  844MOL0     H11402   6.444  10.961   3.213 -1.5116  2.5680 -1.9436
  844MOL0     H11403   6.381  10.798   3.191  0.2548 -0.7021 -0.4227
  844MOL0     H11404   6.322  11.029   3.034  0.1743  0.1723 -1.3367
  844MOL0     H11405   6.379  10.912   2.929 -2.0449 -2.9861 -0.9010
  844MOL0     H11406   5.996  10.763   3.033  0.3271 -1.4951 -1.4025
  844MOL0     H11407   6.832  10.717   3.356 -0.1796  1.1666  0.2336
  844MOL0     H11408   7.043  10.626   3.449  3.5352  3.1908 -0.0599
  845MOL0     O11409   9.872   9.547   5.531  0.1686  0.0427  0.0002
  845MOL0     C11410   9.880   9.617   5.627  0.9166  0.6677 -0.6462
  845MOL0     O11411   9.814   9.609   5.746  0.0209 -0.4653  0.3309
  845MOL0     C11412   9.729   9.506   5.779 -0.7819 -0.6325  0.2360
  845MOL0     C11413   9.725   9.489   5.916 -0.2032  1.1612  0.5552
  845MOL0     C11414   9.637   9.396   5.969 -0.3574 -0.4069 -0.2846
  845MOL0     C11415   9.545   9.330   5.886 -1.3429  0.2674  0.1378
  845MOL0     O11416   9.453   9.243   5.929  0.9881  0.6317 -0.2339
  845MOL0     C11417   9.354   9.306   6.015  0.0577  1.0429  1.7067
  845MOL0     C11418   9.232   9.219   6.042  0.0700  0.2255  0.4012
  845MOL0     C11419   9.115   9.268   5.961  0.6731  0.0533  0.7648
  845MOL0     C11420   9.138   9.241   5.816 -0.3879 -0.2712  0.9773
  845MOL0     C11421   9.008   9.268   5.737  0.2892 -0.0580  0.3897
  845MOL0     C11422   8.924   9.138   5.750  0.0713 -0.0835 -0.3265
  845MOL0     C11423   8.803   9.133   5.667  0.0630 -0.0553  0.8143
  845MOL0     C11424   8.692   9.232   5.712  0.1563 -0.1614  0.6839
  845MOL0     N11425   8.576   9.220   5.620 -0.5342 -0.2039  0.1792
  845MOL0     C11426   8.445   9.175   5.658  0.2402 -0.2003 -0.2740
  845MOL0     C11427   8.375   9.162   5.544  0.9458 -0.4727  0.8746
  845MOL0     C11428   8.233   9.113   5.529 -0.1479  0.0173 -1.0184
  845MOL0     C11429   8.143   9.195   5.445 -0.8798 -0.1731 -0.2618
  845MOL0     C11430   7.997   9.202   5.496 -0.6409 -0.1488  0.3008
  845MOL0     C11431   7.896   9.287   5.419  0.0491 -0.5152  0.2675
  845MOL0     O11432   7.771   9.296   5.495 -0.0206  0.0179 -0.0282
  845MOL0     C11433   7.653   9.350   5.434 -0.5692 -0.2631 -0.1139
  845MOL0     C11434   7.533   9.354   5.497 -0.5485  0.0266  0.0400
  845MOL0     C11435   7.417   9.417   5.446 -0.0429 -0.0770  1.0077
  845MOL0     C11436   7.427   9.492   5.328 -0.3726 -0.1788 -0.3407
  845MOL0     C11437   7.316   9.576   5.289  1.3508  0.6863  0.6909
  845MOL0     O11438   7.201   9.507   5.303 -0.6890 -0.3429 -0.1420
  845MOL0     C11439   7.081   9.554   5.263  1.3215  0.2425 -1.0711
  845MOL0     C11440   7.038   9.669   5.190 -0.1453 -0.0973  0.1085
  845MOL0     C11441   6.900   9.688   5.163 -0.0430  0.0107 -0.1396
  845MOL0     C11442   6.801   9.608   5.226 -0.0077  0.2339  0.1597
  845MOL0     O11443   6.669   9.641   5.198  0.1474 -0.3580 -1.0966
  845MOL0     C11444   6.563   9.606   5.293  0.8835 -0.6735  0.2408
  845MOL0     C11445   6.420   9.672   5.278 -0.1375 -0.0130  0.1493
  845MOL0     C11446   6.322   9.595   5.362 -0.7423 -0.6553  0.2397
  845MOL0     C11447   6.353   9.608   5.516  0.1359 -0.2069 -0.0944
  845MOL0     C11448   6.248   9.528   5.582  0.1461 -0.0663  0.1417
  845MOL0     C11449   6.263   9.504   5.733 -0.2152 -0.3486  1.4937
  845MOL0     C11450   6.219   9.613   5.818 -0.5332  0.2106 -0.6260
  845MOL0     C11451   6.340   9.714   5.841  0.6907  0.8764 -0.0127
  845MOL0    Cl11452   6.270   9.828   5.974 -0.3098  0.3209 -0.1468
  845MOL0     C11453   6.842   9.507   5.308  0.4894 -0.1579 -0.0823
  845MOL0     C11454   6.978   9.478   5.322  0.1246  0.1127 -0.8328
  845MOL0     O11455   7.328   9.683   5.233  0.2760  0.6431 -0.2479
  845MOL0     C11456   7.548   9.488   5.259 -0.8712  0.3622 -0.1028
  845MOL0     C11457   7.653   9.410   5.309 -0.8303 -0.2478 -0.1628
  845MOL0     N11458   8.458   9.196   5.443  0.0650  1.1528  0.3547
  845MOL0     N11459   8.577   9.243   5.486  0.0738 -0.0493 -0.0328
  845MOL0     C11460   9.579   9.328   5.750 -0.3583  0.5996  0.4972
  845MOL0     C11461   9.666   9.418   5.688 -0.2743  0.0077  0.0186
  845MOL0     C11462   9.973   9.725   5.605 -0.3817  0.2248 -0.1185
  845MOL0     C11463   9.984   9.834   5.699 -0.9020  0.3493 -0.7129
  845MOL0     C11464  10.069   9.937   5.680 -1.0340  0.4413 -0.3600
  845MOL0     C11465  10.140   9.944   5.563 -0.8018 -0.3898 -0.1432
  845MOL0     O11466  10.214  10.061   5.552 -0.6835  0.9315  0.1450
  845MOL0     C11467  10.251  10.114   5.424  0.8944 -0.6299  0.3477
  845MOL0     C11468  10.382  10.062   5.379  0.4556 -0.9309  0.0045
  845MOL0     C11469  10.494  10.065   5.476 -0.5346 -0.5871  0.4536
  845MOL0     C11470  10.622  10.124   5.421  0.5565  0.1311 -1.0593
  845MOL0     C11471  10.692  10.042   5.319 -0.3990  0.5939  0.7633
  845MOL0     C11472  10.741   9.966   5.234  0.2242 -1.2504  0.0797
  845MOL0     C11473  10.138   9.837   5.470  0.2231 -0.5280  0.2065
  845MOL0     C11474  10.062   9.729   5.497  0.5315 -0.0521  0.2848
  845MOL0     H11475   9.788   9.559   5.971  0.6804  0.2521  0.7382
  845MOL0     H11476   9.630   9.399   6.077  2.3002 -2.8950  0.0850
  845MOL0     H11477   9.339   9.406   5.974  2.6445  0.2956 -1.4305
  845MOL0     H11478   9.409   9.328   6.107  2.5511  5.0094 -0.4407
  845MOL0     H11479   9.212   9.220   6.150 -0.9009 -2.1985  0.3078
  845MOL0     H11480   9.252   9.115   6.017 -0.8644  0.1167  0.0686
  845MOL0     H11481   9.099   9.374   5.982  1.0586  0.3661 -0.4440
  845MOL0     H11482   9.027   9.209   5.990  0.8399 -0.8865 -0.5726
  845MOL0     H11483   9.206   9.305   5.759 -2.0610 -0.1696 -1.0402
  845MOL0     H11484   9.167   9.138   5.794  0.0610 -0.2181  1.3088
  845MOL0     H11485   9.031   9.293   5.633 -1.6077  2.0655  0.4012
  845MOL0     H11486   8.953   9.352   5.782 -0.3127 -0.0120 -0.3945
  845MOL0     H11487   8.881   9.123   5.849  0.1378 -2.2643 -0.5753
  845MOL0     H11488   8.989   9.051   5.735  2.6946  1.0785  3.2137
  845MOL0     H11489   8.836   9.154   5.565 -2.1358  3.6851  0.6773
  845MOL0     H11490   8.768   9.029   5.670  0.4918 -0.1983  0.8377
  845MOL0     H11491   8.735   9.332   5.719  1.2742 -0.7413  3.0455
  845MOL0     H11492   8.658   9.207   5.813 -0.6970 -0.3914  0.3448
  845MOL0     H11493   8.404   9.151   5.755 -0.1511  1.5912  0.0455
  845MOL0     H11494   8.199   9.125   5.633 -0.7413 -0.9053 -1.0976
  845MOL0     H11495   8.222   9.006   5.512  0.5002 -0.0513 -1.0306
  845MOL0     H11496   8.148   9.152   5.345 -0.7565  0.4701 -0.5343
  845MOL0     H11497   8.179   9.299   5.442  1.6396 -0.8916  1.3802
  845MOL0     H11498   7.943   9.107   5.509 -1.3245  0.1874 -0.0065
  845MOL0     H11499   8.018   9.230   5.600  1.2666  0.3935 -0.2012
  845MOL0     H11500   7.873   9.247   5.320 -0.9288  4.3500 -1.7605
  845MOL0     H11501   7.924   9.389   5.392 -3.2150 -0.3556 -3.4981
  845MOL0     H11502   7.527   9.308   5.595 -3.3490 -1.2133 -0.6180
  845MOL0     H11503   7.332   9.416   5.513 -0.7660 -1.1019  0.1021
  845MOL0     H11504   7.108   9.741   5.150 -0.2948  1.4266  2.3994
  845MOL0     H11505   6.863   9.776   5.110  0.1540  0.4026  0.3748
  845MOL0     H11506   6.607   9.634   5.389  1.3171  0.2086 -0.1949
  845MOL0     H11507   6.550   9.498   5.287 -2.4896 -0.3332 -4.3601
  845MOL0     H11508   6.396   9.659   5.172  0.9106 -1.2775  0.0499
  845MOL0     H11509   6.435   9.779   5.292 -3.7491  0.6687 -0.0317
  845MOL0     H11510   6.336   9.494   5.325  2.3344 -0.3007  0.1744
  845MOL0     H11511   6.219   9.629   5.346 -0.4278 -0.7282 -2.3024
  845MOL0     H11512   6.451   9.565   5.539 -0.3073 -0.3306  1.7507
  845MOL0     H11513   6.353   9.711   5.555  0.2964 -0.2238 -0.0521
  845MOL0     H11514   6.236   9.433   5.529 -3.6639  0.1172  0.4361
  845MOL0     H11515   6.153   9.581   5.568  0.6147  0.6229 -0.5460
  845MOL0     H11516   6.366   9.476   5.753  1.1157  1.0116 -2.5240
  845MOL0     H11517   6.211   9.412   5.759  0.0117 -2.0494 -3.1423
  845MOL0     H11518   6.135   9.673   5.780  0.0140  0.7769 -0.9667
  845MOL0     H11519   6.200   9.563   5.913  2.9507 -2.9403 -1.3672
  845MOL0     H11520   6.364   9.774   5.752  0.0065  0.3875 -0.5361
  845MOL0     H11521   6.426   9.657   5.876 -0.7412 -1.5350 -0.1775
  845MOL0     H11522   6.764   9.449   5.356  0.7678  0.4490  1.1787
  845MOL0     H11523   7.010   9.393   5.381 -2.1343  0.7016  1.4641
  845MOL0     H11524   7.560   9.531   5.161  0.9092 -3.2489 -1.6564
  845MOL0     H11525   7.744   9.407   5.251 -0.1297  2.9650  0.5652
  845MOL0     H11526   9.527   9.252   5.692 -1.5254  0.6112  1.4760
  845MOL0     H11527   9.683   9.404   5.582 -2.0450 -1.5358 -0.1012
  845MOL0     H11528   9.939   9.846   5.798  0.8494  0.9852  0.0436
  845MOL0     H11529  10.068  10.018   5.752  0.6110 -3.3079  4.3822
  845MOL0     H11530  10.238  10.223   5.422  0.0123 -0.7279  0.3528
  845MOL0     H11531  10.186  10.077   5.344  3.8376 -0.9423 -2.0941
  845MOL0     H11532  10.356   9.956   5.370  0.9106 -1.0228 -0.2524
  845MOL0     H11533  10.418  10.094   5.281  3.7274 -2.1858  0.6753
  845MOL0     H11534  10.528   9.965   5.504  0.6332 -0.2452  0.3153
  845MOL0     H11535  10.482  10.125   5.567  4.8544  0.7118  0.6454
  845MOL0     H11536  10.608  10.220   5.369  0.8627 -0.0438 -1.4725
  845MOL0     H11537  10.685  10.151   5.506 -0.6085 -1.6183  0.4190
  845MOL0     H11538  10.775   9.912   5.148  0.6876  0.4255 -0.8340
  845MOL0     H11539  10.203   9.843   5.383  0.0410 -0.6589  0.0605
  845MOL0     H11540  10.061   9.638   5.437 -0.2850 -0.1715  0.4682
  846MOL0     O11541   8.704   4.740   0.345 -0.8798 -0.1431 -0.5250
  846MOL0     C11542   8.761   4.784   0.240 -0.5633  0.0313 -0.0315
  846MOL0     O11543   8.711   4.876   0.155  0.0867  0.0299 -0.1282
  846MOL0     C11544   8.615   4.971   0.189  0.8031  0.8353 -0.4690
  846MOL0     C11545   8.557   4.993   0.319  0.2499  0.8027 -1.2132
  846MOL0     C11546   8.448   5.083   0.331 -0.3390 -0.2547  0.1190
  846MOL0     C11547   8.391   5.153   0.224 -0.5834  0.6244 -0.1186
  846MOL0     O11548   8.279   5.234   0.237 -0.1076  0.3014 -0.5277
  846MOL0     C11549   8.229   5.284   0.118  0.5754 -0.1173  0.3315
  846MOL0     C11550   8.102   5.361   0.160  0.0711  0.3438 -0.4523
  846MOL0     C11551   8.024   5.426   0.042 -0.0528  0.1180  0.4873
  846MOL0     C11552   7.900   5.490   0.088  0.1042  0.1958  0.0146
  846MOL0     C11553   7.843   5.574  -0.029 -1.2109  0.4578  0.4204
  846MOL0     C11554   7.720   5.656  -0.003 -0.4131 -0.0322 -0.1149
  846MOL0     C11555   7.599   5.573   0.048 -0.1367  0.0807 -1.0110
  846MOL0     C11556   7.470   5.650   0.030 -0.6626 -0.1787  0.5774
  846MOL0     N11557   7.361   5.566   0.057  0.0743 -0.6590 -0.3831
  846MOL0     C11558   7.302   5.475  -0.036 -0.5552 -0.1965  0.0049
  846MOL0     C11559   7.200   5.421   0.022 -0.4928 -0.2283 -0.4150
  846MOL0     C11560   7.103   5.321  -0.035  0.6169 -1.4560 -0.4481
  846MOL0     C11561   6.994   5.410  -0.095 -0.3268 -0.5043 -0.2446
  846MOL0     C11562   6.909   5.316  -0.177  0.4132 -0.4916 -0.2987
  846MOL0     C11563   6.826   5.401  -0.276 -0.0636  0.3609 -0.0074
  846MOL0     O11564   6.723   5.333  -0.359 -0.6897  0.4929 -0.4257
  846MOL0     C11565   6.594   5.333  -0.314 -0.3951 -0.3612  0.0966
  846MOL0     C11566   6.492   5.343  -0.414  0.2524 -0.4769 -0.0803
  846MOL0     C11567   6.356   5.366  -0.374 -0.4845 -1.0464  1.0204
  846MOL0     C11568   6.324   5.375  -0.236 -1.3244  0.2660 -0.0168
  846MOL0     C11569   6.184   5.373  -0.203 -0.2304 -0.2821 -0.6832
  846MOL0     O11570   6.089   5.381  -0.309  0.3496  0.1135  0.1906
  846MOL0     C11571   5.958   5.432  -0.278  0.1899  0.3313  0.2243
  846MOL0     C11572   5.843   5.365  -0.301  0.3871 -0.2593 -0.8385
  846MOL0     C11573   5.718   5.430  -0.280 -0.3967  0.5697  1.0267
  846MOL0     C11574   5.714   5.561  -0.246  0.4691  0.1736 -0.4187
  846MOL0     O11575   5.595   5.631  -0.255  0.4029 -0.1826  1.1230
  846MOL0     C11576   5.572   5.697  -0.379 -0.6307  0.7546  0.2158
  846MOL0     C11577   5.445   5.772  -0.384  0.8724 -0.0843  0.8946
  846MOL0     C11578   5.317   5.701  -0.420 -0.0330  0.5470 -0.6996
  846MOL0     C11579   5.320   5.632  -0.559 -0.1885  0.6813  0.2476
  846MOL0     C11580   5.171   5.580  -0.568 -0.0646  0.6938  0.0084
  846MOL0     C11581   5.114   5.609  -0.711  0.6970  0.2699  0.5233
  846MOL0     C11582   5.094   5.757  -0.726 -0.3355 -0.2483 -0.4688
  846MOL0     C11583   5.055   5.808  -0.869 -0.9173 -1.1594  0.5187
  846MOL0    Cl11584   4.884   5.761  -0.897 -0.0893 -0.1062 -0.0813
  846MOL0     C11585   5.830   5.631  -0.220  0.4138 -1.0460 -0.5185
  846MOL0     C11586   5.951   5.564  -0.230  0.4308  0.0256 -0.9918
  846MOL0     O11587   6.156   5.335  -0.091 -0.3581  0.1429  0.1804
  846MOL0     C11588   6.433   5.354  -0.139 -0.3088 -1.1446  0.3838
  846MOL0     C11589   6.563   5.341  -0.174 -0.0769 -0.0489  0.8140
  846MOL0     N11590   7.197   5.471   0.156  0.4638  0.6124  0.9118
  846MOL0     N11591   7.288   5.559   0.173  0.0392  0.4101  0.1067
  846MOL0     C11592   8.451   5.134   0.102 -0.1010 -0.2565  0.2021
  846MOL0     C11593   8.563   5.049   0.083  0.0436  0.1784  0.4629
  846MOL0     C11594   8.895   4.714   0.206 -0.3224  0.1332  0.0686
  846MOL0     C11595   8.962   4.732   0.090  0.0123 -0.2491  0.4160
  846MOL0     C11596   9.090   4.679   0.067 -1.1673  0.0314  0.1045
  846MOL0     C11597   9.154   4.601   0.160 -0.4173 -0.1734 -0.1400
  846MOL0     O11598   9.265   4.536   0.131 -0.6441  0.3321  0.0845
  846MOL0     C11599   9.364   4.510   0.237  0.5958  0.2196  0.2880
  846MOL0     C11600   9.477   4.414   0.212 -0.0718 -0.4153 -0.5594
  846MOL0     C11601   9.555   4.384   0.334  0.1650 -0.1446 -0.8747
  846MOL0     C11602   9.664   4.485   0.352  0.1911  0.8519 -0.2961
  846MOL0     C11603   9.744   4.456   0.474 -0.2269  0.0167  0.8671
  846MOL0     C11604   9.807   4.424   0.572  0.3786  0.0126  0.0578
  846MOL0     C11605   9.085   4.568   0.277 -0.1858  0.3062 -0.1093
  846MOL0     C11606   8.961   4.624   0.300 -0.5561 -0.5784  1.0179
  846MOL0     H11607   8.593   4.940   0.407 -1.2109 -0.5384 -1.3830
  846MOL0     H11608   8.408   5.123   0.424 -2.9268  3.9938 -2.4916
  846MOL0     H11609   8.192   5.215   0.042  1.5626 -0.4472  0.1433
  846MOL0     H11610   8.300   5.358   0.079 -0.9848  2.0987  1.4272
  846MOL0     H11611   8.127   5.450   0.218  0.0488  0.2366 -0.2785
  846MOL0     H11612   8.032   5.296   0.213  0.4927  0.7614  0.6404
  846MOL0     H11613   8.009   5.352  -0.037  2.4857  0.3809 -0.3230
  846MOL0     H11614   8.084   5.505  -0.004 -1.2875 -0.5478 -2.5069
  846MOL0     H11615   7.824   5.416   0.115  0.2040 -0.8346 -2.3234
  846MOL0     H11616   7.920   5.550   0.177 -1.4748 -0.2534  0.7024
  846MOL0     H11617   7.815   5.520  -0.120 -0.3707  0.2284  0.2867
  846MOL0     H11618   7.921   5.646  -0.056  1.7383 -2.3285  0.9429
  846MOL0     H11619   7.681   5.713  -0.089 -1.3894 -1.7963 -0.9052
  846MOL0     H11620   7.744   5.723   0.080  1.2632 -1.0788  0.2851
  846MOL0     H11621   7.597   5.489  -0.022  1.6544 -0.4388 -0.4804
  846MOL0     H11622   7.613   5.541   0.151  2.1730  2.2735 -0.5397
  846MOL0     H11623   7.469   5.686  -0.073 -1.1646 -3.8396 -0.8363
  846MOL0     H11624   7.454   5.734   0.100 -1.7252 -0.6369  0.9058
  846MOL0     H11625   7.340   5.457  -0.136 -1.4782  1.6667 -0.7308
  846MOL0     H11626   7.064   5.257   0.045 -0.9414  0.3522  0.3045
  846MOL0     H11627   7.147   5.267  -0.120  0.3450 -3.1764  0.4458
  846MOL0     H11628   7.025   5.479  -0.174 -4.6305  0.1678 -1.5873
  846MOL0     H11629   6.937   5.459  -0.016  0.6293  0.1281  0.0681
  846MOL0     H11630   6.977   5.250  -0.233  1.1954  0.1872 -0.1622
  846MOL0     H11631   6.863   5.253  -0.100  2.8933 -1.3814  0.5563
  846MOL0     H11632   6.895   5.451  -0.345  0.1604  0.4291  0.2694
  846MOL0     H11633   6.771   5.479  -0.222 -1.2237  0.2876 -1.0136
  846MOL0     H11634   6.507   5.346  -0.521 -1.2288  1.8243 -0.2976
  846MOL0     H11635   6.283   5.364  -0.454  1.7034  0.5080 -1.1892
  846MOL0     H11636   5.851   5.257  -0.316 -3.4868 -0.9555  0.6978
  846MOL0     H11637   5.628   5.371  -0.295  0.9361 -1.5556  1.0606
  846MOL0     H11638   5.577   5.619  -0.456  1.9060  1.1672 -0.1286
  846MOL0     H11639   5.658   5.761  -0.403 -1.9716  2.4827 -0.1307
  846MOL0     H11640   5.476   5.850  -0.453  4.9114 -2.2823 -0.1006
  846MOL0     H11641   5.434   5.822  -0.287  2.7137  0.3491  0.8987
  846MOL0     H11642   5.230   5.767  -0.411  3.0274  4.9920 -0.2993
  846MOL0     H11643   5.320   5.622  -0.345 -1.3843  0.5758 -0.5887
  846MOL0     H11644   5.364   5.693  -0.638  2.8251 -2.4173 -0.7192
  846MOL0     H11645   5.387   5.546  -0.561  2.6208  2.5687  2.8685
  846MOL0     H11646   5.105   5.639  -0.504 -0.2594  3.4278 -2.5077
  846MOL0     H11647   5.163   5.473  -0.548 -0.5166  1.2089  3.1094
  846MOL0     H11648   5.030   5.551  -0.749  2.1563  0.3857 -3.3661
  846MOL0     H11649   5.199   5.588  -0.777  0.6535  2.4680 -0.2832
  846MOL0     H11650   5.014   5.790  -0.659 -1.4918 -1.8834 -0.9697
  846MOL0     H11651   5.184   5.808  -0.692  0.5708 -0.7104 -2.0685
  846MOL0     H11652   5.125   5.771  -0.944  0.1118  1.2425  0.1661
  846MOL0     H11653   5.058   5.918  -0.870 -1.7975 -1.1398 -0.3276
  846MOL0     H11654   5.820   5.728  -0.173 -1.4180 -2.9329  3.4012
  846MOL0     H11655   6.045   5.609  -0.201 -0.2024  0.5257  0.4306
  846MOL0     H11656   6.393   5.343  -0.039 -0.6464  0.8614  0.4945
  846MOL0     H11657   6.640   5.327  -0.099  1.6020 -0.5544 -0.9101
  846MOL0     H11658   8.411   5.179   0.012  0.7619 -3.7022 -2.1328
  846MOL0     H11659   8.618   5.044  -0.010  2.3260 -0.4871  1.7758
  846MOL0     H11660   8.924   4.801   0.015  1.7382 -0.3453 -0.6125
  846MOL0     H11661   9.138   4.697  -0.028 -1.5111  0.1491 -0.0492
  846MOL0     H11662   9.313   4.497   0.333  1.4335  1.4952  0.9348
  846MOL0     H11663   9.419   4.604   0.252  0.5824  0.5755 -1.6065
  846MOL0     H11664   9.449   4.319   0.166  0.7126 -0.0307 -1.8727
  846MOL0     H11665   9.544   4.463   0.140  0.7742  0.6397  0.8773
  846MOL0     H11666   9.601   4.285   0.329 -1.2370 -0.9353  0.7542
  846MOL0     H11667   9.492   4.396   0.423  0.3198 -0.3099 -0.7422
  846MOL0     H11668   9.735   4.487   0.269 -1.6863 -0.4986 -2.0278
  846MOL0     H11669   9.627   4.588   0.361 -0.3498  0.8104 -1.8097
  846MOL0     H11670   9.869   4.399   0.655 -1.5706  1.3184  2.0237
  846MOL0     H11671   9.121   4.495   0.350  0.0880 -0.8248 -1.3416
  846MOL0     H11672   8.908   4.606   0.393 -1.6359  3.5307  1.3991
  847MOL0     O11673  10.593   4.969  11.006 -0.4121 -0.6266 -0.3751
  847MOL0     C11674  10.672   5.055  11.027 -0.4340  0.4113  0.1145
  847MOL0     O11675  10.649   5.188  11.013  0.2531  0.5942 -0.6641
  847MOL0     C11676  10.525   5.243  11.026  0.8682 -0.3734  0.6026
  847MOL0     C11677  10.465   5.324  10.934 -0.2665 -1.0671 -1.3395
  847MOL0     C11678  10.335   5.360  10.948 -0.4689 -0.2152 -0.2283
  847MOL0     C11679  10.253   5.338  11.050 -1.0954 -0.2350  0.2925
  847MOL0     O11680  10.131   5.397  11.062 -0.4042  0.1271 -0.3323
  847MOL0     C11681  10.117   5.534  11.053  0.6217  0.3538 -0.2280
  847MOL0     C11682   9.980   5.599  11.076  0.5952  0.4117  0.5679
  847MOL0     C11683   9.868   5.544  10.976  0.2537 -0.1011  0.5982
  847MOL0     C11684   9.744   5.627  11.005 -1.0885  0.9936  0.3630
  847MOL0     C11685   9.750   5.766  10.939  0.1473  0.0844  0.3349
  847MOL0     C11686   9.609   5.834  10.928  1.3764  0.0110  0.1847
  847MOL0     C11687   9.511   5.839  11.047  0.3084 -0.2236 -0.9846
  847MOL0     C11688   9.541   5.957  11.148 -0.2133 -0.0908  0.1199
  847MOL0     N11689   9.671   5.945  11.206 -0.5050  1.3478 -0.8632
  847MOL0     C11690   9.779   6.014  11.161 -0.7705 -0.0713 -0.3350
  847MOL0     C11691   9.878   5.988  11.248 -0.5650 -0.6660 -0.9633
  847MOL0     C11692  10.018   6.045  11.260 -0.1573  0.2042  0.1854
  847MOL0     C11693  10.109   5.941  11.310 -0.9911 -0.1460  0.1735
  847MOL0     C11694  10.254   5.994  11.317 -0.2328 -0.5644 -0.8538
  847MOL0     C11695  10.347   5.896  11.380 -0.5567 -0.5476 -0.4393
  847MOL0     O11696  10.300   5.758  11.373  1.0843 -0.3346 -0.7467
  847MOL0     C11697  10.383   5.652  11.393  0.1861  0.1468  1.6090
  847MOL0     C11698  10.338   5.519  11.381 -0.3018  0.2950 -0.3665
  847MOL0     C11699  10.421   5.403  11.394 -0.0501 -0.5990  0.3255
  847MOL0     C11700  10.557   5.421  11.418 -0.1664 -0.7310 -0.2990
  847MOL0     C11701  10.647   5.305  11.435  0.5668  0.2414  1.0028
  847MOL0     O11702  10.769   5.324  11.478  0.5931 -0.0256  0.3125
  847MOL0     C11703  10.861   5.225  11.470 -0.5349  0.7149 -0.2859
  847MOL0     C11704  10.905   5.172  11.356  0.3813 -0.3079 -0.1144
  847MOL0     C11705  11.019   5.092  11.364  0.0097 -0.5902 -0.8156
  847MOL0     C11706  11.088   5.052  11.479 -0.1821 -0.0894 -0.5220
  847MOL0     O11707  11.199   4.970  11.453 -0.2206  0.0001 -0.3306
  847MOL0     C11708  11.184   4.849  11.519 -0.6336  0.8843 -0.1366
  847MOL0     C11709  11.220   4.865  11.666 -1.1638  0.3117 -0.8051
  847MOL0     C11710  11.273   4.740  11.731 -0.0771  0.1625  0.6505
  847MOL0     C11711  11.318   4.771  11.875 -0.0687  0.2691  0.3513
  847MOL0     C11712  11.384   4.647  11.951 -0.6513  0.0551  0.7557
  847MOL0     C11713  11.436   4.693  12.081  0.2413  0.3286  0.0759
  847MOL0     C11714  11.486   4.560  12.150  0.3297 -0.7627  0.4539
  847MOL0     C11715  11.636   4.544  12.150  0.5524  0.6821  0.1708
  847MOL0    Cl11716  11.675   4.408  12.246  0.0738  0.3641  0.2366
  847MOL0     C11717  11.042   5.107  11.600  0.2527 -1.0725 -0.7475
  847MOL0     C11718  10.932   5.206  11.590 -0.6508  0.1370 -1.1335
  847MOL0     O11719  10.594   5.191  11.410 -0.7313 -0.7721 -0.4225
  847MOL0     C11720  10.607   5.552  11.438 -0.0442  0.8504  0.0578
  847MOL0     C11721  10.516   5.661  11.427 -0.1242 -0.3699 -0.6971
  847MOL0     N11722   9.834   5.897  11.336  1.1177  0.0350  0.2388
  847MOL0     N11723   9.703   5.884  11.322 -0.1074  0.8279  0.8463
  847MOL0     C11724  10.302   5.232  11.127 -0.8993  0.3193 -0.1590
  847MOL0     C11725  10.434   5.198  11.123 -0.6373  0.3972  0.9564
  847MOL0     C11726  10.814   5.010  11.036  0.1165  0.3495  0.4365
  847MOL0     C11727  10.848   4.886  11.090  0.3543  0.2389 -0.5440
  847MOL0     C11728  10.982   4.838  11.078 -0.1394  0.1043 -0.1518
  847MOL0     C11729  11.076   4.916  11.034  0.4797 -0.7253 -0.0714
  847MOL0     O11730  11.209   4.868  11.044  0.4522 -0.5892 -0.2790
  847MOL0     C11731  11.309   4.961  11.074  0.0680  0.0970  0.0998
  847MOL0     C11732  11.418   4.881  11.162  0.9281 -0.0657 -0.2638
  847MOL0     C11733  11.514   4.968  11.247 -0.3672  0.0797  0.3414
  847MOL0     C11734  11.570   4.897  11.368  1.0046 -0.0686 -0.0087
  847MOL0     C11735  11.643   4.782  11.322  0.4071  0.1984  0.2713
  847MOL0     C11736  11.703   4.680  11.281  0.1663  0.4442  0.9142
  847MOL0     C11737  11.046   5.049  10.989 -0.2745 -0.5078 -0.0813
  847MOL0     C11738  10.918   5.095  10.988  0.4362  0.4490  0.0399
  847MOL0     H11739  10.516   5.352  10.842  2.8998  1.2382  0.9038
  847MOL0     H11740  10.300   5.422  10.866 -0.4026  1.7322  1.1315
  847MOL0     H11741  10.148   5.578  10.958  1.4383  1.9593  0.7219
  847MOL0     H11742  10.188   5.584  11.120  2.0366 -1.2158 -0.4835
  847MOL0     H11743   9.991   5.708  11.076  1.1064  0.3758 -0.6037
  847MOL0     H11744   9.942   5.579  11.177  1.8496  1.3229  1.2515
  847MOL0     H11745   9.848   5.442  11.011 -1.0437  0.0293  0.3094
  847MOL0     H11746   9.902   5.542  10.872 -1.1407 -5.6353 -0.0800
  847MOL0     H11747   9.660   5.573  10.960  0.3395 -3.2560  2.2560
  847MOL0     H11748   9.727   5.629  11.113 -0.8100 -3.6663  0.6889
  847MOL0     H11749   9.796   5.769  10.840 -1.7109  0.9324 -0.5482
  847MOL0     H11750   9.814   5.828  11.002 -0.8540  0.5416  0.9325
  847MOL0     H11751   9.549   5.801  10.843 -0.7224  1.3171  1.0735
  847MOL0     H11752   9.625   5.937  10.895  1.7263  0.1651  0.8309
  847MOL0     H11753   9.414   5.870  11.006  0.8770 -0.6404 -2.6850
  847MOL0     H11754   9.496   5.742  11.095 -0.2732 -1.0918 -2.8302
  847MOL0     H11755   9.464   5.961  11.226  0.0080  0.8160  0.3050
  847MOL0     H11756   9.541   6.054  11.098  1.2440  0.3306  0.8796
  847MOL0     H11757   9.786   6.074  11.071 -0.8256 -0.8009 -0.8356
  847MOL0     H11758  10.016   6.131  11.328  0.6010 -0.6042  1.2623
  847MOL0     H11759  10.060   6.071  11.162  3.4922 -0.5234  1.4296
  847MOL0     H11760  10.102   5.849  11.251  4.2408 -1.3843  0.9730
  847MOL0     H11761  10.076   5.911  11.410 -2.7703 -0.7066 -0.5366
  847MOL0     H11762  10.272   6.027  11.215 -3.0197 -1.9000 -1.8719
  847MOL0     H11763  10.249   6.083  11.381 -1.7323 -1.1539 -0.0983
  847MOL0     H11764  10.343   5.896  11.489 -1.6085 -4.5744 -0.2851
  847MOL0     H11765  10.449   5.908  11.343 -0.1483 -0.6841  0.5951
  847MOL0     H11766  10.232   5.510  11.361 -0.0493 -1.6076 -1.0494
  847MOL0     H11767  10.378   5.304  11.401 -0.5198 -0.4871 -0.8980
  847MOL0     H11768  10.874   5.198  11.255  0.9340 -1.6295 -0.6531
  847MOL0     H11769  11.050   5.045  11.271  1.9384  1.2435 -1.1785
  847MOL0     H11770  11.245   4.769  11.477 -2.7611 -0.2256 -1.3062
  847MOL0     H11771  11.085   4.808  11.497 -1.2004  1.3759  1.3664
  847MOL0     H11772  11.128   4.897  11.715 -1.1658  1.4350 -1.5031
  847MOL0     H11773  11.300   4.940  11.662 -0.2767 -0.5831 -0.1951
  847MOL0     H11774  11.358   4.703  11.673  1.0373  0.9772  1.6974
  847MOL0     H11775  11.191   4.668  11.737 -0.2161  0.1647 -0.9560
  847MOL0     H11776  11.385   4.857  11.866  1.5055 -1.0398 -1.1999
  847MOL0     H11777  11.234   4.805  11.936  0.5813 -2.5802  3.0813
  847MOL0     H11778  11.467   4.607  11.892 -0.5109 -1.6782  2.0489
  847MOL0     H11779  11.301   4.576  11.962 -1.2041  0.5656  0.0025
  847MOL0     H11780  11.354   4.733  12.141 -1.1200 -1.5470 -0.4480
  847MOL0     H11781  11.515   4.766  12.062 -0.2886  0.5433 -1.4495
  847MOL0     H11782  11.465   4.562  12.258  0.4864  2.4221  0.5189
  847MOL0     H11783  11.443   4.470  12.104 -2.4929  1.0931 -0.8375
  847MOL0     H11784  11.686   4.636  12.181 -0.2306  0.7813  1.1896
  847MOL0     H11785  11.666   4.522  12.047 -1.2624  0.5340 -0.3720
  847MOL0     H11786  11.089   5.093  11.697 -4.0875  0.4989  1.8720
  847MOL0     H11787  10.903   5.259  11.681 -1.7186 -4.4349  1.5005
  847MOL0     H11788  10.714   5.562  11.454  0.1914  1.1874 -1.5599
  847MOL0     H11789  10.560   5.758  11.447 -1.6534  0.3908 -0.8429
  847MOL0     H11790  10.242   5.174  11.197 -2.3512 -2.5064 -3.4344
  847MOL0     H11791  10.472   5.121  11.190  0.7115 -0.3075 -0.5283
  847MOL0     H11792  10.773   4.820  11.132  1.6158 -0.6590  0.3907
  847MOL0     H11793  10.991   4.739  11.122  0.1078 -0.0311 -0.5053
  847MOL0     H11794  11.276   5.049  11.129 -0.4407  0.0764 -0.1693
  847MOL0     H11795  11.343   4.991  10.974  0.7614 -0.8293  0.0423
  847MOL0     H11796  11.366   4.826  11.241  0.6431 -0.5202 -0.7590
  847MOL0     H11797  11.476   4.812  11.100  0.3244 -0.8309  0.0167
  847MOL0     H11798  11.448   5.051  11.274 -0.2194  0.2183  0.2781
  847MOL0     H11799  11.590   5.011  11.181  0.5693 -0.4103  1.0832
  847MOL0     H11800  11.635   4.960  11.430  1.2275 -1.8250  1.6202
  847MOL0     H11801  11.491   4.864  11.437  0.6390  2.3451  0.8336
  847MOL0     H11802  11.761   4.593  11.258  3.3308  2.2116  1.6485
  847MOL0     H11803  11.117   5.111  10.936  0.4830 -1.5902 -0.3599
  847MOL0     H11804  10.890   5.195  10.957  0.6363  1.0375  1.6831
  848MOL0     O11805   7.471   2.638   9.781  0.1570 -0.5362 -0.5385
  848MOL0     C11806   7.593   2.624   9.810 -0.8481 -1.0949  0.3836
  848MOL0     O11807   7.659   2.658   9.924  0.6786 -0.5273  0.8066
  848MOL0     C11808   7.604   2.741  10.021  0.1269  0.3717 -0.6194
  848MOL0     C11809   7.471   2.720  10.060  0.0999 -0.5783 -0.1066
  848MOL0     C11810   7.414   2.803  10.155 -0.1015 -0.9854  0.0559
  848MOL0     C11811   7.489   2.909  10.217 -0.4786 -0.0619 -1.1130
  848MOL0     O11812   7.439   2.998  10.313  1.2214 -0.3998  0.5829
  848MOL0     C11813   7.302   3.001  10.352  0.3940  0.7737  1.0546
  848MOL0     C11814   7.292   3.086  10.484  0.7393  0.7806  1.0919
  848MOL0     C11815   7.150   3.097  10.538 -0.1536  0.3890 -0.0899
  848MOL0     C11816   7.147   3.165  10.673 -0.9061 -0.1548  0.4569
  848MOL0     C11817   7.015   3.167  10.747 -0.3205 -0.5973 -0.1690
  848MOL0     C11818   6.900   3.250  10.676 -0.6783 -0.6874 -0.8184
  848MOL0     C11819   6.778   3.274  10.758 -0.1451 -0.2493 -0.6363
  848MOL0     C11820   6.656   3.337  10.685 -0.2897 -0.2422 -0.1899
  848MOL0     N11821   6.590   3.226  10.623  0.5930  0.9675 -0.0526
  848MOL0     C11822   6.523   3.226  10.508 -0.7045  1.4522 -0.1869
  848MOL0     C11823   6.500   3.098  10.474  0.2899 -0.3395  0.3107
  848MOL0     C11824   6.429   3.067  10.342  0.5149  0.1094 -1.2857
  848MOL0     C11825   6.270   3.075  10.360 -0.7286 -0.7965 -0.2706
  848MOL0     C11826   6.206   3.036  10.229  0.6954 -0.6499  0.1999
  848MOL0     C11827   6.054   3.003  10.252  0.1115 -0.2263 -0.1957
  848MOL0     O11828   6.006   2.923  10.138 -0.2450 -0.1674 -0.4166
  848MOL0     C11829   5.877   2.892  10.146 -1.0749  0.6926 -0.6717
  848MOL0     C11830   5.781   2.932  10.245 -0.3916 -0.3869 -0.0048
  848MOL0     C11831   5.644   2.887  10.240 -0.3497 -0.0936  0.2248
  848MOL0     C11832   5.609   2.805  10.123 -0.2262 -0.4103 -1.6469
  848MOL0     C11833   5.467   2.770  10.099  0.3570 -0.5558  0.9013
  848MOL0     O11834   5.379   2.856  10.149  0.1803  0.8505 -0.2963
  848MOL0     C11835   5.245   2.832  10.143 -0.4561  0.0192 -0.0735
  848MOL0     C11836   5.171   2.949  10.149  0.8568 -0.2273 -0.4279
  848MOL0     C11837   5.034   2.955  10.134  1.8059 -0.3907  0.2659
  848MOL0     C11838   4.961   2.828  10.133 -0.9519  0.0387  0.4387
  848MOL0     O11839   4.825   2.829  10.110 -0.1253 -0.6829  0.0717
  848MOL0     C11840   4.770   2.797   9.976 -0.9965 -0.1754 -0.8040
  848MOL0     C11841   4.625   2.756   9.990 -0.1097 -0.0689 -0.3337
  848MOL0     C11842   4.562   2.723   9.856 -0.2187  0.8672  1.2910
  848MOL0     C11843   4.608   2.588   9.799  0.0599  0.0940  1.6949
  848MOL0     C11844   4.512   2.543   9.698  0.2144  0.5902 -0.8549
  848MOL0     C11845   4.548   2.400   9.642 -0.0471 -0.1843  0.0124
  848MOL0     C11846   4.455   2.373   9.535  0.3150 -0.4686 -0.0358
  848MOL0     C11847   4.483   2.246   9.457 -0.3415 -0.0445  0.0411
  848MOL0    Cl11848   4.346   2.214   9.348  0.2837 -0.0612 -0.6870
  848MOL0     C11849   5.034   2.711  10.128  1.1216  0.5565  1.0190
  848MOL0     C11850   5.167   2.715  10.120 -0.3112  0.2300  0.1739
  848MOL0     O11851   5.449   2.674  10.029  1.0711  0.4593  0.4042
  848MOL0     C11852   5.706   2.761  10.034  0.1874 -0.1418 -0.4322
  848MOL0     C11853   5.839   2.803  10.048 -0.4629  0.0502 -0.7466
  848MOL0     N11854   6.550   3.013  10.565 -0.9226  0.6739 -0.2107
  848MOL0     N11855   6.606   3.091  10.653  0.1241 -0.0932  0.1596
  848MOL0     C11856   7.614   2.933  10.178  0.1084 -0.5259  0.8259
  848MOL0     C11857   7.678   2.847  10.083 -0.3032 -0.2145  0.2013
  848MOL0     C11858   7.679   2.597   9.698 -0.7949 -0.4091  0.8625
  848MOL0     C11859   7.639   2.582   9.559  0.1814  0.0482  0.0477
  848MOL0     C11860   7.731   2.554   9.462  0.3809 -0.0833 -0.5048
  848MOL0     C11861   7.868   2.539   9.493  0.8421 -0.4623  1.0432
  848MOL0     O11862   7.940   2.500   9.389  0.1669  0.3220  0.4122
  848MOL0     C11863   8.079   2.480   9.390 -0.5025 -0.2942  0.5389
  848MOL0     C11864   8.138   2.476   9.253  0.4735  0.2128 -0.1323
  848MOL0     C11865   8.153   2.615   9.197 -0.6019 -0.4538 -0.4069
  848MOL0     C11866   8.248   2.617   9.079  0.3219 -0.6866 -0.6347
  848MOL0     C11867   8.270   2.743   9.023  0.5652 -1.2920  0.1389
  848MOL0     C11868   8.280   2.862   8.983 -0.7518 -0.3196 -0.3711
  848MOL0     C11869   7.914   2.576   9.623 -0.5589 -0.3865  0.1383
  848MOL0     C11870   7.820   2.591   9.722 -0.0720 -0.4550  0.7503
  848MOL0     H11871   7.419   2.641  10.007 -1.7305 -0.8351  1.9550
  848MOL0     H11872   7.313   2.783  10.190 -0.2731 -1.0430 -0.4625
  848MOL0     H11873   7.251   2.906  10.365 -1.1644  1.1141 -1.6419
  848MOL0     H11874   7.245   3.055  10.276  1.5601 -1.2147 -1.3847
  848MOL0     H11875   7.328   3.188  10.470 -2.4216  1.7978 -0.7974
  848MOL0     H11876   7.349   3.038  10.564 -1.4051 -0.0623  2.2022
  848MOL0     H11877   7.102   2.999  10.534  1.3884 -0.3884 -3.0051
  848MOL0     H11878   7.100   3.168  10.472  0.9280  1.4532  0.1982
  848MOL0     H11879   7.219   3.119  10.741 -1.4830  0.7390  1.7069
  848MOL0     H11880   7.187   3.266  10.658  1.5601 -1.0953  0.1627
  848MOL0     H11881   7.036   3.218  10.841  0.9182 -0.8508 -0.2910
  848MOL0     H11882   6.974   3.069  10.770 -1.3578 -0.0190  0.4959
  848MOL0     H11883   6.877   3.202  10.581 -3.0661  1.9672 -1.6842
  848MOL0     H11884   6.943   3.346  10.647  2.1692 -1.8077 -0.6900
  848MOL0     H11885   6.750   3.187  10.820  1.6188  1.1628  2.3703
  848MOL0     H11886   6.810   3.347  10.833 -0.7015  1.3372 -1.8874
  848MOL0     H11887   6.679   3.406  10.604 -2.3451  1.8838  0.9103
  848MOL0     H11888   6.592   3.391  10.755  0.2997  1.0114 -0.6024
  848MOL0     H11889   6.482   3.306  10.447 -0.3079  0.5415 -1.7084
  848MOL0     H11890   6.445   2.963  10.311 -0.2831 -0.5298  0.3197
  848MOL0     H11891   6.472   3.121  10.257 -0.7349 -1.0098 -2.7019
  848MOL0     H11892   6.236   3.174  10.392 -0.5703 -0.2435 -1.7399
  848MOL0     H11893   6.245   3.005  10.440  1.4152  1.6221  2.7455
  848MOL0     H11894   6.216   3.119  10.158 -0.8202 -0.4070  0.2282
  848MOL0     H11895   6.261   2.946  10.199 -0.1554 -0.9445 -0.5082
  848MOL0     H11896   5.999   3.097  10.266  0.9101  0.7069 -2.7208
  848MOL0     H11897   6.045   2.941  10.342 -0.6854 -1.6098 -1.2024
  848MOL0     H11898   5.793   3.001  10.328 -0.1009 -1.2627  0.7024
  848MOL0     H11899   5.569   2.930  10.305 -0.8071  1.6897 -1.3936
  848MOL0     H11900   5.224   3.044  10.152  1.1240 -0.3766 -0.4253
  848MOL0     H11901   4.992   3.055  10.124 -2.8530 -2.2038 -0.7843
  848MOL0     H11902   4.830   2.718   9.930 -3.3609 -1.8229 -1.2039
  848MOL0     H11903   4.789   2.888   9.918  3.0883 -1.4316 -1.8231
  848MOL0     H11904   4.572   2.841  10.035  1.1032  0.9153 -0.6928
  848MOL0     H11905   4.618   2.664  10.048  0.6623 -0.0860 -0.2492
  848MOL0     H11906   4.582   2.808   9.791  2.5229 -0.7309 -0.1381
  848MOL0     H11907   4.457   2.716   9.885 -1.4131 -3.8170 -2.8262
  848MOL0     H11908   4.708   2.597   9.757 -0.0131  1.4880  1.7614
  848MOL0     H11909   4.630   2.510   9.872  2.0606 -0.3844  0.6466
  848MOL0     H11910   4.503   2.617   9.618  0.4369  1.4781 -0.0827
  848MOL0     H11911   4.423   2.536   9.761  0.4893  1.9849 -0.2570
  848MOL0     H11912   4.538   2.320   9.715 -3.3865 -0.6760 -0.7897
  848MOL0     H11913   4.648   2.412   9.599  0.3729 -2.3224  0.2885
  848MOL0     H11914   4.353   2.380   9.574  0.3904  2.2180 -0.0870
  848MOL0     H11915   4.456   2.456   9.464 -0.7172 -0.4674 -0.0689
  848MOL0     H11916   4.506   2.165   9.528 -2.8992 -0.8044  0.1211
  848MOL0     H11917   4.576   2.249   9.400 -0.9984 -1.3101 -1.1756
  848MOL0     H11918   4.977   2.618  10.129  0.9184  0.6154 -0.6192
  848MOL0     H11919   5.227   2.631  10.088  0.1255  0.3829  0.5786
  848MOL0     H11920   5.683   2.691   9.954 -0.6143 -0.0370 -0.2996
  848MOL0     H11921   5.908   2.759   9.977  2.4758 -0.7242  2.2860
  848MOL0     H11922   7.660   3.025  10.213  0.2641 -0.8466  1.4814
  848MOL0     H11923   7.778   2.865  10.046  1.0397 -1.9805  2.6712
  848MOL0     H11924   7.535   2.591   9.530  0.0986  0.9122  0.5737
  848MOL0     H11925   7.700   2.542   9.359  0.6982 -0.0183 -0.6098
  848MOL0     H11926   8.103   2.382   9.434  3.2449  0.6879  1.0401
  848MOL0     H11927   8.123   2.552   9.460 -1.4001  2.1255 -1.2878
  848MOL0     H11928   8.239   2.435   9.248  0.6979  0.6947  0.3204
  848MOL0     H11929   8.078   2.412   9.188 -2.3220 -0.1338  2.5688
  848MOL0     H11930   8.202   2.679   9.271  2.3589  1.8482 -4.0673
  848MOL0     H11931   8.057   2.664   9.176 -0.9911 -0.6894  0.7010
  848MOL0     H11932   8.342   2.573   9.114  0.4691 -3.5497 -4.0260
  848MOL0     H11933   8.210   2.546   9.004 -2.1499 -0.1170  0.0110
  848MOL0     H11934   8.276   2.966   8.958 -4.3111 -0.1822  0.2309
  848MOL0     H11935   8.021   2.584   9.638 -0.5800  1.6664 -0.3982
  848MOL0     H11936   7.858   2.611   9.821  0.4785  0.2598  0.4106
  849MOL0     O11937   0.927  11.202   4.921  0.1751 -0.3493  0.8308
  849MOL0     C11938   0.833  11.183   4.987 -0.0184  0.1775 -0.4977
  849MOL0     O11939   0.733  11.279   5.008 -0.2681  0.6026  0.5423
  849MOL0     C11940   0.741  11.403   4.946 -0.1711  0.6298  0.4487
  849MOL0     C11941   0.700  11.513   5.020  0.7265  0.4555  0.1161
  849MOL0     C11942   0.684  11.638   4.959 -0.0382  0.7819 -0.4265
  849MOL0     C11943   0.707  11.660   4.821  0.2485 -0.2595 -0.2729
  849MOL0     O11944   0.702  11.786   4.765 -0.2924  0.7620 -0.3124
  849MOL0     C11945   0.662  11.898   4.847 -0.8327  0.2260  0.0430
  849MOL0     C11946   0.690  12.030   4.767 -0.2879 -0.1106 -0.5494
  849MOL0     C11947   0.609  12.025   4.641 -0.1146  0.6666  0.4642
  849MOL0     C11948   0.600  12.156   4.561 -1.0310  0.9539  0.2270
  849MOL0     C11949   0.477  12.163   4.463  0.8636 -0.2149 -0.2590
  849MOL0     C11950   0.481  12.043   4.364 -0.3610  0.1062  0.2671
  849MOL0     C11951   0.385  12.055   4.245 -0.0097  0.3732 -0.3986
  849MOL0     C11952   0.425  11.976   4.118 -0.0464 -0.2216 -0.1960
  849MOL0     N11953   0.300  11.967   4.036  0.3854 -0.0776  0.0854
  849MOL0     C11954   0.249  12.056   3.947 -0.3330 -0.5387 -1.2012
  849MOL0     C11955   0.144  12.000   3.891  0.1651 -0.4522  0.7034
  849MOL0     C11956   0.059  12.075   3.778  0.6896  0.1957 -0.0780
  849MOL0     C11957  -0.089  12.075   3.831 -0.7718 -1.0205  0.4333
  849MOL0     C11958  -0.120  12.154   3.952  0.0418  0.0921  0.2225
  849MOL0     C11959  -0.272  12.181   3.970 -0.4518 -0.6555 -0.0655
  849MOL0     O11960  -0.329  12.079   4.044 -0.4215 -0.8875  0.3247
  849MOL0     C11961  -0.469  12.067   4.053  0.1458 -0.2882 -0.0787
  849MOL0     C11962  -0.567  12.145   3.988 -0.3610 -0.4090 -0.3215
  849MOL0     C11963  -0.699  12.092   3.994  0.0360 -0.5036 -0.2855
  849MOL0     C11964  -0.727  11.983   4.071  0.2251 -0.5736 -1.0479
  849MOL0     C11965  -0.872  11.942   4.080 -0.3208  0.5768 -0.3984
  849MOL0     O11966  -0.912  11.861   4.186 -1.0481 -0.3270 -0.0673
  849MOL0     C11967  -1.052  11.837   4.202  0.4602 -0.4919  0.6116
  849MOL0     C11968  -1.127  11.920   4.292 -0.3935  0.6446  0.1075
  849MOL0     C11969  -1.263  11.899   4.297 -0.2035 -0.9991 -0.3827
  849MOL0     C11970  -1.328  11.793   4.231 -0.8758 -0.5842 -0.2670
  849MOL0     O11971  -1.465  11.760   4.259 -0.0955 -0.3480 -0.2232
  849MOL0     C11972  -1.540  11.862   4.323  0.0881 -0.4170  0.1779
  849MOL0     C11973  -1.683  11.811   4.330 -0.1105 -0.8784  0.0787
  849MOL0     C11974  -1.765  11.900   4.427  0.5829 -1.0173 -0.2264
  849MOL0     C11975  -1.898  11.832   4.483  0.3084  0.4289  0.5611
  849MOL0     C11976  -1.948  11.892   4.612 -0.0143  0.2902  0.9462
  849MOL0     C11977  -2.085  11.829   4.644 -0.5070  0.0802 -0.3403
  849MOL0     C11978  -2.084  11.690   4.700 -0.4118 -0.0121 -0.9017
  849MOL0     C11979  -2.209  11.654   4.774 -0.3455  0.4043 -0.3019
  849MOL0    Cl11980  -2.182  11.523   4.888 -0.1757 -0.2846  0.4903
  849MOL0     C11981  -1.251  11.714   4.131  0.3038 -0.4269 -0.6620
  849MOL0     C11982  -1.113  11.736   4.126 -0.1689  0.0068 -0.1031
  849MOL0     O11983  -0.954  11.979   3.999  0.5762  0.0361 -0.0009
  849MOL0     C11984  -0.640  11.929   4.163  0.6235 -0.1971 -0.7232
  849MOL0     C11985  -0.506  11.972   4.150 -0.4471  0.7613 -0.3651
  849MOL0     N11986   0.120  11.878   3.946  0.0465 -0.4931  0.1797
  849MOL0     N11987   0.221  11.855   4.024 -0.0348 -0.1271  0.8810
  849MOL0     C11988   0.741  11.548   4.746  0.3682  0.0680  0.1646
  849MOL0     C11989   0.754  11.423   4.807 -0.7339 -0.4579 -1.1452
  849MOL0     C11990   0.826  11.053   5.037 -0.8563  0.3574 -0.7531
  849MOL0     C11991   0.700  10.997   5.069  0.0791 -0.1879  0.1754
  849MOL0     C11992   0.683  10.869   5.113 -1.0660  0.6736 -1.1962
  849MOL0     C11993   0.799  10.787   5.135  1.1143  0.0980  0.0081
  849MOL0     O11994   0.768  10.662   5.166 -0.4713 -0.1888 -1.4812
  849MOL0     C11995   0.861  10.599   5.260 -0.4259 -0.0554  0.1855
  849MOL0     C11996   0.801  10.495   5.349  0.1942  0.9512  0.2938
  849MOL0     C11997   0.679  10.546   5.430 -0.3954  0.4803  0.4799
  849MOL0     C11998   0.592  10.447   5.501  0.1468 -0.4926 -0.1231
  849MOL0     C11999   0.515  10.363   5.412 -0.6507 -0.4060  0.1715
  849MOL0     C12000   0.440  10.302   5.335 -0.1017 -0.2215 -0.5730
  849MOL0     C12001   0.919  10.839   5.099 -0.2669 -0.7585 -0.4878
  849MOL0     C12002   0.937  10.966   5.052 -0.5420 -0.0206 -0.3485
  849MOL0     H12003   0.670  11.515   5.124  0.5661 -0.0492  0.0817
  849MOL0     H12004   0.660  11.721   5.025 -0.8896  0.6665 -0.5835
  849MOL0     H12005   0.730  11.896   4.933  2.8750 -0.0988 -2.6470
  849MOL0     H12006   0.558  11.886   4.878 -1.1035  0.2289 -0.8470
  849MOL0     H12007   0.796  12.052   4.751 -0.3992  2.2720  1.3235
  849MOL0     H12008   0.642  12.106   4.831  2.8508 -0.5005  2.5926
  849MOL0     H12009   0.510  11.990   4.670 -0.1183 -0.9495 -1.2995
  849MOL0     H12010   0.649  11.938   4.588 -1.4620 -0.2553  0.9270
  849MOL0     H12011   0.589  12.232   4.639 -1.8233  0.8685  0.2141
  849MOL0     H12012   0.689  12.182   4.503 -3.2910  1.0953 -3.5453
  849MOL0     H12013   0.478  12.256   4.404  0.8459  1.4978  2.2842
  849MOL0     H12014   0.393  12.166   4.532 -0.2418  2.1655 -1.5782
  849MOL0     H12015   0.444  11.956   4.420  2.3939 -1.6769 -0.4632
  849MOL0     H12016   0.584  12.011   4.346  0.3211 -0.1686  3.8867
  849MOL0     H12017   0.286  12.029   4.284  0.2390 -2.6877 -1.5473
  849MOL0     H12018   0.388  12.161   4.216  0.4170  0.1965 -1.0086
  849MOL0     H12019   0.468  11.884   4.158  1.9373  0.6862 -0.1197
  849MOL0     H12020   0.507  12.025   4.064 -0.2901  0.0568 -0.3198
  849MOL0     H12021   0.284  12.157   3.926 -0.2305 -0.0791  0.9887
  849MOL0     H12022   0.052  12.012   3.689 -0.5201  0.2937 -0.0806
  849MOL0     H12023   0.096  12.175   3.753  2.5193 -0.6684 -0.9808
  849MOL0     H12024  -0.109  11.970   3.850 -3.4634 -0.2942  2.0584
  849MOL0     H12025  -0.154  12.112   3.751 -0.4536 -0.6738  0.3285
  849MOL0     H12026  -0.078  12.111   4.043 -2.2153 -1.6796  0.5074
  849MOL0     H12027  -0.070  12.249   3.930 -1.0478  0.5051 -0.5085
  849MOL0     H12028  -0.313  12.184   3.868 -1.2730 -0.1943  0.2669
  849MOL0     H12029  -0.282  12.274   4.027  0.9411 -0.1039 -0.6573
  849MOL0     H12030  -0.550  12.243   3.944  0.3975 -0.9856 -1.3522
  849MOL0     H12031  -0.760  12.151   3.925  2.1789  2.3878  0.0966
  849MOL0     H12032  -1.080  11.993   4.357 -1.5460  0.5943  1.0126
  849MOL0     H12033  -1.307  11.950   4.381 -0.9825 -2.9902  0.4830
  849MOL0     H12034  -1.533  11.962   4.279  1.9144  0.3769  2.0717
  849MOL0     H12035  -1.495  11.866   4.423  2.7159  1.2401 -0.9587
  849MOL0     H12036  -1.680  11.711   4.373 -0.9862 -1.0044 -0.1366
  849MOL0     H12037  -1.729  11.815   4.230 -0.0849 -0.6437  0.0743
  849MOL0     H12038  -1.801  11.990   4.376 -0.1063 -2.5247 -2.5892
  849MOL0     H12039  -1.704  11.929   4.513 -1.8681  1.5735  0.7931
  849MOL0     H12040  -1.980  11.838   4.411  2.1222 -1.0971 -1.8264
  849MOL0     H12041  -1.886  11.723   4.492  3.3818  0.4410 -1.5924
  849MOL0     H12042  -1.954  12.001   4.602  2.0153  0.4523  0.8929
  849MOL0     H12043  -1.877  11.866   4.692  0.6082  0.1536  0.3635
  849MOL0     H12044  -2.149  11.833   4.556 -0.2041 -1.6764 -0.6718
  849MOL0     H12045  -2.120  11.890   4.728 -0.3201 -0.3782  0.0776
  849MOL0     H12046  -2.064  11.623   4.616  0.9090  1.4569 -1.8243
  849MOL0     H12047  -1.995  11.682   4.764 -0.6166  1.0813 -0.4503
  849MOL0     H12048  -2.288  11.621   4.706 -0.8635  1.0441 -0.0201
  849MOL0     H12049  -2.256  11.741   4.820 -3.0415 -0.9629 -0.2774
  849MOL0     H12050  -1.303  11.641   4.071 -2.2219  1.6660 -1.1791
  849MOL0     H12051  -1.056  11.691   4.046  4.1054  1.9349  1.5221
  849MOL0     H12052  -0.657  11.847   4.232  0.4857  1.4091  1.2466
  849MOL0     H12053  -0.433  11.918   4.209 -3.0113 -1.8023  0.7138
  849MOL0     H12054   0.750  11.570   4.640  0.4131  1.1896  0.3879
  849MOL0     H12055   0.777  11.341   4.739  1.3675 -2.2008  1.5011
  849MOL0     H12056   0.618  11.066   5.055  0.1967 -0.3600 -1.6065
  849MOL0     H12057   0.590  10.843   5.162 -0.0318 -2.7434 -0.8232
  849MOL0     H12058   0.902  10.679   5.321  0.4794 -1.3571  1.3405
  849MOL0     H12059   0.941  10.551   5.202 -1.1858  0.8407 -1.7060
  849MOL0     H12060   0.778  10.410   5.284  2.4949  0.6366 -0.1840
  849MOL0     H12061   0.874  10.459   5.422 -0.4468 -1.2374 -0.0912
  849MOL0     H12062   0.611  10.606   5.369 -2.7256 -1.9933  0.4442
  849MOL0     H12063   0.717  10.605   5.514  2.4456  0.9975 -1.0387
  849MOL0     H12064   0.644  10.378   5.569 -1.4871 -0.3206  1.3581
  849MOL0     H12065   0.522  10.513   5.553  0.4459  1.3763 -1.9479
  849MOL0     H12066   0.370  10.241   5.281  0.9066 -3.2766  1.2739
  849MOL0     H12067   1.008  10.777   5.087  0.4858  0.2086 -0.0037
  849MOL0     H12068   1.033  11.002   5.017 -0.7110 -0.7451 -1.6146
  850MOL0     O12069   1.851   0.949   8.821  0.9834 -0.1671  0.5236
  850MOL0     C12070   1.872   1.008   8.921 -0.8828 -0.8548  0.4367
  850MOL0     O12071   1.775   1.066   8.998  0.1043  0.1556  0.9022
  850MOL0     C12072   1.635   1.058   8.962  0.1450  0.3707  0.3830
  850MOL0     C12073   1.575   0.928   8.976  0.4600  0.3413  0.0763
  850MOL0     C12074   1.445   0.920   8.930  1.4232 -0.4656 -0.4919
  850MOL0     C12075   1.369   1.032   8.894  0.4870 -0.1343 -0.7307
  850MOL0     O12076   1.238   1.007   8.867 -0.2424  0.0296 -0.1975
  850MOL0     C12077   1.138   1.110   8.891 -0.0840  0.2581 -1.0548
  850MOL0     C12078   0.995   1.072   8.861  0.1435  0.6784  0.2985
  850MOL0     C12079   0.951   0.964   8.959  0.0944 -0.0409  0.4893
  850MOL0     C12080   0.807   0.915   8.919 -0.3552 -0.1787 -0.4547
  850MOL0     C12081   0.741   0.820   9.017  0.7189 -0.1010  0.3613
  850MOL0     C12082   0.809   0.690   9.043 -0.4123 -0.0156  0.7542
  850MOL0     C12083   0.756   0.605   9.164 -0.7957 -0.1886 -0.2587
  850MOL0     C12084   0.844   0.476   9.180 -0.5945 -0.3169  0.1354
  850MOL0     N12085   0.776   0.395   9.278 -0.1396  0.0900  0.1768
  850MOL0     C12086   0.743   0.433   9.407  0.2777 -0.3135 -0.3005
  850MOL0     C12087   0.676   0.333   9.452 -0.9085  0.6583 -0.3440
  850MOL0     C12088   0.629   0.317   9.593  0.0024 -0.3764  0.1057
  850MOL0     C12089   0.480   0.349   9.585 -0.2100  0.4451  0.4879
  850MOL0     C12090   0.420   0.362   9.725 -0.6176 -1.1239 -0.4544
  850MOL0     C12091   0.275   0.376   9.715  0.5739 -0.6822  0.1369
  850MOL0     O12092   0.208   0.392   9.843 -0.1829  0.1115  1.1041
  850MOL0     C12093   0.074   0.389   9.857  0.1043 -0.3648  1.1127
  850MOL0     C12094   0.034   0.405   9.985 -0.1122 -0.4762 -0.3239
  850MOL0     C12095  -0.097   0.402  10.030 -0.3610  0.6954 -0.2554
  850MOL0     C12096  -0.195   0.379   9.930 -0.5287  0.3215 -0.2159
  850MOL0     C12097  -0.332   0.363   9.977  0.4118  1.1929  0.2550
  850MOL0     O12098  -0.426   0.362   9.879 -0.2473  0.0997 -0.2297
  850MOL0     C12099  -0.563   0.355   9.897  0.5014  0.4324 -0.0230
  850MOL0     C12100  -0.638   0.446   9.824  0.1174 -0.3668  0.7823
  850MOL0     C12101  -0.776   0.433   9.810  0.9072  0.7981 -0.3097
  850MOL0     C12102  -0.843   0.327   9.890  0.3817  0.5133 -0.1800
  850MOL0     O12103  -0.979   0.305   9.899 -0.0581  0.4536 -0.9916
  850MOL0     C12104  -1.062   0.377   9.813 -0.7098  0.2548 -0.2917
  850MOL0     C12105  -1.205   0.386   9.855  0.3516  0.4005 -0.9582
  850MOL0     C12106  -1.202   0.429  10.006  0.0037  0.8236  0.9406
  850MOL0     C12107  -1.341   0.455  10.062  1.2712  0.0107 -0.1990
  850MOL0     C12108  -1.437   0.332  10.071  0.3489  0.6360 -0.7662
  850MOL0     C12109  -1.477   0.318  10.215  0.1150  0.1928 -0.0717
  850MOL0     C12110  -1.618   0.363  10.243  0.0861  0.6646 -0.1223
  850MOL0     C12111  -1.649   0.371  10.393 -0.2827  0.1917  0.8903
  850MOL0    Cl12112  -1.604   0.237  10.488  0.0211 -0.6290  0.4927
  850MOL0     C12113  -0.766   0.248   9.979 -0.1008 -0.5901  0.7446
  850MOL0     C12114  -0.622   0.261   9.986 -0.1091  0.8108  0.8708
  850MOL0     O12115  -0.355   0.345  10.097  0.3518  0.3835  0.5076
  850MOL0     C12116  -0.158   0.363   9.794 -0.2019  0.1885  0.3984
  850MOL0     C12117  -0.022   0.372   9.754  0.0338 -0.7563 -0.3211
  850MOL0     N12118   0.667   0.235   9.354 -0.0617 -0.0135  0.6830
  850MOL0     N12119   0.733   0.273   9.252  0.1499  0.3226 -0.1688
  850MOL0     C12120   1.434   1.160   8.886 -0.8295  0.0537  0.1568
  850MOL0     C12121   1.566   1.172   8.915  0.2573  0.6191  0.2910
  850MOL0     C12122   2.010   1.018   8.963  0.1089 -0.2660 -0.6303
  850MOL0     C12123   2.110   0.987   8.881 -0.4093 -0.2373  0.5913
  850MOL0     C12124   2.244   0.988   8.918  0.0088  0.5313  0.1477
  850MOL0     C12125   2.272   1.033   9.050 -0.2295  0.2748 -0.0124
  850MOL0     O12126   2.405   1.030   9.095  0.1891 -0.6227 -0.1594
  850MOL0     C12127   2.432   1.095   9.223  0.4149 -0.5490  0.3326
  850MOL0     C12128   2.421   0.992   9.336  0.6625 -0.2295 -0.0562
  850MOL0     C12129   2.508   0.878   9.301  0.5916 -0.5138  0.9806
  850MOL0     C12130   2.562   0.824   9.432  0.8118  0.1274 -0.8832
  850MOL0     C12131   2.604   0.686   9.396  0.2251 -0.3617 -1.2711
  850MOL0     C12132   2.647   0.574   9.386  0.8075  0.2479  0.4337
  850MOL0     C12133   2.165   1.064   9.131  0.1294 -0.2081 -0.3999
  850MOL0     C12134   2.037   1.050   9.093  0.7856 -0.0188  0.9985
  850MOL0     H12135   1.628   0.843   9.018  0.5160  0.8206  1.0091
  850MOL0     H12136   1.399   0.822   8.924 -1.6935  0.7352  1.4105
  850MOL0     H12137   1.162   1.195   8.827  1.0643  0.7868  0.0654
  850MOL0     H12138   1.147   1.135   8.997  0.0040 -0.7546 -0.8159
  850MOL0     H12139   1.000   1.031   8.759  2.6760 -1.6867  1.2545
  850MOL0     H12140   0.929   1.159   8.868 -1.9001 -0.9164  1.7057
  850MOL0     H12141   0.942   1.017   9.054 -0.7474  3.3166 -1.2806
  850MOL0     H12142   1.025   0.885   8.969  0.6484  0.5950  1.5476
  850MOL0     H12143   0.742   1.001   8.899 -0.8003  0.8828  4.3855
  850MOL0     H12144   0.818   0.862   8.824 -2.0120  2.6345 -2.3631
  850MOL0     H12145   0.641   0.797   8.978  1.2626 -0.8061 -0.6554
  850MOL0     H12146   0.733   0.879   9.109 -2.0926  2.7166 -1.4734
  850MOL0     H12147   0.918   0.703   9.050 -0.2961  0.2542 -1.1258
  850MOL0     H12148   0.784   0.626   8.958 -0.5882  1.3324 -0.2375
  850MOL0     H12149   0.772   0.675   9.247 -3.3384  3.1842 -2.3325
  850MOL0     H12150   0.649   0.586   9.163 -0.4281 -2.5009 -0.4346
  850MOL0     H12151   0.944   0.511   9.207  0.2397 -1.9724 -0.6516
  850MOL0     H12152   0.853   0.420   9.086 -0.9051  1.0772 -0.7616
  850MOL0     H12153   0.761   0.525   9.462  2.0827 -0.9457  0.2443
  850MOL0     H12154   0.681   0.387   9.659  0.4713 -0.0824 -0.5684
  850MOL0     H12155   0.647   0.221   9.642 -0.4656 -0.6242 -0.1962
  850MOL0     H12156   0.423   0.269   9.536 -0.3970  0.1303  1.1970
  850MOL0     H12157   0.455   0.444   9.536 -3.8979 -0.5301  0.1337
  850MOL0     H12158   0.454   0.277   9.784  0.2738 -1.2816 -1.1676
  850MOL0     H12159   0.449   0.454   9.775 -1.9212 -2.0651  2.2040
  850MOL0     H12160   0.229   0.307   9.645  0.1246 -0.2050 -0.0438
  850MOL0     H12161   0.264   0.473   9.665  0.6081 -1.3869 -1.2985
  850MOL0     H12162   0.110   0.407  10.063 -1.2767 -0.9465  0.8503
  850MOL0     H12163  -0.117   0.402  10.137  2.0873  0.6914  0.2656
  850MOL0     H12164  -0.593   0.527   9.768 -1.1027 -0.6466 -0.6714
  850MOL0     H12165  -0.834   0.497   9.745  0.5462 -0.3491 -1.1415
  850MOL0     H12166  -1.055   0.323   9.718  2.5880 -0.8889  0.4681
  850MOL0     H12167  -1.025   0.480   9.816 -1.0810  0.3693  0.5691
  850MOL0     H12168  -1.258   0.291   9.845 -0.9811  1.0075  0.0326
  850MOL0     H12169  -1.254   0.461   9.792  3.1523  2.6654 -0.6067
  850MOL0     H12170  -1.156   0.526  10.027  0.0373  0.1985  4.0969
  850MOL0     H12171  -1.150   0.359  10.072 -1.4606  0.1239  1.3904
  850MOL0     H12172  -1.339   0.517  10.152 -1.6263  1.7735 -1.2341
  850MOL0     H12173  -1.401   0.516   9.994  0.3809 -3.0441 -2.4212
  850MOL0     H12174  -1.391   0.242  10.027 -2.6836 -1.0153 -0.8478
  850MOL0     H12175  -1.527   0.345  10.011  0.2135 -1.3486 -1.0660
  850MOL0     H12176  -1.398   0.347  10.285 -1.3064 -1.9426  2.6244
  850MOL0     H12177  -1.482   0.209  10.220  4.2182 -0.3950 -3.4443
  850MOL0     H12178  -1.643   0.452  10.185 -1.9019 -0.2202 -0.7014
  850MOL0     H12179  -1.686   0.287  10.204  0.2689  1.1261 -1.3826
  850MOL0     H12180  -1.757   0.382  10.409 -0.2958  1.6199  0.0037
  850MOL0     H12181  -1.599   0.453  10.447 -2.3288  1.1393  1.4819
  850MOL0     H12182  -0.805   0.166  10.039  2.1368 -2.4438 -0.2194
  850MOL0     H12183  -0.563   0.186  10.037  0.6784  0.4924 -0.4579
  850MOL0     H12184  -0.233   0.351   9.716 -1.0595  2.0895  0.8717
  850MOL0     H12185  -0.008   0.371   9.646  3.0561 -1.4724  0.0053
  850MOL0     H12186   1.380   1.248   8.853  0.5906  0.6415 -0.7120
  850MOL0     H12187   1.606   1.273   8.923 -1.3100  1.1333  2.9692
  850MOL0     H12188   2.094   0.943   8.783 -1.9069  2.7533 -0.6352
  850MOL0     H12189   2.324   0.965   8.848 -0.5744  0.6632 -0.5724
  850MOL0     H12190   2.367   1.180   9.245  1.9341  0.5457  0.7307
  850MOL0     H12191   2.535   1.131   9.225 -0.1193  1.0660  0.4979
  850MOL0     H12192   2.455   1.034   9.431 -1.3543  1.2257  0.0837
  850MOL0     H12193   2.315   0.966   9.347  0.4427  1.4603  3.1520
  850MOL0     H12194   2.592   0.920   9.245 -0.8075  3.1777  1.4184
  850MOL0     H12195   2.453   0.807   9.237 -3.3726  0.1462  3.3548
  850MOL0     H12196   2.654   0.868   9.472  1.2390 -0.4592 -1.2071
  850MOL0     H12197   2.482   0.811   9.506 -0.2926  1.5476 -1.7554
  850MOL0     H12198   2.698   0.483   9.362 -1.1314 -2.0934  4.2875
  850MOL0     H12199   2.188   1.074   9.237  1.0628 -3.0914 -0.2326
  850MOL0     H12200   1.961   1.072   9.168  0.6277  1.6614  0.3846
  851MOL0     O12201   8.709   3.270   2.916  0.1031  0.1022  0.1025
  851MOL0     C12202   8.738   3.242   3.033 -0.0575  0.1004  0.1079
  851MOL0     O12203   8.670   3.154   3.113 -0.1463  0.0934 -0.0248
  851MOL0     C12204   8.577   3.069   3.052  1.0237  0.4861  0.0744
  851MOL0     C12205   8.579   2.929   3.089 -0.3872  0.2143 -0.9190
  851MOL0     C12206   8.483   2.838   3.047 -0.5288  0.3780 -0.4459
  851MOL0     C12207   8.378   2.884   2.971  0.6753 -0.0078 -0.0902
  851MOL0     O12208   8.276   2.803   2.931  0.1774  0.2136 -0.0021
  851MOL0     C12209   8.301   2.697   2.836  0.1240 -0.0352 -0.1751
  851MOL0     C12210   8.225   2.736   2.714  1.0103 -0.0178  0.4178
  851MOL0     C12211   8.067   2.732   2.726 -1.1505  0.1857 -0.4456
  851MOL0     C12212   8.037   2.590   2.772  0.1347 -0.0190  0.2381
  851MOL0     C12213   7.907   2.538   2.708  0.4163 -0.9854 -0.2495
  851MOL0     C12214   7.867   2.399   2.755  0.1661 -0.8601 -0.1055
  851MOL0     C12215   7.745   2.328   2.690  0.0253 -0.6989  0.2758
  851MOL0     C12216   7.734   2.353   2.539 -0.7443 -0.2646  0.5310
  851MOL0     N12217   7.615   2.285   2.483  0.7263 -0.1775 -0.4952
  851MOL0     C12218   7.622   2.191   2.382 -0.1283 -0.5016 -1.0912
  851MOL0     C12219   7.495   2.131   2.386 -0.3210  0.1522  0.2681
  851MOL0     C12220   7.430   2.028   2.294  0.3630  0.2235  0.4677
  851MOL0     C12221   7.351   1.927   2.378  0.4901 -0.9267  0.4733
  851MOL0     C12222   7.317   1.799   2.297  0.2266 -0.1403 -0.2436
  851MOL0     C12223   7.164   1.771   2.319 -0.1347  0.6019  0.3303
  851MOL0     O12224   7.089   1.879   2.243  0.0635  0.3832 -0.1946
  851MOL0     C12225   6.962   1.850   2.207 -0.0599 -0.3291  0.7811
  851MOL0     C12226   6.875   1.957   2.216  0.5975  0.7278 -0.5164
  851MOL0     C12227   6.734   1.927   2.203 -0.1530  0.2954 -0.7561
  851MOL0     C12228   6.686   1.796   2.180  0.6095  0.3221  1.0214
  851MOL0     C12229   6.543   1.771   2.181  0.6882 -0.0017  0.4317
  851MOL0     O12230   6.488   1.646   2.167 -0.9605  0.5005 -0.2735
  851MOL0     C12231   6.348   1.633   2.172 -0.2462 -0.1922  0.8296
  851MOL0     C12232   6.284   1.579   2.281 -0.2701 -1.0365 -0.3487
  851MOL0     C12233   6.145   1.552   2.279 -0.5919  1.0415 -0.0835
  851MOL0     C12234   6.066   1.617   2.185  0.5662 -0.1114 -0.4640
  851MOL0     O12235   5.928   1.609   2.187  0.0627  0.3685 -0.1397
  851MOL0     C12236   5.861   1.553   2.067 -0.3556 -0.0905 -0.0182
  851MOL0     C12237   5.713   1.521   2.091  0.5590 -0.2528  0.6872
  851MOL0     C12238   5.675   1.442   2.213 -0.5268 -0.5801 -0.0030
  851MOL0     C12239   5.718   1.301   2.200 -0.4120  0.8113  0.3592
  851MOL0     C12240   5.729   1.223   2.336  0.1912 -0.8161  0.1088
  851MOL0     C12241   5.779   1.082   2.317 -0.9041 -0.3137  0.6334
  851MOL0     C12242   5.938   1.073   2.332  1.1290  0.6535 -0.9445
  851MOL0     C12243   5.967   1.066   2.487  0.5011  0.1557 -0.0147
  851MOL0    Cl12244   6.049   0.923   2.535  0.2724 -0.0935 -0.1400
  851MOL0     C12245   6.127   1.680   2.070 -1.1479 -0.5445 -0.1153
  851MOL0     C12246   6.268   1.684   2.065 -0.4708 -0.0298 -0.5272
  851MOL0     O12247   6.475   1.871   2.191 -0.1340 -0.1398  0.5556
  851MOL0     C12248   6.784   1.694   2.155 -0.2704 -0.4987 -0.3531
  851MOL0     C12249   6.923   1.723   2.173 -0.0313 -0.2146 -0.2708
  851MOL0     N12250   7.418   2.185   2.490 -0.5395  0.1046  0.3784
  851MOL0     N12251   7.493   2.279   2.541  0.4751 -0.3956 -0.4768
  851MOL0     C12252   8.380   3.012   2.930  0.1704 -0.4824  0.3086
  851MOL0     C12253   8.475   3.111   2.975  0.6599  0.2677  1.4677
  851MOL0     C12254   8.840   3.330   3.098 -0.0257  0.2681 -1.1887
  851MOL0     C12255   8.920   3.414   3.028  0.7895  0.6220  0.1882
  851MOL0     C12256   8.984   3.522   3.084 -0.0752  0.2165 -0.6151
  851MOL0     C12257   8.987   3.541   3.223  1.0781  0.7175  0.5883
  851MOL0     O12258   9.051   3.647   3.285 -0.0858 -0.5446 -0.9519
  851MOL0     C12259   9.129   3.735   3.204  0.0860 -0.1579 -0.2330
  851MOL0     C12260   9.200   3.848   3.285 -0.1199  0.4871 -0.6415
  851MOL0     C12261   9.090   3.949   3.336 -0.9014 -0.2347 -0.3831
  851MOL0     C12262   9.130   4.019   3.465  0.9975 -0.2174 -0.6012
  851MOL0     C12263   9.266   4.072   3.453 -0.0363  0.6719  0.1693
  851MOL0     C12264   9.375   4.109   3.430 -0.5331  1.1158 -0.9077
  851MOL0     C12265   8.901   3.454   3.302  0.0573 -0.5417 -0.5958
  851MOL0     C12266   8.829   3.357   3.239  0.4970  0.2891 -1.0846
  851MOL0     H12267   8.667   2.898   3.142  2.0526  1.3460 -3.9894
  851MOL0     H12268   8.491   2.739   3.092 -3.3875 -0.4278 -1.5238
  851MOL0     H12269   8.275   2.597   2.871  0.1601  0.7062  2.1352
  851MOL0     H12270   8.409   2.680   2.825  0.2023 -2.5723  3.0901
  851MOL0     H12271   8.248   2.672   2.628  0.8037  2.7923 -1.9074
  851MOL0     H12272   8.255   2.837   2.684 -1.1369  0.7849  0.7494
  851MOL0     H12273   8.016   2.761   2.634 -2.7953 -2.0745 -0.3281
  851MOL0     H12274   8.029   2.806   2.797  0.7569  2.8658 -2.0335
  851MOL0     H12275   8.116   2.524   2.735 -0.3089  0.1874 -1.1294
  851MOL0     H12276   8.030   2.597   2.881  0.8964  0.5089  0.2551
  851MOL0     H12277   7.935   2.520   2.604 -0.2414 -2.1960 -0.2320
  851MOL0     H12278   7.823   2.607   2.721  3.0353  2.1330  1.6765
  851MOL0     H12279   7.857   2.398   2.864  2.2440 -0.7992  0.1250
  851MOL0     H12280   7.947   2.325   2.739 -1.1421 -2.7688  1.6264
  851MOL0     H12281   7.738   2.220   2.708  3.0102 -1.1519 -0.7249
  851MOL0     H12282   7.662   2.380   2.739 -2.0124 -1.1330 -2.4800
  851MOL0     H12283   7.823   2.311   2.492 -1.6207 -1.9972  0.3368
  851MOL0     H12284   7.736   2.459   2.514  0.3043 -0.1435  1.0896
  851MOL0     H12285   7.712   2.168   2.325  0.5442  0.4203 -0.4452
  851MOL0     H12286   7.507   1.984   2.230  2.1138  1.1783  1.8138
  851MOL0     H12287   7.354   2.076   2.233  0.4509  1.2756  1.1522
  851MOL0     H12288   7.260   1.980   2.405  1.1490  1.8471 -2.1905
  851MOL0     H12289   7.409   1.905   2.468 -0.2261  0.6425  1.3537
  851MOL0     H12290   7.335   1.811   2.189  0.5544 -2.8457 -0.5448
  851MOL0     H12291   7.369   1.713   2.340 -1.6529 -0.6917  1.0435
  851MOL0     H12292   7.147   1.778   2.427  1.9852  0.4177  0.7274
  851MOL0     H12293   7.141   1.670   2.286 -0.0848  0.2424  1.3548
  851MOL0     H12294   6.903   2.058   2.244 -1.2594  1.6415 -1.7188
  851MOL0     H12295   6.675   2.015   2.228  4.7924  3.4504  1.2712
  851MOL0     H12296   6.344   1.548   2.366 -0.3152  0.4650  0.2627
  851MOL0     H12297   6.096   1.489   2.352 -2.1032  2.3949  0.1343
  851MOL0     H12298   5.918   1.473   2.020  0.1409  0.1539  0.1647
  851MOL0     H12299   5.859   1.631   1.990  0.0227 -2.1143 -2.2025
  851MOL0     H12300   5.670   1.468   2.005  0.9720 -0.9947  0.9259
  851MOL0     H12301   5.668   1.620   2.082 -2.3636 -1.6132 -2.1013
  851MOL0     H12302   5.567   1.448   2.230 -0.6993  0.8061 -1.3215
  851MOL0     H12303   5.722   1.486   2.302 -2.2931 -3.0288  2.2891
  851MOL0     H12304   5.646   1.250   2.135 -0.1878  1.7276 -0.6510
  851MOL0     H12305   5.815   1.297   2.150 -0.6361 -1.6989 -0.0044
  851MOL0     H12306   5.637   1.229   2.395 -0.4267 -2.4871 -0.6524
  851MOL0     H12307   5.801   1.282   2.394  0.8546 -0.9091 -0.6103
  851MOL0     H12308   5.751   1.040   2.220 -3.1073  0.4525  0.8736
  851MOL0     H12309   5.731   1.024   2.396 -0.0655  2.2046  3.1676
  851MOL0     H12310   5.977   0.982   2.286  1.7028  1.3518 -1.8713
  851MOL0     H12311   5.989   1.160   2.289  2.3737  1.8427  2.6321
  851MOL0     H12312   5.873   1.075   2.542 -0.5860  0.4723 -1.8385
  851MOL0     H12313   6.031   1.150   2.517 -0.7957  0.1793  3.0353
  851MOL0     H12314   6.069   1.715   1.985 -1.1777  1.6379  0.7248
  851MOL0     H12315   6.319   1.714   1.974 -0.4531 -1.5960 -1.0517
  851MOL0     H12316   6.752   1.590   2.147  2.4106 -1.5550  1.1360
  851MOL0     H12317   7.000   1.651   2.146 -1.7606 -1.0402 -3.4451
  851MOL0     H12318   8.295   3.054   2.877  1.3305  1.7955  0.1733
  851MOL0     H12319   8.468   3.210   2.933 -1.5302 -0.7492 -0.8115
  851MOL0     H12320   8.938   3.391   2.923  0.9563  2.2445 -0.1711
  851MOL0     H12321   9.063   3.567   3.024  0.1621  0.5127 -0.0956
  851MOL0     H12322   9.077   3.786   3.122  0.5742  0.0128 -0.4446
  851MOL0     H12323   9.205   3.668   3.162 -0.2964 -0.7920  0.0715
  851MOL0     H12324   9.256   3.806   3.370  0.7607  4.2686  0.8845
  851MOL0     H12325   9.270   3.892   3.214  0.5216 -2.7817 -2.2243
  851MOL0     H12326   8.991   3.904   3.345 -1.0937  0.4965  1.6607
  851MOL0     H12327   9.082   4.023   3.255 -1.2585 -1.7500 -1.7927
  851MOL0     H12328   9.056   4.098   3.480  0.6054 -1.2751  5.1615
  851MOL0     H12329   9.121   3.957   3.554 -0.9227  2.0826  0.9305
  851MOL0     H12330   9.476   4.144   3.419 -0.7318  2.8154  1.8316
  851MOL0     H12331   8.905   3.486   3.405  0.3031  3.0298 -1.5905
  851MOL0     H12332   8.759   3.285   3.281  2.5142 -0.5501  1.0076
  852MOL0     O12333   9.342   3.425  10.506  0.0037  0.3239 -0.3529
  852MOL0     C12334   9.409   3.458  10.410 -0.8580 -0.1588  0.1656
  852MOL0     O12335   9.384   3.428  10.282  0.8318  0.2980  0.4773
  852MOL0     C12336   9.296   3.330  10.252  0.2776  1.1486 -0.9329
  852MOL0     C12337   9.316   3.197  10.306  0.0329  0.6024 -0.3287
  852MOL0     C12338   9.241   3.089  10.267  0.9430  0.4636 -1.0331
  852MOL0     C12339   9.139   3.104  10.166  0.2453 -0.1777 -0.1135
  852MOL0     O12340   9.062   2.999  10.118 -0.6819 -0.1312  0.4358
  852MOL0     C12341   9.041   2.879  10.191  0.2112  0.3165 -1.0178
  852MOL0     C12342   8.954   2.787  10.105  0.7169 -0.2276  0.1042
  852MOL0     C12343   8.833   2.851  10.053 -0.7063 -0.2404 -0.2456
  852MOL0     C12344   8.740   2.758   9.984  0.9644 -0.0550 -0.9018
  852MOL0     C12345   8.631   2.846   9.925  0.5606 -0.4125  0.2990
  852MOL0     C12346   8.509   2.844  10.015 -0.2511 -0.6890  0.3001
  852MOL0     C12347   8.394   2.933   9.976  0.4077 -0.6056  0.4377
  852MOL0     C12348   8.277   2.932  10.078  0.2935 -0.8911 -1.4161
  852MOL0     N12349   8.188   2.814  10.064 -0.1674 -0.5025  0.3081
  852MOL0     C12350   8.160   2.726  10.170  0.0123 -0.4507  0.8978
  852MOL0     C12351   8.071   2.635  10.120 -0.0066  0.2895 -0.0389
  852MOL0     C12352   8.019   2.525  10.211  0.4113  0.0305  0.2059
  852MOL0     C12353   7.889   2.576  10.276 -1.0468  0.2681 -0.7090
  852MOL0     C12354   7.858   2.511  10.405  0.1473  0.0336 -0.4031
  852MOL0     C12355   7.717   2.526  10.448  0.6026  0.1483 -0.3124
  852MOL0     O12356   7.659   2.658  10.450 -1.0810  0.2685  0.0563
  852MOL0     C12357   7.533   2.660  10.493  1.5892  0.2556 -0.6642
  852MOL0     C12358   7.491   2.708  10.618 -0.5463  0.0011 -0.0114
  852MOL0     C12359   7.359   2.708  10.656  0.5295 -0.3966  0.0109
  852MOL0     C12360   7.259   2.657  10.576  0.2133 -0.3997  0.0125
  852MOL0     C12361   7.117   2.682  10.619  1.0168  0.3944  1.0486
  852MOL0     O12362   7.082   2.754  10.733 -0.0024 -0.2998  1.1924
  852MOL0     C12363   6.954   2.754  10.782  0.6067 -0.3802 -0.4726
  852MOL0     C12364   6.836   2.766  10.708 -0.9985 -0.0426  0.1004
  852MOL0     C12365   6.714   2.756  10.763  0.2849  0.2741 -0.6278
  852MOL0     C12366   6.702   2.719  10.898 -0.6117  0.3789 -0.1384
  852MOL0     O12367   6.584   2.694  10.970 -0.3352 -0.8291 -0.0142
  852MOL0     C12368   6.473   2.640  10.894  0.0226 -0.6376 -1.0356
  852MOL0     C12369   6.361   2.624  10.999  0.2278  0.6409 -0.0274
  852MOL0     C12370   6.295   2.489  10.986 -0.4848 -0.2788  0.8904
  852MOL0     C12371   6.213   2.474  10.857  0.1435  1.2211 -0.6411
  852MOL0     C12372   6.144   2.334  10.869 -0.7705  0.0890 -1.3123
  852MOL0     C12373   6.026   2.316  10.777  0.0898 -0.7018  0.5561
  852MOL0     C12374   5.925   2.430  10.795  0.0406 -0.3706 -1.0266
  852MOL0     C12375   5.822   2.389  10.690 -0.0231  0.1217  0.2183
  852MOL0    Cl12376   5.708   2.285  10.756 -0.0804  0.8904 -0.4863
  852MOL0     C12377   6.814   2.702  10.966 -0.1748  0.2583 -0.5573
  852MOL0     C12378   6.940   2.721  10.913 -1.1534  0.2397 -0.4500
  852MOL0     O12379   7.037   2.631  10.537  0.0808  0.0481 -0.1167
  852MOL0     C12380   7.296   2.604  10.453  0.6851 -1.0851 -0.1717
  852MOL0     C12381   7.428   2.618  10.404  0.2710  0.4960  0.3957
  852MOL0     N12382   8.057   2.671   9.985 -0.0239  0.8938  0.1544
  852MOL0     N12383   8.133   2.764   9.950  0.4743  0.2218  0.8324
  852MOL0     C12384   9.120   3.226  10.111 -0.5616 -0.3296  0.2116
  852MOL0     C12385   9.190   3.339  10.155 -0.4394 -0.0479 -1.2651
  852MOL0     C12386   9.543   3.540  10.420  1.7614 -0.1331  0.5395
  852MOL0     C12387   9.569   3.615  10.537 -0.3869 -0.3554 -0.0123
  852MOL0     C12388   9.678   3.702  10.543 -0.4271  0.8885 -0.5256
  852MOL0     C12389   9.768   3.708  10.433 -0.9045  0.5076  0.1652
  852MOL0     O12390   9.884   3.774  10.464 -0.9721 -0.5343  0.6288
  852MOL0     C12391  10.007   3.747  10.398 -0.0910  0.1041  0.1547
  852MOL0     C12392  10.048   3.616  10.453 -1.1224  1.2914 -0.4952
  852MOL0     C12393  10.190   3.559  10.406 -0.5208 -0.3140  0.1764
  852MOL0     C12394  10.170   3.494  10.267  0.4450  0.3771  0.5354
  852MOL0     C12395  10.303   3.487  10.209  0.7967 -0.3111  0.0572
  852MOL0     C12396  10.405   3.500  10.148  0.0559  0.1130 -0.4854
  852MOL0     C12397   9.745   3.633  10.313 -0.7778  0.2109 -0.0640
  852MOL0     C12398   9.626   3.562  10.303  0.5143  1.1918  1.2748
  852MOL0     H12399   9.383   3.170  10.387  0.9053 -0.5861 -1.4196
  852MOL0     H12400   9.264   2.996  10.319  0.8445 -1.5980 -4.3472
  852MOL0     H12401   8.993   2.909  10.284  0.1702  1.0785 -1.2739
  852MOL0     H12402   9.127   2.814  10.210 -0.9063 -0.4494  1.8904
  852MOL0     H12403   8.917   2.702  10.163 -1.8820 -0.4756 -1.7828
  852MOL0     H12404   9.005   2.750  10.017 -2.2375  0.4023 -2.0307
  852MOL0     H12405   8.862   2.932   9.985 -0.5672 -0.1237 -0.0494
  852MOL0     H12406   8.782   2.903  10.135 -1.0056 -4.0024  2.1982
  852MOL0     H12407   8.805   2.721   9.903 -0.9035 -0.4920 -2.2579
  852MOL0     H12408   8.702   2.680  10.050 -3.0262  0.2189 -2.6023
  852MOL0     H12409   8.607   2.811   9.825 -0.9520  1.2686  0.0269
  852MOL0     H12410   8.668   2.948   9.920 -0.3941 -0.0042  1.1808
  852MOL0     H12411   8.544   2.878  10.113  1.9320  2.3213 -1.3250
  852MOL0     H12412   8.469   2.743  10.023 -2.1622  0.1619  3.4211
  852MOL0     H12413   8.434   3.034   9.964 -0.7577 -0.1403  0.3586
  852MOL0     H12414   8.354   2.909   9.877 -2.1719 -2.4629  1.7809
  852MOL0     H12415   8.230   3.029  10.060 -0.6923 -0.8273  1.1585
  852MOL0     H12416   8.317   2.946  10.179 -3.3748 -0.6273  0.1363
  852MOL0     H12417   8.189   2.734  10.274 -2.9690 -3.4341  2.1528
  852MOL0     H12418   8.096   2.515  10.287 -0.1139  0.2884  0.7841
  852MOL0     H12419   7.999   2.429  10.160 -0.5597  1.1936 -1.7271
  852MOL0     H12420   7.809   2.554  10.204 -1.7567  0.4647  0.0012
  852MOL0     H12421   7.899   2.684  10.289  0.2492 -0.0447  1.2316
  852MOL0     H12422   7.880   2.404  10.408 -0.3300 -0.0614  1.9058
  852MOL0     H12423   7.925   2.545  10.485 -0.5561 -2.3146  1.2819
  852MOL0     H12424   7.699   2.485  10.548  1.9465  1.2151  0.4078
  852MOL0     H12425   7.649   2.464  10.389 -0.7090 -2.5765  3.6556
  852MOL0     H12426   7.573   2.756  10.671 -2.1821  1.0266  1.6722
  852MOL0     H12427   7.333   2.756  10.750  0.0213  1.4075 -0.9876
  852MOL0     H12428   6.854   2.809  10.610  0.0681  0.3777  0.4635
  852MOL0     H12429   6.631   2.791  10.703 -0.8793 -1.1937  0.0657
  852MOL0     H12430   6.512   2.551  10.845  0.1062  1.0648 -4.3146
  852MOL0     H12431   6.437   2.705  10.814  2.0154 -1.2050 -2.4544
  852MOL0     H12432   6.288   2.705  10.993 -1.1629  0.1567  5.3306
  852MOL0     H12433   6.404   2.625  11.100 -0.5471  1.2552  0.3064
  852MOL0     H12434   6.242   2.464  11.078 -1.7516  1.1034  0.5757
  852MOL0     H12435   6.367   2.407  10.991 -1.7412 -1.4143  0.8063
  852MOL0     H12436   6.133   2.548  10.862 -0.1027  0.8740  1.0820
  852MOL0     H12437   6.282   2.488  10.773  4.3777 -0.6240  2.2053
  852MOL0     H12438   6.104   2.313  10.969 -0.4425  0.3876 -1.1149
  852MOL0     H12439   6.220   2.258  10.852  1.1688  1.6172  0.0452
  852MOL0     H12440   5.980   2.219  10.797  2.7346 -1.7885  1.9693
  852MOL0     H12441   6.067   2.316  10.675  0.2179 -3.2006  0.5363
  852MOL0     H12442   5.878   2.434  10.893  1.8623 -2.0837 -0.0047
  852MOL0     H12443   5.954   2.534  10.774  2.0639 -1.0615 -1.8946
  852MOL0     H12444   5.878   2.359  10.601 -2.1740  0.7458 -1.4469
  852MOL0     H12445   5.759   2.476  10.665  0.0318  0.5744  1.5750
  852MOL0     H12446   6.804   2.675  11.071  0.0832 -2.1513 -1.0965
  852MOL0     H12447   7.026   2.697  10.974  0.7967 -0.3721 -3.2588
  852MOL0     H12448   7.220   2.559  10.390  0.9514  0.3793 -1.6067
  852MOL0     H12449   7.461   2.600  10.302  2.1465  0.7383  0.9227
  852MOL0     H12450   9.049   3.241  10.030  0.2349  1.5754 -0.1726
  852MOL0     H12451   9.168   3.439  10.118  3.0590  1.9533  1.3750
  852MOL0     H12452   9.516   3.601  10.630  1.7201  3.1160  1.9105
  852MOL0     H12453   9.708   3.741  10.640  0.3361 -0.4291 -0.1960
  852MOL0     H12454  10.073   3.827  10.434 -1.1509  1.0920 -0.0427
  852MOL0     H12455   9.995   3.748  10.289 -1.9829 -0.3922  0.3314
  852MOL0     H12456  10.067   3.638  10.558  0.1927  2.0305 -0.8660
  852MOL0     H12457   9.976   3.533  10.446 -1.9378  2.0060 -0.8139
  852MOL0     H12458  10.230   3.483  10.474  1.5996  0.2330 -0.3834
  852MOL0     H12459  10.264   3.639  10.409 -1.8671  0.9391  0.9216
  852MOL0     H12460  10.121   3.396  10.276  0.3381  0.6627  4.8222
  852MOL0     H12461  10.114   3.556  10.197  0.5595 -1.2074 -1.0582
  852MOL0     H12462  10.506   3.505  10.112  0.2336 -2.3954 -0.5676
  852MOL0     H12463   9.811   3.633  10.228  0.7892  0.7665  1.0979
  852MOL0     H12464   9.603   3.512  10.210  2.2168  1.3540  0.7270
  853MOL0     O12465   6.280  10.986   0.028 -0.3680  0.1396 -0.1092
  853MOL0     C12466   6.311  10.955   0.148  0.3024  0.8759  0.7265
  853MOL0     O12467   6.220  10.960   0.259  0.2936 -0.1223 -0.6103
  853MOL0     C12468   6.105  11.035   0.254 -0.8519 -0.2194 -1.1086
  853MOL0     C12469   6.078  11.144   0.170 -0.1373 -0.7957  0.6764
  853MOL0     C12470   5.957  11.212   0.190  0.1044 -0.4830 -0.0207
  853MOL0     C12471   5.861  11.176   0.286  0.0393 -0.0993  1.0714
  853MOL0     O12472   5.737  11.231   0.294 -0.6328 -0.5230 -0.4367
  853MOL0     C12473   5.703  11.331   0.189  0.4402 -0.0343 -0.1394
  853MOL0     C12474   5.559  11.363   0.194  0.1820 -0.4030  0.3574
  853MOL0     C12475   5.500  11.432   0.078  0.1934 -0.1643 -0.8135
  853MOL0     C12476   5.364  11.483   0.110  1.2302 -0.2168 -0.0212
  853MOL0     C12477   5.261  11.368   0.105  1.1290  0.7298  0.7113
  853MOL0     C12478   5.113  11.409   0.147  0.3832 -0.2405  0.0891
  853MOL0     C12479   5.022  11.286   0.159 -0.0059  0.9978  0.4282
  853MOL0     C12480   4.892  11.332   0.215 -1.6106  0.3120 -0.3582
  853MOL0     N12481   4.827  11.444   0.159 -0.0392  0.6486  0.2614
  853MOL0     C12482   4.785  11.437   0.025  1.3130  0.1668 -0.5108
  853MOL0     C12483   4.705  11.542   0.007  0.1834  0.4241 -0.7833
  853MOL0     C12484   4.642  11.581  -0.126  0.9986  0.0354  0.5824
  853MOL0     C12485   4.490  11.619  -0.101 -0.2115 -0.8431 -0.0023
  853MOL0     C12486   4.414  11.704  -0.204 -0.6424  0.2033 -0.7699
  853MOL0     C12487   4.345  11.823  -0.149  0.1748 -0.3809 -0.3747
  853MOL0     O12488   4.224  11.779  -0.091  0.1245 -0.0642  0.7389
  853MOL0     C12489   4.099  11.812  -0.155 -0.5025 -0.5793 -0.5752
  853MOL0     C12490   3.999  11.878  -0.090 -0.7247  0.9540  0.1155
  853MOL0     C12491   3.885  11.926  -0.158  0.1431  0.6749  1.1310
  853MOL0     C12492   3.865  11.894  -0.293 -0.6865  0.1124  0.3825
  853MOL0     C12493   3.725  11.914  -0.352 -0.3451  0.2566  0.3391
  853MOL0     O12494   3.657  12.023  -0.296 -0.3716  0.7670  0.1376
  853MOL0     C12495   3.526  12.058  -0.328  0.0523 -0.0137 -0.5294
  853MOL0     C12496   3.430  11.967  -0.347 -0.4094 -0.2958 -1.0980
  853MOL0     C12497   3.304  11.998  -0.387  0.5655  0.2622  0.3559
  853MOL0     C12498   3.256  12.131  -0.374 -0.1020  0.1858 -0.4279
  853MOL0     O12499   3.121  12.146  -0.394 -0.7209  0.4163 -0.0668
  853MOL0     C12500   3.069  12.282  -0.401 -0.9652  0.8930  0.1188
  853MOL0     C12501   2.913  12.275  -0.407  0.3053 -0.7157  0.2790
  853MOL0     C12502   2.860  12.424  -0.396 -0.7110  0.4938 -0.3510
  853MOL0     C12503   2.710  12.420  -0.391 -0.2672  0.8270 -0.2901
  853MOL0     C12504   2.646  12.559  -0.386 -1.0368 -0.1351  0.2977
  853MOL0     C12505   2.670  12.633  -0.248  0.4731 -1.0429 -0.1188
  853MOL0     C12506   2.784  12.740  -0.245  0.9008  0.3018  0.5440
  853MOL0     C12507   2.810  12.781  -0.098 -0.3346 -0.5001  0.5162
  853MOL0    Cl12508   2.880  12.940  -0.087  0.1965  0.1175 -0.4747
  853MOL0     C12509   3.350  12.226  -0.340 -0.1793 -0.0145 -0.1704
  853MOL0     C12510   3.483  12.198  -0.314  0.7612 -0.2304  0.7541
  853MOL0     O12511   3.693  11.855  -0.454  0.0544  0.3245  0.0104
  853MOL0     C12512   3.964  11.831  -0.363 -0.7374  0.6023  0.6580
  853MOL0     C12513   4.077  11.788  -0.295  1.5377  0.2388  0.1026
  853MOL0     N12514   4.699  11.605   0.133 -0.0653 -0.1636  0.1405
  853MOL0     N12515   4.766  11.550   0.221 -0.1894 -0.1871  0.3818
  853MOL0     C12516   5.901  11.074   0.374  1.8667 -0.3228  0.0029
  853MOL0     C12517   6.022  11.003   0.358  0.0097  0.5002  1.2999
  853MOL0     C12518   6.438  10.880   0.164  0.0944 -0.3691 -0.6395
  853MOL0     C12519   6.464  10.814   0.279  0.0804 -0.3888 -0.1979
  853MOL0     C12520   6.591  10.747   0.287 -0.1860  0.1671  0.1481
  853MOL0     C12521   6.682  10.752   0.181  0.0585 -0.2071 -0.4080
  853MOL0     O12522   6.802  10.704   0.219 -0.0374 -0.0706 -0.0750
  853MOL0     C12523   6.920  10.696   0.139 -0.2207  0.6551  0.4345
  853MOL0     C12524   6.984  10.827   0.131  0.9397  0.5019  0.0891
  853MOL0     C12525   7.099  10.820   0.027 -0.1932 -0.0720 -0.1159
  853MOL0     C12526   7.208  10.920   0.060  0.1500 -0.8574  0.3555
  853MOL0     C12527   7.166  11.063   0.057  0.1849  0.4246  0.1455
  853MOL0     C12528   7.114  11.168   0.036 -0.2737  0.7946 -0.5764
  853MOL0     C12529   6.641  10.802   0.056 -0.8700 -0.6165 -0.1426
  853MOL0     C12530   6.522  10.862   0.047 -0.0411 -0.7654 -0.2215
  853MOL0     H12531   6.149  11.164   0.090  1.4801 -2.7881  1.5206
  853MOL0     H12532   5.939  11.301   0.130 -0.7565 -0.5175  0.1723
  853MOL0     H12533   5.725  11.292   0.089 -1.6496  1.3969 -1.2088
  853MOL0     H12534   5.770  11.415   0.210  2.8804 -1.6220 -0.9951
  853MOL0     H12535   5.537  11.416   0.287 -0.7896 -1.0164  0.4955
  853MOL0     H12536   5.514  11.264   0.206 -1.2788  0.4337  2.3967
  853MOL0     H12537   5.497  11.360  -0.005 -3.2976 -1.6345  0.3866
  853MOL0     H12538   5.561  11.521   0.064  1.9002 -0.6150  2.5955
  853MOL0     H12539   5.361  11.522   0.212 -1.5043  0.4547 -0.2870
  853MOL0     H12540   5.345  11.566   0.041  1.5275  0.5123  0.7545
  853MOL0     H12541   5.295  11.288   0.170  2.4038  0.1704 -0.5777
  853MOL0     H12542   5.253  11.327   0.003 -0.1971 -0.1789  1.1522
  853MOL0     H12543   5.066  11.472   0.071 -1.2202 -2.4957 -0.9187
  853MOL0     H12544   5.108  11.458   0.245 -0.7326  2.3986 -1.1953
  853MOL0     H12545   5.008  11.226   0.068 -2.9443  0.0467  1.3761
  853MOL0     H12546   5.061  11.222   0.239 -0.1626  1.6447  1.0378
  853MOL0     H12547   4.912  11.355   0.320  3.8380 -0.7142 -0.8810
  853MOL0     H12548   4.828  11.243   0.213  0.7299 -1.4862  0.7416
  853MOL0     H12549   4.817  11.361  -0.046  2.0560 -1.3541  1.3633
  853MOL0     H12550   4.638  11.508  -0.206 -3.1630 -0.7257  1.2195
  853MOL0     H12551   4.689  11.675  -0.157 -0.0781  1.0686  1.9005
  853MOL0     H12552   4.488  11.672  -0.006 -0.9416  1.2442 -1.1199
  853MOL0     H12553   4.429  11.529  -0.087 -1.4017  0.2115  1.8874
  853MOL0     H12554   4.484  11.747  -0.276 -1.7030 -1.7753 -3.1382
  853MOL0     H12555   4.339  11.636  -0.247  0.3689 -1.1395 -0.4809
  853MOL0     H12556   4.313  11.885  -0.233 -1.0354 -1.2283 -0.5686
  853MOL0     H12557   4.414  11.884  -0.089  1.9315 -1.9199 -0.7188
  853MOL0     H12558   4.010  11.883   0.018 -1.0192 -2.1978  0.3624
  853MOL0     H12559   3.808  11.985  -0.109 -0.8533 -0.4368  0.9522
  853MOL0     H12560   3.467  11.865  -0.349 -1.5265 -0.8169  1.3579
  853MOL0     H12561   3.246  11.911  -0.415 -1.1365  0.6072  2.4893
  853MOL0     H12562   3.105  12.326  -0.494 -2.3587  1.5996 -0.1016
  853MOL0     H12563   3.100  12.350  -0.321 -1.1220 -1.7904  2.6566
  853MOL0     H12564   2.877  12.215  -0.323 -0.8848 -1.8857 -1.0184
  853MOL0     H12565   2.883  12.232  -0.503 -0.2684  1.2973 -0.5010
  853MOL0     H12566   2.899  12.493  -0.472  3.5922  2.6404  3.2605
  853MOL0     H12567   2.891  12.483  -0.309 -2.2122  1.3866 -0.3791
  853MOL0     H12568   2.679  12.379  -0.488  2.6358  3.4474 -2.5093
  853MOL0     H12569   2.674  12.355  -0.311 -0.4611 -0.0337 -1.0598
  853MOL0     H12570   2.540  12.535  -0.395 -1.2476 -0.4387  2.6909
  853MOL0     H12571   2.667  12.617  -0.475 -2.2113 -0.5327 -0.2617
  853MOL0     H12572   2.680  12.561  -0.167 -0.8953 -0.1495  0.8971
  853MOL0     H12573   2.584  12.689  -0.212  0.3607 -0.3919 -1.3387
  853MOL0     H12574   2.880  12.707  -0.287  1.8191  2.5307  0.7498
  853MOL0     H12575   2.764  12.836  -0.293 -0.4335 -1.0248 -1.7195
  853MOL0     H12576   2.884  12.711  -0.060  0.3208 -1.5080 -2.3315
  853MOL0     H12577   2.723  12.791  -0.033 -0.9969  3.5436 -0.6617
  853MOL0     H12578   3.325  12.330  -0.322  0.6219  0.1031  0.3109
  853MOL0     H12579   3.560  12.273  -0.301  1.4859  0.2066 -4.0063
  853MOL0     H12580   3.954  11.787  -0.462  0.4480 -0.1665  0.8530
  853MOL0     H12581   4.156  11.739  -0.352 -0.2085  0.9716 -3.2507
  853MOL0     H12582   5.845  11.045   0.463  2.3199 -2.8040 -0.4502
  853MOL0     H12583   6.056  10.923   0.424  0.3474  3.3949  4.9749
  853MOL0     H12584   6.403  10.821   0.369  0.3113  1.5462 -0.1530
  853MOL0     H12585   6.619  10.702   0.382 -0.6633  1.3496  0.8665
  853MOL0     H12586   6.896  10.652   0.041 -0.3177 -1.7355  1.4624
  853MOL0     H12587   6.981  10.623   0.192  1.1240  0.5158 -1.2213
  853MOL0     H12588   6.915  10.907   0.103  1.7403  1.5221  0.9426
  853MOL0     H12589   7.019  10.843   0.233 -0.9793 -1.7445  1.1998
  853MOL0     H12590   7.058  10.839  -0.073 -1.7345 -3.8962 -0.4014
  853MOL0     H12591   7.143  10.720   0.028  1.5126  0.6144 -1.1555
  853MOL0     H12592   7.272  10.897   0.146  2.5859 -2.0830 -1.6606
  853MOL0     H12593   7.289  10.917  -0.014  0.8912 -0.7705  1.1416
  853MOL0     H12594   7.073  11.265   0.018 -3.5652 -0.0987  1.3041
  853MOL0     H12595   6.697  10.809  -0.037 -0.1967 -2.1024  0.1317
  853MOL0     H12596   6.502  10.900  -0.052  1.2750  0.7239  0.0462
  854MOL0     O12597   2.193   1.443  10.381 -0.1425  0.0445 -0.3071
  854MOL0     C12598   2.149   1.501  10.480 -0.4030 -0.5076  0.2410
  854MOL0     O12599   2.019   1.506  10.518  1.0600 -0.3668 -0.0455
  854MOL0     C12600   1.905   1.451  10.446  0.3028  0.2139  0.5458
  854MOL0     C12601   1.890   1.323  10.402  0.0653 -0.1091 -0.9402
  854MOL0     C12602   1.767   1.279  10.337 -0.2921  0.1033  0.3423
  854MOL0     C12603   1.661   1.363  10.318 -0.3153 -0.0540 -0.0267
  854MOL0     O12604   1.554   1.302  10.269  0.0407 -0.3916  0.9823
  854MOL0     C12605   1.464   1.383  10.206 -0.4482  0.8576  0.4601
  854MOL0     C12606   1.350   1.295  10.178  0.4073 -0.3178  0.1930
  854MOL0     C12607   1.247   1.387  10.098 -0.3969  0.9219  0.1897
  854MOL0     C12608   1.109   1.335  10.134  0.4389  0.9609  0.7452
  854MOL0     C12609   1.005   1.434  10.074 -0.2413  0.0587 -0.3089
  854MOL0     C12610   0.874   1.381  10.043 -0.2127  0.0221 -0.6337
  854MOL0     C12611   0.814   1.345  10.176  1.0810 -0.1496  0.6254
  854MOL0     C12612   0.664   1.297  10.156 -0.3435  1.0380  0.8426
  854MOL0     N12613   0.664   1.153  10.122  0.0675 -0.1245  0.0648
  854MOL0     C12614   0.595   1.063  10.201  0.0415 -0.0616 -0.1560
  854MOL0     C12615   0.617   0.944  10.146 -0.7416  0.3365  0.2339
  854MOL0     C12616   0.536   0.830  10.207  0.2498 -0.3425 -0.2841
  854MOL0     C12617   0.383   0.829  10.165 -0.3702  0.6127  0.4917
  854MOL0     C12618   0.292   0.757  10.262  0.8796  0.2849 -0.0771
  854MOL0     C12619   0.134   0.790  10.254 -0.2279  0.4556 -0.1652
  854MOL0     O12620   0.068   0.685  10.322 -0.3864 -0.6073  0.0705
  854MOL0     C12621  -0.072   0.688  10.327 -0.7449  0.7051 -0.3807
  854MOL0     C12622  -0.147   0.574  10.370  0.6585 -0.4960 -0.9182
  854MOL0     C12623  -0.288   0.573  10.375 -0.2304 -0.1484 -0.7039
  854MOL0     C12624  -0.364   0.681  10.345 -0.0555 -0.0728 -0.7683
  854MOL0     C12625  -0.509   0.683  10.345  0.3701 -0.0993 -0.0276
  854MOL0     O12626  -0.574   0.564  10.364  0.4785 -0.2767 -0.2912
  854MOL0     C12627  -0.714   0.563  10.370 -0.0733  0.4152 -0.1885
  854MOL0     C12628  -0.778   0.524  10.253  0.3738 -0.6293  0.3904
  854MOL0     C12629  -0.908   0.496  10.249  0.2266  0.0396  0.3233
  854MOL0     C12630  -0.983   0.516  10.358  0.6710  0.3820 -0.4060
  854MOL0     O12631  -1.109   0.458  10.352 -0.4530 -0.0739 -0.0149
  854MOL0     C12632  -1.206   0.509  10.447 -0.3711  0.5971  0.2347
  854MOL0     C12633  -1.251   0.644  10.411 -0.4416  0.0410  0.4726
  854MOL0     C12634  -1.390   0.673  10.470  0.0802  0.3270 -0.2615
  854MOL0     C12635  -1.419   0.821  10.483 -0.3182 -0.3197 -0.4418
  854MOL0     C12636  -1.552   0.856  10.547  0.4160 -0.4685 -0.7065
  854MOL0     C12637  -1.675   0.825  10.451  0.4131 -0.2942 -0.1568
  854MOL0     C12638  -1.802   0.896  10.500  0.5261  0.1180  0.0371
  854MOL0     C12639  -1.861   0.825  10.623 -0.2257 -0.4068  0.0647
  854MOL0    Cl12640  -1.916   0.652  10.599 -0.2424 -0.0284  0.2489
  854MOL0     C12641  -0.931   0.580  10.465 -0.1980  0.4957 -0.5017
  854MOL0     C12642  -0.793   0.601  10.475  0.0355 -0.1636  0.1900
  854MOL0     O12643  -0.564   0.794  10.334  0.6267  0.3412  0.3815
  854MOL0     C12644  -0.290   0.799  10.313 -0.1202  0.2483  0.4031
  854MOL0     C12645  -0.154   0.802  10.303  0.3362 -0.0267 -0.8719
  854MOL0     N12646   0.695   0.952  10.031 -0.1708 -0.4129  0.3805
  854MOL0     N12647   0.719   1.083  10.020 -0.6138  0.0021 -0.4331
  854MOL0     C12648   1.679   1.499  10.363 -0.4413  0.1899  0.3589
  854MOL0     C12649   1.800   1.535  10.421  0.3338  0.5812  0.1985
  854MOL0     C12650   2.251   1.568  10.564 -0.3031 -0.4929  0.9164
  854MOL0     C12651   2.223   1.684  10.634 -0.6496 -1.0574 -0.2354
  854MOL0     C12652   2.310   1.739  10.728  0.5294  0.5130  0.4678
  854MOL0     C12653   2.427   1.672  10.758  0.1247 -0.7935  0.0421
  854MOL0     O12654   2.527   1.705  10.851  0.5050 -0.0450 -0.3755
  854MOL0     C12655   2.487   1.809  10.941 -0.4233  0.5510 -0.4944
  854MOL0     C12656   2.606   1.814  11.036  0.3324  0.6020  0.1878
  854MOL0     C12657   2.737   1.867  10.971  0.4219  0.0783 -0.8500
  854MOL0     C12658   2.726   2.019  10.953 -0.4013 -0.9270  0.2802
  854MOL0     C12659   2.860   2.088  10.950 -0.5794  0.9110 -0.7607
  854MOL0     C12660   2.960   2.159  10.939  0.0488 -0.2110 -0.7924
  854MOL0     C12661   2.458   1.568  10.678  0.3630  0.6966 -0.7426
  854MOL0     C12662   2.375   1.507  10.590 -0.2309  0.9530 -0.0818
  854MOL0     H12663   1.974   1.256  10.410  2.3294  2.7883  1.8435
  854MOL0     H12664   1.751   1.185  10.285 -2.3052  2.0744 -3.0299
  854MOL0     H12665   1.514   1.420  10.116 -0.6558 -1.1016 -0.5078
  854MOL0     H12666   1.434   1.470  10.265 -1.9980  4.0052 -4.3151
  854MOL0     H12667   1.305   1.249  10.266  0.0630 -0.3088  0.0217
  854MOL0     H12668   1.374   1.212  10.110  0.6306 -0.0299 -0.0800
  854MOL0     H12669   1.253   1.377   9.989  1.6876  0.2282  0.3170
  854MOL0     H12670   1.243   1.494  10.121 -2.8483  0.6009  1.6749
  854MOL0     H12671   1.086   1.239  10.088 -1.4754  0.5472  2.3913
  854MOL0     H12672   1.089   1.325  10.241 -2.2704 -2.5008  0.0829
  854MOL0     H12673   1.042   1.479   9.981 -0.4486  2.2640  0.6319
  854MOL0     H12674   1.003   1.520  10.141  2.5941 -1.9561  2.6811
  854MOL0     H12675   0.893   1.296   9.977 -0.8660  1.2620 -2.4877
  854MOL0     H12676   0.815   1.453   9.985  0.9620  1.2394 -0.3767
  854MOL0     H12677   0.863   1.269  10.238  1.0458 -1.3638 -0.7913
  854MOL0     H12678   0.808   1.435  10.237  1.0805  1.7710 -2.0765
  854MOL0     H12679   0.620   1.362  10.080  1.8492  0.1392 -1.3233
  854MOL0     H12680   0.608   1.301  10.250  1.2472 -0.1364  1.9114
  854MOL0     H12681   0.541   1.081  10.294  2.7001  0.2203  1.4347
  854MOL0     H12682   0.531   0.840  10.316 -0.2959  2.6689 -0.4902
  854MOL0     H12683   0.582   0.732  10.189  2.3425  0.4418  0.5207
  854MOL0     H12684   0.384   0.779  10.068  1.1715 -0.6805  1.1216
  854MOL0     H12685   0.348   0.929  10.139  5.0519  2.7222 -0.1849
  854MOL0     H12686   0.296   0.647  10.260 -0.7815  0.1441  1.5144
  854MOL0     H12687   0.327   0.792  10.360 -0.0790 -1.8397  1.0956
  854MOL0     H12688   0.105   0.800  10.149  0.5416 -1.2302 -0.5739
  854MOL0     H12689   0.112   0.887  10.301 -0.1617 -0.7778  2.6180
  854MOL0     H12690  -0.092   0.486  10.403  2.0550  0.2371 -1.2432
  854MOL0     H12691  -0.336   0.483  10.412  2.5388 -1.3656  0.2502
  854MOL0     H12692  -0.713   0.495  10.170  1.5111  1.8000  0.3373
  854MOL0     H12693  -0.944   0.447  10.159  0.0649  1.3769 -0.3728
  854MOL0     H12694  -1.170   0.506  10.550  0.0208  0.2293  0.0879
  854MOL0     H12695  -1.292   0.441  10.447  0.9068 -1.1560  2.1867
  854MOL0     H12696  -1.227   0.672  10.308 -0.9465  1.1962  0.6585
  854MOL0     H12697  -1.190   0.715  10.469 -0.6771 -0.2894  1.1381
  854MOL0     H12698  -1.405   0.640  10.574 -1.3133 -1.3976 -0.9697
  854MOL0     H12699  -1.462   0.616  10.411  0.0127 -2.8147  2.4955
  854MOL0     H12700  -1.340   0.861  10.548 -0.9225 -0.3417  0.3194
  854MOL0     H12701  -1.412   0.875  10.389 -0.7623 -1.0247 -0.8912
  854MOL0     H12702  -1.549   0.964  10.567 -1.3533 -0.6784  1.1684
  854MOL0     H12703  -1.567   0.811  10.646  0.3374 -1.5975 -1.2196
  854MOL0     H12704  -1.688   0.717  10.434 -0.8468  0.0841 -1.8680
  854MOL0     H12705  -1.645   0.870  10.356  0.9819 -0.2906  0.0191
  854MOL0     H12706  -1.767   0.998  10.521 -0.1845 -0.0802  2.5362
  854MOL0     H12707  -1.868   0.896  10.413  2.9051 -2.6892 -1.9448
  854MOL0     H12708  -1.947   0.889  10.646 -0.0312  0.6442 -1.8498
  854MOL0     H12709  -1.786   0.834  10.701 -0.2939  0.1861  0.0652
  854MOL0     H12710  -0.994   0.625  10.541  0.1564  0.0292  0.0806
  854MOL0     H12711  -0.755   0.636  10.570 -1.2864 -1.2849  1.1695
  854MOL0     H12712  -0.343   0.893  10.296  2.3567  1.4947 -1.0288
  854MOL0     H12713  -0.105   0.896  10.280 -0.6520  0.4740 -0.9797
  854MOL0     H12714   1.611   1.582  10.348  1.4787  1.5799 -1.2274
  854MOL0     H12715   1.812   1.633  10.467  2.0163  1.1785 -1.3630
  854MOL0     H12716   2.130   1.738  10.615 -1.0513 -0.7442  2.2398
  854MOL0     H12717   2.282   1.830  10.781  4.4305  2.6458 -0.7697
  854MOL0     H12718   2.403   1.787  11.008 -0.6661  2.8954  0.0501
  854MOL0     H12719   2.466   1.906  10.896 -0.6010  0.4416 -0.6483
  854MOL0     H12720   2.591   1.873  11.126 -1.0857  0.3816  0.1164
  854MOL0     H12721   2.625   1.713  11.074  0.0355  0.4004 -0.1832
  854MOL0     H12722   2.750   1.818  10.874 -0.6421 -0.9306 -0.5013
  854MOL0     H12723   2.811   1.842  11.048 -1.9702  0.9143  1.8964
  854MOL0     H12724   2.675   2.050  10.862  0.9456  1.2458  0.1866
  854MOL0     H12725   2.678   2.066  11.040  0.4223 -0.7061  0.6317
  854MOL0     H12726   3.053   2.212  10.934 -0.1593  0.3673  0.7892
  854MOL0     H12727   2.547   1.518  10.714  0.1290 -0.5203 -1.7701
  854MOL0     H12728   2.406   1.410  10.552 -0.1239 -0.6034  3.5438
  855MOL0     O12729   1.918   9.447   6.899  0.1829  0.0518 -0.3371
  855MOL0     C12730   1.993   9.488   6.981 -0.3842  0.6520 -0.3673
  855MOL0     O12731   1.980   9.483   7.115  0.0594  0.6307 -0.8982
  855MOL0     C12732   1.855   9.460   7.175 -0.0512  0.3131 -0.6147
  855MOL0     C12733   1.732   9.513   7.124 -0.5567  0.3036 -0.0586
  855MOL0     C12734   1.614   9.469   7.185  0.5665  0.0850  0.1895
  855MOL0     C12735   1.609   9.383   7.289 -0.7564  0.4886 -0.1817
  855MOL0     O12736   1.498   9.350   7.366  0.7940 -0.0799  0.1517
  855MOL0     C12737   1.393   9.460   7.369  0.0532  0.1808  0.3611
  855MOL0     C12738   1.286   9.423   7.270 -0.2411 -0.1897 -0.1171
  855MOL0     C12739   1.147   9.473   7.333  0.0732 -0.0530  0.1139
  855MOL0     C12740   1.024   9.418   7.252  0.4122 -0.4167 -0.4680
  855MOL0     C12741   0.891   9.466   7.316  0.1051  0.2150 -0.9112
  855MOL0     C12742   0.789   9.356   7.293  1.0718 -0.0549  1.1368
  855MOL0     C12743   0.761   9.332   7.141  0.1050  0.1059 -0.3656
  855MOL0     C12744   0.665   9.203   7.139  0.1559  0.0278 -0.7049
  855MOL0     N12745   0.527   9.229   7.166  0.7426  0.5328 -0.6485
  855MOL0     C12746   0.441   9.294   7.079 -0.3468 -0.5919  1.0840
  855MOL0     C12747   0.322   9.284   7.137  0.3503 -0.2755  0.0156
  855MOL0     C12748   0.190   9.333   7.086 -0.8189  0.0416 -0.8282
  855MOL0     C12749   0.111   9.210   7.033  0.0580  0.4026  1.3633
  855MOL0     C12750  -0.031   9.246   6.986 -0.1274 -0.2827  0.5602
  855MOL0     C12751  -0.082   9.116   6.923 -0.2883  0.6125 -0.3657
  855MOL0     O12752  -0.209   9.143   6.873  0.2282  0.1952  0.1135
  855MOL0     C12753  -0.307   9.149   6.969 -0.6990 -0.5322 -0.0298
  855MOL0     C12754  -0.370   9.040   7.020 -0.7087  0.3300  0.0653
  855MOL0     C12755  -0.495   9.043   7.081  0.2708 -0.2710 -0.4048
  855MOL0     C12756  -0.554   9.164   7.113  0.3947  0.5050 -0.1027
  855MOL0     C12757  -0.668   9.173   7.196 -0.1638  0.8940  0.0147
  855MOL0     O12758  -0.771   9.077   7.186 -0.5592  0.3055 -0.0119
  855MOL0     C12759  -0.880   9.082   7.272 -0.1196 -0.2659  0.5644
  855MOL0     C12760  -0.938   9.204   7.321 -0.0748 -0.0851  0.8072
  855MOL0     C12761  -1.053   9.199   7.405  0.4450 -0.8104 -0.8194
  855MOL0     C12762  -1.114   9.076   7.432 -0.1091 -0.2772  1.0648
  855MOL0     O12763  -1.219   9.074   7.516  0.3908 -0.2658 -0.6674
  855MOL0     C12764  -1.318   8.976   7.507  0.6167  0.0768 -0.9737
  855MOL0     C12765  -1.316   8.886   7.627 -0.0085  0.3866 -0.0353
  855MOL0     C12766  -1.438   8.801   7.619 -0.8270  0.5644 -0.6711
  855MOL0     C12767  -1.451   8.690   7.718  0.3909 -0.4680 -0.3245
  855MOL0     C12768  -1.564   8.587   7.681 -1.0163 -0.3825 -0.2383
  855MOL0     C12769  -1.548   8.462   7.771  1.1618 -0.4703 -1.1760
  855MOL0     C12770  -1.686   8.383   7.771  0.3168  0.7008 -0.4170
  855MOL0     C12771  -1.664   8.260   7.855 -0.1762 -0.6469  0.5673
  855MOL0    Cl12772  -1.816   8.221   7.932  0.5717 -0.0201 -0.0172
  855MOL0     C12773  -1.054   8.965   7.380 -0.3683 -0.2663  0.5303
  855MOL0     C12774  -0.940   8.961   7.310 -0.4345  0.4592  0.2147
  855MOL0     O12775  -0.667   9.273   7.271 -0.2465  0.3017  0.0699
  855MOL0     C12776  -0.490   9.287   7.065 -0.3626  0.8697 -0.2780
  855MOL0     C12777  -0.367   9.275   6.990  0.8195 -0.4217  0.2481
  855MOL0     N12778   0.330   9.216   7.264 -0.2840 -0.0210 -0.1056
  855MOL0     N12779   0.452   9.186   7.278 -0.3425 -0.1002  0.0605
  855MOL0     C12780   1.729   9.333   7.334  0.5097  0.8195 -0.0274
  855MOL0     C12781   1.852   9.373   7.285 -0.5293 -1.2623  1.2907
  855MOL0     C12782   2.124   9.538   6.929 -0.8764  0.6687 -0.4069
  855MOL0     C12783   2.221   9.588   7.014  0.3720  0.1235 -0.3235
  855MOL0     C12784   2.346   9.636   6.969 -0.1041  0.2836 -0.5484
  855MOL0     C12785   2.375   9.616   6.842  0.1344 -0.0028  0.8226
  855MOL0     O12786   2.500   9.654   6.797 -0.3589  0.1428 -0.1411
  855MOL0     C12787   2.565   9.551   6.723  0.9733 -0.9383  0.4425
  855MOL0     C12788   2.703   9.589   6.724  0.5101  0.7689  0.3235
  855MOL0     C12789   2.763   9.527   6.589  0.2024  0.6082  0.0073
  855MOL0     C12790   2.909   9.559   6.566  0.1397 -0.8591 -0.3800
  855MOL0     C12791   3.001   9.475   6.641 -0.2615 -0.0712  0.9477
  855MOL0     C12792   3.088   9.416   6.700  0.6208  1.5070  0.1918
  855MOL0     C12793   2.274   9.563   6.754  0.0509  0.4676  0.6021
  855MOL0     C12794   2.152   9.521   6.797  1.1800  0.2874 -0.1411
  855MOL0     H12795   1.735   9.569   7.031 -0.6384  0.0055 -0.2437
  855MOL0     H12796   1.533   9.526   7.139  1.0481 -0.3279 -1.2108
  855MOL0     H12797   1.435   9.560   7.355 -0.6153 -0.0088 -4.9244
  855MOL0     H12798   1.343   9.467   7.467  0.8210  0.9930  0.7112
  855MOL0     H12799   1.289   9.321   7.229 -2.7944  0.4296 -2.1160
  855MOL0     H12800   1.316   9.476   7.180  0.5245 -0.0727  0.2020
  855MOL0     H12801   1.148   9.583   7.337  2.1935 -0.0462  1.3262
  855MOL0     H12802   1.128   9.447   7.438 -1.7912  0.4911 -0.0607
  855MOL0     H12803   1.034   9.463   7.153  0.4025  0.1179 -0.2280
  855MOL0     H12804   1.021   9.308   7.253 -1.6536 -0.4009  0.6103
  855MOL0     H12805   0.865   9.567   7.284 -1.1336  0.6373  1.2715
  855MOL0     H12806   0.907   9.469   7.424 -0.9824  0.7988 -0.7587
  855MOL0     H12807   0.697   9.382   7.346 -1.1750  1.2334 -2.9623
  855MOL0     H12808   0.833   9.268   7.341  2.8463  0.7193  0.9913
  855MOL0     H12809   0.707   9.416   7.096 -0.0238 -0.3436 -1.0600
  855MOL0     H12810   0.855   9.317   7.088  0.1437  2.5428 -1.0931
  855MOL0     H12811   0.706   9.126   7.205 -1.0025  0.2758  0.3338
  855MOL0     H12812   0.651   9.172   7.035 -1.9894  1.3989 -0.8895
  855MOL0     H12813   0.462   9.333   6.980 -1.3303 -0.9475  0.7194
  855MOL0     H12814   0.213   9.412   7.014  0.7103  0.7151  0.3337
  855MOL0     H12815   0.142   9.364   7.179  2.8893 -2.5229  2.2915
  855MOL0     H12816   0.102   9.125   7.101 -2.5409 -2.0804 -1.7381
  855MOL0     H12817   0.165   9.166   6.948 -1.4245 -0.7030  0.9655
  855MOL0     H12818  -0.080   9.279   7.078  2.9387  1.5723  1.6663
  855MOL0     H12819  -0.035   9.321   6.907 -3.6100 -2.0371 -1.1647
  855MOL0     H12820  -0.084   9.028   6.988 -0.0858  1.4497  0.8162
  855MOL0     H12821  -0.017   9.100   6.836  0.1795  0.3221  0.0308
  855MOL0     H12822  -0.319   8.947   6.996  0.8651  0.9533  0.8335
  855MOL0     H12823  -0.541   8.949   7.109  1.4595 -1.6324 -2.7080
  855MOL0     H12824  -0.894   9.301   7.299  0.0621 -0.0025  1.4177
  855MOL0     H12825  -1.098   9.287   7.451 -0.8029 -1.5159 -0.6541
  855MOL0     H12826  -1.331   8.920   7.414 -1.8968  0.0836 -0.6959
  855MOL0     H12827  -1.407   9.034   7.532  0.8645 -0.3194  1.0219
  855MOL0     H12828  -1.312   8.939   7.723  1.7490  0.3899 -0.0826
  855MOL0     H12829  -1.222   8.830   7.627 -0.0448  0.2343  2.2491
  855MOL0     H12830  -1.425   8.746   7.525  1.6792  0.9039 -0.5942
  855MOL0     H12831  -1.525   8.867   7.610  1.3768  3.8762  0.5696
  855MOL0     H12832  -1.360   8.630   7.715  1.3434  0.9615 -1.2818
  855MOL0     H12833  -1.482   8.730   7.815  1.1584  0.5230 -0.4721
  855MOL0     H12834  -1.544   8.561   7.577 -4.1985  1.2699 -1.3702
  855MOL0     H12835  -1.666   8.625   7.692 -1.3395 -1.2249 -0.2188
  855MOL0     H12836  -1.524   8.487   7.875 -0.8116 -0.9599 -0.5648
  855MOL0     H12837  -1.467   8.395   7.742  0.1690 -1.1562 -2.4757
  855MOL0     H12838  -1.765   8.455   7.793  2.0266  2.1200  1.5704
  855MOL0     H12839  -1.706   8.348   7.670  0.1194  1.0070 -0.4836
  855MOL0     H12840  -1.587   8.266   7.933 -0.2739  0.1007  0.6201
  855MOL0     H12841  -1.624   8.186   7.786 -1.3603  1.0527 -2.1110
  855MOL0     H12842  -1.088   8.867   7.413  0.4916  0.5068  4.2143
  855MOL0     H12843  -0.905   8.864   7.276  0.7285  1.1989 -0.7733
  855MOL0     H12844  -0.531   9.388   7.063 -2.8789 -0.0844 -0.6042
  855MOL0     H12845  -0.328   9.370   6.957  1.1587 -0.2699  1.0590
  855MOL0     H12846   1.712   9.273   7.423 -1.0765  0.3059 -0.6361
  855MOL0     H12847   1.944   9.339   7.331  0.9267  1.4513  0.5974
  855MOL0     H12848   2.213   9.579   7.122  0.6518 -2.5727 -0.4665
  855MOL0     H12849   2.405   9.680   7.049 -1.7835  1.9755 -0.1594
  855MOL0     H12850   2.512   9.543   6.628 -2.5862  0.1921  2.1553
  855MOL0     H12851   2.557   9.457   6.779 -0.7270  0.2806  2.4286
  855MOL0     H12852   2.711   9.698   6.718 -1.7727  0.9356 -0.5535
  855MOL0     H12853   2.755   9.554   6.814 -1.1584  0.0620  1.0503
  855MOL0     H12854   2.706   9.571   6.507  1.9974  3.9716  0.3618
  855MOL0     H12855   2.747   9.419   6.593  1.4922  0.4449  1.8226
  855MOL0     H12856   2.918   9.545   6.458 -2.4030 -3.0412 -0.4082
  855MOL0     H12857   2.931   9.663   6.591  1.5260 -0.5502 -2.5577
  855MOL0     H12858   3.172   9.368   6.745  0.4136  1.9349  1.0421
  855MOL0     H12859   2.293   9.555   6.647  1.5424 -1.1191  0.9354
  855MOL0     H12860   2.090   9.480   6.717  2.3125 -0.2030 -0.8037
  856MOL0     O12861   5.664   6.533   2.851 -0.4355 -0.4264  0.4465
  856MOL0     C12862   5.644   6.598   2.959 -0.7673 -0.4909  0.6578
  856MOL0     O12863   5.526   6.613   3.019 -0.9661  0.7565 -0.1297
  856MOL0     C12864   5.417   6.551   2.964  0.2920 -0.4418 -0.4998
  856MOL0     C12865   5.382   6.580   2.828  0.7069 -0.5098 -0.4930
  856MOL0     C12866   5.272   6.519   2.772  0.1480 -0.0774 -0.3810
  856MOL0     C12867   5.198   6.424   2.846 -0.2992 -0.2342  0.0852
  856MOL0     O12868   5.084   6.378   2.787 -0.2504 -0.4452 -0.1719
  856MOL0     C12869   5.035   6.251   2.807  0.3812 -0.2575 -0.1867
  856MOL0     C12870   4.891   6.257   2.845  0.5957  1.3179  0.8933
  856MOL0     C12871   4.850   6.300   2.980 -0.9106  0.2524 -0.0939
  856MOL0     C12872   4.697   6.314   2.988  0.1966 -0.5667 -1.1933
  856MOL0     C12873   4.648   6.335   3.138  0.6036 -0.0272 -0.2331
  856MOL0     C12874   4.689   6.462   3.216  0.0677  0.2730 -0.0505
  856MOL0     C12875   4.648   6.598   3.157 -0.1131  0.0872 -0.6705
  856MOL0     C12876   4.496   6.631   3.173 -0.6479 -0.0260 -0.2021
  856MOL0     N12877   4.477   6.636   3.313  0.9409  0.2305 -0.0269
  856MOL0     C12878   4.528   6.724   3.403  0.9349  0.1630 -0.0084
  856MOL0     C12879   4.506   6.674   3.529 -0.8723 -0.1358 -0.4184
  856MOL0     C12880   4.544   6.725   3.667 -0.2581 -0.1368 -0.0153
  856MOL0     C12881   4.625   6.624   3.744  0.3296  1.1053  0.0654
  856MOL0     C12882   4.663   6.660   3.885 -0.9660  0.9855  0.1665
  856MOL0     C12883   4.788   6.572   3.922  0.6136 -0.3410  0.1998
  856MOL0     O12884   4.877   6.661   3.985  0.3371  0.2443  0.4477
  856MOL0     C12885   4.995   6.629   4.049  1.1241 -0.0445  0.7112
  856MOL0     C12886   5.057   6.499   4.063  0.0426 -0.1929  0.1197
  856MOL0     C12887   5.175   6.486   4.130 -0.7244 -0.3956  0.3572
  856MOL0     C12888   5.234   6.599   4.196 -0.2969 -0.2152  0.9201
  856MOL0     C12889   5.350   6.582   4.279 -1.2151  0.9648  0.1657
  856MOL0     O12890   5.371   6.674   4.373  1.2094  0.1668 -0.3147
  856MOL0     C12891   5.488   6.671   4.448  0.1269  0.0274  0.3540
  856MOL0     C12892   5.482   6.664   4.587  0.4978 -0.6412 -0.1172
  856MOL0     C12893   5.597   6.668   4.676 -0.5055  0.2387  0.6630
  856MOL0     C12894   5.721   6.679   4.615 -0.0766 -0.1774 -0.4082
  856MOL0     O12895   5.819   6.701   4.704 -0.1038  0.0239  0.1864
  856MOL0     C12896   5.909   6.815   4.672  0.0908 -0.0110  0.6556
  856MOL0     C12897   6.015   6.842   4.777 -0.3951 -0.7068 -0.7700
  856MOL0     C12898   6.123   6.740   4.760  0.9675  0.8607 -0.4133
  856MOL0     C12899   6.247   6.782   4.842 -0.3688  0.7660  0.3163
  856MOL0     C12900   6.361   6.681   4.843 -0.8752 -0.1087 -0.7316
  856MOL0     C12901   6.503   6.730   4.883  0.0273  0.3041  1.1168
  856MOL0     C12902   6.587   6.610   4.898 -0.7143  0.2581 -0.5052
  856MOL0     C12903   6.737   6.648   4.933  0.9124  0.0066 -0.2207
  856MOL0    Cl12904   6.806   6.725   4.793  0.0139  0.2335  0.0150
  856MOL0     C12905   5.731   6.689   4.474 -0.2319  0.2181  0.0350
  856MOL0     C12906   5.625   6.672   4.390 -0.0372  0.5650  0.1072
  856MOL0     O12907   5.417   6.486   4.261  0.4699  0.2124 -0.0970
  856MOL0     C12908   5.178   6.734   4.178 -0.5506  0.8990  0.1645
  856MOL0     C12909   5.059   6.747   4.106  0.3305 -0.9208 -0.9619
  856MOL0     N12910   4.439   6.553   3.503 -0.4377  0.0918 -0.0078
  856MOL0     N12911   4.416   6.533   3.381 -0.3291  0.0448  0.2797
  856MOL0     C12912   5.225   6.398   2.973  0.1710 -0.5388 -0.0827
  856MOL0     C12913   5.336   6.462   3.037  1.2812 -0.6642  0.0185
  856MOL0     C12914   5.760   6.653   3.025  0.6244 -0.2910  0.2470
  856MOL0     C12915   5.754   6.666   3.164  0.7276  0.2956  0.4645
  856MOL0     C12916   5.855   6.725   3.232 -0.0801  0.2357 -0.3800
  856MOL0     C12917   5.972   6.776   3.174  0.1393 -0.2267  0.0725
  856MOL0     O12918   6.070   6.844   3.252  0.3810  0.2525  0.2186
  856MOL0     C12919   6.164   6.920   3.178 -0.3334  0.3122  0.5737
  856MOL0     C12920   6.247   7.002   3.273  0.2723  0.7820  0.5434
  856MOL0     C12921   6.172   7.096   3.360  0.1031  0.1014  0.1284
  856MOL0     C12922   6.250   7.215   3.407  0.1756 -0.1791  0.4242
  856MOL0     C12923   6.332   7.177   3.522 -0.3220  0.3047  0.2959
  856MOL0     C12924   6.402   7.147   3.621  0.3311  0.4808 -0.9332
  856MOL0     C12925   5.982   6.746   3.036 -0.2103  0.0623  0.2411
  856MOL0     C12926   5.881   6.685   2.962  0.7754  0.3784  0.3854
  856MOL0     H12927   5.429   6.642   2.752 -0.6536  2.8596  1.1577
  856MOL0     H12928   5.241   6.552   2.674  0.1784 -0.5573 -0.5550
  856MOL0     H12929   5.100   6.187   2.868 -0.5322 -3.5227 -2.3865
  856MOL0     H12930   5.044   6.197   2.712  0.9273 -1.1425  0.3482
  856MOL0     H12931   4.847   6.160   2.819  2.5653  0.7735 -0.6448
  856MOL0     H12932   4.838   6.326   2.779  1.7061  2.3342  1.0446
  856MOL0     H12933   4.905   6.390   3.008  0.0662 -1.0009  2.2842
  856MOL0     H12934   4.887   6.222   3.047  0.7284  1.5391  0.5693
  856MOL0     H12935   4.660   6.401   2.933 -1.2967  2.2362  3.6891
  856MOL0     H12936   4.641   6.229   2.947 -0.6657  0.0782 -1.3929
  856MOL0     H12937   4.679   6.243   3.188 -1.2625 -1.8636 -2.1900
  856MOL0     H12938   4.538   6.329   3.137  0.6271 -1.4485  1.4533
  856MOL0     H12939   4.799   6.461   3.219  0.1040 -1.0898 -0.9737
  856MOL0     H12940   4.673   6.441   3.322 -0.5549 -2.5674 -0.6105
  856MOL0     H12941   4.717   6.670   3.201  1.3862 -2.3345  1.2360
  856MOL0     H12942   4.668   6.599   3.050 -0.0077 -0.9233 -0.6722
  856MOL0     H12943   4.436   6.548   3.135 -3.2335  0.9415  1.4106
  856MOL0     H12944   4.470   6.727   3.128  0.1527  2.0998  3.4551
  856MOL0     H12945   4.580   6.818   3.385  1.9103 -0.3154  0.2350
  856MOL0     H12946   4.457   6.754   3.728  0.7964  3.8138 -0.0971
  856MOL0     H12947   4.606   6.814   3.654 -0.2888  0.0613  1.0775
  856MOL0     H12948   4.717   6.609   3.687  0.2060  0.3967  0.0505
  856MOL0     H12949   4.570   6.530   3.756  2.5442 -0.1784  0.7327
  856MOL0     H12950   4.691   6.765   3.888  0.6422  0.6489 -1.3291
  856MOL0     H12951   4.593   6.639   3.967  0.6544  3.4119  2.3311
  856MOL0     H12952   4.829   6.533   3.828  0.9256 -0.1148  0.2390
  856MOL0     H12953   4.762   6.490   3.990  1.7062 -0.4956  0.4647
  856MOL0     H12954   5.010   6.418   4.007  0.4127 -0.1107 -0.3187
  856MOL0     H12955   5.218   6.386   4.136 -3.5258 -1.7366 -0.3192
  856MOL0     H12956   5.386   6.648   4.635  0.8122  0.1515  0.7853
  856MOL0     H12957   5.594   6.659   4.784  0.2079 -0.4445  0.6370
  856MOL0     H12958   5.845   6.904   4.670  0.6811  0.4158  0.5391
  856MOL0     H12959   5.963   6.801   4.578 -0.3456  1.7397  0.1096
  856MOL0     H12960   5.976   6.834   4.879  0.6051  2.3837 -0.0492
  856MOL0     H12961   6.058   6.942   4.767 -1.3741 -0.4621 -3.3339
  856MOL0     H12962   6.160   6.734   4.658  1.5593 -1.4234 -0.1216
  856MOL0     H12963   6.091   6.640   4.789  0.8543  1.1456  0.4830
  856MOL0     H12964   6.280   6.874   4.793 -3.8025  1.3059 -1.2695
  856MOL0     H12965   6.227   6.799   4.948  0.7863  1.2729  0.4756
  856MOL0     H12966   6.374   6.633   4.745 -0.7342  0.9922 -1.2631
  856MOL0     H12967   6.342   6.595   4.909 -3.0169  1.4318  0.8024
  856MOL0     H12968   6.495   6.798   4.969 -3.3374  1.8666 -0.2690
  856MOL0     H12969   6.545   6.789   4.801  0.7878 -2.3789 -0.5489
  856MOL0     H12970   6.543   6.563   4.987  1.4218  1.1451  1.1024
  856MOL0     H12971   6.591   6.549   4.807  1.0141 -2.2004  1.0704
  856MOL0     H12972   6.795   6.559   4.960 -2.5665 -2.3689  0.0796
  856MOL0     H12973   6.729   6.713   5.021 -2.3743 -1.7033  0.9154
  856MOL0     H12974   5.829   6.692   4.428 -1.1691 -2.5980 -2.5091
  856MOL0     H12975   5.651   6.673   4.285  2.5628  1.3018  0.6650
  856MOL0     H12976   5.225   6.827   4.208 -1.1631  1.4788 -0.6450
  856MOL0     H12977   5.018   6.846   4.090  1.4434  0.0824  1.7859
  856MOL0     H12978   5.157   6.336   3.031  0.2747 -1.2153 -0.6754
  856MOL0     H12979   5.345   6.435   3.141 -0.6531 -0.1838  0.3552
  856MOL0     H12980   5.660   6.650   3.215  0.9136  1.3787  1.1866
  856MOL0     H12981   5.846   6.743   3.339 -2.2034 -1.3176 -0.2405
  856MOL0     H12982   6.105   6.992   3.120 -0.6214  0.1097  0.6127
  856MOL0     H12983   6.216   6.852   3.109 -0.1251  2.1436 -1.1817
  856MOL0     H12984   6.309   6.930   3.327  2.5276  1.5621 -0.8638
  856MOL0     H12985   6.317   7.062   3.214  0.3898  0.3981  0.2848
  856MOL0     H12986   6.129   7.042   3.445 -0.3541 -1.8469 -1.2670
  856MOL0     H12987   6.083   7.132   3.308  0.4326  3.2251  1.4725
  856MOL0     H12988   6.311   7.257   3.327  0.2094  1.6784  1.3757
  856MOL0     H12989   6.192   7.296   3.452 -0.7463 -0.8324  0.4481
  856MOL0     H12990   6.445   7.119   3.715  0.2103 -0.2910 -1.0992
  856MOL0     H12991   6.074   6.774   2.985 -0.1989 -0.0454  0.2019
  856MOL0     H12992   5.895   6.675   2.854  2.3000  1.2970  0.4717
  857MOL0     O12993   2.839   5.259   4.375  0.7117 -0.9355  0.2344
  857MOL0     C12994   2.854   5.198   4.271 -0.0353  0.0440 -0.1946
  857MOL0     O12995   2.757   5.142   4.205 -0.5378 -0.1762 -0.3742
  857MOL0     C12996   2.630   5.184   4.203 -0.5250 -0.4521  1.3255
  857MOL0     C12997   2.589   5.236   4.074 -0.6045  0.2877  0.3723
  857MOL0     C12998   2.456   5.282   4.067 -0.6946  0.3380 -0.2721
  857MOL0     C12999   2.375   5.286   4.180 -0.0230 -0.7307  0.5112
  857MOL0     O13000   2.255   5.345   4.171  0.5823  0.2508 -0.3265
  857MOL0     C13001   2.135   5.262   4.169  0.3725  0.4394  1.2617
  857MOL0     C13002   2.102   5.239   4.018 -0.5523  0.7359  0.6572
  857MOL0     C13003   1.964   5.192   3.987  0.2655  0.9272  0.2773
  857MOL0     C13004   1.942   5.039   4.014 -0.2854  0.4458 -0.1227
  857MOL0     C13005   1.805   4.984   4.036 -0.9948 -0.6475 -0.0837
  857MOL0     C13006   1.743   4.985   3.899 -0.1253  0.3900 -0.4333
  857MOL0     C13007   1.589   4.972   3.895 -0.5107  0.1570  0.8746
  857MOL0     C13008   1.543   4.825   3.883  0.7049  0.9176  0.0730
  857MOL0     N13009   1.403   4.837   3.887 -0.1278  0.6542 -0.2850
  857MOL0     C13010   1.327   4.811   3.772 -0.2389  0.1975  0.5167
  857MOL0     C13011   1.196   4.830   3.808  0.0153 -0.4507  0.0779
  857MOL0     C13012   1.082   4.835   3.712  1.0175  0.3661  0.0763
  857MOL0     C13013   0.989   4.725   3.723  0.2586  0.1506  0.1025
  857MOL0     C13014   0.914   4.731   3.866  0.3453 -0.0676  0.1349
  857MOL0     C13015   0.918   4.600   3.939 -0.9548 -0.2474 -0.5923
  857MOL0     O13016   0.820   4.502   3.900 -1.0436 -0.0265 -0.1866
  857MOL0     C13017   0.691   4.526   3.926  0.7175 -0.1061  0.0456
  857MOL0     C13018   0.645   4.615   4.016  0.4755  0.0404 -0.2152
  857MOL0     C13019   0.513   4.657   4.035  0.5882  0.4041 -0.4021
  857MOL0     C13020   0.414   4.585   3.975 -0.2185 -0.5954  0.3948
  857MOL0     C13021   0.272   4.596   4.020 -0.5106 -0.5763 -0.1008
  857MOL0     O13022   0.245   4.695   4.122 -0.5938  0.3873  0.0274
  857MOL0     C13023   0.128   4.740   4.163  0.8889  0.2331  0.2550
  857MOL0     C13024   0.011   4.660   4.164  0.3192 -0.8285 -0.2468
  857MOL0     C13025  -0.104   4.727   4.209 -0.2726  0.0081  0.2125
  857MOL0     C13026  -0.114   4.856   4.255 -0.1956  0.6339 -0.8576
  857MOL0     O13027  -0.227   4.912   4.294  0.7656 -0.4076 -1.5328
  857MOL0     C13028  -0.339   4.830   4.349 -0.7264  0.2264  0.2089
  857MOL0     C13029  -0.447   4.911   4.418 -0.0465  0.0306  1.1374
  857MOL0     C13030  -0.515   4.990   4.314 -0.0881  0.4204 -0.5601
  857MOL0     C13031  -0.589   5.105   4.374 -0.0151  0.6720 -0.1173
  857MOL0     C13032  -0.681   5.176   4.279 -0.0677  0.1633  0.3602
  857MOL0     C13033  -0.639   5.318   4.241  0.5808 -0.0991  0.1164
  857MOL0     C13034  -0.709   5.373   4.117 -0.1309  0.1984 -0.7379
  857MOL0     C13035  -0.863   5.375   4.121 -0.3922 -0.3347  0.0801
  857MOL0    Cl13036  -0.918   5.435   4.280 -0.2315 -0.0519 -0.2000
  857MOL0     C13037  -0.002   4.947   4.238  0.6526  0.4951 -0.3476
  857MOL0     C13038   0.115   4.883   4.197 -0.5151  0.1815 -0.4403
  857MOL0     O13039   0.185   4.537   3.958  0.0909  0.0919  0.3210
  857MOL0     C13040   0.451   4.498   3.872  0.4861 -0.9215  0.2632
  857MOL0     C13041   0.588   4.468   3.843 -0.0371 -0.1250  0.1155
  857MOL0     N13042   1.201   4.848   3.946  0.3436  0.5967  0.1517
  857MOL0     N13043   1.318   4.854   3.987  0.6266  0.5061 -0.7648
  857MOL0     C13044   2.420   5.236   4.300 -0.6437  0.1846  0.3484
  857MOL0     C13045   2.546   5.182   4.313 -1.6246 -1.4784 -0.1271
  857MOL0     C13046   2.994   5.174   4.218  0.5966 -0.3247 -0.1855
  857MOL0     C13047   3.105   5.243   4.278  0.2284  0.3899 -0.7503
  857MOL0     C13048   3.235   5.217   4.227 -1.3695 -0.6865  0.4176
  857MOL0     C13049   3.260   5.148   4.111 -0.0370 -0.5762 -0.5815
  857MOL0     O13050   3.392   5.151   4.075  0.3364  0.7402  0.6216
  857MOL0     C13051   3.419   5.157   3.932  0.3529  0.5033 -0.6381
  857MOL0     C13052   3.363   5.290   3.866 -0.4938  0.0841  0.1728
  857MOL0     C13053   3.375   5.266   3.726  0.7541 -0.0385 -0.0200
  857MOL0     C13054   3.513   5.268   3.655 -0.2167 -0.0291 -0.3583
  857MOL0     C13055   3.498   5.245   3.513 -0.0452 -0.0623 -0.6781
  857MOL0     C13056   3.482   5.229   3.394  0.0187 -0.7529  0.6007
  857MOL0     C13057   3.153   5.063   4.063  0.4575 -0.4900  0.2505
  857MOL0     C13058   3.020   5.089   4.107  0.2021 -0.2437  0.1297
  857MOL0     H13059   2.654   5.230   3.987  0.3191 -0.2082  1.0893
  857MOL0     H13060   2.420   5.310   3.968  1.4901  3.0196 -0.4425
  857MOL0     H13061   2.056   5.314   4.225  0.3407  0.9456  0.7521
  857MOL0     H13062   2.154   5.161   4.209  2.6825  1.0215  1.7918
  857MOL0     H13063   2.185   5.177   3.983  0.7279  1.5063  2.1740
  857MOL0     H13064   2.126   5.334   3.969  0.9405 -0.2737 -0.6590
  857MOL0     H13065   1.938   5.212   3.882 -0.9201  1.4254  0.6535
  857MOL0     H13066   1.895   5.257   4.041  2.4094  1.6546  2.2909
  857MOL0     H13067   1.989   4.991   3.928  0.2329 -0.9399  0.9047
  857MOL0     H13068   2.004   4.996   4.093  0.5488 -0.7862 -1.4017
  857MOL0     H13069   1.754   5.043   4.112 -2.1500 -1.4988 -0.1533
  857MOL0     H13070   1.805   4.882   4.077  2.0401 -0.5124  0.4792
  857MOL0     H13071   1.793   4.917   3.829  1.5905  0.6073  0.5241
  857MOL0     H13072   1.759   5.087   3.861 -0.8251  2.1496  3.4851
  857MOL0     H13073   1.538   5.013   3.983 -0.7326 -0.4812  1.0476
  857MOL0     H13074   1.564   5.040   3.813 -0.9464  3.2618  3.3918
  857MOL0     H13075   1.580   4.758   3.961 -2.7915 -0.7167  0.5148
  857MOL0     H13076   1.569   4.791   3.782 -4.2909  0.9300 -1.4834
  857MOL0     H13077   1.363   4.773   3.677 -0.4975 -2.8612  1.5507
  857MOL0     H13078   1.111   4.841   3.607  1.6243 -0.7099  0.1599
  857MOL0     H13079   1.033   4.930   3.735  1.0157  0.3932 -0.0397
  857MOL0     H13080   1.036   4.626   3.715  1.5553  0.8740 -2.9550
  857MOL0     H13081   0.926   4.718   3.633  2.0014 -3.7147 -1.0330
  857MOL0     H13082   0.963   4.814   3.919  1.5727 -1.5063  1.3295
  857MOL0     H13083   0.809   4.754   3.847  0.0081 -0.9190  0.9290
  857MOL0     H13084   0.908   4.626   4.045 -2.2765 -1.9940 -0.2255
  857MOL0     H13085   1.017   4.558   3.922  0.1057  2.9859 -3.7361
  857MOL0     H13086   0.719   4.661   4.081 -1.8644 -0.6303  3.2056
  857MOL0     H13087   0.480   4.735   4.103  1.3073  0.8382 -0.5399
  857MOL0     H13088   0.011   4.552   4.156 -0.2179 -0.9524  1.0839
  857MOL0     H13089  -0.200   4.681   4.188 -0.5026  0.9004 -0.7855
  857MOL0     H13090  -0.291   4.753   4.410 -1.0617 -0.8536 -0.8394
  857MOL0     H13091  -0.377   4.779   4.260  0.2774 -0.1659 -0.0150
  857MOL0     H13092  -0.409   4.974   4.500 -0.5780 -0.1295  1.5117
  857MOL0     H13093  -0.521   4.848   4.468 -1.4337  0.4355 -0.3294
  857MOL0     H13094  -0.574   4.930   4.245  0.2724 -2.0695  1.1385
  857MOL0     H13095  -0.437   5.046   4.262  0.6219  1.0314  1.0829
  857MOL0     H13096  -0.659   5.066   4.449 -2.4758  2.2210 -1.4408
  857MOL0     H13097  -0.527   5.183   4.417  0.9310 -0.6704  1.0491
  857MOL0     H13098  -0.782   5.168   4.321  0.9656  1.4914  3.3387
  857MOL0     H13099  -0.670   5.109   4.193  2.4593 -0.5527  1.1524
  857MOL0     H13100  -0.532   5.320   4.220  0.4827  2.9591 -0.6434
  857MOL0     H13101  -0.643   5.389   4.325  1.7075  2.0483 -1.5343
  857MOL0     H13102  -0.683   5.479   4.123 -0.4250  0.2695 -0.7073
  857MOL0     H13103  -0.664   5.332   4.026 -0.2011  0.3879 -0.8584
  857MOL0     H13104  -0.904   5.274   4.118 -0.9136 -0.3654  3.5990
  857MOL0     H13105  -0.904   5.436   4.040  0.4958 -0.8454 -0.7722
  857MOL0     H13106  -0.028   5.049   4.262 -1.3010 -0.1934  0.7006
  857MOL0     H13107   0.195   4.952   4.171 -1.3071  1.4189  0.3149
  857MOL0     H13108   0.389   4.425   3.820  2.6227 -3.0011  0.4391
  857MOL0     H13109   0.595   4.401   3.757 -3.8328 -1.6218  0.7535
  857MOL0     H13110   2.348   5.234   4.381 -1.3721  1.4331 -0.2230
  857MOL0     H13111   2.584   5.156   4.410 -0.6375  1.4974  0.3772
  857MOL0     H13112   3.104   5.303   4.368 -0.2556 -0.8788  0.1146
  857MOL0     H13113   3.314   5.267   4.281 -1.8638 -2.4122  2.9209
  857MOL0     H13114   3.369   5.071   3.886 -1.0512  0.7090  0.4255
  857MOL0     H13115   3.525   5.141   3.910  0.0898  1.1733 -2.5944
  857MOL0     H13116   3.263   5.313   3.904 -0.0186  1.0394  0.8863
  857MOL0     H13117   3.422   5.378   3.893 -1.2855  1.1239 -1.3910
  857MOL0     H13118   3.309   5.343   3.687  0.1563 -0.4908  0.0880
  857MOL0     H13119   3.327   5.173   3.694  1.9113 -0.0148 -2.0000
  857MOL0     H13120   3.561   5.366   3.663 -0.7855  0.4001 -1.9561
  857MOL0     H13121   3.575   5.186   3.695  0.3430 -0.9837 -2.9862
  857MOL0     H13122   3.454   5.205   3.294  2.1179  0.4220 -0.3398
  857MOL0     H13123   3.169   4.986   3.988  1.0456  1.7829 -2.1010
  857MOL0     H13124   2.943   5.038   4.051  1.4382 -0.2528 -1.6602
  858MOL0     O13125   1.266   5.874   8.472  0.2186 -0.0630  0.1693
  858MOL0     C13126   1.279   5.855   8.589 -0.1934 -0.5430  0.1186
  858MOL0     O13127   1.192   5.799   8.667  0.0403 -0.3096  0.0805
  858MOL0     C13128   1.072   5.764   8.606  0.3071  0.4056 -0.8522
  858MOL0     C13129   0.974   5.861   8.577 -0.6339  0.7104 -0.0988
  858MOL0     C13130   0.856   5.813   8.524 -0.0736 -0.4136  0.6929
  858MOL0     C13131   0.835   5.674   8.485 -0.1788 -0.7743 -0.0187
  858MOL0     O13132   0.708   5.644   8.440  0.2040 -0.1896  0.7096
  858MOL0     C13133   0.690   5.502   8.416 -0.8007  0.4731 -0.4181
  858MOL0     C13134   0.560   5.478   8.327  0.6338 -0.0066 -0.4331
  858MOL0     C13135   0.419   5.505   8.377  0.2967 -0.9890 -0.4501
  858MOL0     C13136   0.312   5.492   8.277 -0.0794  0.0937  0.5677
  858MOL0     C13137   0.175   5.522   8.333 -0.4676 -0.3630  0.2990
  858MOL0     C13138   0.057   5.498   8.237 -0.6078 -0.4000 -0.2620
  858MOL0     C13139  -0.065   5.495   8.318 -0.1409  0.1355 -0.5923
  858MOL0     C13140  -0.173   5.405   8.261  0.6828 -0.2524 -0.6231
  858MOL0     N13141  -0.242   5.466   8.151  0.0419 -0.1200 -1.2236
  858MOL0     C13142  -0.290   5.600   8.152  0.2140  0.0234  0.0880
  858MOL0     C13143  -0.319   5.618   8.023 -0.3036 -0.2282  0.4474
  858MOL0     C13144  -0.356   5.741   7.950  1.0907  0.1626  0.9242
  858MOL0     C13145  -0.512   5.739   7.907 -1.1612 -0.8909 -0.5939
  858MOL0     C13146  -0.551   5.888   7.894  0.1433  0.0427  0.9082
  858MOL0     C13147  -0.692   5.907   7.838  0.0864 -0.7860  0.0203
  858MOL0     O13148  -0.690   5.880   7.697 -0.0386  0.4679  0.8654
  858MOL0     C13149  -0.800   5.880   7.615  0.1978 -0.4143 -0.5243
  858MOL0     C13150  -0.787   5.884   7.478 -0.0035 -0.5494 -0.2162
  858MOL0     C13151  -0.898   5.893   7.404  0.1715 -0.4170  0.5072
  858MOL0     C13152  -1.026   5.864   7.460  0.8234 -1.0115  0.6982
  858MOL0     C13153  -1.146   5.852   7.376  0.0981 -0.2216 -0.8555
  858MOL0     O13154  -1.269   5.837   7.438 -0.1353 -0.0304 -0.8339
  858MOL0     C13155  -1.387   5.815   7.370  0.1341  0.4296  0.9211
  858MOL0     C13156  -1.498   5.903   7.398 -0.5954  1.1474  0.0883
  858MOL0     C13157  -1.618   5.891   7.333 -0.1960 -0.1034  0.8013
  858MOL0     C13158  -1.636   5.791   7.235 -0.4613  0.1289 -0.0307
  858MOL0     O13159  -1.750   5.795   7.167  0.2401 -0.8126 -0.8238
  858MOL0     C13160  -1.762   5.729   7.042  0.7913 -0.1663 -0.1232
  858MOL0     C13161  -1.897   5.781   6.975  0.2430 -0.0874  0.0472
  858MOL0     C13162  -2.020   5.767   7.075  0.1039  0.3159 -0.6956
  858MOL0     C13163  -2.152   5.784   7.003  0.0504  0.0535 -0.1377
  858MOL0     C13164  -2.266   5.743   7.097 -0.6443  0.2269 -0.8661
  858MOL0     C13165  -2.269   5.811   7.239  0.2439  0.7722  0.3088
  858MOL0     C13166  -2.396   5.756   7.312 -0.3288  0.0774 -0.2645
  858MOL0     C13167  -2.473   5.868   7.381 -0.0149  0.7422  0.2214
  858MOL0    Cl13168  -2.350   5.930   7.503  0.6272  0.2837  0.1367
  858MOL0     C13169  -1.533   5.704   7.209 -1.1533  0.2405 -0.9531
  858MOL0     C13170  -1.401   5.719   7.266  0.5111  0.2051 -0.5484
  858MOL0     O13171  -1.133   5.860   7.253 -1.1604 -0.0713  0.0551
  858MOL0     C13172  -1.037   5.860   7.597 -0.6128  0.0938  0.0020
  858MOL0     C13173  -0.921   5.869   7.673  0.5425 -0.1165  0.5519
  858MOL0     N13174  -0.320   5.499   7.955 -0.6239  0.5002  0.0047
  858MOL0     N13175  -0.267   5.405   8.029 -0.1283 -0.0270  0.3419
  858MOL0     C13176   0.938   5.584   8.511  0.0613 -0.2781  0.1615
  858MOL0     C13177   1.052   5.632   8.578  0.2949 -0.0466 -0.4203
  858MOL0     C13178   1.401   5.912   8.665  0.7419  0.1088 -0.9869
  858MOL0     C13179   1.393   5.918   8.808 -0.8334  0.5641 -0.2951
  858MOL0     C13180   1.518   5.930   8.867  0.3900  0.8916  0.6733
  858MOL0     C13181   1.636   5.968   8.795 -0.4240  0.4034 -0.6915
  858MOL0     O13182   1.764   5.991   8.846  0.5340  0.7073 -0.1705
  858MOL0     C13183   1.786   6.005   8.981 -0.6500  0.3195 -0.5750
  858MOL0     C13184   1.942   6.015   9.010  0.2919 -0.1323  0.8565
  858MOL0     C13185   2.033   5.896   8.962  0.7280  0.1768 -0.1058
  858MOL0     C13186   2.029   5.857   8.814 -0.2929 -0.1974 -0.3711
  858MOL0     C13187   2.141   5.788   8.752  0.3680 -0.1216  0.1794
  858MOL0     C13188   2.241   5.734   8.707 -0.2324  1.1262  0.4016
  858MOL0     C13189   1.627   5.979   8.662 -0.1393 -0.0964 -1.2150
  858MOL0     C13190   1.514   5.945   8.594 -0.2256  0.0434  0.6090
  858MOL0     H13191   0.979   5.968   8.598  1.3462  1.0873 -2.1884
  858MOL0     H13192   0.779   5.887   8.507  0.5967  0.2774  0.6316
  858MOL0     H13193   0.692   5.448   8.511  1.5475  0.2937 -0.4953
  858MOL0     H13194   0.771   5.460   8.355 -0.0378  2.7123 -1.0344
  858MOL0     H13195   0.559   5.370   8.312 -1.7940 -0.1101  0.0297
  858MOL0     H13196   0.579   5.533   8.234 -0.4362 -0.4528 -0.9256
  858MOL0     H13197   0.406   5.606   8.417 -2.5800 -1.2687 -0.4930
  858MOL0     H13198   0.409   5.441   8.465  3.2996  0.6209  1.2312
  858MOL0     H13199   0.330   5.563   8.195 -2.8931  0.7781  0.4535
  858MOL0     H13200   0.311   5.387   8.246 -1.2771 -0.1926  1.4929
  858MOL0     H13201   0.183   5.623   8.375  2.9819 -0.4953  0.2428
  858MOL0     H13202   0.150   5.461   8.421 -1.7874  2.9499  2.4405
  858MOL0     H13203   0.082   5.410   8.178 -0.1622  0.5050 -1.4681
  858MOL0     H13204   0.052   5.587   8.173  1.4189  0.2096  0.3414
  858MOL0     H13205  -0.039   5.450   8.415  1.0932  0.5173 -0.7298
  858MOL0     H13206  -0.107   5.595   8.332 -1.2757 -0.2282 -1.2594
  858MOL0     H13207  -0.243   5.405   8.346 -0.9820  0.6561 -1.9407
  858MOL0     H13208  -0.146   5.299   8.258 -0.4543 -0.7540  2.6234
  858MOL0     H13209  -0.287   5.675   8.231  0.1397 -1.2890  1.3769
  858MOL0     H13210  -0.293   5.759   7.862  1.3619  0.9511  1.2766
  858MOL0     H13211  -0.337   5.830   8.011  1.8709  1.6815 -1.3842
  858MOL0     H13212  -0.567   5.684   7.984 -0.5429 -0.5571  0.0985
  858MOL0     H13213  -0.523   5.681   7.814 -2.5327 -2.4312  0.4846
  858MOL0     H13214  -0.540   5.942   7.988  1.2066 -1.1632  1.4934
  858MOL0     H13215  -0.483   5.945   7.829 -2.8304  3.1261  0.1691
  858MOL0     H13216  -0.719   6.012   7.854 -0.2065 -0.6496 -1.2147
  858MOL0     H13217  -0.766   5.848   7.893 -0.6941  1.2792  1.3176
  858MOL0     H13218  -0.690   5.896   7.431 -0.9251  2.4318 -1.5670
  858MOL0     H13219  -0.875   5.928   7.303 -2.2443  0.2408  0.1242
  858MOL0     H13220  -1.488   5.978   7.476 -2.2047  0.8327  0.6276
  858MOL0     H13221  -1.702   5.959   7.343  0.3530  0.8915 -0.9604
  858MOL0     H13222  -1.773   5.620   7.054 -1.2548  0.1873  1.8096
  858MOL0     H13223  -1.683   5.756   6.971  0.2058 -3.2645 -2.1807
  858MOL0     H13224  -1.918   5.727   6.883  0.6585  0.4841 -0.3852
  858MOL0     H13225  -1.876   5.887   6.961  0.9712 -0.1381  0.6603
  858MOL0     H13226  -2.014   5.843   7.154 -3.0295  0.7598 -0.7211
  858MOL0     H13227  -2.026   5.666   7.116  2.9728  0.8414  1.3414
  858MOL0     H13228  -2.154   5.890   6.973 -1.5731  0.0305 -0.1652
  858MOL0     H13229  -2.148   5.711   6.922 -1.0045 -0.1172 -0.0449
  858MOL0     H13230  -2.252   5.635   7.110 -0.7299 -0.0512 -2.8016
  858MOL0     H13231  -2.355   5.761   7.037 -0.3499 -0.0977 -1.4084
  858MOL0     H13232  -2.285   5.919   7.227 -1.7855  0.3694 -0.9976
  858MOL0     H13233  -2.180   5.792   7.299  0.7048 -1.3333 -0.9678
  858MOL0     H13234  -2.456   5.697   7.242  0.1028 -0.2931 -0.3230
  858MOL0     H13235  -2.362   5.684   7.387 -4.3598 -1.9464 -0.0592
  858MOL0     H13236  -2.559   5.827   7.436  0.3962 -1.5894 -0.8015
  858MOL0     H13237  -2.513   5.953   7.326  0.9271  1.0930  0.0568
  858MOL0     H13238  -1.552   5.611   7.156  1.9694 -1.4585  0.6220
  858MOL0     H13239  -1.322   5.645   7.258 -1.6566 -2.9881  3.5790
  858MOL0     H13240  -1.135   5.842   7.640  0.0055 -0.4425  1.2535
  858MOL0     H13241  -0.927   5.885   7.780 -1.2605 -1.1959  0.6587
  858MOL0     H13242   0.933   5.479   8.486 -0.7775  0.3321 -2.6712
  858MOL0     H13243   1.135   5.567   8.605  1.0732  1.4784  1.0429
  858MOL0     H13244   1.306   5.900   8.871  0.3547  1.1512  1.6092
  858MOL0     H13245   1.527   5.909   8.973 -3.3487 -3.7978  0.4298
  858MOL0     H13246   1.745   5.920   9.035  0.6574 -1.4858 -2.2674
  858MOL0     H13247   1.723   6.091   9.006 -2.2445 -1.1396  0.6742
  858MOL0     H13248   1.984   6.108   8.972  0.0034 -0.0014  0.8552
  858MOL0     H13249   1.943   6.030   9.119  1.3321  0.9420  0.7176
  858MOL0     H13250   1.995   5.811   9.019  2.1953 -1.2425 -1.1578
  858MOL0     H13251   2.135   5.924   8.988  1.7140  0.7668 -3.9786
  858MOL0     H13252   1.941   5.795   8.794  0.8024 -1.9729  0.0201
  858MOL0     H13253   2.010   5.953   8.766  1.1009  0.4739  0.3581
  858MOL0     H13254   2.329   5.685   8.670  1.3221  1.4454  3.3511
  858MOL0     H13255   1.718   6.013   8.613 -0.7192  2.0364 -0.9252
  858MOL0     H13256   1.516   5.944   8.485  2.5138 -2.1460  0.5490
  859MOL0     O13257   5.190   2.426  10.924 -0.2330 -0.2891 -0.1880
  859MOL0     C13258   5.167   2.411  11.044  1.5906 -0.1000  0.1741
  859MOL0     O13259   5.043   2.406  11.097  0.2021  1.0521 -0.1559
  859MOL0     C13260   4.933   2.443  11.025 -0.6073  0.3661  0.1474
  859MOL0     C13261   4.897   2.575  11.023  1.1908 -0.0057 -0.6136
  859MOL0     C13262   4.771   2.616  10.966  0.2857 -0.1423 -0.0485
  859MOL0     C13263   4.697   2.523  10.890  0.2900  0.6293 -0.0895
  859MOL0     O13264   4.564   2.544  10.851 -0.6853  0.2715 -0.6654
  859MOL0     C13265   4.466   2.463  10.913 -0.1092  0.6848  0.0219
  859MOL0     C13266   4.382   2.402  10.803  1.5845 -0.8924  0.0500
  859MOL0     C13267   4.260   2.483  10.756 -0.3829  0.1926  0.1053
  859MOL0     C13268   4.172   2.403  10.647  0.3318  0.2486 -0.4516
  859MOL0     C13269   4.038   2.462  10.620  0.6147  0.1115 -0.4016
  859MOL0     C13270   3.930   2.379  10.546  0.0893 -0.4850  1.2922
  859MOL0     C13271   3.812   2.467  10.512  0.0680 -0.6461  0.1983
  859MOL0     C13272   3.691   2.391  10.463 -0.2043 -0.8531  0.0428
  859MOL0     N13273   3.562   2.470  10.456  0.1179  0.8450 -0.3483
  859MOL0     C13274   3.455   2.485  10.545 -0.3582  0.4445  0.7342
  859MOL0     C13275   3.371   2.576  10.489  0.4683 -0.3898 -0.7126
  859MOL0     C13276   3.232   2.594  10.539 -0.0963 -0.7254 -0.1620
  859MOL0     C13277   3.235   2.722  10.638  0.1469 -0.6546 -0.1004
  859MOL0     C13278   3.090   2.754  10.679  0.0924  0.2045  0.4907
  859MOL0     C13279   3.028   2.647  10.762  0.5147  0.3791 -0.2081
  859MOL0     O13280   2.904   2.693  10.824  0.3363 -0.2260 -0.1249
  859MOL0     C13281   2.796   2.611  10.846  0.6403 -0.9298 -0.0480
  859MOL0     C13282   2.791   2.471  10.821 -0.3504  0.3212  0.0702
  859MOL0     C13283   2.682   2.393  10.849 -0.3004  0.1250  0.4165
  859MOL0     C13284   2.568   2.451  10.892 -0.3544  0.0708 -0.5670
  859MOL0     C13285   2.443   2.370  10.917 -0.7796  0.7612  0.3433
  859MOL0     O13286   2.443   2.230  10.887  0.5892 -0.8562  0.2826
  859MOL0     C13287   2.338   2.156  10.940 -1.0817  0.6247 -0.0782
  859MOL0     C13288   2.223   2.135  10.859 -0.4035 -0.4934 -0.3975
  859MOL0     C13289   2.106   2.071  10.913  0.4407 -0.4325 -0.4629
  859MOL0     C13290   2.123   2.013  11.035  0.2574  0.6149 -0.1654
  859MOL0     O13291   2.016   1.934  11.087  0.4123 -0.4123  0.8250
  859MOL0     C13292   2.030   1.858  11.212  0.5270  0.4552  1.4576
  859MOL0     C13293   1.890   1.825  11.248 -0.1736  0.8196  0.3296
  859MOL0     C13294   1.895   1.715  11.360 -0.2876  0.4395  0.5122
  859MOL0     C13295   1.768   1.719  11.445  0.9034  0.7474  0.9130
  859MOL0     C13296   1.758   1.605  11.549  0.2298  1.0139  0.0750
  859MOL0     C13297   1.857   1.615  11.659 -0.0965 -0.2578 -0.2316
  859MOL0     C13298   1.871   1.476  11.727 -0.3312 -0.8663 -0.5972
  859MOL0     C13299   1.739   1.413  11.771 -0.0592  0.0977 -0.6011
  859MOL0    Cl13300   1.773   1.271  11.883 -0.3152  0.0457 -0.2918
  859MOL0     C13301   2.239   2.032  11.110  0.7828 -0.0592  0.2707
  859MOL0     C13302   2.341   2.113  11.069  0.2949 -0.3122 -1.0380
  859MOL0     O13303   2.350   2.431  10.959  0.6412 -0.4365  0.0377
  859MOL0     C13304   2.562   2.588  10.904 -0.7726  0.1108  0.8685
  859MOL0     C13305   2.675   2.668  10.893 -0.6347 -0.2088  0.0197
  859MOL0     N13306   3.423   2.611  10.371  0.2895 -0.6438  0.3599
  859MOL0     N13307   3.542   2.553  10.348  0.4324 -1.1156  0.3310
  859MOL0     C13308   4.753   2.389  10.874  0.0011  0.0973 -0.2849
  859MOL0     C13309   4.871   2.353  10.942  0.0074 -0.0585 -0.0583
  859MOL0     C13310   5.285   2.391  11.139  0.9014 -0.5623  1.4395
  859MOL0     C13311   5.264   2.389  11.273 -0.7328 -0.3347  0.7121
  859MOL0     C13312   5.379   2.371  11.359  0.0868 -1.1641 -0.4670
  859MOL0     C13313   5.513   2.376  11.307 -0.4395  0.9736  0.1166
  859MOL0     O13314   5.628   2.371  11.376 -0.3856  0.4278 -0.0495
  859MOL0     C13315   5.674   2.491  11.446 -0.4190  0.4192  1.1731
  859MOL0     C13316   5.783   2.459  11.555  0.2719  1.0209  0.8780
  859MOL0     C13317   5.757   2.339  11.643  0.2720  0.4145  0.4390
  859MOL0     C13318   5.613   2.356  11.707 -0.8675  0.8684  0.6918
  859MOL0     C13319   5.593   2.301  11.843  0.2396  0.0028 -0.4408
  859MOL0     C13320   5.588   2.246  11.947 -0.7129 -0.0729 -1.1673
  859MOL0     C13321   5.531   2.361  11.168  0.7780 -1.2397  0.8230
  859MOL0     C13322   5.419   2.374  11.082  0.1147 -0.0207 -0.2891
  859MOL0     H13323   4.953   2.646  11.083 -4.0044  1.5574  3.1453
  859MOL0     H13324   4.732   2.717  10.973  0.9362  0.0444  1.1705
  859MOL0     H13325   4.408   2.519  10.988 -2.8929 -0.2665 -1.2593
  859MOL0     H13326   4.499   2.373  10.966 -1.2304  0.0794 -0.2740
  859MOL0     H13327   4.331   2.312  10.836  3.5677 -1.5220  1.6433
  859MOL0     H13328   4.436   2.381  10.709 -1.5450  2.2766 -2.7733
  859MOL0     H13329   4.286   2.579  10.712  3.7595 -0.3700  0.9176
  859MOL0     H13330   4.197   2.502  10.843  1.1613  0.6737  1.1425
  859MOL0     H13331   4.234   2.392  10.557  3.6812 -2.7642  1.9076
  859MOL0     H13332   4.156   2.303  10.688  0.8354  0.5969  0.6274
  859MOL0     H13333   4.052   2.546  10.551 -0.9707  1.1872  0.5215
  859MOL0     H13334   3.994   2.505  10.710  0.4714  0.7619 -0.7725
  859MOL0     H13335   3.895   2.291  10.602  1.0986 -0.9829  1.1578
  859MOL0     H13336   3.974   2.344  10.452 -0.8997  0.5256  0.4268
  859MOL0     H13337   3.781   2.524  10.600 -0.3396 -0.4556 -0.0631
  859MOL0     H13338   3.834   2.540  10.434 -1.0523 -0.8219 -0.3082
  859MOL0     H13339   3.671   2.295  10.512 -1.1641 -0.5996  0.1649
  859MOL0     H13340   3.711   2.364  10.359 -2.7322  0.6770 -0.9338
  859MOL0     H13341   3.425   2.424  10.629 -1.9359  0.1644  0.0152
  859MOL0     H13342   3.194   2.504  10.588 -4.2907 -0.2057 -1.9818
  859MOL0     H13343   3.170   2.616  10.452  2.0940 -0.5762 -1.7528
  859MOL0     H13344   3.276   2.804  10.580  1.4742 -1.3658 -0.2057
  859MOL0     H13345   3.304   2.704  10.721 -0.8220  1.5937  1.2804
  859MOL0     H13346   3.088   2.850  10.732 -0.6981  0.5643 -0.1698
  859MOL0     H13347   3.025   2.753  10.592  0.7716 -0.1043 -0.0228
  859MOL0     H13348   3.101   2.628  10.841  1.0550  0.0185 -0.7907
  859MOL0     H13349   3.007   2.561  10.698 -0.7446  2.6184 -3.0441
  859MOL0     H13350   2.881   2.424  10.782  0.0417 -1.3370  2.7309
  859MOL0     H13351   2.699   2.289  10.822  5.2224  0.7897  0.1692
  859MOL0     H13352   2.219   2.176  10.758  3.2993  2.9095  0.5837
  859MOL0     H13353   2.018   2.042  10.856  2.9922 -2.3925 -3.8100
  859MOL0     H13354   2.069   1.922  11.292  2.1490 -0.8516  1.7801
  859MOL0     H13355   2.093   1.769  11.200  1.1196  0.6748  2.7903
  859MOL0     H13356   1.833   1.779  11.167 -0.4938 -0.2383  1.1351
  859MOL0     H13357   1.836   1.917  11.274  0.3541  1.0657  0.5626
  859MOL0     H13358   1.984   1.725  11.422 -0.5391 -0.0020  0.9540
  859MOL0     H13359   1.903   1.618  11.310  1.1441  0.8305 -0.0594
  859MOL0     H13360   1.753   1.816  11.494 -0.4538  1.9700 -1.6936
  859MOL0     H13361   1.684   1.701  11.378  1.6459 -2.3217  0.6581
  859MOL0     H13362   1.781   1.512  11.496 -3.8069  1.1112 -2.2663
  859MOL0     H13363   1.653   1.609  11.579  0.1144  0.9176 -0.3145
  859MOL0     H13364   1.827   1.697  11.725 -0.2842  1.1619 -2.0097
  859MOL0     H13365   1.949   1.656  11.616 -0.7598  2.2535  0.5309
  859MOL0     H13366   1.926   1.407  11.661  1.2111 -1.3197  1.0855
  859MOL0     H13367   1.932   1.488  11.817 -2.4768  1.6672  0.6221
  859MOL0     H13368   1.667   1.381  11.694 -2.0549 -1.4476  1.7508
  859MOL0     H13369   1.684   1.488  11.829 -1.7575 -0.6327 -1.1749
  859MOL0     H13370   2.257   1.964  11.193 -0.1830  0.4989  0.9540
  859MOL0     H13371   2.427   2.141  11.128 -0.0582 -0.2000 -0.5702
  859MOL0     H13372   2.470   2.642  10.924  0.1478  1.5462  1.3822
  859MOL0     H13373   2.670   2.775  10.912 -2.3010 -0.2923  0.1881
  859MOL0     H13374   4.709   2.311  10.813  1.6062  0.2923 -1.7610
  859MOL0     H13375   4.903   2.249  10.940 -2.0609 -0.8625  2.6354
  859MOL0     H13376   5.169   2.377  11.324  0.1583  0.2891  2.6402
  859MOL0     H13377   5.359   2.336  11.460 -0.8738 -1.6366 -0.7970
  859MOL0     H13378   5.588   2.550  11.480 -0.7572 -0.1839  1.3712
  859MOL0     H13379   5.725   2.552  11.371 -0.4851  0.5036  1.1968
  859MOL0     H13380   5.878   2.442  11.503 -0.3964 -0.5167  0.1081
  859MOL0     H13381   5.809   2.550  11.609  1.1439  0.8475  0.7761
  859MOL0     H13382   5.829   2.336  11.725 -1.4112  2.8380  2.1403
  859MOL0     H13383   5.754   2.247  11.584  0.1577  0.1889  0.7928
  859MOL0     H13384   5.592   2.463  11.716 -0.6397  0.8345  1.7802
  859MOL0     H13385   5.542   2.312  11.637 -1.0558  1.9347  0.1932
  859MOL0     H13386   5.584   2.188  12.037 -3.3112  1.5854 -0.0851
  859MOL0     H13387   5.634   2.377  11.136  0.2282  4.2496  0.9159
  859MOL0     H13388   5.435   2.381  10.975  4.1884  1.1207  0.2175
  860MOL0     O13389   0.804   3.781   8.447  0.4779  0.3158 -0.2046
  860MOL0     C13390   0.846   3.733   8.545  0.6282 -0.1967 -0.2392
  860MOL0     O13391   0.784   3.652   8.632  0.2973  0.4156 -0.1375
  860MOL0     C13392   0.650   3.665   8.627  1.1138 -0.6862  0.2879
  860MOL0     C13393   0.579   3.570   8.552  0.6225 -0.2503  0.2447
  860MOL0     C13394   0.439   3.558   8.562 -0.1266 -0.3613 -0.1891
  860MOL0     C13395   0.358   3.650   8.642 -0.1070 -0.1621  0.1373
  860MOL0     O13396   0.225   3.618   8.655  0.7786  0.2768 -0.5320
  860MOL0     C13397   0.141   3.734   8.680  0.3504  0.0218  0.4450
  860MOL0     C13398   0.084   3.777   8.548 -1.4274  0.2965 -0.1836
  860MOL0     C13399  -0.048   3.702   8.507 -1.3821  0.0926 -0.4261
  860MOL0     C13400  -0.032   3.548   8.494  0.2734  0.0228 -0.5939
  860MOL0     C13401  -0.161   3.501   8.418  0.6012  0.2024 -0.0932
  860MOL0     C13402  -0.204   3.361   8.448 -0.3360  0.0866 -0.1958
  860MOL0     C13403  -0.299   3.307   8.343 -0.0860  0.2062  0.7372
  860MOL0     C13404  -0.357   3.173   8.379  0.5619 -0.1140  0.0330
  860MOL0     N13405  -0.432   3.113   8.266 -0.5251 -0.8741  0.0902
  860MOL0     C13406  -0.555   3.050   8.275 -0.8295  0.6930  0.7470
  860MOL0     C13407  -0.584   3.015   8.143 -0.7358 -0.1007 -0.3729
  860MOL0     C13408  -0.699   2.928   8.096 -0.0022  1.1646 -0.9471
  860MOL0     C13409  -0.827   3.007   8.091 -0.3152 -0.5545  0.6389
  860MOL0     C13410  -0.860   3.085   8.222 -0.0694 -0.4069  0.3455
  860MOL0     C13411  -0.999   3.160   8.203 -1.3471  0.1936 -0.0388
  860MOL0     O13412  -1.108   3.078   8.145 -0.4458 -0.2699  0.5746
  860MOL0     C13413  -1.228   3.145   8.109 -0.8985 -0.8264  0.8404
  860MOL0     C13414  -1.233   3.274   8.045  0.8590  0.1966 -0.5261
  860MOL0     C13415  -1.358   3.329   8.011 -0.2244  0.4921  0.3210
  860MOL0     C13416  -1.472   3.260   8.041 -0.0733 -0.7994 -0.3531
  860MOL0     C13417  -1.611   3.309   8.007 -0.2454  0.5873  0.6011
  860MOL0     O13418  -1.705   3.289   8.101  0.6615  0.2731 -0.4302
  860MOL0     C13419  -1.831   3.317   8.061 -0.6368 -0.4523 -0.5469
  860MOL0     C13420  -1.895   3.234   7.971 -0.3613 -0.1747 -0.2578
  860MOL0     C13421  -2.027   3.274   7.927  0.2202  0.0072  0.3981
  860MOL0     C13422  -2.092   3.386   7.976  1.2432 -0.3068  0.1774
  860MOL0     O13423  -2.221   3.406   7.931  0.0985 -0.7726  0.1720
  860MOL0     C13424  -2.322   3.370   8.018 -0.7149 -0.0713 -0.2663
  860MOL0     C13425  -2.418   3.286   7.932  0.1122 -0.6099 -0.0617
  860MOL0     C13426  -2.493   3.381   7.837 -0.1231  1.1237 -0.0867
  860MOL0     C13427  -2.575   3.294   7.732 -0.6490 -0.2111 -1.1614
  860MOL0     C13428  -2.696   3.356   7.658 -0.0155 -0.3005 -1.6283
  860MOL0     C13429  -2.810   3.359   7.752 -0.0901 -1.3842 -0.9197
  860MOL0     C13430  -2.917   3.460   7.709 -0.7070 -0.0173  0.5378
  860MOL0     C13431  -3.047   3.441   7.774  0.4049  1.2038 -0.2573
  860MOL0    Cl13432  -3.144   3.581   7.726 -0.2959 -0.2428  0.3702
  860MOL0     C13433  -2.026   3.464   8.067 -0.0501  0.0355 -0.8750
  860MOL0     C13434  -1.895   3.424   8.105 -0.0787  0.1713 -0.0260
  860MOL0     O13435  -1.624   3.374   7.903  0.6062  0.3811 -0.8740
  860MOL0     C13436  -1.465   3.133   8.089  0.2327 -0.7331  0.2305
  860MOL0     C13437  -1.341   3.078   8.120 -0.1422 -0.5243  0.3943
  860MOL0     N13438  -0.484   3.060   8.066 -0.2420  0.0024  0.0100
  860MOL0     N13439  -0.393   3.118   8.133  0.0346 -0.6050  0.0396
  860MOL0     C13440   0.432   3.747   8.696 -1.0807 -0.0294 -0.0390
  860MOL0     C13441   0.573   3.753   8.692 -0.2645 -0.2551 -0.1232
  860MOL0     C13442   0.990   3.752   8.571 -0.4889 -0.1964 -0.4451
  860MOL0     C13443   1.060   3.669   8.664  0.4326  0.2892 -0.2348
  860MOL0     C13444   1.195   3.686   8.688 -0.1409  0.3227 -0.7978
  860MOL0     C13445   1.266   3.788   8.625  0.7234 -0.7671  0.1650
  860MOL0     O13446   1.397   3.798   8.640 -1.4920  0.1417  0.3806
  860MOL0     C13447   1.468   3.922   8.618  0.8288 -0.3666 -0.1002
  860MOL0     C13448   1.562   3.925   8.736  0.1700 -0.1160  0.0414
  860MOL0     C13449   1.660   4.045   8.723  0.2235  0.7176 -0.4690
  860MOL0     C13450   1.770   4.019   8.618 -0.2926  0.3392 -0.2720
  860MOL0     C13451   1.891   4.090   8.653 -0.3450  0.0987 -0.3951
  860MOL0     C13452   1.994   4.137   8.695 -0.6408  0.0314 -0.1262
  860MOL0     C13453   1.201   3.866   8.536  0.5054 -0.4974 -0.5962
  860MOL0     C13454   1.062   3.854   8.506 -0.4416  0.4234  0.1561
  860MOL0     H13455   0.651   3.503   8.506  0.5060  0.4877 -1.0554
  860MOL0     H13456   0.387   3.472   8.521 -1.1291  0.0005  0.2979
  860MOL0     H13457   0.192   3.822   8.720  0.7344  0.2558 -0.5362
  860MOL0     H13458   0.051   3.707   8.737 -1.3655  2.2397 -1.0930
  860MOL0     H13459   0.148   3.761   8.461 -3.9657 -1.1368 -1.9035
  860MOL0     H13460   0.047   3.879   8.553 -1.7684  0.1628  0.0168
  860MOL0     H13461  -0.081   3.735   8.408  1.4908  2.9154 -0.5902
  860MOL0     H13462  -0.136   3.738   8.560 -1.9347 -0.5384 -0.8922
  860MOL0     H13463   0.064   3.513   8.455 -1.2558 -2.2209 -2.5880
  860MOL0     H13464  -0.035   3.504   8.594  0.7551 -0.8596 -0.9615
  860MOL0     H13465  -0.125   3.509   8.315  1.0065 -3.2553 -0.3620
  860MOL0     H13466  -0.252   3.558   8.438 -1.1671 -2.7141  0.8479
  860MOL0     H13467  -0.249   3.366   8.548  1.1291  1.1146  0.4403
  860MOL0     H13468  -0.116   3.295   8.449 -1.3279 -1.2965 -0.6543
  860MOL0     H13469  -0.381   3.377   8.327  2.2266  2.9762  0.2514
  860MOL0     H13470  -0.255   3.290   8.244 -2.4332  0.1727 -0.3843
  860MOL0     H13471  -0.417   3.191   8.469  2.1451  0.4378  1.0249
  860MOL0     H13472  -0.271   3.113   8.408  1.3890  0.8083 -0.4630
  860MOL0     H13473  -0.610   3.039   8.368 -0.8387  2.0863  0.9277
  860MOL0     H13474  -0.711   2.840   8.160  1.1627  1.3474 -0.4573
  860MOL0     H13475  -0.680   2.881   7.999 -0.1101 -0.2841 -0.3081
  860MOL0     H13476  -0.910   2.936   8.075 -0.6974 -0.1064  0.6204
  860MOL0     H13477  -0.818   3.078   8.008  2.3637 -1.7071 -0.1743
  860MOL0     H13478  -0.871   3.035   8.318  0.3120 -3.2157 -0.9963
  860MOL0     H13479  -0.778   3.156   8.239  0.4845 -0.8417 -0.4160
  860MOL0     H13480  -0.986   3.251   8.143  1.2243  1.3540  2.1315
  860MOL0     H13481  -1.021   3.201   8.302  0.4684  1.8511 -0.2676
  860MOL0     H13482  -1.146   3.337   8.028  1.5741 -0.5255  0.3453
  860MOL0     H13483  -1.370   3.420   7.954 -0.9628  0.2769  0.1181
  860MOL0     H13484  -1.858   3.141   7.929 -3.5428 -1.4752 -0.4583
  860MOL0     H13485  -2.071   3.209   7.851  2.6400 -1.8170  0.4191
  860MOL0     H13486  -2.372   3.456   8.064  1.4838  0.3213  1.5947
  860MOL0     H13487  -2.271   3.308   8.092 -2.0127 -2.4496 -1.2621
  860MOL0     H13488  -2.490   3.235   7.996 -1.6452  0.5650 -1.0179
  860MOL0     H13489  -2.376   3.208   7.867 -0.1083 -0.5860 -0.2329
  860MOL0     H13490  -2.429   3.455   7.787  4.2253 -2.3101 -0.1968
  860MOL0     H13491  -2.576   3.429   7.889 -1.6272 -0.1244 -1.2263
  860MOL0     H13492  -2.499   3.273   7.656 -1.0631 -0.6631 -1.4559
  860MOL0     H13493  -2.611   3.200   7.774 -2.7252  0.0897 -2.1759
  860MOL0     H13494  -2.707   3.297   7.567 -1.5114 -1.9741 -0.4334
  860MOL0     H13495  -2.669   3.461   7.640 -0.6533  0.1904  0.0323
  860MOL0     H13496  -2.779   3.392   7.852 -1.2444 -2.9850  0.0302
  860MOL0     H13497  -2.853   3.260   7.773 -1.3651 -0.6310  0.2199
  860MOL0     H13498  -2.874   3.558   7.730  2.4592 -1.7303  2.6973
  860MOL0     H13499  -2.935   3.440   7.602  0.6245 -3.5661  0.8302
  860MOL0     H13500  -3.024   3.425   7.879  1.7624 -3.1775 -0.9894
  860MOL0     H13501  -3.097   3.350   7.739  0.4394  0.3282  1.8158
  860MOL0     H13502  -2.073   3.544   8.123  0.1499 -0.0334 -0.6116
  860MOL0     H13503  -1.847   3.495   8.171  0.5452 -1.1746  1.0216
  860MOL0     H13504  -1.553   3.071   8.108 -1.4472  1.2932 -0.5829
  860MOL0     H13505  -1.339   2.977   8.161  1.6130 -1.0022 -0.7783
  860MOL0     H13506   0.387   3.839   8.734 -0.6864 -0.7409  2.2906
  860MOL0     H13507   0.609   3.843   8.741  0.9672  0.1951 -1.7743
  860MOL0     H13508   0.998   3.591   8.707 -0.7980  0.8099 -1.0082
  860MOL0     H13509   1.250   3.623   8.757  3.2979  2.5012 -1.2771
  860MOL0     H13510   1.405   4.012   8.621 -0.1682 -1.0100  3.6371
  860MOL0     H13511   1.515   3.916   8.520 -0.4634 -3.6243 -0.6357
  860MOL0     H13512   1.495   3.941   8.821  1.8471  0.7690  1.2570
  860MOL0     H13513   1.604   3.826   8.752 -3.4170 -1.4417  2.8183
  860MOL0     H13514   1.706   4.062   8.821  3.0183  0.8587 -1.7061
  860MOL0     H13515   1.606   4.132   8.686 -0.7302 -0.0303 -0.8903
  860MOL0     H13516   1.788   3.912   8.608 -6.2347 -0.9643 -0.5515
  860MOL0     H13517   1.741   4.066   8.523  1.1608  2.8186  0.4169
  860MOL0     H13518   2.074   4.192   8.740  2.4117 -2.3987 -2.1501
  860MOL0     H13519   1.257   3.933   8.472  1.7028 -1.8063 -0.9778
  860MOL0     H13520   1.026   3.915   8.425  0.2276 -0.8359 -1.1415
  861MOL0     O13521   9.907   0.864   1.226  0.0623 -0.1538  0.0758
  861MOL0     C13522   9.955   0.975   1.244  0.4311 -1.1587 -0.1631
  861MOL0     O13523   9.885   1.097   1.238  0.3618  0.2745  0.8442
  861MOL0     C13524   9.742   1.102   1.235 -0.0360 -0.1934 -0.3159
  861MOL0     C13525   9.678   1.198   1.156  1.0188  0.5028  0.3211
  861MOL0     C13526   9.534   1.210   1.153 -0.7841 -0.7084 -1.1117
  861MOL0     C13527   9.458   1.133   1.237  0.2883  0.3023  0.0972
  861MOL0     O13528   9.327   1.154   1.225  1.0140  0.0980  0.0315
  861MOL0     C13529   9.268   1.207   1.344 -0.4566 -0.0303 -0.6517
  861MOL0     C13530   9.137   1.271   1.304 -0.5170  0.1000  0.0748
  861MOL0     C13531   9.023   1.157   1.290  0.6774  0.0186  0.8497
  861MOL0     C13532   8.899   1.196   1.219  0.3008 -0.5095  0.0372
  861MOL0     C13533   8.823   1.073   1.190 -0.1774  0.8074 -0.3509
  861MOL0     C13534   8.684   1.098   1.136  0.7200  0.2798 -0.3728
  861MOL0     C13535   8.588   1.178   1.225  0.1485 -0.8850  0.1340
  861MOL0     C13536   8.448   1.173   1.160 -0.2060  0.0610 -0.3312
  861MOL0     N13537   8.340   1.243   1.238 -0.3305  0.2384  0.3776
  861MOL0     C13538   8.268   1.184   1.342  0.5285  0.1753  0.7404
  861MOL0     C13539   8.201   1.288   1.406  1.6017 -0.0688 -0.4427
  861MOL0     C13540   8.105   1.276   1.522  0.4645  0.7840 -0.6702
  861MOL0     C13541   7.961   1.258   1.466 -0.1038  0.0945 -0.0863
  861MOL0     C13542   7.865   1.208   1.572 -0.3468 -0.7869 -0.0323
  861MOL0     C13543   7.730   1.148   1.521 -0.4339 -0.0379  0.4502
  861MOL0     O13544   7.661   1.262   1.464  0.3884  0.5297 -0.2302
  861MOL0     C13545   7.521   1.243   1.456  0.6928 -0.6566  0.3773
  861MOL0     C13546   7.462   1.137   1.391 -0.1340 -0.0417 -0.2201
  861MOL0     C13547   7.324   1.131   1.393 -0.4125 -0.2420  0.9898
  861MOL0     C13548   7.244   1.241   1.437  0.2624  0.4589  0.0654
  861MOL0     C13549   7.095   1.235   1.427 -0.1435 -0.5515  0.0808
  861MOL0     O13550   7.027   1.348   1.460  0.2077 -0.1059  0.8060
  861MOL0     C13551   6.891   1.354   1.424  0.9437 -0.6356 -0.5959
  861MOL0     C13552   6.840   1.462   1.346  0.6233  0.7671  0.8703
  861MOL0     C13553   6.706   1.502   1.341  1.2043 -0.0431 -0.7318
  861MOL0     C13554   6.618   1.406   1.390  0.6750  0.0343 -0.5208
  861MOL0     O13555   6.487   1.449   1.394 -0.0919 -0.2005  0.0158
  861MOL0     C13556   6.404   1.371   1.308  0.0032  0.3234  0.1751
  861MOL0     C13557   6.255   1.431   1.313 -0.7058 -0.1436 -0.4227
  861MOL0     C13558   6.254   1.574   1.280 -0.4498 -0.6279 -0.3028
  861MOL0     C13559   6.110   1.625   1.252  0.7850 -0.3890 -0.4282
  861MOL0     C13560   6.113   1.778   1.223  0.3186 -0.2314 -0.1384
  861MOL0     C13561   5.975   1.829   1.180  0.3128  0.4369 -0.0979
  861MOL0     C13562   5.981   1.974   1.114 -0.4626  0.3692 -0.6862
  861MOL0     C13563   6.022   1.986   0.966 -0.0987  0.5197  0.7844
  861MOL0    Cl13564   5.923   1.891   0.860  0.4041  0.1586 -0.7745
  861MOL0     C13565   6.659   1.281   1.444 -0.4356 -0.4878 -0.2370
  861MOL0     C13566   6.794   1.259   1.466  0.6232  0.7212 -0.3421
  861MOL0     O13567   7.039   1.129   1.385  0.1239 -0.3972 -0.0638
  861MOL0     C13568   7.310   1.348   1.496  0.4517  0.7103  0.1551
  861MOL0     C13569   7.447   1.351   1.500 -0.4657  0.6675 -0.7563
  861MOL0     N13570   8.221   1.397   1.323  0.2372 -0.2383  0.6809
  861MOL0     N13571   8.297   1.371   1.225  0.5190 -0.4993  0.2924
  861MOL0     C13572   9.522   1.032   1.306  0.0728  0.6494 -1.3519
  861MOL0     C13573   9.663   1.024   1.314  0.9020 -1.1347 -0.8081
  861MOL0     C13574  10.102   0.987   1.249  0.3609  1.0614 -0.2300
  861MOL0     C13575  10.190   0.878   1.284 -1.0510 -0.9917  0.4682
  861MOL0     C13576  10.329   0.895   1.301  1.2406  0.3168  0.4865
  861MOL0     C13577  10.388   1.023   1.276  1.1496 -0.1452 -0.2987
  861MOL0     O13578  10.515   1.053   1.288 -0.9554 -0.1515  0.7166
  861MOL0     C13579  10.605   0.976   1.381  0.3841 -0.1792 -0.0211
  861MOL0     C13580  10.749   0.999   1.347 -0.0573  0.0316 -0.5932
  861MOL0     C13581  10.796   1.150   1.348  0.4702  0.3134  0.1588
  861MOL0     C13582  10.834   1.203   1.492 -0.5175  0.5459  0.2599
  861MOL0     C13583  10.886   1.334   1.471 -0.4395 -0.1667  0.0342
  861MOL0     C13584  10.912   1.453   1.451  0.5256  0.5111  0.3937
  861MOL0     C13585  10.297   1.121   1.238 -0.2387 -0.9723  0.7199
  861MOL0     C13586  10.163   1.101   1.221 -0.5928 -0.1922  0.8992
  861MOL0     H13587   9.732   1.270   1.095  0.8241 -2.1498 -3.3127
  861MOL0     H13588   9.479   1.281   1.092 -1.7730  1.3622  1.9609
  861MOL0     H13589   9.327   1.290   1.385 -2.6500  1.8839 -1.1398
  861MOL0     H13590   9.247   1.135   1.423 -0.3765  0.3504 -0.2767
  861MOL0     H13591   9.161   1.319   1.209 -2.4922  0.0459 -0.4836
  861MOL0     H13592   9.108   1.351   1.373  1.5883  0.7463  0.2889
  861MOL0     H13593   9.000   1.134   1.394  0.9114  2.5625  1.5387
  861MOL0     H13594   9.052   1.065   1.238 -0.1173  0.2774 -0.0868
  861MOL0     H13595   8.848   1.250   1.299  0.3211 -2.3334  1.3658
  861MOL0     H13596   8.917   1.244   1.122  3.8194 -2.7866 -0.6174
  861MOL0     H13597   8.812   1.002   1.273  1.1621 -0.0318 -0.8686
  861MOL0     H13598   8.883   1.016   1.119 -1.7430 -3.7724  1.6575
  861MOL0     H13599   8.628   1.007   1.113  0.2380  0.5932 -0.4561
  861MOL0     H13600   8.696   1.151   1.041  1.2641  0.6026 -0.1311
  861MOL0     H13601   8.589   1.141   1.328  1.7882 -2.4609 -0.3797
  861MOL0     H13602   8.610   1.285   1.215 -0.6396 -0.8610 -1.7374
  861MOL0     H13603   8.416   1.070   1.144 -0.2955  0.4217 -3.0236
  861MOL0     H13604   8.455   1.215   1.059  4.0404 -2.8597 -1.5164
  861MOL0     H13605   8.271   1.082   1.379 -1.1305 -0.4546 -0.7252
  861MOL0     H13606   8.114   1.355   1.597 -0.9495 -1.0827  1.5798
  861MOL0     H13607   8.134   1.192   1.585  0.7790  0.8260 -0.7584
  861MOL0     H13608   7.957   1.185   1.384 -3.1172 -0.8822  0.7965
  861MOL0     H13609   7.919   1.354   1.435  0.7781 -0.0667 -1.9438
  861MOL0     H13610   7.927   1.136   1.627  3.7693  1.0161 -1.9062
  861MOL0     H13611   7.845   1.293   1.638  0.0776 -1.1577  0.5915
  861MOL0     H13612   7.666   1.108   1.600  0.6213 -1.3097  0.6988
  861MOL0     H13613   7.752   1.077   1.441 -0.6329  0.5979 -0.1872
  861MOL0     H13614   7.529   1.062   1.350  1.5531  1.3298 -0.1036
  861MOL0     H13615   7.265   1.052   1.349 -0.4446  1.7934 -3.1912
  861MOL0     H13616   6.911   1.535   1.309 -1.0019  0.6411 -2.9485
  861MOL0     H13617   6.675   1.592   1.288 -0.4479  1.4767  2.4883
  861MOL0     H13618   6.399   1.265   1.336  0.0403  0.2378 -0.1310
  861MOL0     H13619   6.443   1.372   1.205  2.9698 -0.7614  1.1999
  861MOL0     H13620   6.216   1.420   1.415  2.3086 -1.1559  0.6981
  861MOL0     H13621   6.190   1.375   1.245 -2.8033 -0.6945  1.8829
  861MOL0     H13622   6.321   1.611   1.202  1.0929 -1.5981  0.5136
  861MOL0     H13623   6.301   1.621   1.367  1.6679  0.8288 -2.1208
  861MOL0     H13624   6.065   1.586   1.161  1.8178  2.2928 -2.2334
  861MOL0     H13625   6.040   1.594   1.331  0.2876  1.0690 -0.2545
  861MOL0     H13626   6.186   1.799   1.145 -0.0345 -1.4119 -0.8234
  861MOL0     H13627   6.129   1.845   1.308 -0.9357  0.2211 -0.2301
  861MOL0     H13628   5.910   1.835   1.267 -1.2473 -0.6596 -1.1332
  861MOL0     H13629   5.922   1.763   1.111  0.9134  0.9986 -1.1306
  861MOL0     H13630   5.884   2.022   1.124 -1.0044 -0.9343  0.7097
  861MOL0     H13631   6.056   2.033   1.168 -0.3580  0.9451 -1.4441
  861MOL0     H13632   6.128   1.970   0.949 -0.4772  0.4780 -1.9184
  861MOL0     H13633   6.006   2.091   0.939  2.5525  0.7050 -0.3492
  861MOL0     H13634   6.594   1.204   1.482  1.5682 -1.2506  1.8291
  861MOL0     H13635   6.817   1.175   1.532 -0.2509 -1.4805 -2.6784
  861MOL0     H13636   7.254   1.429   1.541 -0.3849 -2.1927  5.1516
  861MOL0     H13637   7.511   1.421   1.554  1.2805 -2.7294  1.9926
  861MOL0     H13638   9.458   0.971   1.369  1.2701 -0.9872 -1.6724
  861MOL0     H13639   9.692   0.957   1.395  0.7451 -1.6738 -1.1961
  861MOL0     H13640  10.144   0.782   1.304 -0.8087 -1.2895 -0.3428
  861MOL0     H13641  10.386   0.811   1.337 -0.9195 -1.0602  0.8683
  861MOL0     H13642  10.592   0.868   1.384  1.3137 -0.2792  1.2427
  861MOL0     H13643  10.584   1.007   1.484  1.4877  0.2584  0.0867
  861MOL0     H13644  10.827   0.946   1.402 -2.2159 -2.6588  0.0741
  861MOL0     H13645  10.756   0.970   1.242 -2.1072 -2.0809 -0.2412
  861MOL0     H13646  10.737   1.222   1.291  3.1555  2.6874  0.1326
  861MOL0     H13647  10.885   1.136   1.285 -1.3002 -0.4726 -2.3147
  861MOL0     H13648  10.740   1.222   1.545 -0.1248  2.6466  0.2895
  861MOL0     H13649  10.897   1.133   1.549 -0.1213  0.7791  0.1155
  861MOL0     H13650  10.932   1.555   1.424 -2.8174  1.3901  0.7791
  861MOL0     H13651  10.348   1.216   1.222  2.1383 -2.2744  0.0544
  861MOL0     H13652  10.103   1.184   1.183  0.5262  0.6117  0.8270
  862MOL0     O13653   6.055   1.333   9.222  0.2958 -0.2603  0.6577
  862MOL0     C13654   6.036   1.318   9.096 -0.1471  0.7927  0.1450
  862MOL0     O13655   5.933   1.359   9.017  0.5220  0.1225  0.1498
  862MOL0     C13656   5.821   1.414   9.057  0.8034 -1.1843  0.3768
  862MOL0     C13657   5.756   1.494   8.971  1.0463 -0.3072  0.3223
  862MOL0     C13658   5.625   1.535   9.011  0.2774 -0.0863  0.2603
  862MOL0     C13659   5.566   1.506   9.133 -0.5707  0.0740  0.0614
  862MOL0     O13660   5.438   1.548   9.138 -0.2400  0.0205 -0.1326
  862MOL0     C13661   5.387   1.582   9.267 -0.3451  0.1701  0.1591
  862MOL0     C13662   5.432   1.736   9.280 -0.0480 -0.0827  0.6910
  862MOL0     C13663   5.401   1.821   9.153  1.0480 -0.0300 -0.4192
  862MOL0     C13664   5.247   1.848   9.131  0.4162 -0.1541 -0.5166
  862MOL0     C13665   5.217   1.943   9.015 -0.5875 -0.6614 -0.1079
  862MOL0     C13666   5.071   1.968   8.988 -0.1563 -0.1042  0.3287
  862MOL0     C13667   5.036   2.033   8.853 -0.4109  0.0339 -0.0499
  862MOL0     C13668   5.128   2.139   8.793  0.3127 -0.2849 -0.3078
  862MOL0     N13669   5.110   2.268   8.867  0.3976  0.4137 -0.1764
  862MOL0     C13670   4.998   2.341   8.893  0.4311 -0.9024 -0.4175
  862MOL0     C13671   5.031   2.425   8.996 -0.1454 -0.1762  0.4380
  862MOL0     C13672   4.929   2.508   9.063  0.0437 -0.2381 -1.7531
  862MOL0     C13673   4.786   2.450   9.057 -0.0298  0.5868 -0.5784
  862MOL0     C13674   4.709   2.519   9.175 -0.2887  1.3708  0.3796
  862MOL0     C13675   4.565   2.483   9.160  0.0987  0.1022  0.2918
  862MOL0     O13676   4.491   2.555   9.246 -0.0566  0.5059 -0.9499
  862MOL0     C13677   4.356   2.557   9.227  0.1072  0.6309  1.0201
  862MOL0     C13678   4.273   2.625   9.308  0.3498  0.3549  0.3059
  862MOL0     C13679   4.134   2.629   9.300  0.0003  0.3185 -0.3804
  862MOL0     C13680   4.060   2.559   9.199 -0.0943  0.1896  0.2519
  862MOL0     C13681   3.908   2.551   9.192 -0.1880  0.1715  0.1524
  862MOL0     O13682   3.831   2.593   9.299 -0.5899  0.4878  0.0536
  862MOL0     C13683   3.727   2.522   9.355  0.3012  0.4448 -0.1770
  862MOL0     C13684   3.644   2.582   9.458 -0.4046  0.1126 -0.2694
  862MOL0     C13685   3.519   2.515   9.496 -0.4052 -0.1302  0.2840
  862MOL0     C13686   3.479   2.392   9.441  0.0335  0.0448 -0.2870
  862MOL0     O13687   3.362   2.345   9.492 -0.4562  0.8086 -0.9316
  862MOL0     C13688   3.313   2.217   9.446 -0.1424 -0.1287  0.0882
  862MOL0     C13689   3.165   2.214   9.491  0.3959  0.2892 -0.3793
  862MOL0     C13690   3.096   2.083   9.439  0.0984  0.0782 -0.0707
  862MOL0     C13691   2.947   2.076   9.481 -0.5554 -0.7305  0.3197
  862MOL0     C13692   2.854   2.184   9.405 -0.1983  0.5335 -0.2632
  862MOL0     C13693   2.709   2.177   9.459 -0.4456 -0.1815  0.1395
  862MOL0     C13694   2.683   2.273   9.583 -0.9644  0.6748  0.2990
  862MOL0     C13695   2.536   2.295   9.574  0.1464 -0.1477 -0.2193
  862MOL0    Cl13696   2.424   2.151   9.608 -0.1362 -0.2842  0.1586
  862MOL0     C13697   3.562   2.334   9.347  0.6163  0.2141  0.1117
  862MOL0     C13698   3.679   2.397   9.308  0.3954 -0.5152  0.0336
  862MOL0     O13699   3.862   2.514   9.083  0.2430 -0.3942  1.0812
  862MOL0     C13700   4.148   2.492   9.102  0.1033 -0.0055 -0.2594
  862MOL0     C13701   4.288   2.492   9.113  0.3305  0.4558  0.4647
  862MOL0     N13702   5.168   2.403   9.032 -0.1507 -0.0257  0.1467
  862MOL0     N13703   5.213   2.312   8.948 -0.8978 -0.2099  0.3796
  862MOL0     C13704   5.631   1.414   9.210  0.1390 -0.2609  0.1383
  862MOL0     C13705   5.764   1.368   9.179 -0.0157 -0.2717  0.3241
  862MOL0     C13706   6.142   1.232   9.031 -0.1916 -0.5192 -0.4487
  862MOL0     C13707   6.117   1.180   8.903  0.2326  0.3081  0.7472
  862MOL0     C13708   6.206   1.075   8.853 -0.6028  0.7269  0.6685
  862MOL0     C13709   6.318   1.039   8.935  0.4768 -0.0805  0.1465
  862MOL0     O13710   6.410   0.951   8.871  1.1618  0.3741 -0.1643
  862MOL0     C13711   6.552   0.987   8.873  0.2621 -0.7370 -1.5252
  862MOL0     C13712   6.576   1.122   8.804 -0.3530  0.2216 -0.0669
  862MOL0     C13713   6.655   1.216   8.898 -0.0013 -0.4691  0.4248
  862MOL0     C13714   6.671   1.356   8.844 -0.3275 -0.5668  0.4063
  862MOL0     C13715   6.547   1.428   8.817 -0.0690  0.5192 -0.0053
  862MOL0     C13716   6.440   1.481   8.789 -0.0995 -0.4540  0.0714
  862MOL0     C13717   6.341   1.096   9.059  0.8599 -0.0514 -0.2567
  862MOL0     C13718   6.250   1.188   9.109 -0.1874  0.0699  1.2556
  862MOL0     H13719   5.810   1.499   8.877  0.9750 -4.2507 -0.0921
  862MOL0     H13720   5.565   1.583   8.934  2.7351  0.8092 -1.2496
  862MOL0     H13721   5.436   1.529   9.348  2.5392  1.3499 -0.6947
  862MOL0     H13722   5.278   1.576   9.258 -0.5460  3.2556 -0.8709
  862MOL0     H13723   5.537   1.747   9.311  0.4101 -1.6930 -0.1885
  862MOL0     H13724   5.371   1.768   9.365 -4.3424 -2.1322 -1.3327
  862MOL0     H13725   5.420   1.760   9.065  2.6888 -2.3078  1.3862
  862MOL0     H13726   5.463   1.911   9.145 -0.1004  0.8100 -0.1595
  862MOL0     H13727   5.189   1.759   9.103  3.5156 -1.7515 -2.3978
  862MOL0     H13728   5.195   1.887   9.219 -3.0891 -0.4960 -2.2623
  862MOL0     H13729   5.257   1.897   8.924 -1.4136 -1.1174 -0.2448
  862MOL0     H13730   5.263   2.041   9.031 -2.0324  0.3316 -1.6774
  862MOL0     H13731   5.038   2.035   9.068 -1.8712 -0.9263  0.3499
  862MOL0     H13732   5.021   1.873   9.004  1.9700 -1.1144  1.3953
  862MOL0     H13733   5.026   1.956   8.776 -1.9153  2.0183 -1.9235
  862MOL0     H13734   4.935   2.073   8.862 -2.3597 -4.3979  0.6354
  862MOL0     H13735   5.103   2.166   8.690 -1.6384  1.1511  0.4650
  862MOL0     H13736   5.231   2.106   8.807  0.1333  0.3626  4.0849
  862MOL0     H13737   4.909   2.329   8.833 -0.6571  1.5632  0.5647
  862MOL0     H13738   4.917   2.608   9.019 -0.3391  1.4554  1.8303
  862MOL0     H13739   4.962   2.535   9.164 -3.5614  2.1715 -0.9943
  862MOL0     H13740   4.770   2.342   9.058 -1.0217  0.6670 -2.3989
  862MOL0     H13741   4.740   2.489   8.965  1.7282  1.3630 -1.1724
  862MOL0     H13742   4.735   2.479   9.274 -1.3064  1.8523  0.8510
  862MOL0     H13743   4.723   2.627   9.179 -2.4114  1.6864  0.3060
  862MOL0     H13744   4.559   2.376   9.182  2.5004  0.0775  1.0613
  862MOL0     H13745   4.551   2.507   9.055  1.2651 -0.2873  0.0316
  862MOL0     H13746   4.317   2.687   9.386 -1.0001 -2.3524  3.4912
  862MOL0     H13747   4.077   2.679   9.378 -0.0302  2.3839 -1.6623
  862MOL0     H13748   3.659   2.683   9.495 -2.0997  1.9033 -3.9036
  862MOL0     H13749   3.463   2.579   9.564 -0.0498  1.8718 -1.2130
  862MOL0     H13750   3.367   2.133   9.492 -0.6697  0.1270  1.2108
  862MOL0     H13751   3.310   2.221   9.337  0.0859 -0.7954  0.0468
  862MOL0     H13752   3.106   2.295   9.445  0.8109  1.2630  0.7524
  862MOL0     H13753   3.155   2.227   9.599  0.9313 -1.7778 -0.0427
  862MOL0     H13754   3.145   1.999   9.490  0.8904  2.8778  4.4148
  862MOL0     H13755   3.103   2.088   9.330  0.4874  0.3844 -0.0340
  862MOL0     H13756   2.917   1.973   9.456  3.1619 -1.3096 -2.6951
  862MOL0     H13757   2.943   2.104   9.587 -0.7422 -0.8305  0.3405
  862MOL0     H13758   2.852   2.163   9.298 -0.4485 -0.7290 -0.0208
  862MOL0     H13759   2.891   2.287   9.415 -0.0798  0.9509 -3.6509
  862MOL0     H13760   2.700   2.071   9.482  2.2975 -0.6247 -0.5334
  862MOL0     H13761   2.638   2.216   9.385  1.5677  2.7421 -0.4479
  862MOL0     H13762   2.720   2.223   9.673  1.9269 -2.5001 -2.3559
  862MOL0     H13763   2.745   2.362   9.567  0.7799 -0.5780 -0.2027
  862MOL0     H13764   2.513   2.344   9.479 -1.3587 -0.7106 -0.1598
  862MOL0     H13765   2.509   2.374   9.644  0.6463  1.6452 -1.9539
  862MOL0     H13766   3.544   2.237   9.303  0.2492 -0.9055  2.5229
  862MOL0     H13767   3.724   2.337   9.229 -1.4796 -0.5545 -1.0527
  862MOL0     H13768   4.106   2.441   9.016 -1.3850 -1.2686  1.1556
  862MOL0     H13769   4.343   2.438   9.037 -1.3451 -1.4794  0.5584
  862MOL0     H13770   5.583   1.368   9.296 -2.8074 -0.0289 -1.2546
  862MOL0     H13771   5.818   1.311   9.254  0.6254  0.1927  0.2240
  862MOL0     H13772   6.029   1.221   8.854  1.1129  0.6746 -0.5951
  862MOL0     H13773   6.212   1.030   8.754  2.5942  2.7802 -0.2240
  862MOL0     H13774   6.595   0.910   8.808  0.5007 -2.3282  0.4242
  862MOL0     H13775   6.593   0.977   8.974 -0.9289  2.5675 -0.5928
  862MOL0     H13776   6.613   1.110   8.701  1.6655  0.3136  0.5997
  862MOL0     H13777   6.479   1.166   8.783 -1.7353 -3.7682 -3.6017
  862MOL0     H13778   6.748   1.162   8.915  0.7649  0.7307  0.1371
  862MOL0     H13779   6.597   1.228   8.991 -2.6525  0.2995 -1.2131
  862MOL0     H13780   6.731   1.419   8.911  1.6860 -1.3754 -0.5664
  862MOL0     H13781   6.730   1.348   8.753  0.5784 -2.8186  1.1399
  862MOL0     H13782   6.344   1.522   8.766 -0.9975 -3.5933 -2.4711
  862MOL0     H13783   6.421   1.072   9.127  2.4861 -0.2248 -2.1442
  862MOL0     H13784   6.265   1.220   9.211  0.1800  2.8757  0.4179
  863MOL0     O13785   0.428   7.816   9.802  0.5182  0.0163 -0.7523
  863MOL0     C13786   0.510   7.742   9.735  0.3030  0.1219 -0.1488
  863MOL0     O13787   0.479   7.619   9.689  0.4659 -0.3285  0.9169
  863MOL0     C13788   0.377   7.563   9.751  0.0003  0.5403 -0.0910
  863MOL0     C13789   0.418   7.456   9.827 -0.5157  0.2016  0.1528
  863MOL0     C13790   0.338   7.374   9.901 -0.1543 -0.5762 -0.3259
  863MOL0     C13791   0.202   7.403   9.914  0.3969  0.1230 -0.0191
  863MOL0     O13792   0.105   7.343   9.989  0.0841  0.5929  0.4571
  863MOL0     C13793   0.145   7.253  10.085  0.1458  0.6836  0.4301
  863MOL0     C13794   0.019   7.209  10.149 -0.1230 -0.3356 -0.0804
  863MOL0     C13795   0.029   7.092  10.257  0.5657  0.2866 -0.3029
  863MOL0     C13796  -0.104   7.035  10.298 -0.2608 -0.2503  0.2964
  863MOL0     C13797  -0.085   6.895  10.356 -0.1582  0.5355  0.4719
  863MOL0     C13798  -0.196   6.857  10.446  0.0605  0.0758 -0.1596
  863MOL0     C13799  -0.334   6.853  10.391  0.0272 -0.9718  0.6104
  863MOL0     C13800  -0.361   6.748  10.295  0.4757  0.1121  1.2421
  863MOL0     N13801  -0.506   6.737  10.267 -0.1985  0.9120  0.2868
  863MOL0     C13802  -0.589   6.650  10.339  0.0814  0.0717  0.1041
  863MOL0     C13803  -0.715   6.686  10.291  0.5375 -0.0082  0.2519
  863MOL0     C13804  -0.850   6.632  10.344 -0.0695 -0.0446  0.3462
  863MOL0     C13805  -0.842   6.587  10.487  0.6666  0.2687  0.3622
  863MOL0     C13806  -0.971   6.584  10.564  0.1300  0.3142 -0.1487
  863MOL0     C13807  -0.954   6.524  10.708 -0.8963 -0.3637 -0.4871
  863MOL0     O13808  -1.034   6.589  10.814 -0.4255 -0.3869 -0.0291
  863MOL0     C13809  -1.158   6.544  10.831 -0.4784 -0.1456 -0.7496
  863MOL0     C13810  -1.275   6.614  10.798 -1.1088  0.4744 -0.0685
  863MOL0     C13811  -1.392   6.550  10.792 -0.5487 -0.9380 -0.7723
  863MOL0     C13812  -1.405   6.417  10.837  0.2440 -0.5733  0.1776
  863MOL0     C13813  -1.544   6.358  10.849 -0.9047 -0.2366  0.0723
  863MOL0     O13814  -1.643   6.439  10.810 -0.2570 -0.2255 -0.1718
  863MOL0     C13815  -1.774   6.397  10.790  0.3485 -0.3211 -0.1257
  863MOL0     C13816  -1.827   6.273  10.797 -0.1498 -0.3177 -0.6962
  863MOL0     C13817  -1.963   6.251  10.768  0.1044  0.6780  0.2372
  863MOL0     C13818  -2.053   6.347  10.732 -0.1154  0.6301 -0.1180
  863MOL0     O13819  -2.181   6.308  10.709  0.2195 -0.2585  0.7858
  863MOL0     C13820  -2.194   6.240  10.584  0.1307 -0.1744 -0.0767
  863MOL0     C13821  -2.325   6.167  10.568 -0.1657 -0.0926 -0.0267
  863MOL0     C13822  -2.450   6.250  10.575  0.9313  0.1887 -0.7490
  863MOL0     C13823  -2.570   6.154  10.592 -0.6533  1.1219 -0.0828
  863MOL0     C13824  -2.596   6.060  10.471  0.6248  1.0883 -0.1392
  863MOL0     C13825  -2.712   5.961  10.505 -0.8119  0.0818  0.3092
  863MOL0     C13826  -2.706   5.830  10.426  0.2264  0.2028  0.0386
  863MOL0     C13827  -2.840   5.773  10.434  0.1876  0.9083  0.4151
  863MOL0    Cl13828  -2.833   5.616  10.343  0.3612 -0.2132 -0.3781
  863MOL0     C13829  -2.001   6.478  10.728  0.0458  0.2445 -0.9616
  863MOL0     C13830  -1.869   6.499  10.764 -0.2835 -0.6156  0.4062
  863MOL0     O13831  -1.551   6.240  10.893  0.2635 -0.1659  0.5650
  863MOL0     C13832  -1.292   6.356  10.881  0.8583  0.3123 -0.4154
  863MOL0     C13833  -1.168   6.410  10.874 -1.6757 -0.5263  0.6102
  863MOL0     N13834  -0.699   6.780  10.182  0.0025 -0.2795 -0.7630
  863MOL0     N13835  -0.578   6.814  10.189 -1.1920 -0.1590 -0.5320
  863MOL0     C13836   0.161   7.524   9.837 -0.5435  0.2765  0.2450
  863MOL0     C13837   0.243   7.604   9.752 -0.0913  0.5682 -0.6140
  863MOL0     C13838   0.635   7.807   9.713 -0.7555 -1.0666  0.2745
  863MOL0     C13839   0.737   7.739   9.640  0.9288  0.1609 -0.4388
  863MOL0     C13840   0.849   7.813   9.612 -0.3755 -0.6584 -0.4105
  863MOL0     C13841   0.872   7.947   9.645 -0.0255 -0.2919 -1.0243
  863MOL0     O13842   0.971   8.025   9.591 -0.3670 -0.1468 -0.0795
  863MOL0     C13843   1.099   7.965   9.555  0.3778  0.8701 -0.7000
  863MOL0     C13844   1.188   7.944   9.680 -0.9199 -0.2481 -0.0776
  863MOL0     C13845   1.329   7.937   9.619 -0.5043  0.2323  0.0017
  863MOL0     C13846   1.440   7.933   9.719  0.3371  0.0878 -0.0883
  863MOL0     C13847   1.491   8.064   9.748  0.1264 -1.6743 -0.0374
  863MOL0     C13848   1.528   8.183   9.781  0.1743 -0.0876  0.2657
  863MOL0     C13849   0.765   8.014   9.732  0.3320  0.3229  0.6220
  863MOL0     C13850   0.655   7.940   9.762  0.2574 -0.4333 -0.0708
  863MOL0     H13851   0.527   7.449   9.830 -0.2516  0.0115 -4.2236
  863MOL0     H13852   0.376   7.289   9.956 -2.3309 -0.9470  0.7068
  863MOL0     H13853   0.208   7.308  10.157 -0.9347  2.2112  0.2569
  863MOL0     H13854   0.194   7.167  10.038 -1.7070 -0.3452  0.3267
  863MOL0     H13855  -0.044   7.176  10.066 -0.6175  0.4194 -0.0174
  863MOL0     H13856  -0.015   7.302  10.196 -0.6600 -0.5138 -0.1048
  863MOL0     H13857   0.076   7.127  10.350 -2.6708 -0.0768  1.6228
  863MOL0     H13858   0.096   7.013  10.223  4.7115  2.6377  1.5216
  863MOL0     H13859  -0.131   7.110  10.372 -0.2726  1.0738 -1.0030
  863MOL0     H13860  -0.179   7.024  10.218  0.4499 -1.2469 -0.2520
  863MOL0     H13861   0.011   6.891  10.408  2.1555 -0.8848 -3.4671
  863MOL0     H13862  -0.085   6.819  10.277 -0.0501 -0.0932  1.0635
  863MOL0     H13863  -0.198   6.929  10.528  0.1000  0.9717 -0.9327
  863MOL0     H13864  -0.174   6.758  10.487 -1.1382  0.3692  1.2744
  863MOL0     H13865  -0.406   6.852  10.473  0.1911  2.2734  0.9617
  863MOL0     H13866  -0.348   6.954  10.350  1.7755  0.2016  2.6350
  863MOL0     H13867  -0.320   6.654  10.333  2.1326  1.2830  2.5284
  863MOL0     H13868  -0.314   6.770  10.198  0.5712 -0.8965  1.0529
  863MOL0     H13869  -0.566   6.574  10.414 -1.8849  0.9324  1.6780
  863MOL0     H13870  -0.897   6.554  10.283 -1.0794 -0.3767  1.5151
  863MOL0     H13871  -0.921   6.713  10.326 -0.5808 -0.7653 -1.0850
  863MOL0     H13872  -0.768   6.648  10.540  1.6715 -1.0250  0.5041
  863MOL0     H13873  -0.806   6.484  10.482  1.9947  0.7300  0.0332
  863MOL0     H13874  -1.005   6.688  10.571 -2.3362 -0.4101 -0.4022
  863MOL0     H13875  -1.052   6.523  10.522  1.1410 -1.3907  0.2841
  863MOL0     H13876  -0.848   6.526  10.731  0.0633  0.4954 -4.2862
  863MOL0     H13877  -0.980   6.418  10.701 -0.2278 -0.6793  1.3272
  863MOL0     H13878  -1.260   6.715  10.761 -0.4187 -0.1024 -1.4475
  863MOL0     H13879  -1.469   6.613  10.748  1.0419  2.6305  1.1161
  863MOL0     H13880  -1.774   6.185  10.834 -1.8991 -0.8532  0.6862
  863MOL0     H13881  -2.001   6.151  10.791  1.1070  0.2198 -0.0565
  863MOL0     H13882  -2.108   6.174  10.567  0.6411  0.0584  1.4332
  863MOL0     H13883  -2.191   6.317  10.507  1.7351 -2.6529 -2.6616
  863MOL0     H13884  -2.337   6.089  10.644 -4.3308 -0.2264 -0.5917
  863MOL0     H13885  -2.324   6.114  10.473 -2.7061 -1.1804  0.4712
  863MOL0     H13886  -2.462   6.318  10.490  0.7961  1.1599  0.0303
  863MOL0     H13887  -2.454   6.321  10.657 -1.8308 -0.3407 -0.3218
  863MOL0     H13888  -2.563   6.094  10.683 -2.5315 -1.4339 -1.5128
  863MOL0     H13889  -2.659   6.212  10.617 -1.4855 -0.9014  2.1189
  863MOL0     H13890  -2.514   5.998  10.436 -1.5595 -1.3554 -1.2094
  863MOL0     H13891  -2.623   6.117  10.382  1.6784 -1.5667 -2.2696
  863MOL0     H13892  -2.808   6.012  10.494 -0.7356 -0.1175 -1.6072
  863MOL0     H13893  -2.703   5.939  10.612 -2.7715 -2.0138  0.1147
  863MOL0     H13894  -2.676   5.847  10.322 -1.4890  0.8457 -0.3928
  863MOL0     H13895  -2.634   5.754  10.456  0.7440  0.2501 -1.0583
  863MOL0     H13896  -2.916   5.833  10.384 -1.0160 -1.8575 -1.3059
  863MOL0     H13897  -2.876   5.769  10.537 -1.3565  2.0238 -0.0509
  863MOL0     H13898  -2.068   6.562  10.711  0.6961  1.1977  0.9459
  863MOL0     H13899  -1.820   6.596  10.756  0.4221 -1.0669 -1.0438
  863MOL0     H13900  -1.298   6.252  10.913 -0.9363  0.3799 -0.4194
  863MOL0     H13901  -1.083   6.351  10.908 -2.2223 -0.0993  2.8675
  863MOL0     H13902   0.056   7.553   9.844 -1.0550  0.5296 -4.6764
  863MOL0     H13903   0.212   7.688   9.690 -4.6197 -1.2801 -1.2591
  863MOL0     H13904   0.729   7.634   9.615 -0.9884 -0.7971  3.4432
  863MOL0     H13905   0.914   7.765   9.540 -0.7514 -0.9769 -0.5376
  863MOL0     H13906   1.153   8.031   9.486  2.6293 -0.1209  0.0317
  863MOL0     H13907   1.086   7.869   9.505 -0.8198  0.6612 -0.0327
  863MOL0     H13908   1.177   8.020   9.758 -0.8778 -2.7437  2.5104
  863MOL0     H13909   1.156   7.849   9.726  0.8906  0.0897  2.0471
  863MOL0     H13910   1.345   8.026   9.558 -0.5170  3.2987  4.0880
  863MOL0     H13911   1.336   7.841   9.566  0.5884  1.2774 -1.8613
  863MOL0     H13912   1.385   7.902   9.808 -0.6717 -0.0071 -0.7248
  863MOL0     H13913   1.516   7.858   9.694  1.6652  0.7069  1.8361
  863MOL0     H13914   1.542   8.287   9.801 -0.3321 -0.2006  1.2494
  863MOL0     H13915   0.770   8.115   9.771 -0.2379 -0.2762  2.3131
  863MOL0     H13916   0.577   7.995   9.812  1.4008  2.1935 -0.9810
  864MOL0     O13917   0.016   5.627   9.219  0.1514 -0.7848  0.9885
  864MOL0     C13918   0.070   5.720   9.287 -0.3682  0.5263 -0.3389
  864MOL0     O13919   0.073   5.728   9.426 -0.2648 -0.5952 -0.2161
  864MOL0     C13920  -0.004   5.628   9.480 -0.0551 -0.1481  0.4315
  864MOL0     C13921  -0.125   5.648   9.551 -0.4547 -0.5749 -0.6619
  864MOL0     C13922  -0.192   5.545   9.626 -0.7320 -0.3291  0.1473
  864MOL0     C13923  -0.141   5.419   9.624  0.6449  0.6229  0.1305
  864MOL0     O13924  -0.212   5.327   9.696 -0.2946  0.5535  0.3617
  864MOL0     C13925  -0.194   5.195   9.672 -0.2155  0.3919 -0.0148
  864MOL0     C13926  -0.327   5.115   9.680  0.9234  0.0656 -0.5120
  864MOL0     C13927  -0.294   4.967   9.669 -0.4755  0.2533 -1.0574
  864MOL0     C13928  -0.410   4.872   9.643  0.4223 -1.5176  0.4099
  864MOL0     C13929  -0.368   4.727   9.664  0.3249 -0.2482  0.3334
  864MOL0     C13930  -0.444   4.631   9.563  0.5006  0.2921 -0.5523
  864MOL0     C13931  -0.387   4.490   9.565 -0.1628  0.4179  0.2117
  864MOL0     C13932  -0.309   4.446   9.435  0.2149  0.4369 -0.0593
  864MOL0     N13933  -0.398   4.450   9.314  0.3305 -0.0406 -0.2252
  864MOL0     C13934  -0.499   4.350   9.294 -0.2594 -0.7209 -0.4023
  864MOL0     C13935  -0.564   4.397   9.189 -0.1154 -0.6557 -0.1733
  864MOL0     C13936  -0.682   4.333   9.112 -0.7526 -0.0299  0.3102
  864MOL0     C13937  -0.748   4.427   9.025  0.5390  0.5445 -1.2080
  864MOL0     C13938  -0.864   4.358   8.960 -0.3388  0.4666 -1.0910
  864MOL0     C13939  -0.939   4.434   8.857 -0.7624  0.2539 -0.0150
  864MOL0     O13940  -1.066   4.364   8.837 -0.3211  0.3293  0.5470
  864MOL0     C13941  -1.170   4.446   8.791  0.7207 -0.6778 -0.1871
  864MOL0     C13942  -1.163   4.540   8.693  0.0838 -0.3188  0.1390
  864MOL0     C13943  -1.274   4.607   8.648  0.7799  0.6159  0.8651
  864MOL0     C13944  -1.404   4.581   8.708  0.3185  0.0062 -0.6166
  864MOL0     C13945  -1.533   4.642   8.666  0.4239 -0.0886 -0.8695
  864MOL0     O13946  -1.646   4.592   8.735  0.0677 -0.2372  0.2584
  864MOL0     C13947  -1.762   4.669   8.751  1.1193  0.2309  0.1041
  864MOL0     C13948  -1.866   4.599   8.812 -0.2751  0.3475 -0.2835
  864MOL0     C13949  -1.982   4.667   8.848 -0.5084  0.0223 -0.0402
  864MOL0     C13950  -2.007   4.801   8.820 -0.6520 -0.4530  0.2565
  864MOL0     O13951  -2.132   4.851   8.851 -0.4204 -0.6240  0.3424
  864MOL0     C13952  -2.226   4.835   8.739 -0.6600  0.6131 -1.0482
  864MOL0     C13953  -2.359   4.875   8.796  0.0735 -0.1213 -0.7346
  864MOL0     C13954  -2.454   4.897   8.687 -0.0484  0.1602  0.3313
  864MOL0     C13955  -2.584   4.950   8.749 -0.5778  0.0475  0.3344
  864MOL0     C13956  -2.670   4.986   8.628 -0.6183  0.1935  0.1884
  864MOL0     C13957  -2.819   5.015   8.681 -1.0795  0.4886  0.7229
  864MOL0     C13958  -2.926   5.002   8.592  0.0179  0.5239  0.4398
  864MOL0     C13959  -3.056   5.048   8.646  0.0157  0.6242 -0.2302
  864MOL0    Cl13960  -3.190   5.017   8.530  0.3156 -0.4860 -0.0713
  864MOL0     C13961  -1.907   4.868   8.749 -1.3351 -0.0798 -0.7854
  864MOL0     C13962  -1.782   4.806   8.721 -0.0518 -1.3165 -0.7101
  864MOL0     O13963  -1.529   4.725   8.571 -0.2444 -0.6910 -0.1057
  864MOL0     C13964  -1.412   4.485   8.818  0.4379 -0.0340  1.3481
  864MOL0     C13965  -1.299   4.418   8.853 -0.1331  0.6144  0.6788
  864MOL0     N13966  -0.503   4.512   9.149  0.9776  0.1205 -0.4788
  864MOL0     N13967  -0.399   4.548   9.218 -0.2768 -0.3552 -0.6186
  864MOL0     C13968  -0.013   5.400   9.567 -1.0139  0.1863 -0.0232
  864MOL0     C13969   0.055   5.503   9.498  0.1651  0.3082  0.1339
  864MOL0     C13970   0.147   5.813   9.217 -0.1022  0.4671 -0.5585
  864MOL0     C13971   0.228   5.903   9.287  0.2996  0.1115  0.5316
  864MOL0     C13972   0.325   5.986   9.223  0.0805  0.4978  0.2587
  864MOL0     C13973   0.300   6.002   9.081  0.2440  0.1401  0.3056
  864MOL0     O13974   0.379   6.078   8.997  0.3697 -0.1638  0.4918
  864MOL0     C13975   0.513   6.114   9.038  0.2645  0.6134  0.5898
  864MOL0     C13976   0.591   6.119   8.915  0.4717  0.5932  0.2049
  864MOL0     C13977   0.735   6.156   8.950  0.1144 -0.3968  0.3984
  864MOL0     C13978   0.842   6.113   8.846  0.1088  0.5280  0.5380
  864MOL0     C13979   0.825   6.192   8.726  0.2481 -0.4907  0.3465
  864MOL0     C13980   0.803   6.240   8.615  0.7466 -0.1187 -0.0061
  864MOL0     C13981   0.208   5.923   9.012  0.1151 -0.2002 -0.1986
  864MOL0     C13982   0.136   5.820   9.081  0.3989  0.1484  0.0050
  864MOL0     H13983  -0.161   5.750   9.562  1.4343 -0.0519  1.6371
  864MOL0     H13984  -0.284   5.574   9.676  0.2312 -0.9884  2.4123
  864MOL0     H13985  -0.105   5.153   9.721 -0.1787  0.2905 -0.1678
  864MOL0     H13986  -0.168   5.186   9.566 -0.4423  2.5916 -0.3069
  864MOL0     H13987  -0.387   5.161   9.601 -0.6029 -0.1012  0.5080
  864MOL0     H13988  -0.368   5.134   9.779 -1.0363  0.8683 -1.4317
  864MOL0     H13989  -0.241   4.935   9.759 -2.5103 -1.5028 -0.3977
  864MOL0     H13990  -0.223   4.953   9.587  1.8150  0.2809  0.7977
  864MOL0     H13991  -0.489   4.906   9.711  0.7844 -1.6199  0.8907
  864MOL0     H13992  -0.447   4.891   9.542 -1.0525 -0.0377  1.1706
  864MOL0     H13993  -0.371   4.697   9.770  2.6185  0.6637  0.7276
  864MOL0     H13994  -0.259   4.722   9.652  0.1430 -2.5631 -0.9577
  864MOL0     H13995  -0.450   4.679   9.465 -3.2935  1.5028  0.1085
  864MOL0     H13996  -0.547   4.628   9.598  0.9235  1.4315  0.8890
  864MOL0     H13997  -0.315   4.488   9.648  2.2535 -1.3069 -1.7632
  864MOL0     H13998  -0.453   4.405   9.580  1.8270 -1.2594 -0.0790
  864MOL0     H13999  -0.274   4.343   9.443 -3.3751 -0.7803  2.5093
  864MOL0     H14000  -0.232   4.521   9.414 -2.6062  3.3080 -1.0762
  864MOL0     H14001  -0.508   4.252   9.340 -0.5967 -1.2346 -1.5214
  864MOL0     H14002  -0.755   4.299   9.187  1.4139 -0.1733  2.4941
  864MOL0     H14003  -0.638   4.255   9.049  0.1364  2.2580 -2.0458
  864MOL0     H14004  -0.681   4.466   8.948 -0.2646  0.5503 -1.9278
  864MOL0     H14005  -0.798   4.504   9.084 -0.2647  0.0935 -1.2828
  864MOL0     H14006  -0.828   4.262   8.923 -2.0443 -0.9822  0.8081
  864MOL0     H14007  -0.935   4.330   9.038  1.9243 -0.6396  0.6926
  864MOL0     H14008  -0.869   4.420   8.774  1.7504  1.5488  1.7533
  864MOL0     H14009  -0.948   4.541   8.879  2.7209  0.7487 -0.4226
  864MOL0     H14010  -1.069   4.556   8.639 -0.1577 -4.8310 -2.1050
  864MOL0     H14011  -1.260   4.685   8.574 -0.3331 -0.5470 -0.6135
  864MOL0     H14012  -1.871   4.492   8.829  2.9847  0.3128  1.0910
  864MOL0     H14013  -2.054   4.601   8.895 -0.3425  1.1866  1.9516
  864MOL0     H14014  -2.230   4.728   8.717 -0.1939  0.1168  1.0277
  864MOL0     H14015  -2.191   4.895   8.655 -2.0555 -0.1393 -2.2073
  864MOL0     H14016  -2.343   4.965   8.856 -0.7838 -0.4565  0.0350
  864MOL0     H14017  -2.393   4.806   8.874  1.6857  1.1412  1.1802
  864MOL0     H14018  -2.489   4.808   8.634 -1.6320  0.9317  0.0241
  864MOL0     H14019  -2.411   4.964   8.611 -2.0938 -0.9793 -2.0057
  864MOL0     H14020  -2.625   4.882   8.824 -0.0943 -1.3440 -0.6125
  864MOL0     H14021  -2.556   5.034   8.813 -0.7583  0.7605 -0.5110
  864MOL0     H14022  -2.674   4.893   8.571  3.4344 -1.0604  1.5791
  864MOL0     H14023  -2.632   5.069   8.568  0.2356  0.9472  1.7120
  864MOL0     H14024  -2.808   5.120   8.710 -0.1551  0.2623  1.2278
  864MOL0     H14025  -2.838   4.959   8.773  1.8177  0.4930  1.4213
  864MOL0     H14026  -2.914   5.060   8.500 -0.9711 -1.8701 -1.2970
  864MOL0     H14027  -2.942   4.895   8.578 -0.8326  0.3470  2.3609
  864MOL0     H14028  -3.043   5.153   8.673  1.5558  0.1095  1.1870
  864MOL0     H14029  -3.079   5.000   8.742  0.4382 -0.4019 -0.6267
  864MOL0     H14030  -1.927   4.968   8.710 -0.6665  0.8943  1.2203
  864MOL0     H14031  -1.706   4.856   8.661  0.6450  0.4862  1.5178
  864MOL0     H14032  -1.505   4.465   8.869  0.8262  0.3311  2.2273
  864MOL0     H14033  -1.310   4.349   8.935 -2.6332 -0.3923 -0.4196
  864MOL0     H14034   0.022   5.297   9.560 -3.2497 -0.5425 -3.5524
  864MOL0     H14035   0.156   5.486   9.462  0.2265  0.6781  0.1330
  864MOL0     H14036   0.239   5.911   9.394 -0.0445  1.1922  0.4957
  864MOL0     H14037   0.396   6.045   9.279 -0.2420  2.0730 -0.9098
  864MOL0     H14038   0.551   6.041   9.110 -2.1247  0.6475  1.9889
  864MOL0     H14039   0.506   6.211   9.087 -2.3685  1.2942 -0.8989
  864MOL0     H14040   0.591   6.024   8.860  2.5829  0.9283 -0.4948
  864MOL0     H14041   0.556   6.198   8.847 -1.6794 -0.9162 -0.5244
  864MOL0     H14042   0.775   6.103   9.037  1.6793 -1.1583 -0.7327
  864MOL0     H14043   0.746   6.264   8.961  1.3549 -0.4628 -0.0293
  864MOL0     H14044   0.937   6.134   8.895 -0.0200 -1.1241  1.5777
  864MOL0     H14045   0.838   6.005   8.829 -1.7136  0.9346 -2.3079
  864MOL0     H14046   0.772   6.273   8.518 -1.1714 -0.1727  0.5639
  864MOL0     H14047   0.194   5.956   8.909 -3.3538  0.6611  0.4026
  864MOL0     H14048   0.073   5.749   9.027 -1.9499  2.5493 -0.6481
  865MOL0     O14049   9.179   3.638   1.625 -0.0131  0.3097  0.1334
  865MOL0     C14050   9.139   3.572   1.525 -0.3220 -0.7258  0.1356
  865MOL0     O14051   9.014   3.532   1.499 -0.0616 -0.8517  0.0990
  865MOL0     C14052   8.910   3.539   1.588 -0.6270  0.7767 -0.3853
  865MOL0     C14053   8.910   3.574   1.723 -0.9022 -0.2757  0.0424
  865MOL0     C14054   8.801   3.554   1.807  0.2293  0.3423  0.6594
  865MOL0     C14055   8.678   3.524   1.751  0.2828 -0.1204  1.5635
  865MOL0     O14056   8.574   3.535   1.828 -0.0150 -0.2643 -0.6240
  865MOL0     C14057   8.441   3.497   1.773 -1.0425 -0.6053 -0.0808
  865MOL0     C14058   8.331   3.513   1.876  0.1692  0.6481 -0.0278
  865MOL0     C14059   8.203   3.468   1.802  0.1464  0.9196 -0.6943
  865MOL0     C14060   8.076   3.504   1.875 -0.6218 -0.6999 -0.1989
  865MOL0     C14061   8.055   3.460   2.025  0.3637 -0.3615  0.0872
  865MOL0     C14062   7.924   3.525   2.091 -0.1694  0.2087 -0.5554
  865MOL0     C14063   7.925   3.513   2.243  0.1553 -1.2018 -0.1399
  865MOL0     C14064   7.937   3.371   2.300  0.1405 -0.8368  1.3121
  865MOL0     N14065   7.813   3.301   2.256 -0.4580 -0.5556  0.5106
  865MOL0     C14066   7.685   3.341   2.280  0.2417 -0.3969  1.0041
  865MOL0     C14067   7.612   3.258   2.205  0.8370  0.0032  0.8985
  865MOL0     C14068   7.478   3.305   2.159  0.8391  0.1414 -0.1876
  865MOL0     C14069   7.498   3.388   2.030  0.6640 -1.0061 -0.2862
  865MOL0     C14070   7.374   3.479   2.004 -0.7952  0.7452 -1.1550
  865MOL0     C14071   7.363   3.551   1.877 -0.0993  0.0335 -0.9579
  865MOL0     O14072   7.272   3.657   1.886  0.3389 -0.1043 -0.2582
  865MOL0     C14073   7.142   3.655   1.834 -0.6615 -0.8656 -0.3396
  865MOL0     C14074   7.062   3.771   1.816 -0.1836  0.2979 -1.0404
  865MOL0     C14075   6.945   3.776   1.744  0.5942 -0.2172 -0.7615
  865MOL0     C14076   6.885   3.661   1.700  0.3148  0.0655  0.0639
  865MOL0     C14077   6.756   3.660   1.637 -0.5058 -0.5517  0.2248
  865MOL0     O14078   6.658   3.754   1.667 -0.1478  0.3111  0.4899
  865MOL0     C14079   6.536   3.748   1.606 -0.1506 -0.5794 -0.0859
  865MOL0     C14080   6.496   3.868   1.542 -0.9277 -0.3284  1.3691
  865MOL0     C14081   6.367   3.873   1.481 -0.9887  0.8922  0.8498
  865MOL0     C14082   6.273   3.766   1.485 -0.8359 -0.3640 -0.0088
  865MOL0     O14083   6.146   3.778   1.450 -0.1409  0.1529  0.6843
  865MOL0     C14084   6.090   3.664   1.369 -0.0302  0.0186 -0.1230
  865MOL0     C14085   5.957   3.707   1.305 -0.2848 -0.2383 -0.1695
  865MOL0     C14086   5.842   3.734   1.408 -0.3189 -0.3984 -0.4849
  865MOL0     C14087   5.709   3.764   1.344 -0.8238 -0.4608  0.6118
  865MOL0     C14088   5.596   3.791   1.451 -0.6197 -0.0269  0.0362
  865MOL0     C14089   5.470   3.702   1.417 -0.2960 -0.1571  0.5767
  865MOL0     C14090   5.490   3.561   1.459  0.5867  0.0063  0.9264
  865MOL0     C14091   5.418   3.472   1.342 -0.1524  0.0097 -1.1744
  865MOL0    Cl14092   5.252   3.515   1.301  0.0844  0.3375 -0.0695
  865MOL0     C14093   6.318   3.647   1.551  0.0695 -0.4434 -0.2650
  865MOL0     C14094   6.444   3.640   1.615  0.7276 -0.7554  0.3505
  865MOL0     O14095   6.740   3.568   1.549  0.1475 -0.8819  0.0894
  865MOL0     C14096   6.942   3.540   1.741 -0.3051 -0.2458  0.5003
  865MOL0     C14097   7.073   3.536   1.800  0.8266 -0.0866  0.0827
  865MOL0     N14098   7.692   3.160   2.147 -0.1840  0.8350 -0.4020
  865MOL0     N14099   7.809   3.194   2.179 -0.5694  0.1012 -0.2112
  865MOL0     C14100   8.679   3.498   1.614 -0.0846  0.4213  0.2247
  865MOL0     C14101   8.793   3.499   1.531  0.0462  0.4904  0.3024
  865MOL0     C14102   9.241   3.525   1.424  0.0141 -0.0792 -0.3789
  865MOL0     C14103   9.208   3.415   1.339  0.4254  0.3758 -0.5958
  865MOL0     C14104   9.289   3.371   1.238  0.2190 -0.3945 -0.2409
  865MOL0     C14105   9.423   3.425   1.226  0.6456 -0.2309  1.6839
  865MOL0     O14106   9.497   3.384   1.120 -0.0117 -0.6507 -0.5120
  865MOL0     C14107   9.641   3.373   1.138  0.4091 -0.1313 -0.6766
  865MOL0     C14108   9.703   3.282   1.030  0.1306 -0.3631 -0.7394
  865MOL0     C14109   9.831   3.210   1.077  0.9482  0.2776 -1.0666
  865MOL0     C14110   9.948   3.286   1.013 -0.0853 -0.1899 -0.2392
  865MOL0     C14111   9.954   3.429   1.020 -0.0986 -0.4715 -0.5170
  865MOL0     C14112   9.944   3.555   1.035  0.4764 -0.5749 -0.0975
  865MOL0     C14113   9.460   3.531   1.315  0.4269 -1.2016  0.9146
  865MOL0     C14114   9.368   3.577   1.413 -0.4227  0.3398  0.3523
  865MOL0     H14115   9.002   3.604   1.773 -0.2416  0.4006 -1.5139
  865MOL0     H14116   8.817   3.562   1.914 -0.2981  0.5018  0.7331
  865MOL0     H14117   8.438   3.397   1.729  0.5545  1.2405 -5.2246
  865MOL0     H14118   8.407   3.573   1.702 -0.0325  1.9099  1.9952
  865MOL0     H14119   8.312   3.616   1.906  0.5145  0.4619  0.8787
  865MOL0     H14120   8.346   3.449   1.964 -2.2578 -0.3503 -0.2532
  865MOL0     H14121   8.207   3.360   1.788 -0.1991  1.0444 -1.8849
  865MOL0     H14122   8.197   3.505   1.699 -3.2530  4.0262  0.3959
  865MOL0     H14123   8.080   3.614   1.874  2.4738 -0.7280 -0.9061
  865MOL0     H14124   7.993   3.462   1.818  0.1827 -2.2732 -0.2651
  865MOL0     H14125   8.146   3.496   2.073  1.2929 -1.0191 -1.1347
  865MOL0     H14126   8.060   3.351   2.034  0.2126 -0.5348 -1.5243
  865MOL0     H14127   7.834   3.474   2.055 -1.1572  1.3164  0.2775
  865MOL0     H14128   7.914   3.631   2.066 -0.3614  0.2365 -0.3700
  865MOL0     H14129   8.003   3.580   2.280 -0.0702  0.0922 -1.9152
  865MOL0     H14130   7.831   3.551   2.285 -0.5887 -3.3620  0.3031
  865MOL0     H14131   7.952   3.369   2.408 -1.5602  3.4462  1.8395
  865MOL0     H14132   8.015   3.315   2.249 -1.6248 -0.1382 -2.5414
  865MOL0     H14133   7.664   3.438   2.325 -0.6473 -0.8253  1.5370
  865MOL0     H14134   7.433   3.350   2.248 -2.3413 -2.2007 -0.4537
  865MOL0     H14135   7.410   3.221   2.144 -0.5025  1.4580 -1.8268
  865MOL0     H14136   7.527   3.322   1.948  0.1801  0.6047 -1.7973
  865MOL0     H14137   7.589   3.446   2.050 -0.4081  0.8750 -0.6526
  865MOL0     H14138   7.287   3.413   2.004  0.3729 -1.1259 -5.4136
  865MOL0     H14139   7.349   3.534   2.095  2.4619  0.3427  0.1355
  865MOL0     H14140   7.331   3.480   1.801  0.8413 -2.2082  0.6424
  865MOL0     H14141   7.468   3.579   1.859  0.3277 -1.5966 -1.0971
  865MOL0     H14142   7.104   3.856   1.869 -0.2110  1.0262 -2.1491
  865MOL0     H14143   6.897   3.872   1.726  1.4504  0.0453 -1.8379
  865MOL0     H14144   6.564   3.952   1.531  0.1272 -1.4639 -1.8878
  865MOL0     H14145   6.342   3.963   1.426  1.0671  2.1238  1.8083
  865MOL0     H14146   6.086   3.572   1.427  1.4096  0.1305  0.1853
  865MOL0     H14147   6.143   3.637   1.277 -0.4195  1.2446 -0.7299
  865MOL0     H14148   5.911   3.641   1.230 -1.9132 -2.0573  2.2849
  865MOL0     H14149   5.979   3.805   1.260  2.1064 -0.2327  0.8600
  865MOL0     H14150   5.878   3.812   1.476 -0.4822 -0.5615 -0.2058
  865MOL0     H14151   5.815   3.642   1.462  0.0278  0.1019  0.5737
  865MOL0     H14152   5.725   3.853   1.282 -0.9274 -0.7791  0.1143
  865MOL0     H14153   5.671   3.694   1.268 -1.5189  1.7716 -1.2186
  865MOL0     H14154   5.573   3.897   1.460 -2.1191 -0.1046 -2.1645
  865MOL0     H14155   5.625   3.753   1.550 -2.9167 -3.7928 -0.5195
  865MOL0     H14156   5.438   3.729   1.316 -3.4296  2.4927  2.0870
  865MOL0     H14157   5.411   3.746   1.498  1.3377  1.0335  1.1889
  865MOL0     H14158   5.590   3.519   1.449  1.8310  3.2498 -2.2179
  865MOL0     H14159   5.449   3.533   1.556  0.2269 -0.8565  0.5390
  865MOL0     H14160   5.412   3.367   1.369  2.1223 -0.6704 -3.0535
  865MOL0     H14161   5.480   3.487   1.253 -2.8798  1.7325 -2.9472
  865MOL0     H14162   6.248   3.568   1.574 -1.0080  1.2083  2.8256
  865MOL0     H14163   6.482   3.547   1.657 -1.9157 -1.9916  0.1513
  865MOL0     H14164   6.885   3.451   1.714 -0.3505  0.7610 -3.2814
  865MOL0     H14165   7.119   3.438   1.807 -0.3339 -0.6508 -0.0287
  865MOL0     H14166   8.585   3.472   1.567 -1.7605  1.6182  2.7163
  865MOL0     H14167   8.802   3.459   1.431  1.7959  3.1376 -0.7141
  865MOL0     H14168   9.109   3.375   1.325  0.1995  0.3388  0.9430
  865MOL0     H14169   9.246   3.305   1.163  0.9540 -2.5640  1.1549
  865MOL0     H14170   9.656   3.327   1.237  1.9533  2.3208  0.3256
  865MOL0     H14171   9.694   3.466   1.159  0.9697 -0.7234  0.6941
  865MOL0     H14172   9.635   3.198   1.013 -0.5513  0.5668 -2.8698
  865MOL0     H14173   9.722   3.335   0.937  1.1794 -2.2415 -1.6499
  865MOL0     H14174   9.834   3.106   1.041  0.8195  0.7591 -2.5355
  865MOL0     H14175   9.849   3.202   1.185 -1.0424  0.9728 -0.6366
  865MOL0     H14176  10.041   3.239   1.045  1.1156  0.7372 -2.1714
  865MOL0     H14177   9.941   3.263   0.906 -0.8357  1.5091 -0.5914
  865MOL0     H14178   9.934   3.660   1.054 -6.5505 -0.7361 -0.3673
  865MOL0     H14179   9.550   3.591   1.306 -0.4912  0.0532 -0.7456
  865MOL0     H14180   9.402   3.653   1.483  0.7945 -0.2272  0.3977
  866MOL0     O14181   1.948   0.639   0.925 -0.3657  0.0507  0.0927
  866MOL0     C14182   2.037   0.602   0.842  0.8975 -0.7046 -0.0804
  866MOL0     O14183   2.019   0.503   0.743  0.0543 -0.0226 -0.0125
  866MOL0     C14184   1.918   0.414   0.769  0.3959 -0.4565  0.4552
  866MOL0     C14185   1.926   0.316   0.862  0.3202 -0.5837  0.4415
  866MOL0     C14186   1.821   0.233   0.896  0.8143 -0.3753  0.2527
  866MOL0     C14187   1.695   0.246   0.828  0.0480 -1.0426  0.8612
  866MOL0     O14188   1.596   0.165   0.861  0.1918  0.2457  0.2784
  866MOL0     C14189   1.494   0.148   0.766  1.9393  0.4425 -0.3786
  866MOL0     C14190   1.391   0.048   0.824 -0.3979 -0.2537  0.4906
  866MOL0     C14191   1.290  -0.001   0.718 -0.7729 -0.2019 -1.0955
  866MOL0     C14192   1.206  -0.124   0.769 -0.1361  0.5930  0.2956
  866MOL0     C14193   1.089  -0.160   0.683 -0.4019 -0.7005  0.4193
  866MOL0     C14194   0.968  -0.098   0.728 -0.3859  0.0760 -0.2022
  866MOL0     C14195   0.846  -0.158   0.647  0.2075 -0.0210 -0.1409
  866MOL0     C14196   0.728  -0.062   0.646  0.6347 -0.4081 -0.1938
  866MOL0     N14197   0.641  -0.064   0.769  0.0113 -0.1025 -0.3941
  866MOL0     C14198   0.566  -0.180   0.799  0.7043 -0.0642 -0.4473
  866MOL0     C14199   0.466  -0.143   0.892  0.4374  0.4832  0.9414
  866MOL0     C14200   0.374  -0.244   0.958 -0.4110 -0.3381 -0.4747
  866MOL0     C14201   0.290  -0.328   0.859 -0.0933 -0.1277 -0.3526
  866MOL0     C14202   0.186  -0.433   0.914  0.3072  0.3978 -0.7286
  866MOL0     C14203   0.079  -0.460   0.813  0.1591  0.5804  0.2816
  866MOL0     O14204   0.000  -0.566   0.870  0.3919 -0.6446  0.5010
  866MOL0     C14205  -0.132  -0.544   0.870  0.2014 -0.0888  0.0858
  866MOL0     C14206  -0.205  -0.431   0.910 -0.1987  1.0056 -0.2510
  866MOL0     C14207  -0.351  -0.428   0.919  0.0736  0.3409 -0.4367
  866MOL0     C14208  -0.422  -0.537   0.870  0.0075  0.0114 -0.2689
  866MOL0     C14209  -0.562  -0.550   0.885 -1.1586  0.5741 -0.7168
  866MOL0     O14210  -0.624  -0.435   0.917  0.1104  0.1573 -0.2661
  866MOL0     C14211  -0.766  -0.442   0.950  0.0460  0.7936 -0.0838
  866MOL0     C14212  -0.806  -0.435   1.086 -0.7138 -0.3290  0.1157
  866MOL0     C14213  -0.945  -0.430   1.113 -0.6311  0.0565  0.4785
  866MOL0     C14214  -1.045  -0.439   1.012  0.8190 -0.4701 -0.1566
  866MOL0     O14215  -1.177  -0.417   1.027 -0.5244 -0.3245  0.2612
  866MOL0     C14216  -1.220  -0.381   1.159 -0.2506  0.3486 -0.1264
  866MOL0     C14217  -1.373  -0.363   1.152 -0.1055 -0.1403 -0.1415
  866MOL0     C14218  -1.428  -0.266   1.038 -1.8298  0.0372  0.1619
  866MOL0     C14219  -1.583  -0.243   1.055  0.1859  0.6584 -0.4399
  866MOL0     C14220  -1.658  -0.183   0.933  0.2202  0.4798  0.2650
  866MOL0     C14221  -1.803  -0.184   0.946  0.1838 -0.9260 -0.4184
  866MOL0     C14222  -1.875  -0.316   0.947  0.4781 -0.6809  0.1472
  866MOL0     C14223  -1.846  -0.408   0.824 -0.0362  0.7068 -1.1335
  866MOL0    Cl14224  -1.906  -0.316   0.681  0.2059 -0.3488  0.3737
  866MOL0     C14225  -1.004  -0.462   0.876 -0.3780 -0.3683  0.2542
  866MOL0     C14226  -0.862  -0.466   0.851  0.1608 -0.1165 -0.3285
  866MOL0     O14227  -0.624  -0.657   0.864 -0.4856 -0.7108 -1.5689
  866MOL0     C14228  -0.352  -0.656   0.837 -0.3594 -0.3937  0.4546
  866MOL0     C14229  -0.210  -0.660   0.844  0.4619 -0.3574 -0.1613
  866MOL0     N14230   0.495  -0.015   0.917 -0.1485 -0.0621  0.3609
  866MOL0     N14231   0.597   0.040   0.855 -0.0613 -0.7185 -0.2258
  866MOL0     C14232   1.688   0.351   0.736 -0.2395  0.3123  0.0076
  866MOL0     C14233   1.795   0.431   0.700  0.6847  0.2194  0.1251
  866MOL0     C14234   2.165   0.683   0.850  0.6094 -0.2692  0.9265
  866MOL0     C14235   2.274   0.626   0.790 -0.1478 -0.6772  0.9123
  866MOL0     C14236   2.386   0.700   0.765 -0.3518 -0.3079 -1.3259
  866MOL0     C14237   2.408   0.828   0.819 -0.1269  0.8890 -0.0310
  866MOL0     O14238   2.533   0.877   0.796 -0.1530  0.0580  0.1392
  866MOL0     C14239   2.545   1.018   0.828  0.1311 -0.1623 -0.0661
  866MOL0     C14240   2.690   1.068   0.805 -0.7302 -0.6328 -0.2658
  866MOL0     C14241   2.782   1.025   0.927 -0.0774  0.9373 -0.3917
  866MOL0     C14242   2.922   0.981   0.883 -0.0933  0.4057  0.3884
  866MOL0     C14243   2.903   0.844   0.826 -0.7347 -0.5124 -0.4579
  866MOL0     C14244   2.904   0.729   0.783  0.0564  0.4446  0.0325
  866MOL0     C14245   2.298   0.888   0.891 -0.4505  0.4265 -0.9977
  866MOL0     C14246   2.175   0.817   0.894  0.6901 -0.7384 -0.6408
  866MOL0     H14247   2.027   0.304   0.900 -0.5401  0.5944  3.3482
  866MOL0     H14248   1.833   0.147   0.961  2.1305 -0.9236 -0.6739
  866MOL0     H14249   1.533   0.103   0.674  0.6514  0.4888 -0.9626
  866MOL0     H14250   1.435   0.238   0.750  1.1842  0.4314  1.9921
  866MOL0     H14251   1.341   0.091   0.912  1.4000  0.7286  1.0862
  866MOL0     H14252   1.439  -0.048   0.845  1.2697 -0.1351 -2.2820
  866MOL0     H14253   1.352  -0.020   0.630  2.6596  0.1941  1.0600
  866MOL0     H14254   1.217   0.080   0.712 -0.8303 -0.2507 -1.0486
  866MOL0     H14255   1.273  -0.210   0.771 -1.4087 -0.4719  3.0712
  866MOL0     H14256   1.177  -0.104   0.873 -0.2533 -1.9823  0.8275
  866MOL0     H14257   1.070  -0.268   0.677  2.3164 -1.3711  2.0308
  866MOL0     H14258   1.113  -0.125   0.582  0.3699 -1.1068  0.4505
  866MOL0     H14259   0.978   0.010   0.714 -1.2821  0.3395  1.0601
  866MOL0     H14260   0.954  -0.124   0.833  1.4539 -1.2686 -0.2380
  866MOL0     H14261   0.879  -0.170   0.544  1.2393  1.1665  0.0263
  866MOL0     H14262   0.812  -0.254   0.686 -2.8051  0.5798 -0.9961
  866MOL0     H14263   0.658  -0.095   0.569 -1.5927 -0.5013  1.7424
  866MOL0     H14264   0.756   0.042   0.628 -1.5760  0.6516  1.8913
  866MOL0     H14265   0.583  -0.277   0.753 -0.9229  1.2027 -4.0370
  866MOL0     H14266   0.303  -0.191   1.022 -0.9275  1.8931 -2.7158
  866MOL0     H14267   0.433  -0.318   1.012 -0.6938 -0.0585  0.2261
  866MOL0     H14268   0.359  -0.382   0.793 -1.0348  0.1172 -1.5775
  866MOL0     H14269   0.232  -0.258   0.798 -1.6382  0.2834  1.4766
  866MOL0     H14270   0.241  -0.525   0.936  2.1304  1.7236  0.5302
  866MOL0     H14271   0.133  -0.408   1.007 -0.2603 -0.0792 -0.9135
  866MOL0     H14272   0.111  -0.484   0.712  0.4866  2.0711  0.0083
  866MOL0     H14273   0.010  -0.378   0.788  0.6192  1.0792  0.6305
  866MOL0     H14274  -0.140  -0.351   0.943  0.9650 -0.7698  1.9791
  866MOL0     H14275  -0.401  -0.347   0.971 -1.0006 -0.7366  0.2559
  866MOL0     H14276  -0.736  -0.404   1.163 -1.8466  1.4697  0.4805
  866MOL0     H14277  -0.975  -0.430   1.217 -0.2533 -4.0277  0.7243
  866MOL0     H14278  -1.165  -0.291   1.189  0.3642  0.4530 -1.4796
  866MOL0     H14279  -1.202  -0.458   1.234 -0.4907  0.2447 -0.1750
  866MOL0     H14280  -1.416  -0.344   1.251 -0.3301  1.9749 -0.5848
  866MOL0     H14281  -1.414  -0.459   1.118 -3.0708  0.7968  0.4642
  866MOL0     H14282  -1.410  -0.308   0.939 -1.5887  0.5600 -0.0139
  866MOL0     H14283  -1.375  -0.171   1.032  0.2389 -1.0158  0.7258
  866MOL0     H14284  -1.627  -0.339   1.082  0.3010  1.6463  3.9182
  866MOL0     H14285  -1.611  -0.176   1.137  1.7552 -0.9865  1.5231
  866MOL0     H14286  -1.624  -0.245   0.849 -1.0430 -0.4238  0.3969
  866MOL0     H14287  -1.620  -0.082   0.916  1.7238  0.0483  0.8422
  866MOL0     H14288  -1.847  -0.125   0.866 -1.4642 -1.9912 -0.3389
  866MOL0     H14289  -1.834  -0.140   1.041 -0.8632 -2.8826  0.2057
  866MOL0     H14290  -1.853  -0.376   1.036 -0.4817 -2.6470 -0.8760
  866MOL0     H14291  -1.979  -0.285   0.960 -0.1524 -3.1854  1.6849
  866MOL0     H14292  -1.899  -0.504   0.835 -0.7889  1.3649  1.7197
  866MOL0     H14293  -1.739  -0.427   0.814  0.4093  3.1308 -1.6089
  866MOL0     H14294  -1.064  -0.488   0.789 -2.2057  0.9595  1.0512
  866MOL0     H14295  -0.825  -0.501   0.755  1.3155  0.6108 -0.1630
  866MOL0     H14296  -0.402  -0.748   0.808  2.1162 -1.6665 -0.0431
  866MOL0     H14297  -0.183  -0.763   0.821  0.1644 -0.1513 -1.5205
  866MOL0     H14298   1.597   0.361   0.677  0.9429 -0.5842 -2.0854
  866MOL0     H14299   1.782   0.507   0.624  0.4195  0.6721  0.6118
  866MOL0     H14300   2.270   0.529   0.741  0.1347 -0.0509 -0.3971
  866MOL0     H14301   2.464   0.650   0.710  0.2288  1.5449 -2.2718
  866MOL0     H14302   2.519   1.049   0.930  2.4068 -0.0290  0.5391
  866MOL0     H14303   2.478   1.066   0.756 -1.3158  1.5342  2.2712
  866MOL0     H14304   2.728   1.031   0.710 -1.1142  0.5940 -0.9250
  866MOL0     H14305   2.706   1.176   0.796 -1.7791 -0.3831  0.5935
  866MOL0     H14306   2.741   0.936   0.976  4.5362 -1.3027 -0.0701
  866MOL0     H14307   2.784   1.093   1.013  0.6401  1.6161 -0.9270
  866MOL0     H14308   2.979   1.054   0.825  3.8690 -1.5050  1.5185
  866MOL0     H14309   2.982   0.972   0.975  0.9657 -0.0999 -0.3273
  866MOL0     H14310   2.890   0.626   0.756  2.1172 -0.1973  1.1773
  866MOL0     H14311   2.303   0.980   0.948 -0.9265  1.1218 -2.0378
  866MOL0     H14312   2.087   0.853   0.947  0.7585 -2.6696  0.9136
  867MOL0     O14313   4.510   5.614  11.223 -0.6603 -0.4776  0.3731
  867MOL0     C14314   4.493   5.558  11.120  0.3026  0.2337  0.6072
  867MOL0     O14315   4.590   5.489  11.050 -0.7631  0.0867  0.6184
  867MOL0     C14316   4.721   5.487  11.092 -0.1266 -0.9144 -0.5912
  867MOL0     C14317   4.792   5.367  11.089 -0.7622  0.0728 -0.2317
  867MOL0     C14318   4.928   5.352  11.125 -0.7064 -0.4688  1.1705
  867MOL0     C14319   5.005   5.467  11.151 -0.5945 -0.4744  0.4428
  867MOL0     O14320   5.146   5.466  11.175 -0.1513  0.1978 -0.1751
  867MOL0     C14321   5.221   5.345  11.158  0.4853  0.6770  0.2678
  867MOL0     C14322   5.361   5.355  11.210  0.1656 -0.6814 -0.1206
  867MOL0     C14323   5.370   5.374  11.370 -0.0385  0.3325  0.6130
  867MOL0     C14324   5.504   5.385  11.425 -0.3486 -0.0029  0.0739
  867MOL0     C14325   5.601   5.264  11.395  1.2157  0.3550  0.7036
  867MOL0     C14326   5.529   5.131  11.419 -0.1946  0.1005 -0.2751
  867MOL0     C14327   5.625   5.016  11.403 -0.4963  0.4891  0.4051
  867MOL0     C14328   5.672   4.983  11.259 -0.8940  0.3113 -0.7025
  867MOL0     N14329   5.794   4.896  11.267 -0.3779  0.0210  0.3200
  867MOL0     C14330   5.914   4.948  11.296 -0.7947  0.0684  0.1867
  867MOL0     C14331   6.003   4.848  11.275  0.6033  0.1801  0.3776
  867MOL0     C14332   6.150   4.837  11.288 -0.3663  0.5474 -0.9917
  867MOL0     C14333   6.233   4.956  11.238 -0.2055 -0.3370  0.4450
  867MOL0     C14334   6.197   5.003  11.095 -0.7230  0.1861  0.2914
  867MOL0     C14335   6.199   4.876  10.993 -0.3094  0.3529 -0.0065
  867MOL0     O14336   6.217   4.925  10.863  0.4702 -0.2585 -0.0266
  867MOL0     C14337   6.108   4.977  10.799 -0.6543 -0.5841  0.7555
  867MOL0     C14338   6.156   5.042  10.677  0.1540  0.3829  1.0928
  867MOL0     C14339   6.056   5.098  10.589  0.0962 -0.1520  0.0052
  867MOL0     C14340   5.917   5.095  10.641 -0.0071 -0.8138  0.1011
  867MOL0     C14341   5.813   5.162  10.559  0.4148 -0.2199 -0.0347
  867MOL0     O14342   5.690   5.158  10.617  0.8321 -0.4695  0.5075
  867MOL0     C14343   5.578   5.210  10.548 -0.4277 -0.6583  0.3570
  867MOL0     C14344   5.532   5.340  10.577  0.4086  0.7230 -0.2092
  867MOL0     C14345   5.421   5.388  10.507  0.5949  0.3772 -0.2073
  867MOL0     C14346   5.358   5.313  10.407  0.3922 -0.3751  0.4907
  867MOL0     O14347   5.252   5.370  10.342  0.3721 -0.7311 -0.1877
  867MOL0     C14348   5.150   5.288  10.298  0.6009  0.5973 -0.0498
  867MOL0     C14349   5.034   5.379  10.245  0.7086 -0.1860 -0.6510
  867MOL0     C14350   4.923   5.277  10.195  0.3043  0.0849  0.2578
  867MOL0     C14351   4.808   5.376  10.158 -0.4958 -0.2757 -0.2097
  867MOL0     C14352   4.679   5.321  10.109 -0.1012 -0.3761 -0.3664
  867MOL0     C14353   4.580   5.431  10.063 -0.4331  1.1469  0.4605
  867MOL0     C14354   4.438   5.372  10.028 -0.4953 -0.7394  0.1481
  867MOL0     C14355   4.360   5.476   9.949 -0.2789 -0.8041  0.4668
  867MOL0    Cl14356   4.200   5.407   9.912  0.7006  0.3056 -0.4698
  867MOL0     C14357   5.412   5.189  10.373 -0.3282  0.1139 -0.1435
  867MOL0     C14358   5.518   5.138  10.449  0.6925  0.1503  0.0246
  867MOL0     O14359   5.843   5.204  10.451 -0.3383 -0.3593  0.4453
  867MOL0     C14360   5.879   5.040  10.762 -0.4861 -0.8799  0.2594
  867MOL0     C14361   5.976   4.980  10.842  1.2199 -0.4518  0.2645
  867MOL0     N14362   5.927   4.737  11.229 -0.4526 -0.2344 -0.1084
  867MOL0     N14363   5.807   4.768  11.229  0.1040  0.2207 -1.1967
  867MOL0     C14364   4.938   5.594  11.132  0.2538 -0.3965 -0.2134
  867MOL0     C14365   4.796   5.604  11.112  0.5529 -0.0303 -0.3156
  867MOL0     C14366   4.365   5.550  11.058 -0.6065  0.3225 -1.3959
  867MOL0     C14367   4.360   5.551  10.920  0.5252 -0.1840  0.4316
  867MOL0     C14368   4.241   5.573  10.849 -0.3271  0.4548  0.3931
  867MOL0     C14369   4.130   5.600  10.911  0.1837  1.1493  0.6670
  867MOL0     O14370   4.014   5.626  10.829  0.3598 -0.9750 -0.2945
  867MOL0     C14371   3.881   5.631  10.894 -0.6422 -0.1732  0.1765
  867MOL0     C14372   3.774   5.634  10.788 -0.5035  0.0375  0.2705
  867MOL0     C14373   3.643   5.593  10.852  1.1490  0.5466 -0.2281
  867MOL0     C14374   3.514   5.644  10.788 -0.3554  0.7125 -0.1396
  867MOL0     C14375   3.400   5.596  10.865 -0.8137 -0.0714  0.3249
  867MOL0     C14376   3.307   5.552  10.918  0.3441  0.5753  0.2392
  867MOL0     C14377   4.128   5.597  11.050  0.8739 -0.0313 -1.1776
  867MOL0     C14378   4.245   5.579  11.127  0.5386 -1.3693 -0.2062
  867MOL0     H14379   4.749   5.273  11.056  0.6757  0.2679 -3.0184
  867MOL0     H14380   4.977   5.255  11.131  0.7488  0.1530  0.1644
  867MOL0     H14381   5.234   5.321  11.052  1.3327 -0.7087  0.6545
  867MOL0     H14382   5.167   5.265  11.210 -1.4601  0.5374 -1.8279
  867MOL0     H14383   5.417   5.438  11.165  1.8891 -1.7973 -0.1354
  867MOL0     H14384   5.429   5.273  11.186  3.0587  1.3792  0.4832
  867MOL0     H14385   5.315   5.296  11.422 -0.3432 -0.1724 -0.4499
  867MOL0     H14386   5.313   5.466  11.389 -0.3567 -0.4117  3.9303
  867MOL0     H14387   5.563   5.467  11.385  0.6064  0.1651  1.7137
  867MOL0     H14388   5.493   5.385  11.534 -1.6215  2.1431 -0.0030
  867MOL0     H14389   5.684   5.263  11.466 -1.7828  0.4671  4.5539
  867MOL0     H14390   5.641   5.275  11.294  1.7654 -0.9624  0.7553
  867MOL0     H14391   5.443   5.118  11.353 -0.0360 -1.3802 -0.2322
  867MOL0     H14392   5.478   5.130  11.516 -0.1894 -0.5133 -0.2719
  867MOL0     H14393   5.712   5.020  11.470 -0.9095  3.6964  0.9177
  867MOL0     H14394   5.567   4.929  11.435 -0.7759  0.0928 -1.1140
  867MOL0     H14395   5.691   5.071  11.197 -2.2053  0.3192 -1.1271
  867MOL0     H14396   5.594   4.925  11.209  0.9611  0.3130 -3.8702
  867MOL0     H14397   5.945   5.045  11.332 -0.6285  2.3160 -5.0940
  867MOL0     H14398   6.190   4.746  11.243 -1.4299  0.8183 -2.5726
  867MOL0     H14399   6.167   4.827  11.396 -2.4017 -2.3064 -0.8384
  867MOL0     H14400   6.337   4.925  11.247  0.7370  2.1275 -1.1743
  867MOL0     H14401   6.215   5.043  11.302 -0.6831 -0.0401 -0.0805
  867MOL0     H14402   6.100   5.054  11.095  0.2109  2.0452 -0.7786
  867MOL0     H14403   6.273   5.073  11.062 -2.2277  0.8984 -1.8809
  867MOL0     H14404   6.114   4.808  10.994  1.3871 -1.9233 -1.3685
  867MOL0     H14405   6.279   4.806  11.018  1.4430  1.9425 -0.8967
  867MOL0     H14406   6.257   5.033  10.637 -0.7163  1.4152 -1.4809
  867MOL0     H14407   6.098   5.149  10.503  1.6531 -0.0826  0.7555
  867MOL0     H14408   5.592   5.400  10.646 -0.4556  1.1778  0.1689
  867MOL0     H14409   5.387   5.480  10.552  0.9835  0.1295  0.6030
  867MOL0     H14410   5.112   5.250  10.394 -1.9367  1.1397 -0.7766
  867MOL0     H14411   5.180   5.218  10.220 -0.4769  1.4140 -1.2215
  867MOL0     H14412   5.059   5.450  10.166 -2.6226 -1.5457 -3.1898
  867MOL0     H14413   5.007   5.445  10.329  2.2035  2.1031 -1.8604
  867MOL0     H14414   4.888   5.213  10.277 -2.2754  3.0377  1.6654
  867MOL0     H14415   4.951   5.217  10.108 -2.9944 -0.2015 -0.7451
  867MOL0     H14416   4.782   5.435  10.246 -0.6777 -0.8098  0.0958
  867MOL0     H14417   4.837   5.444  10.076  1.6794 -0.0088  0.7142
  867MOL0     H14418   4.634   5.273  10.196  1.9280 -0.3691  0.7563
  867MOL0     H14419   4.693   5.257  10.021  0.7501  0.3498 -0.7847
  867MOL0     H14420   4.622   5.489   9.981 -0.6497 -1.1181 -1.3542
  867MOL0     H14421   4.565   5.486  10.156  0.7281  0.6949  0.9412
  867MOL0     H14422   4.463   5.284   9.967  4.8399  0.5721 -0.0385
  867MOL0     H14423   4.393   5.340  10.122 -2.6279  1.9697  0.1691
  867MOL0     H14424   4.400   5.511   9.853 -1.9233 -1.9734 -0.6999
  867MOL0     H14425   4.341   5.565  10.010  1.1819 -0.5875  0.6410
  867MOL0     H14426   5.365   5.137  10.290 -2.2645 -0.1972  1.0737
  867MOL0     H14427   5.549   5.036  10.432 -1.8112 -1.3481  3.3624
  867MOL0     H14428   5.775   5.044  10.794 -1.4194  2.2643 -2.5193
  867MOL0     H14429   5.940   4.926  10.929  2.1162 -0.9095  0.3688
  867MOL0     H14430   4.991   5.688  11.140 -0.0956 -0.3167  1.7915
  867MOL0     H14431   4.744   5.698  11.099 -2.8187 -1.7336 -0.2691
  867MOL0     H14432   4.443   5.530  10.853 -0.3960 -0.8524 -0.5203
  867MOL0     H14433   4.244   5.563  10.741 -1.5582 -0.4125  0.4194
  867MOL0     H14434   3.878   5.719  10.959  0.2520 -1.1793  1.6228
  867MOL0     H14435   3.864   5.544  10.958  1.4977  0.5636  1.8771
  867MOL0     H14436   3.778   5.731  10.738 -0.3341  0.0990  0.4039
  867MOL0     H14437   3.799   5.566  10.706  1.2268 -1.1080  1.6571
  867MOL0     H14438   3.645   5.629  10.955 -3.0233 -0.3647  0.3402
  867MOL0     H14439   3.651   5.484  10.845  0.6101  0.5272 -0.5578
  867MOL0     H14440   3.533   5.752  10.791  1.6282  0.3870  0.9992
  867MOL0     H14441   3.504   5.591  10.692  0.4928 -2.7726  1.5380
  867MOL0     H14442   3.216   5.511  10.957  0.3713  1.7089  1.5645
  867MOL0     H14443   4.043   5.629  11.109  1.8027  2.1895 -0.9451
  867MOL0     H14444   4.238   5.597  11.233 -1.6594  0.9066 -0.6381
  868MOL0     O14445   7.654   4.947   3.736  0.0156  0.2996 -0.0529
  868MOL0     C14446   7.707   4.897   3.835  0.1663 -0.4213 -0.7964
  868MOL0     O14447   7.641   4.858   3.953 -1.0187  0.5196  0.1022
  868MOL0     C14448   7.505   4.849   3.946 -1.3222 -0.2742  0.1049
  868MOL0     C14449   7.426   4.952   3.985  0.1037 -0.4161  0.1172
  868MOL0     C14450   7.282   4.943   3.990  0.2128  0.1699  0.4425
  868MOL0     C14451   7.224   4.819   3.976  0.4562 -0.8677 -0.4960
  868MOL0     O14452   7.088   4.802   3.995  0.1412 -0.3256  0.4651
  868MOL0     C14453   7.011   4.900   4.071  1.2839  0.4694 -0.7075
  868MOL0     C14454   6.872   4.845   4.100 -0.6479  0.1701  0.2366
  868MOL0     C14455   6.865   4.759   4.228 -0.3618 -0.0055 -0.2787
  868MOL0     C14456   6.736   4.673   4.240 -0.6133  0.1512 -0.0111
  868MOL0     C14457   6.735   4.592   4.370 -0.3562 -0.2009 -0.8492
  868MOL0     C14458   6.666   4.674   4.488  0.3703  0.3112 -0.4696
  868MOL0     C14459   6.517   4.667   4.482 -0.0434 -0.3775  0.1082
  868MOL0     C14460   6.466   4.731   4.606 -0.0290 -0.2569 -0.6679
  868MOL0     N14461   6.321   4.711   4.627 -0.2950  1.1312  0.1305
  868MOL0     C14462   6.235   4.805   4.681  1.0077  1.0739  0.2135
  868MOL0     C14463   6.114   4.742   4.662  1.0693 -0.0277 -1.0862
  868MOL0     C14464   5.986   4.803   4.699  0.4130 -0.1475 -0.5047
  868MOL0     C14465   5.963   4.939   4.631  0.7177 -0.4477 -0.0719
  868MOL0     C14466   5.972   4.936   4.476 -0.5887 -0.6886  0.8936
  868MOL0     C14467   5.864   4.841   4.414  0.6324 -0.4055  0.4232
  868MOL0     O14468   5.725   4.877   4.437 -0.1768 -0.6601 -0.3963
  868MOL0     C14469   5.634   4.786   4.387  1.2282 -0.4861  0.4115
  868MOL0     C14470   5.620   4.769   4.252 -0.2336  0.0395  0.6581
  868MOL0     C14471   5.522   4.677   4.204 -1.0684  0.5359  0.5786
  868MOL0     C14472   5.421   4.626   4.289 -0.1384 -0.3377  0.1992
  868MOL0     C14473   5.316   4.538   4.235 -0.0268 -0.4319  0.1433
  868MOL0     O14474   5.333   4.488   4.112 -0.6418  0.0576 -0.4464
  868MOL0     C14475   5.227   4.417   4.066 -0.2050 -0.8535 -0.1958
  868MOL0     C14476   5.232   4.278   4.060  0.4553  0.6295 -0.2000
  868MOL0     C14477   5.126   4.201   4.012  0.0602  0.0532 -0.8491
  868MOL0     C14478   5.014   4.275   3.964  0.6111  0.1545  0.2429
  868MOL0     O14479   4.892   4.214   3.955  0.6069 -0.7477 -0.6007
  868MOL0     C14480   4.872   4.083   3.979  0.0494 -0.2176 -0.8238
  868MOL0     C14481   4.720   4.066   3.975 -1.1172 -0.8494  0.0073
  868MOL0     C14482   4.694   3.928   4.030 -0.1016  0.3003  0.8929
  868MOL0     C14483   4.549   3.895   4.010 -0.1506 -0.7079 -0.2582
  868MOL0     C14484   4.519   3.759   4.072 -0.1138  0.2706 -0.0516
  868MOL0     C14485   4.386   3.689   4.027 -0.2739  0.6941 -0.0979
  868MOL0     C14486   4.362   3.660   3.879  0.8427 -0.9588 -0.0795
  868MOL0     C14487   4.222   3.610   3.847  0.6367  0.6888  0.8923
  868MOL0    Cl14488   4.177   3.458   3.916  0.4265  0.1124  0.1168
  868MOL0     C14489   5.011   4.418   3.966  0.5978  0.1533  0.6521
  868MOL0     C14490   5.115   4.487   4.028  0.6070  0.5213  0.7140
  868MOL0     O14491   5.220   4.512   4.301  0.5211  0.1215 -0.7789
  868MOL0     C14492   5.451   4.626   4.428 -0.5948 -0.5043 -0.2961
  868MOL0     C14493   5.558   4.704   4.475 -1.0100 -0.0525  0.2369
  868MOL0     N14494   6.132   4.627   4.601 -0.4161  0.4183  0.1175
  868MOL0     N14495   6.257   4.612   4.567 -0.0610 -0.7774 -0.2517
  868MOL0     C14496   7.299   4.707   3.953 -0.1819  0.9007  0.4024
  868MOL0     C14497   7.441   4.726   3.944 -0.1007 -0.4458  0.0004
  868MOL0     C14498   7.858   4.897   3.851  1.0623 -0.0013  0.1273
  868MOL0     C14499   7.924   4.864   3.968 -0.8040 -0.2933  0.1135
  868MOL0     C14500   8.066   4.859   3.967  0.2586 -0.2778 -0.4600
  868MOL0     C14501   8.137   4.903   3.858  0.3020 -0.3659  1.4125
  868MOL0     O14502   8.271   4.890   3.854 -0.0005 -0.5004 -0.2479
  868MOL0     C14503   8.342   4.954   3.970 -0.1524 -0.5648  0.0320
  868MOL0     C14504   8.461   5.022   3.902 -0.5410 -0.3395 -0.1164
  868MOL0     C14505   8.423   5.149   3.822  0.0491  0.4745  0.6131
  868MOL0     C14506   8.544   5.231   3.811  0.7265 -0.5275 -0.4757
  868MOL0     C14507   8.498   5.369   3.779  0.1774 -0.2083  0.3827
  868MOL0     C14508   8.475   5.482   3.750 -0.4909 -0.1339 -0.9563
  868MOL0     C14509   8.071   4.945   3.746 -0.5185 -0.0090 -0.7327
  868MOL0     C14510   7.937   4.932   3.736 -0.3929 -0.4372  0.0242
  868MOL0     H14511   7.458   5.055   3.996 -4.6081  1.1554  1.4695
  868MOL0     H14512   7.219   5.029   4.006  0.4342  0.3694  0.2345
  868MOL0     H14513   6.988   4.989   4.010 -2.1219  1.0558  1.1684
  868MOL0     H14514   7.069   4.938   4.155 -3.3503  1.0567  2.6021
  868MOL0     H14515   6.832   4.790   4.014 -2.1684 -1.5837  1.9644
  868MOL0     H14516   6.801   4.926   4.122 -1.8247 -0.4980 -0.9328
  868MOL0     H14517   6.858   4.822   4.317  0.5498 -2.5160  1.6732
  868MOL0     H14518   6.955   4.697   4.231  1.7043  2.7453 -0.7743
  868MOL0     H14519   6.651   4.740   4.223 -1.7782 -1.8019 -2.6092
  868MOL0     H14520   6.726   4.595   4.163 -0.0585  1.3330 -1.3109
  868MOL0     H14521   6.835   4.581   4.412 -0.7824  2.2526  1.0347
  868MOL0     H14522   6.683   4.497   4.353 -0.2383 -0.9028  2.1002
  868MOL0     H14523   6.694   4.779   4.480  0.6495  0.1586 -1.9500
  868MOL0     H14524   6.695   4.633   4.585 -2.0398 -1.4221 -0.3828
  868MOL0     H14525   6.482   4.723   4.395  0.2485  1.5141  1.1477
  868MOL0     H14526   6.487   4.562   4.472  1.4294 -0.7078 -1.2599
  868MOL0     H14527   6.487   4.838   4.593 -1.9935  0.3188  0.4026
  868MOL0     H14528   6.507   4.690   4.698 -2.2685  0.2833  0.6566
  868MOL0     H14529   6.256   4.897   4.736  2.2709  0.6942  0.3928
  868MOL0     H14530   6.001   4.819   4.807 -1.3123  0.1481 -0.2718
  868MOL0     H14531   5.896   4.741   4.688 -0.2707  1.1138 -2.4976
  868MOL0     H14532   6.035   5.015   4.664  2.2750 -1.3597 -1.2155
  868MOL0     H14533   5.872   4.974   4.680  2.3941 -0.2482  3.1961
  868MOL0     H14534   5.952   5.039   4.445  1.7683 -0.8994 -1.7868
  868MOL0     H14535   6.071   4.903   4.444 -0.4253  0.6961 -0.1317
  868MOL0     H14536   5.878   4.742   4.457 -0.9130  0.0599  2.1239
  868MOL0     H14537   5.879   4.833   4.306  1.1479  0.8242  0.3912
  868MOL0     H14538   5.680   4.822   4.179 -0.3127 -0.4821  0.2101
  868MOL0     H14539   5.512   4.658   4.097  0.7434  0.6600  0.3639
  868MOL0     H14540   5.315   4.238   4.118 -1.7801 -1.1618  1.9812
  868MOL0     H14541   5.140   4.094   4.022  1.0608  0.3171  1.1735
  868MOL0     H14542   4.912   4.058   4.077 -2.8403 -0.4747  0.4059
  868MOL0     H14543   4.915   4.015   3.905  0.8079 -0.2135 -0.3887
  868MOL0     H14544   4.690   4.075   3.871  1.4705 -0.0094 -0.7442
  868MOL0     H14545   4.670   4.141   4.038 -0.7169  0.8454 -1.6225
  868MOL0     H14546   4.719   3.935   4.136  1.4682 -2.4513  0.7992
  868MOL0     H14547   4.767   3.854   3.995  1.8884  1.9102  1.4072
  868MOL0     H14548   4.483   3.976   4.043 -0.1186 -0.8593  0.1967
  868MOL0     H14549   4.553   3.890   3.901  3.3854 -2.3427 -0.2114
  868MOL0     H14550   4.505   3.773   4.180 -3.2316  2.9748 -0.6533
  868MOL0     H14551   4.602   3.688   4.073  0.8645  1.2180  3.8541
  868MOL0     H14552   4.305   3.755   4.057  0.4193  1.7346 -0.4480
  868MOL0     H14553   4.371   3.594   4.078  3.7568 -1.2760 -2.0836
  868MOL0     H14554   4.376   3.754   3.825 -0.3853 -1.8255 -2.0192
  868MOL0     H14555   4.430   3.584   3.840 -1.6457 -0.9345 -5.2600
  868MOL0     H14556   4.221   3.593   3.739 -0.5140 -1.2347  1.1615
  868MOL0     H14557   4.145   3.680   3.880  0.8329  1.1248  0.4386
  868MOL0     H14558   4.926   4.472   3.927 -3.3277 -3.7577  2.8896
  868MOL0     H14559   5.098   4.591   4.050  1.5974  0.9679 -0.5250
  868MOL0     H14560   5.387   4.575   4.500  0.0883 -0.0206  0.6854
  868MOL0     H14561   5.568   4.719   4.582 -1.4480 -0.4780  0.3407
  868MOL0     H14562   7.255   4.608   3.949 -0.5892  1.1044 -2.8637
  868MOL0     H14563   7.513   4.645   3.955 -1.0757 -1.2418  0.6459
  868MOL0     H14564   7.900   4.823   4.066  1.6675 -1.7122  0.2196
  868MOL0     H14565   8.113   4.822   4.057 -0.4053 -2.3817 -0.9187
  868MOL0     H14566   8.360   4.875   4.043  1.7218  1.3898  1.8469
  868MOL0     H14567   8.283   5.032   4.020  0.8958 -0.2332  0.7942
  868MOL0     H14568   8.545   5.038   3.970 -0.2182  3.2599 -1.1705
  868MOL0     H14569   8.501   4.946   3.834  0.8104  1.9872 -2.0955
  868MOL0     H14570   8.348   5.200   3.883 -1.9613 -1.4884 -0.0782
  868MOL0     H14571   8.395   5.116   3.722  3.2282 -1.8512  0.3449
  868MOL0     H14572   8.585   5.237   3.912  2.3861 -1.1659 -1.0805
  868MOL0     H14573   8.617   5.203   3.734  1.3054  1.4192 -0.6759
  868MOL0     H14574   8.448   5.585   3.740  0.9242  0.3927  0.3089
  868MOL0     H14575   8.130   4.981   3.662  0.5594 -0.6718 -0.2870
  868MOL0     H14576   7.883   4.949   3.643  0.0985  0.1211 -0.1608
  869MOL0     O14577   0.362   1.153   9.162 -0.3300 -0.1681 -0.4314
  869MOL0     C14578   0.425   1.242   9.229  0.6169 -0.1145  0.5031
  869MOL0     O14579   0.391   1.296   9.349 -0.2122  0.4001 -0.0536
  869MOL0     C14580   0.284   1.235   9.411  0.3808 -0.6728  0.3541
  869MOL0     C14581   0.278   1.100   9.445 -0.0257 -1.0485 -0.5846
  869MOL0     C14582   0.158   1.051   9.498  0.4771 -0.7891 -0.8969
  869MOL0     C14583   0.049   1.139   9.519  0.1557 -0.4694  0.6540
  869MOL0     O14584  -0.069   1.091   9.573 -0.3639 -0.3481 -0.3210
  869MOL0     C14585  -0.165   1.030   9.484  0.0132 -0.5478 -0.4722
  869MOL0     C14586  -0.252   1.146   9.438  0.6801 -0.7895  1.0419
  869MOL0     C14587  -0.397   1.108   9.381 -0.3378  0.5204 -0.8237
  869MOL0     C14588  -0.493   1.027   9.468  0.2910  0.3150 -0.7576
  869MOL0     C14589  -0.646   1.017   9.409 -0.2225 -0.5252 -0.8667
  869MOL0     C14590  -0.732   1.137   9.452  0.3643 -1.0466 -0.4606
  869MOL0     C14591  -0.761   1.147   9.601  0.1873  0.7204  0.3699
  869MOL0     C14592  -0.908   1.087   9.629 -0.3943  0.2477 -0.4265
  869MOL0     N14593  -1.023   1.164   9.592  0.3773  0.1245 -0.0132
  869MOL0     C14594  -1.110   1.126   9.488 -0.1604  0.6808  0.6676
  869MOL0     C14595  -1.218   1.199   9.516 -0.6785  0.0938  0.2947
  869MOL0     C14596  -1.342   1.200   9.433  0.4487 -0.6036  0.7367
  869MOL0     C14597  -1.461   1.144   9.505  0.1452  0.0310 -0.2725
  869MOL0     C14598  -1.514   1.230   9.619 -0.1154 -0.0038  0.5168
  869MOL0     C14599  -1.559   1.376   9.573  0.2230  0.6880  0.8854
  869MOL0     O14600  -1.669   1.366   9.482  0.8494  0.1516  0.1084
  869MOL0     C14601  -1.798   1.338   9.521  0.4885  0.8583 -1.0372
  869MOL0     C14602  -1.854   1.327   9.650  0.8003  0.3926 -0.1943
  869MOL0     C14603  -1.983   1.321   9.676 -0.8784  0.4028 -0.3555
  869MOL0     C14604  -2.068   1.314   9.564  0.1772  1.0794  0.0563
  869MOL0     C14605  -2.210   1.304   9.585 -0.4987  1.0609 -0.0961
  869MOL0     O14606  -2.258   1.263   9.711 -0.5187  0.0590  0.0167
  869MOL0     C14607  -2.394   1.247   9.726  0.6476  0.2541  0.6611
  869MOL0     C14608  -2.475   1.172   9.637 -0.5249 -0.1269 -0.2489
  869MOL0     C14609  -2.613   1.145   9.675 -0.8383 -0.4568  0.5138
  869MOL0     C14610  -2.663   1.194   9.794  0.6870  0.0516 -0.0317
  869MOL0     O14611  -2.796   1.164   9.806 -0.3526  0.3763  0.2032
  869MOL0     C14612  -2.866   1.238   9.903  0.4538 -0.4135  0.3505
  869MOL0     C14613  -3.011   1.234   9.876 -0.4087  0.6945  0.3891
  869MOL0     C14614  -3.057   1.275   9.732 -0.6085 -0.2477 -0.8161
  869MOL0     C14615  -3.035   1.425   9.709  0.4890 -0.0262 -0.6449
  869MOL0     C14616  -2.889   1.468   9.654 -0.3351  0.1040  0.7311
  869MOL0     C14617  -2.884   1.402   9.512  0.1705 -0.5814 -0.5587
  869MOL0     C14618  -2.765   1.454   9.439  0.0168 -0.6525  0.8515
  869MOL0     C14619  -2.760   1.606   9.441  0.1745  1.3202 -0.2213
  869MOL0    Cl14620  -2.663   1.649   9.303  0.2733 -0.5242  0.3218
  869MOL0     C14621  -2.592   1.281   9.874  0.0806 -0.7604 -0.1586
  869MOL0     C14622  -2.457   1.310   9.839  0.8942 -0.4897 -0.5481
  869MOL0     O14623  -2.279   1.336   9.487  0.0771  0.5870  0.0182
  869MOL0     C14624  -2.015   1.313   9.425 -0.9519  0.5708  0.2381
  869MOL0     C14625  -1.877   1.323   9.411  0.8719  1.2532 -0.1925
  869MOL0     N14626  -1.188   1.290   9.614 -1.9185 -0.2978 -0.6459
  869MOL0     N14627  -1.074   1.259   9.668  0.5592 -0.9694 -0.3982
  869MOL0     C14628   0.058   1.269   9.489 -0.0755  0.2201  0.9013
  869MOL0     C14629   0.176   1.316   9.436 -0.5038 -0.0167 -0.1621
  869MOL0     C14630   0.548   1.296   9.164  0.6454 -0.5158 -0.6508
  869MOL0     C14631   0.588   1.243   9.045 -0.6682  0.3472 -0.3442
  869MOL0     C14632   0.701   1.290   8.973 -0.0023  0.6551 -0.5575
  869MOL0     C14633   0.776   1.389   9.022  0.3855 -0.3474  0.2976
  869MOL0     O14634   0.877   1.434   8.935  0.6339  0.1006 -0.0604
  869MOL0     C14635   0.932   1.561   8.959 -0.7697 -0.8265 -0.3209
  869MOL0     C14636   1.045   1.547   9.069 -0.0116  0.0156 -0.7806
  869MOL0     C14637   1.075   1.679   9.146 -0.4813 -0.1352 -0.3912
  869MOL0     C14638   1.195   1.644   9.242  0.0904  0.2120  0.4495
  869MOL0     C14639   1.326   1.650   9.173  0.0499  0.5778 -0.6040
  869MOL0     C14640   1.436   1.644   9.120  1.3059  0.2620  0.4049
  869MOL0     C14641   0.737   1.441   9.152  0.5995 -0.4960 -0.2846
  869MOL0     C14642   0.627   1.399   9.218  0.0600  0.3078 -0.1549
  869MOL0     H14643   0.356   1.027   9.422 -1.1703 -2.3002 -0.6129
  869MOL0     H14644   0.136   0.946   9.509 -2.1002 -0.5640 -2.9604
  869MOL0     H14645  -0.227   0.959   9.538  0.8249  0.4868  1.9899
  869MOL0     H14646  -0.129   0.971   9.399  1.3504  0.7120 -0.8354
  869MOL0     H14647  -0.200   1.200   9.358 -2.3836  0.7807 -0.0740
  869MOL0     H14648  -0.262   1.226   9.513  0.7362  0.9188 -0.6879
  869MOL0     H14649  -0.378   1.052   9.289 -4.0161 -0.6604 -1.0462
  869MOL0     H14650  -0.456   1.198   9.362 -3.2374 -1.3775 -1.6042
  869MOL0     H14651  -0.452   0.926   9.478  3.1941  1.5924  1.8190
  869MOL0     H14652  -0.494   1.058   9.573 -2.4229 -2.8528  0.3487
  869MOL0     H14653  -0.695   0.929   9.451 -1.3367  1.0668  1.3853
  869MOL0     H14654  -0.630   1.024   9.301 -0.0222 -0.0057 -0.8079
  869MOL0     H14655  -0.825   1.129   9.395 -0.4769 -0.5802  0.8000
  869MOL0     H14656  -0.685   1.229   9.416  4.7871 -1.1738  3.8794
  869MOL0     H14657  -0.682   1.092   9.654  1.0249 -1.1867 -2.6151
  869MOL0     H14658  -0.750   1.254   9.621 -1.0047  0.5763  2.0819
  869MOL0     H14659  -0.901   1.093   9.738 -0.4932 -0.1663 -0.3975
  869MOL0     H14660  -0.906   0.982   9.599  2.7299  0.8261 -2.7608
  869MOL0     H14661  -1.102   1.042   9.420 -1.2112  0.4208  0.8441
  869MOL0     H14662  -1.316   1.147   9.341 -0.1696  2.2353 -1.2175
  869MOL0     H14663  -1.354   1.298   9.386  0.1193 -0.8571  0.2898
  869MOL0     H14664  -1.455   1.039   9.535 -2.8462 -0.4992 -1.2975
  869MOL0     H14665  -1.549   1.132   9.442 -1.8196 -1.1348  2.5046
  869MOL0     H14666  -1.582   1.167   9.676 -0.4480 -0.1250 -0.0091
  869MOL0     H14667  -1.426   1.245   9.683  0.4990  2.3275 -0.7282
  869MOL0     H14668  -1.480   1.428   9.517  0.2225  0.6826  0.8794
  869MOL0     H14669  -1.586   1.436   9.659 -2.8292  3.0296 -1.5063
  869MOL0     H14670  -1.778   1.338   9.726  0.1219  5.3255  0.1169
  869MOL0     H14671  -2.028   1.309   9.774  0.5071  1.1133  0.3925
  869MOL0     H14672  -2.443   1.120   9.548  2.5895  1.4217 -0.1734
  869MOL0     H14673  -2.687   1.114   9.601 -1.1719  2.0282 -0.2863
  869MOL0     H14674  -2.833   1.342   9.895  1.4348 -0.6980  0.5781
  869MOL0     H14675  -2.847   1.208  10.007 -1.6117  3.5741  2.0880
  869MOL0     H14676  -3.070   1.287   9.950 -1.4685 -0.7039  0.6054
  869MOL0     H14677  -3.032   1.127   9.889  1.5317  0.0174 -1.3637
  869MOL0     H14678  -3.163   1.259   9.713 -0.5341 -1.3941 -0.3732
  869MOL0     H14679  -3.005   1.220   9.653  0.6053 -0.4782  0.1082
  869MOL0     H14680  -3.096   1.447   9.621  2.5892  2.5167 -1.5754
  869MOL0     H14681  -3.075   1.480   9.795 -1.0213  1.4422 -2.2036
  869MOL0     H14682  -2.805   1.423   9.707 -0.3488 -2.3210 -1.1596
  869MOL0     H14683  -2.874   1.577   9.656 -4.2445  0.8708 -1.6529
  869MOL0     H14684  -2.978   1.411   9.456 -0.3762 -2.4164  0.0098
  869MOL0     H14685  -2.874   1.293   9.519  0.9553 -0.7057 -2.7882
  869MOL0     H14686  -2.671   1.420   9.483 -1.3417 -2.5120  2.5002
  869MOL0     H14687  -2.763   1.426   9.333 -0.2315 -0.9443  0.9217
  869MOL0     H14688  -2.701   1.637   9.527  0.7818  2.4883 -1.0367
  869MOL0     H14689  -2.858   1.655   9.434 -0.0288  1.2147  1.5420
  869MOL0     H14690  -2.631   1.319   9.968  1.2796  0.2650 -0.0417
  869MOL0     H14691  -2.386   1.353   9.909  0.8157 -0.0163 -0.7518
  869MOL0     H14692  -2.073   1.300   9.334  2.7613 -0.8022 -2.1799
  869MOL0     H14693  -1.832   1.333   9.313  0.7609 -0.1185 -0.3971
  869MOL0     H14694  -0.022   1.336   9.519  1.1139  2.3048 -0.2897
  869MOL0     H14695   0.199   1.418   9.407  0.8675 -0.0714  0.6557
  869MOL0     H14696   0.536   1.158   9.004 -2.6157  1.4504 -0.2702
  869MOL0     H14697   0.726   1.235   8.883 -0.2347 -1.4565  0.5828
  869MOL0     H14698   0.860   1.636   8.995 -0.2337 -0.5506  0.1985
  869MOL0     H14699   0.977   1.600   8.867  3.2160  0.0821  1.8143
  869MOL0     H14700   1.018   1.469   9.141  0.2763 -0.8972 -1.6540
  869MOL0     H14701   1.139   1.516   9.023  0.5174  2.6568 -1.6842
  869MOL0     H14702   0.990   1.701   9.212  0.1592 -0.7116  0.6706
  869MOL0     H14703   1.100   1.753   9.070  0.2410 -1.8815 -1.9244
  869MOL0     H14704   1.201   1.715   9.325  4.2542  0.1635  0.3969
  869MOL0     H14705   1.179   1.545   9.287 -1.1664  0.5880  0.8917
  869MOL0     H14706   1.537   1.636   9.087  1.6766  1.0845  1.3159
  869MOL0     H14707   0.792   1.523   9.197 -0.3369 -0.3394  0.6175
  869MOL0     H14708   0.614   1.461   9.306 -0.3070  0.0770 -0.0403
  870MOL0     O14709   2.452   1.784  10.280  0.4296  0.2736  0.1798
  870MOL0     C14710   2.417   1.840  10.380  0.4915  0.5180  1.0333
  870MOL0     O14711   2.497   1.900  10.478 -0.7812  0.3607 -0.1646
  870MOL0     C14712   2.633   1.907  10.462  1.0538  0.6830  0.7207
  870MOL0     C14713   2.697   1.910  10.581 -0.1551 -0.5849  0.5544
  870MOL0     C14714   2.829   1.967  10.578 -0.2319  0.0860  0.1548
  870MOL0     C14715   2.897   2.005  10.459  0.3314 -0.0594 -0.5029
  870MOL0     O14716   3.023   2.064  10.479 -0.5798  0.4461  0.5896
  870MOL0     C14717   3.029   2.198  10.521  0.1201  0.1889  0.1216
  870MOL0     C14718   2.970   2.293  10.406 -0.3848 -0.3989 -0.6356
  870MOL0     C14719   2.841   2.375  10.429 -0.2216  0.1319  0.0199
  870MOL0     C14720   2.722   2.279  10.435 -0.1182 -0.1753  0.5934
  870MOL0     C14721   2.598   2.351  10.480 -0.3555 -0.1680 -0.0735
  870MOL0     C14722   2.472   2.266  10.465  0.1433  0.0119 -0.6162
  870MOL0     C14723   2.360   2.335  10.561  0.6795  0.9279  0.7768
  870MOL0     C14724   2.276   2.443  10.492  0.4728 -0.4442  0.0039
  870MOL0     N14725   2.166   2.487  10.578 -0.9749  0.2396  0.5533
  870MOL0     C14726   2.166   2.605  10.650 -0.5968 -0.8631  0.0950
  870MOL0     C14727   2.052   2.603  10.721  0.1960  0.8207 -0.5292
  870MOL0     C14728   2.031   2.714  10.827 -0.3226  0.4406 -0.0202
  870MOL0     C14729   1.875   2.750  10.835  0.3499  0.5229  0.3469
  870MOL0     C14730   1.844   2.846  10.956 -0.7708 -0.6888  0.2066
  870MOL0     C14731   1.696   2.874  10.993 -0.1072 -0.7707  0.5760
  870MOL0     O14732   1.621   2.896  10.868  0.0455 -0.0516 -0.8299
  870MOL0     C14733   1.486   2.879  10.872 -0.6339  1.6776 -0.1048
  870MOL0     C14734   1.410   2.897  10.757  0.3925  0.3382  0.2793
  870MOL0     C14735   1.280   2.854  10.751  0.6462 -0.1979  0.0572
  870MOL0     C14736   1.202   2.830  10.868  0.3251  0.9756 -0.6265
  870MOL0     C14737   1.052   2.814  10.856  0.7063  0.1359 -0.2065
  870MOL0     O14738   0.976   2.846  10.974  0.6428  0.5311  0.4678
  870MOL0     C14739   0.841   2.856  10.965 -0.9886  0.0082  0.5822
  870MOL0     C14740   0.773   2.895  10.852 -0.2918  0.0308  0.3681
  870MOL0     C14741   0.634   2.927  10.860  0.7554 -1.1372  1.0694
  870MOL0     C14742   0.564   2.928  10.983 -0.1320 -0.1917  0.1074
  870MOL0     O14743   0.433   2.980  10.981  0.0605  0.4860 -0.0523
  870MOL0     C14744   0.340   2.952  11.087 -0.0638  0.3435  0.1889
  870MOL0     C14745   0.215   3.034  11.051  0.1436  0.3138 -0.1233
  870MOL0     C14746   0.128   2.950  10.946  0.3162 -0.3532  0.5991
  870MOL0     C14747   0.005   3.026  10.902  0.5957 -0.0310 -0.9081
  870MOL0     C14748   0.038   3.130  10.791 -0.0538  0.0254 -0.3911
  870MOL0     C14749  -0.093   3.159  10.717  0.2229  0.6980 -0.3065
  870MOL0     C14750  -0.065   3.264  10.615  0.4582 -0.1043 -0.6284
  870MOL0     C14751  -0.182   3.317  10.529  0.6476 -0.0851 -0.6108
  870MOL0    Cl14752  -0.316   3.191  10.494  0.3986  0.4509 -0.0089
  870MOL0     C14753   0.635   2.891  11.107  0.5105 -0.0356  0.0718
  870MOL0     C14754   0.767   2.852  11.087  0.8920  0.9303  0.1749
  870MOL0     O14755   1.005   2.786  10.746  0.2662  0.5193 -0.0913
  870MOL0     C14756   1.273   2.829  10.990 -0.2572 -0.3314 -0.4618
  870MOL0     C14757   1.414   2.847  10.984 -0.0629 -0.3041  0.2119
  870MOL0     N14758   1.989   2.478  10.707 -0.1413 -0.1147  0.1284
  870MOL0     N14759   2.058   2.407  10.615 -0.4404  0.2708 -0.6257
  870MOL0     C14760   2.828   1.987  10.342 -0.4479 -0.1371  0.0594
  870MOL0     C14761   2.694   1.943  10.345  0.0396 -0.0791 -1.8005
  870MOL0     C14762   2.273   1.875  10.381 -0.4888  0.1154 -0.7004
  870MOL0     C14763   2.179   1.819  10.296  0.7696  0.2799 -0.8109
  870MOL0     C14764   2.044   1.843  10.325 -0.1384  0.1852  0.0920
  870MOL0     C14765   2.008   1.927  10.437  0.3336  0.3279  0.0236
  870MOL0     O14766   1.872   1.946  10.452  0.4413  0.4047  0.4336
  870MOL0     C14767   1.819   2.055  10.528  0.3473  0.1894  0.1249
  870MOL0     C14768   1.833   2.181  10.443 -0.4906  0.6277  0.1394
  870MOL0     C14769   1.746   2.303  10.497 -0.6140  0.8896 -0.4269
  870MOL0     C14770   1.593   2.281  10.487 -0.0530 -0.2513  0.5641
  870MOL0     C14771   1.544   2.210  10.606 -0.0718  0.8444  0.5510
  870MOL0     C14772   1.535   2.138  10.705 -0.2299  1.0249 -0.6663
  870MOL0     C14773   2.105   1.994  10.512  0.4208 -0.5077 -0.3730
  870MOL0     C14774   2.238   1.963  10.482  1.2882 -0.3366  0.0441
  870MOL0     H14775   2.644   1.880  10.671 -1.2435  2.6094  1.0911
  870MOL0     H14776   2.892   1.966  10.667 -2.8265 -1.5888  2.1020
  870MOL0     H14777   3.134   2.223  10.542  0.0151  0.6198  0.1553
  870MOL0     H14778   2.983   2.210  10.620 -0.3996  1.4118 -0.2529
  870MOL0     H14779   2.960   2.239  10.311  0.2201  1.0843 -1.5718
  870MOL0     H14780   3.050   2.365  10.390 -0.0728 -0.3129  1.1298
  870MOL0     H14781   2.809   2.456  10.363 -2.5917  1.0561  2.1439
  870MOL0     H14782   2.849   2.426  10.525 -4.3679 -1.0545  1.2100
  870MOL0     H14783   2.702   2.232  10.338 -2.8809 -0.3541  1.1462
  870MOL0     H14784   2.751   2.204  10.509  0.1781  0.4408  1.1059
  870MOL0     H14785   2.573   2.443  10.427 -1.6894 -0.3407  0.2143
  870MOL0     H14786   2.620   2.357  10.587 -0.2697 -2.4398  0.0923
  870MOL0     H14787   2.491   2.165  10.504  0.2608 -1.5254 -4.2592
  870MOL0     H14788   2.428   2.251  10.366 -0.0346  0.6729 -0.6387
  870MOL0     H14789   2.289   2.253  10.577 -0.7348  1.9129 -0.1097
  870MOL0     H14790   2.406   2.366  10.655  1.7257 -3.4908  1.9699
  870MOL0     H14791   2.228   2.404  10.402  2.4245 -0.3239 -1.1440
  870MOL0     H14792   2.345   2.526  10.474 -0.2693  0.3233  0.6188
  870MOL0     H14793   2.244   2.680  10.655  1.1547 -2.4924 -1.1185
  870MOL0     H14794   2.091   2.801  10.800 -0.5473  0.6231  0.0638
  870MOL0     H14795   2.068   2.679  10.924  0.2244  0.6596 -0.1508
  870MOL0     H14796   1.827   2.654  10.854 -2.5542  1.7395 -0.2421
  870MOL0     H14797   1.845   2.783  10.735  1.8569  2.1750  0.3968
  870MOL0     H14798   1.907   2.827  11.044 -2.5865 -0.7572  1.5666
  870MOL0     H14799   1.881   2.946  10.935 -0.6073 -0.9139 -0.6341
  870MOL0     H14800   1.700   2.969  11.046 -0.8072 -0.0651 -0.5858
  870MOL0     H14801   1.668   2.792  11.059 -0.0279  0.9492  2.8432
  870MOL0     H14802   1.463   2.920  10.665  2.2755 -3.8053  0.1157
  870MOL0     H14803   1.233   2.863  10.653 -0.2085  1.5282  0.5837
  870MOL0     H14804   0.822   2.903  10.755 -1.5033 -1.2556 -0.3820
  870MOL0     H14805   0.570   2.967  10.782  1.1327 -0.2558  1.2052
  870MOL0     H14806   0.384   2.986  11.180  0.0396 -1.7482  0.9491
  870MOL0     H14807   0.326   2.843  11.092  2.9255 -0.2571 -1.6385
  870MOL0     H14808   0.229   3.129  11.000 -4.6868  1.4595  0.1919
  870MOL0     H14809   0.154   3.064  11.137  2.3124  2.8698  0.6672
  870MOL0     H14810   0.099   2.852  10.986 -1.1565 -1.7498 -3.4406
  870MOL0     H14811   0.178   2.923  10.853 -0.2603  0.1397  0.1353
  870MOL0     H14812  -0.067   2.954  10.862 -0.9628  2.9377 -3.9077
  870MOL0     H14813  -0.039   3.076  10.988  2.9128 -1.4276  1.2327
  870MOL0     H14814   0.118   3.081  10.734  1.3126  0.3449  1.1605
  870MOL0     H14815   0.078   3.225  10.829 -0.3755  0.6030 -1.4568
  870MOL0     H14816  -0.174   3.192  10.783 -0.6885  1.6082 -1.8112
  870MOL0     H14817  -0.125   3.068  10.666  1.7007  0.0195 -0.0545
  870MOL0     H14818  -0.021   3.353  10.660  0.1335 -0.2562  0.0080
  870MOL0     H14819   0.003   3.229  10.537 -0.1996 -3.6719  0.2354
  870MOL0     H14820  -0.149   3.361  10.435 -0.7645  1.9020 -0.2518
  870MOL0     H14821  -0.229   3.404  10.577  1.4886  0.9401 -1.6090
  870MOL0     H14822   0.583   2.892  11.202  1.1114  3.7507  0.5142
  870MOL0     H14823   0.815   2.808  11.174  1.7710  1.3713 -0.0719
  870MOL0     H14824   1.213   2.821  11.080 -2.2395  2.6566 -1.3698
  870MOL0     H14825   1.456   2.825  11.082 -0.6130 -0.4278  0.4231
  870MOL0     H14826   2.869   2.011  10.244 -1.4602 -0.0069 -0.3439
  870MOL0     H14827   2.644   1.930  10.250 -0.3778  3.0006 -2.1017
  870MOL0     H14828   2.206   1.742  10.225 -2.8453 -0.7209 -1.3070
  870MOL0     H14829   1.968   1.812  10.253  1.0645 -0.8306 -0.7718
  870MOL0     H14830   1.864   2.073  10.626 -0.3686  2.4547  0.0971
  870MOL0     H14831   1.719   2.017  10.548  1.0332 -1.8951 -0.1169
  870MOL0     H14832   1.935   2.218  10.431 -0.1985  0.0714  0.8550
  870MOL0     H14833   1.793   2.147  10.347 -1.4312  0.2455  0.6535
  870MOL0     H14834   1.761   2.392  10.436 -0.6285  2.4319  1.7023
  870MOL0     H14835   1.776   2.320  10.601  0.8331 -2.8737 -0.0473
  870MOL0     H14836   1.547   2.380  10.484 -1.2313 -0.8053 -1.9155
  870MOL0     H14837   1.562   2.230  10.396 -1.8114  2.4887 -0.4866
  870MOL0     H14838   1.532   2.074  10.792 -0.1226 -0.4795 -1.7305
  870MOL0     H14839   2.086   2.067  10.590  2.5570  0.3923 -0.6076
  870MOL0     H14840   2.308   2.008  10.551 -1.5902  2.1341  1.5330
  871MOL0     O14841   0.032   3.017   2.869  0.2239 -0.2410 -0.2610
  871MOL0     C14842  -0.075   2.965   2.826 -0.0118 -0.2478 -0.3383
  871MOL0     O14843  -0.087   2.864   2.728  0.4205 -0.0624  0.5846
  871MOL0     C14844   0.025   2.840   2.647 -0.0963 -0.6425  0.1979
  871MOL0     C14845  -0.011   2.795   2.526 -0.1081  0.1093  0.6156
  871MOL0     C14846   0.089   2.759   2.430  0.2103 -0.7309 -0.6200
  871MOL0     C14847   0.221   2.767   2.458 -0.0895 -0.0751  0.7378
  871MOL0     O14848   0.301   2.715   2.361 -0.1320 -0.2815  0.2142
  871MOL0     C14849   0.440   2.735   2.378  0.7200  0.6467 -0.1283
  871MOL0     C14850   0.502   2.624   2.479 -0.0723  0.0477  0.3299
  871MOL0     C14851   0.622   2.662   2.568 -0.3410  0.5676 -0.4384
  871MOL0     C14852   0.704   2.554   2.635 -0.6743 -0.1080  0.3532
  871MOL0     C14853   0.824   2.614   2.711  0.1539 -0.1369 -0.2013
  871MOL0     C14854   0.874   2.518   2.817 -0.5798 -0.5976  1.3483
  871MOL0     C14855   0.863   2.564   2.958  0.2952 -0.1377 -0.4897
  871MOL0     C14856   0.939   2.474   3.068  0.0061  0.5712 -0.1514
  871MOL0     N14857   1.082   2.462   3.040  0.0846 -0.7239 -0.8802
  871MOL0     C14858   1.161   2.343   3.063 -0.8873  0.0406  0.7301
  871MOL0     C14859   1.292   2.383   3.035  0.5621  0.9770 -0.8141
  871MOL0     C14860   1.417   2.306   3.040 -1.3454  0.4287  0.0783
  871MOL0     C14861   1.498   2.340   3.178  0.0508 -0.3339  0.4898
  871MOL0     C14862   1.636   2.276   3.168  0.4225 -1.1284  0.0126
  871MOL0     C14863   1.712   2.286   3.299 -0.8005  0.2228  0.8678
  871MOL0     O14864   1.858   2.238   3.290  0.0089 -0.1852  0.8944
  871MOL0     C14865   1.947   2.236   3.392 -0.0918 -0.1568  0.0845
  871MOL0     C14866   1.913   2.274   3.523  0.5008  0.7067 -0.2912
  871MOL0     C14867   2.010   2.259   3.617  0.2436  0.2581 -0.4142
  871MOL0     C14868   2.144   2.223   3.588 -0.0115  0.8667 -0.2434
  871MOL0     C14869   2.235   2.214   3.693 -0.4281 -0.6881 -0.4390
  871MOL0     O14870   2.362   2.210   3.652 -0.2577  0.6422  0.9107
  871MOL0     C14871   2.464   2.211   3.739 -0.0930 -0.1743 -0.4491
  871MOL0     C14872   2.468   2.131   3.852 -0.0334  0.0094  0.5588
  871MOL0     C14873   2.576   2.124   3.945  0.5613 -0.5538  0.6721
  871MOL0     C14874   2.682   2.213   3.918 -0.0045  0.3373  0.8259
  871MOL0     O14875   2.783   2.204   4.015 -0.1488 -0.2775 -0.0326
  871MOL0     C14876   2.913   2.269   3.989  0.2102  0.7530 -0.2869
  871MOL0     C14877   2.996   2.263   4.131  0.5963 -0.2360 -0.1266
  871MOL0     C14878   3.137   2.319   4.119 -0.3501  0.7439 -0.5997
  871MOL0     C14879   3.235   2.211   4.071  0.8006  0.0720  0.3820
  871MOL0     C14880   3.380   2.254   4.065  0.4443 -0.2870  0.2463
  871MOL0     C14881   3.470   2.165   4.147 -0.1511  0.1092  0.5822
  871MOL0     C14882   3.625   2.196   4.131  0.2244 -0.3266 -0.3558
  871MOL0     C14883   3.716   2.112   4.216 -0.6974  0.2144 -0.0750
  871MOL0    Cl14884   3.694   2.120   4.385  0.1458  0.5204  0.5723
  871MOL0     C14885   2.680   2.295   3.808 -0.1019  0.6471 -0.1392
  871MOL0     C14886   2.568   2.302   3.718 -0.2482 -0.5021 -0.4946
  871MOL0     O14887   2.190   2.220   3.805  0.2645 -0.5808 -0.5007
  871MOL0     C14888   2.180   2.201   3.456 -0.0457 -0.6242  0.0718
  871MOL0     C14889   2.084   2.201   3.363 -0.1970 -0.3790 -0.1189
  871MOL0     N14890   1.292   2.521   3.015  0.4977  0.1999 -1.0753
  871MOL0     N14891   1.167   2.567   3.017  0.5456  1.2593  0.5954
  871MOL0     C14892   0.260   2.814   2.588  0.1531  0.0613  0.1350
  871MOL0     C14893   0.159   2.847   2.686  0.0080 -0.5254  0.5194
  871MOL0     C14894  -0.201   2.994   2.892 -0.0727 -0.6054 -0.3885
  871MOL0     C14895  -0.325   2.984   2.830  0.9967  0.6357 -0.4419
  871MOL0     C14896  -0.443   3.000   2.905 -0.5099 -0.3351  0.7283
  871MOL0     C14897  -0.439   3.032   3.036 -1.2947 -0.6274  0.4340
  871MOL0     O14898  -0.559   3.045   3.098 -0.1552 -0.5326 -0.4884
  871MOL0     C14899  -0.560   3.069   3.239 -0.2196 -0.4358  0.5684
  871MOL0     C14900  -0.703   3.052   3.285  0.2226  0.6227 -0.0510
  871MOL0     C14901  -0.710   3.045   3.433  0.2428  0.2646 -0.1500
  871MOL0     C14902  -0.865   3.008   3.469 -0.4008  0.2121  0.4978
  871MOL0     C14903  -0.895   2.986   3.608  0.4498  0.5888 -0.2884
  871MOL0     C14904  -0.928   2.994   3.725  0.5394 -0.1096 -0.5229
  871MOL0     C14905  -0.315   3.044   3.100  1.3327  0.2911  0.9805
  871MOL0     C14906  -0.196   3.026   3.032  0.1179  1.0938  0.1005
  871MOL0     H14907  -0.116   2.790   2.498  0.5951 -1.2859 -2.1035
  871MOL0     H14908   0.052   2.747   2.329 -0.3493  1.6348 -0.7574
  871MOL0     H14909   0.452   2.837   2.416 -0.5859  0.5662  0.5429
  871MOL0     H14910   0.488   2.732   2.280 -2.5585 -1.5392 -1.8471
  871MOL0     H14911   0.526   2.527   2.436 -0.0735 -0.0268  0.4977
  871MOL0     H14912   0.429   2.602   2.558  0.2987  0.2205  0.7260
  871MOL0     H14913   0.585   2.735   2.640  1.4492  1.0264  0.0742
  871MOL0     H14914   0.695   2.711   2.503  1.3839  1.4278  1.9917
  871MOL0     H14915   0.644   2.491   2.702  2.3329 -2.3864  1.1225
  871MOL0     H14916   0.732   2.473   2.567  0.6436  0.0331  0.7058
  871MOL0     H14917   0.801   2.716   2.745 -1.2576 -0.3083 -0.5740
  871MOL0     H14918   0.904   2.631   2.639 -1.0166  0.6956 -1.3447
  871MOL0     H14919   0.977   2.493   2.787  0.0281  2.0007  0.9659
  871MOL0     H14920   0.816   2.427   2.799 -0.5683 -0.6477  1.5703
  871MOL0     H14921   0.903   2.666   2.965  1.0980 -0.5112  0.5889
  871MOL0     H14922   0.761   2.561   2.997  0.4929  1.4279  0.2208
  871MOL0     H14923   0.905   2.370   3.073  1.7573 -0.0201  0.6680
  871MOL0     H14924   0.928   2.513   3.170 -0.0121  1.5054 -0.5092
  871MOL0     H14925   1.113   2.246   3.077  0.5903 -1.0397 -1.1332
  871MOL0     H14926   1.470   2.345   2.953 -3.6392 -2.4823 -2.8987
  871MOL0     H14927   1.395   2.200   3.025 -0.0348  0.4139 -2.2571
  871MOL0     H14928   1.446   2.297   3.264 -1.8020  1.8974  0.5748
  871MOL0     H14929   1.515   2.447   3.192 -0.4063 -0.2087  0.0949
  871MOL0     H14930   1.615   2.171   3.145 -2.7259 -0.1307 -2.4314
  871MOL0     H14931   1.689   2.319   3.082 -2.3955 -0.4136 -1.4915
  871MOL0     H14932   1.653   2.234   3.375 -3.0133 -1.2678 -1.6690
  871MOL0     H14933   1.715   2.394   3.316  3.1186  0.7803 -1.9245
  871MOL0     H14934   1.814   2.297   3.562 -0.4494 -1.0007 -1.5446
  871MOL0     H14935   1.976   2.290   3.716  2.8377  0.5690  0.4516
  871MOL0     H14936   2.385   2.066   3.876 -2.3422  2.6777  0.2832
  871MOL0     H14937   2.572   2.060   4.032  1.2435 -0.1646  0.9990
  871MOL0     H14938   2.899   2.373   3.957  0.2609  1.6785  2.4236
  871MOL0     H14939   2.961   2.211   3.910  1.3858 -0.3542  1.1929
  871MOL0     H14940   2.998   2.160   4.168  2.0605  0.3559  1.6123
  871MOL0     H14941   2.937   2.332   4.191  0.9439  0.9565 -1.1163
  871MOL0     H14942   3.169   2.355   4.218 -0.3363 -2.7086  0.7773
  871MOL0     H14943   3.135   2.404   4.049  0.5085  0.5943 -0.8138
  871MOL0     H14944   3.209   2.116   4.118  3.1654  0.5481  2.9255
  871MOL0     H14945   3.214   2.217   3.963  4.6000  1.3241 -0.4475
  871MOL0     H14946   3.399   2.357   4.096  1.4002 -0.5772  0.6655
  871MOL0     H14947   3.413   2.237   3.962 -1.9539  0.5302 -0.7236
  871MOL0     H14948   3.440   2.064   4.116 -0.4058 -0.6054  2.9839
  871MOL0     H14949   3.454   2.171   4.255  2.2810 -0.5468  1.0347
  871MOL0     H14950   3.639   2.176   4.024  1.1764  0.4474 -0.3821
  871MOL0     H14951   3.640   2.303   4.146  2.8980 -0.9259  1.9859
  871MOL0     H14952   3.821   2.135   4.195 -1.0070 -0.6179 -2.8709
  871MOL0     H14953   3.700   2.006   4.196 -0.5327  0.1748  0.0045
  871MOL0     H14954   2.763   2.358   3.779 -0.1145  0.4579 -0.5913
  871MOL0     H14955   2.575   2.367   3.632  0.8731 -2.6899 -2.1505
  871MOL0     H14956   2.278   2.170   3.422 -1.0789 -4.8645  0.4046
  871MOL0     H14957   2.103   2.193   3.257  0.8966  1.7431 -0.1421
  871MOL0     H14958   0.363   2.837   2.612 -0.1849 -0.7181  2.6734
  871MOL0     H14959   0.196   2.870   2.785 -1.9037 -2.7356  1.8326
  871MOL0     H14960  -0.335   2.943   2.730  0.7104 -2.1381  0.6373
  871MOL0     H14961  -0.541   2.990   2.861  0.0821  2.5620 -1.4803
  871MOL0     H14962  -0.535   3.174   3.258 -0.6540 -0.4855  1.4386
  871MOL0     H14963  -0.493   3.011   3.301  0.9773 -0.9723 -1.1463
  871MOL0     H14964  -0.767   3.134   3.253  0.0942  1.6615  2.5588
  871MOL0     H14965  -0.739   2.960   3.239 -1.7182  1.7013 -0.7889
  871MOL0     H14966  -0.690   3.142   3.480  0.5831  1.3045 -2.3238
  871MOL0     H14967  -0.653   2.960   3.473 -4.7477 -2.7567  1.5266
  871MOL0     H14968  -0.925   3.097   3.446  0.4542  0.7303  0.2350
  871MOL0     H14969  -0.886   2.914   3.416  0.9755 -1.4318  2.7116
  871MOL0     H14970  -0.951   3.013   3.828  0.9597 -0.1597 -0.4196
  871MOL0     H14971  -0.313   3.057   3.208 -1.8096 -1.5122  1.3672
  871MOL0     H14972  -0.107   3.028   3.093  0.9186  1.9647 -1.0718
  872MOL0     O14973   6.792  10.876   2.297 -0.7831 -0.0727 -0.2529
  872MOL0     C14974   6.726  10.976   2.309 -0.2571  0.1184 -0.4207
  872MOL0     O14975   6.778  11.100   2.345 -0.3774  0.3052  0.0917
  872MOL0     C14976   6.917  11.106   2.355  0.6690 -0.8922  0.2998
  872MOL0     C14977   6.997  11.096   2.244  0.5323 -0.1073 -0.0646
  872MOL0     C14978   7.134  11.100   2.252 -0.3833 -0.8964  0.6856
  872MOL0     C14979   7.201  11.113   2.370 -0.7874 -0.1988 -0.6569
  872MOL0     O14980   7.336  11.125   2.395 -0.3271 -0.3353  0.2437
  872MOL0     C14981   7.419  11.015   2.348 -0.0606  0.4958  0.0110
  872MOL0     C14982   7.502  10.954   2.466  0.2509  0.7635 -0.3534
  872MOL0     C14983   7.433  10.840   2.541  0.4044  0.1513  0.1327
  872MOL0     C14984   7.464  10.710   2.451 -0.5531 -0.4933  0.3748
  872MOL0     C14985   7.401  10.579   2.489  0.0725 -0.1186 -0.2000
  872MOL0     C14986   7.249  10.563   2.496  0.8521  0.0329 -0.5953
  872MOL0     C14987   7.173  10.623   2.375  0.4865  0.1888 -0.6062
  872MOL0     C14988   7.032  10.579   2.375  0.7580 -0.2692  0.3703
  872MOL0     N14989   6.969  10.611   2.508 -0.3463 -0.3544  0.1862
  872MOL0     C14990   6.921  10.738   2.543  0.0147  0.0086  0.3575
  872MOL0     C14991   6.830  10.712   2.642  0.2272  0.4862 -0.8635
  872MOL0     C14992   6.735  10.813   2.700 -0.8965 -0.1464  0.0580
  872MOL0     C14993   6.597  10.746   2.737  0.4788 -0.6337 -0.0156
  872MOL0     C14994   6.538  10.729   2.603  1.0400  0.5610  0.2058
  872MOL0     C14995   6.418  10.621   2.596 -0.7781  0.0303 -0.1258
  872MOL0     O14996   6.327  10.643   2.711  0.0880 -0.4915 -0.0768
  872MOL0     C14997   6.223  10.720   2.687 -0.8153 -0.1383 -0.4363
  872MOL0     C14998   6.228  10.852   2.649 -0.0354  0.1501 -0.9303
  872MOL0     C14999   6.109  10.909   2.614  0.4618 -0.1016  0.2879
  872MOL0     C15000   5.982  10.843   2.617 -0.1332  0.8948  0.0781
  872MOL0     C15001   5.847  10.911   2.579 -0.1945 -0.7476 -0.5074
  872MOL0     O15002   5.871  11.039   2.540  0.2928 -0.2777 -0.4053
  872MOL0     C15003   5.771  11.127   2.502  0.3316 -0.1094  0.1746
  872MOL0     C15004   5.631  11.100   2.482 -0.1564 -0.7463  0.0149
  872MOL0     C15005   5.539  11.206   2.481 -0.4541  1.1430  0.1445
  872MOL0     C15006   5.578  11.340   2.464 -0.4824  0.2248  0.1559
  872MOL0     O15007   5.484  11.444   2.453 -0.0766  0.0420 -0.2826
  872MOL0     C15008   5.511  11.580   2.428 -0.7881  0.7886 -0.3011
  872MOL0     C15009   5.370  11.646   2.415 -0.3528  0.2820  0.8653
  872MOL0     C15010   5.378  11.777   2.337  0.5513 -1.0231 -0.9861
  872MOL0     C15011   5.405  11.753   2.192 -0.3849 -0.1155  0.4637
  872MOL0     C15012   5.372  11.868   2.107 -0.0412  0.6686  0.1100
  872MOL0     C15013   5.378  11.833   1.950 -0.5833 -0.4143 -0.2000
  872MOL0     C15014   5.265  11.732   1.919 -0.2051  0.3364  0.3063
  872MOL0     C15015   5.253  11.711   1.764 -0.2179  0.3202  0.1533
  872MOL0    Cl15016   5.186  11.845   1.674  0.2980 -0.2753  0.3699
  872MOL0     C15017   5.717  11.362   2.454 -0.1735 -0.1401  0.4730
  872MOL0     C15018   5.811  11.261   2.486 -0.3404  0.3410 -0.1894
  872MOL0     O15019   5.738  10.858   2.600 -0.2294 -0.0352  0.1955
  872MOL0     C15020   5.977  10.702   2.662 -0.4467 -1.0168  1.4267
  872MOL0     C15021   6.099  10.648   2.699 -1.1270 -1.0520 -0.6442
  872MOL0     N15022   6.842  10.577   2.677 -0.2598 -0.2506  0.0557
  872MOL0     N15023   6.937  10.529   2.608  0.0057 -0.0025  0.5733
  872MOL0     C15024   7.117  11.132   2.482  0.3394  0.1423 -0.4029
  872MOL0     C15025   6.980  11.142   2.473  0.3726 -0.2435  0.2018
  872MOL0     C15026   6.571  10.957   2.292 -0.7939  0.5446 -0.1715
  872MOL0     C15027   6.489  11.066   2.301 -0.7858 -0.2346 -0.9110
  872MOL0     C15028   6.349  11.060   2.294  0.2968  0.1344 -0.5409
  872MOL0     C15029   6.289  10.932   2.265 -0.2583 -0.4201  0.3885
  872MOL0     O15030   6.156  10.912   2.278  0.1873 -0.9153 -0.0340
  872MOL0     C15031   6.069  11.023   2.257 -0.6780 -0.6374 -0.4699
  872MOL0     C15032   5.931  10.979   2.209  0.7172  0.8121  0.6135
  872MOL0     C15033   5.932  10.907   2.071 -0.4209 -0.0720 -0.1280
  872MOL0     C15034   5.796  10.903   2.009  0.6260 -0.2432 -0.4572
  872MOL0     C15035   5.804  10.832   1.878 -0.0236 -0.2210 -0.4828
  872MOL0     C15036   5.793  10.772   1.775  0.1045 -0.1912  0.9356
  872MOL0     C15037   6.379  10.834   2.235  0.0088  0.3497 -0.2624
  872MOL0     C15038   6.514  10.838   2.256  0.8627 -0.0024  0.1317
  872MOL0     H15039   6.951  11.084   2.146 -1.6071  4.5405  0.1292
  872MOL0     H15040   7.196  11.091   2.164 -1.7458 -4.0458 -0.0910
  872MOL0     H15041   7.498  11.049   2.281 -0.1000 -0.0087 -0.3035
  872MOL0     H15042   7.378  10.937   2.282  1.1556 -0.1778  0.0230
  872MOL0     H15043   7.528  11.035   2.534  0.4603 -1.0656  1.8730
  872MOL0     H15044   7.603  10.927   2.435 -0.5070 -0.1703 -2.1689
  872MOL0     H15045   7.325  10.852   2.544 -0.0364 -3.0036  2.7903
  872MOL0     H15046   7.476  10.832   2.641 -1.2895 -3.4190  0.7161
  872MOL0     H15047   7.449  10.734   2.346 -0.0596  0.4773  0.5166
  872MOL0     H15048   7.573  10.703   2.459 -0.5560 -0.1728  0.7705
  872MOL0     H15049   7.433  10.555   2.591  1.6886 -1.3629 -0.9513
  872MOL0     H15050   7.437  10.494   2.430 -3.1062 -0.8026 -1.3421
  872MOL0     H15051   7.211  10.615   2.584 -1.0299 -0.5254 -1.0247
  872MOL0     H15052   7.228  10.458   2.520 -1.3268  0.4348 -0.5376
  872MOL0     H15053   7.172  10.732   2.373 -3.6551  0.3216  0.5277
  872MOL0     H15054   7.220  10.596   2.279  0.5799  0.9360 -0.7836
  872MOL0     H15055   7.021  10.472   2.355 -1.7315 -0.2647  1.3159
  872MOL0     H15056   6.975  10.633   2.299  0.8146  0.1045  0.5913
  872MOL0     H15057   6.934  10.837   2.500 -1.0369 -0.0422 -0.1090
  872MOL0     H15058   6.734  10.914   2.659 -0.3952 -0.1323  0.0745
  872MOL0     H15059   6.785  10.844   2.792 -0.3916 -0.6620 -0.0385
  872MOL0     H15060   6.541  10.803   2.812 -1.3916 -2.2044 -0.1475
  872MOL0     H15061   6.623  10.648   2.776  1.4322 -0.8505 -1.1538
  872MOL0     H15062   6.498  10.827   2.575  3.1998  1.2809 -0.5721
  872MOL0     H15063   6.599  10.707   2.515 -2.9951 -1.9743 -2.3228
  872MOL0     H15064   6.462  10.522   2.609 -0.2019  0.6551  5.1094
  872MOL0     H15065   6.371  10.634   2.498 -4.0152 -2.2959  0.9450
  872MOL0     H15066   6.319  10.912   2.642  1.3076 -1.7152 -0.2313
  872MOL0     H15067   6.100  11.015   2.589  1.5096 -0.5737 -2.4136
  872MOL0     H15068   5.592  10.999   2.490 -3.6244  0.4883  0.0474
  872MOL0     H15069   5.433  11.203   2.503 -0.2320  2.9526  1.6428
  872MOL0     H15070   5.578  11.591   2.342  0.7095 -1.2168  0.5212
  872MOL0     H15071   5.568  11.607   2.517  0.1736  2.0594 -1.2641
  872MOL0     H15072   5.320  11.665   2.511 -0.8974 -2.7826  1.2989
  872MOL0     H15073   5.300  11.576   2.367 -0.9513  0.0641  2.0333
  872MOL0     H15074   5.453  11.848   2.374  2.4335 -2.4619 -1.8388
  872MOL0     H15075   5.276  11.813   2.349  1.1571  0.8818 -1.1433
  872MOL0     H15076   5.514  11.750   2.185 -0.3446  0.0662  0.9477
  872MOL0     H15077   5.360  11.658   2.162  4.9572 -2.0443 -2.8647
  872MOL0     H15078   5.445  11.942   2.142  3.3853 -2.0233 -0.7543
  872MOL0     H15079   5.269  11.906   2.114  0.2279  2.0025 -2.2207
  872MOL0     H15080   5.473  11.783   1.931 -0.7281 -0.5007 -0.7058
  872MOL0     H15081   5.373  11.928   1.896 -1.6480  0.9413  2.1349
  872MOL0     H15082   5.299  11.635   1.955 -4.5743 -1.4134  0.3523
  872MOL0     H15083   5.169  11.757   1.965 -0.1642 -0.2344  0.7176
  872MOL0     H15084   5.181  11.631   1.743 -0.6790  1.0615 -1.3162
  872MOL0     H15085   5.350  11.677   1.728 -0.7207 -0.3906 -0.5788
  872MOL0     H15086   5.744  11.465   2.437  0.1921  0.2914  3.3217
  872MOL0     H15087   5.913  11.290   2.509 -0.1465 -0.4216 -0.0571
  872MOL0     H15088   5.886  10.645   2.647  0.1808 -1.7827  0.3721
  872MOL0     H15089   6.108  10.543   2.729  1.9599 -0.8709 -0.6504
  872MOL0     H15090   7.165  11.153   2.577  2.3327  2.1627 -1.7364
  872MOL0     H15091   6.925  11.169   2.563  0.2195 -0.2167  0.1010
  872MOL0     H15092   6.536  11.160   2.328 -2.5329  0.3026  0.4335
  872MOL0     H15093   6.289  11.142   2.332 -0.3143 -0.9569  0.9512
  872MOL0     H15094   6.107  11.091   2.180 -0.8699  0.2631  0.2151
  872MOL0     H15095   6.053  11.072   2.354  2.0651  0.8499 -0.6504
  872MOL0     H15096   5.891  10.904   2.277 -2.2199 -0.2509 -2.0390
  872MOL0     H15097   5.862  11.063   2.221 -0.1293  0.4184 -1.1425
  872MOL0     H15098   5.978  10.809   2.085  1.8020  1.2258  2.7547
  872MOL0     H15099   5.997  10.965   2.004  0.4746 -1.6445 -0.6764
  872MOL0     H15100   5.726  10.854   2.077  1.2260 -0.8469 -0.2501
  872MOL0     H15101   5.761  11.006   2.005 -1.7828 -0.9894  0.0638
  872MOL0     H15102   5.795  10.713   1.685 -1.5785  1.6267 -0.4024
  872MOL0     H15103   6.346  10.736   2.201 -1.8731  1.3561 -1.4914
  872MOL0     H15104   6.567  10.744   2.248  2.1612  0.6503  0.6149
  873MOL0     O15105  11.127   1.527   6.084 -0.3943 -0.7174 -0.4193
  873MOL0     C15106  11.170   1.450   5.995 -0.1960 -0.7073 -0.0247
  873MOL0     O15107  11.099   1.364   5.923 -0.0955 -0.1444  0.4309
  873MOL0     C15108  10.962   1.355   5.952 -0.2621 -0.2606  0.7007
  873MOL0     C15109  10.858   1.389   5.864  0.0929  0.3078  0.6108
  873MOL0     C15110  10.720   1.363   5.882 -0.4192  0.3619  0.1755
  873MOL0     C15111  10.677   1.321   6.004  0.4748 -0.5046 -0.3504
  873MOL0     O15112  10.534   1.325   6.033  0.7225 -0.1369 -0.3644
  873MOL0     C15113  10.471   1.221   6.118 -0.1384  0.3355 -0.0966
  873MOL0     C15114  10.326   1.262   6.130  0.1023  1.0954  0.0893
  873MOL0     C15115  10.258   1.180   6.247  0.0015 -0.9872 -0.2251
  873MOL0     C15116  10.268   1.030   6.235  0.4368  0.0542 -0.0438
  873MOL0     C15117  10.176   0.948   6.329  0.1892  0.6006 -1.4307
  873MOL0     C15118  10.208   0.795   6.318  0.2041 -0.5890 -0.3633
  873MOL0     C15119  10.127   0.703   6.421  0.5799  0.1700 -1.0880
  873MOL0     C15120   9.977   0.688   6.375 -0.3706  0.0307  0.0169
  873MOL0     N15121   9.896   0.637   6.491 -0.0929  0.6026 -0.0785
  873MOL0     C15122   9.760   0.582   6.487 -0.3720  0.1135 -0.1932
  873MOL0     C15123   9.730   0.533   6.604  0.2932  0.5869 -0.3041
  873MOL0     C15124   9.603   0.477   6.657  0.0497  0.4104  0.1983
  873MOL0     C15125   9.581   0.335   6.580  0.4041  0.7417 -0.3196
  873MOL0     C15126   9.447   0.292   6.636  0.0147  0.0630  1.1674
  873MOL0     C15127   9.456   0.238   6.770  0.2949  0.4118  0.0146
  873MOL0     O15128   9.329   0.166   6.770  0.8567 -0.1732  0.4337
  873MOL0     C15129   9.291   0.093   6.883  0.5315  0.8537  0.2244
  873MOL0     C15130   9.153   0.074   6.906 -0.4046 -0.3736 -0.3887
  873MOL0     C15131   9.108  -0.003   7.015 -0.1329  0.8605 -0.2163
  873MOL0     C15132   9.193  -0.057   7.109  1.3369  0.2190  0.1105
  873MOL0     C15133   9.142  -0.157   7.203  0.7106  0.4115  1.0132
  873MOL0     O15134   9.009  -0.205   7.183  0.2884 -0.4364 -0.1723
  873MOL0     C15135   8.964  -0.310   7.260  0.1669  0.5535  0.2458
  873MOL0     C15136   9.044  -0.423   7.281 -0.6265  0.2402 -0.6617
  873MOL0     C15137   8.995  -0.523   7.367  0.2194 -0.0031 -0.9066
  873MOL0     C15138   8.865  -0.518   7.420 -0.2153  0.8921  0.1606
  873MOL0     O15139   8.803  -0.622   7.485  0.3847  0.1526  0.5003
  873MOL0     C15140   8.877  -0.726   7.538 -0.5051 -0.3160  0.1214
  873MOL0     C15141   8.774  -0.809   7.617 -1.0640  0.5118 -0.8381
  873MOL0     C15142   8.813  -0.950   7.664  0.0498 -0.0093 -0.0878
  873MOL0     C15143   8.898  -1.016   7.557 -0.4746 -0.0017  0.0795
  873MOL0     C15144   8.958  -1.148   7.607  0.6194 -0.4085 -0.4481
  873MOL0     C15145   9.072  -1.184   7.506  0.2009  0.0992  0.4522
  873MOL0     C15146   9.150  -1.307   7.553 -0.1489  0.1194 -0.5685
  873MOL0     C15147   9.257  -1.351   7.447  0.5809 -0.7263 -0.5187
  873MOL0    Cl15148   9.182  -1.396   7.290 -0.3576  0.0657  0.0799
  873MOL0     C15149   8.796  -0.402   7.396 -0.1103  0.5482 -0.3340
  873MOL0     C15150   8.837  -0.304   7.313 -1.2688 -0.5645  0.1529
  873MOL0     O15151   9.220  -0.203   7.285 -0.2655 -0.3642 -0.0140
  873MOL0     C15152   9.335  -0.028   7.096  0.0036 -0.5813  0.4745
  873MOL0     C15153   9.383   0.041   6.981  0.2937 -0.0140  0.7267
  873MOL0     N15154   9.844   0.559   6.680  0.4044 -0.4544  0.2832
  873MOL0     N15155   9.937   0.615   6.612 -0.3310 -0.4279 -0.1234
  873MOL0     C15156  10.774   1.271   6.095  0.5345  0.7918 -0.1310
  873MOL0     C15157  10.915   1.282   6.065  0.4855 -0.0844 -0.3623
  873MOL0     C15158  11.316   1.425   5.995 -1.1527  0.0703  0.0343
  873MOL0     C15159  11.366   1.300   5.952  0.5961  0.5866  0.8449
  873MOL0     C15160  11.499   1.269   5.965  0.1274 -0.3137 -0.2335
  873MOL0     C15161  11.585   1.355   6.041 -0.0150  0.3244 -0.3714
  873MOL0     O15162  11.715   1.325   6.070 -0.2135  0.0227  0.5985
  873MOL0     C15163  11.740   1.186   6.092  1.0030  1.1580 -0.8740
  873MOL0     C15164  11.801   1.109   5.980  0.4903  0.3152  0.1440
  873MOL0     C15165  11.900   1.190   5.898  0.6477  0.9385 -0.3091
  873MOL0     C15166  12.021   1.239   5.974 -0.0914 -0.1540  0.3951
  873MOL0     C15167  12.112   1.129   6.001  0.8848 -0.4881  0.9351
  873MOL0     C15168  12.183   1.035   6.031 -0.8872 -0.5671 -0.2643
  873MOL0     C15169  11.541   1.475   6.073  0.4259 -1.6393  0.4604
  873MOL0     C15170  11.406   1.518   6.049  0.6443  0.3440  0.1815
  873MOL0     H15171  10.877   1.438   5.769 -0.5234  3.0923  1.8220
  873MOL0     H15172  10.641   1.389   5.812 -1.5521 -0.2949  1.1546
  873MOL0     H15173  10.515   1.217   6.218  0.8038 -0.1904 -0.5262
  873MOL0     H15174  10.491   1.124   6.071  0.0770 -0.3914  1.4274
  873MOL0     H15175  10.278   1.245   6.033 -2.4098  1.3063  1.2102
  873MOL0     H15176  10.325   1.369   6.153 -0.6769  0.6230  2.6350
  873MOL0     H15177  10.153   1.208   6.257  0.8320  1.8269  2.3352
  873MOL0     H15178  10.314   1.217   6.333 -3.1033  2.1832  0.6701
  873MOL0     H15179  10.238   1.001   6.134  0.6381  1.1057 -0.4143
  873MOL0     H15180  10.372   0.998   6.249  0.5151  0.4416  0.2692
  873MOL0     H15181  10.074   0.967   6.293  0.4138  2.3739 -1.2387
  873MOL0     H15182  10.187   0.987   6.431 -0.9668 -2.6640  0.0561
  873MOL0     H15183  10.316   0.791   6.332  0.4720  0.3584 -1.8680
  873MOL0     H15184  10.188   0.763   6.215 -0.9837 -0.8619 -0.0640
  873MOL0     H15185  10.179   0.608   6.442  1.7899  0.4765 -2.4612
  873MOL0     H15186  10.122   0.752   6.518  0.2578 -1.6863 -0.1164
  873MOL0     H15187   9.969   0.627   6.285 -1.4849  0.6882 -0.3441
  873MOL0     H15188   9.935   0.785   6.347 -0.4445  0.5821  1.9055
  873MOL0     H15189   9.695   0.585   6.399  0.2339 -4.0978 -1.0114
  873MOL0     H15190   9.518   0.545   6.656 -1.1584 -0.7685  3.9060
  873MOL0     H15191   9.623   0.464   6.764  0.6589 -0.8739 -0.0542
  873MOL0     H15192   9.665   0.266   6.595 -1.0706 -0.6345  2.5631
  873MOL0     H15193   9.573   0.359   6.474 -0.1764  0.5842 -0.3137
  873MOL0     H15194   9.371   0.371   6.627 -1.5218 -1.5637 -1.4698
  873MOL0     H15195   9.405   0.208   6.580  0.8509 -0.9048  1.9602
  873MOL0     H15196   9.479   0.315   6.844 -2.3219  0.7300  0.6134
  873MOL0     H15197   9.540   0.168   6.780  0.7564  1.1088  1.2664
  873MOL0     H15198   9.088   0.126   6.837 -0.3328  0.5049  0.1866
  873MOL0     H15199   9.000  -0.015   7.018 -0.3637  2.8954  1.2313
  873MOL0     H15200   9.144  -0.438   7.241 -0.7779 -2.9260 -0.0978
  873MOL0     H15201   9.051  -0.613   7.391 -0.8284 -0.3586  0.3373
  873MOL0     H15202   8.959  -0.692   7.601 -1.8161 -0.0541  1.7725
  873MOL0     H15203   8.911  -0.783   7.451  2.2290 -0.6889  1.3401
  873MOL0     H15204   8.685  -0.811   7.552 -2.7052  1.8954  1.2253
  873MOL0     H15205   8.732  -0.747   7.697  2.5879 -0.6062  2.2179
  873MOL0     H15206   8.718  -1.004   7.671 -1.0754  1.8306 -0.2942
  873MOL0     H15207   8.865  -0.932   7.758 -0.9227  3.0645 -0.0349
  873MOL0     H15208   8.834  -1.027   7.469 -0.4891 -0.4891  0.1471
  873MOL0     H15209   8.988  -0.955   7.542  0.1225 -0.7208  0.6415
  873MOL0     H15210   8.885  -1.229   7.613 -1.1447  1.0770 -0.9813
  873MOL0     H15211   9.002  -1.143   7.707  0.0704  1.1686 -0.2625
  873MOL0     H15212   9.138  -1.097   7.504 -1.0581  1.0675 -0.0930
  873MOL0     H15213   9.041  -1.201   7.402 -0.8115 -0.4598  0.8311
  873MOL0     H15214   9.206  -1.278   7.642  1.2402 -1.3375 -0.9326
  873MOL0     H15215   9.086  -1.393   7.574  1.5245 -0.4675  2.6810
  873MOL0     H15216   9.316  -1.433   7.487  0.8164 -0.3822 -0.1532
  873MOL0     H15217   9.331  -1.270   7.443 -0.3212  0.0934 -1.0292
  873MOL0     H15218   8.703  -0.390   7.451 -0.5671  0.8338 -1.1367
  873MOL0     H15219   8.779  -0.214   7.295  1.3525  1.0653 -0.6084
  873MOL0     H15220   9.395  -0.084   7.166 -1.1693 -1.8099  0.5394
  873MOL0     H15221   9.491   0.042   6.970  0.1722 -1.6861 -1.6200
  873MOL0     H15222  10.736   1.220   6.183 -2.1130  3.3747  0.4012
  873MOL0     H15223  10.994   1.239   6.126  1.1141  0.7449 -0.5728
  873MOL0     H15224  11.300   1.233   5.898 -2.5346  0.8344  3.9923
  873MOL0     H15225  11.538   1.174   5.929 -1.9206 -0.8541 -1.1506
  873MOL0     H15226  11.644   1.148   6.128  1.9047 -0.0582  0.3478
  873MOL0     H15227  11.799   1.168   6.183 -0.4896 -0.4017 -0.1584
  873MOL0     H15228  11.853   1.029   6.033  0.3944  1.4474  2.0437
  873MOL0     H15229  11.736   1.055   5.910  1.0917  0.1585 -0.2979
  873MOL0     H15230  11.843   1.276   5.861 -0.1819  0.5832  0.1319
  873MOL0     H15231  11.927   1.137   5.806  0.9580  0.0029  0.3059
  873MOL0     H15232  12.074   1.314   5.914  0.1240 -0.0128  0.7579
  873MOL0     H15233  11.994   1.296   6.063 -2.7487  1.6737 -1.4255
  873MOL0     H15234  12.245   0.954   6.064 -2.2158 -1.0632  1.1277
  873MOL0     H15235  11.611   1.543   6.119 -1.8079  2.8733 -2.1385
  873MOL0     H15236  11.370   1.614   6.084  0.1594 -0.8451  3.2478
  874MOL0     O15237   7.579   0.081   4.304  1.2169 -0.0155  0.2992
  874MOL0     C15238   7.574   0.060   4.424 -0.1785 -0.4653  0.3016
  874MOL0     O15239   7.469   0.060   4.505 -0.2395  0.7530 -0.3587
  874MOL0     C15240   7.357   0.116   4.459 -0.2606  0.4559  0.3929
  874MOL0     C15241   7.253   0.026   4.446 -0.4377 -0.6008 -0.4947
  874MOL0     C15242   7.128   0.074   4.399 -0.0772 -0.8168  0.3757
  874MOL0     C15243   7.113   0.217   4.363 -0.3021 -0.0478 -0.1617
  874MOL0     O15244   6.978   0.244   4.355  0.4687 -0.3373  0.2523
  874MOL0     C15245   6.956   0.386   4.328 -0.1614  0.0444 -0.2124
  874MOL0     C15246   6.810   0.408   4.349 -0.1605  0.3877  0.6227
  874MOL0     C15247   6.724   0.398   4.218 -0.1615  0.1469  0.8433
  874MOL0     C15248   6.573   0.425   4.230 -0.4868 -0.8208 -0.2819
  874MOL0     C15249   6.504   0.453   4.094  0.3261 -0.1499  0.2852
  874MOL0     C15250   6.534   0.342   3.991  0.8005 -0.4402 -0.0192
  874MOL0     C15251   6.463   0.362   3.851 -0.0858 -0.7267  0.6329
  874MOL0     C15252   6.402   0.237   3.784  0.0297 -0.1927  0.2636
  874MOL0     N15253   6.500   0.131   3.750  0.7791  0.1897 -0.2867
  874MOL0     C15254   6.547   0.050   3.845  0.8524 -0.7164  0.0292
  874MOL0     C15255   6.675   0.017   3.818 -0.0714 -0.5332  0.5689
  874MOL0     C15256   6.784  -0.046   3.906  0.0704 -0.0015  0.1820
  874MOL0     C15257   6.833   0.067   4.002 -0.1177 -0.4007 -0.0563
  874MOL0     C15258   6.954  -0.001   4.072 -0.1923 -0.5452 -0.1709
  874MOL0     C15259   6.923  -0.121   4.162  0.0458 -0.4145 -0.0131
  874MOL0     O15260   6.848  -0.079   4.273 -0.0314  0.4780 -0.0953
  874MOL0     C15261   6.714  -0.094   4.267  0.7408 -0.2209  1.0283
  874MOL0     C15262   6.636   0.019   4.301  0.2425  0.7579  0.5788
  874MOL0     C15263   6.496   0.007   4.317  0.7126  0.1308 -0.0792
  874MOL0     C15264   6.438  -0.125   4.310 -0.1461 -0.3822  0.4770
  874MOL0     C15265   6.297  -0.155   4.342 -0.3358 -0.5388  1.1110
  874MOL0     O15266   6.212  -0.053   4.360  0.3288 -0.2100 -0.2207
  874MOL0     C15267   6.073  -0.058   4.376  0.4073 -0.2774  0.6744
  874MOL0     C15268   6.000   0.048   4.319  0.2199  1.3245 -0.4893
  874MOL0     C15269   5.863   0.058   4.332 -0.1678 -0.1265 -0.5640
  874MOL0     C15270   5.790  -0.039   4.417  0.2076 -1.0886  0.0679
  874MOL0     O15271   5.655  -0.030   4.431 -0.3184 -0.4076 -0.0643
  874MOL0     C15272   5.567  -0.006   4.325  0.7945 -0.3891  0.5501
  874MOL0     C15273   5.519  -0.130   4.254 -0.3195  0.0956  0.6161
  874MOL0     C15274   5.476  -0.254   4.338 -0.0754 -0.5356  0.1972
  874MOL0     C15275   5.391  -0.208   4.459  0.0158 -0.6599  0.1318
  874MOL0     C15276   5.281  -0.299   4.511  0.5456 -0.2891 -0.4807
  874MOL0     C15277   5.159  -0.318   4.418  0.6733  0.7342 -0.0928
  874MOL0     C15278   5.167  -0.442   4.324 -0.5712  0.4431 -0.0474
  874MOL0     C15279   5.035  -0.516   4.296  0.7319 -0.7408  0.4590
  874MOL0    Cl15280   5.036  -0.668   4.191  0.5561 -0.0750 -0.0412
  874MOL0     C15281   5.860  -0.140   4.469  0.2196  0.6512  1.0891
  874MOL0     C15282   5.998  -0.153   4.446  0.3387 -0.4156 -0.1916
  874MOL0     O15283   6.262  -0.271   4.345 -0.1233  0.3162  0.4882
  874MOL0     C15284   6.516  -0.238   4.272 -0.7512  0.5593  0.1534
  874MOL0     C15285   6.652  -0.215   4.246 -0.1061 -0.1271 -0.0843
  874MOL0     N15286   6.696   0.061   3.684  0.0273 -0.3516 -0.6225
  874MOL0     N15287   6.598   0.129   3.650 -0.0275  0.7634 -0.3088
  874MOL0     C15288   7.228   0.300   4.375  0.0746  0.2118 -0.4810
  874MOL0     C15289   7.348   0.252   4.425 -0.1545  0.6675 -0.2958
  874MOL0     C15290   7.707   0.035   4.477 -0.5059  0.1021  0.2825
  874MOL0     C15291   7.726  -0.029   4.604 -0.6813 -0.4877  0.2817
  874MOL0     C15292   7.862  -0.054   4.643  0.6354 -1.5182 -0.8112
  874MOL0     C15293   7.975  -0.021   4.568  1.0324 -0.0649 -0.4750
  874MOL0     O15294   8.098  -0.031   4.615  0.1706  0.4535 -0.2294
  874MOL0     C15295   8.133  -0.152   4.691 -0.0684  0.6026  0.2902
  874MOL0     C15296   8.268  -0.202   4.652 -0.0221  0.7596 -0.3201
  874MOL0     C15297   8.380  -0.118   4.726 -0.4871 -0.8486  0.8557
  874MOL0     C15298   8.414   0.017   4.659  0.8622 -0.8313  0.1203
  874MOL0     C15299   8.553   0.054   4.698  0.7467 -0.2860  0.2103
  874MOL0     C15300   8.667   0.086   4.722 -0.4813 -1.1139 -0.6729
  874MOL0     C15301   7.951   0.064   4.460 -0.0180 -0.2108  0.5955
  874MOL0     C15302   7.825   0.092   4.416 -0.7184  1.0276 -0.1173
  874MOL0     H15303   7.266  -0.078   4.476  0.6258 -0.1139  0.8393
  874MOL0     H15304   7.036   0.016   4.395 -0.4754 -0.1676 -0.1087
  874MOL0     H15305   7.002   0.410   4.232  1.8305  2.5340  1.2568
  874MOL0     H15306   7.008   0.435   4.410  3.2106 -0.9244 -1.6143
  874MOL0     H15307   6.809   0.515   4.371 -1.4649  0.5187  0.0490
  874MOL0     H15308   6.772   0.345   4.431  1.8451 -1.3520  0.2926
  874MOL0     H15309   6.724   0.294   4.182  0.3832  0.6317 -0.6528
  874MOL0     H15310   6.755   0.475   4.147 -1.8510  1.3191  1.3341
  874MOL0     H15311   6.534   0.339   4.285  0.1688 -2.9328 -2.8789
  874MOL0     H15312   6.556   0.517   4.287  1.6385 -0.5283 -0.0302
  874MOL0     H15313   6.540   0.548   4.055  0.1779 -1.2849 -2.9223
  874MOL0     H15314   6.396   0.463   4.101  0.4173  0.1857  1.4371
  874MOL0     H15315   6.509   0.244   4.033 -1.3843 -1.0252 -2.4201
  874MOL0     H15316   6.640   0.340   3.964  0.4269 -0.1593 -1.5968
  874MOL0     H15317   6.381   0.433   3.860 -3.1994 -4.0332  1.0179
  874MOL0     H15318   6.540   0.401   3.785 -0.8872 -1.0359 -0.5206
  874MOL0     H15319   6.373   0.271   3.685  0.8379 -0.2854 -0.0103
  874MOL0     H15320   6.314   0.199   3.837  1.7599 -1.9186  2.1040
  874MOL0     H15321   6.496   0.023   3.937  0.7921  0.8052  0.4668
  874MOL0     H15322   6.849  -0.086   3.828 -1.2719 -0.3768 -0.7860
  874MOL0     H15323   6.737  -0.115   3.976  2.0915 -0.6016  1.0159
  874MOL0     H15324   6.762   0.105   4.076 -0.9871  4.4227 -2.9446
  874MOL0     H15325   6.869   0.159   3.957  0.5816 -1.4228 -1.6904
  874MOL0     H15326   7.016  -0.035   3.988 -4.0158 -0.7626 -3.1546
  874MOL0     H15327   7.016   0.071   4.127 -1.6317  0.6284 -0.0430
  874MOL0     H15328   7.022  -0.164   4.177  0.0315 -0.4925 -0.1392
  874MOL0     H15329   6.864  -0.196   4.108 -1.0877  2.6308 -3.3653
  874MOL0     H15330   6.690   0.113   4.310 -0.9824  1.4168  1.3016
  874MOL0     H15331   6.430   0.090   4.340 -1.1895 -0.5579 -2.5558
  874MOL0     H15332   6.050   0.130   4.270  0.5595  1.4862  0.1161
  874MOL0     H15333   5.806   0.130   4.273 -0.8238 -0.6852 -0.6302
  874MOL0     H15334   5.613   0.064   4.255 -1.2602  0.9211  0.4604
  874MOL0     H15335   5.480   0.035   4.375 -0.1124  0.7422 -1.8338
  874MOL0     H15336   5.600  -0.167   4.190 -0.4142  0.2593  0.3992
  874MOL0     H15337   5.435  -0.117   4.185  1.4109  1.4348 -1.3887
  874MOL0     H15338   5.568  -0.288   4.388 -0.3287  0.6450  1.5469
  874MOL0     H15339   5.417  -0.325   4.279  1.8385  0.9950 -3.9207
  874MOL0     H15340   5.453  -0.199   4.549 -2.6155 -0.6066  2.0717
  874MOL0     H15341   5.344  -0.114   4.428 -1.4322 -1.3215  0.2441
  874MOL0     H15342   5.256  -0.256   4.609  0.0134 -0.9693 -0.3073
  874MOL0     H15343   5.311  -0.402   4.529  0.1655 -0.2105  0.6879
  874MOL0     H15344   5.135  -0.225   4.364  0.6422  2.0207  2.0197
  874MOL0     H15345   5.081  -0.345   4.489  0.3974 -2.3178 -1.4132
  874MOL0     H15346   5.211  -0.424   4.225 -3.9163 -0.2351 -1.7943
  874MOL0     H15347   5.225  -0.521   4.372 -0.7917  0.6191  0.5239
  874MOL0     H15348   4.956  -0.450   4.261 -0.2378 -2.1732 -0.1673
  874MOL0     H15349   4.988  -0.559   4.385 -1.5415 -1.9477 -1.2133
  874MOL0     H15350   5.807  -0.213   4.529 -0.9826  0.7835  0.2362
  874MOL0     H15351   6.055  -0.227   4.501 -2.0771 -0.8337  1.9683
  874MOL0     H15352   6.476  -0.337   4.252 -1.6086  1.2595 -1.8680
  874MOL0     H15353   6.717  -0.300   4.225  0.9749 -0.8842  5.0582
  874MOL0     H15354   7.213   0.407   4.358  0.0264  0.3316  0.3011
  874MOL0     H15355   7.423   0.330   4.431  1.7189 -1.1223  1.3636
  874MOL0     H15356   7.637  -0.046   4.664 -0.5264  2.4632  1.5148
  874MOL0     H15357   7.864  -0.098   4.742  1.2108  0.9490  0.3542
  874MOL0     H15358   8.057  -0.228   4.674  1.5577 -1.0851  0.2480
  874MOL0     H15359   8.139  -0.123   4.796 -0.9757  0.3975  0.4056
  874MOL0     H15360   8.270  -0.310   4.668 -2.7339  0.7667  0.6495
  874MOL0     H15361   8.278  -0.183   4.545 -0.1595  1.2600 -0.2467
  874MOL0     H15362   8.474  -0.175   4.724  0.5739  0.7046 -3.1794
  874MOL0     H15363   8.350  -0.088   4.827  1.6059  1.2217  0.9383
  874MOL0     H15364   8.396   0.010   4.552 -0.4885  3.6161 -0.1130
  874MOL0     H15365   8.341   0.090   4.693  1.5339  0.4078 -1.0318
  874MOL0     H15366   8.765   0.131   4.720 -1.7990  2.1691  1.1846
  874MOL0     H15367   8.037   0.106   4.408  0.4810 -1.0043  0.7551
  874MOL0     H15368   7.802   0.154   4.329 -0.9201  2.8268  1.1612
  875MOL0     O15369   7.098   1.337   5.255 -0.5321 -0.4347  0.2799
  875MOL0     C15370   7.149   1.451   5.268 -0.2679  0.4999  0.0255
  875MOL0     O15371   7.100   1.548   5.343  0.5806 -0.0505 -0.1572
  875MOL0     C15372   6.991   1.524   5.420  0.1603 -0.1742  0.0564
  875MOL0     C15373   6.990   1.565   5.554 -0.0461  0.3514  0.5156
  875MOL0     C15374   6.874   1.541   5.636  0.0027  0.7772 -0.0109
  875MOL0     C15375   6.754   1.485   5.580 -0.1818  0.3828 -0.9156
  875MOL0     O15376   6.646   1.451   5.666 -0.0760 -0.8186  0.7548
  875MOL0     C15377   6.640   1.519   5.788  0.6086  0.5459 -0.3613
  875MOL0     C15378   6.505   1.502   5.872  0.5226 -0.7189 -0.1932
  875MOL0     C15379   6.380   1.563   5.781 -0.3156  0.8841  0.2894
  875MOL0     C15380   6.248   1.523   5.847  0.4222 -0.9695 -0.2891
  875MOL0     C15381   6.126   1.584   5.767  0.4938  0.3888 -0.8900
  875MOL0     C15382   5.990   1.532   5.801  1.3343  0.0304  0.1721
  875MOL0     C15383   5.937   1.600   5.931 -0.2857 -0.4620 -0.4028
  875MOL0     C15384   5.818   1.526   5.982 -0.2094 -0.7578  0.4628
  875MOL0     N15385   5.703   1.618   5.963  0.0527  0.4837  0.5745
  875MOL0     C15386   5.645   1.638   5.840  0.1762  0.5776 -0.4804
  875MOL0     C15387   5.558   1.732   5.869  0.3892  0.0379  0.2178
  875MOL0     C15388   5.465   1.790   5.772  0.1348  0.7343  0.3987
  875MOL0     C15389   5.336   1.695   5.756 -0.3797  0.1734 -0.7047
  875MOL0     C15390   5.269   1.663   5.892 -0.4005 -0.5628 -0.4529
  875MOL0     C15391   5.125   1.602   5.871 -0.7164  0.8119 -0.0177
  875MOL0     O15392   5.047   1.707   5.827  0.2804 -0.3698  0.1843
  875MOL0     C15393   4.932   1.670   5.757 -0.6765 -0.4805  0.2757
  875MOL0     C15394   4.843   1.569   5.805  0.0206 -0.0789  0.4337
  875MOL0     C15395   4.730   1.539   5.729  0.2160  0.8160  1.2454
  875MOL0     C15396   4.705   1.603   5.600  1.1384 -0.1215  0.3583
  875MOL0     C15397   4.589   1.564   5.516  0.4997 -0.3729 -0.5322
  875MOL0     O15398   4.589   1.617   5.393  0.0963  0.3403 -0.6310
  875MOL0     C15399   4.492   1.580   5.305  0.6695 -0.6459  0.2765
  875MOL0     C15400   4.374   1.646   5.299 -0.1038  0.7272  0.4483
  875MOL0     C15401   4.271   1.614   5.203  0.1389 -0.2204 -1.1400
  875MOL0     C15402   4.305   1.537   5.089 -0.4861  0.1311  0.3463
  875MOL0     O15403   4.211   1.529   4.986 -0.1943 -0.1168  0.7956
  875MOL0     C15404   4.234   1.450   4.861 -0.5397 -0.0417  0.2234
  875MOL0     C15405   4.239   1.300   4.872 -0.4756 -0.6706 -0.1826
  875MOL0     C15406   4.185   1.228   4.750  0.1893 -0.0961  0.2454
  875MOL0     C15407   4.261   1.259   4.619 -0.4688 -0.2831 -0.0024
  875MOL0     C15408   4.231   1.156   4.511  0.2048  0.4633 -0.5380
  875MOL0     C15409   4.084   1.158   4.462  0.6507 -0.6773  1.0370
  875MOL0     C15410   4.061   1.033   4.370 -0.3207  0.5038  0.8909
  875MOL0     C15411   3.925   1.037   4.312 -0.1878 -0.3227 -0.7122
  875MOL0    Cl15412   3.789   1.052   4.429  0.0737  0.0332  0.0964
  875MOL0     C15413   4.427   1.475   5.086 -0.3192 -0.3897  0.3001
  875MOL0     C15414   4.515   1.492   5.195  0.3945 -0.6414  0.8865
  875MOL0     O15415   4.507   1.488   5.564  0.2174  0.2877  0.1390
  875MOL0     C15416   4.797   1.704   5.556  0.8720  0.6159  0.5695
  875MOL0     C15417   4.912   1.731   5.633  0.2658 -0.6600  0.0879
  875MOL0     N15418   5.555   1.755   6.006 -0.1452  0.1394  0.2158
  875MOL0     N15419   5.655   1.695   6.059 -0.0235  0.0494 -0.1378
  875MOL0     C15420   6.751   1.463   5.444 -0.4812  0.5121 -0.2384
  875MOL0     C15421   6.868   1.481   5.364  0.6944  0.2887  0.8899
  875MOL0     C15422   7.287   1.451   5.221 -0.3165  0.8673  0.8444
  875MOL0     C15423   7.389   1.514   5.292  1.2482 -0.6474  0.3389
  875MOL0     C15424   7.520   1.518   5.245  0.0414  0.2579 -0.4180
  875MOL0     C15425   7.568   1.437   5.133  1.3193  0.0005  0.7701
  875MOL0     O15426   7.699   1.442   5.098 -0.2996  0.1012 -0.1041
  875MOL0     C15427   7.740   1.397   4.968  1.0156  0.6317 -0.2752
  875MOL0     C15428   7.771   1.243   4.972  0.3495 -0.5057  0.9045
  875MOL0     C15429   7.907   1.209   5.036  0.0692 -0.2806 -0.6036
  875MOL0     C15430   7.902   1.068   5.092  0.2036 -0.3691  0.4969
  875MOL0     C15431   7.894   0.957   4.993  0.7400 -0.4537  0.1146
  875MOL0     C15432   7.872   0.858   4.916 -0.2856 -0.3346 -1.3725
  875MOL0     C15433   7.456   1.371   5.063  0.7703 -0.8649  0.0446
  875MOL0     C15434   7.323   1.385   5.104  0.4277 -0.4694  1.3114
  875MOL0     H15435   7.087   1.592   5.593 -0.6092  2.1703  0.7441
  875MOL0     H15436   6.893   1.572   5.739  0.9308  0.5799 -0.1130
  875MOL0     H15437   6.650   1.626   5.771 -2.1242  1.2246  1.6935
  875MOL0     H15438   6.717   1.484   5.858  0.5806 -0.9530 -1.0411
  875MOL0     H15439   6.502   1.546   5.972  1.8888 -0.0618 -0.4131
  875MOL0     H15440   6.488   1.397   5.894  1.2210 -0.3153  2.5734
  875MOL0     H15441   6.387   1.509   5.686  1.5041  3.6789 -1.3066
  875MOL0     H15442   6.385   1.670   5.760 -0.9407  0.7942 -0.3796
  875MOL0     H15443   6.248   1.414   5.838 -0.5823 -0.9045 -1.2153
  875MOL0     H15444   6.242   1.547   5.954  2.8685 -1.0723 -0.0768
  875MOL0     H15445   6.146   1.570   5.661  2.1147 -1.5563 -0.3800
  875MOL0     H15446   6.124   1.691   5.793 -2.5246 -0.2370  2.3395
  875MOL0     H15447   5.999   1.424   5.814  1.1012  0.0366  0.3846
  875MOL0     H15448   5.915   1.545   5.722 -2.4330 -0.7847  3.3527
  875MOL0     H15449   6.019   1.595   6.003 -1.9799  2.2637  1.9471
  875MOL0     H15450   5.913   1.705   5.912 -0.1366 -0.4127 -0.3184
  875MOL0     H15451   5.833   1.498   6.086  3.9581 -0.6631  0.0621
  875MOL0     H15452   5.800   1.441   5.915 -2.5317 -0.4894  0.6732
  875MOL0     H15453   5.659   1.579   5.751  0.7490  1.1246 -0.7573
  875MOL0     H15454   5.519   1.802   5.678 -0.7401 -0.8877 -0.3579
  875MOL0     H15455   5.435   1.891   5.801  2.0804  1.2260  0.8462
  875MOL0     H15456   5.380   1.601   5.721  1.3681 -0.2725  2.3432
  875MOL0     H15457   5.264   1.733   5.683 -2.2277 -2.5263 -0.4737
  875MOL0     H15458   5.328   1.588   5.945 -0.5713 -1.2162 -1.1609
  875MOL0     H15459   5.267   1.749   5.959  5.0253 -0.4355  0.0095
  875MOL0     H15460   5.084   1.561   5.963 -1.1769 -1.5186 -1.1790
  875MOL0     H15461   5.134   1.526   5.793 -0.6522 -0.8607  1.5620
  875MOL0     H15462   4.857   1.517   5.899  1.4271 -0.0450  0.2662
  875MOL0     H15463   4.651   1.471   5.759 -0.6897  1.4130  0.2757
  875MOL0     H15464   4.362   1.709   5.387  3.3644  4.1162 -1.1949
  875MOL0     H15465   4.170   1.651   5.209  0.5341  0.6074  2.3370
  875MOL0     H15466   4.321   1.494   4.810 -2.8397  3.0598 -1.3600
  875MOL0     H15467   4.143   1.471   4.805 -1.6412 -2.9014  0.7700
  875MOL0     H15468   4.192   1.273   4.967 -1.0042 -0.2666 -0.3275
  875MOL0     H15469   4.342   1.263   4.886  0.0768  1.2013  1.1153
  875MOL0     H15470   4.077   1.239   4.731  0.2258 -0.9885 -0.6036
  875MOL0     H15471   4.193   1.120   4.769  0.4519 -1.7123 -6.3072
  875MOL0     H15472   4.223   1.356   4.586 -0.3879  0.4525  1.9656
  875MOL0     H15473   4.368   1.270   4.639 -0.6237  1.4103  0.0615
  875MOL0     H15474   4.262   1.054   4.537  0.0899  0.0928 -1.7940
  875MOL0     H15475   4.294   1.185   4.426  1.1952  0.7768  0.2783
  875MOL0     H15476   4.079   1.253   4.409  0.8703 -0.0732  2.0536
  875MOL0     H15477   4.009   1.150   4.541 -0.0576 -1.5408  0.2856
  875MOL0     H15478   4.143   1.030   4.297  2.2400  0.1418  3.6092
  875MOL0     H15479   4.085   0.945   4.431  1.1205  0.8175  0.8131
  875MOL0     H15480   3.914   0.944   4.255  0.1738 -0.5407 -0.4331
  875MOL0     H15481   3.919   1.128   4.252  1.7283  1.5532  1.7290
  875MOL0     H15482   4.471   1.425   5.000 -4.5666 -0.1073 -2.3418
  875MOL0     H15483   4.611   1.441   5.195  0.1491 -1.1755 -0.9916
  875MOL0     H15484   4.784   1.742   5.455 -0.3065 -1.6035 -0.1754
  875MOL0     H15485   4.979   1.805   5.590 -2.7053  1.5500 -1.1014
  875MOL0     H15486   6.668   1.413   5.394  2.2400 -0.9570 -3.6965
  875MOL0     H15487   6.852   1.460   5.259 -2.3649  0.9580  1.1438
  875MOL0     H15488   7.376   1.567   5.385  2.0542 -0.2824  0.2549
  875MOL0     H15489   7.596   1.586   5.284 -0.2163  1.4133 -1.8372
  875MOL0     H15490   7.828   1.453   4.935  2.0049 -1.1869 -0.8462
  875MOL0     H15491   7.664   1.415   4.890  1.8436  4.1346 -0.4295
  875MOL0     H15492   7.684   1.195   5.019  1.7940 -2.1873  1.9813
  875MOL0     H15493   7.769   1.203   4.870 -1.9493  1.1587  0.2150
  875MOL0     H15494   7.938   1.271   5.121 -2.6328  0.0344  0.2375
  875MOL0     H15495   7.977   1.221   4.953  1.2835  2.8077  0.6945
  875MOL0     H15496   7.984   1.051   5.162 -2.6183  0.2127  4.2396
  875MOL0     H15497   7.818   1.061   5.161  0.7403 -2.1601  1.0319
  875MOL0     H15498   7.850   0.783   4.843 -0.9056  0.1059 -1.6400
  875MOL0     H15499   7.480   1.319   4.971  1.1973  0.0886 -0.3969
  875MOL0     H15500   7.239   1.352   5.043  0.9303  1.7095 -0.7112
  876MOL0     O15501   3.863   7.395   0.454 -0.1040  0.2023  0.1297
  876MOL0     C15502   3.928   7.330   0.366  0.1378 -0.6602  0.1351
  876MOL0     O15503   3.867   7.238   0.282  0.8279  0.4055 -0.6687
  876MOL0     C15504   3.732   7.218   0.317  0.2951  0.6931  0.0458
  876MOL0     C15505   3.703   7.143   0.432  0.3389  0.6227 -0.3560
  876MOL0     C15506   3.576   7.150   0.490 -0.5080  0.3384 -1.1551
  876MOL0     C15507   3.464   7.211   0.421 -0.1545 -0.5794  0.1472
  876MOL0     O15508   3.342   7.213   0.486  0.4533  0.6576  0.5629
  876MOL0     C15509   3.239   7.240   0.394 -0.0121 -0.6017 -0.2485
  876MOL0     C15510   3.109   7.234   0.457 -0.0534 -0.2771 -0.4396
  876MOL0     C15511   3.056   7.094   0.494 -0.9105 -0.2086 -0.6084
  876MOL0     C15512   2.922   7.109   0.559  0.4976 -0.0760  0.0401
  876MOL0     C15513   2.850   6.968   0.561  0.1356 -0.1256  0.1468
  876MOL0     C15514   2.702   6.974   0.601  0.3943 -0.7084  0.1117
  876MOL0     C15515   2.650   6.832   0.638 -0.5028  0.7936 -0.3971
  876MOL0     C15516   2.506   6.820   0.688  0.2546 -0.9877 -0.1814
  876MOL0     N15517   2.404   6.872   0.588  0.0036  0.6167 -0.3113
  876MOL0     C15518   2.385   6.833   0.456  0.7793 -0.2777  0.0625
  876MOL0     C15519   2.286   6.918   0.416 -0.8619 -0.5731  0.3034
  876MOL0     C15520   2.208   6.921   0.293 -0.6928 -0.4300 -0.2260
  876MOL0     C15521   2.094   6.814   0.309  0.3201 -0.4002 -0.5317
  876MOL0     C15522   2.139   6.666   0.278 -0.0050 -0.4152  0.2363
  876MOL0     C15523   2.028   6.583   0.302  0.7618 -0.7980  0.1966
  876MOL0     O15524   2.062   6.446   0.259 -0.3910 -0.1830  0.0040
  876MOL0     C15525   1.978   6.341   0.230  0.3285  0.7432 -0.3156
  876MOL0     C15526   1.842   6.352   0.230  0.0885 -0.2966  0.1158
  876MOL0     C15527   1.765   6.243   0.200  0.9399 -0.7056 -0.7582
  876MOL0     C15528   1.820   6.122   0.164  0.5967  0.1336  0.7223
  876MOL0     C15529   1.732   6.005   0.118  0.2882 -0.0162  0.6157
  876MOL0     O15530   1.607   6.032   0.073  0.7950  0.5675 -0.2229
  876MOL0     C15531   1.514   5.932   0.045  0.7694 -0.5688 -1.2098
  876MOL0     C15532   1.417   5.945  -0.065 -0.5799  0.3723 -0.2236
  876MOL0     C15533   1.335   5.840  -0.106  1.4026  0.2052  0.2588
  876MOL0     C15534   1.335   5.716  -0.048  1.1052  0.8177  0.3850
  876MOL0     O15535   1.254   5.614  -0.093  0.4096 -0.7236  0.0305
  876MOL0     C15536   1.116   5.636  -0.060 -0.0633  1.1362 -0.0791
  876MOL0     C15537   1.043   5.655  -0.190  0.2556 -0.4793 -0.1421
  876MOL0     C15538   0.890   5.635  -0.174 -0.4213 -0.6369 -0.1239
  876MOL0     C15539   0.805   5.663  -0.296  0.1680 -0.1559  0.3805
  876MOL0     C15540   0.661   5.662  -0.271 -0.3070 -0.7615 -0.8169
  876MOL0     C15541   0.604   5.525  -0.236 -1.1260 -0.2975  1.0789
  876MOL0     C15542   0.456   5.537  -0.229 -0.5710 -0.8603 -0.1981
  876MOL0     C15543   0.386   5.412  -0.176 -0.0893  0.1202 -0.4545
  876MOL0    Cl15544   0.208   5.424  -0.155  0.2817  0.0967 -0.3203
  876MOL0     C15545   1.423   5.702   0.060 -0.0265  0.2289  0.0571
  876MOL0     C15546   1.507   5.809   0.110 -0.2526  0.4277 -0.1326
  876MOL0     O15547   1.784   5.894   0.117 -0.9072 -0.3030 -0.2720
  876MOL0     C15548   1.962   6.111   0.161 -0.0334  0.2824 -0.0985
  876MOL0     C15549   2.039   6.222   0.204 -0.1710 -0.3304  0.5041
  876MOL0     N15550   2.259   7.004   0.517 -1.1711 -0.0361  0.9753
  876MOL0     N15551   2.317   6.974   0.624 -0.9975  0.2541 -1.0353
  876MOL0     C15552   3.500   7.279   0.304  0.6537 -0.3038 -0.1676
  876MOL0     C15553   3.631   7.293   0.259 -0.4062  1.5839  0.9676
  876MOL0     C15554   4.064   7.361   0.348 -0.0833  0.3161  0.1606
  876MOL0     C15555   4.127   7.330   0.231  0.3084 -0.2206  0.1577
  876MOL0     C15556   4.251   7.370   0.203 -0.0185  0.4009  0.2254
  876MOL0     C15557   4.319   7.456   0.286 -1.2255  0.4956 -0.2913
  876MOL0     O15558   4.445   7.512   0.262  0.9122 -0.6067  0.1963
  876MOL0     C15559   4.521   7.448   0.165 -0.2263 -0.9671 -0.2199
  876MOL0     C15560   4.496   7.496   0.022  0.6588  1.1233 -0.0349
  876MOL0     C15561   4.490   7.650  -0.013  0.6094  0.2552 -0.3415
  876MOL0     C15562   4.608   7.721   0.050 -0.8001  0.4183 -0.2157
  876MOL0     C15563   4.602   7.868   0.023 -0.4539 -0.3039  0.1637
  876MOL0     C15564   4.588   7.992   0.009  0.0106  0.1388  1.2674
  876MOL0     C15565   4.263   7.494   0.405 -0.9982  0.3012 -0.9514
  876MOL0     C15566   4.132   7.448   0.435 -0.7739 -0.8397 -0.6118
  876MOL0     H15567   3.789   7.108   0.489  0.2578 -0.5277 -0.9150
  876MOL0     H15568   3.562   7.123   0.594  0.0967  2.3064 -0.5225
  876MOL0     H15569   3.236   7.169   0.311  1.2838 -2.9630  1.6028
  876MOL0     H15570   3.250   7.340   0.351 -4.4141 -0.0521 -0.5888
  876MOL0     H15571   3.035   7.286   0.396  1.4569  1.9565 -0.5006
  876MOL0     H15572   3.113   7.291   0.550  1.4989  1.2084 -1.3664
  876MOL0     H15573   3.122   7.038   0.562  0.8758 -0.5255 -2.4955
  876MOL0     H15574   3.058   7.036   0.402  3.2032 -0.0690 -0.7993
  876MOL0     H15575   2.925   7.160   0.656  0.7453 -0.2607  0.1302
  876MOL0     H15576   2.869   7.180   0.495  3.5113 -0.4439 -3.1722
  876MOL0     H15577   2.902   6.909   0.637 -0.5377 -0.9048  0.0164
  876MOL0     H15578   2.866   6.914   0.468  0.2903 -0.2754  0.2617
  876MOL0     H15579   2.653   7.028   0.520  2.9007  1.7319  0.1140
  876MOL0     H15580   2.676   7.039   0.685 -2.4258 -0.4672 -0.8485
  876MOL0     H15581   2.658   6.770   0.548 -1.5387 -0.2306  0.1890
  876MOL0     H15582   2.718   6.785   0.710 -2.8429 -1.0906  0.7156
  876MOL0     H15583   2.488   6.876   0.781 -2.7153  1.0270 -1.8059
  876MOL0     H15584   2.479   6.716   0.706 -2.5012 -0.8960 -3.0063
  876MOL0     H15585   2.441   6.757   0.403  0.4571 -0.4986  0.0371
  876MOL0     H15586   2.269   6.904   0.204  0.4548 -2.3624  0.8652
  876MOL0     H15587   2.159   7.017   0.273  1.3716  0.7511  0.1290
  876MOL0     H15588   2.015   6.837   0.237  0.4115 -1.2090 -0.8944
  876MOL0     H15589   2.060   6.829   0.412  2.7911 -0.3338  0.3433
  876MOL0     H15590   2.167   6.671   0.173  0.5214  0.6965  0.4091
  876MOL0     H15591   2.227   6.652   0.340 -1.0559 -0.7488  1.7111
  876MOL0     H15592   1.936   6.631   0.267 -0.9038 -1.6447  3.0544
  876MOL0     H15593   2.012   6.565   0.409  5.1203 -2.9004  0.7129
  876MOL0     H15594   1.798   6.446   0.263 -1.9889 -2.0386  2.7191
  876MOL0     H15595   1.658   6.260   0.197  1.1221  0.9699  0.6070
  876MOL0     H15596   1.408   6.033  -0.127 -0.9532  0.3295 -0.2297
  876MOL0     H15597   1.260   5.859  -0.182 -0.6077  1.9295  2.5217
  876MOL0     H15598   1.108   5.728  -0.000  0.4186  1.9905 -1.2954
  876MOL0     H15599   1.067   5.547  -0.020  0.6398  0.0550 -1.5716
  876MOL0     H15600   1.080   5.583  -0.263 -2.2992  0.3207 -2.4089
  876MOL0     H15601   1.074   5.754  -0.225  0.0586 -0.3139  0.1449
  876MOL0     H15602   0.858   5.696  -0.089  1.0536  1.5691 -1.0571
  876MOL0     H15603   0.885   5.529  -0.147  2.8387 -1.2893 -1.6627
  876MOL0     H15604   0.829   5.762  -0.335  1.2181 -1.2329 -1.9655
  876MOL0     H15605   0.833   5.589  -0.373 -0.8122 -0.6586  0.4861
  876MOL0     H15606   0.612   5.706  -0.359 -1.8284 -0.1406  0.3082
  876MOL0     H15607   0.638   5.728  -0.187 -4.9342 -2.6065 -0.3559
  876MOL0     H15608   0.653   5.480  -0.148 -2.0152  1.2983  2.4486
  876MOL0     H15609   0.617   5.462  -0.324  1.1695  2.9769 -1.1803
  876MOL0     H15610   0.441   5.630  -0.175  1.8618 -1.6191  1.9960
  876MOL0     H15611   0.416   5.553  -0.329  1.0066  2.5685 -0.4146
  876MOL0     H15612   0.425   5.393  -0.075  1.6476  0.6838 -0.9710
  876MOL0     H15613   0.400   5.327  -0.243  1.3233  0.0260 -0.0805
  876MOL0     H15614   1.434   5.601   0.097 -0.2517 -0.7423 -2.3806
  876MOL0     H15615   1.567   5.783   0.197 -1.6936 -1.7102  0.3093
  876MOL0     H15616   2.020   6.020   0.154 -1.1776 -0.6887  2.0292
  876MOL0     H15617   2.147   6.218   0.217 -0.0669  2.1800  0.8578
  876MOL0     H15618   3.434   7.342   0.246  0.8395  3.8891  3.6098
  876MOL0     H15619   3.652   7.350   0.169  1.5225 -0.8767 -0.2902
  876MOL0     H15620   4.077   7.264   0.161  1.4882 -2.2908  1.1673
  876MOL0     H15621   4.291   7.327   0.111  4.2653  3.2919  0.4481
  876MOL0     H15622   4.511   7.339   0.167 -3.0498 -0.8129 -1.3038
  876MOL0     H15623   4.621   7.478   0.198 -0.0777 -0.9953 -0.6404
  876MOL0     H15624   4.571   7.443  -0.037  0.3337  1.7484 -1.0395
  876MOL0     H15625   4.401   7.452  -0.010  0.2823  0.9802  1.2240
  876MOL0     H15626   4.399   7.693   0.030  1.9666  1.2956  1.6221
  876MOL0     H15627   4.495   7.643  -0.122 -2.1423 -1.9386 -0.4640
  876MOL0     H15628   4.623   7.708   0.157  1.8343 -0.6693 -0.6436
  876MOL0     H15629   4.696   7.676   0.003  0.6151  2.1433  0.6574
  876MOL0     H15630   4.570   8.095  -0.015 -1.1275 -0.2694  0.2396
  876MOL0     H15631   4.306   7.574   0.463  1.0316  0.5626 -2.6710
  876MOL0     H15632   4.089   7.486   0.528  0.0179 -0.0733 -0.5367
  877MOL0     O15633   0.264   3.213   9.798 -0.1968 -0.1543 -0.3719
  877MOL0     C15634   0.253   3.108   9.856 -0.1619 -0.0535  1.0410
  877MOL0     O15635   0.169   3.003   9.821 -0.9472 -0.1113  0.1754
  877MOL0     C15636   0.057   3.031   9.750  0.8016 -0.1537  0.8224
  877MOL0     C15637  -0.050   3.099   9.811 -0.5129 -0.1497 -1.1237
  877MOL0     C15638  -0.173   3.124   9.748  0.8331 -0.1323  0.8292
  877MOL0     C15639  -0.175   3.097   9.608 -0.0941 -0.2299 -0.4784
  877MOL0     O15640  -0.294   3.100   9.541 -0.2484 -0.0269  0.2487
  877MOL0     C15641  -0.413   3.069   9.618 -0.5540  0.7277  0.0218
  877MOL0     C15642  -0.522   3.058   9.516  0.4832  0.2671  0.1997
  877MOL0     C15643  -0.660   3.053   9.573  0.7071 -0.8239 -0.3588
  877MOL0     C15644  -0.764   3.001   9.471  0.2720 -0.0828  0.5185
  877MOL0     C15645  -0.754   2.850   9.434  0.0862  0.8040  0.2864
  877MOL0     C15646  -0.840   2.788   9.326 -0.3049  0.3402  0.3885
  877MOL0     C15647  -0.839   2.861   9.188  0.9420 -0.9344  0.3838
  877MOL0     C15648  -0.731   2.814   9.088  0.2388 -0.6617 -0.6008
  877MOL0     N15649  -0.595   2.861   9.124 -0.3958 -0.6264  0.0040
  877MOL0     C15650  -0.486   2.804   9.179  0.3086 -1.5691 -0.2806
  877MOL0     C15651  -0.398   2.920   9.197  0.5052 -0.4131 -0.3991
  877MOL0     C15652  -0.248   2.916   9.226  0.7693  0.5100 -0.2270
  877MOL0     C15653  -0.182   2.779   9.234  0.0957  0.3314 -0.6117
  877MOL0     C15654  -0.187   2.705   9.370 -0.0995 -0.5843  0.8389
  877MOL0     C15655  -0.311   2.657   9.432  0.2054 -0.3781 -0.7506
  877MOL0     O15656  -0.357   2.534   9.367  0.1612  0.2267  0.4901
  877MOL0     C15657  -0.472   2.480   9.411  0.1937 -0.2469  0.1232
  877MOL0     C15658  -0.506   2.374   9.327  0.2743 -0.3384  0.2456
  877MOL0     C15659  -0.627   2.302   9.361 -0.1047  0.7904  0.5067
  877MOL0     C15660  -0.711   2.349   9.460  1.0928  0.5419  0.3245
  877MOL0     C15661  -0.844   2.297   9.477 -0.4542  0.0622 -0.8977
  877MOL0     O15662  -0.945   2.395   9.459 -0.3543 -0.2239  0.4370
  877MOL0     C15663  -1.057   2.382   9.537 -0.0451 -0.0320 -0.0141
  877MOL0     C15664  -1.072   2.305   9.650  0.6943 -0.3679 -0.0174
  877MOL0     C15665  -1.197   2.288   9.714  0.4490  0.1435 -0.6275
  877MOL0     C15666  -1.318   2.326   9.655 -0.3801 -0.3424  0.7750
  877MOL0     O15667  -1.435   2.290   9.718 -0.6105 -0.6940 -0.2159
  877MOL0     C15668  -1.535   2.396   9.704  1.2132 -0.1158  0.5422
  877MOL0     C15669  -1.628   2.398   9.824  0.5675 -0.3171 -0.2140
  877MOL0     C15670  -1.747   2.494   9.798  1.0074  0.3771 -0.7159
  877MOL0     C15671  -1.849   2.493   9.919  0.4057 -0.8046 -0.9097
  877MOL0     C15672  -1.939   2.613   9.906 -0.1529  0.3643  0.2648
  877MOL0     C15673  -2.039   2.618  10.023  0.2918 -0.8917 -0.4598
  877MOL0     C15674  -1.974   2.636  10.161 -0.4185  0.8196  0.6152
  877MOL0     C15675  -1.896   2.763  10.158 -0.7210  0.1163  0.4130
  877MOL0    Cl15676  -1.829   2.815  10.314  0.7385  0.1396 -0.1128
  877MOL0     C15677  -1.299   2.399   9.533 -0.0319  0.7680 -0.3602
  877MOL0     C15678  -1.173   2.432   9.483  0.1160 -0.8534  0.2365
  877MOL0     O15679  -0.861   2.187   9.531  0.1961 -0.1212 -0.3751
  877MOL0     C15680  -0.678   2.459   9.529  0.0035 -0.1366 -0.9745
  877MOL0     C15681  -0.564   2.528   9.514  0.5264  0.2893 -0.1111
  877MOL0     N15682  -0.456   3.030   9.129  0.5071  0.3375 -0.7753
  877MOL0     N15683  -0.578   2.997   9.101 -0.3837  0.1730 -0.8703
  877MOL0     C15684  -0.066   3.032   9.545 -0.1679  0.2015 -0.4776
  877MOL0     C15685   0.054   2.996   9.612 -0.5084 -0.1174 -0.0063
  877MOL0     C15686   0.334   3.087   9.980 -0.0418 -0.4973 -0.1290
  877MOL0     C15687   0.418   3.188  10.026 -0.0969 -0.1082  0.1241
  877MOL0     C15688   0.497   3.177  10.141 -0.5029  0.0320 -0.0926
  877MOL0     C15689   0.469   3.075  10.231  0.8022 -0.2337  0.3365
  877MOL0     O15690   0.522   3.092  10.354  0.3575 -1.0257 -0.0147
  877MOL0     C15691   0.601   2.991  10.409  0.4608 -0.0381 -0.1863
  877MOL0     C15692   0.750   3.000  10.363  0.5421 -0.0860  0.4294
  877MOL0     C15693   0.837   3.114  10.416 -0.1844  0.9843 -0.5947
  877MOL0     C15694   0.901   3.068  10.544 -0.0814 -0.1779  0.3461
  877MOL0     C15695   0.993   3.179  10.595 -0.4489 -0.2497  0.5081
  877MOL0     C15696   1.057   3.267  10.650 -0.0913  0.2179  0.7225
  877MOL0     C15697   0.383   2.968  10.186  0.7825  0.1090  0.5517
  877MOL0     C15698   0.322   2.963  10.060  0.0515  0.0427 -0.2448
  877MOL0     H15699  -0.033   3.132   9.913  0.8208 -1.4912 -0.8845
  877MOL0     H15700  -0.257   3.180   9.789 -2.9270 -3.3601 -1.6407
  877MOL0     H15701  -0.432   3.149   9.691  0.9904 -1.3242  2.8214
  877MOL0     H15702  -0.404   2.976   9.674 -0.2784  1.6651  1.6228
  877MOL0     H15703  -0.499   2.963   9.466  2.7623  2.3089 -3.0618
  877MOL0     H15704  -0.513   3.117   9.425  1.0012 -2.9394 -1.9987
  877MOL0     H15705  -0.692   3.152   9.609  0.4657 -1.9391  2.8281
  877MOL0     H15706  -0.664   2.998   9.668  4.4167  3.2770  2.5638
  877MOL0     H15707  -0.861   3.038   9.506  1.8159  1.3802  3.5951
  877MOL0     H15708  -0.746   3.043   9.372  2.5348 -0.7872  0.5675
  877MOL0     H15709  -0.790   2.797   9.522 -0.7414  1.0294  0.0941
  877MOL0     H15710  -0.650   2.832   9.407  0.8915  4.4052  0.4771
  877MOL0     H15711  -0.945   2.783   9.355 -0.7210  1.2584 -0.8851
  877MOL0     H15712  -0.816   2.684   9.304  4.2027  1.1295  0.6472
  877MOL0     H15713  -0.936   2.827   9.151  0.1338  1.7546 -0.2209
  877MOL0     H15714  -0.836   2.970   9.199  1.1961 -1.0851  2.0924
  877MOL0     H15715  -0.764   2.861   8.995 -0.5976  1.0943  0.5242
  877MOL0     H15716  -0.730   2.705   9.079 -0.6566 -0.6481 -1.0121
  877MOL0     H15717  -0.469   2.697   9.193  0.7499 -1.5613 -0.7296
  877MOL0     H15718  -0.221   2.960   9.322  2.2324  0.7193 -0.6988
  877MOL0     H15719  -0.209   2.973   9.141 -0.0896 -0.8356 -1.5840
  877MOL0     H15720  -0.078   2.785   9.201  0.7342 -3.2360  0.3484
  877MOL0     H15721  -0.227   2.713   9.160  0.9231 -0.8816 -0.0558
  877MOL0     H15722  -0.131   2.614   9.346  0.9111  0.5445 -1.3329
  877MOL0     H15723  -0.124   2.757   9.443 -1.2687  1.1755  0.6267
  877MOL0     H15724  -0.380   2.742   9.432  2.4237  1.5306 -0.0529
  877MOL0     H15725  -0.291   2.638   9.537  4.1707  1.9648 -0.8919
  877MOL0     H15726  -0.465   2.343   9.232 -1.5156  1.7121 -1.2772
  877MOL0     H15727  -0.655   2.208   9.315  0.4969 -1.2556  3.9236
  877MOL0     H15728  -0.990   2.272   9.713 -0.3332  0.7509  2.0375
  877MOL0     H15729  -1.197   2.232   9.807 -0.0108  1.7310  0.3747
  877MOL0     H15730  -1.589   2.388   9.610  0.3442  2.0200  0.7962
  877MOL0     H15731  -1.489   2.495   9.715  1.5175 -0.5162  4.9579
  877MOL0     H15732  -1.594   2.432   9.922 -1.4483 -0.0149  0.4213
  877MOL0     H15733  -1.663   2.295   9.832  1.2636 -0.5871 -0.5002
  877MOL0     H15734  -1.804   2.457   9.712 -3.0334  3.7498  0.2040
  877MOL0     H15735  -1.714   2.596   9.775  1.3663  0.4262 -0.0185
  877MOL0     H15736  -1.907   2.400   9.923  1.2300 -1.2994  1.7891
  877MOL0     H15737  -1.783   2.506  10.006 -1.2296  1.9505  0.0382
  877MOL0     H15738  -1.999   2.601   9.815 -0.5765 -2.3729  0.8263
  877MOL0     H15739  -1.869   2.697   9.905  2.2434 -1.4477  2.6581
  877MOL0     H15740  -2.100   2.527  10.028  3.3436 -3.0540  2.4538
  877MOL0     H15741  -2.103   2.702   9.995  1.6944  0.3395 -0.0854
  877MOL0     H15742  -2.060   2.637  10.228  0.1322 -1.1556  1.4175
  877MOL0     H15743  -1.910   2.549  10.177  1.0586  1.6629 -0.4671
  877MOL0     H15744  -1.957   2.846  10.121 -0.4090  0.1474 -0.0473
  877MOL0     H15745  -1.809   2.760  10.091  0.3304  1.2993  1.6739
  877MOL0     H15746  -1.381   2.444   9.478  0.6028 -1.4032 -3.3385
  877MOL0     H15747  -1.176   2.492   9.393  0.0655 -1.9959 -0.5497
  877MOL0     H15748  -0.739   2.489   9.614  1.6957 -0.0031  0.2405
  877MOL0     H15749  -0.548   2.614   9.578  0.5178 -2.1444  3.4368
  877MOL0     H15750  -0.056   3.018   9.438 -0.8509  1.2615 -0.7039
  877MOL0     H15751   0.138   2.945   9.564 -0.5428  0.4005 -0.6233
  877MOL0     H15752   0.427   3.283   9.974  0.7230  0.7154  1.7073
  877MOL0     H15753   0.567   3.252  10.176  0.8477 -1.1157 -0.2243
  877MOL0     H15754   0.579   2.891  10.372  0.4035 -0.6186  1.3332
  877MOL0     H15755   0.590   2.990  10.518  1.6817  2.2826  0.0290
  877MOL0     H15756   0.805   2.907  10.380 -0.0812 -0.4576  0.4508
  877MOL0     H15757   0.745   3.007  10.254 -1.0406 -3.8718  0.1065
  877MOL0     H15758   0.779   3.203  10.440 -1.7105  0.0476 -0.7159
  877MOL0     H15759   0.919   3.137  10.347  1.3888  1.0975  1.1970
  877MOL0     H15760   0.822   3.047  10.617 -0.7326  3.2767  0.7876
  877MOL0     H15761   0.956   2.974  10.530 -0.1440 -0.4903  1.9382
  877MOL0     H15762   1.116   3.345  10.695  0.5341 -2.5141  5.1887
  877MOL0     H15763   0.375   2.884  10.253 -2.7271 -0.1707 -0.0096
  877MOL0     H15764   0.272   2.870  10.036  0.2532 -1.3688  4.0008
  878MOL0     O15765  10.061   1.205   8.461  0.0694 -0.5693  0.5489
  878MOL0     C15766  10.140   1.193   8.549 -0.2678 -0.5870  0.3383
  878MOL0     O15767  10.094   1.179   8.679  0.0129 -0.0739  0.4199
  878MOL0     C15768   9.964   1.134   8.695  0.3723  0.3364 -0.4045
  878MOL0     C15769   9.856   1.223   8.658  0.0687  0.0251  1.1265
  878MOL0     C15770   9.724   1.206   8.701 -0.2479 -1.0265  0.2668
  878MOL0     C15771   9.694   1.101   8.788  0.4460  0.8330  0.2334
  878MOL0     O15772   9.566   1.091   8.835  0.8040  0.1739  0.0800
  878MOL0     C15773   9.532   1.020   8.952  0.2852  0.2175 -0.1377
  878MOL0     C15774   9.385   1.043   8.971 -0.0488  0.2955 -0.6733
  878MOL0     C15775   9.340   1.195   8.998  0.4983  1.1416 -0.3725
  878MOL0     C15776   9.197   1.211   9.015  0.0741  0.6453  0.1699
  878MOL0     C15777   9.106   1.181   8.894 -0.0772  0.3065  0.3920
  878MOL0     C15778   8.964   1.224   8.925  0.4327 -0.5955  0.5947
  878MOL0     C15779   8.896   1.136   9.023  0.4441  0.6093  0.8547
  878MOL0     C15780   8.841   1.205   9.149  0.6829 -0.8567  0.3707
  878MOL0     N15781   8.709   1.267   9.130  1.0640 -0.3721  0.0366
  878MOL0     C15782   8.684   1.379   9.046 -0.8060 -0.2106  0.1358
  878MOL0     C15783   8.553   1.399   9.050  0.4218 -0.1436  0.0698
  878MOL0     C15784   8.486   1.501   8.968 -0.7644 -0.2761  0.1155
  878MOL0     C15785   8.407   1.605   9.065 -0.0149  0.9245 -0.1667
  878MOL0     C15786   8.324   1.706   8.996 -0.1831  0.2987 -0.2730
  878MOL0     C15787   8.278   1.817   9.086 -0.1230 -0.3110 -0.1599
  878MOL0     O15788   8.209   1.762   9.196  0.1760 -0.0891 -0.7028
  878MOL0     C15789   8.144   1.848   9.281  1.0278  0.0131  1.4298
  878MOL0     C15790   8.061   1.800   9.392 -0.2616  0.1692 -0.5084
  878MOL0     C15791   7.988   1.886   9.466 -0.3490 -0.0898 -0.8854
  878MOL0     C15792   7.973   2.016   9.441 -0.4765  0.7024  0.5907
  878MOL0     C15793   7.888   2.101   9.512  0.5435 -0.1955 -0.0467
  878MOL0     O15794   7.783   2.044   9.563  0.6238 -0.2452  0.0374
  878MOL0     C15795   7.679   2.110   9.636 -0.6778 -0.1042  0.6458
  878MOL0     C15796   7.617   2.238   9.621 -0.8268 -1.2169  0.2227
  878MOL0     C15797   7.508   2.287   9.694  0.0491 -0.3063  0.2919
  878MOL0     C15798   7.458   2.208   9.793  0.6281  0.6658 -1.3728
  878MOL0     O15799   7.357   2.258   9.873  0.0205  0.7444 -0.6837
  878MOL0     C15800   7.244   2.170   9.904  0.0268  0.7324 -0.1754
  878MOL0     C15801   7.110   2.249   9.894  0.1144 -0.7469 -0.0560
  878MOL0     C15802   7.125   2.368   9.977 -0.5774 -0.3936 -0.0992
  878MOL0     C15803   6.982   2.431  10.005  0.0582  0.3050  0.4727
  878MOL0     C15804   6.991   2.577  10.039  0.0078 -0.1860 -1.1443
  878MOL0     C15805   6.885   2.654  10.114  0.5231  0.2674  0.0023
  878MOL0     C15806   6.928   2.793  10.164  0.3981 -0.9601  0.7646
  878MOL0     C15807   6.857   2.831  10.298 -0.8912 -0.7696  0.9927
  878MOL0    Cl15808   6.876   3.012  10.334 -0.0664 -0.2122 -0.1360
  878MOL0     C15809   7.510   2.074   9.804  0.1727 -1.3091  0.0109
  878MOL0     C15810   7.611   2.028   9.726  0.2604  0.2707  0.2097
  878MOL0     O15811   7.923   2.221   9.531 -0.8314 -0.1233 -0.3643
  878MOL0     C15812   8.051   2.069   9.331 -0.5391  0.2572 -0.5843
  878MOL0     C15813   8.131   1.991   9.250  0.6431 -0.0150  0.1035
  878MOL0     N15814   8.502   1.304   9.136 -0.9445  1.1058 -0.0722
  878MOL0     N15815   8.595   1.220   9.180 -0.3308  0.5963 -0.3188
  878MOL0     C15816   9.795   1.007   8.815  0.1692 -0.2899 -0.3028
  878MOL0     C15817   9.932   1.032   8.779  0.7979 -0.5765  0.4117
  878MOL0     C15818  10.274   1.158   8.514 -0.0880  0.1272  0.4507
  878MOL0     C15819  10.318   1.121   8.384  0.2462  0.9082  1.0507
  878MOL0     C15820  10.453   1.083   8.363 -0.2213  0.3971  0.7913
  878MOL0     C15821  10.541   1.057   8.471 -0.4723  0.2914  0.4775
  878MOL0     O15822  10.670   0.992   8.458  0.4280 -0.4459  1.2288
  878MOL0     C15823  10.739   1.023   8.333  0.5291 -0.2254 -0.6626
  878MOL0     C15824  10.884   0.981   8.342  0.1138  0.8842 -0.0157
  878MOL0     C15825  10.977   1.102   8.346 -0.2636  1.3147 -0.2288
  878MOL0     C15826  11.120   1.059   8.350 -0.5871 -0.1036  0.5982
  878MOL0     C15827  11.207   1.177   8.332  0.5247  0.4999 -0.9282
  878MOL0     C15828  11.272   1.275   8.342 -0.5979  0.7061  0.5434
  878MOL0     C15829  10.494   1.085   8.603 -0.0304  0.2133  0.2897
  878MOL0     C15830  10.362   1.139   8.618 -1.6745  0.3328 -0.5508
  878MOL0     H15831   9.871   1.308   8.592 -2.6313 -1.9022 -2.2354
  878MOL0     H15832   9.648   1.281   8.681 -0.4022 -0.9196  1.2315
  878MOL0     H15833   9.581   1.057   9.043  0.2972  3.2204 -1.2353
  878MOL0     H15834   9.554   0.914   8.937 -0.1802  0.4409 -2.9208
  878MOL0     H15835   9.354   0.981   9.056 -1.0443  2.6020  0.7759
  878MOL0     H15836   9.333   1.005   8.884  0.6641  1.5730 -1.7009
  878MOL0     H15837   9.363   1.261   8.913 -1.2928  1.7283 -0.4521
  878MOL0     H15838   9.386   1.241   9.086 -2.5518  2.0357  0.9201
  878MOL0     H15839   9.175   1.155   9.106 -0.3345  2.0068  0.9466
  878MOL0     H15840   9.189   1.319   9.033 -2.6248  0.4144  0.8413
  878MOL0     H15841   9.117   1.078   8.859 -0.7284  0.9185 -1.7694
  878MOL0     H15842   9.149   1.246   8.817 -0.8310 -0.9379 -1.1256
  878MOL0     H15843   8.902   1.226   8.835  1.0856 -1.6058  0.0999
  878MOL0     H15844   8.962   1.324   8.969 -1.1603 -0.9855  1.4757
  878MOL0     H15845   8.817   1.076   8.975  0.1429 -0.4495  2.5929
  878MOL0     H15846   8.980   1.077   9.061  0.6717 -0.1618 -0.7518
  878MOL0     H15847   8.919   1.274   9.184  0.8116  0.9600 -3.0117
  878MOL0     H15848   8.820   1.129   9.225  1.7945  0.9393  2.5854
  878MOL0     H15849   8.759   1.440   8.997 -1.2166  2.0494  2.1467
  878MOL0     H15850   8.416   1.453   8.898  0.0492  0.2554 -1.0913
  878MOL0     H15851   8.563   1.551   8.909  0.8311 -0.0999  2.2534
  878MOL0     H15852   8.475   1.658   9.132  0.8788 -1.6075  1.0760
  878MOL0     H15853   8.343   1.554   9.138  0.9798  2.3235  1.7817
  878MOL0     H15854   8.375   1.740   8.906 -3.0605 -0.5641 -2.3887
  878MOL0     H15855   8.232   1.662   8.954 -0.9595  2.0334 -0.4537
  878MOL0     H15856   8.228   1.896   9.029  1.0590  0.3522 -0.3129
  878MOL0     H15857   8.367   1.859   9.133  0.6730 -1.9047 -0.1636
  878MOL0     H15858   8.059   1.694   9.416 -3.3597  0.2541  0.0324
  878MOL0     H15859   7.934   1.838   9.546 -0.1494 -0.5109 -1.0044
  878MOL0     H15860   7.668   2.296   9.545 -3.7467 -0.6905 -1.4700
  878MOL0     H15861   7.467   2.386   9.679 -2.2436 -1.4036 -1.4364
  878MOL0     H15862   7.254   2.115   9.998  0.3988  1.9742  0.5415
  878MOL0     H15863   7.240   2.097   9.822  1.4224  2.2147 -1.6345
  878MOL0     H15864   7.027   2.191   9.935  0.0130 -0.1493  0.5887
  878MOL0     H15865   7.072   2.286   9.798 -1.4445  3.3662  1.9267
  878MOL0     H15866   7.176   2.448   9.924 -0.2947 -0.6162 -0.1649
  878MOL0     H15867   7.166   2.350  10.077 -1.4419  2.7557  0.9291
  878MOL0     H15868   6.928   2.420   9.910  0.5094 -1.6786  0.4097
  878MOL0     H15869   6.932   2.366  10.077  2.0121 -1.7089  0.1346
  878MOL0     H15870   6.999   2.630   9.944 -1.7612  1.4049 -0.4753
  878MOL0     H15871   7.084   2.586  10.095 -0.7401 -2.7473  0.7264
  878MOL0     H15872   6.867   2.578  10.190  2.8400 -1.6997 -1.2690
  878MOL0     H15873   6.789   2.658  10.061 -0.1339 -1.0624  1.0222
  878MOL0     H15874   7.034   2.811  10.184  0.7385 -2.4630  0.4468
  878MOL0     H15875   6.900   2.874  10.096  0.2524  0.1139  2.0630
  878MOL0     H15876   6.895   2.765  10.377 -1.2383 -1.1010  0.8855
  878MOL0     H15877   6.751   2.807  10.285 -1.5474  1.0384  2.4286
  878MOL0     H15878   7.470   2.025   9.892 -3.0196  2.1088  0.7030
  878MOL0     H15879   7.658   1.931   9.743 -1.5865 -0.3657  2.0854
  878MOL0     H15880   8.049   2.177   9.321  0.4169  0.3577  0.1875
  878MOL0     H15881   8.187   2.043   9.173  0.9943 -0.5740 -0.0252
  878MOL0     H15882   9.762   0.926   8.880 -1.0648 -0.5765 -1.2614
  878MOL0     H15883  10.001   0.951   8.803 -0.1610 -2.2414 -1.9993
  878MOL0     H15884  10.249   1.117   8.300  2.9232 -1.0297 -1.2696
  878MOL0     H15885  10.488   1.054   8.264  3.9405  1.6115  1.7203
  878MOL0     H15886  10.736   1.131   8.315 -1.2473 -0.5057 -2.5232
  878MOL0     H15887  10.697   0.977   8.243  0.8248  0.5513 -1.2139
  878MOL0     H15888  10.903   0.919   8.431  0.6213 -0.7080 -1.1718
  878MOL0     H15889  10.909   0.912   8.261 -0.2733  0.6657  0.0484
  878MOL0     H15890  10.957   1.158   8.437  1.4037  0.1958  0.8931
  878MOL0     H15891  10.960   1.168   8.261 -1.3861  0.9894 -0.2775
  878MOL0     H15892  11.139   1.002   8.442 -1.3404 -1.2167  0.0831
  878MOL0     H15893  11.140   0.995   8.264 -0.5420  0.9305 -0.1645
  878MOL0     H15894  11.309   1.375   8.332 -3.4185  1.5864 -3.9864
  878MOL0     H15895  10.565   1.068   8.683  0.9109  0.8252 -0.3904
  878MOL0     H15896  10.341   1.157   8.723 -4.2809  0.7087 -1.0689
  879MOL0     O15897   7.001   9.730  10.651 -0.1984  0.5118  0.3375
  879MOL0     C15898   7.043   9.759  10.534  0.4204 -1.0375 -0.0006
  879MOL0     O15899   6.972   9.841  10.449 -0.6479 -0.0139 -0.5750
  879MOL0     C15900   6.835   9.853  10.445 -0.0861  0.7021 -0.7977
  879MOL0     C15901   6.776   9.959  10.368  1.1821  0.5044 -0.0498
  879MOL0     C15902   6.640   9.969  10.351  0.8056  0.2306 -0.8612
  879MOL0     C15903   6.553   9.892  10.438 -0.3809 -0.5422  0.0084
  879MOL0     O15904   6.425   9.928  10.466  0.3083 -0.5860 -0.2860
  879MOL0     C15905   6.341   9.955  10.355  0.4317 -0.0843 -0.3036
  879MOL0     C15906   6.212   9.889  10.377  0.6391  0.0646  0.2006
  879MOL0     C15907   6.117   9.900  10.255 -1.3375 -0.3206  0.2615
  879MOL0     C15908   6.067  10.039  10.221 -0.4389  0.3520  0.0014
  879MOL0     C15909   6.012  10.116  10.347 -0.7723  1.2445  0.3306
  879MOL0     C15910   5.899  10.027  10.413 -0.2658 -0.7362  0.4420
  879MOL0     C15911   5.782  10.006  10.324  0.6173 -0.0159 -0.7071
  879MOL0     C15912   5.701  10.141  10.283  0.1928  0.2978  0.5846
  879MOL0     N15913   5.565  10.116  10.241 -0.8909 -0.1514 -0.2334
  879MOL0     C15914   5.457  10.144  10.310  1.1590 -0.4791 -0.7239
  879MOL0     C15915   5.353  10.131  10.223 -0.0441 -0.8045 -0.4809
  879MOL0     C15916   5.208  10.140  10.262 -0.0648  0.2570 -0.5578
  879MOL0     C15917   5.143  10.271  10.221 -0.1143 -0.0281  0.6703
  879MOL0     C15918   5.126  10.301  10.073 -0.7482 -0.4805 -0.3080
  879MOL0     C15919   5.001  10.236  10.024  0.5382 -0.1853 -0.4259
  879MOL0     O15920   4.975  10.276   9.887  0.8300  0.3779 -0.5600
  879MOL0     C15921   4.843  10.243   9.838 -0.2109  0.5114  0.5120
  879MOL0     C15922   4.741  10.166   9.904 -0.9205 -0.3794  0.2612
  879MOL0     C15923   4.623  10.130   9.840 -0.1444  0.0022 -0.2194
  879MOL0     C15924   4.600  10.182   9.710 -0.3845  0.6194  0.4712
  879MOL0     C15925   4.457  10.179   9.656 -0.0905  0.4635  0.9537
  879MOL0     O15926   4.360  10.102   9.718 -0.1760 -0.2552 -0.2890
  879MOL0     C15927   4.229  10.133   9.692  0.2517  1.2414 -0.1062
  879MOL0     C15928   4.172  10.249   9.738  0.0702 -0.0345 -0.2402
  879MOL0     C15929   4.040  10.278   9.716 -0.5204 -0.7299  0.0104
  879MOL0     C15930   3.954  10.187   9.649  0.0291 -0.0064 -0.4547
  879MOL0     O15931   3.827  10.229   9.611 -0.2720  0.0471 -0.0275
  879MOL0     C15932   3.721  10.180   9.704 -0.0926  0.4627 -0.2510
  879MOL0     C15933   3.598  10.189   9.627  0.4801 -0.8760 -0.4573
  879MOL0     C15934   3.479  10.181   9.739  0.7668 -0.3315  0.5340
  879MOL0     C15935   3.360  10.270   9.689  0.0394  0.8805  0.1796
  879MOL0     C15936   3.227  10.211   9.727 -0.4429  0.2946 -0.5478
  879MOL0     C15937   3.126  10.276   9.638  0.3211  0.7250 -0.1571
  879MOL0     C15938   2.980  10.279   9.695  0.3538  0.2389 -0.5215
  879MOL0     C15939   2.886  10.341   9.596  0.6349 -0.2578  0.2795
  879MOL0    Cl15940   2.952  10.496   9.525  0.0776 -0.4967 -0.2753
  879MOL0     C15941   4.014  10.067   9.593  0.7672  0.5396 -0.1193
  879MOL0     C15942   4.150  10.045   9.618  0.2027  0.6131 -0.0451
  879MOL0     O15943   4.433  10.246   9.560  0.8151 -0.1946  0.4678
  879MOL0     C15944   4.692  10.258   9.651  0.5231  0.3944  0.1820
  879MOL0     C15945   4.820  10.283   9.711 -0.4285 -0.9355 -0.1670
  879MOL0     N15946   5.408  10.092  10.102  1.0552  0.1225  0.3741
  879MOL0     N15947   5.534  10.072  10.118  0.0813 -0.2472  0.4996
  879MOL0     C15948   6.608   9.788  10.513 -0.6889 -0.1727  0.7628
  879MOL0     C15949   6.744   9.754  10.504  0.3373 -0.4542 -0.5165
  879MOL0     C15950   7.173   9.704  10.483  0.2899  0.2809 -0.7761
  879MOL0     C15951   7.279   9.669  10.571 -0.0341  0.0585 -0.1749
  879MOL0     C15952   7.398   9.622  10.522  0.9195  0.4746  0.1792
  879MOL0     C15953   7.427   9.615  10.387 -0.4855 -0.3583  0.7651
  879MOL0     O15954   7.550   9.587  10.325  0.5511  0.4180  0.3151
  879MOL0     C15955   7.670   9.587  10.399 -0.6153 -0.5981 -0.9716
  879MOL0     C15956   7.693   9.456  10.474 -0.4191 -0.6254  0.9405
  879MOL0     C15957   7.766   9.353  10.389 -0.4225 -0.1905 -0.3116
  879MOL0     C15958   7.805   9.242  10.465  0.1877  1.0734  0.6578
  879MOL0     C15959   7.864   9.130  10.390 -0.6431 -0.4989  0.4858
  879MOL0     C15960   7.918   9.040  10.337  0.0727 -0.6029  0.2135
  879MOL0     C15961   7.319   9.645  10.298 -0.1711 -0.9959  0.2742
  879MOL0     C15962   7.204   9.688  10.351  0.6367  0.3235  1.3860
  879MOL0     H15963   6.828  10.034  10.309  0.0717  0.8319 -0.6415
  879MOL0     H15964   6.602  10.052  10.292  4.3233  0.4143 -3.1661
  879MOL0     H15965   6.382   9.919  10.260  1.0863  1.0618 -0.4863
  879MOL0     H15966   6.330  10.064  10.360 -2.4829 -0.3442  0.3029
  879MOL0     H15967   6.163   9.934  10.463  0.4842  1.1847 -0.4505
  879MOL0     H15968   6.224   9.784  10.407 -1.5560  0.4082  2.5480
  879MOL0     H15969   6.030   9.838  10.279 -2.7868  0.2946 -2.7979
  879MOL0     H15970   6.160   9.854  10.165 -0.4958 -1.0405  1.0081
  879MOL0     H15971   6.147  10.100  10.177  2.1673 -2.8694 -0.0962
  879MOL0     H15972   5.981  10.029  10.153  0.8294  0.6006 -1.7083
  879MOL0     H15973   5.967  10.213  10.323 -3.1851  1.0099  3.3223
  879MOL0     H15974   6.096  10.129  10.415 -0.3948  1.7562 -0.2183
  879MOL0     H15975   5.866  10.088  10.498 -2.6514 -0.3392 -0.6780
  879MOL0     H15976   5.943   9.935  10.453 -1.2301 -1.1039  0.6876
  879MOL0     H15977   5.803   9.946  10.234  0.4144 -1.3177  0.0816
  879MOL0     H15978   5.709   9.947  10.380 -0.3949  0.5600 -1.3818
  879MOL0     H15979   5.765  10.171  10.200 -0.6595 -0.9355 -0.5632
  879MOL0     H15980   5.707  10.216  10.362  1.5282  2.0133 -1.0492
  879MOL0     H15981   5.459  10.165  10.417  3.1280 -0.7468 -0.6808
  879MOL0     H15982   5.209  10.150  10.371  0.3215  3.1348 -0.7447
  879MOL0     H15983   5.146  10.063  10.214  0.2203  0.6438 -1.5792
  879MOL0     H15984   5.202  10.353  10.263  0.0538  0.4303 -0.4118
  879MOL0     H15985   5.044  10.274  10.266 -1.5979 -1.3418 -2.2506
  879MOL0     H15986   5.117  10.408  10.057 -0.0942 -0.3382  0.2075
  879MOL0     H15987   5.208  10.275  10.005  0.6103  1.2247  0.5936
  879MOL0     H15988   4.913  10.263  10.084 -1.5954 -2.3581 -2.3589
  879MOL0     H15989   5.007  10.127  10.030  3.0834 -0.0917 -0.0731
  879MOL0     H15990   4.757  10.131  10.006  0.0041  0.5349  0.4548
  879MOL0     H15991   4.555  10.065   9.895  0.2573 -1.6709 -1.6262
  879MOL0     H15992   4.240  10.309   9.798 -2.6775  3.1647 -0.0413
  879MOL0     H15993   3.997  10.367   9.761 -3.8614 -3.6377  3.2055
  879MOL0     H15994   3.712  10.244   9.792 -1.6320 -1.7852  1.3380
  879MOL0     H15995   3.729  10.077   9.741  0.2807  1.5445  3.0126
  879MOL0     H15996   3.588  10.107   9.555 -1.8752  0.1564 -1.3774
  879MOL0     H15997   3.589  10.287   9.581 -1.1787 -1.1289 -0.7132
  879MOL0     H15998   3.494  10.218   9.841 -1.3871 -2.1251  1.5801
  879MOL0     H15999   3.448  10.077   9.738 -2.0322  0.3845 -1.9680
  879MOL0     H16000   3.368  10.375   9.716 -0.6920  1.3671 -1.3425
  879MOL0     H16001   3.368  10.267   9.580  1.1851 -2.7307  0.2395
  879MOL0     H16002   3.201  10.250   9.826 -0.1909 -2.5622  0.7568
  879MOL0     H16003   3.227  10.102   9.715  2.4267  0.3916 -2.0154
  879MOL0     H16004   3.122  10.223   9.543 -3.4335  1.1557 -0.4160
  879MOL0     H16005   3.137  10.383   9.621 -3.0776  1.2280 -0.0146
  879MOL0     H16006   2.956  10.173   9.700 -1.2237  0.4774 -1.9356
  879MOL0     H16007   2.973  10.335   9.788  2.1839  2.8851 -1.8546
  879MOL0     H16008   2.784  10.373   9.622 -0.0797  0.2214 -2.7104
  879MOL0     H16009   2.860  10.271   9.516  1.2169  2.0387 -2.0278
  879MOL0     H16010   3.962   9.990   9.537 -0.1550  0.6183  0.5912
  879MOL0     H16011   4.196   9.957   9.574  0.5073  1.3988 -1.3590
  879MOL0     H16012   4.664  10.301   9.555 -3.0574  0.8137  1.2738
  879MOL0     H16013   4.890  10.350   9.663 -4.3924  3.6207 -0.2935
  879MOL0     H16014   6.541   9.716  10.559 -3.2493  1.0210 -0.9286
  879MOL0     H16015   6.783   9.661  10.543 -0.4198 -0.8120 -0.6048
  879MOL0     H16016   7.276   9.683  10.679  1.5839  0.9628 -0.2229
  879MOL0     H16017   7.478   9.597  10.591 -0.2172 -0.0194  1.3581
  879MOL0     H16018   7.668   9.681  10.454  3.5531  0.7056 -2.6253
  879MOL0     H16019   7.754   9.584  10.328  0.6588 -1.8398  0.4949
  879MOL0     H16020   7.740   9.469  10.571  1.7024 -1.5510  0.0830
  879MOL0     H16021   7.594   9.412  10.491 -1.1806  0.6984  0.1638
  879MOL0     H16022   7.859   9.384  10.339  0.3590 -5.0007 -2.3825
  879MOL0     H16023   7.705   9.314  10.307  1.9293 -2.6732 -1.0362
  879MOL0     H16024   7.879   9.276  10.538  0.4362  0.0929  0.8886
  879MOL0     H16025   7.726   9.202  10.530  0.6659  0.8778  1.1250
  879MOL0     H16026   7.970   8.972  10.273  1.0148  0.5720 -0.2840
  879MOL0     H16027   7.337   9.631  10.191 -0.3541  1.2159 -0.0919
  879MOL0     H16028   7.133   9.717  10.274  1.2212 -1.0266  0.2909
  880MOL0     O16029  11.033  11.263   6.119  0.2076  0.0683 -0.3497
  880MOL0     C16030  11.092  11.158   6.115 -0.9017  0.4493  0.0364
  880MOL0     O16031  11.044  11.026   6.127 -0.2314  0.2832 -0.8525
  880MOL0     C16032  10.912  11.013   6.149 -0.0072 -1.1482 -0.3108
  880MOL0     C16033  10.817  11.045   6.050 -0.1959 -0.1238  0.4343
  880MOL0     C16034  10.681  11.023   6.071 -0.4577  0.3961 -0.2970
  880MOL0     C16035  10.639  10.947   6.179  0.4013  0.8296  0.0203
  880MOL0     O16036  10.509  10.901   6.190  0.6832  0.3689 -0.2335
  880MOL0     C16037  10.431  10.950   6.307  0.0757 -0.2088 -0.6079
  880MOL0     C16038  10.316  10.856   6.300  0.2267 -0.1096 -0.3953
  880MOL0     C16039  10.216  10.880   6.415  0.9208 -0.4146 -0.4170
  880MOL0     C16040  10.125  10.764   6.422 -0.1280  0.4363 -0.7044
  880MOL0     C16041  10.015  10.803   6.531  0.0557  0.7099  0.1115
  880MOL0     C16042   9.908  10.694   6.531 -0.5402  0.3975  0.3677
  880MOL0     C16043   9.838  10.664   6.665  1.0806  0.5367 -0.6841
  880MOL0     C16044   9.771  10.799   6.719 -0.5617  0.4768  0.5635
  880MOL0     N16045   9.722  10.780   6.861 -0.9236  0.0086 -0.8003
  880MOL0     C16046   9.601  10.744   6.884  0.1918 -0.6434 -0.1253
  880MOL0     C16047   9.591  10.734   7.022  0.0205  0.1431  0.7574
  880MOL0     C16048   9.473  10.702   7.110 -1.3482 -0.4720  0.4087
  880MOL0     C16049   9.471  10.569   7.175  0.5142 -0.0699 -0.4316
  880MOL0     C16050   9.456  10.461   7.065 -0.4213 -0.8745  0.3856
  880MOL0     C16051   9.433  10.321   7.121  0.6972  0.0217 -0.3656
  880MOL0     O16052   9.318  10.320   7.211 -0.3549 -0.2868  0.1958
  880MOL0     C16053   9.192  10.309   7.159  0.1101 -0.4001 -0.6617
  880MOL0     C16054   9.101  10.402   7.202  0.5954 -0.5608 -0.3239
  880MOL0     C16055   8.966  10.385   7.165 -0.3958  0.2311  0.1731
  880MOL0     C16056   8.931  10.282   7.079  0.1684  0.2465 -0.8676
  880MOL0     C16057   8.785  10.260   7.045 -0.1507 -0.8897 -0.1484
  880MOL0     O16058   8.691  10.349   7.108 -0.6468  0.3475 -0.1830
  880MOL0     C16059   8.556  10.333   7.104  0.5447 -0.0069  0.9300
  880MOL0     C16060   8.495  10.253   7.202 -0.0677 -0.0967 -0.6552
  880MOL0     C16061   8.362  10.235   7.197  0.7593  0.0769 -0.3355
  880MOL0     C16062   8.270  10.291   7.111  0.0247  0.1392 -0.3023
  880MOL0     O16063   8.140  10.248   7.118  0.3712  0.2725 -0.3499
  880MOL0     C16064   8.041  10.347   7.086 -0.2837  0.2166  0.6977
  880MOL0     C16065   7.905  10.310   7.128  0.6974 -0.5482  0.0439
  880MOL0     C16066   7.821  10.425   7.081  1.0030  1.2089 -0.0976
  880MOL0     C16067   7.701  10.454   7.176  0.0080 -0.7429  0.3101
  880MOL0     C16068   7.583  10.354   7.141  0.0466 -0.8867 -0.6770
  880MOL0     C16069   7.456  10.382   7.222 -0.0458 -0.1031 -0.1616
  880MOL0     C16070   7.363  10.257   7.223  0.3646  0.0386  0.1260
  880MOL0     C16071   7.330  10.182   7.354  0.0037 -0.9787 -0.4289
  880MOL0    Cl16072   7.216  10.285   7.451 -0.0235  0.5996  0.1726
  880MOL0     C16073   8.330  10.368   7.010 -0.1153 -0.6608  0.5977
  880MOL0     C16074   8.471  10.380   7.003  0.2841  0.2170 -0.0616
  880MOL0     O16075   8.752  10.180   6.955  1.1725  0.2527  0.3655
  880MOL0     C16076   9.031  10.187   7.043  0.0501 -0.3700  0.0157
  880MOL0     C16077   9.160  10.200   7.082  0.0148  0.4600  0.1123
  880MOL0     N16078   9.719  10.756   7.070  0.7805 -0.0173 -0.4183
  880MOL0     N16079   9.795  10.796   6.975  0.7241 -1.1943  0.5012
  880MOL0     C16080  10.735  10.910   6.273 -0.2045  0.5053 -0.8768
  880MOL0     C16081  10.865  10.951   6.262 -0.4042 -0.2469 -0.8274
  880MOL0     C16082  11.240  11.163   6.093 -0.0271 -0.8353  0.3074
  880MOL0     C16083  11.313  11.287   6.094 -0.0891  0.6644  0.8985
  880MOL0     C16084  11.449  11.290   6.071  0.3104 -0.3568 -0.1399
  880MOL0     C16085  11.524  11.175   6.048  0.6426  0.3735 -0.6505
  880MOL0     O16086  11.662  11.184   6.027 -0.2776  0.0899  0.1767
  880MOL0     C16087  11.745  11.059   6.014  0.4738  0.5277  0.2829
  880MOL0     C16088  11.872  11.103   5.937  1.0134 -0.4906 -0.7105
  880MOL0     C16089  11.989  11.005   5.952  0.5270  0.4642  0.2912
  880MOL0     C16090  11.950  10.850   5.951 -0.0767  0.3592 -0.9765
  880MOL0     C16091  11.900  10.815   5.814  0.0421  0.3252  0.4066
  880MOL0     C16092  11.863  10.784   5.699  0.1505 -0.0135 -0.6666
  880MOL0     C16093  11.459  11.051   6.052  0.3436 -0.1107  0.2256
  880MOL0     C16094  11.317  11.048   6.066 -0.8780  0.6632 -0.6319
  880MOL0     H16095  10.849  11.098   5.961 -0.4938  0.2930  0.5723
  880MOL0     H16096  10.596  11.046   6.007 -3.1980 -1.2834  2.4578
  880MOL0     H16097  10.396  11.053   6.298 -1.2905 -0.5397  0.5207
  880MOL0     H16098  10.494  10.947   6.397  0.1484  0.5772 -0.6239
  880MOL0     H16099  10.352  10.753   6.310  0.6805  0.0753 -0.0784
  880MOL0     H16100  10.261  10.866   6.206 -4.7541 -1.5730  2.0139
  880MOL0     H16101  10.167  10.973   6.385  1.6637 -0.0154 -0.4208
  880MOL0     H16102  10.268  10.900   6.509  2.9798  0.6117 -1.7037
  880MOL0     H16103  10.071  10.753   6.328 -3.2446  0.9214  0.9191
  880MOL0     H16104  10.174  10.669   6.447 -0.4719  0.0332 -1.5225
  880MOL0     H16105   9.967  10.899   6.507  1.2964  1.1209 -0.8564
  880MOL0     H16106  10.059  10.807   6.631 -1.2585 -2.7334  0.9586
  880MOL0     H16107   9.954  10.598   6.504 -1.7149  0.2324 -1.1698
  880MOL0     H16108   9.833  10.723   6.457 -0.9669  0.3257  0.7721
  880MOL0     H16109   9.753  10.595   6.655  2.1962 -1.0113  0.2024
  880MOL0     H16110   9.906  10.629   6.743 -2.6200 -2.5641  1.5307
  880MOL0     H16111   9.706  10.848   6.646  1.4002  0.8765 -0.9909
  880MOL0     H16112   9.857  10.866   6.725  0.4343 -0.7978  0.7572
  880MOL0     H16113   9.513  10.739   6.820 -0.7740 -0.9686  1.1894
  880MOL0     H16114   9.385  10.723   7.048 -0.1793 -0.6989 -1.3790
  880MOL0     H16115   9.455  10.766   7.197 -3.1871 -0.1794 -0.1421
  880MOL0     H16116   9.379  10.568   7.234 -0.0384  0.9243 -1.2340
  880MOL0     H16117   9.562  10.548   7.231 -0.6556  0.5611  1.8126
  880MOL0     H16118   9.359  10.477   7.018 -1.9719 -4.5220  1.8987
  880MOL0     H16119   9.537  10.462   6.992  1.1736  2.3081  1.9758
  880MOL0     H16120   9.523  10.296   7.178  0.5421  0.7671  0.2227
  880MOL0     H16121   9.407  10.242   7.050 -1.6498  0.6219 -0.2783
  880MOL0     H16122   9.128  10.497   7.248  2.8744 -1.1465 -0.3332
  880MOL0     H16123   8.894  10.453   7.210  1.5762  0.6228  2.9414
  880MOL0     H16124   8.550  10.201   7.279 -1.2855 -1.3964 -0.6144
  880MOL0     H16125   8.322  10.171   7.275 -0.6138 -1.3216 -2.0991
  880MOL0     H16126   8.046  10.362   6.978  0.5996 -0.3337  0.6581
  880MOL0     H16127   8.062  10.442   7.137 -2.3369  1.4026 -0.4878
  880MOL0     H16128   7.895  10.294   7.236 -2.5105 -1.8213 -0.3338
  880MOL0     H16129   7.880  10.214   7.082  0.3035 -0.5131  0.1840
  880MOL0     H16130   7.784  10.386   6.985  0.6214 -0.3824  0.6585
  880MOL0     H16131   7.861  10.524   7.056 -2.3969  2.3651 -1.5851
  880MOL0     H16132   7.744  10.449   7.276 -0.3503 -0.0990  0.5045
  880MOL0     H16133   7.667  10.556   7.156  3.1529 -0.3254 -4.6624
  880MOL0     H16134   7.616  10.251   7.155  0.4271 -0.4932  1.7501
  880MOL0     H16135   7.562  10.368   7.034 -0.4472  3.0526 -0.2274
  880MOL0     H16136   7.393  10.461   7.181 -2.1829 -1.1619  0.8979
  880MOL0     H16137   7.484  10.403   7.326  2.3431  0.1568 -0.8032
  880MOL0     H16138   7.271  10.293   7.174  0.7005  0.6137 -0.0912
  880MOL0     H16139   7.411  10.192   7.149  1.0292  0.2308  0.3813
  880MOL0     H16140   7.423  10.159   7.407 -0.7650 -1.7107  0.6500
  880MOL0     H16141   7.277  10.094   7.316 -0.6116  0.2537 -2.5736
  880MOL0     H16142   8.267  10.409   6.931 -1.3861 -3.6645 -0.0840
  880MOL0     H16143   8.520  10.437   6.925  2.7342  0.6548  1.6731
  880MOL0     H16144   9.008  10.096   6.989  2.9852 -0.0349 -1.9794
  880MOL0     H16145   9.228  10.121   7.051 -0.5302  0.2008 -0.4270
  880MOL0     H16146  10.701  10.856   6.361 -0.5352  1.7537 -0.2271
  880MOL0     H16147  10.933  10.936   6.346  0.7447 -0.1082 -1.7055
  880MOL0     H16148  11.251  11.374   6.105  1.5927  2.1059 -0.4083
  880MOL0     H16149  11.503  11.384   6.068 -1.9503  1.1028  1.5539
  880MOL0     H16150  11.700  10.987   5.945  1.6823 -0.9621  0.9928
  880MOL0     H16151  11.769  11.023   6.115 -0.6316 -2.6476 -0.4798
  880MOL0     H16152  11.844  11.118   5.832  2.0369  1.1026 -0.7950
  880MOL0     H16153  11.910  11.193   5.986  3.5558 -2.3115  0.9035
  880MOL0     H16154  12.049  11.022   6.042  0.9697 -1.2573  0.3425
  880MOL0     H16155  12.057  11.006   5.866  0.5390 -3.2613  0.1193
  880MOL0     H16156  12.043  10.795   5.967  0.1786  0.5173 -1.8762
  880MOL0     H16157  11.883  10.837   6.036  1.1232  0.9783  0.0988
  880MOL0     H16158  11.815  10.763   5.606 -0.8818  1.3174 -0.4683
  880MOL0     H16159  11.514  10.958   6.038  1.8749  0.8226 -0.1479
  880MOL0     H16160  11.277  10.949   6.048 -1.9360  0.6231  1.6107
  881MOL0     O16161   3.920   9.927   1.520  0.0412  0.8095  0.6576
  881MOL0     C16162   3.924   9.938   1.399  0.0189 -0.6958 -1.0202
  881MOL0     O16163   3.813   9.930   1.313  0.1116 -0.9622 -0.2463
  881MOL0     C16164   3.689   9.902   1.378  0.1577 -0.0390  0.2707
  881MOL0     C16165   3.589  10.007   1.392  0.2054  0.3551 -0.3871
  881MOL0     C16166   3.462   9.971   1.456 -0.0733  0.0031 -0.5800
  881MOL0     C16167   3.435   9.845   1.504  0.6376  0.7374 -0.6370
  881MOL0     O16168   3.315   9.815   1.559 -0.0081 -0.1410 -0.4613
  881MOL0     C16169   3.219   9.820   1.452 -0.0664  0.0034 -0.1836
  881MOL0     C16170   3.073   9.825   1.503  0.0133  0.1389 -0.4800
  881MOL0     C16171   3.033   9.921   1.607  0.8603 -0.6304 -1.0706
  881MOL0     C16172   2.891   9.894   1.675  0.2163 -0.6982 -0.5175
  881MOL0     C16173   2.772   9.959   1.603  0.9424 -0.1318  0.5554
  881MOL0     C16174   2.633   9.941   1.679 -0.1244  0.2298 -0.5503
  881MOL0     C16175   2.522   9.996   1.598 -0.0317  0.4761 -0.3380
  881MOL0     C16176   2.389  10.020   1.663  1.3096  0.8891  0.3326
  881MOL0     N16177   2.308  10.116   1.577 -0.7303 -0.3833 -0.1805
  881MOL0     C16178   2.356  10.236   1.531  0.1996 -0.2445 -0.3879
  881MOL0     C16179   2.279  10.281   1.430 -1.1100  0.2778 -0.2150
  881MOL0     C16180   2.309  10.403   1.338 -0.2460  0.3527 -0.3996
  881MOL0     C16181   2.181  10.469   1.304  0.3485 -0.4355 -0.2972
  881MOL0     C16182   2.203  10.617   1.252  0.0519 -0.4595 -0.2440
  881MOL0     C16183   2.079  10.688   1.224 -0.0473 -0.2858  0.7378
  881MOL0     O16184   2.010  10.636   1.106 -0.1122  0.4685  0.6419
  881MOL0     C16185   1.873  10.632   1.112  0.7666 -0.0813 -0.0503
  881MOL0     C16186   1.796  10.721   1.188 -0.2130 -0.3981 -0.3548
  881MOL0     C16187   1.659  10.697   1.214  0.1311  0.2401  0.6874
  881MOL0     C16188   1.594  10.585   1.149  0.5623  0.4869  0.6952
  881MOL0     C16189   1.452  10.560   1.167 -0.4275 -0.6142 -0.3821
  881MOL0     O16190   1.392  10.475   1.072 -0.0322 -0.1112  0.3174
  881MOL0     C16191   1.255  10.447   1.093 -0.4718 -0.3431 -0.1985
  881MOL0     C16192   1.170  10.448   0.981  0.1459  0.0848  0.2613
  881MOL0     C16193   1.032  10.426   1.006 -0.7144 -1.0051  0.4108
  881MOL0     C16194   0.983  10.396   1.130  0.7048  0.5352  0.1712
  881MOL0     O16195   0.848  10.364   1.147 -0.2049  0.0275  0.4835
  881MOL0     C16196   0.766  10.334   1.035  1.1721  1.4573 -0.9904
  881MOL0     C16197   0.635  10.261   1.090 -0.4545 -0.1936  0.6502
  881MOL0     C16198   0.520  10.261   0.991  0.6348  0.3808 -0.2594
  881MOL0     C16199   0.402  10.190   1.061 -0.0478 -0.5433 -0.0976
  881MOL0     C16200   0.277  10.202   0.968 -0.1398 -0.5240 -0.5991
  881MOL0     C16201   0.172  10.103   1.014  0.4243  0.3428 -0.2326
  881MOL0     C16202   0.058  10.097   0.908  0.0642 -0.4598  0.7261
  881MOL0     C16203  -0.069  10.042   0.967  0.0269  0.4642 -0.7339
  881MOL0    Cl16204  -0.186   9.983   0.836 -0.0934  0.1206 -0.5733
  881MOL0     C16205   1.070  10.381   1.237 -0.3504  0.4549 -0.9946
  881MOL0     C16206   1.210  10.407   1.222  0.2231 -0.3710  0.2744
  881MOL0     O16207   1.397  10.624   1.258  0.3757  0.5935  0.4310
  881MOL0     C16208   1.676  10.489   1.081 -0.3862  0.0546  0.2187
  881MOL0     C16209   1.812  10.518   1.063 -0.3907  0.6544  1.1527
  881MOL0     N16210   2.183  10.178   1.413 -0.9011 -0.2564  0.1329
  881MOL0     N16211   2.201  10.088   1.508  0.8288  0.0950 -0.0165
  881MOL0     C16212   3.542   9.750   1.496  1.0864 -0.1054 -0.1575
  881MOL0     C16213   3.665   9.780   1.445 -0.0123  0.1376 -0.4783
  881MOL0     C16214   4.057   9.956   1.338  0.9425  0.1099  0.7688
  881MOL0     C16215   4.173   9.947   1.413  0.3984  0.0714 -0.1991
  881MOL0     C16216   4.298   9.957   1.354  0.0536 -0.0455 -0.3398
  881MOL0     C16217   4.308   9.965   1.208 -1.3917  1.0295 -0.4700
  881MOL0     O16218   4.427   9.950   1.149 -0.7716 -0.1861 -0.4200
  881MOL0     C16219   4.472  10.002   1.022 -0.3091  1.0736 -0.5085
  881MOL0     C16220   4.536  10.140   1.041  0.6155 -0.5594 -0.3793
  881MOL0     C16221   4.447  10.255   1.086 -0.3248  0.5960  0.2239
  881MOL0     C16222   4.523  10.382   1.051 -0.6110  0.5880 -0.4239
  881MOL0     C16223   4.471  10.492   1.130  0.4360  0.2643  0.3023
  881MOL0     C16224   4.452  10.592   1.198 -0.2941  0.5427  0.5890
  881MOL0     C16225   4.192   9.981   1.132  0.4238 -0.2905  0.0452
  881MOL0     C16226   4.065   9.974   1.191 -0.1764 -0.6578 -0.0711
  881MOL0     H16227   3.602  10.104   1.344  0.8876  0.7436  0.5412
  881MOL0     H16228   3.392  10.049   1.485 -0.9272  0.1913 -2.9351
  881MOL0     H16229   3.235   9.734   1.388 -0.7873  1.4025 -2.3534
  881MOL0     H16230   3.226   9.909   1.389 -2.5505  1.7993  1.8308
  881MOL0     H16231   3.058   9.724   1.544  2.5698 -0.9783 -2.0101
  881MOL0     H16232   3.008   9.831   1.415 -0.4851  0.4430 -0.0975
  881MOL0     H16233   3.035  10.023   1.566  0.0164 -0.3816 -0.5231
  881MOL0     H16234   3.107   9.922   1.688 -0.1726  3.2000  0.0371
  881MOL0     H16235   2.871   9.787   1.690  1.0364 -0.8700 -0.6011
  881MOL0     H16236   2.887   9.945   1.772 -0.8894  3.0651 -2.3460
  881MOL0     H16237   2.765   9.906   1.508  2.0482  0.9598 -0.1682
  881MOL0     H16238   2.782  10.066   1.586 -1.8805 -0.0879 -1.4890
  881MOL0     H16239   2.647   9.993   1.774 -1.2227  0.9503 -0.7641
  881MOL0     H16240   2.620   9.837   1.711 -0.9098 -0.4361 -2.8175
  881MOL0     H16241   2.558  10.082   1.541 -1.8418  0.9589 -0.8295
  881MOL0     H16242   2.505   9.923   1.518  0.3369 -0.1073  0.1039
  881MOL0     H16243   2.395  10.061   1.764 -1.1558  0.3509  0.7642
  881MOL0     H16244   2.341   9.922   1.662 -0.2063  1.5217  2.8636
  881MOL0     H16245   2.448  10.280   1.569  1.0781 -2.5690  0.3768
  881MOL0     H16246   2.355  10.363   1.247  0.7567  1.7672 -0.5384
  881MOL0     H16247   2.385  10.454   1.396 -2.4227  1.3006  1.8043
  881MOL0     H16248   2.117  10.479   1.392  5.0747  1.2192  3.3861
  881MOL0     H16249   2.133  10.405   1.229  0.1467 -2.5187  1.4989
  881MOL0     H16250   2.251  10.672   1.334  0.4440 -2.2856  0.8116
  881MOL0     H16251   2.272  10.614   1.167  4.3921  1.4085  2.8512
  881MOL0     H16252   2.108  10.792   1.205  2.5515 -1.4728 -2.9760
  881MOL0     H16253   2.018  10.686   1.315 -0.0978 -4.2165  0.7939
  881MOL0     H16254   1.842  10.808   1.233  1.4318 -0.6121 -1.4932
  881MOL0     H16255   1.598  10.764   1.273  1.6053  0.1670  2.3472
  881MOL0     H16256   1.213  10.490   0.891 -0.9228  1.9469  0.5758
  881MOL0     H16257   0.967  10.444   0.921  0.5063  0.0915 -0.3222
  881MOL0     H16258   0.810  10.273   0.955  1.2709 -2.6612  1.8733
  881MOL0     H16259   0.728  10.430   0.999  1.3547  0.9059 -2.7043
  881MOL0     H16260   0.609  10.312   1.183  1.4139 -1.0237  1.6856
  881MOL0     H16261   0.663  10.156   1.103  6.6965  0.7870 -2.3576
  881MOL0     H16262   0.549  10.215   0.896  4.4227  1.7183  0.0704
  881MOL0     H16263   0.485  10.364   0.976  0.9033  0.8038  1.7828
  881MOL0     H16264   0.429  10.085   1.074  1.8772 -0.1426 -0.5881
  881MOL0     H16265   0.379  10.241   1.154 -0.4063  0.2087 -0.5884
  881MOL0     H16266   0.315  10.187   0.867  0.5241  1.6675 -0.7359
  881MOL0     H16267   0.241  10.305   0.962  1.6162  0.0569 -2.3805
  881MOL0     H16268   0.131  10.129   1.112  2.6636  0.6697  0.6787
  881MOL0     H16269   0.221  10.006   1.021  2.7989  1.4895 -0.1951
  881MOL0     H16270   0.037  10.202   0.886  0.0534  0.1663  3.3836
  881MOL0     H16271   0.095  10.037   0.824 -0.5096  0.4541 -0.2044
  881MOL0     H16272  -0.121  10.118   1.026  0.1131  0.5762 -0.8013
  881MOL0     H16273  -0.040   9.961   1.034 -1.4807  0.7364  0.2979
  881MOL0     H16274   1.031  10.359   1.336  0.8623  2.9114  0.1143
  881MOL0     H16275   1.280  10.402   1.305  0.7412 -2.2517 -0.2415
  881MOL0     H16276   1.612  10.419   1.029 -0.3818 -0.1705  0.5155
  881MOL0     H16277   1.879  10.450   1.011  1.6393  2.4829  1.2294
  881MOL0     H16278   3.528   9.653   1.543 -0.0068  1.4941  3.1217
  881MOL0     H16279   3.749   9.712   1.451  0.2805  0.5557  0.3092
  881MOL0     H16280   4.180   9.932   1.520 -0.5495 -1.0529 -0.2840
  881MOL0     H16281   4.380   9.956   1.425  1.5068 -2.3643 -1.9015
  881MOL0     H16282   4.390  10.007   0.951 -0.7797 -0.5218 -0.0982
  881MOL0     H16283   4.554   9.938   0.990  0.6454 -0.1872  3.7694
  881MOL0     H16284   4.613  10.153   1.118 -1.5508  0.4549  1.7745
  881MOL0     H16285   4.570  10.176   0.944  2.0669  1.0118  0.6455
  881MOL0     H16286   4.423  10.251   1.193  0.2673 -2.2010  0.3270
  881MOL0     H16287   4.360  10.248   1.020 -0.7320  1.9033  0.5966
  881MOL0     H16288   4.627  10.361   1.076 -1.1214 -3.5448 -1.1026
  881MOL0     H16289   4.513  10.410   0.946  3.1911  2.3100 -0.4919
  881MOL0     H16290   4.429  10.687   1.243  0.8060  0.3985  1.5046
  881MOL0     H16291   4.203   9.983   1.024  1.7490  0.6465  0.1627
  881MOL0     H16292   3.979  10.003   1.131  1.7270  3.8518 -1.0826
  882MOL0     O16293   6.792   6.662   5.867  0.4387 -1.6461 -0.0067
  882MOL0     C16294   6.883   6.587   5.895 -0.5143 -0.5057 -0.1957
  882MOL0     O16295   6.883   6.450   5.907 -0.2792 -0.8017  0.0015
  882MOL0     C16296   6.759   6.403   5.894  0.0564  0.2255  0.3298
  882MOL0     C16297   6.698   6.398   5.765 -0.8749 -0.2219  0.6442
  882MOL0     C16298   6.569   6.345   5.753  0.0739  0.2304 -1.2781
  882MOL0     C16299   6.507   6.291   5.872 -1.0423 -0.7626 -0.8607
  882MOL0     O16300   6.383   6.246   5.866  0.1824 -0.5132 -0.4253
  882MOL0     C16301   6.280   6.310   5.949  0.9886  0.0816  0.3283
  882MOL0     C16302   6.143   6.233   5.916  0.0809  0.1459  0.3614
  882MOL0     C16303   6.101   6.252   5.772 -1.1272  0.2952 -0.5674
  882MOL0     C16304   5.964   6.195   5.745 -0.0998  0.1844 -0.7026
  882MOL0     C16305   5.920   6.241   5.605  0.4045 -0.4295 -0.2507
  882MOL0     C16306   5.773   6.228   5.582  0.3102 -0.1349 -0.1463
  882MOL0     C16307   5.723   6.086   5.607  0.0131  0.3621  1.3969
  882MOL0     C16308   5.749   5.982   5.490 -0.5591  0.9815 -0.0749
  882MOL0     N16309   5.655   5.870   5.487 -0.4571  0.1799 -0.3621
  882MOL0     C16310   5.622   5.789   5.597 -0.5056  0.8533 -0.8116
  882MOL0     C16311   5.553   5.692   5.556  0.4086  0.6638  0.1993
  882MOL0     C16312   5.511   5.565   5.636 -0.2576 -0.2776  0.0406
  882MOL0     C16313   5.427   5.468   5.554 -0.5344  0.6935  0.7918
  882MOL0     C16314   5.391   5.343   5.632  0.8530  0.2606  0.5688
  882MOL0     C16315   5.344   5.212   5.551  0.0157 -0.4661 -0.0869
  882MOL0     O16316   5.247   5.268   5.469 -0.0064 -0.5024  0.1567
  882MOL0     C16317   5.179   5.185   5.388  0.5017 -0.7780 -0.5545
  882MOL0     C16318   5.200   5.046   5.373  0.1442  0.8093  0.1785
  882MOL0     C16319   5.123   4.976   5.281 -0.5818 -0.3538  1.4547
  882MOL0     C16320   5.029   5.049   5.196 -0.3215  0.5451 -0.2225
  882MOL0     C16321   4.943   4.988   5.095 -0.6412  0.5352  0.5899
  882MOL0     O16322   4.850   5.071   5.040 -0.1678 -0.0008  0.0448
  882MOL0     C16323   4.764   5.012   4.947 -1.1778  0.5167 -0.0183
  882MOL0     C16324   4.669   4.915   4.981 -0.1676 -0.1902  0.2863
  882MOL0     C16325   4.571   4.881   4.886 -0.2873 -0.3689  0.8109
  882MOL0     C16326   4.554   4.946   4.764  0.4062 -0.0115 -0.6849
  882MOL0     O16327   4.438   4.906   4.705 -0.5405 -0.1712 -0.4066
  882MOL0     C16328   4.387   4.985   4.592 -0.0504  0.4661 -0.1952
  882MOL0     C16329   4.266   4.909   4.521  0.1764 -1.1560  0.2573
  882MOL0     C16330   4.147   4.947   4.601 -0.3849  0.3181  0.8403
  882MOL0     C16331   4.037   4.886   4.530  0.3012  0.2009 -0.2831
  882MOL0     C16332   3.903   4.907   4.602  0.1513 -0.0014 -0.5927
  882MOL0     C16333   3.780   4.875   4.518  0.1190  0.3541 -0.7687
  882MOL0     C16334   3.660   4.835   4.602  0.4468 -0.4751 -0.5657
  882MOL0     C16335   3.546   4.768   4.524 -0.3001  0.9885 -0.6449
  882MOL0    Cl16336   3.586   4.589   4.499 -0.1745 -0.1206  0.4460
  882MOL0     C16337   4.642   5.046   4.734  0.0940  0.7671 -0.0869
  882MOL0     C16338   4.742   5.077   4.822  0.6780 -0.3240 -0.2191
  882MOL0     O16339   4.954   4.864   5.074  0.1214  0.9058 -0.5441
  882MOL0     C16340   5.012   5.185   5.221  0.9916  0.3084 -0.7241
  882MOL0     C16341   5.087   5.259   5.313 -0.1450  0.2919  0.3335
  882MOL0     N16342   5.531   5.701   5.418  0.0593 -0.1332 -0.9904
  882MOL0     N16343   5.592   5.811   5.377  0.4060 -0.1969  0.0098
  882MOL0     C16344   6.569   6.312   6.007 -0.4946 -0.1619  0.0806
  882MOL0     C16345   6.694   6.359   6.014 -0.6565  0.1288 -0.8269
  882MOL0     C16346   7.012   6.651   5.901 -0.7893 -0.2855 -0.3782
  882MOL0     C16347   7.014   6.782   5.932 -0.8493 -0.5485 -1.0758
  882MOL0     C16348   7.133   6.854   5.947  0.4537 -0.6850 -0.4508
  882MOL0     C16349   7.262   6.792   5.935 -0.4704 -0.4697 -0.5363
  882MOL0     O16350   7.372   6.875   5.960  0.5985  0.1191  0.3826
  882MOL0     C16351   7.499   6.806   5.952  0.4644 -0.7228 -0.2122
  882MOL0     C16352   7.614   6.897   5.987 -0.0812 -0.5921  0.6744
  882MOL0     C16353   7.657   6.986   5.872  0.4587 -0.6841 -0.0630
  882MOL0     C16354   7.756   7.101   5.925 -0.0386 -1.0411  0.0193
  882MOL0     C16355   7.872   7.043   6.000 -0.4243  1.1674  0.0752
  882MOL0     C16356   7.953   6.986   6.076 -1.0171 -0.6136  1.0170
  882MOL0     C16357   7.261   6.651   5.918  1.2912  0.3153  0.8826
  882MOL0     C16358   7.136   6.585   5.906 -0.0471  0.4303  0.5884
  882MOL0     H16359   6.756   6.437   5.682 -1.7862 -2.9453 -1.4482
  882MOL0     H16360   6.521   6.343   5.656 -0.9143 -0.6820 -0.7983
  882MOL0     H16361   6.269   6.416   5.925  1.7982 -0.3390 -2.3692
  882MOL0     H16362   6.289   6.286   6.055 -0.5203  1.4170  0.7872
  882MOL0     H16363   6.064   6.269   5.982 -1.7745  0.1913 -1.7783
  882MOL0     H16364   6.151   6.128   5.945  0.8990  0.2873  0.7084
  882MOL0     H16365   6.164   6.200   5.699 -1.2464 -1.0025  0.2192
  882MOL0     H16366   6.104   6.361   5.760 -5.4378  0.8920  1.8027
  882MOL0     H16367   5.968   6.086   5.754  2.7697  0.0300 -2.7082
  882MOL0     H16368   5.898   6.242   5.819  0.8919  0.9362 -0.2675
  882MOL0     H16369   5.973   6.181   5.531  3.2672  0.7969  0.6562
  882MOL0     H16370   5.949   6.346   5.591 -3.3402  0.8018  0.2144
  882MOL0     H16371   5.745   6.257   5.481  2.9350 -2.0903 -1.5310
  882MOL0     H16372   5.727   6.290   5.660  1.8060 -0.9027  1.4202
  882MOL0     H16373   5.757   6.051   5.705  0.8377 -0.0041  0.9936
  882MOL0     H16374   5.615   6.097   5.598  0.3182  2.1521 -0.7935
  882MOL0     H16375   5.849   5.941   5.505 -1.1051  0.4811  2.8399
  882MOL0     H16376   5.753   6.036   5.395  1.7223  2.7358  0.9216
  882MOL0     H16377   5.676   5.790   5.692  1.7434  0.2264 -2.0174
  882MOL0     H16378   5.455   5.594   5.725  1.4144  0.1685  0.9908
  882MOL0     H16379   5.604   5.527   5.679 -0.4982 -0.1967  0.6383
  882MOL0     H16380   5.470   5.442   5.457 -0.1963 -2.2344  1.6052
  882MOL0     H16381   5.333   5.513   5.521 -1.6570 -2.0663 -0.1249
  882MOL0     H16382   5.478   5.319   5.694 -0.3483 -3.5100  1.0383
  882MOL0     H16383   5.313   5.364   5.706 -1.4036 -0.7063 -1.3917
  882MOL0     H16384   5.301   5.136   5.617  1.0677 -2.1455 -1.2418
  882MOL0     H16385   5.431   5.177   5.496  2.1134 -0.6043  3.0381
  882MOL0     H16386   5.279   4.989   5.420  0.8275 -0.8106 -2.7261
  882MOL0     H16387   5.145   4.870   5.269 -0.4862 -0.2493  0.6443
  882MOL0     H16388   4.672   4.857   5.073 -0.8995 -1.5643 -0.5268
  882MOL0     H16389   4.502   4.802   4.916 -0.0616  0.2660  3.1815
  882MOL0     H16390   4.460   4.988   4.510 -1.7500 -3.4571 -2.1535
  882MOL0     H16391   4.364   5.087   4.621  2.3873  1.4155 -1.3272
  882MOL0     H16392   4.294   4.804   4.512 -1.8164 -1.6263 -0.9387
  882MOL0     H16393   4.256   4.958   4.424 -0.4683  2.2709  1.8961
  882MOL0     H16394   4.134   5.053   4.622  0.7372  0.5708  0.3026
  882MOL0     H16395   4.163   4.896   4.697  2.0221 -1.3792 -0.3744
  882MOL0     H16396   4.025   4.932   4.431  1.5990 -0.3649 -0.7262
  882MOL0     H16397   4.051   4.782   4.502 -1.1208  0.5671 -2.6274
  882MOL0     H16398   3.894   5.015   4.613 -1.1829 -0.1468  0.0216
  882MOL0     H16399   3.893   4.849   4.695  0.2769  0.9237  0.0101
  882MOL0     H16400   3.804   4.792   4.452  1.7612  0.8575 -0.8373
  882MOL0     H16401   3.759   4.962   4.455  0.3827  2.1054  1.4126
  882MOL0     H16402   3.681   4.771   4.688 -2.0294 -0.8392 -0.1716
  882MOL0     H16403   3.614   4.929   4.632 -0.9999 -1.9818  2.3891
  882MOL0     H16404   3.525   4.814   4.426  1.2780 -0.4122 -1.7001
  882MOL0     H16405   3.457   4.783   4.585  0.6959  0.5135  0.9657
  882MOL0     H16406   4.636   5.122   4.657 -1.4876  0.5820 -0.1675
  882MOL0     H16407   4.801   5.161   4.787  0.0887 -1.4132 -4.3251
  882MOL0     H16408   4.941   5.240   5.160 -0.3692 -0.5957 -0.0171
  882MOL0     H16409   5.086   5.367   5.329  1.0864  0.2113  1.1660
  882MOL0     H16410   6.513   6.273   6.092  2.7160  0.7825  2.8623
  882MOL0     H16411   6.752   6.377   6.104 -1.7801 -1.6158  0.3046
  882MOL0     H16412   6.921   6.837   5.942 -0.3718 -0.0073  0.5652
  882MOL0     H16413   7.135   6.961   5.967  3.4040 -0.7306 -0.1273
  882MOL0     H16414   7.510   6.752   5.858 -3.0545 -0.8142 -0.6880
  882MOL0     H16415   7.500   6.722   6.023  1.1873 -1.3468 -0.9449
  882MOL0     H16416   7.574   6.954   6.071 -1.8729  2.6918 -2.1219
  882MOL0     H16417   7.700   6.837   6.018  0.8322  0.1125 -0.4139
  882MOL0     H16418   7.584   7.052   5.824  1.9926  0.2551 -1.2010
  882MOL0     H16419   7.710   6.923   5.800  2.8519 -0.9402  1.8005
  882MOL0     H16420   7.781   7.171   5.845 -2.3825  1.2992  1.1568
  882MOL0     H16421   7.701   7.166   5.994 -0.9191 -1.8787  0.1277
  882MOL0     H16422   8.021   6.928   6.134 -0.4480 -1.2664 -0.2659
  882MOL0     H16423   7.352   6.591   5.921  1.3768  0.4928  2.4605
  882MOL0     H16424   7.123   6.478   5.905  2.3547  0.0640 -0.0997
  883MOL0     O16425   6.808   9.483   7.534 -0.2207 -0.6646  0.6995
  883MOL0     C16426   6.850   9.371   7.561 -0.5699 -0.0242 -0.2252
  883MOL0     O16427   6.778   9.262   7.616 -0.8843  0.0393 -0.5001
  883MOL0     C16428   6.648   9.273   7.649  0.1539  0.6912 -0.3093
  883MOL0     C16429   6.563   9.298   7.537 -0.0201  0.1716  0.0337
  883MOL0     C16430   6.422   9.301   7.550 -0.0285 -0.3688 -0.7799
  883MOL0     C16431   6.376   9.270   7.680  1.0631 -0.8406  0.5153
  883MOL0     O16432   6.232   9.264   7.693 -0.2028  0.0374 -0.8269
  883MOL0     C16433   6.190   9.261   7.833 -0.3000 -0.0281  0.2209
  883MOL0     C16434   6.036   9.278   7.827 -1.8732  0.2094  0.3028
  883MOL0     C16435   5.986   9.374   7.725 -0.3616 -0.7594 -0.2158
  883MOL0     C16436   5.836   9.415   7.744 -0.1686 -0.1446 -0.5394
  883MOL0     C16437   5.800   9.520   7.645  0.9125 -0.2748 -0.8048
  883MOL0     C16438   5.665   9.579   7.673 -0.3751  0.0703 -0.8443
  883MOL0     C16439   5.558   9.464   7.687  0.0785 -0.0148  0.2332
  883MOL0     C16440   5.420   9.531   7.676 -0.3989  0.0964 -0.3228
  883MOL0     N16441   5.398   9.643   7.773 -0.1948  0.0894 -0.2748
  883MOL0     C16442   5.397   9.624   7.909  0.6391  0.0665  1.0440
  883MOL0     C16443   5.410   9.737   7.967 -0.8574 -0.6199  0.1331
  883MOL0     C16444   5.422   9.762   8.118  0.0662 -0.3681  1.3034
  883MOL0     C16445   5.288   9.814   8.167  0.6825  0.4384  0.4491
  883MOL0     C16446   5.171   9.714   8.151 -0.8502 -1.2909  0.6523
  883MOL0     C16447   5.062   9.747   8.248 -0.4943 -0.2526 -0.0616
  883MOL0     O16448   4.956   9.660   8.219  0.3128  0.3420  0.2874
  883MOL0     C16449   4.837   9.645   8.293 -1.3652 -0.0658 -0.1153
  883MOL0     C16450   4.746   9.547   8.257  0.3434 -0.9623  0.3536
  883MOL0     C16451   4.628   9.522   8.326 -0.7245 -0.0528 -0.4172
  883MOL0     C16452   4.591   9.606   8.430  0.4231 -0.8025  0.0987
  883MOL0     C16453   4.464   9.583   8.502 -0.4419  0.6197  0.6515
  883MOL0     O16454   4.382   9.495   8.439 -0.1858 -0.5945  0.2879
  883MOL0     C16455   4.257   9.476   8.484  0.9628  0.4137  0.4701
  883MOL0     C16456   4.217   9.344   8.488  0.4777  0.9852 -1.1659
  883MOL0     C16457   4.095   9.309   8.557 -0.2421 -0.2835 -0.2897
  883MOL0     C16458   4.010   9.407   8.609  0.7848 -0.2783  0.5569
  883MOL0     O16459   3.888   9.368   8.668  0.1346  0.1289  0.3989
  883MOL0     C16460   3.780   9.461   8.654  0.1152  0.5242 -0.6742
  883MOL0     C16461   3.643   9.403   8.684 -0.8547 -0.0373  0.8951
  883MOL0     C16462   3.601   9.279   8.599  0.7323  0.1168 -0.6451
  883MOL0     C16463   3.456   9.292   8.554 -1.0619  0.0092  0.4708
  883MOL0     C16464   3.403   9.174   8.465 -0.8349 -0.8411 -0.2052
  883MOL0     C16465   3.375   9.039   8.540  0.7833 -0.1429 -0.5645
  883MOL0     C16466   3.305   8.937   8.448  1.3442 -0.1135 -0.7401
  883MOL0     C16467   3.152   8.955   8.457 -0.6689 -0.5032  0.3282
  883MOL0    Cl16468   3.089   8.902   8.617 -0.2036  0.0380  0.2668
  883MOL0     C16469   4.044   9.540   8.581 -0.4955  0.0031  0.4201
  883MOL0     C16470   4.164   9.573   8.535 -0.0491  0.0386 -0.4317
  883MOL0     O16471   4.442   9.656   8.596 -0.2528 -0.2830 -0.3916
  883MOL0     C16472   4.677   9.708   8.466  0.0266 -0.1999  0.1457
  883MOL0     C16473   4.795   9.726   8.396  0.4322 -0.0328  1.1027
  883MOL0     N16474   5.425   9.833   7.866 -0.9730  0.6561  0.9530
  883MOL0     N16475   5.428   9.773   7.746 -0.5397 -0.7197  0.0431
  883MOL0     C16476   6.456   9.251   7.791 -0.5007  0.4981 -0.3864
  883MOL0     C16477   6.593   9.244   7.773 -0.2569  0.0132  0.4718
  883MOL0     C16478   6.994   9.333   7.514  0.1701 -0.4352 -0.1020
  883MOL0     C16479   7.064   9.419   7.432  0.9396  0.4055  0.2827
  883MOL0     C16480   7.194   9.390   7.391  0.5822 -0.4217 -0.1816
  883MOL0     C16481   7.262   9.284   7.449  0.0966  1.1205  0.1771
  883MOL0     O16482   7.393   9.268   7.412  0.4605  0.0849 -0.2970
  883MOL0     C16483   7.480   9.188   7.492 -0.5511 -0.4496 -0.5905
  883MOL0     C16484   7.619   9.248   7.491 -0.0633 -0.6919 -0.2936
  883MOL0     C16485   7.705   9.222   7.361  0.0137  0.0053 -0.7399
  883MOL0     C16486   7.860   9.242   7.372 -0.3514 -0.1610  0.0665
  883MOL0     C16487   7.936   9.232   7.248 -0.8294 -0.2715 -0.9326
  883MOL0     C16488   8.004   9.235   7.147 -0.5994 -0.1640 -0.2902
  883MOL0     C16489   7.191   9.192   7.529 -0.2077 -0.0515 -0.2091
  883MOL0     C16490   7.054   9.214   7.555  0.7830 -0.4710  0.5441
  883MOL0     H16491   6.613   9.325   7.444 -5.0554 -0.0587 -3.1579
  883MOL0     H16492   6.350   9.337   7.478 -1.0088  1.5874  1.0475
  883MOL0     H16493   6.226   9.352   7.882 -0.6903  0.6486 -0.7166
  883MOL0     H16494   6.217   9.172   7.891 -0.0504 -1.8285 -2.4643
  883MOL0     H16495   6.002   9.319   7.923  0.1170  2.1809  0.2337
  883MOL0     H16496   5.992   9.178   7.812  4.3221 -2.8390 -0.9455
  883MOL0     H16497   5.988   9.332   7.624 -1.0172  3.7376 -2.3471
  883MOL0     H16498   6.057   9.457   7.717  0.2265 -1.4067 -2.4445
  883MOL0     H16499   5.774   9.326   7.733 -3.9934  2.3890 -1.5045
  883MOL0     H16500   5.820   9.452   7.846  2.0801 -1.3374  0.3153
  883MOL0     H16501   5.796   9.470   7.548  1.1478 -4.0671  0.9772
  883MOL0     H16502   5.867   9.607   7.652 -0.7347  0.9644  0.5286
  883MOL0     H16503   5.639   9.648   7.591  0.9011  1.8267  0.1634
  883MOL0     H16504   5.683   9.640   7.762 -1.1509  2.0162 -1.9408
  883MOL0     H16505   5.557   9.399   7.599 -2.4297 -4.3634  3.0812
  883MOL0     H16506   5.569   9.406   7.779 -2.0719  0.9040  1.1478
  883MOL0     H16507   5.333   9.465   7.673  0.1446 -0.6734  0.4610
  883MOL0     H16508   5.418   9.570   7.574  1.2738  0.6794 -0.1647
  883MOL0     H16509   5.385   9.529   7.960  0.3704 -0.4231  0.0938
  883MOL0     H16510   5.511   9.825   8.124  0.1232 -0.4527  1.3494
  883MOL0     H16511   5.444   9.667   8.168  0.3898 -0.5897  0.7569
  883MOL0     H16512   5.261   9.904   8.111  1.0012  1.5111  1.9468
  883MOL0     H16513   5.302   9.850   8.269  1.0539  1.0493  0.1905
  883MOL0     H16514   5.125   9.730   8.053 -0.7604  1.0241  0.9423
  883MOL0     H16515   5.211   9.613   8.159  3.7008  0.2719  0.4406
  883MOL0     H16516   5.034   9.853   8.240  0.6085 -0.0382 -1.9080
  883MOL0     H16517   5.099   9.727   8.348 -0.4028  0.6860  0.1011
  883MOL0     H16518   4.761   9.483   8.171 -1.0699 -1.1398  0.2056
  883MOL0     H16519   4.565   9.438   8.299  2.4133 -2.2617 -1.4782
  883MOL0     H16520   4.281   9.262   8.458 -1.2764 -0.5365 -0.9777
  883MOL0     H16521   4.063   9.207   8.574 -4.1957  0.9647  0.7495
  883MOL0     H16522   3.776   9.497   8.551  0.2763  1.4859 -0.3564
  883MOL0     H16523   3.804   9.550   8.712  1.4791  0.8574 -1.7040
  883MOL0     H16524   3.573   9.487   8.676 -2.9181 -1.5969  1.6685
  883MOL0     H16525   3.644   9.371   8.789  2.3201  1.0975  1.3395
  883MOL0     H16526   3.621   9.181   8.644 -1.4933  0.1271  0.5126
  883MOL0     H16527   3.671   9.281   8.515 -0.1505  2.0064 -1.3968
  883MOL0     H16528   3.390   9.290   8.641 -3.1545 -0.6923 -1.0244
  883MOL0     H16529   3.455   9.385   8.496 -2.6912 -0.8123 -0.8978
  883MOL0     H16530   3.484   9.162   8.394  0.9568  2.1013  1.1270
  883MOL0     H16531   3.313   9.209   8.413  1.1147  0.2386 -3.0475
  883MOL0     H16532   3.308   9.050   8.626  1.2784  0.5420 -0.2575
  883MOL0     H16533   3.466   8.989   8.573  0.6017  1.0158  1.9338
  883MOL0     H16534   3.333   8.953   8.343  1.3841  1.1848 -0.5476
  883MOL0     H16535   3.339   8.837   8.475  0.7578 -0.0279  0.3344
  883MOL0     H16536   3.112   8.892   8.377 -1.0066 -0.1624  0.2215
  883MOL0     H16537   3.112   9.056   8.443 -2.1862 -1.3404 -1.9785
  883MOL0     H16538   3.972   9.618   8.603 -3.4473 -3.3413  3.9954
  883MOL0     H16539   4.203   9.673   8.523  0.4421  0.0275  0.9083
  883MOL0     H16540   4.650   9.785   8.537 -1.4285  1.2920 -1.8824
  883MOL0     H16541   4.854   9.812   8.429 -2.3789  3.1164 -1.3614
  883MOL0     H16542   6.433   9.226   7.894  0.3831  0.2748 -0.2266
  883MOL0     H16543   6.665   9.225   7.852  1.5344  2.0884 -0.5702
  883MOL0     H16544   7.022   9.510   7.390  0.8836 -0.9162 -2.8265
  883MOL0     H16545   7.234   9.451   7.310  1.0732  0.2990  0.5906
  883MOL0     H16546   7.473   9.085   7.455 -0.2728 -0.3861 -0.8242
  883MOL0     H16547   7.454   9.185   7.598 -0.3200 -2.3868 -0.5513
  883MOL0     H16548   7.616   9.357   7.503  2.1987 -0.7878  1.8820
  883MOL0     H16549   7.674   9.217   7.580 -1.9920 -4.0743 -0.1491
  883MOL0     H16550   7.669   9.288   7.282 -0.3186  1.0925  0.2874
  883MOL0     H16551   7.679   9.117   7.342 -1.2357 -0.6058  3.3180
  883MOL0     H16552   7.882   9.339   7.418  0.2326  0.3126 -1.1864
  883MOL0     H16553   7.887   9.161   7.441 -0.4583  0.0469  0.3517
  883MOL0     H16554   8.046   9.258   7.052  1.8963 -2.8446 -0.0023
  883MOL0     H16555   7.228   9.102   7.576 -2.5461 -1.9306 -1.7225
  883MOL0     H16556   7.003   9.154   7.630  3.6975 -3.4385  0.4117
  884MOL0     O16557  11.059   1.064   7.600  0.2210  0.1016 -0.5852
  884MOL0     C16558  11.139   1.005   7.528 -0.0142  0.4142  0.6759
  884MOL0     O16559  11.111   0.888   7.459 -0.0875 -0.1072 -0.5948
  884MOL0     C16560  11.000   0.814   7.484 -0.1170  0.5981  0.1722
  884MOL0     C16561  10.898   0.796   7.387 -1.4704  0.2536  0.1071
  884MOL0     C16562  10.790   0.724   7.412  0.5323 -0.0901 -0.7537
  884MOL0     C16563  10.762   0.666   7.541  0.7850 -0.5475  0.1218
  884MOL0     O16564  10.636   0.600   7.563  0.7786  0.1047  0.3810
  884MOL0     C16565  10.555   0.668   7.657 -0.3001  0.5802  0.3244
  884MOL0     C16566  10.477   0.564   7.749 -1.1952 -0.1823  0.2541
  884MOL0     C16567  10.340   0.627   7.793 -0.0640  1.5998  0.1128
  884MOL0     C16568  10.239   0.525   7.846  0.3159 -0.1770 -0.6229
  884MOL0     C16569  10.109   0.572   7.921 -0.9381 -1.0270 -0.8954
  884MOL0     C16570  10.013   0.464   7.967 -0.7603 -0.1995  0.8576
  884MOL0     C16571   9.888   0.539   7.999  0.1445  1.2971 -0.3210
  884MOL0     C16572   9.763   0.469   7.924 -0.9878  0.0384 -0.9899
  884MOL0     N16573   9.710   0.351   7.989  0.1335 -0.1932  0.5123
  884MOL0     C16574   9.749   0.217   7.974 -0.0508  0.3950  0.3064
  884MOL0     C16575   9.654   0.145   8.042  0.0863  0.2561  0.6147
  884MOL0     C16576   9.683  -0.001   8.080 -0.2064 -0.7126 -0.2189
  884MOL0     C16577   9.609  -0.097   7.990  0.4023  0.3472  0.2298
  884MOL0     C16578   9.642  -0.239   8.051  0.1923 -0.6656  1.1170
  884MOL0     C16579   9.577  -0.358   7.973 -0.3499 -0.6195  0.4975
  884MOL0     O16580   9.436  -0.344   7.960 -0.4326  1.3341 -0.0163
  884MOL0     C16581   9.351  -0.356   8.068  0.4051  1.4269  0.6649
  884MOL0     C16582   9.395  -0.407   8.186 -0.0681  0.3158 -0.9631
  884MOL0     C16583   9.312  -0.395   8.303  0.0963 -0.1363 -0.1829
  884MOL0     C16584   9.179  -0.344   8.296 -0.4310 -0.0625  1.0656
  884MOL0     C16585   9.099  -0.318   8.423 -0.7361 -0.6141  0.3863
  884MOL0     O16586   8.980  -0.254   8.420  0.2136  0.5542  0.2012
  884MOL0     C16587   8.885  -0.274   8.522 -0.0372 -0.1676 -0.4842
  884MOL0     C16588   8.913  -0.263   8.655  0.2150 -1.2128 -0.3867
  884MOL0     C16589   8.826  -0.291   8.757 -0.7380  0.1164 -0.3625
  884MOL0     C16590   8.705  -0.352   8.717  0.6830  0.1265 -0.2583
  884MOL0     O16591   8.625  -0.405   8.812 -0.3545 -0.9524 -0.2796
  884MOL0     C16592   8.689  -0.499   8.905 -0.2955  0.0728  0.2521
  884MOL0     C16593   8.603  -0.600   8.981  0.0935 -0.2582  0.7242
  884MOL0     C16594   8.515  -0.686   8.885  0.7689  0.0823  0.5000
  884MOL0     C16595   8.466  -0.824   8.949  1.0299  0.0892 -0.0259
  884MOL0     C16596   8.366  -0.907   8.861  0.1983  0.1248 -0.3772
  884MOL0     C16597   8.347  -1.044   8.926 -0.1695  0.1375 -0.0427
  884MOL0     C16598   8.295  -1.139   8.824 -0.4935 -0.2347  0.0151
  884MOL0     C16599   8.259  -1.282   8.873 -0.3246 -0.3574  1.4084
  884MOL0    Cl16600   8.408  -1.385   8.872 -0.6172  0.1450 -0.2848
  884MOL0     C16601   8.672  -0.378   8.586 -0.8820 -0.1828  0.8179
  884MOL0     C16602   8.755  -0.320   8.488  0.6162 -0.0029 -0.6217
  884MOL0     O16603   9.146  -0.373   8.516 -0.2800 -0.5800  0.6496
  884MOL0     C16604   9.140  -0.296   8.170 -0.1715  0.8257 -0.1466
  884MOL0     C16605   9.214  -0.309   8.054  0.3107 -1.1380 -0.0392
  884MOL0     N16606   9.557   0.229   8.096 -0.5018  0.6790 -0.4116
  884MOL0     N16607   9.597   0.351   8.073  0.3633 -0.1554 -0.2812
  884MOL0     C16608  10.864   0.673   7.639 -0.2829 -0.0726 -0.8380
  884MOL0     C16609  10.977   0.755   7.606 -0.4148  0.2453  0.0608
  884MOL0     C16610  11.276   1.067   7.517 -0.4480  0.7539 -0.8715
  884MOL0     C16611  11.314   1.187   7.588 -0.2966  0.9864  0.6739
  884MOL0     C16612  11.435   1.234   7.569 -0.4663  0.1443  0.7491
  884MOL0     C16613  11.538   1.166   7.506  0.0139 -0.1788  0.3392
  884MOL0     O16614  11.661   1.229   7.484  0.1480 -0.4354  0.5094
  884MOL0     C16615  11.704   1.282   7.356 -0.3592  0.6259 -0.3191
  884MOL0     C16616  11.855   1.277   7.337  0.3380 -0.2376  0.0470
  884MOL0     C16617  11.882   1.359   7.220 -0.0057 -0.3682 -0.1178
  884MOL0     C16618  12.025   1.331   7.178 -0.6887 -0.5578  0.7067
  884MOL0     C16619  12.059   1.411   7.054 -0.3024  0.2130 -0.7104
  884MOL0     C16620  12.098   1.472   6.960 -0.4701 -0.4536  0.9002
  884MOL0     C16621  11.516   1.040   7.459  0.3245  0.4641 -0.1363
  884MOL0     C16622  11.381   0.991   7.457 -0.5415  0.0925 -1.2337
  884MOL0     H16623  10.917   0.827   7.285 -0.9930 -1.0139 -0.2211
  884MOL0     H16624  10.711   0.717   7.338  0.6532  4.2609 -1.5456
  884MOL0     H16625  10.480   0.706   7.586 -1.5704 -1.8931  0.2167
  884MOL0     H16626  10.606   0.748   7.710  2.9210 -0.2585 -1.2431
  884MOL0     H16627  10.536   0.536   7.836  0.8001  0.5485 -0.7989
  884MOL0     H16628  10.463   0.471   7.694 -2.6534  0.9637 -1.4347
  884MOL0     H16629  10.298   0.684   7.710 -0.5763  0.3876 -0.4808
  884MOL0     H16630  10.367   0.705   7.866  1.0079  0.9223  0.4672
  884MOL0     H16631  10.213   0.462   7.760 -1.1239 -0.2802 -0.1402
  884MOL0     H16632  10.289   0.470   7.925  0.1437  2.1577  1.2329
  884MOL0     H16633  10.050   0.646   7.866 -2.2608 -0.0348  1.6825
  884MOL0     H16634  10.123   0.642   8.005 -2.4039  0.1990 -1.6270
  884MOL0     H16635  10.047   0.410   8.056 -0.9425 -0.8003  0.5721
  884MOL0     H16636   9.990   0.384   7.895  2.4417 -0.4498 -0.0114
  884MOL0     H16637   9.878   0.528   8.108  1.6063 -3.3123 -0.4315
  884MOL0     H16638   9.890   0.644   7.968 -3.0994  1.7020  0.4126
  884MOL0     H16639   9.794   0.455   7.820  0.8861  1.8999 -0.7617
  884MOL0     H16640   9.681   0.537   7.900 -0.7997  0.1095 -1.4432
  884MOL0     H16641   9.834   0.175   7.921 -0.4983  1.1081 -1.0151
  884MOL0     H16642   9.670  -0.023   8.186  1.2951  1.0168  0.3839
  884MOL0     H16643   9.792  -0.004   8.068  0.5414  4.0329  2.6052
  884MOL0     H16644   9.642  -0.089   7.886  1.0207  0.7767  0.4549
  884MOL0     H16645   9.500  -0.089   7.999  0.1646  0.7231 -2.2959
  884MOL0     H16646   9.748  -0.253   8.028 -0.2883 -0.7191 -1.4367
  884MOL0     H16647   9.619  -0.241   8.158 -0.4231  1.7503  1.1042
  884MOL0     H16648   9.613  -0.450   8.020  2.9246  0.0192 -0.5049
  884MOL0     H16649   9.622  -0.358   7.874 -1.1557 -0.8177  0.1241
  884MOL0     H16650   9.494  -0.450   8.200 -0.4673 -0.6100 -0.8977
  884MOL0     H16651   9.350  -0.431   8.398  0.0868  0.9898  0.2641
  884MOL0     H16652   9.008  -0.226   8.693  0.1557 -1.0201 -0.4258
  884MOL0     H16653   8.834  -0.266   8.863  0.0923 -1.6703  0.0251
  884MOL0     H16654   8.745  -0.445   8.981  1.4191 -0.6191 -0.4745
  884MOL0     H16655   8.757  -0.554   8.839 -1.4321 -2.5521  1.1393
  884MOL0     H16656   8.547  -0.538   9.052  0.0931 -2.0408  2.3564
  884MOL0     H16657   8.667  -0.671   9.034 -3.0536 -2.5730  1.7162
  884MOL0     H16658   8.578  -0.707   8.798 -1.7078 -1.0467 -1.1567
  884MOL0     H16659   8.434  -0.620   8.854 -1.0514 -0.3033  3.9373
  884MOL0     H16660   8.552  -0.887   8.973  2.6139  2.4365  0.8269
  884MOL0     H16661   8.420  -0.811   9.047  3.4542  1.8712  0.9582
  884MOL0     H16662   8.411  -0.925   8.763 -0.9795  0.5547 -1.0146
  884MOL0     H16663   8.271  -0.854   8.850 -1.7227 -3.2686 -1.3254
  884MOL0     H16664   8.278  -1.040   9.010 -1.0765  0.3746 -0.7860
  884MOL0     H16665   8.447  -1.075   8.957  0.7314  0.2843 -2.5324
  884MOL0     H16666   8.204  -1.098   8.780 -0.2077 -1.7425 -2.1348
  884MOL0     H16667   8.366  -1.141   8.741  0.1324  0.2491  0.5267
  884MOL0     H16668   8.187  -1.339   8.815 -0.2334 -1.6541  2.5258
  884MOL0     H16669   8.235  -1.287   8.980 -0.7612 -0.4169  1.3105
  884MOL0     H16670   8.579  -0.427   8.559 -1.9608  0.5677  2.9623
  884MOL0     H16671   8.719  -0.328   8.385 -2.5232  1.8604  0.1879
  884MOL0     H16672   9.045  -0.245   8.165  0.5355  2.0520 -2.2445
  884MOL0     H16673   9.190  -0.259   7.961  2.7627  1.3651  0.5534
  884MOL0     H16674  10.841   0.630   7.736 -4.4702  3.3164 -0.0337
  884MOL0     H16675  11.057   0.768   7.679 -1.6406  1.0677  1.3067
  884MOL0     H16676  11.241   1.254   7.633 -0.3741  0.7236  0.9470
  884MOL0     H16677  11.466   1.334   7.600 -0.4571  0.8406 -1.3545
  884MOL0     H16678  11.673   1.387   7.359 -3.1257 -0.1005 -0.5953
  884MOL0     H16679  11.652   1.230   7.275  0.7537 -1.4870  0.2459
  884MOL0     H16680  11.904   1.330   7.420 -0.7683  0.3016  0.3690
  884MOL0     H16681  11.883   1.172   7.328  0.1558 -0.2579 -0.2916
  884MOL0     H16682  11.860   1.467   7.225 -2.5706 -0.8804  2.6411
  884MOL0     H16683  11.814   1.320   7.145  1.2482 -0.3242 -1.3164
  884MOL0     H16684  12.097   1.366   7.252  0.3068 -0.2290 -0.3893
  884MOL0     H16685  12.048   1.225   7.165  5.2722  0.2689  1.9345
  884MOL0     H16686  12.125   1.542   6.884  0.1337 -0.2249  1.3162
  884MOL0     H16687  11.605   0.996   7.417 -0.0281 -1.4259  0.9956
  884MOL0     H16688  11.377   0.889   7.420  1.0193 -2.3927  4.3561
  885MOL0     O16689   3.504   0.085   8.046  0.1279 -0.3240  0.1373
  885MOL0     C16690   3.576   0.100   7.943  0.2335 -0.0666 -0.3088
  885MOL0     O16691   3.533   0.143   7.824  0.2087 -0.3928  0.2143
  885MOL0     C16692   3.400   0.161   7.820 -0.2166  0.0124 -0.1949
  885MOL0     C16693   3.305   0.055   7.829 -0.2967  0.1819 -0.1160
  885MOL0     C16694   3.172   0.073   7.821  0.3966 -0.4970 -0.7396
  885MOL0     C16695   3.124   0.200   7.803 -0.3519 -0.4396 -0.6302
  885MOL0     O16696   2.987   0.190   7.811 -0.1243 -0.1546  0.2473
  885MOL0     C16697   2.918   0.309   7.769  0.5734  1.2340  0.5115
  885MOL0     C16698   2.771   0.275   7.746  0.0189 -0.1123 -0.1164
  885MOL0     C16699   2.694   0.279   7.874 -0.7951  0.4625  0.5758
  885MOL0     C16700   2.545   0.275   7.836  0.0836 -0.1912  0.6090
  885MOL0     C16701   2.467   0.304   7.961 -0.8766  1.0488  0.1875
  885MOL0     C16702   2.322   0.245   7.966 -0.0576  0.1295  0.0116
  885MOL0     C16703   2.230   0.300   7.850  0.0051 -0.6096  0.3681
  885MOL0     C16704   2.209   0.454   7.854  1.0520  0.4049  0.0032
  885MOL0     N16705   2.078   0.501   7.803 -0.4648 -0.5735 -0.2903
  885MOL0     C16706   2.049   0.518   7.672  0.2020  0.4558  0.7589
  885MOL0     C16707   1.913   0.543   7.671  0.2769  0.2133  0.5027
  885MOL0     C16708   1.819   0.554   7.562  0.0726 -0.5158 -0.5168
  885MOL0     C16709   1.798   0.412   7.529 -0.4102 -0.2504  0.3912
  885MOL0     C16710   1.665   0.391   7.457 -0.5979  0.4137  0.8569
  885MOL0     C16711   1.545   0.384   7.546  1.1336  0.1557 -0.7189
  885MOL0     O16712   1.429   0.377   7.466  0.5788 -0.6734  0.5515
  885MOL0     C16713   1.306   0.326   7.517 -0.5887  0.4269 -0.3921
  885MOL0     C16714   1.196   0.398   7.500  0.5621 -0.6311  0.0256
  885MOL0     C16715   1.076   0.354   7.554 -0.0587 -0.4866 -0.0889
  885MOL0     C16716   1.071   0.228   7.623 -0.1501  0.2064 -0.0789
  885MOL0     C16717   0.944   0.174   7.674 -0.5930 -0.8178 -0.2307
  885MOL0     O16718   0.837   0.227   7.610  0.6168  0.4472 -0.4616
  885MOL0     C16719   0.706   0.195   7.641 -0.0382 -0.3627  0.5850
  885MOL0     C16720   0.613   0.229   7.543  0.1109 -0.3732  0.3033
  885MOL0     C16721   0.482   0.203   7.583 -0.5327  0.3901 -0.8414
  885MOL0     C16722   0.437   0.155   7.705  0.3777 -0.3502 -0.4952
  885MOL0     O16723   0.298   0.150   7.738 -0.1127 -0.3898 -0.8844
  885MOL0     C16724   0.212   0.117   7.633  0.6967  0.3574 -0.4752
  885MOL0     C16725   0.075   0.068   7.692 -0.4550  0.2024 -0.0116
  885MOL0     C16726   0.090  -0.072   7.764 -0.7563  0.7077 -0.0235
  885MOL0     C16727   0.110  -0.180   7.660  0.2192  0.5566 -0.0210
  885MOL0     C16728   0.118  -0.318   7.739 -0.2563  0.5332  0.6660
  885MOL0     C16729   0.013  -0.408   7.685  0.1925  0.2955  1.0107
  885MOL0     C16730   0.010  -0.559   7.738 -0.1296 -0.8254  0.6160
  885MOL0     C16731   0.135  -0.640   7.710  0.0834 -0.0459  0.0821
  885MOL0    Cl16732   0.070  -0.800   7.739  0.6404 -0.2351 -0.1231
  885MOL0     C16733   0.531   0.119   7.796 -0.7744  0.6080  0.3894
  885MOL0     C16734   0.665   0.140   7.773  0.3497  0.5612  0.3751
  885MOL0     O16735   0.954   0.087   7.757  0.7688 -0.3551 -0.1022
  885MOL0     C16736   1.192   0.156   7.637  0.5658 -0.7791 -0.3051
  885MOL0     C16737   1.306   0.199   7.575 -0.6955 -0.1941  0.0199
  885MOL0     N16738   1.880   0.547   7.806 -0.5274  0.1440 -0.2513
  885MOL0     N16739   1.974   0.516   7.880  0.2520 -0.0189 -0.3773
  885MOL0     C16740   3.214   0.320   7.787  0.4147  0.3828 -0.5502
  885MOL0     C16741   3.357   0.297   7.793 -0.0795  0.8693  0.2515
  885MOL0     C16742   3.719   0.082   7.956  1.0144 -0.2833 -0.0734
  885MOL0     C16743   3.781   0.056   8.083 -0.5227 -0.7604  0.2516
  885MOL0     C16744   3.916   0.031   8.106 -1.0555 -0.2578 -0.8088
  885MOL0     C16745   4.001   0.009   7.990 -1.0800  0.0891  0.0286
  885MOL0     O16746   4.133  -0.035   7.997 -0.0246  0.1793 -0.8030
  885MOL0     C16747   4.205  -0.041   8.123  0.5313  0.3566 -0.1869
  885MOL0     C16748   4.347  -0.077   8.090  0.1827  0.7018 -0.3170
  885MOL0     C16749   4.418   0.013   8.001 -0.8932  0.8419 -0.2530
  885MOL0     C16750   4.563  -0.055   7.983  0.4293  0.0305  0.4890
  885MOL0     C16751   4.649  -0.045   8.098 -0.0001  0.7194  0.0933
  885MOL0     C16752   4.709  -0.033   8.202 -0.5216  0.4826 -0.9735
  885MOL0     C16753   3.942   0.030   7.863  0.5699 -0.0196 -0.3674
  885MOL0     C16754   3.801   0.066   7.845  0.2724  0.5421  0.0919
  885MOL0     H16755   3.341  -0.046   7.846 -0.3898 -0.0239 -1.1107
  885MOL0     H16756   3.101  -0.008   7.833 -2.3061  1.8651  0.3069
  885MOL0     H16757   2.953   0.342   7.671 -3.6715  1.1085 -1.2781
  885MOL0     H16758   2.929   0.385   7.846  1.9074  0.6458  0.9341
  885MOL0     H16759   2.773   0.179   7.694 -1.1508 -0.6862  0.8485
  885MOL0     H16760   2.729   0.358   7.689 -2.0532 -2.3777 -2.0626
  885MOL0     H16761   2.726   0.364   7.936  2.5089  0.9093 -1.4951
  885MOL0     H16762   2.725   0.194   7.935  0.7155 -0.3829 -1.2896
  885MOL0     H16763   2.522   0.346   7.756 -4.7100 -3.8959 -1.8069
  885MOL0     H16764   2.519   0.186   7.777  1.6740  0.4756 -1.1945
  885MOL0     H16765   2.466   0.412   7.974  1.6051  1.0184  1.2095
  885MOL0     H16766   2.526   0.265   8.045 -0.8496  0.0129 -0.2978
  885MOL0     H16767   2.274   0.281   8.058 -0.7008  0.2426 -0.3599
  885MOL0     H16768   2.320   0.135   7.970 -0.3797  0.0578 -1.5052
  885MOL0     H16769   2.269   0.272   7.751 -5.3995  1.2762 -2.7674
  885MOL0     H16770   2.138   0.241   7.853 -0.4145  0.0862  1.9478
  885MOL0     H16771   2.286   0.504   7.795 -1.8425  3.1935 -1.7767
  885MOL0     H16772   2.220   0.485   7.958 -1.2139 -4.3980  1.9788
  885MOL0     H16773   2.119   0.498   7.592  1.7663  2.3071  1.5970
  885MOL0     H16774   1.855   0.597   7.468 -0.0523 -1.6221 -1.0779
  885MOL0     H16775   1.728   0.606   7.595 -0.4766 -2.7901  1.9156
  885MOL0     H16776   1.795   0.345   7.615 -1.9104 -0.5026  0.1714
  885MOL0     H16777   1.887   0.391   7.469 -0.1478  0.1149  0.6497
  885MOL0     H16778   1.647   0.475   7.389 -0.9292  0.6794  1.2623
  885MOL0     H16779   1.665   0.292   7.411  0.7410 -1.7290  4.9716
  885MOL0     H16780   1.531   0.460   7.624 -2.0666  0.9375 -1.9339
  885MOL0     H16781   1.549   0.293   7.606 -2.3031 -1.0793 -2.1483
  885MOL0     H16782   1.207   0.498   7.460 -0.2032 -0.9877 -1.1065
  885MOL0     H16783   0.981   0.406   7.543 -0.2607 -1.1715 -1.7154
  885MOL0     H16784   0.639   0.248   7.439 -3.1443 -1.4808 -0.8269
  885MOL0     H16785   0.404   0.242   7.519 -0.9371  2.5590  0.8482
  885MOL0     H16786   0.249   0.035   7.569 -1.5838 -2.3589  1.4069
  885MOL0     H16787   0.197   0.209   7.575  0.9784  0.4306 -0.4340
  885MOL0     H16788   0.002   0.053   7.612 -1.6235  1.0744  0.8598
  885MOL0     H16789   0.048   0.152   7.757  1.1931  0.7354  0.0429
  885MOL0     H16790  -0.000  -0.088   7.823 -0.3936  1.3943  0.7396
  885MOL0     H16791   0.173  -0.066   7.836 -0.2649 -2.4701 -0.1558
  885MOL0     H16792   0.029  -0.171   7.586  0.4769  0.7757 -0.2811
  885MOL0     H16793   0.197  -0.153   7.598 -1.3430  3.0139 -1.3406
  885MOL0     H16794   0.111  -0.314   7.848 -0.3875 -3.3703  0.9418
  885MOL0     H16795   0.212  -0.371   7.720 -0.7100 -0.1807  0.3980
  885MOL0     H16796   0.021  -0.400   7.576 -3.1104  1.8365  0.7552
  885MOL0     H16797  -0.085  -0.373   7.718 -0.9330 -0.1328 -1.6068
  885MOL0     H16798   0.004  -0.547   7.846  0.9561 -0.3653  0.6426
  885MOL0     H16799  -0.076  -0.607   7.690 -1.2141 -0.0436  1.7091
  885MOL0     H16800   0.223  -0.601   7.763  1.0370 -1.1713 -0.5924
  885MOL0     H16801   0.159  -0.628   7.604 -0.4255 -2.7652 -0.4293
  885MOL0     H16802   0.502   0.070   7.888 -0.4443  0.4160  0.3877
  885MOL0     H16803   0.736   0.116   7.851  0.8109  1.7134  0.3350
  885MOL0     H16804   1.182   0.058   7.681 -4.1472  0.4109  2.0324
  885MOL0     H16805   1.391   0.130   7.575 -1.1064 -0.7198 -1.3943
  885MOL0     H16806   3.172   0.419   7.768  1.0620  0.9952  1.0803
  885MOL0     H16807   3.423   0.381   7.778 -1.4444  1.8039 -0.7479
  885MOL0     H16808   3.725   0.064   8.176 -2.4409 -0.5955 -0.8522
  885MOL0     H16809   3.957   0.032   8.207  2.0654  2.3920 -1.9482
  885MOL0     H16810   4.154  -0.117   8.184 -0.5986 -2.3469 -4.0888
  885MOL0     H16811   4.202   0.053   8.179  0.0816  0.2820 -0.0802
  885MOL0     H16812   4.408  -0.079   8.180  0.1597  3.5382 -0.1460
  885MOL0     H16813   4.357  -0.177   8.045  1.0359  0.2913  0.7500
  885MOL0     H16814   4.420   0.114   8.043  1.2557  0.3539  1.0075
  885MOL0     H16815   4.378   0.007   7.899  1.9697 -2.9178 -1.4390
  885MOL0     H16816   4.565  -0.158   7.945  1.0409  0.5557 -0.9666
  885MOL0     H16817   4.625   0.006   7.917 -1.1970  0.0584 -1.0977
  885MOL0     H16818   4.758  -0.029   8.297 -2.3313  0.5409  0.0028
  885MOL0     H16819   3.998   0.009   7.772  0.4498 -1.1868 -0.1880
  885MOL0     H16820   3.745   0.102   7.760 -1.1174  0.3533  0.8895
  886MOL0     O16821   0.709   8.921   2.915  0.4027 -0.4213  0.1140
  886MOL0     C16822   0.735   9.033   2.881 -0.7919 -0.6458  0.0239
  886MOL0     O16823   0.645   9.137   2.843 -0.3001 -0.4467 -0.2268
  886MOL0     C16824   0.509   9.120   2.845  0.5202  0.1316  0.3480
  886MOL0     C16825   0.433   9.177   2.748 -0.2762 -0.4667 -1.1453
  886MOL0     C16826   0.293   9.178   2.748 -0.0026  0.6331  0.3455
  886MOL0     C16827   0.223   9.103   2.853 -0.6681  0.1551 -0.0975
  886MOL0     O16828   0.087   9.095   2.865  0.9888  0.1815 -0.6339
  886MOL0     C16829   0.005   9.174   2.785  0.3735 -0.6620  0.1891
  886MOL0     C16830  -0.140   9.161   2.841  0.6864 -0.0721 -0.2985
  886MOL0     C16831  -0.222   9.294   2.819 -0.8027  0.2628 -0.0647
  886MOL0     C16832  -0.371   9.267   2.858 -0.3578  0.3608 -0.5116
  886MOL0     C16833  -0.453   9.150   2.803  0.6781  0.4717  0.8119
  886MOL0     C16834  -0.458   9.140   2.649 -0.1981 -0.2683 -0.3077
  886MOL0     C16835  -0.491   9.001   2.595  0.1408  0.1011 -0.0885
  886MOL0     C16836  -0.518   9.002   2.446 -0.9458 -0.9305  0.0469
  886MOL0     N16837  -0.386   9.020   2.381 -0.5190 -0.5493 -0.4603
  886MOL0     C16838  -0.347   9.140   2.319  0.3830 -0.0627 -0.0188
  886MOL0     C16839  -0.217   9.145   2.323 -0.4285 -0.9204 -0.5404
  886MOL0     C16840  -0.132   9.263   2.292 -0.3921  0.3827  1.0540
  886MOL0     C16841   0.017   9.237   2.260 -0.4238  0.4320 -0.2688
  886MOL0     C16842   0.091   9.377   2.266 -0.2153  0.1322 -0.1809
  886MOL0     C16843   0.245   9.336   2.246 -0.6666  0.3854  0.0901
  886MOL0     O16844   0.270   9.330   2.108  0.7068  0.6346  0.3310
  886MOL0     C16845   0.399   9.319   2.078  0.5736  0.4251  0.3448
  886MOL0     C16846   0.430   9.348   1.947  0.2085 -0.2818 -0.1661
  886MOL0     C16847   0.563   9.368   1.905  0.2739  0.0196 -0.3082
  886MOL0     C16848   0.670   9.336   1.986  0.9330  0.0834 -0.6208
  886MOL0     C16849   0.806   9.345   1.936  0.4540  0.0569 -0.1642
  886MOL0     O16850   0.902   9.289   2.022  0.2284 -0.5692  0.0395
  886MOL0     C16851   1.045   9.288   2.003 -0.7234  1.5638 -0.1046
  886MOL0     C16852   1.119   9.230   2.117  0.2794  0.5156  0.0007
  886MOL0     C16853   1.255   9.243   2.128 -0.6070 -0.0424  0.2126
  886MOL0     C16854   1.327   9.305   2.024  0.4996  0.1976  0.8059
  886MOL0     O16855   1.460   9.320   2.011 -0.1184  0.0033 -0.3277
  886MOL0     C16856   1.546   9.330   2.127 -0.4429 -0.0949 -0.2162
  886MOL0     C16857   1.688   9.349   2.075  0.4508  0.0654  0.0348
  886MOL0     C16858   1.709   9.479   2.009  0.0238 -0.5754  0.1837
  886MOL0     C16859   1.856   9.508   1.982 -0.3818 -0.2161  0.2911
  886MOL0     C16860   1.878   9.622   1.884  1.0213  0.3705 -1.1494
  886MOL0     C16861   1.960   9.575   1.770 -0.8765 -0.0487  0.5433
  886MOL0     C16862   1.998   9.696   1.683  0.1862  0.5115  0.2338
  886MOL0     C16863   1.885   9.770   1.619  1.1007 -0.1752  0.6774
  886MOL0    Cl16864   1.774   9.672   1.512  0.0464 -0.0138 -0.1001
  886MOL0     C16865   1.263   9.339   1.910 -0.7009 -0.6859  0.3948
  886MOL0     C16866   1.123   9.342   1.893  0.5223 -0.2374  0.8689
  886MOL0     O16867   0.837   9.396   1.831 -1.3153 -0.4881  0.0690
  886MOL0     C16868   0.644   9.298   2.117  0.7007 -0.1362 -0.1205
  886MOL0     C16869   0.509   9.295   2.166 -0.1413  0.4376  0.3915
  886MOL0     N16870  -0.169   9.031   2.389 -0.0935 -0.7408  1.1344
  886MOL0     N16871  -0.269   8.959   2.418  0.8379  0.1086  0.2792
  886MOL0     C16872   0.303   9.046   2.957  0.4767  0.5657 -0.4828
  886MOL0     C16873   0.445   9.051   2.952  0.6417 -0.1959 -0.1022
  886MOL0     C16874   0.879   9.072   2.891 -0.3630 -0.7594 -0.3169
  886MOL0     C16875   0.978   8.967   2.912  0.0223 -0.1483  0.0597
  886MOL0     C16876   1.115   8.996   2.929  0.7633 -0.8795  0.0743
  886MOL0     C16877   1.159   9.130   2.931  0.6063  0.2651  0.2645
  886MOL0     O16878   1.288   9.151   2.945 -0.6236  0.5552 -0.0000
  886MOL0     C16879   1.343   9.277   2.995 -0.2989  0.5310  0.3108
  886MOL0     C16880   1.465   9.246   3.094  0.3481  0.6308 -0.0655
  886MOL0     C16881   1.609   9.278   3.031  1.0085 -0.8128  0.6979
  886MOL0     C16882   1.732   9.211   3.091 -0.6415 -0.6233  0.0504
  886MOL0     C16883   1.777   9.096   3.020 -0.0782 -0.6175  0.7824
  886MOL0     C16884   1.831   9.010   2.956 -0.2176  0.0249  0.1776
  886MOL0     C16885   1.059   9.227   2.906 -0.1090  0.1554 -0.3023
  886MOL0     C16886   0.922   9.204   2.893  0.9574  0.2670 -0.3851
  886MOL0     H16887   0.496   9.210   2.666  3.2782 -1.3808  1.0082
  886MOL0     H16888   0.237   9.220   2.665 -1.0158  0.5096  0.9516
  886MOL0     H16889  -0.005   9.148   2.679 -0.2789  0.6367 -0.0961
  886MOL0     H16890   0.033   9.280   2.782 -0.2108 -0.4283  2.0035
  886MOL0     H16891  -0.129   9.133   2.947  1.4679 -2.1223 -0.8639
  886MOL0     H16892  -0.181   9.073   2.790  1.9744 -2.7673  2.9471
  886MOL0     H16893  -0.207   9.327   2.715 -1.1671 -0.5487 -0.3842
  886MOL0     H16894  -0.183   9.378   2.876  1.4885 -2.9186  3.5150
  886MOL0     H16895  -0.356   9.253   2.966  4.7271  2.4208 -0.6577
  886MOL0     H16896  -0.422   9.363   2.845  3.6624  2.5227 -2.2749
  886MOL0     H16897  -0.554   9.136   2.843  0.9158 -3.9573  0.3572
  886MOL0     H16898  -0.395   9.066   2.841  2.0988 -0.2383 -2.5304
  886MOL0     H16899  -0.354   9.151   2.617  0.5531  0.3492  2.1695
  886MOL0     H16900  -0.526   9.215   2.608 -1.7661 -1.4059  0.1111
  886MOL0     H16901  -0.420   8.924   2.626 -0.6161 -1.3128 -1.6850
  886MOL0     H16902  -0.581   8.969   2.650  2.2189 -1.5836  2.5872
  886MOL0     H16903  -0.575   9.093   2.427  0.3306 -0.5388 -2.4065
  886MOL0     H16904  -0.565   8.911   2.407  1.9599 -3.0603  1.1558
  886MOL0     H16905  -0.422   9.204   2.273 -0.1839 -0.2080  0.6943
  886MOL0     H16906  -0.144   9.337   2.372  0.1789  4.0109 -1.9297
  886MOL0     H16907  -0.169   9.306   2.198  0.0174  2.2396  1.6985
  886MOL0     H16908   0.038   9.184   2.166  1.0282  1.0416 -0.3125
  886MOL0     H16909   0.052   9.171   2.339 -0.9454  0.3343 -0.1157
  886MOL0     H16910   0.062   9.426   2.173  0.4070 -0.1434 -0.5270
  886MOL0     H16911   0.066   9.443   2.349 -1.3785 -0.3744 -0.1105
  886MOL0     H16912   0.263   9.235   2.286  0.4701  0.2865 -0.6223
  886MOL0     H16913   0.314   9.404   2.297 -0.4837  1.6017 -1.6870
  886MOL0     H16914   0.342   9.359   1.885 -0.4911  1.0131  0.9991
  886MOL0     H16915   0.581   9.387   1.800 -2.0295 -0.3938 -0.8251
  886MOL0     H16916   1.058   9.198   2.201 -2.8237  1.2506 -1.7881
  886MOL0     H16917   1.304   9.207   2.217 -0.2490  0.9138  0.4147
  886MOL0     H16918   1.525   9.243   2.190 -1.7207  0.2382 -0.1686
  886MOL0     H16919   1.509   9.412   2.189  0.2985 -2.1515  3.2391
  886MOL0     H16920   1.718   9.276   2.000 -4.2664 -2.7006  0.4331
  886MOL0     H16921   1.761   9.349   2.157  3.1043 -0.8879 -2.1600
  886MOL0     H16922   1.667   9.567   2.058 -0.1160 -0.7933  0.4636
  886MOL0     H16923   1.660   9.458   1.914 -0.0682 -2.5848  0.6139
  886MOL0     H16924   1.902   9.537   2.077  0.5204  0.4062 -0.3220
  886MOL0     H16925   1.909   9.425   1.934 -0.8406 -2.0867  2.8451
  886MOL0     H16926   1.922   9.696   1.951  0.0999 -1.6353  1.8700
  886MOL0     H16927   1.785   9.663   1.845  0.3436 -0.2676 -0.2458
  886MOL0     H16928   1.919   9.496   1.708  1.5218  0.0049 -1.2581
  886MOL0     H16929   2.055   9.531   1.802  0.6838  3.6255  1.5766
  886MOL0     H16930   2.065   9.762   1.739  1.9084 -0.9690  0.0291
  886MOL0     H16931   2.075   9.672   1.609  1.0372 -0.1914  1.3206
  886MOL0     H16932   1.927   9.855   1.564  1.0024  0.6211  1.7931
  886MOL0     H16933   1.815   9.820   1.688  1.4791  0.6455  0.4864
  886MOL0     H16934   1.322   9.378   1.827  0.7867  0.5541  1.9600
  886MOL0     H16935   1.077   9.377   1.801  0.4079  2.4327  1.8504
  886MOL0     H16936   0.718   9.276   2.193 -2.5910  1.2403  3.8931
  886MOL0     H16937   0.494   9.277   2.272 -1.9594  2.0422  0.4635
  886MOL0     H16938   0.234   8.998   3.026  2.1443  0.8658  1.4834
  886MOL0     H16939   0.500   9.016   3.039 -1.8120 -3.1819  0.4213
  886MOL0     H16940   0.943   8.866   2.900  0.3275 -0.0119 -2.6336
  886MOL0     H16941   1.185   8.913   2.931 -0.0210 -1.5560  2.5923
  886MOL0     H16942   1.270   9.335   3.052  1.0001  2.2416  0.3080
  886MOL0     H16943   1.383   9.335   2.911  1.4337 -0.3340  0.5020
  886MOL0     H16944   1.459   9.287   3.195  1.4757  0.3530  0.1327
  886MOL0     H16945   1.460   9.137   3.101 -3.6715  0.5585 -1.3445
  886MOL0     H16946   1.623   9.387   3.039  4.0494 -1.0953  0.3144
  886MOL0     H16947   1.602   9.242   2.928 -2.5446 -2.4237  1.3668
  886MOL0     H16948   1.817   9.280   3.100  0.1006 -1.4710 -0.2749
  886MOL0     H16949   1.709   9.190   3.196 -1.1431 -0.4019 -0.0168
  886MOL0     H16950   1.873   8.941   2.885 -0.3241  1.0792 -0.9441
  886MOL0     H16951   1.104   9.325   2.893  2.3978 -0.8779 -0.0881
  886MOL0     H16952   0.846   9.278   2.869  1.9621  0.4847 -3.1706
  887MOL0     O16953  10.451   1.851   3.032  0.3266  0.1667 -0.3649
  887MOL0     C16954  10.484   1.729   3.042 -0.9398 -0.2189 -1.0110
  887MOL0     O16955  10.415   1.632   3.106  0.4035 -0.4584  0.4274
  887MOL0     C16956  10.290   1.677   3.146  0.1020  0.2772 -1.3761
  887MOL0     C16957  10.187   1.667   3.055  0.9503 -0.3554 -0.1463
  887MOL0     C16958  10.060   1.729   3.068  0.9106  0.5433 -0.4166
  887MOL0     C16959  10.039   1.785   3.197 -0.0968 -0.3716 -0.3708
  887MOL0     O16960   9.921   1.846   3.218 -0.2581  0.0409  0.2283
  887MOL0     C16961   9.932   1.981   3.242  0.4258 -0.5228 -0.4757
  887MOL0     C16962   9.973   2.070   3.123  0.2086 -0.1077 -0.3813
  887MOL0     C16963   9.876   2.082   3.008  0.9691  0.9574 -0.8517
  887MOL0     C16964   9.730   2.067   3.051 -0.4782 -0.9759 -0.2258
  887MOL0     C16965   9.622   2.079   2.940 -0.2969  0.5829 -0.0883
  887MOL0     C16966   9.490   2.141   3.002 -1.1271 -0.3298  0.9636
  887MOL0     C16967   9.377   2.138   2.889  0.5232 -0.4759  0.6812
  887MOL0     C16968   9.338   1.993   2.845  0.2682  0.1274  0.7719
  887MOL0     N16969   9.221   2.011   2.758  0.6897 -0.1212 -0.0910
  887MOL0     C16970   9.225   2.027   2.622  0.9379 -0.8413 -0.2885
  887MOL0     C16971   9.094   2.029   2.583 -0.2673 -0.4782  0.9030
  887MOL0     C16972   9.053   2.044   2.440  0.2143  0.3404  0.2316
  887MOL0     C16973   8.978   1.921   2.395  0.1018  1.1675  0.9587
  887MOL0     C16974   8.821   1.933   2.371 -0.0977 -0.9107 -0.1691
  887MOL0     C16975   8.786   1.985   2.237 -0.0804  0.4305 -0.6417
  887MOL0     O16976   8.645   2.011   2.238 -0.0199  0.8472  0.0525
  887MOL0     C16977   8.587   2.065   2.124 -1.5186  0.4012 -0.2414
  887MOL0     C16978   8.511   2.178   2.135  0.2616  0.2214 -0.2010
  887MOL0     C16979   8.446   2.229   2.024  0.5967 -0.0768 -0.7705
  887MOL0     C16980   8.456   2.172   1.895  0.1964 -0.3636  0.7410
  887MOL0     C16981   8.367   2.213   1.788  0.4374 -1.1036 -0.8417
  887MOL0     O16982   8.257   2.303   1.827 -0.2970  0.4073 -0.3758
  887MOL0     C16983   8.160   2.319   1.740  0.2901 -0.7660 -1.3314
  887MOL0     C16984   8.069   2.213   1.716  0.3414  0.3606  0.4890
  887MOL0     C16985   7.945   2.235   1.646  1.0613  0.7073  0.3270
  887MOL0     C16986   7.927   2.363   1.579 -0.2033 -0.2140 -0.1150
  887MOL0     O16987   7.827   2.390   1.489  0.4502 -0.4445  0.8524
  887MOL0     C16988   7.700   2.338   1.513  0.7747 -0.1984 -0.4866
  887MOL0     C16989   7.658   2.250   1.399 -0.2221  0.1821 -0.2338
  887MOL0     C16990   7.506   2.219   1.408  0.0452 -0.7336 -0.1747
  887MOL0     C16991   7.475   2.109   1.298  0.2511  0.1131 -0.2365
  887MOL0     C16992   7.347   2.032   1.332 -0.0068  0.1291 -0.2773
  887MOL0     C16993   7.331   1.909   1.233 -0.0321 -1.5143  0.7253
  887MOL0     C16994   7.198   1.837   1.248 -0.0129  0.1449  0.2462
  887MOL0     C16995   7.202   1.716   1.151  0.4957 -0.5250  0.7332
  887MOL0    Cl16996   7.308   1.570   1.205  0.2081 -0.1526  0.1050
  887MOL0     C16997   8.015   2.467   1.616 -0.1677 -0.3070  0.4665
  887MOL0     C16998   8.138   2.446   1.685  0.6185  0.3514 -0.4658
  887MOL0     O16999   8.380   2.160   1.681  0.5386 -0.1264  0.7727
  887MOL0     C17000   8.532   2.056   1.887  0.6596  0.1403 -0.2763
  887MOL0     C17001   8.596   2.000   2.002  0.3489  0.0905 -0.2663
  887MOL0     N17002   9.022   2.025   2.702 -0.3822  0.0200  0.2170
  887MOL0     N17003   9.098   2.019   2.802  0.2450 -0.3734  0.2997
  887MOL0     C17004  10.132   1.764   3.297  0.7737  0.0675 -0.3571
  887MOL0     C17005  10.263   1.718   3.275 -0.1412 -0.2366 -0.3202
  887MOL0     C17006  10.620   1.697   2.990 -0.6095  0.1744 -0.2013
  887MOL0     C17007  10.701   1.802   2.943 -0.5813 -0.8573 -0.0553
  887MOL0     C17008  10.826   1.784   2.890  0.1878 -0.0652  0.1654
  887MOL0     C17009  10.884   1.656   2.901 -0.3858  0.4488  0.2814
  887MOL0     O17010  11.012   1.650   2.863 -0.0796  0.6573 -0.0527
  887MOL0     C17011  11.098   1.534   2.887 -0.1049  0.5002  0.0222
  887MOL0     C17012  11.234   1.576   2.808  0.1488 -0.0001 -0.1850
  887MOL0     C17013  11.354   1.496   2.846  0.0793  0.0773 -0.0946
  887MOL0     C17014  11.351   1.345   2.808  0.1445  0.0046  0.2033
  887MOL0     C17015  11.371   1.259   2.919  0.1711 -0.5206  0.2447
  887MOL0     C17016  11.398   1.161   2.985  1.0575 -0.0876  0.1606
  887MOL0     C17017  10.810   1.549   2.947  0.2443 -0.6058 -0.0495
  887MOL0     C17018  10.680   1.567   2.994 -0.0958  0.7253  0.1245
  887MOL0     H17019  10.199   1.617   2.959 -2.8223  1.2648 -1.6576
  887MOL0     H17020   9.977   1.728   2.998  0.9986  2.0778 -0.5702
  887MOL0     H17021  10.005   2.002   3.321  1.4319  0.6466 -1.6792
  887MOL0     H17022   9.843   2.026   3.287  1.1676  1.3834 -0.8140
  887MOL0     H17023  10.060   2.025   3.075  1.8008  2.4863 -0.1214
  887MOL0     H17024   9.998   2.170   3.159  0.6202 -0.0036 -0.9362
  887MOL0     H17025   9.900   2.009   2.931 -0.2753 -0.0138 -0.3491
  887MOL0     H17026   9.881   2.188   2.979 -0.3326  1.6796  1.3099
  887MOL0     H17027   9.709   1.971   3.099 -1.0491  0.0865  1.7937
  887MOL0     H17028   9.713   2.144   3.127  0.4776  1.4732 -2.3242
  887MOL0     H17029   9.609   1.982   2.892  0.0109 -0.7165  2.3393
  887MOL0     H17030   9.646   2.141   2.852 -1.2105 -0.2084 -0.9249
  887MOL0     H17031   9.500   2.244   3.038 -3.9418  0.3167  0.1871
  887MOL0     H17032   9.463   2.079   3.088 -2.4530 -2.3062 -0.7802
  887MOL0     H17033   9.287   2.191   2.921 -1.0756 -2.2211 -0.7153
  887MOL0     H17034   9.412   2.186   2.797 -3.4561 -0.6100 -1.1342
  887MOL0     H17035   9.319   1.938   2.938  0.1019 -0.6134  0.2989
  887MOL0     H17036   9.413   1.956   2.775 -1.4941  0.5827 -1.4776
  887MOL0     H17037   9.310   2.052   2.558  0.3437 -0.8119 -1.0728
  887MOL0     H17038   9.135   2.078   2.376  0.3913  3.5833  1.9627
  887MOL0     H17039   8.975   2.120   2.440  1.8281  2.0672  1.1666
  887MOL0     H17040   8.992   1.831   2.456  1.0732 -2.0400 -3.4684
  887MOL0     H17041   9.016   1.891   2.297  1.5406 -0.0498  1.8206
  887MOL0     H17042   8.782   1.831   2.381 -1.9177 -0.5347 -2.5437
  887MOL0     H17043   8.777   2.000   2.445  2.9145  0.3415  0.6480
  887MOL0     H17044   8.810   1.897   2.177  0.3370  0.4389 -0.4926
  887MOL0     H17045   8.851   2.070   2.210  1.2961 -0.1037  0.8421
  887MOL0     H17046   8.482   2.211   2.235  0.3128 -1.5346  0.4247
  887MOL0     H17047   8.377   2.311   2.036  2.2688  2.2905 -5.0708
  887MOL0     H17048   8.094   2.112   1.747 -0.1822 -0.3304 -1.1815
  887MOL0     H17049   7.867   2.159   1.642  0.1218  1.3822  3.2108
  887MOL0     H17050   7.633   2.424   1.526 -1.1624 -1.4418 -1.6785
  887MOL0     H17051   7.696   2.285   1.608 -2.9206  2.9255  1.3734
  887MOL0     H17052   7.704   2.152   1.411 -0.0407  0.6056  5.4797
  887MOL0     H17053   7.679   2.292   1.300  1.4179  1.4205  0.5843
  887MOL0     H17054   7.433   2.300   1.401 -4.4464 -4.1820  1.5551
  887MOL0     H17055   7.471   2.176   1.503  1.0152 -2.6610 -0.6364
  887MOL0     H17056   7.481   2.151   1.198  3.3620 -1.6989 -0.9385
  887MOL0     H17057   7.557   2.036   1.304 -1.0677 -1.4665 -0.8156
  887MOL0     H17058   7.260   2.098   1.341  2.3188  3.4606 -0.2517
  887MOL0     H17059   7.357   1.999   1.435 -2.2947  0.5122  0.1077
  887MOL0     H17060   7.414   1.837   1.230 -0.7394 -2.5429  3.2895
  887MOL0     H17061   7.327   1.960   1.136 -3.0621 -5.0502 -1.2599
  887MOL0     H17062   7.192   1.790   1.346 -0.7884 -2.6789 -1.0540
  887MOL0     H17063   7.115   1.909   1.247  1.1341  1.5380  1.3443
  887MOL0     H17064   7.227   1.758   1.053  0.3709  2.6176  1.9214
  887MOL0     H17065   7.096   1.692   1.159 -0.1044  2.2071  2.3545
  887MOL0     H17066   8.009   2.563   1.565 -1.5414 -0.4398  0.3549
  887MOL0     H17067   8.201   2.530   1.712  0.1289  0.0179  1.9637
  887MOL0     H17068   8.528   2.003   1.792  0.2472  2.1744 -1.4571
  887MOL0     H17069   8.642   1.903   1.985 -0.7848 -1.3432  3.8096
  887MOL0     H17070  10.107   1.793   3.399  0.6474  2.8760 -1.0899
  887MOL0     H17071  10.340   1.715   3.352 -2.2245 -1.0589  1.8710
  887MOL0     H17072  10.656   1.898   2.921 -1.1481 -1.6159 -2.4860
  887MOL0     H17073  10.884   1.869   2.856 -1.9177  0.8494 -1.3619
  887MOL0     H17074  11.043   1.450   2.844 -0.2893  0.7717 -0.2805
  887MOL0     H17075  11.112   1.529   2.995 -0.7158  1.5330  0.1619
  887MOL0     H17076  11.217   1.574   2.700 -1.9382 -0.0899  0.0990
  887MOL0     H17077  11.261   1.678   2.837  3.0369 -0.7609  0.1272
  887MOL0     H17078  11.359   1.505   2.955 -1.4901  2.0550 -0.1305
  887MOL0     H17079  11.443   1.543   2.803  3.0407  0.3178  5.3774
  887MOL0     H17080  11.254   1.323   2.762  0.7598 -1.3281 -0.5218
  887MOL0     H17081  11.422   1.324   2.726 -1.0837  0.0177 -0.9023
  887MOL0     H17082  11.404   1.080   3.056 -2.9777 -0.0732  0.7721
  887MOL0     H17083  10.830   1.443   2.934 -1.6056 -0.9387 -0.4995
  887MOL0     H17084  10.624   1.481   3.030 -0.3701  1.2789  1.0550
  888MOL0     O17085  10.271   7.459   3.806 -0.1538  0.2942 -1.3277
  888MOL0     C17086  10.365   7.482   3.728  0.3147 -0.2038  0.1847
  888MOL0     O17087  10.493   7.469   3.760 -0.3582  0.5022  0.2210
  888MOL0     C17088  10.521   7.425   3.894 -0.5733  0.5503 -0.1885
  888MOL0     C17089  10.523   7.294   3.925  0.4529  0.6103  0.1850
  888MOL0     C17090  10.553   7.245   4.053  0.2332  0.7931 -0.8294
  888MOL0     C17091  10.604   7.329   4.148  0.5159  0.7778  0.3228
  888MOL0     O17092  10.641   7.288   4.267 -0.4101  1.2180 -0.1635
  888MOL0     C17093  10.780   7.257   4.283 -0.4039  0.6584 -0.2991
  888MOL0     C17094  10.834   7.285   4.419  0.4137  0.4056 -0.3792
  888MOL0     C17095  10.783   7.201   4.528  1.0305 -0.2673  0.0022
  888MOL0     C17096  10.834   7.247   4.666  0.4115 -0.6148  1.0123
  888MOL0     C17097  10.972   7.185   4.706 -0.1056 -0.5465 -0.0218
  888MOL0     C17098  11.044   7.258   4.820 -0.3767 -0.2419  0.7054
  888MOL0     C17099  11.181   7.192   4.843  0.0038 -0.2518  0.4256
  888MOL0     C17100  11.291   7.296   4.879  0.4884  0.1303 -0.7260
  888MOL0     N17101  11.343   7.365   4.756  1.0349 -0.0972  0.0170
  888MOL0     C17102  11.354   7.310   4.634  0.1731  0.4073  0.8310
  888MOL0     C17103  11.419   7.402   4.565 -0.8074 -0.7686 -0.0832
  888MOL0     C17104  11.436   7.397   4.417 -0.6446  0.2923  0.7505
  888MOL0     C17105  11.300   7.389   4.345  0.4174 -0.3138 -0.7785
  888MOL0     C17106  11.239   7.534   4.337 -0.2803  0.5477  0.0315
  888MOL0     C17107  11.240   7.591   4.187 -0.1024  0.0533  0.2734
  888MOL0     O17108  11.176   7.506   4.090 -0.7598 -0.5757  0.4443
  888MOL0     C17109  11.087   7.559   3.998 -0.3171 -0.5715  0.3243
  888MOL0     C17110  10.984   7.480   3.954  1.4242 -0.5888 -0.3823
  888MOL0     C17111  10.893   7.524   3.854 -0.1865  0.4484  0.1070
  888MOL0     C17112  10.912   7.645   3.792  0.6936  0.8707  0.9228
  888MOL0     C17113  10.818   7.692   3.683 -0.8391 -0.5549  0.0907
  888MOL0     O17114  10.820   7.821   3.654 -0.0896 -0.4877  0.0383
  888MOL0     C17115  10.737   7.852   3.546  0.7132  0.2585 -0.0760
  888MOL0     C17116  10.781   7.830   3.412 -0.5381  0.0358  0.3043
  888MOL0     C17117  10.695   7.864   3.312 -0.8108 -0.5636 -0.2039
  888MOL0     C17118  10.567   7.908   3.345  0.6632 -0.2056 -0.3580
  888MOL0     O17119  10.474   7.937   3.255 -0.0279  0.2525  0.3227
  888MOL0     C17120  10.501   8.045   3.162 -0.1194  0.4489  0.9112
  888MOL0     C17121  10.504   8.188   3.229 -0.6883  0.7261  0.4142
  888MOL0     C17122  10.462   8.293   3.126 -0.2290 -1.0795 -0.3205
  888MOL0     C17123  10.449   8.429   3.207 -0.2266 -0.1925  0.3264
  888MOL0     C17124  10.441   8.547   3.113  0.6496 -0.2312 -0.0220
  888MOL0     C17125  10.568   8.577   3.025  0.1796  0.7306 -0.2878
  888MOL0     C17126  10.528   8.669   2.913 -0.7061  0.0284  0.5083
  888MOL0     C17127  10.640   8.691   2.811 -0.3235 -0.3910  0.6785
  888MOL0    Cl17128  10.765   8.812   2.863  0.0121 -0.1582  0.2827
  888MOL0     C17129  10.518   7.934   3.475  0.1380  0.4566 -0.3286
  888MOL0     C17130  10.608   7.901   3.580 -0.0765  0.0934  0.4904
  888MOL0     O17131  10.748   7.610   3.628  0.1753  0.3075 -0.6836
  888MOL0     C17132  11.010   7.725   3.838 -0.3618 -1.0211  0.5660
  888MOL0     C17133  11.104   7.684   3.936  0.5880 -0.3240 -0.1511
  888MOL0     N17134  11.440   7.515   4.652 -0.6091  0.3172 -0.0505
  888MOL0     N17135  11.402   7.483   4.763  0.2089 -0.1334 -1.2151
  888MOL0     C17136  10.612   7.460   4.116 -1.3182  0.5919  0.1377
  888MOL0     C17137  10.580   7.514   3.992  0.0010  0.1563 -0.2320
  888MOL0     C17138  10.336   7.510   3.587  0.4604  0.6536  0.1518
  888MOL0     C17139  10.217   7.464   3.528 -0.1166 -0.1778 -0.9171
  888MOL0     C17140  10.201   7.481   3.397 -0.1217  0.8834  0.4093
  888MOL0     C17141  10.287   7.556   3.315 -0.0053 -0.7291 -0.4831
  888MOL0     O17142  10.267   7.573   3.175 -0.4278 -0.4306 -0.1147
  888MOL0     C17143  10.131   7.601   3.134 -1.4105  0.5297  0.4214
  888MOL0     C17144  10.151   7.714   3.038 -0.4771 -0.4396 -0.2322
  888MOL0     C17145  10.044   7.729   2.925 -0.5943  0.4341 -0.2262
  888MOL0     C17146   9.911   7.786   2.979 -0.3781  0.3190 -0.3334
  888MOL0     C17147   9.815   7.790   2.870 -0.2011  0.0905  0.5481
  888MOL0     C17148   9.739   7.795   2.774  0.1126  0.1139 -0.4038
  888MOL0     C17149  10.396   7.606   3.379 -0.0640  0.4698 -0.5410
  888MOL0     C17150  10.421   7.593   3.515  0.4680  0.6702  0.8299
  888MOL0     H17151  10.509   7.215   3.852  1.3712 -1.2756  1.9243
  888MOL0     H17152  10.558   7.139   4.076  2.8428  1.2762  1.3162
  888MOL0     H17153  10.840   7.321   4.217 -0.0581 -0.1366 -0.7670
  888MOL0     H17154  10.797   7.158   4.240  2.6146  0.9887 -0.1075
  888MOL0     H17155  10.825   7.394   4.431 -0.3010  0.4155 -0.9254
  888MOL0     H17156  10.939   7.256   4.411  0.1502 -0.4541 -0.8634
  888MOL0     H17157  10.806   7.095   4.512  0.7918 -0.6717  2.0709
  888MOL0     H17158  10.675   7.203   4.546  1.5497  0.4906  3.9210
  888MOL0     H17159  10.847   7.355   4.653  1.0565 -0.8165 -0.2179
  888MOL0     H17160  10.754   7.223   4.736  1.0329 -2.4799  1.1500
  888MOL0     H17161  11.038   7.187   4.618 -3.0211  1.0698 -2.3608
  888MOL0     H17162  10.964   7.079   4.731 -0.3876 -0.4058  0.5031
  888MOL0     H17163  10.977   7.252   4.906 -0.1681  2.0071  1.0886
  888MOL0     H17164  11.053   7.364   4.795 -2.3711  0.3475  2.2800
  888MOL0     H17165  11.187   7.136   4.937  4.8445  3.5354  2.8155
  888MOL0     H17166  11.214   7.131   4.758 -0.2412  2.6035 -1.8805
  888MOL0     H17167  11.376   7.251   4.931 -0.4456 -4.1706 -2.5198
  888MOL0     H17168  11.239   7.374   4.936  1.2496  2.8739 -3.5071
  888MOL0     H17169  11.314   7.217   4.595 -1.5245  1.1749  0.6533
  888MOL0     H17170  11.492   7.310   4.384  2.8010  3.2052 -1.9766
  888MOL0     H17171  11.498   7.481   4.384 -0.6993  0.3183  0.7152
  888MOL0     H17172  11.229   7.328   4.401  1.3034 -1.8862 -1.3299
  888MOL0     H17173  11.317   7.345   4.246  0.9930 -2.1677  0.1063
  888MOL0     H17174  11.138   7.520   4.377  0.3607 -0.2885  1.4016
  888MOL0     H17175  11.294   7.597   4.406  2.6512 -0.9045 -0.8289
  888MOL0     H17176  11.345   7.612   4.163  0.2091 -0.7008  0.9197
  888MOL0     H17177  11.175   7.677   4.203 -0.5555 -0.6924  3.1074
  888MOL0     H17178  10.973   7.385   4.006  0.0344 -0.1975  0.0740
  888MOL0     H17179  10.807   7.467   3.819  0.9832 -1.3812  0.0734
  888MOL0     H17180  10.877   7.784   3.394 -0.4022  0.6284 -0.5747
  888MOL0     H17181  10.741   7.847   3.215  0.8385  0.3008  0.3841
  888MOL0     H17182  10.435   8.044   3.075  0.4467 -2.8723  0.3526
  888MOL0     H17183  10.603   8.032   3.122  0.1628  0.0731  1.7276
  888MOL0     H17184  10.607   8.200   3.264 -0.2943 -1.6701  0.2348
  888MOL0     H17185  10.446   8.189   3.322  1.2049  3.1704  1.7137
  888MOL0     H17186  10.358   8.276   3.096 -1.2118  3.6079 -0.3460
  888MOL0     H17187  10.516   8.295   3.031  1.0520 -0.2513  0.3947
  888MOL0     H17188  10.376   8.422   3.288  0.5336  0.8332  1.1345
  888MOL0     H17189  10.549   8.440   3.251  0.3651  0.2013 -1.0539
  888MOL0     H17190  10.421   8.635   3.176 -0.0692 -0.6952  0.4192
  888MOL0     H17191  10.354   8.536   3.049  0.4008  0.5311  0.1676
  888MOL0     H17192  10.620   8.484   3.001  0.0864 -0.5769  3.7814
  888MOL0     H17193  10.635   8.628   3.094 -1.7237  0.2508  2.0705
  888MOL0     H17194  10.452   8.620   2.851  0.2087 -1.6332  0.6241
  888MOL0     H17195  10.493   8.768   2.943 -2.6840  0.5979 -3.1030
  888MOL0     H17196  10.601   8.716   2.712  1.6736 -1.8825 -0.5534
  888MOL0     H17197  10.694   8.597   2.794 -1.6594 -1.0333 -0.2535
  888MOL0     H17198  10.430   7.990   3.503  0.6415  0.5887  1.0835
  888MOL0     H17199  10.582   7.914   3.685  0.7417 -0.7280  0.8042
  888MOL0     H17200  11.010   7.831   3.815  0.2002 -1.0111  0.6111
  888MOL0     H17201  11.180   7.757   3.964  1.9794 -0.2744 -3.4834
  888MOL0     H17202  10.660   7.527   4.187 -1.7847  2.1229 -0.9282
  888MOL0     H17203  10.597   7.615   3.957 -2.0822 -0.1273 -2.3186
  888MOL0     H17204  10.139   7.405   3.576 -0.4301  1.0630  0.1545
  888MOL0     H17205  10.112   7.435   3.354  1.5193 -0.8591 -1.3434
  888MOL0     H17206  10.068   7.638   3.216 -1.1219  0.8838  0.4829
  888MOL0     H17207  10.096   7.511   3.081  3.6920 -2.2720  1.1710
  888MOL0     H17208  10.158   7.806   3.097 -1.4107 -2.2987  3.0149
  888MOL0     H17209  10.243   7.693   2.982 -0.4895  0.8823 -0.7948
  888MOL0     H17210  10.032   7.626   2.890  2.5059 -0.3323  0.6064
  888MOL0     H17211  10.082   7.797   2.848  0.6019 -0.8431 -0.8042
  888MOL0     H17212   9.886   7.724   3.065  1.5428 -1.0984 -0.7423
  888MOL0     H17213   9.934   7.881   3.028  2.1568 -0.3359 -0.1117
  888MOL0     H17214   9.685   7.816   2.684  3.4420  2.5208 -2.0287
  888MOL0     H17215  10.467   7.651   3.310 -0.9204  0.6532 -1.3075
  888MOL0     H17216  10.507   7.629   3.570  1.1899  0.7286 -0.3089
  889MOL0     O17217   0.686   9.198   2.480 -0.5394  0.0670  0.0412
  889MOL0     C17218   0.772   9.107   2.493  0.7064 -0.2423 -0.1117
  889MOL0     O17219   0.744   8.972   2.504 -0.2172  0.5367  0.0023
  889MOL0     C17220   0.611   8.930   2.513 -0.2970 -0.1441 -0.4426
  889MOL0     C17221   0.574   8.851   2.621  0.0730 -0.2840  0.2396
  889MOL0     C17222   0.443   8.809   2.638 -0.1354 -0.5609  0.0932
  889MOL0     C17223   0.350   8.830   2.540 -0.4304  0.4463 -0.0658
  889MOL0     O17224   0.224   8.769   2.541  0.2194 -0.2441 -0.4425
  889MOL0     C17225   0.137   8.814   2.646  0.1071 -0.5704  0.2557
  889MOL0     C17226   0.011   8.737   2.636 -0.0820 -0.3022  0.2458
  889MOL0     C17227  -0.062   8.725   2.774  0.5465 -0.1874  0.5298
  889MOL0     C17228  -0.199   8.661   2.758  0.0928 -0.0037  0.3394
  889MOL0     C17229  -0.182   8.515   2.706 -0.5778  0.5183  0.1427
  889MOL0     C17230  -0.134   8.430   2.821  0.6805  0.0265 -0.2770
  889MOL0     C17231  -0.127   8.283   2.788 -0.2099 -0.3080  0.7473
  889MOL0     C17232  -0.035   8.223   2.900 -0.5417 -0.0944  0.7089
  889MOL0     N17233  -0.026   8.077   2.885 -1.0433 -0.5269 -0.5976
  889MOL0     C17234   0.060   8.010   2.813 -0.4215 -0.7720 -0.3704
  889MOL0     C17235   0.010   7.888   2.790  0.4662  0.4781 -0.4400
  889MOL0     C17236   0.057   7.774   2.699  0.6356 -0.1451 -0.1440
  889MOL0     C17237  -0.056   7.721   2.603  0.1534 -0.1528 -0.4536
  889MOL0     C17238  -0.038   7.590   2.527  0.5430  0.3742  0.6799
  889MOL0     C17239   0.060   7.618   2.403 -0.0081  0.5991 -0.3932
  889MOL0     O17240   0.104   7.492   2.345  0.4396  0.0865 -0.5584
  889MOL0     C17241   0.187   7.512   2.234 -0.8751 -0.9280 -0.6459
  889MOL0     C17242   0.233   7.398   2.169 -0.8004 -0.8740  0.1673
  889MOL0     C17243   0.309   7.409   2.053 -0.4874 -0.4787  0.1516
  889MOL0     C17244   0.371   7.531   2.006 -0.4800 -0.2335  0.9539
  889MOL0     C17245   0.468   7.523   1.890 -0.0239 -0.8597  0.3633
  889MOL0     O17246   0.574   7.601   1.892  0.0858  0.1937 -0.6051
  889MOL0     C17247   0.669   7.593   1.789  0.8112  0.0359  0.1670
  889MOL0     C17248   0.797   7.541   1.819  0.7173  0.3678  0.3030
  889MOL0     C17249   0.892   7.540   1.718 -0.4426  0.4087 -0.0001
  889MOL0     C17250   0.865   7.570   1.586  0.4092  0.5008  0.2174
  889MOL0     O17251   0.960   7.553   1.489 -0.2174  0.5489  0.5247
  889MOL0     C17252   0.994   7.680   1.409 -0.1728  1.5337 -0.4677
  889MOL0     C17253   1.146   7.670   1.389  0.0742  0.3811 -0.1529
  889MOL0     C17254   1.187   7.779   1.290 -0.3883 -1.9475  0.3987
  889MOL0     C17255   1.337   7.767   1.277  0.8375  0.2394  0.4296
  889MOL0     C17256   1.364   7.647   1.186  0.1186  0.5486 -0.2505
  889MOL0     C17257   1.350   7.693   1.036 -0.2362 -0.3421  0.6976
  889MOL0     C17258   1.430   7.613   0.928  0.6324  0.2561  1.3504
  889MOL0     C17259   1.590   7.643   0.933  0.1690  0.2306 -0.5909
  889MOL0    Cl17260   1.629   7.774   0.821 -0.2742 -0.0596 -0.3344
  889MOL0     C17261   0.737   7.618   1.565 -0.2249  0.9655  0.1069
  889MOL0     C17262   0.635   7.627   1.658 -1.2859  0.7392 -0.3491
  889MOL0     O17263   0.437   7.430   1.809  0.0117  0.0101  0.3302
  889MOL0     C17264   0.333   7.647   2.078 -0.6782  0.3514  1.0036
  889MOL0     C17265   0.239   7.642   2.185 -0.0991  0.5816 -0.6632
  889MOL0     N17266  -0.112   7.877   2.862 -0.3457 -0.1243 -0.3659
  889MOL0     N17267  -0.139   8.000   2.906  0.2901 -0.3334  0.6507
  889MOL0     C17268   0.383   8.918   2.441 -0.6997  0.8416  0.3243
  889MOL0     C17269   0.514   8.963   2.426 -0.5358  1.1765  1.1056
  889MOL0     C17270   0.915   9.136   2.522  0.4399  0.6828 -0.1052
  889MOL0     C17271   0.970   9.262   2.489 -0.6339 -0.5194 -0.0428
  889MOL0     C17272   1.112   9.288   2.497  0.8095  0.5269 -0.6238
  889MOL0     C17273   1.202   9.182   2.520 -0.8710 -0.8735 -0.3006
  889MOL0     O17274   1.340   9.196   2.500  0.4404  0.8014 -0.1261
  889MOL0     C17275   1.404   9.319   2.473 -1.0036  0.3700 -0.4329
  889MOL0     C17276   1.457   9.377   2.609  0.5126  0.2648 -0.3056
  889MOL0     C17277   1.529   9.503   2.580  0.5359  0.1714 -1.0332
  889MOL0     C17278   1.604   9.577   2.699  0.9350  0.0414  0.9117
  889MOL0     C17279   1.717   9.512   2.746 -0.6541  0.6935 -0.5863
  889MOL0     C17280   1.805   9.440   2.798 -0.0363 -0.4561 -0.2127
  889MOL0     C17281   1.150   9.055   2.542 -0.2721  0.4905 -0.2702
  889MOL0     C17282   1.006   9.035   2.550 -0.0272 -0.8924 -0.2169
  889MOL0     H17283   0.647   8.841   2.701  0.5297  1.9381  0.1768
  889MOL0     H17284   0.429   8.753   2.729  0.5747  1.5236  1.5603
  889MOL0     H17285   0.119   8.921   2.642  1.1545 -0.4097 -2.7642
  889MOL0     H17286   0.188   8.794   2.741  0.8385 -0.2589 -0.0648
  889MOL0     H17287   0.036   8.636   2.602  1.9441  0.2640 -0.0769
  889MOL0     H17288  -0.053   8.792   2.567  1.8872  2.0743  0.1683
  889MOL0     H17289  -0.077   8.824   2.819 -3.5688  0.5259 -1.8834
  889MOL0     H17290  -0.005   8.663   2.844 -0.8223 -0.2297  1.6317
  889MOL0     H17291  -0.249   8.665   2.855 -0.8291 -3.1347  0.1250
  889MOL0     H17292  -0.262   8.719   2.690 -0.1397  0.8342  1.2407
  889MOL0     H17293  -0.120   8.506   2.617  0.3915 -0.3755  0.8806
  889MOL0     H17294  -0.276   8.471   2.672  0.1184 -0.2860 -0.7825
  889MOL0     H17295  -0.204   8.439   2.904  0.1384 -0.8231 -0.6268
  889MOL0     H17296  -0.037   8.453   2.864  0.3139 -1.1619  1.2978
  889MOL0     H17297  -0.228   8.240   2.795 -1.0697  0.2050 -4.2860
  889MOL0     H17298  -0.097   8.255   2.686 -0.6663 -2.1646  1.0947
  889MOL0     H17299  -0.071   8.260   2.996 -0.7471  2.3681 -0.2439
  889MOL0     H17300   0.065   8.264   2.886 -0.4617 -0.3685  0.4787
  889MOL0     H17301   0.153   8.043   2.768 -0.9235  0.2647 -0.6649
  889MOL0     H17302   0.083   7.695   2.770 -1.9887  2.1232  3.7524
  889MOL0     H17303   0.144   7.818   2.648 -1.5168  3.0587 -1.3404
  889MOL0     H17304  -0.070   7.800   2.530  1.9517 -0.4925 -1.2238
  889MOL0     H17305  -0.142   7.711   2.669  1.0055  1.7018  1.0465
  889MOL0     H17306   0.011   7.523   2.598  1.1433 -0.0791 -0.1471
  889MOL0     H17307  -0.125   7.541   2.482  1.8256 -1.8860  0.5314
  889MOL0     H17308   0.144   7.673   2.446 -0.8000  0.1110  1.8740
  889MOL0     H17309   0.007   7.674   2.325  0.5293 -1.4694 -2.3595
  889MOL0     H17310   0.202   7.298   2.196 -0.8692 -1.4478 -1.8759
  889MOL0     H17311   0.325   7.311   2.008  0.3105 -1.6446  2.7479
  889MOL0     H17312   0.812   7.490   1.914 -2.3334 -1.6484 -0.1815
  889MOL0     H17313   0.991   7.513   1.753 -0.3593  0.6200 -0.0668
  889MOL0     H17314   0.965   7.766   1.471  2.1196  0.9874  1.5308
  889MOL0     H17315   0.949   7.697   1.311  3.1353  5.3023 -1.6186
  889MOL0     H17316   1.165   7.575   1.338 -0.6889  0.3619 -0.4268
  889MOL0     H17317   1.190   7.682   1.488 -0.6733  0.4433  0.1830
  889MOL0     H17318   1.153   7.878   1.320  1.2729 -0.6973 -1.5613
  889MOL0     H17319   1.135   7.777   1.193 -0.4417  0.2219  0.3376
  889MOL0     H17320   1.375   7.862   1.238 -0.1992  0.8451  0.8512
  889MOL0     H17321   1.389   7.749   1.372  1.3903 -2.4973 -0.3067
  889MOL0     H17322   1.294   7.564   1.199  1.8642 -0.5921  3.3777
  889MOL0     H17323   1.468   7.619   1.204 -0.1657  0.0083  0.6004
  889MOL0     H17324   1.359   7.802   1.026  0.5912 -0.5506 -1.4114
  889MOL0     H17325   1.244   7.682   1.011 -0.0161 -0.0018 -0.4491
  889MOL0     H17326   1.413   7.506   0.945  1.5902 -0.8724 -3.2038
  889MOL0     H17327   1.383   7.648   0.835 -0.7127 -1.2459  1.4163
  889MOL0     H17328   1.654   7.555   0.917  3.2923  1.3503  3.8924
  889MOL0     H17329   1.610   7.678   1.035  0.5712 -1.5272 -0.0328
  889MOL0     H17330   0.711   7.638   1.461 -0.0350  2.8398  0.3851
  889MOL0     H17331   0.539   7.662   1.622 -1.1223 -0.0456 -1.6174
  889MOL0     H17332   0.369   7.744   2.045  1.3239  0.7302  3.9564
  889MOL0     H17333   0.204   7.734   2.230  0.0554  0.0276  0.6373
  889MOL0     H17334   0.307   8.940   2.366  0.3851 -1.7803 -1.7082
  889MOL0     H17335   0.524   9.012   2.330  2.2597 -0.4536  0.4443
  889MOL0     H17336   0.899   9.334   2.449  0.1831  0.1371 -0.3336
  889MOL0     H17337   1.141   9.390   2.474 -1.6161  1.3927 -0.1210
  889MOL0     H17338   1.336   9.394   2.433  1.0753  2.6800  0.1437
  889MOL0     H17339   1.483   9.304   2.399  1.5371  1.3797  1.8868
  889MOL0     H17340   1.378   9.386   2.684  0.2343 -0.7912 -0.4489
  889MOL0     H17341   1.527   9.305   2.653  1.0786  0.3797 -1.0178
  889MOL0     H17342   1.443   9.569   2.562 -0.7936 -0.4600  2.2675
  889MOL0     H17343   1.593   9.487   2.493  2.1864 -1.2509  0.3650
  889MOL0     H17344   1.631   9.676   2.659  3.3090 -0.2002  1.7716
  889MOL0     H17345   1.531   9.588   2.780  1.4348 -3.1539  1.9039
  889MOL0     H17346   1.867   9.366   2.843  2.1155  0.6986 -1.1333
  889MOL0     H17347   1.221   8.973   2.543  3.4176  3.3837  1.0830
  889MOL0     H17348   0.972   8.938   2.585 -1.4748  0.2040  1.6180
  890MOL0     O17349   1.237   2.537   3.968  1.1182  0.0052  0.1007
  890MOL0     C17350   1.190   2.585   3.865 -0.3511 -0.4797  0.3478
  890MOL0     O17351   1.263   2.641   3.763 -0.3673 -0.2340  0.0585
  890MOL0     C17352   1.399   2.652   3.780  0.6494  0.6179 -0.6006
  890MOL0     C17353   1.445   2.764   3.845  0.3202  0.1768  0.4018
  890MOL0     C17354   1.585   2.783   3.879  0.2752  0.2352  0.2985
  890MOL0     C17355   1.673   2.672   3.853  0.3738 -0.7323 -0.6707
  890MOL0     O17356   1.799   2.702   3.893  0.0076 -0.2343 -0.5637
  890MOL0     C17357   1.909   2.615   3.869 -0.2052  0.3334  0.0534
  890MOL0     C17358   2.028   2.645   3.961 -0.2322 -0.6949 -0.1639
  890MOL0     C17359   2.108   2.518   3.971  0.0925 -0.0196 -0.2637
  890MOL0     C17360   2.222   2.538   4.073 -0.2716 -0.2498  0.7563
  890MOL0     C17361   2.289   2.405   4.126  1.1289 -0.6553  0.0695
  890MOL0     C17362   2.390   2.434   4.235  0.4843  0.3799  0.3778
  890MOL0     C17363   2.528   2.504   4.191 -0.1957 -0.3357 -0.5318
  890MOL0     C17364   2.602   2.534   4.319 -0.7049  0.6868 -0.4869
  890MOL0     N17365   2.590   2.669   4.378  0.7615 -0.3924 -0.4574
  890MOL0     C17366   2.469   2.714   4.427 -0.1889 -0.2180  0.1360
  890MOL0     C17367   2.497   2.818   4.504  0.5084 -0.5099 -0.6380
  890MOL0     C17368   2.384   2.892   4.577  0.2787  0.8115  1.3109
  890MOL0     C17369   2.324   3.000   4.487  0.4296  0.4049 -0.6662
  890MOL0     C17370   2.218   3.079   4.565 -0.2090 -0.2476  0.2283
  890MOL0     C17371   2.073   3.033   4.543 -0.1498 -0.1736 -0.1462
  890MOL0     O17372   2.038   2.915   4.618  0.2546 -0.3362  0.2277
  890MOL0     C17373   1.920   2.851   4.591  0.3589  0.1218 -0.4355
  890MOL0     C17374   1.792   2.924   4.589 -0.0293  0.9795 -0.3164
  890MOL0     C17375   1.685   2.847   4.581  0.2607  0.7599 -0.0742
  890MOL0     C17376   1.679   2.709   4.579  0.4500 -0.3371  0.3351
  890MOL0     C17377   1.549   2.633   4.571  0.2942 -0.8100 -0.2206
  890MOL0     O17378   1.436   2.711   4.548  0.9377  0.2012  0.4212
  890MOL0     C17379   1.310   2.650   4.531 -0.3937 -0.2967 -0.5477
  890MOL0     C17380   1.243   2.670   4.418 -0.5281 -0.2607  0.5960
  890MOL0     C17381   1.114   2.615   4.395  0.0664 -0.1657  0.2933
  890MOL0     C17382   1.051   2.532   4.497  0.4421 -0.7601  0.2383
  890MOL0     O17383   0.935   2.460   4.487 -0.1435 -0.1132 -0.3353
  890MOL0     C17384   0.851   2.499   4.384  0.4229 -0.6399  0.0776
  890MOL0     C17385   0.736   2.394   4.386  1.0036  0.2128 -0.2358
  890MOL0     C17386   0.631   2.418   4.501  0.2407  0.5156  1.2620
  890MOL0     C17387   0.530   2.298   4.485  0.0619 -0.3291  0.7570
  890MOL0     C17388   0.390   2.325   4.552  0.3723  0.0783 -0.4155
  890MOL0     C17389   0.290   2.206   4.569 -0.0592  1.1402  0.3357
  890MOL0     C17390   0.247   2.138   4.439  0.0991  0.6110  0.6657
  890MOL0     C17391   0.166   2.012   4.474 -0.1202  0.1097 -0.5181
  890MOL0    Cl17392   0.074   1.934   4.344  0.1097 -0.1804  0.4311
  890MOL0     C17393   1.119   2.526   4.618 -0.1586 -0.8504 -0.3221
  890MOL0     C17394   1.247   2.580   4.631 -0.1210 -0.1812 -0.6106
  890MOL0     O17395   1.547   2.520   4.612  0.5630 -0.7328  0.4118
  890MOL0     C17396   1.804   2.637   4.592  0.5930 -0.4148  1.1211
  890MOL0     C17397   1.920   2.713   4.600  0.7798 -0.5051 -0.8432
  890MOL0     N17398   2.635   2.832   4.508 -0.4434 -0.3844 -0.8725
  890MOL0     N17399   2.693   2.744   4.435  0.2751  0.8628 -0.8297
  890MOL0     C17400   1.628   2.559   3.784 -0.0646  0.7334 -0.0262
  890MOL0     C17401   1.494   2.547   3.744  0.5053 -0.2726 -0.0579
  890MOL0     C17402   1.038   2.567   3.853  0.5345  0.5697  0.3655
  890MOL0     C17403   0.962   2.471   3.932 -0.1696 -0.1708 -0.2344
  890MOL0     C17404   0.820   2.464   3.915 -0.8300 -0.0404  1.0720
  890MOL0     C17405   0.756   2.525   3.812  1.0108  1.2469 -1.0032
  890MOL0     O17406   0.621   2.502   3.814  0.1098 -0.3073  0.5257
  890MOL0     C17407   0.545   2.549   3.700  1.0212  0.3248 -0.6187
  890MOL0     C17408   0.486   2.682   3.715  0.2744  0.1831 -0.5742
  890MOL0     C17409   0.397   2.721   3.597 -0.5399  0.1880  0.4190
  890MOL0     C17410   0.269   2.794   3.636  0.5469 -0.6319 -0.0188
  890MOL0     C17411   0.313   2.920   3.709  0.1390  0.7953 -0.1103
  890MOL0     C17412   0.346   3.016   3.777 -0.8183  1.6087  0.2065
  890MOL0     C17413   0.828   2.603   3.719 -0.2971  0.0719 -0.5240
  890MOL0     C17414   0.962   2.633   3.753 -0.1810 -0.4595 -0.5789
  890MOL0     H17415   1.374   2.844   3.861 -0.1295  0.7213 -3.4044
  890MOL0     H17416   1.619   2.877   3.921  2.7909  1.7604 -4.4080
  890MOL0     H17417   1.935   2.608   3.763 -3.6492  1.2017 -0.9742
  890MOL0     H17418   1.879   2.513   3.896  1.6165 -0.1265  0.4831
  890MOL0     H17419   1.977   2.661   4.056 -2.2148 -0.9530 -1.1212
  890MOL0     H17420   2.086   2.733   3.931  0.4266 -1.2020 -0.3920
  890MOL0     H17421   2.151   2.499   3.872 -0.6060 -2.2102 -0.1781
  890MOL0     H17422   2.039   2.436   3.993 -0.4674 -0.2923 -2.7356
  890MOL0     H17423   2.294   2.603   4.023 -1.2041  1.4091  1.4755
  890MOL0     H17424   2.194   2.590   4.165  0.5773 -1.3802  1.6842
  890MOL0     H17425   2.337   2.352   4.043 -0.4653 -0.2984 -1.1359
  890MOL0     H17426   2.206   2.345   4.165 -0.3925  1.5463  0.3789
  890MOL0     H17427   2.411   2.346   4.296  0.0395  0.9829  1.4319
  890MOL0     H17428   2.342   2.509   4.298 -0.8302 -0.6255  0.6090
  890MOL0     H17429   2.587   2.432   4.133  2.0785 -0.4199  1.7021
  890MOL0     H17430   2.504   2.595   4.136  0.4181 -1.5033 -2.8254
  890MOL0     H17431   2.710   2.516   4.321 -0.8670 -0.3257 -0.0141
  890MOL0     H17432   2.572   2.461   4.395 -0.0695  1.1848  0.2515
  890MOL0     H17433   2.372   2.670   4.406 -0.5424 -0.9215  2.8581
  890MOL0     H17434   2.433   2.929   4.668  2.2651 -2.5547  1.7801
  890MOL0     H17435   2.310   2.817   4.604 -0.9959 -0.1258 -3.8470
  890MOL0     H17436   2.289   2.954   4.394 -0.7482  2.1562 -1.1203
  890MOL0     H17437   2.403   3.074   4.472  1.0878 -0.1548 -0.0864
  890MOL0     H17438   2.247   3.074   4.670  1.4525 -1.6916 -0.2513
  890MOL0     H17439   2.215   3.181   4.526  1.5801 -0.6819 -1.1522
  890MOL0     H17440   2.073   3.013   4.435 -3.7478 -3.2453  0.1875
  890MOL0     H17441   2.000   3.112   4.562 -1.4364 -0.6832 -2.5104
  890MOL0     H17442   1.767   3.029   4.591  0.1965  1.1850 -3.2555
  890MOL0     H17443   1.595   2.905   4.560  0.8624  1.9918  0.6337
  890MOL0     H17444   1.295   2.732   4.345 -1.4712  1.1067  1.0540
  890MOL0     H17445   1.067   2.641   4.301 -0.4230 -1.9518  0.0198
  890MOL0     H17446   0.893   2.481   4.285  0.6215 -3.1520  0.5477
  890MOL0     H17447   0.824   2.605   4.386 -1.2887 -1.0226  2.3748
  890MOL0     H17448   0.785   2.297   4.399 -0.4382 -0.3262  1.5187
  890MOL0     H17449   0.685   2.399   4.289 -0.4232  0.8879  0.5218
  890MOL0     H17450   0.562   2.501   4.481 -0.0053  0.3923  1.5822
  890MOL0     H17451   0.679   2.418   4.599 -0.8504  0.8074  1.8104
  890MOL0     H17452   0.513   2.293   4.377  1.7827  2.9078  0.1973
  890MOL0     H17453   0.563   2.201   4.524  1.2090  0.0936  0.8846
  890MOL0     H17454   0.340   2.401   4.492 -0.1466  0.1335  0.0803
  890MOL0     H17455   0.398   2.358   4.655 -1.2608  0.1695 -0.2919
  890MOL0     H17456   0.195   2.248   4.603 -1.0876 -0.5651 -0.3515
  890MOL0     H17457   0.327   2.129   4.636 -1.4598  0.5626  0.4743
  890MOL0     H17458   0.183   2.205   4.380  0.3981  0.2302 -0.1106
  890MOL0     H17459   0.345   2.114   4.395  0.2018  1.2960  0.5073
  890MOL0     H17460   0.100   2.043   4.555  0.8789  0.0241  0.3386
  890MOL0     H17461   0.233   1.940   4.522  1.2969  2.9828  2.1279
  890MOL0     H17462   1.071   2.466   4.695 -0.3328 -1.7254 -1.0929
  890MOL0     H17463   1.297   2.564   4.726 -0.7296 -0.4406 -0.3229
  890MOL0     H17464   1.804   2.529   4.588 -1.8975 -0.4264 -0.4282
  890MOL0     H17465   2.016   2.663   4.613 -0.1388 -2.1200 -0.0476
  890MOL0     H17466   1.693   2.472   3.781 -0.5761  0.3606 -1.0524
  890MOL0     H17467   1.475   2.449   3.700  1.4800 -0.8163  0.6768
  890MOL0     H17468   1.012   2.412   4.008  3.0256  0.9763 -1.2636
  890MOL0     H17469   0.754   2.402   3.975 -0.0306 -1.1393  0.8365
  890MOL0     H17470   0.465   2.476   3.706  3.2820 -2.1593  2.5165
  890MOL0     H17471   0.601   2.528   3.609  0.9860  0.3723 -0.6512
  890MOL0     H17472   0.432   2.692   3.810 -0.5680 -2.9472 -0.6296
  890MOL0     H17473   0.562   2.760   3.718  2.2264 -1.6178 -0.7585
  890MOL0     H17474   0.378   2.629   3.541 -0.9974  1.6827 -2.0437
  890MOL0     H17475   0.466   2.781   3.536  1.9907 -1.6569  1.2571
  890MOL0     H17476   0.216   2.829   3.547 -1.3966 -0.5315  1.1125
  890MOL0     H17477   0.210   2.730   3.702  1.1887 -0.9054  0.3031
  890MOL0     H17478   0.382   3.094   3.842  2.3667  0.5224 -0.0757
  890MOL0     H17479   0.788   2.656   3.634  1.1928  1.3363 -0.4976
  890MOL0     H17480   1.021   2.699   3.690  0.2015  0.1448  0.3878
  891MOL0     O17481   6.187  10.841  10.323  0.5608 -0.2945 -0.4464
  891MOL0     C17482   6.235  10.756  10.396 -0.4403  0.4558  0.0236
  891MOL0     O17483   6.175  10.634  10.429  0.5612  0.5292 -0.0775
  891MOL0     C17484   6.043  10.631  10.412  0.2774  0.8906  0.6059
  891MOL0     C17485   5.982  10.598  10.286 -0.5772  0.5345 -0.3956
  891MOL0     C17486   5.844  10.608  10.278 -0.2277 -0.4828  0.1975
  891MOL0     C17487   5.769  10.678  10.381  0.4097  0.3053  0.9358
  891MOL0     O17488   5.629  10.682  10.359 -0.1208 -0.7627  0.1932
  891MOL0     C17489   5.555  10.800  10.384  0.9603  0.3427  0.2423
  891MOL0     C17490   5.416  10.756  10.436 -0.4399  0.0748 -0.0921
  891MOL0     C17491   5.332  10.869  10.478 -0.0212 -0.5741 -0.7238
  891MOL0     C17492   5.193  10.818  10.528  0.7233 -1.2633 -1.1790
  891MOL0     C17493   5.142  10.904  10.640 -0.0474 -0.1699  0.1596
  891MOL0     C17494   5.002  10.850  10.700  0.2717 -0.1668 -0.4308
  891MOL0     C17495   4.957  10.937  10.822  0.2672  1.2427 -1.3019
  891MOL0     C17496   4.871  10.848  10.916  0.5715  0.7579  0.0240
  891MOL0     N17497   4.750  10.805  10.853  0.5203 -0.3170  0.1929
  891MOL0     C17498   4.644  10.886  10.804 -0.2292  0.9959 -0.2914
  891MOL0     C17499   4.553  10.803  10.754 -0.1859  0.6571 -0.5778
  891MOL0     C17500   4.427  10.840  10.680  0.0127 -0.4229  0.7610
  891MOL0     C17501   4.303  10.783  10.732 -0.0851  0.8492 -0.2457
  891MOL0     C17502   4.296  10.818  10.884 -0.2611  0.0381  0.2284
  891MOL0     C17503   4.161  10.781  10.933 -0.1631  0.5443  0.4147
  891MOL0     O17504   4.163  10.756  11.078 -0.2652 -0.4707 -0.3799
  891MOL0     C17505   4.044  10.709  11.136 -0.0515  0.0422  0.6235
  891MOL0     C17506   3.921  10.692  11.055  0.1238 -0.1399 -0.3631
  891MOL0     C17507   3.799  10.670  11.127 -0.3129  0.5885 -1.0574
  891MOL0     C17508   3.796  10.638  11.267  0.2594 -0.3056  0.7288
  891MOL0     C17509   3.675  10.573  11.341 -0.7364 -0.2167  0.9935
  891MOL0     O17510   3.572  10.543  11.261 -0.7966  0.3259 -0.7139
  891MOL0     C17511   3.470  10.476  11.317  0.4370  0.6488  0.3497
  891MOL0     C17512   3.348  10.547  11.339  0.2600  0.6856 -0.8669
  891MOL0     C17513   3.236  10.475  11.394  0.3023 -0.5939 -1.6107
  891MOL0     C17514   3.229  10.339  11.409 -0.5186  0.8298 -1.1501
  891MOL0     O17515   3.122  10.282  11.471  0.8764 -0.3161 -0.2546
  891MOL0     C17516   3.088  10.144  11.449 -0.1662  0.3576 -0.5819
  891MOL0     C17517   2.941  10.116  11.467  0.0959  0.7306  0.0817
  891MOL0     C17518   2.913   9.976  11.426 -0.0591 -0.4543  0.8278
  891MOL0     C17519   2.760   9.951  11.454 -0.7495 -0.5046 -0.2213
  891MOL0     C17520   2.715   9.833  11.371  0.0012 -0.3971  1.0087
  891MOL0     C17521   2.573   9.793  11.407 -0.0789 -0.5943 -0.2842
  891MOL0     C17522   2.565   9.751  11.555 -0.8648  0.1849 -0.1316
  891MOL0     C17523   2.432   9.678  11.577 -0.0918 -0.2600  0.2397
  891MOL0    Cl17524   2.438   9.513  11.506  0.1821 -0.5568 -0.3843
  891MOL0     C17525   3.347  10.271  11.376 -0.2958  0.6701  0.7542
  891MOL0     C17526   3.469  10.336  11.341  0.2962 -0.8327 -0.1143
  891MOL0     O17527   3.683  10.554  11.465 -0.3663 -0.3254 -0.5432
  891MOL0     C17528   3.922  10.649  11.331  0.2271  0.3446  0.2599
  891MOL0     C17529   4.035  10.677  11.268 -0.6217 -0.2195  1.2122
  891MOL0     N17530   4.593  10.677  10.788 -1.0894  0.4475  0.1348
  891MOL0     N17531   4.717  10.682  10.819  0.1836  0.0410  0.2841
  891MOL0     C17532   5.831  10.719  10.494 -1.4513  0.0710  0.4717
  891MOL0     C17533   5.968  10.690  10.517  0.5760  0.1880  0.2266
  891MOL0     C17534   6.383  10.772  10.436  0.3463 -0.3769 -0.6670
  891MOL0     C17535   6.452  10.677  10.517 -0.5032  1.1081 -0.1853
  891MOL0     C17536   6.588  10.701  10.559 -0.1144 -0.2808 -0.0381
  891MOL0     C17537   6.655  10.817  10.518  0.2868 -0.7614 -0.0372
  891MOL0     O17538   6.789  10.834  10.558  0.5469 -0.2424  0.7152
  891MOL0     C17539   6.858  10.959  10.522 -0.9367  1.1501 -0.2667
  891MOL0     C17540   6.920  10.969  10.388  0.4597  0.0830  0.2791
  891MOL0     C17541   7.048  10.890  10.378  0.3464 -0.0526  1.0815
  891MOL0     C17542   7.077  10.851  10.235  0.4416  0.4540 -0.6550
  891MOL0     C17543   7.076  10.965  10.135  0.3770 -0.5507  1.2026
  891MOL0     C17544   7.088  11.052  10.051  0.1122 -0.0223  1.0997
  891MOL0     C17545   6.577  10.908  10.455  0.2024 -0.7593  0.8325
  891MOL0     C17546   6.445  10.893  10.411 -0.4301 -0.5397 -0.0220
  891MOL0     H17547   6.037  10.557  10.202 -1.0277 -1.3647  0.1875
  891MOL0     H17548   5.801  10.580  10.182 -1.3880 -2.7654  1.2986
  891MOL0     H17549   5.551  10.841  10.283  3.3396  0.0191 -0.0433
  891MOL0     H17550   5.600  10.872  10.453 -2.6197  0.9157  2.2856
  891MOL0     H17551   5.440  10.695  10.523  1.8344 -0.5586 -1.0957
  891MOL0     H17552   5.369  10.693  10.360  0.2406  0.2955 -0.7137
  891MOL0     H17553   5.313  10.942  10.398  1.1692  3.3150  2.2628
  891MOL0     H17554   5.383  10.925  10.556 -0.3566 -0.1194 -0.8263
  891MOL0     H17555   5.129  10.818  10.439 -0.3141  2.2773 -0.6248
  891MOL0     H17556   5.201  10.715  10.562 -3.9886 -1.3219  0.4660
  891MOL0     H17557   5.137  11.010  10.613  1.4265 -0.1782 -0.1871
  891MOL0     H17558   5.212  10.878  10.720 -2.5928 -2.8165  1.7385
  891MOL0     H17559   5.015  10.744  10.721  1.4611 -0.2927 -1.6269
  891MOL0     H17560   4.928  10.875  10.624 -0.2736  2.9596  0.9506
  891MOL0     H17561   5.049  10.961  10.874  1.9695 -0.7547 -3.2179
  891MOL0     H17562   4.900  11.027  10.796 -1.2074  1.1588  1.2670
  891MOL0     H17563   4.855  10.903  11.009  1.8885 -0.1398  0.8142
  891MOL0     H17564   4.928  10.765  10.958 -2.2899 -1.5966 -0.3930
  891MOL0     H17565   4.639  10.993  10.818 -5.0935  0.9751 -0.2861
  891MOL0     H17566   4.422  10.814  10.574 -0.9684  2.1771  0.0866
  891MOL0     H17567   4.420  10.949  10.671 -0.1179 -0.4915  0.0096
  891MOL0     H17568   4.298  10.675  10.714 -2.7281  0.7339  0.6617
  891MOL0     H17569   4.229  10.840  10.676 -0.1162 -0.3595 -1.4857
  891MOL0     H17570   4.369  10.759  10.939 -0.0283 -1.6414 -1.7672
  891MOL0     H17571   4.339  10.917  10.904  0.6930 -0.3751  0.2655
  891MOL0     H17572   4.137  10.685  10.886 -0.3317  1.5445 -1.6593
  891MOL0     H17573   4.081  10.847  10.899 -0.3406  0.7861  1.2666
  891MOL0     H17574   3.924  10.714  10.949 -1.7229  2.1330 -0.0360
  891MOL0     H17575   3.709  10.661  11.067 -0.1666 -0.5756 -1.1286
  891MOL0     H17576   3.337  10.654  11.322 -0.4260  1.0740  1.6165
  891MOL0     H17577   3.148  10.535  11.412  1.9138  1.4342 -0.0149
  891MOL0     H17578   3.151  10.087  11.517 -1.9416 -0.8920  0.0881
  891MOL0     H17579   3.110  10.125  11.343 -0.7010  5.2207 -1.7905
  891MOL0     H17580   2.878  10.187  11.412 -2.0587 -1.0807  0.0911
  891MOL0     H17581   2.927  10.121  11.575  2.8016  0.3678  0.5226
  891MOL0     H17582   2.974   9.911  11.490  1.3540  2.2458  2.3636
  891MOL0     H17583   2.932   9.955  11.320 -2.5427 -0.7440  0.3576
  891MOL0     H17584   2.742   9.940  11.561 -1.7594 -0.5591 -0.3878
  891MOL0     H17585   2.691  10.028  11.417 -0.9942 -0.0246  1.1606
  891MOL0     H17586   2.777   9.743  11.383 -0.1725 -0.6274  0.2491
  891MOL0     H17587   2.716   9.850  11.263 -0.7370 -0.9702  0.9030
  891MOL0     H17588   2.541   9.710  11.343 -0.6683 -1.4356  1.0449
  891MOL0     H17589   2.504   9.876  11.389 -0.1106 -0.3575  0.8414
  891MOL0     H17590   2.638   9.680  11.595 -0.7606  1.0719  1.3105
  891MOL0     H17591   2.573   9.834  11.625 -0.5134 -0.5292  0.6934
  891MOL0     H17592   2.349   9.722  11.521 -3.2815 -4.3945  1.2048
  891MOL0     H17593   2.395   9.671  11.680  1.3762  0.9087  0.8953
  891MOL0     H17594   3.337  10.164  11.391 -1.7697  0.7191  0.2656
  891MOL0     H17595   3.558  10.283  11.309  1.9999  2.2566 -0.9133
  891MOL0     H17596   3.922  10.618  11.435  1.4459 -0.8208 -0.0600
  891MOL0     H17597   4.130  10.686  11.319  0.8413  3.2084 -1.6436
  891MOL0     H17598   5.782  10.769  10.577  0.4992 -1.3417  2.5851
  891MOL0     H17599   5.999  10.711  10.619  0.6183  0.4661  0.1578
  891MOL0     H17600   6.400  10.585  10.543 -3.5177  2.2514 -1.7400
  891MOL0     H17601   6.640  10.642  10.634  0.3199  3.1520  2.5823
  891MOL0     H17602   6.937  10.962  10.598 -3.2022  0.3918  2.2900
  891MOL0     H17603   6.796  11.048  10.534  0.8927  2.6470 -1.4360
  891MOL0     H17604   6.850  10.942  10.309 -0.1826  1.3173  0.3936
  891MOL0     H17605   6.949  11.074  10.381 -3.7037  1.4240  0.3128
  891MOL0     H17606   7.033  10.793  10.426  1.3708 -1.9940 -2.2315
  891MOL0     H17607   7.126  10.946  10.430  1.4586 -1.7062  1.2862
  891MOL0     H17608   7.173  10.798  10.237  2.1280  3.2939  1.9401
  891MOL0     H17609   7.002  10.776  10.209 -1.9381  2.4115  0.1627
  891MOL0     H17610   7.102  11.136   9.986 -3.0719  0.9674  1.4875
  891MOL0     H17611   6.625  10.998  10.418  2.1960 -2.2236 -0.3584
  891MOL0     H17612   6.396  10.974  10.359  0.9939 -0.3186 -1.0992
  892MOL0     O17613   0.820   6.583   5.008 -0.1520 -0.1783  0.5233
  892MOL0     C17614   0.748   6.559   5.106 -0.2428 -0.5854 -0.1647
  892MOL0     O17615   0.782   6.488   5.206  0.4705  0.9332 -0.1113
  892MOL0     C17616   0.915   6.440   5.221 -0.1259  0.0359  0.5150
  892MOL0     C17617   0.962   6.320   5.163 -0.1886  0.1158  0.7276
  892MOL0     C17618   1.094   6.272   5.179 -0.2045 -0.1308  0.2577
  892MOL0     C17619   1.173   6.345   5.278 -0.4689  0.2371  0.9971
  892MOL0     O17620   1.297   6.283   5.295  0.1992  0.4506 -0.6771
  892MOL0     C17621   1.374   6.329   5.404  0.3257 -0.0900 -0.0742
  892MOL0     C17622   1.514   6.258   5.394 -0.6830 -0.8325 -0.0044
  892MOL0     C17623   1.610   6.338   5.314  0.9405 -0.1151  0.0265
  892MOL0     C17624   1.739   6.270   5.301 -0.7481  0.2046 -0.0979
  892MOL0     C17625   1.813   6.244   5.430  1.2375  0.0188  0.1408
  892MOL0     C17626   1.936   6.168   5.384  0.3006 -0.0798 -0.0082
  892MOL0     C17627   2.026   6.150   5.513 -0.1269  0.9542  0.1584
  892MOL0     C17628   2.101   6.282   5.559  0.4640 -0.3821 -0.9986
  892MOL0     N17629   2.202   6.323   5.467 -0.0801  0.5746 -0.0179
  892MOL0     C17630   2.299   6.238   5.420 -0.5876 -0.1793  0.1617
  892MOL0     C17631   2.372   6.303   5.329  0.4959  0.3676 -0.2372
  892MOL0     C17632   2.480   6.244   5.243  0.2307  1.2306 -0.1313
  892MOL0     C17633   2.421   6.130   5.162  1.1630  1.0190 -0.1265
  892MOL0     C17634   2.354   6.193   5.035 -0.6441 -0.4187 -0.6225
  892MOL0     C17635   2.323   6.089   4.917 -1.3724 -0.7631  0.5775
  892MOL0     O17636   2.297   6.150   4.797 -0.0006 -0.3075  0.1565
  892MOL0     C17637   2.166   6.179   4.769  0.0581  0.1499 -0.9088
  892MOL0     C17638   2.140   6.239   4.645  0.5037 -0.4810 -0.6943
  892MOL0     C17639   2.003   6.249   4.604  0.1346 -0.0658 -0.5279
  892MOL0     C17640   1.900   6.205   4.687  0.2551  0.7545 -0.3916
  892MOL0     C17641   1.763   6.224   4.639  0.0921 -0.1409  1.0506
  892MOL0     O17642   1.743   6.275   4.514 -0.0368 -0.3816 -0.5805
  892MOL0     C17643   1.620   6.278   4.452 -0.7066 -0.3776 -0.3355
  892MOL0     C17644   1.562   6.161   4.403  0.0634  0.1153  0.5620
  892MOL0     C17645   1.434   6.164   4.340  0.4151  0.2134  0.1212
  892MOL0     C17646   1.360   6.286   4.339 -0.6729 -0.5536  0.4158
  892MOL0     O17647   1.236   6.282   4.301  0.3692 -0.4822 -0.1649
  892MOL0     C17648   1.200   6.398   4.220 -0.4086 -0.1367  0.5345
  892MOL0     C17649   1.057   6.399   4.158  0.4865  1.0418  0.1788
  892MOL0     C17650   0.947   6.412   4.267 -0.6585 -0.4141  0.7406
  892MOL0     C17651   0.806   6.432   4.225  0.3776  0.4061 -0.1268
  892MOL0     C17652   0.706   6.449   4.334 -0.2636 -0.1392  0.8443
  892MOL0     C17653   0.754   6.560   4.434 -0.4098 -0.3857 -0.7500
  892MOL0     C17654   0.637   6.597   4.527 -0.2261 -0.2114 -0.8848
  892MOL0     C17655   0.691   6.688   4.644 -0.2614 -0.2538  0.6984
  892MOL0    Cl17656   0.546   6.807   4.688 -0.3752  0.1611 -0.2154
  892MOL0     C17657   1.412   6.395   4.403  0.5752  0.4738 -1.5930
  892MOL0     C17658   1.546   6.393   4.454 -0.1259 -0.9129 -0.0685
  892MOL0     O17659   1.678   6.203   4.729  0.0215 -0.3838  0.3750
  892MOL0     C17660   1.930   6.143   4.811  0.3645  0.2208 -0.6407
  892MOL0     C17661   2.066   6.133   4.848 -0.5383  0.2677 -0.8992
  892MOL0     N17662   2.311   6.423   5.314 -0.8717  0.2679  0.4930
  892MOL0     N17663   2.212   6.435   5.397 -0.3836 -0.3332  0.1619
  892MOL0     C17664   1.126   6.465   5.333  0.0437  0.6872 -0.3699
  892MOL0     C17665   0.995   6.506   5.318  0.2524  0.4464  0.3925
  892MOL0     C17666   0.619   6.628   5.116  0.6469 -0.4673  0.1826
  892MOL0     C17667   0.508   6.590   5.194  0.5999 -0.2324  0.1806
  892MOL0     C17668   0.389   6.653   5.211  0.4320 -0.5714  0.2342
  892MOL0     C17669   0.357   6.751   5.124 -0.9144  0.0572  0.5242
  892MOL0     O17670   0.231   6.802   5.135 -0.0693 -0.1117  0.2881
  892MOL0     C17671   0.198   6.897   5.041  0.4808 -1.1875 -0.0801
  892MOL0     C17672   0.054   6.919   5.057 -0.2089  0.4389  0.0330
  892MOL0     C17673   0.014   6.958   5.199  0.5676 -0.4209 -0.1666
  892MOL0     C17674  -0.132   6.950   5.223  0.0605  0.5758  0.4912
  892MOL0     C17675  -0.154   6.970   5.363 -0.0249  0.3269  0.3797
  892MOL0     C17676  -0.159   6.991   5.485  0.3754 -0.3889 -0.3629
  892MOL0     C17677   0.461   6.804   5.041  0.2839 -0.1122 -0.7627
  892MOL0     C17678   0.595   6.748   5.044  0.1153  0.3341 -0.0477
  892MOL0     H17679   0.886   6.280   5.096 -1.1738  3.8706 -0.6881
  892MOL0     H17680   1.128   6.175   5.145 -1.8423 -0.7591  0.3279
  892MOL0     H17681   1.335   6.300   5.502  2.6276 -1.1817  0.5992
  892MOL0     H17682   1.385   6.438   5.402 -1.9396  0.1645 -0.2032
  892MOL0     H17683   1.502   6.160   5.346 -1.8510 -1.2620  1.0876
  892MOL0     H17684   1.548   6.239   5.497 -0.4369  1.7793  0.4509
  892MOL0     H17685   1.616   6.439   5.356 -3.9556  0.8946 -1.0635
  892MOL0     H17686   1.577   6.347   5.210 -0.5737  0.5269  0.5345
  892MOL0     H17687   1.732   6.173   5.251  0.4735 -0.4232  0.8741
  892MOL0     H17688   1.799   6.336   5.239 -1.5055  0.8459 -0.1625
  892MOL0     H17689   1.757   6.187   5.505  0.2158  0.7513 -0.0432
  892MOL0     H17690   1.837   6.338   5.480 -3.5224  2.3504 -1.3892
  892MOL0     H17691   1.977   6.237   5.309 -1.0025  3.0808  1.9574
  892MOL0     H17692   1.917   6.076   5.329 -2.0099  1.1452 -1.4151
  892MOL0     H17693   1.972   6.101   5.595 -0.8405 -0.1881 -0.9483
  892MOL0     H17694   2.102   6.072   5.494  0.9806  1.5131  2.0012
  892MOL0     H17695   2.156   6.272   5.653 -1.1467  1.4500  0.2416
  892MOL0     H17696   2.029   6.363   5.571  0.6149 -0.1405 -1.7018
  892MOL0     H17697   2.313   6.137   5.457 -3.0613 -0.0991  1.5643
  892MOL0     H17698   2.561   6.211   5.310 -0.6167 -0.3719  0.1599
  892MOL0     H17699   2.537   6.317   5.185 -0.4667  0.4883 -1.7863
  892MOL0     H17700   2.349   6.081   5.229  0.6948  0.6241 -0.9111
  892MOL0     H17701   2.499   6.064   5.122 -1.0869 -0.5460 -2.1915
  892MOL0     H17702   2.257   6.233   5.067 -0.2766  0.6825 -0.8340
  892MOL0     H17703   2.418   6.269   4.989  3.4987 -2.9355  0.4748
  892MOL0     H17704   2.256   6.010   4.954 -0.3623 -1.5271  0.8049
  892MOL0     H17705   2.417   6.036   4.900  0.2226  1.6435  1.4098
  892MOL0     H17706   2.221   6.269   4.579 -0.5813  0.0439 -1.8200
  892MOL0     H17707   1.969   6.282   4.506 -2.1700  0.4390  0.3808
  892MOL0     H17708   1.616   6.066   4.400  0.1281  0.1315 -2.5735
  892MOL0     H17709   1.386   6.073   4.305 -0.0730 -0.1618  1.7065
  892MOL0     H17710   1.276   6.413   4.143  0.9240 -1.2219  1.6049
  892MOL0     H17711   1.191   6.480   4.292  0.5973  0.1512  0.3553
  892MOL0     H17712   1.036   6.306   4.104  0.5175  0.9581  0.3097
  892MOL0     H17713   1.055   6.481   4.086  2.7685 -0.4757 -1.7496
  892MOL0     H17714   0.976   6.503   4.320  2.8781 -1.7208  1.3220
  892MOL0     H17715   0.967   6.327   4.333  1.2219 -0.9150 -0.3942
  892MOL0     H17716   0.799   6.521   4.161 -0.7105  0.1252 -0.4124
  892MOL0     H17717   0.774   6.344   4.168 -0.8647  1.6170 -1.3978
  892MOL0     H17718   0.711   6.358   4.394 -0.1842 -2.3026 -2.2236
  892MOL0     H17719   0.610   6.484   4.295 -0.2409  0.6790  1.4752
  892MOL0     H17720   0.795   6.642   4.373 -0.4423  2.7453  3.0516
  892MOL0     H17721   0.829   6.512   4.496 -0.2240 -1.2424 -1.6227
  892MOL0     H17722   0.562   6.656   4.473  1.0089  0.8959 -1.4351
  892MOL0     H17723   0.592   6.507   4.569 -1.8115 -0.3066 -2.6274
  892MOL0     H17724   0.765   6.748   4.591  0.1797 -1.5164 -0.1563
  892MOL0     H17725   0.741   6.643   4.731 -0.5029  0.4280  1.2002
  892MOL0     H17726   1.351   6.479   4.434  1.7503  0.8575 -0.1518
  892MOL0     H17727   1.594   6.478   4.503 -0.1514 -0.2671 -1.1370
  892MOL0     H17728   1.846   6.112   4.872 -0.3153  0.8573 -1.2405
  892MOL0     H17729   2.082   6.098   4.950  0.5354  5.4067  1.0101
  892MOL0     H17730   1.193   6.526   5.392  1.5730  0.9821 -2.3130
  892MOL0     H17731   0.943   6.585   5.371 -0.2788  0.8767 -0.7327
  892MOL0     H17732   0.519   6.497   5.248 -1.5327 -1.3027 -1.0986
  892MOL0     H17733   0.322   6.607   5.283  1.4152 -3.9639 -0.8676
  892MOL0     H17734   0.201   6.870   4.935 -1.4998 -2.6628  0.1870
  892MOL0     H17735   0.248   6.993   5.060 -2.8365  0.7314 -0.2968
  892MOL0     H17736   0.018   6.989   4.982 -2.4072 -1.0412 -0.4081
  892MOL0     H17737   0.003   6.827   5.029 -1.2513  1.4724 -1.5917
  892MOL0     H17738   0.021   7.065   5.221 -1.0380  0.3119 -2.7579
  892MOL0     H17739   0.066   6.892   5.269  0.4968 -1.1385 -0.7780
  892MOL0     H17740  -0.201   7.015   5.169 -0.3601 -0.9019 -0.8612
  892MOL0     H17741  -0.168   6.849   5.203 -1.5607  1.1092  0.5885
  892MOL0     H17742  -0.162   7.015   5.589  0.9897 -2.7076  0.2465
  892MOL0     H17743   0.436   6.880   4.968 -2.9618  0.7574  1.0065
  892MOL0     H17744   0.664   6.799   4.977  0.6341  1.0970  1.0374
  893MOL0     O17745   2.893   7.892   9.791  0.0183  0.0354  0.3412
  893MOL0     C17746   2.914   7.816   9.880 -0.8564 -0.4181  0.3635
  893MOL0     O17747   2.843   7.706   9.911 -0.3148  0.8991 -0.4127
  893MOL0     C17748   2.726   7.682   9.849  0.3872  0.6869  1.0536
  893MOL0     C17749   2.604   7.699   9.914 -0.1453  0.4323 -0.6223
  893MOL0     C17750   2.479   7.679   9.856 -0.9079 -0.3225  0.2128
  893MOL0     C17751   2.477   7.640   9.727 -0.1117 -0.0317  0.0905
  893MOL0     O17752   2.357   7.626   9.661  0.3621  0.1255  0.0456
  893MOL0     C17753   2.294   7.747   9.628  0.0182 -0.5973  0.4560
  893MOL0     C17754   2.161   7.730   9.550  0.2018 -0.6211  0.2379
  893MOL0     C17755   2.077   7.855   9.552  0.2935 -0.8091  0.0811
  893MOL0     C17756   1.959   7.858   9.463 -0.6769  0.0575 -0.2544
  893MOL0     C17757   1.909   8.002   9.431 -1.2207  0.0841 -0.2164
  893MOL0     C17758   1.880   8.083   9.562 -0.3857 -0.8424  0.6590
  893MOL0     C17759   1.779   8.202   9.555  0.2944  0.8501 -0.9455
  893MOL0     C17760   1.801   8.282   9.424  0.2212  0.1162  0.2985
  893MOL0     N17761   1.692   8.369   9.387  0.8037  0.0759 -0.2952
  893MOL0     C17762   1.566   8.319   9.369 -0.4154 -0.5673 -0.0525
  893MOL0     C17763   1.480   8.421   9.375  0.1057 -0.3350  0.2749
  893MOL0     C17764   1.327   8.421   9.367  0.0825 -0.2451  0.0246
  893MOL0     C17765   1.277   8.566   9.334  0.1485 -0.2902 -0.7138
  893MOL0     C17766   1.311   8.594   9.185 -0.1090  0.0959  0.1342
  893MOL0     C17767   1.241   8.723   9.142  0.5968 -0.6311 -0.9041
  893MOL0     O17768   1.184   8.718   9.009  0.2560  0.2767  0.4934
  893MOL0     C17769   1.079   8.802   8.986 -0.8731  0.8553  0.4370
  893MOL0     C17770   0.964   8.811   9.065 -0.7022 -0.6630  0.2196
  893MOL0     C17771   0.861   8.891   9.028  1.0537 -0.8532 -0.3281
  893MOL0     C17772   0.870   8.969   8.912  0.6712 -0.3857 -0.0920
  893MOL0     C17773   0.752   9.051   8.864  0.5830 -0.2749 -1.0531
  893MOL0     O17774   0.640   9.061   8.947 -0.6563 -0.1588  0.5598
  893MOL0     C17775   0.530   9.116   8.883 -0.6969  0.0941 -0.4718
  893MOL0     C17776   0.470   9.234   8.919 -0.4570  0.4288 -0.0944
  893MOL0     C17777   0.340   9.274   8.867  0.4409  0.1817 -1.0508
  893MOL0     C17778   0.266   9.184   8.787  0.2292  0.1897  0.7938
  893MOL0     O17779   0.138   9.195   8.737 -0.3698  0.5159 -0.4200
  893MOL0     C17780   0.077   9.315   8.730 -1.1418 -0.5767 -0.9410
  893MOL0     C17781  -0.058   9.293   8.664 -0.0703  0.6218 -0.4643
  893MOL0     C17782  -0.148   9.414   8.651  0.0108  0.1118  0.7118
  893MOL0     C17783  -0.077   9.545   8.609 -0.2371 -0.0876 -0.4697
  893MOL0     C17784  -0.171   9.656   8.587  1.1211 -0.8255 -0.6435
  893MOL0     C17785  -0.271   9.631   8.479 -0.5988  0.6721 -0.0811
  893MOL0     C17786  -0.343   9.756   8.429 -0.0899 -0.9610  0.0060
  893MOL0     C17787  -0.472   9.730   8.342  0.4189  0.5862 -0.1342
  893MOL0    Cl17788  -0.423   9.690   8.175 -0.0637  0.0526  0.2553
  893MOL0     C17789   0.330   9.065   8.774 -0.1136  0.3089 -0.6581
  893MOL0     C17790   0.458   9.032   8.809 -0.2536  0.1055  0.6021
  893MOL0     O17791   0.767   9.097   8.752  0.0071 -0.0291  0.5518
  893MOL0     C17792   0.992   8.958   8.834  0.0301  0.5075 -0.4257
  893MOL0     C17793   1.088   8.875   8.872 -0.2126 -0.7059  0.2539
  893MOL0     N17794   1.561   8.537   9.393 -0.0352  0.3214  0.5417
  893MOL0     N17795   1.685   8.511   9.409  0.1137  0.9780  0.3567
  893MOL0     C17796   2.596   7.613   9.661 -0.7054  0.0013 -0.4630
  893MOL0     C17797   2.722   7.629   9.718  0.0864  0.2000  1.3123
  893MOL0     C17798   3.038   7.836   9.968  0.6310 -0.0542  0.6826
  893MOL0     C17799   3.108   7.958   9.965  0.5849  0.0935 -0.0102
  893MOL0     C17800   3.220   7.980  10.045 -0.8690 -0.1915  0.1650
  893MOL0     C17801   3.269   7.881  10.129  0.6425 -0.6539 -0.6434
  893MOL0     O17802   3.398   7.882  10.187  0.3261 -0.0888  0.9129
  893MOL0     C17803   3.412   7.923  10.318  0.6901  0.6972 -0.2648
  893MOL0     C17804   3.516   8.032  10.310  0.1412  0.0900  0.1325
  893MOL0     C17805   3.645   7.957  10.256  0.0692 -0.4076 -0.2760
  893MOL0     C17806   3.758   8.052  10.284  0.0793 -0.6055 -0.5232
  893MOL0     C17807   3.881   7.973  10.233 -0.3421  0.4422  0.1085
  893MOL0     C17808   3.970   7.899  10.195 -0.0674 -0.0079  0.8328
  893MOL0     C17809   3.198   7.758  10.145  0.3380  0.5150  0.1401
  893MOL0     C17810   3.077   7.748  10.064  0.5897 -0.6607 -0.0119
  893MOL0     H17811   2.599   7.740  10.015 -0.8108 -1.9207  0.3629
  893MOL0     H17812   2.386   7.701   9.907 -1.1402 -0.6691 -0.0504
  893MOL0     H17813   2.362   7.816   9.578 -1.4714 -0.2948 -1.2562
  893MOL0     H17814   2.259   7.800   9.717 -2.0417 -0.4715 -0.3689
  893MOL0     H17815   2.114   7.645   9.601 -0.3165 -1.7626 -2.0077
  893MOL0     H17816   2.177   7.689   9.450 -1.5192 -3.7900  1.1117
  893MOL0     H17817   2.132   7.946   9.527 -4.0348  1.8950 -0.5502
  893MOL0     H17818   2.036   7.860   9.653  0.8531 -0.0169  0.2745
  893MOL0     H17819   1.998   7.809   9.373 -0.7746 -0.9816  0.2554
  893MOL0     H17820   1.874   7.802   9.502  1.3684 -2.9375  0.2545
  893MOL0     H17821   1.812   8.000   9.382 -1.1716  0.9318 -0.3700
  893MOL0     H17822   1.978   8.060   9.369  2.7729  0.2552  3.8732
  893MOL0     H17823   1.977   8.126   9.590 -0.9610  1.5342 -0.6710
  893MOL0     H17824   1.847   8.017   9.641 -1.3510  0.1045  1.0706
  893MOL0     H17825   1.674   8.173   9.562  0.7854 -1.2355 -1.4308
  893MOL0     H17826   1.794   8.268   9.640 -0.2927 -0.4195  0.1764
  893MOL0     H17827   1.814   8.215   9.339  0.7839  0.3210  0.2154
  893MOL0     H17828   1.888   8.347   9.444  0.4322  0.2538 -0.9897
  893MOL0     H17829   1.537   8.215   9.355 -1.2740 -0.1573 -1.5799
  893MOL0     H17830   1.293   8.387   9.465 -1.1026 -0.2446 -0.3626
  893MOL0     H17831   1.288   8.356   9.289 -0.9318  1.4973 -0.9854
  893MOL0     H17832   1.316   8.642   9.402 -1.1849  0.1894 -0.4471
  893MOL0     H17833   1.168   8.562   9.345 -0.1192  3.3816 -0.8225
  893MOL0     H17834   1.417   8.619   9.169 -0.4201  1.6249  0.2956
  893MOL0     H17835   1.273   8.509   9.128  0.5634  0.2776 -0.6076
  893MOL0     H17836   1.311   8.806   9.130 -1.0969  0.8151 -1.2953
  893MOL0     H17837   1.170   8.763   9.215  1.6484  2.5534 -1.4847
  893MOL0     H17838   0.965   8.740   9.146  2.9695 -0.5025  0.4725
  893MOL0     H17839   0.787   8.904   9.106  2.4074  2.9974  0.5634
  893MOL0     H17840   0.530   9.295   8.987 -0.8636 -0.5843  1.2137
  893MOL0     H17841   0.318   9.375   8.900  0.0597  0.1680 -1.2581
  893MOL0     H17842   0.148   9.378   8.675  1.0389 -1.4187  0.7531
  893MOL0     H17843   0.067   9.365   8.826 -0.9135 -1.2997 -0.5355
  893MOL0     H17844  -0.109   9.215   8.722  1.2789  0.0604 -0.0073
  893MOL0     H17845  -0.035   9.251   8.566 -1.6461  0.6323 -0.8659
  893MOL0     H17846  -0.178   9.411   8.757  0.2509 -1.6658  0.7644
  893MOL0     H17847  -0.228   9.387   8.582 -0.0362  1.4032  0.2355
  893MOL0     H17848  -0.020   9.597   8.687 -1.7691 -0.3348  0.8655
  893MOL0     H17849  -0.019   9.517   8.521 -1.4553 -1.9369 -0.7340
  893MOL0     H17850  -0.122   9.750   8.558  1.1186  0.2999  2.6859
  893MOL0     H17851  -0.227   9.663   8.680  0.9992  1.0556 -0.8266
  893MOL0     H17852  -0.350   9.558   8.501  0.7251 -0.5281  0.8926
  893MOL0     H17853  -0.208   9.589   8.401  1.1504  0.4264  1.4083
  893MOL0     H17854  -0.382   9.819   8.510 -0.1090 -1.1520  0.1481
  893MOL0     H17855  -0.280   9.816   8.363 -2.2102 -0.4265 -1.6024
  893MOL0     H17856  -0.528   9.822   8.322  3.0782  1.9418 -2.0250
  893MOL0     H17857  -0.539   9.655   8.386  1.4538 -0.0577  0.3685
  893MOL0     H17858   0.273   8.986   8.727 -2.4916  1.5632  0.0035
  893MOL0     H17859   0.479   8.926   8.805 -1.9953 -0.4054  2.6596
  893MOL0     H17860   0.997   8.999   8.734 -1.1684 -1.0014 -1.1463
  893MOL0     H17861   1.186   8.863   8.826 -1.3840 -1.6826 -2.1311
  893MOL0     H17862   2.583   7.574   9.561 -1.0932  0.3581 -0.5543
  893MOL0     H17863   2.806   7.614   9.651 -1.9728  2.1226 -1.9707
  893MOL0     H17864   3.066   8.038   9.904 -2.5506 -0.8749  0.6869
  893MOL0     H17865   3.284   8.065  10.022  1.2855 -2.0696 -1.1115
  893MOL0     H17866   3.442   7.847  10.391 -0.1640  1.2520  0.7010
  893MOL0     H17867   3.309   7.952  10.344  1.1944  2.2666  0.1034
  893MOL0     H17868   3.476   8.102  10.236  0.8210  1.8386  1.3472
  893MOL0     H17869   3.525   8.070  10.412  0.1018 -0.7367  0.4509
  893MOL0     H17870   3.621   7.924  10.155 -2.7476 -2.1745  0.8531
  893MOL0     H17871   3.675   7.873  10.319  0.6532  1.1137  1.5805
  893MOL0     H17872   3.753   8.152  10.240  2.3272  0.3808  1.2609
  893MOL0     H17873   3.768   8.064  10.393 -2.7060 -0.1083 -0.2484
  893MOL0     H17874   4.058   7.848  10.161  1.0464 -0.8137  4.5102
  893MOL0     H17875   3.243   7.678  10.203 -1.5997  1.3081  2.9586
  893MOL0     H17876   3.023   7.654  10.073  2.0912 -1.6075 -0.5017
  894MOL0     O17877   3.896   1.206   3.810 -1.0331  0.7854 -0.5757
  894MOL0     C17878   3.948   1.151   3.909 -0.5433  0.1193  0.0235
  894MOL0     O17879   3.951   1.020   3.942  0.3270 -0.5456  0.0031
  894MOL0     C17880   3.923   0.927   3.846 -0.8994 -0.5446  0.2634
  894MOL0     C17881   3.853   0.812   3.889 -0.1251 -0.6722 -1.2443
  894MOL0     C17882   3.813   0.702   3.810  0.1398  0.2418 -0.2993
  894MOL0     C17883   3.861   0.711   3.681 -1.2728  0.7394  0.8014
  894MOL0     O17884   3.833   0.615   3.582 -0.2931  0.5862 -0.1270
  894MOL0     C17885   3.725   0.522   3.605 -0.5589  0.3014 -1.1712
  894MOL0     C17886   3.702   0.431   3.484 -0.0689 -0.2140 -0.3696
  894MOL0     C17887   3.567   0.358   3.480  0.1712 -0.0820 -0.2918
  894MOL0     C17888   3.567   0.265   3.367  0.6964  1.2198 -0.6003
  894MOL0     C17889   3.422   0.210   3.376  0.1971 -0.1850  0.4099
  894MOL0     C17890   3.403   0.079   3.292  1.2528  0.4768 -0.6957
  894MOL0     C17891   3.259   0.040   3.267  0.4073 -1.1880  0.1478
  894MOL0     C17892   3.166   0.065   3.393 -0.5231 -0.2824 -0.3427
  894MOL0     N17893   3.027   0.039   3.373  0.2588  0.0109 -0.4418
  894MOL0     C17894   2.940   0.053   3.263 -1.1576  0.2151  0.4338
  894MOL0     C17895   2.825   0.015   3.299  0.5475 -0.4242  0.1775
  894MOL0     C17896   2.702   0.027   3.208  0.7982 -0.2727 -0.4529
  894MOL0     C17897   2.587  -0.055   3.256  0.6148 -0.2373 -0.4044
  894MOL0     C17898   2.466  -0.069   3.156  0.4569 -0.9909  0.3253
  894MOL0     C17899   2.335  -0.087   3.226  0.4157 -0.4178  0.8004
  894MOL0     O17900   2.233  -0.089   3.124 -0.4244  0.5593  0.3475
  894MOL0     C17901   2.115  -0.145   3.155 -0.1022  0.1078  1.0986
  894MOL0     C17902   2.037  -0.177   3.040  0.4034 -0.9517 -1.5190
  894MOL0     C17903   1.900  -0.221   3.054 -0.8330 -0.2798 -0.1064
  894MOL0     C17904   1.858  -0.249   3.185  0.3013  0.2066 -0.7484
  894MOL0     C17905   1.724  -0.302   3.210 -0.4045  0.2109 -0.6035
  894MOL0     O17906   1.700  -0.365   3.331  0.1129  0.2175 -0.1368
  894MOL0     C17907   1.564  -0.389   3.354 -0.6895 -0.6116  0.5497
  894MOL0     C17908   1.461  -0.290   3.363 -0.4367  0.7112  0.9149
  894MOL0     C17909   1.335  -0.329   3.407  0.1887  0.4288 -1.0167
  894MOL0     C17910   1.309  -0.460   3.456 -0.9424 -0.8254  0.4082
  894MOL0     O17911   1.185  -0.488   3.494 -0.1123 -0.0207  0.2142
  894MOL0     C17912   1.076  -0.397   3.481  0.6212 -0.5166  0.6248
  894MOL0     C17913   0.955  -0.489   3.514  0.0039  0.7583  0.2175
  894MOL0     C17914   0.815  -0.432   3.455 -1.1813  0.1067  0.0587
  894MOL0     C17915   0.692  -0.478   3.539 -0.1615 -0.5447 -0.5052
  894MOL0     C17916   0.557  -0.427   3.483 -0.3886  0.4009  1.1162
  894MOL0     C17917   0.447  -0.475   3.589 -0.5518  0.1407  0.3587
  894MOL0     C17918   0.314  -0.407   3.545 -0.1105  0.3054 -1.2226
  894MOL0     C17919   0.217  -0.395   3.672 -0.3421 -0.3099  0.3648
  894MOL0    Cl17920   0.267  -0.235   3.764  0.3202  0.3949  0.1600
  894MOL0     C17921   1.410  -0.551   3.458 -0.8886  0.3919  0.2501
  894MOL0     C17922   1.535  -0.518   3.397 -0.1396  1.6087  0.0920
  894MOL0     O17923   1.645  -0.301   3.114  0.1914 -0.6125  0.0420
  894MOL0     C17924   1.937  -0.215   3.294  0.6359 -0.5733 -0.0147
  894MOL0     C17925   2.067  -0.164   3.281 -0.4252  0.9230 -1.5815
  894MOL0     N17926   2.829  -0.024   3.434 -0.5065  0.0392  0.5726
  894MOL0     N17927   2.953  -0.006   3.477  1.0161  0.3405 -0.1681
  894MOL0     C17928   3.943   0.822   3.627 -0.9262 -0.5021  0.4085
  894MOL0     C17929   3.973   0.933   3.715  0.5567  0.4448  0.0683
  894MOL0     C17930   4.031   1.247   3.988 -0.1116  0.0558  0.4473
  894MOL0     C17931   4.122   1.196   4.083 -0.2359 -0.2120 -1.2727
  894MOL0     C17932   4.209   1.282   4.142 -0.0129  1.0648 -0.3064
  894MOL0     C17933   4.207   1.419   4.125  0.3333 -0.3459  0.4897
  894MOL0     O17934   4.297   1.507   4.174 -0.1333 -0.2981 -0.3078
  894MOL0     C17935   4.347   1.481   4.300  0.0649  0.7227  0.6278
  894MOL0     C17936   4.400   1.608   4.363 -1.1205  0.3109 -0.1623
  894MOL0     C17937   4.400   1.606   4.519 -0.6781 -0.4610 -0.5639
  894MOL0     C17938   4.485   1.721   4.572  0.2564  0.3911 -0.3436
  894MOL0     C17939   4.490   1.731   4.721  0.6761  0.2272  0.0575
  894MOL0     C17940   4.495   1.741   4.843 -0.1996  0.0202 -0.0167
  894MOL0     C17941   4.112   1.465   4.032  0.8615  0.1021 -0.1485
  894MOL0     C17942   4.025   1.389   3.962  0.5454  0.0622  0.4809
  894MOL0     H17943   3.834   0.805   3.996  0.3163  0.7661 -1.0510
  894MOL0     H17944   3.753   0.618   3.844 -1.5959  2.1891  1.7753
  894MOL0     H17945   3.632   0.574   3.630 -0.2050  0.3167  0.1865
  894MOL0     H17946   3.753   0.447   3.680 -4.2853 -1.2892 -1.1503
  894MOL0     H17947   3.777   0.354   3.464 -1.7521 -1.6418 -1.4967
  894MOL0     H17948   3.701   0.505   3.403  0.3769  0.1914 -0.0083
  894MOL0     H17949   3.492   0.438   3.483 -0.5957 -0.8180  0.9789
  894MOL0     H17950   3.557   0.301   3.573  2.9391  1.3788  1.0363
  894MOL0     H17951   3.592   0.312   3.271  0.3591  0.4174 -1.0962
  894MOL0     H17952   3.631   0.177   3.379  0.8740  1.5383  0.9085
  894MOL0     H17953   3.346   0.275   3.331 -0.5277  0.4573  2.4454
  894MOL0     H17954   3.390   0.175   3.474  1.6091 -3.4302 -0.1755
  894MOL0     H17955   3.456  -0.008   3.333  2.0924  0.0833 -2.5381
  894MOL0     H17956   3.455   0.092   3.197 -0.3798  2.9282 -1.3367
  894MOL0     H17957   3.216   0.102   3.188  0.3452  1.4448  2.1125
  894MOL0     H17958   3.258  -0.062   3.227 -1.0169 -1.7687  1.5680
  894MOL0     H17959   3.172   0.170   3.423  0.4872 -0.9769  2.1591
  894MOL0     H17960   3.191  -0.009   3.470 -2.1684  0.2493  0.7643
  894MOL0     H17961   2.964   0.084   3.162  1.3919 -1.6309  0.3826
  894MOL0     H17962   2.739   0.003   3.108 -1.9966 -1.1056 -1.3740
  894MOL0     H17963   2.677   0.134   3.208  2.8105  0.2643  0.5915
  894MOL0     H17964   2.559  -0.015   3.354  0.9377 -1.8118  0.3764
  894MOL0     H17965   2.624  -0.158   3.267 -1.5349 -0.8490  2.4156
  894MOL0     H17966   2.454   0.029   3.108  1.7466 -0.1381  1.6699
  894MOL0     H17967   2.476  -0.154   3.088 -2.2775 -0.4268 -0.9212
  894MOL0     H17968   2.307  -0.012   3.300  2.7963  2.5872 -1.0721
  894MOL0     H17969   2.328  -0.187   3.270 -2.5965 -1.0624 -0.8163
  894MOL0     H17970   2.083  -0.161   2.943 -0.2288  1.8057 -1.4663
  894MOL0     H17971   1.856  -0.251   2.960  1.6425  0.1356 -1.4932
  894MOL0     H17972   1.477  -0.185   3.341 -0.6983  0.7274  0.8026
  894MOL0     H17973   1.257  -0.254   3.399 -2.5738 -2.4392 -4.6785
  894MOL0     H17974   1.072  -0.347   3.384  1.0785 -0.1236  0.8041
  894MOL0     H17975   1.093  -0.323   3.561  3.4113 -1.5083  1.0402
  894MOL0     H17976   0.953  -0.492   3.624 -0.1002  2.5472  0.2992
  894MOL0     H17977   0.971  -0.592   3.482  0.0582  0.9013 -0.2197
  894MOL0     H17978   0.803  -0.466   3.352 -2.6894  0.7953 -0.0224
  894MOL0     H17979   0.808  -0.324   3.446 -0.0668  0.0173 -2.8074
  894MOL0     H17980   0.696  -0.587   3.552 -0.9143 -0.7505 -1.8102
  894MOL0     H17981   0.693  -0.442   3.642 -0.6758 -0.9067 -0.3723
  894MOL0     H17982   0.534  -0.459   3.381  1.5410 -0.3993  0.9009
  894MOL0     H17983   0.551  -0.318   3.479 -4.7764  0.2954 -2.2259
  894MOL0     H17984   0.473  -0.455   3.693 -0.5983  0.1653  0.3658
  894MOL0     H17985   0.435  -0.584   3.591  1.0035 -0.0511  2.7374
  894MOL0     H17986   0.345  -0.313   3.497  3.9617 -0.8969 -1.3149
  894MOL0     H17987   0.266  -0.471   3.471  0.8669  0.8634 -2.3831
  894MOL0     H17988   0.228  -0.488   3.729  1.0652 -1.0781 -1.0589
  894MOL0     H17989   0.118  -0.381   3.629  1.1196  0.0963 -3.2422
  894MOL0     H17990   1.393  -0.652   3.495  0.7615  0.1345  0.3639
  894MOL0     H17991   1.618  -0.587   3.406 -0.2789  1.5096  0.6500
  894MOL0     H17992   1.902  -0.242   3.393 -1.3018  0.9751 -0.2226
  894MOL0     H17993   2.118  -0.132   3.371  0.1188  0.5020 -1.7354
  894MOL0     H17994   3.987   0.814   3.528  2.3002 -2.2036  1.8232
  894MOL0     H17995   4.038   1.012   3.679 -0.2938  1.2779  0.3364
  894MOL0     H17996   4.131   1.088   4.092 -2.1858 -0.2671  1.0592
  894MOL0     H17997   4.284   1.242   4.209  1.4700  1.3973 -1.6879
  894MOL0     H17998   4.427   1.407   4.288 -0.5106 -0.1298  1.7763
  894MOL0     H17999   4.263   1.439   4.357 -0.2241 -0.9846 -0.9395
  894MOL0     H18000   4.504   1.634   4.343 -1.8780  3.1457 -0.9858
  894MOL0     H18001   4.342   1.692   4.322 -0.0513  0.8129 -0.6649
  894MOL0     H18002   4.425   1.505   4.551 -0.8578 -1.6743 -3.9359
  894MOL0     H18003   4.293   1.628   4.528 -1.1338 -1.9697 -1.8497
  894MOL0     H18004   4.584   1.698   4.534 -0.2565 -4.0676  0.4994
  894MOL0     H18005   4.440   1.811   4.528 -0.7211 -0.8921 -2.1002
  894MOL0     H18006   4.500   1.752   4.949  0.8114 -1.1188  0.0742
  894MOL0     H18007   4.101   1.573   4.038 -1.1930 -0.0810  0.1104
  894MOL0     H18008   3.960   1.427   3.884  1.4165 -2.6140 -1.7030
  895MOL0     O18009   0.622   5.885   0.285  0.7521  0.5999 -0.7887
  895MOL0     C18010   0.636   5.763   0.274  0.2250  0.3865  0.2973
  895MOL0     O18011   0.538   5.670   0.263  0.1204 -0.2632  0.0048
  895MOL0     C18012   0.408   5.705   0.248  0.7192 -0.0788  0.0950
  895MOL0     C18013   0.337   5.633   0.150  0.2732  0.8076 -0.1450
  895MOL0     C18014   0.203   5.664   0.131  0.3623  0.2192 -0.0226
  895MOL0     C18015   0.140   5.763   0.199  0.1406  0.2792  0.1078
  895MOL0     O18016   0.002   5.778   0.177  0.2894  0.2102 -0.6504
  895MOL0     C18017  -0.035   5.910   0.136 -0.5838  0.3997  0.4323
  895MOL0     C18018  -0.149   5.921   0.044 -0.2717  0.3064  0.3099
  895MOL0     C18019  -0.285   5.883   0.115  0.1677  0.3406  0.3851
  895MOL0     C18020  -0.397   5.879   0.015 -0.9031 -0.6473  0.5114
  895MOL0     C18021  -0.443   6.019  -0.008 -0.4289 -0.0168  0.9264
  895MOL0     C18022  -0.578   6.026  -0.080  0.9625 -0.2803 -0.2504
  895MOL0     C18023  -0.612   6.166  -0.097  0.8692 -0.0566  0.5028
  895MOL0     C18024  -0.682   6.193  -0.238 -0.8060  0.1682  0.6559
  895MOL0     N18025  -0.751   6.323  -0.257  0.1434  0.6330 -0.6767
  895MOL0     C18026  -0.709   6.439  -0.320  0.2928 -0.0519  0.3085
  895MOL0     C18027  -0.797   6.532  -0.279  0.0043  0.5019 -0.3872
  895MOL0     C18028  -0.794   6.676  -0.320  0.1328  0.4639 -0.1680
  895MOL0     C18029  -0.720   6.770  -0.222  0.1566  0.2918 -0.3606
  895MOL0     C18030  -0.800   6.785  -0.086  0.1792 -0.1511  0.0979
  895MOL0     C18031  -0.752   6.907  -0.007 -0.0602  0.0945 -0.1597
  895MOL0     O18032  -0.788   6.880   0.131  0.7289 -0.5675  0.1894
  895MOL0     C18033  -0.884   6.965   0.192 -0.5348  0.2372 -0.2072
  895MOL0     C18034  -0.955   6.894   0.287  0.1344 -0.6579 -1.0606
  895MOL0     C18035  -1.061   6.953   0.360  0.4266  0.2707 -0.1810
  895MOL0     C18036  -1.100   7.088   0.334 -0.0010 -0.0235 -0.2668
  895MOL0     C18037  -1.206   7.143   0.415 -0.4038  0.3535 -1.6891
  895MOL0     O18038  -1.261   7.055   0.502  0.1923  0.0608 -0.8144
  895MOL0     C18039  -1.386   7.082   0.550  1.3457 -0.3515 -0.8471
  895MOL0     C18040  -1.495   7.115   0.465  0.4682  0.3112  0.3006
  895MOL0     C18041  -1.627   7.138   0.521 -0.3916 -1.1314 -0.3805
  895MOL0     C18042  -1.636   7.136   0.661 -0.0988  0.9074  0.0725
  895MOL0     O18043  -1.757   7.155   0.711 -1.0516 -0.5466  0.1551
  895MOL0     C18044  -1.811   7.070   0.820 -0.3937 -0.3561  0.1692
  895MOL0     C18045  -1.800   6.916   0.806  0.4963 -0.2865 -0.4768
  895MOL0     C18046  -1.875   6.862   0.691  0.3477 -1.2226 -0.1728
  895MOL0     C18047  -1.889   6.717   0.726 -0.3548  1.5540 -0.1110
  895MOL0     C18048  -1.939   6.626   0.618 -0.3937 -0.2214 -0.1970
  895MOL0     C18049  -2.066   6.665   0.541 -0.0528  0.1517  0.4266
  895MOL0     C18050  -2.125   6.559   0.456  0.1445 -0.9088  0.0752
  895MOL0     C18051  -2.028   6.488   0.373  1.1327 -0.0059  0.0500
  895MOL0    Cl18052  -1.918   6.597   0.291 -0.0780  0.1876  0.0337
  895MOL0     C18053  -1.525   7.112   0.744 -0.3931  0.2671  0.3940
  895MOL0     C18054  -1.406   7.077   0.683 -0.3590 -0.2936  0.0360
  895MOL0     O18055  -1.233   7.262   0.403 -0.6459  0.3412  0.0104
  895MOL0     C18056  -1.020   7.161   0.237  0.1729 -0.0253 -0.4451
  895MOL0     C18057  -0.920   7.092   0.156 -0.4438 -0.4665  0.0307
  895MOL0     N18058  -0.893   6.475  -0.202 -0.0161 -0.6811 -0.4322
  895MOL0     N18059  -0.866   6.355  -0.189 -0.6146 -0.3586 -0.0420
  895MOL0     C18060   0.212   5.837   0.290  0.3808  0.6479  0.4372
  895MOL0     C18061   0.339   5.804   0.321 -0.2872 -1.0900 -0.0589
  895MOL0     C18062   0.768   5.706   0.286  0.7163 -0.4545  0.6789
  895MOL0     C18063   0.797   5.571   0.253  0.4345  0.2299  0.2620
  895MOL0     C18064   0.927   5.510   0.266 -0.4393 -0.1000  0.3954
  895MOL0     C18065   1.026   5.600   0.312 -0.2883  0.8307  0.2499
  895MOL0     O18066   1.153   5.536   0.313  0.9230  0.0232  0.1023
  895MOL0     C18067   1.269   5.604   0.362 -0.0154 -0.1302  0.3954
  895MOL0     C18068   1.277   5.611   0.516 -0.3312  1.0214 -0.6313
  895MOL0     C18069   1.396   5.694   0.556 -0.2067 -0.2116  1.0044
  895MOL0     C18070   1.382   5.740   0.702 -0.9019  0.0649  0.4702
  895MOL0     C18071   1.514   5.769   0.750  0.5429 -0.1766  0.1087
  895MOL0     C18072   1.629   5.789   0.786 -0.3188  0.1008  0.6029
  895MOL0     C18073   1.006   5.734   0.340  1.2764 -0.2702  0.3042
  895MOL0     C18074   0.872   5.780   0.338 -0.5136  0.6434  0.0440
  895MOL0     H18075   0.380   5.550   0.095 -1.4550  1.2341 -2.2573
  895MOL0     H18076   0.157   5.598   0.058  1.9370  0.6068 -1.4299
  895MOL0     H18077   0.052   5.944   0.078 -1.8325 -1.6527 -2.9312
  895MOL0     H18078  -0.041   5.987   0.213 -1.0239 -0.4130  1.2145
  895MOL0     H18079  -0.132   5.852  -0.039 -1.3975  0.7445 -0.3064
  895MOL0     H18080  -0.144   6.022   0.003 -1.5477  0.6831  1.0238
  895MOL0     H18081  -0.306   5.959   0.191 -0.8178  1.7221 -1.1899
  895MOL0     H18082  -0.282   5.785   0.164 -3.1771  0.7922  1.7384
  895MOL0     H18083  -0.366   5.840  -0.082 -3.7392  4.4744 -2.8845
  895MOL0     H18084  -0.477   5.814   0.052 -0.6819 -0.8223  0.6944
  895MOL0     H18085  -0.363   6.065  -0.067 -2.2579  1.4576 -0.5620
  895MOL0     H18086  -0.460   6.079   0.082  0.0570  0.6536  0.5783
  895MOL0     H18087  -0.653   5.965  -0.029  1.3559 -1.8543 -1.4665
  895MOL0     H18088  -0.569   5.979  -0.178 -0.4694 -3.6081  1.0299
  895MOL0     H18089  -0.676   6.207  -0.018  3.5371  0.9871  2.2704
  895MOL0     H18090  -0.517   6.219  -0.109  0.3190  0.2937 -4.7817
  895MOL0     H18091  -0.760   6.119  -0.257 -0.1929  0.5287 -5.4429
  895MOL0     H18092  -0.616   6.157  -0.318 -3.4099 -1.5128 -0.9040
  895MOL0     H18093  -0.616   6.451  -0.374  1.0018 -0.7414  1.3407
  895MOL0     H18094  -0.899   6.704  -0.334  0.3601  2.6158  1.8762
  895MOL0     H18095  -0.751   6.692  -0.419 -2.0941 -0.3681 -1.3412
  895MOL0     H18096  -0.719   6.863  -0.279 -0.9226 -1.5265 -3.6758
  895MOL0     H18097  -0.620   6.731  -0.199 -0.3849 -2.3593 -1.9918
  895MOL0     H18098  -0.909   6.797  -0.095 -0.2913  0.9530  4.9100
  895MOL0     H18099  -0.779   6.694  -0.029  0.1771  0.1292  0.5456
  895MOL0     H18100  -0.796   7.001  -0.041 -0.3834  0.0893  0.2367
  895MOL0     H18101  -0.644   6.923  -0.015 -0.1172  0.1956 -0.7941
  895MOL0     H18102  -0.939   6.787   0.297 -1.4754 -1.0104 -1.8886
  895MOL0     H18103  -1.119   6.882   0.419  0.8831 -2.5475 -2.8636
  895MOL0     H18104  -1.477   7.131   0.359 -0.8607 -1.0284 -0.1607
  895MOL0     H18105  -1.719   7.159   0.468 -1.1881 -0.3744  1.2239
  895MOL0     H18106  -1.911   7.108   0.842  0.5060  1.7218  0.9427
  895MOL0     H18107  -1.748   7.092   0.907  0.1802  1.7039 -0.7010
  895MOL0     H18108  -1.832   6.868   0.899  0.2622  2.7123  1.1481
  895MOL0     H18109  -1.696   6.891   0.786 -0.2999 -2.2402 -2.6075
  895MOL0     H18110  -1.826   6.876   0.595 -0.6200 -0.7269 -0.6065
  895MOL0     H18111  -1.976   6.903   0.681  0.8697 -0.1035 -1.1081
  895MOL0     H18112  -1.789   6.683   0.751 -1.9934 -1.5359  3.0899
  895MOL0     H18113  -1.956   6.702   0.811  1.3865  2.7898  1.5807
  895MOL0     H18114  -1.955   6.522   0.648  0.8841 -0.5093 -0.4627
  895MOL0     H18115  -1.863   6.609   0.541 -0.4744  0.1957 -0.3747
  895MOL0     H18116  -2.050   6.743   0.466  1.3156 -1.2310 -0.7948
  895MOL0     H18117  -2.146   6.705   0.604 -1.8150 -0.3041 -1.4075
  895MOL0     H18118  -2.174   6.481   0.515 -0.7651 -0.8319 -0.5527
  895MOL0     H18119  -2.192   6.605   0.382  0.5206 -1.3817 -0.5789
  895MOL0     H18120  -2.084   6.418   0.311 -0.3063 -0.6239  1.9435
  895MOL0     H18121  -1.968   6.414   0.428  1.4912  1.2167  1.3752
  895MOL0     H18122  -1.532   7.092   0.850 -4.2501 -1.9231 -0.0795
  895MOL0     H18123  -1.313   7.057   0.735  0.7440  0.9261 -1.3793
  895MOL0     H18124  -1.042   7.266   0.223 -3.3026  0.1648  4.0355
  895MOL0     H18125  -0.882   7.148   0.071 -1.7841  1.3547  0.5528
  895MOL0     H18126   0.155   5.914   0.341 -1.4122 -0.0472 -0.4375
  895MOL0     H18127   0.372   5.880   0.391 -1.6482 -0.1440 -0.4040
  895MOL0     H18128   0.717   5.507   0.217  0.5586 -0.4233  1.1115
  895MOL0     H18129   0.955   5.406   0.253  3.5862  0.8245  0.2889
  895MOL0     H18130   1.267   5.706   0.322 -1.0629  1.3768  3.9576
  895MOL0     H18131   1.359   5.551   0.332  1.1357  1.3460  1.0958
  895MOL0     H18132   1.190   5.661   0.560  0.9061  1.2205  1.7496
  895MOL0     H18133   1.282   5.510   0.559 -0.9082  0.3895 -1.9871
  895MOL0     H18134   1.396   5.784   0.494  1.3700 -2.3341 -2.4078
  895MOL0     H18135   1.490   5.639   0.540  0.7351  1.9374 -1.3997
  895MOL0     H18136   1.315   5.826   0.712  0.5910  1.1697  1.3738
  895MOL0     H18137   1.340   5.658   0.760  2.8912  0.0078  3.5117
  895MOL0     H18138   1.731   5.796   0.818  0.1610  1.4215 -1.0769
  895MOL0     H18139   1.086   5.803   0.366  0.8609  0.0611  0.7306
  895MOL0     H18140   0.848   5.880   0.374 -2.0180 -0.1520  1.3227
  896MOL0     O18141  10.992   3.187   1.088 -0.0727 -0.3322 -0.6264
  896MOL0     C18142  11.036   3.209   0.980 -0.2277 -1.0751 -0.5351
  896MOL0     O18143  10.965   3.216   0.864  0.3592 -0.0489  0.1351
  896MOL0     C18144  10.830   3.175   0.861 -0.5059  1.1699 -0.0928
  896MOL0     C18145  10.741   3.236   0.768  0.0241 -0.1452 -0.3086
  896MOL0     C18146  10.608   3.192   0.752 -0.6798  1.0086  0.0984
  896MOL0     C18147  10.546   3.090   0.840  0.0253 -1.1732 -0.2847
  896MOL0     O18148  10.425   3.034   0.825  0.2060 -0.0115  0.7216
  896MOL0     C18149  10.329   3.118   0.751  0.2090  0.2635 -0.3181
  896MOL0     C18150  10.193   3.045   0.753 -1.3088 -0.0724  0.2860
  896MOL0     C18151  10.091   3.104   0.661 -0.0278  0.6180  0.1257
  896MOL0     C18152   9.950   3.036   0.700  0.9958  0.0966  0.4626
  896MOL0     C18153   9.848   3.056   0.587 -0.0564 -0.3328  0.2600
  896MOL0     C18154   9.707   2.997   0.630 -1.0611 -0.1782  0.5714
  896MOL0     C18155   9.596   3.035   0.532 -0.0374 -0.3651  0.0074
  896MOL0     C18156   9.462   3.027   0.616  0.3798  0.0340  0.2377
  896MOL0     N18157   9.337   3.079   0.552 -0.0323  0.4001  0.3883
  896MOL0     C18158   9.293   3.040   0.423  1.0352 -0.7065  0.6393
  896MOL0     C18159   9.192   3.136   0.392 -0.6196 -0.5106  0.5654
  896MOL0     C18160   9.117   3.141   0.264 -0.6488  0.1532  0.5201
  896MOL0     C18161   8.982   3.073   0.283  0.2143 -0.0214  0.0448
  896MOL0     C18162   8.991   2.917   0.269 -0.0319  0.0191 -0.7883
  896MOL0     C18163   8.891   2.830   0.350 -0.6148 -0.3324  0.6886
  896MOL0     O18164   8.823   2.746   0.264 -0.0479 -0.7353  0.7864
  896MOL0     C18165   8.706   2.797   0.205  0.2311 -0.2192  0.1457
  896MOL0     C18166   8.644   2.920   0.219  0.0120 -0.7535  0.7385
  896MOL0     C18167   8.534   2.957   0.135 -0.0639  0.1592  0.7911
  896MOL0     C18168   8.476   2.869   0.038 -0.1542  0.8587 -0.8323
  896MOL0     C18169   8.365   2.914  -0.047  0.3037  0.8427  1.4041
  896MOL0     O18170   8.328   3.045  -0.039 -0.8583  0.1592  0.0167
  896MOL0     C18171   8.239   3.102  -0.129 -0.3676 -0.5653 -0.1101
  896MOL0     C18172   8.109   3.051  -0.148  0.7398  1.3808  0.7454
  896MOL0     C18173   8.019   3.105  -0.235  0.1296 -0.9824 -0.1581
  896MOL0     C18174   8.051   3.230  -0.288  0.0298  0.2393 -0.2304
  896MOL0     O18175   7.957   3.284  -0.374 -0.0325 -0.1541  0.0961
  896MOL0     C18176   7.975   3.413  -0.424 -1.5826  0.7546 -0.7755
  896MOL0     C18177   7.880   3.456  -0.538  0.5181  0.0486  0.9218
  896MOL0     C18178   7.734   3.403  -0.508 -0.5090 -0.1701  0.6654
  896MOL0     C18179   7.625   3.452  -0.604  0.6469  1.0867 -0.4355
  896MOL0     C18180   7.572   3.593  -0.587 -0.6757  0.5273 -0.4617
  896MOL0     C18181   7.476   3.594  -0.469  0.1235  0.5526  0.6249
  896MOL0     C18182   7.343   3.530  -0.511  0.1223 -0.7501  0.8771
  896MOL0     C18183   7.223   3.614  -0.450 -0.5214  0.9484  0.1502
  896MOL0    Cl18184   7.085   3.537  -0.521 -0.2772 -0.0308 -0.0788
  896MOL0     C18185   8.168   3.295  -0.248 -1.8710  0.6479 -0.0167
  896MOL0     C18186   8.266   3.226  -0.176  1.1873  0.0670  0.9108
  896MOL0     O18187   8.315   2.825  -0.123  0.2575  0.3214  0.3323
  896MOL0     C18188   8.544   2.746   0.022 -0.1365 -0.2417 -0.1157
  896MOL0     C18189   8.656   2.719   0.102  0.1622  0.0224 -0.8094
  896MOL0     N18190   9.185   3.227   0.501  0.6735 -0.4057  0.7367
  896MOL0     N18191   9.287   3.201   0.583  0.4907 -0.1828  0.6635
  896MOL0     C18192  10.631   3.033   0.933 -0.0119 -0.3233 -1.0752
  896MOL0     C18193  10.771   3.070   0.946 -0.4314 -0.5988  0.4896
  896MOL0     C18194  11.177   3.253   0.959  0.0128  0.7498 -1.1607
  896MOL0     C18195  11.257   3.263   1.075 -0.2279 -0.2997  0.3668
  896MOL0     C18196  11.397   3.270   1.069  0.9403 -0.1320  0.1607
  896MOL0     C18197  11.462   3.283   0.945 -0.1683  0.0858 -0.0768
  896MOL0     O18198  11.593   3.308   0.922  0.2174 -0.1934 -0.0420
  896MOL0     C18199  11.695   3.276   1.012 -1.0679 -0.4540 -0.3387
  896MOL0     C18200  11.829   3.331   0.967  0.0334  0.0775 -1.1886
  896MOL0     C18201  11.842   3.480   0.930  0.4075  0.1276 -0.3151
  896MOL0     C18202  11.981   3.534   0.915 -1.0838  0.7525  0.6193
  896MOL0     C18203  12.060   3.502   1.034  0.3005 -0.1755 -0.1024
  896MOL0     C18204  12.116   3.468   1.132 -0.0145  0.6994 -0.7788
  896MOL0     C18205  11.387   3.283   0.831 -0.2688  0.6534 -0.5585
  896MOL0     C18206  11.245   3.263   0.842 -0.9367  0.1157  1.1457
  896MOL0     H18207  10.784   3.303   0.694  0.8311 -0.1531  0.1363
  896MOL0     H18208  10.552   3.221   0.664 -1.0087 -2.0695 -0.8480
  896MOL0     H18209  10.349   3.130   0.645  1.1848  0.5312 -0.1078
  896MOL0     H18210  10.311   3.214   0.801 -1.9732 -0.1509 -0.2093
  896MOL0     H18211  10.144   3.042   0.851 -2.4797  2.5619 -0.1577
  896MOL0     H18212  10.217   2.943   0.719 -1.3036  0.7348 -2.3403
  896MOL0     H18213  10.107   3.093   0.554 -3.4147 -3.2808 -0.2526
  896MOL0     H18214  10.079   3.211   0.676  1.0334  0.7104  0.3891
  896MOL0     H18215   9.964   2.929   0.719  2.1957 -0.2600 -2.0255
  896MOL0     H18216   9.907   3.066   0.796  0.2657 -1.9621  0.8333
  896MOL0     H18217   9.884   3.010   0.495 -1.7852  0.2243 -0.7421
  896MOL0     H18218   9.825   3.162   0.574 -1.8774 -0.4314  2.0540
  896MOL0     H18219   9.686   3.037   0.730 -0.6574  0.4762  0.3999
  896MOL0     H18220   9.718   2.888   0.633  1.9040  0.0633  2.3324
  896MOL0     H18221   9.607   3.141   0.510 -0.3713  0.2155  2.4061
  896MOL0     H18222   9.610   2.975   0.442  0.3101 -1.8604  1.0119
  896MOL0     H18223   9.474   3.084   0.709  4.3040  1.3091 -0.8470
  896MOL0     H18224   9.444   2.926   0.653 -1.0592  0.6738  1.3873
  896MOL0     H18225   9.326   2.975   0.343 -0.8334 -0.2524 -0.5685
  896MOL0     H18226   9.174   3.088   0.187 -0.7894  1.0485 -0.2232
  896MOL0     H18227   9.086   3.240   0.229 -1.0602  0.8814  2.7536
  896MOL0     H18228   8.899   3.105   0.220 -1.8321 -3.5208  0.7197
  896MOL0     H18229   8.956   3.091   0.387 -0.7575  2.0422 -0.4958
  896MOL0     H18230   8.998   2.896   0.162  2.0220  0.7843 -0.8455
  896MOL0     H18231   9.091   2.884   0.299 -0.4904  0.4422  1.3889
  896MOL0     H18232   8.828   2.883   0.422 -1.7619  0.3006 -0.7361
  896MOL0     H18233   8.953   2.762   0.409  0.1673 -0.7706 -0.6158
  896MOL0     H18234   8.690   2.987   0.291 -1.1727 -1.1915  1.9414
  896MOL0     H18235   8.497   3.054   0.167  2.4488  1.7725 -0.8078
  896MOL0     H18236   8.092   2.952  -0.106  4.7581  0.1044 -0.2288
  896MOL0     H18237   7.921   3.063  -0.255  0.2904 -2.5780  2.0675
  896MOL0     H18238   8.082   3.416  -0.442 -0.7712  0.6251  3.1363
  896MOL0     H18239   7.945   3.480  -0.343 -0.5535 -0.5213  0.7228
  896MOL0     H18240   7.899   3.407  -0.634 -0.4181 -2.5197  1.9706
  896MOL0     H18241   7.882   3.566  -0.544  3.7484  0.1598  1.9243
  896MOL0     H18242   7.712   3.420  -0.402 -1.2214  0.2851  0.4461
  896MOL0     H18243   7.761   3.298  -0.527 -0.8167  0.4333 -4.3023
  896MOL0     H18244   7.664   3.448  -0.706 -3.8390  0.0815 -2.3362
  896MOL0     H18245   7.548   3.374  -0.605  0.7802  0.9598 -1.0948
  896MOL0     H18246   7.535   3.642  -0.677 -0.5103  0.6104 -0.4855
  896MOL0     H18247   7.656   3.657  -0.558  0.4178 -0.3587 -1.5348
  896MOL0     H18248   7.475   3.695  -0.426  2.2631 -0.8760  4.5268
  896MOL0     H18249   7.520   3.527  -0.395  2.3615 -0.0382 -1.1022
  896MOL0     H18250   7.347   3.515  -0.619 -0.8838 -1.5677  0.9364
  896MOL0     H18251   7.338   3.423  -0.488 -0.9070 -0.8830  0.1234
  896MOL0     H18252   7.243   3.721  -0.454 -1.8921  1.2564  0.8790
  896MOL0     H18253   7.223   3.589  -0.343  0.0166 -0.1305 -0.0843
  896MOL0     H18254   8.213   3.385  -0.288  0.4615 -0.9618 -1.3018
  896MOL0     H18255   8.363   3.265  -0.146  0.3909  2.1233  1.0292
  896MOL0     H18256   8.510   2.682  -0.060  0.6732 -1.7440  0.6808
  896MOL0     H18257   8.699   2.620   0.090 -2.0618 -1.4803  2.2009
  896MOL0     H18258  10.588   2.950   0.986 -2.9742  1.2254 -0.8369
  896MOL0     H18259  10.821   3.011   1.022 -0.8596 -1.5560  0.0511
  896MOL0     H18260  11.198   3.279   1.165 -0.6179 -1.6415  0.3618
  896MOL0     H18261  11.449   3.284   1.164  1.0670 -2.0504  0.4273
  896MOL0     H18262  11.698   3.167   1.024  1.5780 -0.1187  3.4377
  896MOL0     H18263  11.679   3.308   1.115  3.7969  0.9873  0.1940
  896MOL0     H18264  11.910   3.313   1.038  0.0887  3.2525 -0.2802
  896MOL0     H18265  11.844   3.276   0.873 -3.3033 -0.7702 -1.3663
  896MOL0     H18266  11.792   3.539   1.007 -0.1039  0.0854 -0.6052
  896MOL0     H18267  11.790   3.507   0.837  2.3327  2.2644 -0.8629
  896MOL0     H18268  12.037   3.487   0.833  1.1348  2.4167  1.0889
  896MOL0     H18269  11.966   3.641   0.902 -0.7268  0.5958 -1.4994
  896MOL0     H18270  12.155   3.442   1.228 -0.4737  1.0166 -0.5061
  896MOL0     H18271  11.438   3.301   0.737  1.4030  0.4255  0.2687
  896MOL0     H18272  11.182   3.271   0.754 -0.3519 -1.4920  0.5403
  897MOL0     O18273   6.671   4.511   1.215 -1.0251  0.6356 -0.5226
  897MOL0     C18274   6.734   4.423   1.156 -0.0442  0.2473 -0.3328
  897MOL0     O18275   6.691   4.293   1.134 -0.3881  0.1708 -0.4491
  897MOL0     C18276   6.566   4.257   1.194 -0.1568 -0.1980 -0.0208
  897MOL0     C18277   6.455   4.320   1.146 -0.1520 -0.8560 -0.0663
  897MOL0     C18278   6.335   4.311   1.208 -0.0820 -0.1504  0.5043
  897MOL0     C18279   6.319   4.247   1.337 -1.2037  0.4929  0.3996
  897MOL0     O18280   6.195   4.251   1.383 -0.2591  0.6377 -0.0329
  897MOL0     C18281   6.167   4.186   1.508  0.3238 -0.3508 -0.0356
  897MOL0     C18282   6.022   4.234   1.543 -0.3080 -0.2284  0.2896
  897MOL0     C18283   5.913   4.138   1.497  0.0557 -0.0883  0.3320
  897MOL0     C18284   5.760   4.170   1.504  0.4306  0.1030  0.3680
  897MOL0     C18285   5.707   4.137   1.646 -0.5373 -0.8106  1.3860
  897MOL0     C18286   5.580   4.212   1.689  0.1046  0.1099  0.0873
  897MOL0     C18287   5.442   4.166   1.622 -0.2631  0.6705 -0.3126
  897MOL0     C18288   5.426   4.216   1.475 -1.1332  0.2834  0.0487
  897MOL0     N18289   5.295   4.152   1.417  0.2154 -0.2218 -0.4845
  897MOL0     C18290   5.298   4.033   1.345  1.0624 -0.4380  0.0081
  897MOL0     C18291   5.166   4.022   1.297  0.0350 -0.0288  0.3608
  897MOL0     C18292   5.089   3.912   1.227  0.2346 -0.3670 -0.1097
  897MOL0     C18293   4.938   3.906   1.238  0.1578  0.8015  0.1266
  897MOL0     C18294   4.887   4.013   1.132 -0.1780  0.1208  0.6433
  897MOL0     C18295   4.764   4.081   1.172 -0.2533 -0.2357 -0.4672
  897MOL0     O18296   4.714   4.169   1.068  0.2380  0.2549  0.4304
  897MOL0     C18297   4.598   4.233   1.094 -0.1341  0.2466  0.2492
  897MOL0     C18298   4.511   4.210   1.200 -0.0496 -0.0042 -0.0544
  897MOL0     C18299   4.378   4.264   1.202 -0.7899  0.2815 -0.4629
  897MOL0     C18300   4.343   4.350   1.102 -0.4832 -0.0711  0.6785
  897MOL0     C18301   4.208   4.397   1.097  0.2353  0.2657  0.0360
  897MOL0     O18302   4.175   4.511   1.025  0.0540 -0.1239 -0.1654
  897MOL0     C18303   4.042   4.556   1.038  0.2614  0.2676  0.4320
  897MOL0     C18304   4.002   4.623   0.921  0.1776 -0.1012 -0.2758
  897MOL0     C18305   3.875   4.681   0.912 -0.8241 -0.0781  0.3337
  897MOL0     C18306   3.790   4.676   1.018  0.5990 -0.2804  0.6240
  897MOL0     O18307   3.659   4.719   0.990 -0.1364  0.1882  0.6389
  897MOL0     C18308   3.555   4.670   1.083 -0.1148 -0.3545  0.1759
  897MOL0     C18309   3.421   4.734   1.038 -0.4448 -0.8260 -0.9577
  897MOL0     C18310   3.309   4.669   1.123 -0.5063 -0.5532  0.7551
  897MOL0     C18311   3.177   4.709   1.057  0.2718 -0.3153  0.6866
  897MOL0     C18312   3.134   4.853   1.107 -0.1329  0.3777  0.4279
  897MOL0     C18313   3.009   4.904   1.044  0.8794 -0.2916  0.2696
  897MOL0     C18314   2.977   5.032   1.130 -0.2521 -0.2315  0.0245
  897MOL0     C18315   2.846   5.081   1.058  0.1406  0.1826 -0.4161
  897MOL0    Cl18316   2.696   4.998   1.101  0.2628 -0.2940  0.6153
  897MOL0     C18317   3.829   4.618   1.140  0.0377 -0.0761 -0.4635
  897MOL0     C18318   3.952   4.552   1.147 -0.5650 -0.1050  1.1082
  897MOL0     O18319   4.129   4.325   1.152 -0.1233 -0.1109 -0.9379
  897MOL0     C18320   4.434   4.392   1.003 -0.3363 -0.1667  0.2631
  897MOL0     C18321   4.559   4.328   0.999 -0.3552 -0.1341  0.6863
  897MOL0     N18322   5.096   4.129   1.362  0.0994  0.1738  0.5987
  897MOL0     N18323   5.174   4.203   1.431  0.6935 -0.0299 -1.2628
  897MOL0     C18324   6.436   4.189   1.391 -0.3022 -0.7401 -0.2200
  897MOL0     C18325   6.555   4.191   1.319  0.7991  0.8436 -0.4673
  897MOL0     C18326   6.874   4.453   1.122 -1.5041  0.4626  0.5564
  897MOL0     C18327   6.962   4.348   1.093 -0.4855 -0.6256 -0.0978
  897MOL0     C18328   7.100   4.378   1.066 -0.5197 -0.0290 -0.7936
  897MOL0     C18329   7.148   4.510   1.066 -0.2848  0.7574  0.8724
  897MOL0     O18330   7.283   4.529   1.052  0.0470  0.1630 -0.3811
  897MOL0     C18331   7.333   4.664   1.075  0.4517  0.4339 -0.0166
  897MOL0     C18332   7.485   4.641   1.099  0.3149 -0.5101  0.3646
  897MOL0     C18333   7.561   4.658   0.972  0.0494  0.7258  0.0463
  897MOL0     C18334   7.712   4.645   0.981 -0.9369  0.5891 -0.4161
  897MOL0     C18335   7.778   4.520   1.021  0.5242  0.9758 -0.0958
  897MOL0     C18336   7.825   4.413   1.065  0.1337  0.0521  0.4742
  897MOL0     C18337   7.057   4.616   1.090 -0.3309 -0.0503  0.5472
  897MOL0     C18338   6.925   4.582   1.119  0.0682 -0.0424  0.5741
  897MOL0     H18339   6.459   4.387   1.061  0.0721 -1.2856 -0.3979
  897MOL0     H18340   6.255   4.369   1.164 -0.6854 -0.1768  1.5342
  897MOL0     H18341   6.235   4.229   1.582  1.2152 -1.0337 -0.4229
  897MOL0     H18342   6.180   4.077   1.502  2.4524 -0.1654  0.2583
  897MOL0     H18343   6.001   4.326   1.488  3.9391  2.7904  3.0688
  897MOL0     H18344   6.011   4.266   1.647  0.0922  2.8465 -0.5315
  897MOL0     H18345   5.948   4.042   1.536  1.8728  1.9096  4.2318
  897MOL0     H18346   5.927   4.142   1.389 -1.7513 -0.2171  0.0574
  897MOL0     H18347   5.745   4.272   1.468 -1.4618  0.3881  1.8089
  897MOL0     H18348   5.714   4.105   1.429 -2.3024  1.2856  0.9046
  897MOL0     H18349   5.777   4.167   1.724  0.3900 -0.6049  0.4872
  897MOL0     H18350   5.692   4.029   1.656  0.0651 -1.5902 -3.5154
  897MOL0     H18351   5.591   4.317   1.658 -3.8275  0.9886  1.0963
  897MOL0     H18352   5.567   4.222   1.797  1.1998  0.5503  0.1933
  897MOL0     H18353   5.430   4.057   1.616  0.6851  0.6222 -2.1830
  897MOL0     H18354   5.353   4.198   1.677  0.8212 -1.4731  2.9833
  897MOL0     H18355   5.513   4.175   1.424 -2.1375  0.1386 -1.6265
  897MOL0     H18356   5.433   4.325   1.473  0.6554  0.1892 -1.8913
  897MOL0     H18357   5.374   3.956   1.344 -1.5373 -3.2483  1.3348
  897MOL0     H18358   5.123   3.820   1.275 -0.4466  1.0828  3.4477
  897MOL0     H18359   5.129   3.905   1.125  2.9088 -0.4366  0.8503
  897MOL0     H18360   4.908   3.927   1.341 -1.6549  0.3625 -0.2718
  897MOL0     H18361   4.905   3.808   1.204  0.1761  1.5006 -2.0780
  897MOL0     H18362   4.968   4.084   1.112  0.6116 -0.8173  0.4459
  897MOL0     H18363   4.867   3.957   1.040  1.0914 -1.1575  1.1081
  897MOL0     H18364   4.783   4.142   1.261  2.3331 -0.0237 -1.0925
  897MOL0     H18365   4.684   4.009   1.191 -1.2829  0.1792 -2.8283
  897MOL0     H18366   4.548   4.153   1.285  0.0782 -1.3471 -0.9755
  897MOL0     H18367   4.318   4.246   1.290 -0.5376  3.3193  0.4544
  897MOL0     H18368   4.071   4.622   0.837 -0.9474 -1.8713 -1.2356
  897MOL0     H18369   3.852   4.723   0.815 -0.5681 -2.0612 -0.6390
  897MOL0     H18370   3.592   4.704   1.180  2.3169 -2.0436 -0.0603
  897MOL0     H18371   3.543   4.562   1.089 -0.6318 -0.2256  2.4081
  897MOL0     H18372   3.405   4.691   0.939 -2.9952  0.3827 -1.1200
  897MOL0     H18373   3.424   4.843   1.038  4.9941 -0.5819  1.8189
  897MOL0     H18374   3.307   4.705   1.226 -1.6534  0.3369  0.4336
  897MOL0     H18375   3.315   4.559   1.124 -1.3007 -0.6440 -1.4330
  897MOL0     H18376   3.189   4.697   0.949 -0.3293 -0.3872  0.6262
  897MOL0     H18377   3.103   4.634   1.084  0.7665 -0.1820  2.6569
  897MOL0     H18378   3.205   4.935   1.094 -1.6546  1.5311 -1.1469
  897MOL0     H18379   3.114   4.838   1.214 -1.6679  0.3795  0.1685
  897MOL0     H18380   2.922   4.838   1.051 -2.2612  3.3630 -0.4521
  897MOL0     H18381   3.031   4.934   0.941  2.3965  1.6543  1.1074
  897MOL0     H18382   2.977   5.006   1.236  2.5970  0.7197  0.3528
  897MOL0     H18383   3.050   5.114   1.124 -1.3982  1.0101  1.7125
  897MOL0     H18384   2.865   5.060   0.952  1.8007 -3.4957  0.4392
  897MOL0     H18385   2.837   5.186   1.086  1.7760  0.1820  0.1712
  897MOL0     H18386   3.759   4.596   1.220  1.1184 -0.5382  0.3744
  897MOL0     H18387   3.973   4.487   1.231  2.4665 -2.0776 -0.9371
  897MOL0     H18388   4.407   4.464   0.926 -1.7204  0.8890  1.6655
  897MOL0     H18389   4.625   4.360   0.920 -1.9610  1.0580 -0.2237
  897MOL0     H18390   6.438   4.149   1.492 -4.2178  0.6038  0.5996
  897MOL0     H18391   6.641   4.144   1.366 -0.3942 -1.3501 -0.3280
  897MOL0     H18392   6.929   4.244   1.102  3.6821 -2.3402 -2.1568
  897MOL0     H18393   7.171   4.301   1.037  2.0260  2.4584 -1.6327
  897MOL0     H18394   7.293   4.716   1.162 -0.1416 -0.8754  0.5295
  897MOL0     H18395   7.312   4.722   0.985 -2.1232  0.7685  0.7352
  897MOL0     H18396   7.515   4.710   1.179  1.4104 -0.6286  0.0662
  897MOL0     H18397   7.500   4.539   1.136  0.3349 -0.7036 -0.1724
  897MOL0     H18398   7.545   4.758   0.930  2.2282  0.9259 -0.4028
  897MOL0     H18399   7.537   4.578   0.901  0.3196 -1.3240  2.1393
  897MOL0     H18400   7.740   4.659   0.876 -4.4290  2.2183 -1.2684
  897MOL0     H18401   7.740   4.734   1.037 -0.5549  0.4589 -0.3959
  897MOL0     H18402   7.859   4.318   1.100 -2.1331 -0.9093  0.1623
  897MOL0     H18403   7.080   4.721   1.105 -0.0576 -0.2438  1.6179
  897MOL0     H18404   6.868   4.673   1.138  3.2109  2.3278 -0.4168
  898MOL0     O18405   1.063   9.337  11.154  0.3261  0.2879 -0.6126
  898MOL0     C18406   1.048   9.235  11.221 -0.4520  0.2407 -0.1258
  898MOL0     O18407   0.934   9.177  11.255 -0.4804 -0.0287 -0.8956
  898MOL0     C18408   0.815   9.245  11.233  0.3549  1.2793  0.4926
  898MOL0     C18409   0.699   9.166  11.212  0.5725  0.1072  0.4727
  898MOL0     C18410   0.580   9.224  11.181  0.9345  0.0562 -0.1360
  898MOL0     C18411   0.562   9.364  11.195  0.4618  0.4504  0.3849
  898MOL0     O18412   0.443   9.430  11.168 -0.3375  0.4541 -0.2114
  898MOL0     C18413   0.326   9.353  11.146 -0.0317 -0.0105 -0.2979
  898MOL0     C18414   0.229   9.453  11.094  0.0524  0.0938 -0.0932
  898MOL0     C18415   0.089   9.447  11.164  0.3046 -0.0046 -0.3957
  898MOL0     C18416   0.092   9.494  11.313  0.7579 -0.1669 -0.0930
  898MOL0     C18417  -0.044   9.450  11.376 -0.0216 -0.3447 -0.4839
  898MOL0     C18418  -0.044   9.494  11.527  0.5336 -1.2649  0.6083
  898MOL0     C18419  -0.182   9.510  11.575  0.0480 -0.6898 -0.1034
  898MOL0     C18420  -0.244   9.376  11.603 -0.2142 -0.1436 -0.4627
  898MOL0     N18421  -0.328   9.316  11.496  0.4272  0.0188  0.2286
  898MOL0     C18422  -0.462   9.304  11.492  1.0999 -0.7042  0.3603
  898MOL0     C18423  -0.489   9.254  11.371 -0.7386 -0.1290  0.4088
  898MOL0     C18424  -0.623   9.213  11.312  0.3737 -0.2494 -0.5770
  898MOL0     C18425  -0.655   9.058  11.330  0.2130  0.4661  0.1683
  898MOL0     C18426  -0.761   9.001  11.230  0.9456 -0.6857  0.6838
  898MOL0     C18427  -0.905   9.072  11.239 -1.2684  0.5019  0.4453
  898MOL0     O18428  -0.959   9.061  11.369 -0.0462 -0.4205  0.1499
  898MOL0     C18429  -1.078   8.995  11.405  0.0771 -1.6043 -0.1367
  898MOL0     C18430  -1.153   8.913  11.328  1.1182 -0.2014  0.1840
  898MOL0     C18431  -1.287   8.876  11.364  0.1813 -0.4226 -0.1077
  898MOL0     C18432  -1.347   8.922  11.485  0.3798 -0.0279  0.6253
  898MOL0     C18433  -1.481   8.889  11.530 -0.1882  0.9987  0.5125
  898MOL0     O18434  -1.523   8.924  11.661 -0.1416 -0.6057  0.9180
  898MOL0     C18435  -1.648   8.891  11.694  0.1157 -0.6611  0.4888
  898MOL0     C18436  -1.717   8.986  11.772  0.9258 -1.4067  0.0853
  898MOL0     C18437  -1.851   8.968  11.804 -0.7387  0.5786 -0.9714
  898MOL0     C18438  -1.915   8.845  11.788 -0.4437 -0.1244 -0.5280
  898MOL0     O18439  -2.033   8.805  11.839 -0.0838 -0.3028  0.3780
  898MOL0     C18440  -2.121   8.906  11.889  0.0471 -0.1854 -0.1937
  898MOL0     C18441  -2.255   8.839  11.897  0.3654 -0.7049 -0.7231
  898MOL0     C18442  -2.301   8.810  11.759  0.6491  0.0690  0.5083
  898MOL0     C18443  -2.431   8.733  11.784  0.1641 -0.4067 -0.2738
  898MOL0     C18444  -2.509   8.712  11.654 -0.8206 -1.3833  0.7894
  898MOL0     C18445  -2.659   8.679  11.667 -0.3287 -0.0995  1.2586
  898MOL0     C18446  -2.711   8.648  11.524  0.8406 -0.4981 -0.0847
  898MOL0     C18447  -2.848   8.588  11.539 -0.2482 -0.0132 -0.0524
  898MOL0    Cl18448  -2.984   8.690  11.605  0.7135 -0.1502 -0.2451
  898MOL0     C18449  -1.844   8.754  11.711  0.0056  0.5539  0.5971
  898MOL0     C18450  -1.716   8.777  11.663  0.3905  0.8023  0.2833
  898MOL0     O18451  -1.547   8.831  11.444  0.5768 -0.3666  0.3305
  898MOL0     C18452  -1.268   8.999  11.564 -1.0363  0.0959 -0.0884
  898MOL0     C18453  -1.137   9.031  11.525  0.4523  1.3662 -0.3006
  898MOL0     N18454  -0.367   9.212  11.315 -0.2349  0.4490  0.3763
  898MOL0     N18455  -0.272   9.245  11.401 -0.0007 -1.2141  0.5398
  898MOL0     C18456   0.666   9.444  11.234 -0.7243 -0.4741 -0.1380
  898MOL0     C18457   0.797   9.382  11.244  0.4300  0.5888 -0.1350
  898MOL0     C18458   1.172   9.165  11.266  0.0064  0.0298  0.9206
  898MOL0     C18459   1.161   9.035  11.321 -0.7725 -0.0255  0.8847
  898MOL0     C18460   1.280   8.984  11.373 -0.2590 -0.0621  0.5373
  898MOL0     C18461   1.415   9.031  11.366 -0.0998  0.1427  0.8029
  898MOL0     O18462   1.519   8.983  11.423 -0.6777  0.0398  0.1934
  898MOL0     C18463   1.515   8.987  11.571 -0.2739  0.2656 -0.6455
  898MOL0     C18464   1.600   9.109  11.605 -0.0653  0.0744 -0.1577
  898MOL0     C18465   1.613   9.122  11.756 -0.3895  0.1102 -0.6589
  898MOL0     C18466   1.692   9.245  11.806 -0.4084 -0.1375  0.4563
  898MOL0     C18467   1.830   9.266  11.758  0.3952 -0.1080 -0.3163
  898MOL0     C18468   1.937   9.266  11.708  0.0308 -0.2550  0.0643
  898MOL0     C18469   1.426   9.152  11.293  0.8277  0.0473 -0.4323
  898MOL0     C18470   1.307   9.216  11.247 -0.2969  0.3267 -0.3156
  898MOL0     H18471   0.706   9.058  11.206  5.4188  0.2219 -0.5000
  898MOL0     H18472   0.498   9.153  11.171  1.0648  0.2206 -3.2781
  898MOL0     H18473   0.299   9.293  11.233 -1.1787  1.7824  0.6199
  898MOL0     H18474   0.343   9.288  11.059  0.3807  0.7582 -0.8044
  898MOL0     H18475   0.220   9.445  10.985 -1.3048 -3.1074  0.1219
  898MOL0     H18476   0.262   9.554  11.119 -0.5292 -0.2054  2.1050
  898MOL0     H18477   0.054   9.345  11.146  1.1513 -0.0721 -1.8095
  898MOL0     H18478   0.014   9.510  11.116 -0.8915 -3.1804 -3.0934
  898MOL0     H18479   0.157   9.440  11.382 -4.3874 -3.4613  2.8685
  898MOL0     H18480   0.105   9.602  11.314  0.0352 -0.0320 -1.6318
  898MOL0     H18481  -0.050   9.342  11.360 -0.5707 -0.0189 -2.8996
  898MOL0     H18482  -0.128   9.495  11.322  1.2474 -0.1491 -2.4063
  898MOL0     H18483   0.012   9.588  11.540  1.2799 -1.6091 -0.0058
  898MOL0     H18484   0.016   9.422  11.583  2.1818  0.9385  1.8352
  898MOL0     H18485  -0.178   9.557  11.674 -1.6713 -0.1201 -0.2768
  898MOL0     H18486  -0.233   9.572  11.501 -1.5940 -1.3897  0.3860
  898MOL0     H18487  -0.297   9.390  11.697  2.6882  0.6190  1.1708
  898MOL0     H18488  -0.172   9.298  11.631  0.0782  0.2302 -0.1653
  898MOL0     H18489  -0.516   9.348  11.575  4.6259  3.0413  0.9747
  898MOL0     H18490  -0.617   9.235  11.205 -0.3138 -0.7536 -0.7300
  898MOL0     H18491  -0.693   9.280  11.363  0.5432  0.7937 -1.6777
  898MOL0     H18492  -0.676   9.022  11.431 -3.8073 -1.4787 -1.1533
  898MOL0     H18493  -0.565   9.007  11.292 -1.1626  0.6007 -3.7288
  898MOL0     H18494  -0.723   9.000  11.127  0.5593  0.6033  0.5021
  898MOL0     H18495  -0.769   8.896  11.258  1.6087 -1.3656 -1.5110
  898MOL0     H18496  -0.961   9.011  11.167  0.3921 -2.1069  1.2121
  898MOL0     H18497  -0.918   9.178  11.214 -3.5331  0.8364  2.7067
  898MOL0     H18498  -1.115   8.873  11.235  0.2180  2.0119 -1.2042
  898MOL0     H18499  -1.345   8.809  11.300 -1.4524  1.6912 -0.9699
  898MOL0     H18500  -1.659   9.069  11.809 -0.8344 -0.5283  0.9958
  898MOL0     H18501  -1.881   9.043  11.876  0.2466 -0.2545  0.3622
  898MOL0     H18502  -2.127   8.987  11.816  0.8575  0.3296  0.2989
  898MOL0     H18503  -2.089   8.947  11.985  0.3868  2.0657 -1.1985
  898MOL0     H18504  -2.326   8.908  11.945 -0.5975 -0.2530 -2.7106
  898MOL0     H18505  -2.241   8.744  11.950 -1.9913 -2.2664 -2.6893
  898MOL0     H18506  -2.220   8.751  11.715  2.8334  4.1082 -1.4861
  898MOL0     H18507  -2.316   8.900  11.697  0.2146 -0.1843  0.2380
  898MOL0     H18508  -2.410   8.638  11.835 -0.5217 -2.0646 -2.8632
  898MOL0     H18509  -2.500   8.791  11.847 -0.1999  1.1530 -2.0478
  898MOL0     H18510  -2.454   8.630  11.608  2.5694 -0.1019  2.2571
  898MOL0     H18511  -2.497   8.802  11.592  3.1150 -2.0221  0.3900
  898MOL0     H18512  -2.717   8.763  11.706 -0.9242  2.1335 -3.6767
  898MOL0     H18513  -2.659   8.584  11.722 -2.0737 -0.8736  0.0045
  898MOL0     H18514  -2.737   8.734  11.462 -1.3546 -0.7513  0.3982
  898MOL0     H18515  -2.646   8.582  11.466 -0.1514  2.2201 -4.7108
  898MOL0     H18516  -2.846   8.492  11.592  1.7113 -0.8439 -1.5143
  898MOL0     H18517  -2.875   8.557  11.438  0.5561  3.2378 -1.3636
  898MOL0     H18518  -1.902   8.667  11.683  2.1490 -0.4849 -0.9193
  898MOL0     H18519  -1.681   8.698  11.597 -2.3878  1.3391 -2.0368
  898MOL0     H18520  -1.294   9.044  11.659 -3.0428  2.0312 -1.4285
  898MOL0     H18521  -1.081   9.086  11.600  1.0143  2.9626 -1.8075
  898MOL0     H18522   0.650   9.549  11.254  2.9360  0.4506 -1.2996
  898MOL0     H18523   0.884   9.439  11.272  0.6714  1.7139 -2.8234
  898MOL0     H18524   1.069   8.978  11.333 -1.5810  1.3053  1.2804
  898MOL0     H18525   1.267   8.884  11.414 -0.5329 -0.9867 -1.6673
  898MOL0     H18526   1.549   8.897  11.622 -0.9414 -0.0039 -0.6575
  898MOL0     H18527   1.410   9.006  11.598 -0.4895  1.8430 -2.3535
  898MOL0     H18528   1.700   9.097  11.562 -1.2935 -2.1521 -2.7063
  898MOL0     H18529   1.558   9.192  11.547  1.1812  1.7636  1.2679
  898MOL0     H18530   1.658   9.034  11.803  1.8373  1.8012  0.5960
  898MOL0     H18531   1.514   9.141  11.798  0.3380  4.6322 -0.4814
  898MOL0     H18532   1.634   9.333  11.776 -2.8816 -0.7182  3.1020
  898MOL0     H18533   1.690   9.248  11.916  1.3261 -0.6239  0.5281
  898MOL0     H18534   2.037   9.270  11.669  0.1536 -1.9325  0.1374
  898MOL0     H18535   1.525   9.197  11.294  0.4557  0.9472  1.2644
  898MOL0     H18536   1.311   9.311  11.195  0.1276  0.9326  0.8037
  899MOL0     O18537   9.462   0.671   8.762 -0.1682 -0.0733  0.1503
  899MOL0     C18538   9.455   0.556   8.802 -0.0798 -0.2401  0.4138
  899MOL0     O18539   9.389   0.517   8.913 -1.2081  0.7135 -0.3977
  899MOL0     C18540   9.312   0.596   9.001 -0.3726 -0.6070 -0.2124
  899MOL0     C18541   9.286   0.546   9.133 -0.1465  0.3056  1.4185
  899MOL0     C18542   9.185   0.597   9.212  0.1849 -0.4724  0.0527
  899MOL0     C18543   9.117   0.712   9.176 -0.8660 -0.4743  0.9690
  899MOL0     O18544   9.017   0.750   9.253  0.1512  0.3325  0.6311
  899MOL0     C18545   8.909   0.840   9.207 -0.2184  0.1775  0.2474
  899MOL0     C18546   8.785   0.785   9.267  0.4613 -0.6298 -1.1605
  899MOL0     C18547   8.658   0.853   9.214  0.5600  0.1957 -0.3270
  899MOL0     C18548   8.528   0.808   9.289  0.5079  0.2534  0.2166
  899MOL0     C18549   8.406   0.903   9.270 -0.0240 -0.3588  0.3765
  899MOL0     C18550   8.356   0.917   9.125 -0.8951  0.0745 -0.5336
  899MOL0     C18551   8.290   0.792   9.075 -0.3183  0.6372 -0.0239
  899MOL0     C18552   8.155   0.771   9.150  0.0844 -0.0004  0.3110
  899MOL0     N18553   8.051   0.725   9.065 -0.1420  0.0947  0.1340
  899MOL0     C18554   7.980   0.796   8.969  0.1064  0.2884 -0.0573
  899MOL0     C18555   7.898   0.701   8.912  0.0553 -0.0811 -1.0218
  899MOL0     C18556   7.803   0.725   8.798 -0.2464 -0.1813 -0.2461
  899MOL0     C18557   7.742   0.871   8.789  0.7818  0.5028  0.3543
  899MOL0     C18558   7.691   0.896   8.650  0.1524 -0.0678 -0.5265
  899MOL0     C18559   7.797   0.934   8.535  1.5169  0.2795  0.4255
  899MOL0     O18560   7.723   1.013   8.439 -0.1165 -0.5526  0.0591
  899MOL0     C18561   7.766   1.141   8.425 -0.5310 -1.2359 -0.1001
  899MOL0     C18562   7.809   1.188   8.310 -0.1864  0.7727  0.6953
  899MOL0     C18563   7.862   1.321   8.292  0.4579  0.4223  0.3257
  899MOL0     C18564   7.865   1.406   8.401  0.4102  0.4268 -0.5000
  899MOL0     C18565   7.942   1.531   8.409 -0.5347 -0.2679  0.5249
  899MOL0     O18566   8.049   1.550   8.319 -0.2117 -0.1718  0.0739
  899MOL0     C18567   8.161   1.620   8.355  0.0437 -0.3933 -0.0220
  899MOL0     C18568   8.137   1.743   8.416 -0.1016 -0.1042  0.3762
  899MOL0     C18569   8.244   1.819   8.471  0.3981 -0.0295  0.9652
  899MOL0     C18570   8.378   1.778   8.439  0.1464 -0.2207 -0.2585
  899MOL0     O18571   8.488   1.849   8.490 -0.3932 -0.2464 -0.2162
  899MOL0     C18572   8.486   1.985   8.530 -0.2319 -0.6123  0.0892
  899MOL0     C18573   8.605   2.002   8.637  0.1410  0.1642  0.6570
  899MOL0     C18574   8.587   1.929   8.770  0.0689 -1.0729 -1.0528
  899MOL0     C18575   8.711   1.978   8.851 -0.6907  0.0669  0.0773
  899MOL0     C18576   8.776   1.869   8.931  0.4058  0.3232 -0.3401
  899MOL0     C18577   8.925   1.892   8.960  0.6296 -0.5788 -0.9028
  899MOL0     C18578   8.959   2.009   9.060  0.5395  0.2443  0.2722
  899MOL0     C18579   9.105   2.010   9.110 -0.9512  0.1254  0.1056
  899MOL0    Cl18580   9.138   2.128   9.241  0.4291 -0.3628  0.0057
  899MOL0     C18581   8.407   1.665   8.359 -0.0852  0.0297  0.5326
  899MOL0     C18582   8.293   1.591   8.319  0.4697  0.4096  0.0374
  899MOL0     O18583   7.918   1.604   8.505 -0.4488 -0.7341  0.2121
  899MOL0     C18584   7.809   1.354   8.524  0.0457  0.2553 -0.0160
  899MOL0     C18585   7.762   1.221   8.535 -0.0609 -0.3482  0.2564
  899MOL0     N18586   7.904   0.588   8.987  0.2578 -0.2512  0.1639
  899MOL0     N18587   8.001   0.603   9.075  0.6959  0.4083 -0.1484
  899MOL0     C18588   9.146   0.779   9.051 -0.4163 -0.1366  0.7985
  899MOL0     C18589   9.256   0.731   8.970 -0.4740  0.4665 -0.6799
  899MOL0     C18590   9.518   0.443   8.728 -0.0945  0.6735 -0.5755
  899MOL0     C18591   9.540   0.316   8.785  0.5367 -0.0204 -0.5511
  899MOL0     C18592   9.602   0.212   8.715  0.1665 -0.8247 -0.5155
  899MOL0     C18593   9.651   0.234   8.582  0.2023 -0.1488 -0.0094
  899MOL0     O18594   9.735   0.127   8.537  0.5777 -0.1143 -0.7189
  899MOL0     C18595   9.808   0.148   8.413 -0.7034  0.5084  0.0440
  899MOL0     C18596   9.959   0.189   8.432  0.2405  0.7031 -0.3774
  899MOL0     C18597  10.027   0.180   8.291  0.7034  0.6557  0.0958
  899MOL0     C18598  10.170   0.235   8.296 -0.3269 -0.3757  0.2334
  899MOL0     C18599  10.234   0.220   8.164 -0.6935  0.1228 -0.2254
  899MOL0     C18600  10.291   0.209   8.060  0.2136  0.5243  0.7660
  899MOL0     C18601   9.629   0.356   8.528 -0.4315  0.2563  0.2446
  899MOL0     C18602   9.568   0.463   8.596  0.3932  0.1544 -0.8010
  899MOL0     H18603   9.329   0.452   9.167  0.0761  0.0026  0.3571
  899MOL0     H18604   9.155   0.550   9.305  2.9627 -0.7951  0.8987
  899MOL0     H18605   8.904   0.834   9.098  0.1376 -0.5455  0.2640
  899MOL0     H18606   8.935   0.939   9.244  1.9033 -1.2954  3.1430
  899MOL0     H18607   8.795   0.786   9.376  3.8943 -1.2665 -1.3634
  899MOL0     H18608   8.785   0.682   9.232 -0.6138 -0.6922 -1.0145
  899MOL0     H18609   8.648   0.837   9.107  2.1443  1.4428 -0.7013
  899MOL0     H18610   8.664   0.961   9.230 -2.2455  0.2630  0.9591
  899MOL0     H18611   8.498   0.707   9.259 -1.2919  0.6369  0.5983
  899MOL0     H18612   8.543   0.802   9.397 -0.1863 -1.4424  0.2593
  899MOL0     H18613   8.441   1.003   9.295 -0.4606 -0.3016  0.7786
  899MOL0     H18614   8.325   0.886   9.342  0.9645 -0.4544  1.4924
  899MOL0     H18615   8.441   0.938   9.060 -2.5768  0.1701 -2.8390
  899MOL0     H18616   8.280   0.995   9.118 -1.6592 -0.4899  0.9177
  899MOL0     H18617   8.288   0.792   8.966  4.0825 -0.6571 -0.3083
  899MOL0     H18618   8.356   0.706   9.092 -1.4787 -0.9457 -2.7848
  899MOL0     H18619   8.115   0.861   9.198 -0.8864 -1.1731  1.8014
  899MOL0     H18620   8.170   0.708   9.238 -0.2472  0.7632  0.9290
  899MOL0     H18621   8.002   0.898   8.939  1.9964 -0.6498 -2.0760
  899MOL0     H18622   7.721   0.654   8.788  1.4110 -2.4318  1.1236
  899MOL0     H18623   7.858   0.718   8.703  3.8363  2.9620  1.5531
  899MOL0     H18624   7.821   0.944   8.809  1.2888  0.3432 -1.0160
  899MOL0     H18625   7.664   0.877   8.866  0.6352 -2.4847  0.5588
  899MOL0     H18626   7.635   0.814   8.604  0.4616  0.2573 -1.5180
  899MOL0     H18627   7.625   0.982   8.659  0.1305 -0.2652  1.6889
  899MOL0     H18628   7.825   0.841   8.487 -2.6253 -0.4729 -0.9414
  899MOL0     H18629   7.880   0.994   8.572  1.2674  2.8376 -2.6892
  899MOL0     H18630   7.802   1.137   8.215 -0.8889  0.8664  0.6928
  899MOL0     H18631   7.897   1.351   8.193 -1.4762 -2.7386 -1.5227
  899MOL0     H18632   8.040   1.789   8.430 -0.0827 -0.0473  0.3225
  899MOL0     H18633   8.220   1.906   8.532 -0.5212  1.5150 -1.4494
  899MOL0     H18634   8.395   2.001   8.589 -0.0232  0.3487  0.1619
  899MOL0     H18635   8.499   2.053   8.445  0.8250 -0.9271 -0.0162
  899MOL0     H18636   8.598   2.110   8.655 -2.7172  0.8461 -3.1285
  899MOL0     H18637   8.702   1.973   8.595  0.5058  2.4844 -0.2611
  899MOL0     H18638   8.572   1.822   8.753 -1.0785 -1.1551  0.3026
  899MOL0     H18639   8.493   1.964   8.813  0.8028  0.4805 -0.6392
  899MOL0     H18640   8.790   2.017   8.787 -1.2085  1.6829  0.3497
  899MOL0     H18641   8.666   2.046   8.925  1.7671  0.4927  1.2801
  899MOL0     H18642   8.757   1.778   8.874 -3.1679  2.2377 -2.6350
  899MOL0     H18643   8.705   1.857   9.014 -3.5334  0.8689 -3.3350
  899MOL0     H18644   8.984   1.911   8.870 -1.4219 -0.0364 -2.1952
  899MOL0     H18645   8.974   1.797   8.983  1.4889  0.2113  0.6924
  899MOL0     H18646   8.943   2.105   9.009  1.7086 -0.8139 -2.3124
  899MOL0     H18647   8.892   1.995   9.145 -0.8240 -1.3232 -1.0050
  899MOL0     H18648   9.174   2.033   9.028 -0.8728 -0.9242 -0.1260
  899MOL0     H18649   9.135   1.910   9.140  1.8191  0.4559 -1.1932
  899MOL0     H18650   8.510   1.640   8.336 -0.3982 -1.2641  0.5003
  899MOL0     H18651   8.311   1.503   8.259  0.1667  1.6934 -2.0138
  899MOL0     H18652   7.819   1.428   8.603  2.4621  1.0866 -1.0209
  899MOL0     H18653   7.742   1.182   8.634  4.9905  1.2289  2.2308
  899MOL0     H18654   9.084   0.864   9.025 -0.9280 -0.8969 -0.5853
  899MOL0     H18655   9.286   0.782   8.879  1.8329 -0.9753 -0.8270
  899MOL0     H18656   9.511   0.310   8.890  0.1174  1.4167 -0.5576
  899MOL0     H18657   9.632   0.116   8.756 -1.2560 -0.1985  2.2876
  899MOL0     H18658   9.760   0.215   8.341  0.8231  1.6461  0.0362
  899MOL0     H18659   9.803   0.052   8.359 -2.2787  0.0244  0.9857
  899MOL0     H18660   9.967   0.287   8.480 -0.5463  0.0039  1.2683
  899MOL0     H18661   9.988   0.108   8.500 -2.2285 -0.4950 -0.6278
  899MOL0     H18662   9.972   0.252   8.229 -1.4274  0.3392  1.5020
  899MOL0     H18663  10.021   0.084   8.239  1.5848  2.3262 -3.4287
  899MOL0     H18664  10.165   0.340   8.325 -2.8598 -0.4185  0.1794
  899MOL0     H18665  10.236   0.188   8.369  2.5528 -2.1481 -3.1687
  899MOL0     H18666  10.311   0.201   7.955 -0.3238  0.3901  0.6724
  899MOL0     H18667   9.665   0.369   8.426  0.2936 -2.0135  0.1462
  899MOL0     H18668   9.567   0.560   8.548  2.4062  1.9319  2.3821
  900MOL0     O18669   7.929   4.442   8.664 -0.2933  0.2427  0.7423
  900MOL0     C18670   7.946   4.507   8.561  0.2863  0.4038  0.5173
  900MOL0     O18671   7.901   4.636   8.545 -0.1777 -0.7066  0.5111
  900MOL0     C18672   7.826   4.709   8.635 -0.0593  0.3435 -0.2954
  900MOL0     C18673   7.855   4.845   8.645  0.7473  0.9581 -0.8240
  900MOL0     C18674   7.788   4.928   8.740  0.2180 -0.3857  0.7490
  900MOL0     C18675   7.695   4.879   8.826 -0.9618  0.1704  0.1011
  900MOL0     O18676   7.634   4.944   8.921 -0.2318 -0.3764 -0.1301
  900MOL0     C18677   7.599   5.080   8.893 -0.1149 -0.4256  0.3805
  900MOL0     C18678   7.455   5.101   8.951  0.4593 -0.5074  0.7793
  900MOL0     C18679   7.348   5.090   8.836  0.5681 -0.1383 -0.3934
  900MOL0     C18680   7.208   5.102   8.884  1.3463 -0.5148 -0.2699
  900MOL0     C18681   7.105   5.142   8.782  0.0527  0.7142  0.5344
  900MOL0     C18682   7.091   5.032   8.678  0.3116  0.1335  0.3708
  900MOL0     C18683   7.008   5.085   8.553  0.0534  0.0173  0.7147
  900MOL0     C18684   7.073   5.210   8.478 -0.2194 -0.1519  0.6715
  900MOL0     N18685   7.196   5.181   8.407  0.6882  0.3211 -0.4213
  900MOL0     C18686   7.315   5.211   8.457 -0.1384  0.3728  0.0460
  900MOL0     C18687   7.406   5.138   8.384  0.2559 -0.2319  0.7777
  900MOL0     C18688   7.556   5.138   8.389  0.4445 -0.0952  0.1508
  900MOL0     C18689   7.617   5.264   8.329  0.6720  0.6801 -0.5171
  900MOL0     C18690   7.768   5.285   8.369  0.3637 -0.7664 -0.1195
  900MOL0     C18691   7.873   5.195   8.289 -0.2190  1.4765  0.5133
  900MOL0     O18692   7.846   5.055   8.310  0.3254  0.2850  0.6075
  900MOL0     C18693   7.907   4.960   8.227 -0.6251 -0.6048  0.5039
  900MOL0     C18694   8.017   4.997   8.151 -0.0867 -0.3178  0.6953
  900MOL0     C18695   8.086   4.905   8.072  1.0106  0.0195  0.1686
  900MOL0     C18696   8.028   4.781   8.050  0.2759 -1.2009  0.4763
  900MOL0     C18697   8.087   4.676   7.964 -0.1857 -0.0756  0.7508
  900MOL0     O18698   8.211   4.694   7.911  0.0475  0.1877 -0.5869
  900MOL0     C18699   8.269   4.607   7.822  0.6108  0.2386 -0.0457
  900MOL0     C18700   8.200   4.560   7.710  0.2479 -0.6898  0.7635
  900MOL0     C18701   8.259   4.481   7.618 -0.0368  0.1819 -0.1781
  900MOL0     C18702   8.390   4.437   7.640 -0.7680 -0.8269 -0.3093
  900MOL0     O18703   8.447   4.348   7.553 -0.8628 -0.1767  0.2910
  900MOL0     C18704   8.484   4.225   7.624  0.7373  0.7037 -0.0540
  900MOL0     C18705   8.503   4.109   7.530  0.5532  0.4914  0.3976
  900MOL0     C18706   8.590   3.986   7.568  0.4898 -0.6526 -0.5595
  900MOL0     C18707   8.559   3.930   7.712 -0.3370  0.0223  0.1773
  900MOL0     C18708   8.672   3.834   7.766  1.1002 -0.0497 -0.2140
  900MOL0     C18709   8.803   3.902   7.808 -0.1145 -0.4202  0.1762
  900MOL0     C18710   8.902   3.807   7.893  1.1515  0.0149 -1.7635
  900MOL0     C18711   9.037   3.876   7.910  0.1263 -0.8432 -0.1300
  900MOL0    Cl18712   9.151   3.762   7.994  0.0942 -0.3277 -0.2603
  900MOL0     C18713   8.462   4.486   7.750 -1.4086  0.2131 -0.3151
  900MOL0     C18714   8.407   4.577   7.837 -0.3558  0.4218 -0.4321
  900MOL0     O18715   8.030   4.565   7.953 -0.4609  0.1110 -0.4399
  900MOL0     C18716   7.919   4.740   8.127  0.0823  0.1783 -0.0862
  900MOL0     C18717   7.857   4.831   8.221 -1.1802 -0.2312  0.0161
  900MOL0     N18718   7.334   5.072   8.283  0.2871  0.2939 -0.0044
  900MOL0     N18719   7.203   5.104   8.298 -0.5364 -0.7538 -0.4619
  900MOL0     C18720   7.650   4.746   8.809  0.0427 -0.4190 -0.3290
  900MOL0     C18721   7.717   4.661   8.718 -0.0953  0.2622  0.6129
  900MOL0     C18722   8.033   4.454   8.452  0.6820 -0.0050 -0.4427
  900MOL0     C18723   8.076   4.320   8.465 -0.0614 -0.3283 -0.3609
  900MOL0     C18724   8.172   4.266   8.379 -0.0726  0.0199  0.7556
  900MOL0     C18725   8.217   4.339   8.269  0.5382  0.0804  0.4896
  900MOL0     O18726   8.318   4.274   8.195 -0.4551 -0.5013 -0.4954
  900MOL0     C18727   8.382   4.357   8.096  0.2784 -0.0108  0.5619
  900MOL0     C18728   8.515   4.298   8.048  0.5548  0.2694 -0.5067
  900MOL0     C18729   8.606   4.262   8.164  0.4331 -0.9061  0.4454
  900MOL0     C18730   8.731   4.201   8.108  0.6164 -0.2789  0.4574
  900MOL0     C18731   8.815   4.132   8.211 -0.4040 -0.0978  0.8737
  900MOL0     C18732   8.883   4.062   8.285 -0.4092 -0.1526  0.7700
  900MOL0     C18733   8.160   4.470   8.243  0.1563  0.7583 -0.0307
  900MOL0     C18734   8.068   4.525   8.337 -0.4298  0.4671 -0.1749
  900MOL0     H18735   7.935   4.884   8.583  1.6623 -3.7363 -3.0386
  900MOL0     H18736   7.808   5.034   8.753  1.6025 -0.7043  1.4894
  900MOL0     H18737   7.610   5.116   8.790  2.1453  0.1812  0.7797
  900MOL0     H18738   7.666   5.139   8.955 -0.0840 -1.3345  1.2400
  900MOL0     H18739   7.453   5.201   8.997  0.5908 -0.1149 -0.0437
  900MOL0     H18740   7.427   5.026   9.025  0.3216 -0.6091  0.6235
  900MOL0     H18741   7.363   4.992   8.788  0.1020  0.0635 -0.9681
  900MOL0     H18742   7.380   5.167   8.766  0.4407  1.7855  1.5675
  900MOL0     H18743   7.174   5.015   8.940  5.2368 -2.2635 -0.3598
  900MOL0     H18744   7.217   5.183   8.958  2.5724 -1.7209  0.9451
  900MOL0     H18745   7.130   5.236   8.731 -0.5692  0.7642  0.3049
  900MOL0     H18746   7.016   5.156   8.844  1.8204 -0.7040  3.6274
  900MOL0     H18747   7.045   4.941   8.718 -0.4769  0.2168 -0.3010
  900MOL0     H18748   7.192   5.026   8.637 -0.2757  3.2705 -1.9789
  900MOL0     H18749   7.004   5.011   8.473 -1.8843  0.7041  0.1088
  900MOL0     H18750   6.908   5.119   8.583  0.5558  3.1760 -0.7842
  900MOL0     H18751   7.096   5.295   8.543  1.6983 -0.8493  0.9471
  900MOL0     H18752   6.999   5.233   8.401  0.1770 -3.6761 -0.9395
  900MOL0     H18753   7.339   5.278   8.539  0.1026  0.2605  0.0669
  900MOL0     H18754   7.597   5.061   8.322  1.6704 -0.9669  1.8252
  900MOL0     H18755   7.599   5.125   8.489  2.7392 -4.1005 -1.1253
  900MOL0     H18756   7.548   5.345   8.357 -2.1429 -0.6965 -2.8189
  900MOL0     H18757   7.610   5.267   8.219  0.6377  1.8894 -0.5000
  900MOL0     H18758   7.803   5.387   8.350 -2.2644 -0.0449 -1.5297
  900MOL0     H18759   7.773   5.264   8.477  0.8625 -6.6221 -0.9458
  900MOL0     H18760   7.971   5.224   8.327  0.2837  0.3936  0.1068
  900MOL0     H18761   7.865   5.213   8.181  1.0783 -1.5127 -0.1974
  900MOL0     H18762   8.065   5.094   8.154 -0.0930 -0.3135  0.6290
  900MOL0     H18763   8.173   4.931   8.013 -0.0122  0.2446 -1.3125
  900MOL0     H18764   8.097   4.592   7.696  0.1807 -1.1394  0.2376
  900MOL0     H18765   8.199   4.439   7.537 -0.9589 -2.3830  1.6864
  900MOL0     H18766   8.404   4.195   7.692 -0.9248  0.0094 -2.1986
  900MOL0     H18767   8.567   4.240   7.693 -3.0793  0.7129  5.1914
  900MOL0     H18768   8.537   4.151   7.435  1.3078  0.6770  0.7470
  900MOL0     H18769   8.399   4.078   7.513  0.7173 -0.7650  1.5427
  900MOL0     H18770   8.689   4.032   7.567  0.5623 -0.4031  3.2870
  900MOL0     H18771   8.575   3.904   7.497 -1.1484 -1.0338  0.1996
  900MOL0     H18772   8.543   4.014   7.780  0.6171  2.2922 -2.2427
  900MOL0     H18773   8.468   3.868   7.708 -0.6715  0.5062  0.2666
  900MOL0     H18774   8.694   3.747   7.703 -1.1886 -0.7743 -0.0982
  900MOL0     H18775   8.617   3.785   7.847 -0.4577  1.9001 -0.0209
  900MOL0     H18776   8.779   3.994   7.862 -1.1085  0.0422 -1.0104
  900MOL0     H18777   8.851   3.937   7.716  3.3823 -0.2033  1.8806
  900MOL0     H18778   8.864   3.792   7.995 -0.5370  0.3385 -2.3066
  900MOL0     H18779   8.915   3.715   7.837 -0.1143 -0.5063 -1.2344
  900MOL0     H18780   9.027   3.966   7.971 -2.0407 -0.2204 -1.3179
  900MOL0     H18781   9.069   3.903   7.810 -2.9999 -1.7078 -1.4937
  900MOL0     H18782   8.567   4.466   7.767 -0.2954  4.9614 -0.2512
  900MOL0     H18783   8.462   4.630   7.914  0.5373  1.0617 -1.4783
  900MOL0     H18784   7.847   4.664   8.098 -0.6281  0.4415  0.9384
  900MOL0     H18785   7.766   4.800   8.271 -0.6682 -2.5071 -0.3446
  900MOL0     H18786   7.568   4.729   8.878 -1.8383  2.6305 -1.5799
  900MOL0     H18787   7.679   4.560   8.711 -2.5171  1.2752 -2.8028
  900MOL0     H18788   8.047   4.264   8.554  3.2026  3.0767  3.2410
  900MOL0     H18789   8.233   4.177   8.394  0.6238 -0.0107 -1.8755
  900MOL0     H18790   8.386   4.457   8.141  0.1950 -0.4561  1.5749
  900MOL0     H18791   8.316   4.370   8.009  0.6527 -0.2828  0.2376
  900MOL0     H18792   8.491   4.210   7.988  1.4843 -0.9412  0.8561
  900MOL0     H18793   8.556   4.375   7.981 -0.5909  0.9559 -0.4466
  900MOL0     H18794   8.560   4.186   8.228  0.4293 -1.8051 -0.6008
  900MOL0     H18795   8.633   4.357   8.211  2.0224  0.0689 -2.2018
  900MOL0     H18796   8.708   4.129   8.029 -3.1890  1.9068 -0.6935
  900MOL0     H18797   8.775   4.283   8.051 -0.3287 -0.9617 -1.3567
  900MOL0     H18798   8.951   3.998   8.338  0.9105  0.5794  0.0082
  900MOL0     H18799   8.203   4.528   8.162  0.3647 -0.5098 -0.8563
  900MOL0     H18800   8.015   4.619   8.337 -1.9412 -0.3481 -0.3028
  901MOL0     O18801   4.979   4.304   6.504 -0.3816  0.0234  0.5154
  901MOL0     C18802   5.104   4.320   6.486  0.4133 -0.0715 -0.1768
  901MOL0     O18803   5.166   4.411   6.404  0.2840 -0.4346  0.2061
  901MOL0     C18804   5.089   4.511   6.361  0.3930 -0.3835 -0.8163
  901MOL0     C18805   5.003   4.490   6.256 -0.2878 -0.3973  1.3504
  901MOL0     C18806   4.916   4.600   6.202  0.8655  1.4050 -0.2611
  901MOL0     C18807   4.922   4.725   6.269  0.8795 -0.0282  0.1776
  901MOL0     O18808   4.845   4.836   6.232 -0.5602 -0.9928 -0.0871
  901MOL0     C18809   4.723   4.823   6.162 -0.4473  0.8482 -0.2971
  901MOL0     C18810   4.678   4.965   6.129  0.3692 -0.8657  0.3558
  901MOL0     C18811   4.776   5.051   6.056 -0.1200  0.4713 -0.7773
  901MOL0     C18812   4.714   5.172   5.983 -0.1133  0.5196 -0.0359
  901MOL0     C18813   4.797   5.228   5.868  0.8868 -0.8131 -0.5238
  901MOL0     C18814   4.941   5.237   5.898 -0.1030 -0.4900  0.4692
  901MOL0     C18815   5.015   5.320   5.790  0.6170 -0.6678  0.2950
  901MOL0     C18816   5.004   5.471   5.814 -0.5430  0.6002  0.2561
  901MOL0     N18817   5.078   5.535   5.702  0.2445 -0.4468 -0.1805
  901MOL0     C18818   5.041   5.531   5.575  1.4162  0.0990  0.0403
  901MOL0     C18819   5.070   5.651   5.524  0.0714 -0.1191 -0.6755
  901MOL0     C18820   5.042   5.693   5.378  0.5028  0.2686 -1.0015
  901MOL0     C18821   4.912   5.651   5.320  0.1017  1.9168  0.0065
  901MOL0     C18822   4.793   5.719   5.388 -0.1137 -0.2869  0.1359
  901MOL0     C18823   4.691   5.776   5.287  0.1967 -0.3618 -0.8628
  901MOL0     O18824   4.626   5.887   5.349  0.5907  0.3686  0.0864
  901MOL0     C18825   4.533   5.958   5.280  0.3676 -1.0783  1.1860
  901MOL0     C18826   4.454   6.060   5.353 -0.3038  1.0350  0.0105
  901MOL0     C18827   4.354   6.130   5.288 -0.3205 -0.2295 -0.2161
  901MOL0     C18828   4.330   6.107   5.150 -0.9240 -0.2972  0.0426
  901MOL0     C18829   4.228   6.182   5.069 -0.4831 -0.8621 -0.7395
  901MOL0     O18830   4.148   6.271   5.139  0.1554 -0.2343 -0.4433
  901MOL0     C18831   4.050   6.333   5.070  0.6034 -0.9247 -0.0674
  901MOL0     C18832   3.977   6.306   4.946  0.1260 -0.6550 -0.3798
  901MOL0     C18833   3.878   6.402   4.904 -1.6120  0.3397  0.7849
  901MOL0     C18834   3.852   6.517   4.981  1.3005  0.2312  0.3459
  901MOL0     O18835   3.783   6.628   4.924  0.1317  0.1126  0.4900
  901MOL0     C18836   3.795   6.667   4.785 -0.3356  0.1034 -0.4790
  901MOL0     C18837   3.674   6.647   4.698  0.8013 -0.5225 -0.4912
  901MOL0     C18838   3.562   6.740   4.734  0.1236 -0.2679 -0.1753
  901MOL0     C18839   3.437   6.717   4.651  0.3652 -0.5027  0.3888
  901MOL0     C18840   3.386   6.564   4.639 -0.3290  0.8723  0.2072
  901MOL0     C18841   3.349   6.495   4.771 -0.1814 -0.4448 -0.9463
  901MOL0     C18842   3.294   6.354   4.749  0.2382  1.3339  0.4445
  901MOL0     C18843   3.295   6.262   4.882  0.2444  0.4629  0.3591
  901MOL0    Cl18844   3.471   6.236   4.921  0.5944 -0.1419 -0.0212
  901MOL0     C18845   3.901   6.522   5.106 -0.6396  0.3566 -0.7980
  901MOL0     C18846   3.998   6.431   5.154 -0.1760  0.3090  1.0174
  901MOL0     O18847   4.246   6.188   4.953 -0.0645 -0.1161  0.4160
  901MOL0     C18848   4.412   6.016   5.075 -0.2828  0.0152 -0.4367
  901MOL0     C18849   4.508   5.942   5.145  0.4918 -0.5122  0.5275
  901MOL0     N18850   5.128   5.730   5.619  0.1881  0.3199  0.7244
  901MOL0     N18851   5.133   5.657   5.725  0.5948  0.5775 -0.0894
  901MOL0     C18852   5.005   4.743   6.374 -1.1600  0.0944 -0.9349
  901MOL0     C18853   5.087   4.637   6.419 -0.4557  0.1604 -0.4383
  901MOL0     C18854   5.192   4.232   6.561  0.0476 -0.1753  0.1174
  901MOL0     C18855   5.327   4.226   6.526 -0.0566 -0.3296 -0.2151
  901MOL0     C18856   5.417   4.145   6.589  0.2230  0.4032 -0.2438
  901MOL0     C18857   5.381   4.063   6.693  0.0739 -0.1112  0.4409
  901MOL0     O18858   5.464   3.967   6.747 -0.0628 -0.7420 -0.0699
  901MOL0     C18859   5.604   3.977   6.735  0.1925 -0.1665 -0.1657
  901MOL0     C18860   5.671   3.874   6.826  0.9080 -0.7484 -0.1126
  901MOL0     C18861   5.816   3.916   6.838  0.6528 -0.3517 -0.0612
  901MOL0     C18862   5.896   3.800   6.882 -0.5228  0.9488  0.0708
  901MOL0     C18863   6.038   3.801   6.862  0.1502  0.2719  0.3052
  901MOL0     C18864   6.151   3.789   6.831 -0.6555 -0.6708  0.1393
  901MOL0     C18865   5.241   4.070   6.727  0.5536 -0.4416  0.8365
  901MOL0     C18866   5.147   4.161   6.671 -0.0699 -0.0683  0.1224
  901MOL0     H18867   4.999   4.397   6.200 -4.4018  0.6528 -0.4842
  901MOL0     H18868   4.838   4.588   6.128 -1.2826  2.4513  1.7081
  901MOL0     H18869   4.651   4.765   6.220 -0.3355  1.1448  0.1490
  901MOL0     H18870   4.731   4.769   6.067  0.0512 -1.8819  1.2086
  901MOL0     H18871   4.641   5.013   6.220  0.4300 -2.5485  1.3050
  901MOL0     H18872   4.589   4.968   6.065 -0.4099  2.9406  1.3364
  901MOL0     H18873   4.827   4.987   5.984  0.2361 -1.9619  1.4775
  901MOL0     H18874   4.861   5.072   6.122  1.2197 -2.5304 -1.3655
  901MOL0     H18875   4.618   5.148   5.936 -1.4430  1.4056  2.0634
  901MOL0     H18876   4.692   5.249   6.058 -1.0258  0.5651 -0.3298
  901MOL0     H18877   4.740   5.314   5.833 -2.6393 -2.8885 -0.3492
  901MOL0     H18878   4.791   5.182   5.768  1.6761  1.3462 -1.6300
  901MOL0     H18879   4.984   5.137   5.890 -1.9824 -1.4174  1.2754
  901MOL0     H18880   4.971   5.270   5.998  3.5125  2.1552 -1.2688
  901MOL0     H18881   5.122   5.300   5.776  1.5267  4.2972 -1.9921
  901MOL0     H18882   4.961   5.307   5.696 -0.8228  1.0886  0.8346
  901MOL0     H18883   5.058   5.499   5.905 -0.1184 -0.2387  0.2768
  901MOL0     H18884   4.900   5.504   5.827 -0.8959  0.6517 -2.2876
  901MOL0     H18885   4.997   5.451   5.516  0.7422 -1.7534  2.8464
  901MOL0     H18886   5.123   5.653   5.317  1.7430  1.9598 -0.5589
  901MOL0     H18887   5.049   5.802   5.371  1.1916  0.1314 -3.0651
  901MOL0     H18888   4.900   5.542   5.318  1.8018  1.6410  1.9134
  901MOL0     H18889   4.915   5.676   5.214 -0.7812 -1.7367 -1.0271
  901MOL0     H18890   4.743   5.656   5.463  0.4134  0.7342  1.3817
  901MOL0     H18891   4.836   5.802   5.444  0.8654  1.4028 -2.8848
  901MOL0     H18892   4.608   5.713   5.254 -0.8498  1.1581 -1.2256
  901MOL0     H18893   4.740   5.803   5.194  1.1317 -1.6377 -0.7776
  901MOL0     H18894   4.478   6.083   5.456 -1.0843  2.2504 -0.0595
  901MOL0     H18895   4.285   6.206   5.322 -0.1388  0.2227 -0.8551
  901MOL0     H18896   3.997   6.219   4.885  1.8263  0.0925 -0.9508
  901MOL0     H18897   3.830   6.388   4.808  0.2176 -1.7340  0.0847
  901MOL0     H18898   3.885   6.631   4.735 -0.3304  0.0461 -0.4281
  901MOL0     H18899   3.813   6.775   4.783 -0.6748  0.2024  0.9113
  901MOL0     H18900   3.630   6.551   4.726 -2.4433  1.4590  1.8010
  901MOL0     H18901   3.696   6.651   4.591  2.4737 -1.6690 -0.2479
  901MOL0     H18902   3.595   6.843   4.720  0.4908 -0.0935  1.7665
  901MOL0     H18903   3.535   6.739   4.840  0.2373  0.5306 -0.1340
  901MOL0     H18904   3.354   6.772   4.696  1.6854  0.4380  1.7804
  901MOL0     H18905   3.463   6.747   4.549 -1.8143  0.6382  0.1253
  901MOL0     H18906   3.462   6.509   4.583 -1.8156 -1.2330  0.1525
  901MOL0     H18907   3.298   6.548   4.576 -2.3461  0.1447  3.0044
  901MOL0     H18908   3.276   6.558   4.822  0.1102  0.6584 -1.8458
  901MOL0     H18909   3.439   6.487   4.833 -0.9412 -0.5380  0.1759
  901MOL0     H18910   3.200   6.343   4.694  2.1167 -4.9902 -2.3472
  901MOL0     H18911   3.364   6.304   4.682 -0.7486 -0.0182  0.3816
  901MOL0     H18912   3.252   6.165   4.855  2.7938 -0.1978 -1.8219
  901MOL0     H18913   3.242   6.310   4.964 -2.6532 -1.0098 -0.5261
  901MOL0     H18914   3.868   6.601   5.173  0.5268  0.1492  0.0567
  901MOL0     H18915   4.039   6.440   5.255 -4.3366 -0.4538  2.9650
  901MOL0     H18916   4.396   6.012   4.968  1.4918  0.5223 -0.7506
  901MOL0     H18917   4.584   5.889   5.089  0.2580 -0.4259  0.1250
  901MOL0     H18918   5.001   4.843   6.416 -3.4807  1.2988 -3.6262
  901MOL0     H18919   5.158   4.646   6.501 -1.7335  1.8564  0.5427
  901MOL0     H18920   5.364   4.276   6.437  3.5381 -0.9563  0.8054
  901MOL0     H18921   5.512   4.125   6.540 -0.1018 -0.3063 -0.5954
  901MOL0     H18922   5.644   4.077   6.754  0.0662 -0.0204 -0.6463
  901MOL0     H18923   5.629   3.955   6.631  1.0512  0.6490 -0.1360
  901MOL0     H18924   5.619   3.873   6.922 -0.8479 -1.2581 -1.0216
  901MOL0     H18925   5.659   3.777   6.778 -2.7760  0.6268 -2.3870
  901MOL0     H18926   5.828   4.005   6.902  0.7578  2.8041 -4.0800
  901MOL0     H18927   5.844   3.938   6.735 -3.0459  0.9691 -0.9157
  901MOL0     H18928   5.885   3.788   6.990 -2.1945  0.8265 -0.0742
  901MOL0     H18929   5.857   3.706   6.843  0.6374  0.3962  0.2176
  901MOL0     H18930   6.256   3.786   6.808 -0.6677  2.4748 -0.8110
  901MOL0     H18931   5.203   3.995   6.797  0.5809  1.7791  3.3896
  901MOL0     H18932   5.047   4.166   6.711 -0.1488 -0.6516  0.0118
  902MOL0     O18933   7.754   8.019   7.866  0.8618  0.3950 -0.0962
  902MOL0     C18934   7.751   8.112   7.944 -0.3208  0.2634 -0.8335
  902MOL0     O18935   7.634   8.162   7.995 -0.5097 -0.0534  0.1331
  902MOL0     C18936   7.515   8.103   7.953 -0.8118 -0.4048 -0.0929
  902MOL0     C18937   7.505   7.966   7.961 -0.6489 -0.1540  0.5143
  902MOL0     C18938   7.379   7.913   7.929 -0.6712  0.2394 -0.7037
  902MOL0     C18939   7.272   7.995   7.891 -0.1401 -0.2080 -0.6472
  902MOL0     O18940   7.150   7.959   7.840  0.7109 -0.2615  0.0723
  902MOL0     C18941   7.109   7.822   7.870 -1.1331  0.4743  0.1336
  902MOL0     C18942   7.048   7.811   8.006  0.0147  0.0693 -0.3527
  902MOL0     C18943   6.956   7.937   8.046  0.3147  0.0122 -0.0159
  902MOL0     C18944   6.865   7.982   7.937  0.0350 -0.4886  0.1026
  902MOL0     C18945   6.774   8.098   7.981 -0.5099  0.4640 -0.4566
  902MOL0     C18946   6.681   8.057   8.096  0.4345 -0.2238 -0.5513
  902MOL0     C18947   6.590   8.172   8.128 -0.0033 -1.2822 -0.5876
  902MOL0     C18948   6.482   8.106   8.213 -0.5083 -0.6616  1.2164
  902MOL0     N18949   6.413   8.206   8.290  0.6682  0.6519 -0.7366
  902MOL0     C18950   6.374   8.330   8.247 -0.1798 -0.0277  0.2326
  902MOL0     C18951   6.347   8.398   8.362  0.6336 -0.5755  1.0748
  902MOL0     C18952   6.275   8.527   8.376 -0.3235  0.9472  0.8818
  902MOL0     C18953   6.366   8.637   8.333  0.2135 -0.3286  0.4545
  902MOL0     C18954   6.498   8.639   8.403 -0.9467 -0.1719 -0.4538
  902MOL0     C18955   6.599   8.723   8.326 -0.0194  0.9724  0.7377
  902MOL0     O18956   6.728   8.699   8.370  0.2617 -0.6320 -0.3022
  902MOL0     C18957   6.825   8.780   8.327 -0.4827  0.0128  0.4674
  902MOL0     C18958   6.930   8.802   8.412  0.5766  1.2165  0.4082
  902MOL0     C18959   7.033   8.896   8.380 -0.3153  0.3930  0.6583
  902MOL0     C18960   7.030   8.981   8.273  0.6744 -0.1803  0.3528
  902MOL0     C18961   7.131   9.082   8.253  0.9163 -0.1884  0.9894
  902MOL0     O18962   7.237   9.070   8.338 -0.3409  0.1841  0.2056
  902MOL0     C18963   7.362   9.113   8.288 -0.9592 -0.4549 -0.8772
  902MOL0     C18964   7.398   9.246   8.286  0.3758 -0.7801  1.1934
  902MOL0     C18965   7.531   9.288   8.255  0.7635  0.4407 -0.3078
  902MOL0     C18966   7.634   9.198   8.221 -0.1093 -0.1844 -0.4347
  902MOL0     O18967   7.764   9.227   8.194  0.6897  0.4197  0.9455
  902MOL0     C18968   7.807   9.354   8.246  0.1923  0.9350  0.4119
  902MOL0     C18969   7.957   9.345   8.249 -0.4639  0.3696  0.2187
  902MOL0     C18970   8.001   9.258   8.373  0.3536 -0.9271  0.9581
  902MOL0     C18971   8.146   9.251   8.384 -0.4204  0.8484  0.1705
  902MOL0     C18972   8.188   9.222   8.527 -0.8293  0.1665 -0.2185
  902MOL0     C18973   8.343   9.219   8.535 -0.3323  0.0625 -0.5564
  902MOL0     C18974   8.430   9.345   8.503 -0.1590 -0.7108  0.3418
  902MOL0     C18975   8.579   9.310   8.482  0.7662  0.0496  0.2693
  902MOL0    Cl18976   8.650   9.248   8.626 -0.4666 -0.0437  0.2856
  902MOL0     C18977   7.600   9.064   8.228  0.3678 -0.7699 -0.1059
  902MOL0     C18978   7.464   9.024   8.251 -0.2006 -0.6447 -0.0346
  902MOL0     O18979   7.135   9.145   8.143 -0.6085 -0.1840 -0.0503
  902MOL0     C18980   6.923   8.958   8.181 -0.1143 -0.3497  0.0330
  902MOL0     C18981   6.816   8.865   8.215 -0.0117 -0.1147  0.5044
  902MOL0     N18982   6.368   8.318   8.473  0.4289 -0.1338  0.2806
  902MOL0     N18983   6.406   8.204   8.429 -0.3289 -0.6879  0.0424
  902MOL0     C18984   7.287   8.134   7.899  0.4215  0.0375  0.5289
  902MOL0     C18985   7.410   8.184   7.918  0.0608 -1.1397 -0.3136
  902MOL0     C18986   7.876   8.178   7.974  0.0303  0.1962 -0.6085
  902MOL0     C18987   7.998   8.146   7.915 -0.2747  0.1167 -0.1386
  902MOL0     C18988   8.114   8.221   7.932  0.1416 -0.0802 -0.3198
  902MOL0     C18989   8.105   8.348   8.006 -0.7426  0.4672 -0.0804
  902MOL0     O18990   8.216   8.420   8.005  0.1744  1.1169 -0.3030
  902MOL0     C18991   8.240   8.481   8.126 -0.3887  0.2227 -0.6176
  902MOL0     C18992   8.389   8.502   8.127 -1.4613  1.1087 -0.5776
  902MOL0     C18993   8.417   8.531   8.276 -0.6360  0.1159  0.3170
  902MOL0     C18994   8.563   8.581   8.287 -0.7410  0.0997  0.8363
  902MOL0     C18995   8.662   8.484   8.232  0.1837 -0.3662  0.6236
  902MOL0     C18996   8.737   8.400   8.185 -0.1122  0.7454  0.8878
  902MOL0     C18997   7.980   8.385   8.064 -0.5202  0.6192  0.6165
  902MOL0     C18998   7.867   8.298   8.052  0.1308  0.1733 -0.0948
  902MOL0     H18999   7.586   7.898   7.988  0.9020  1.2106 -0.4946
  902MOL0     H19000   7.361   7.806   7.926 -0.8129  0.0681  2.6162
  902MOL0     H19001   7.181   7.741   7.853 -1.4610  0.4450 -1.2321
  902MOL0     H19002   7.021   7.807   7.808 -4.7505  3.5473  3.9500
  902MOL0     H19003   7.130   7.815   8.078  1.1100  2.0823 -1.6081
  902MOL0     H19004   6.992   7.717   7.998  0.5363 -0.2598 -0.1720
  902MOL0     H19005   7.023   8.022   8.061 -0.6851  1.2044 -1.9348
  902MOL0     H19006   6.900   7.921   8.138 -1.9505  0.6010 -1.2203
  902MOL0     H19007   6.925   8.031   7.859  0.1213 -0.0284  0.4506
  902MOL0     H19008   6.808   7.896   7.900 -1.1318  0.9854 -1.7038
  902MOL0     H19009   6.719   8.117   7.888 -2.8245 -0.4431  0.6616
  902MOL0     H19010   6.834   8.178   8.025  0.9623 -0.5200 -0.5980
  902MOL0     H19011   6.734   8.033   8.189  1.7099  0.1711 -1.1531
  902MOL0     H19012   6.624   7.973   8.055 -2.1239  1.1816 -0.0866
  902MOL0     H19013   6.644   8.247   8.186  1.6542 -0.5374 -2.9553
  902MOL0     H19014   6.557   8.227   8.039  1.0549 -3.0797 -2.1943
  902MOL0     H19015   6.528   8.036   8.284 -2.3573 -0.5459  2.6001
  902MOL0     H19016   6.415   8.042   8.154 -1.2803  1.3296 -0.1941
  902MOL0     H19017   6.372   8.372   8.148 -1.2869 -1.0724 -0.2224
  902MOL0     H19018   6.259   8.546   8.482  2.0048  1.1692  1.2366
  902MOL0     H19019   6.181   8.529   8.319 -1.0020  0.2952  1.9438
  902MOL0     H19020   6.315   8.734   8.340  0.8774 -0.0794  2.3531
  902MOL0     H19021   6.387   8.615   8.228  0.0760  0.5392  0.2307
  902MOL0     H19022   6.487   8.686   8.502 -0.1369  1.9027 -1.2850
  902MOL0     H19023   6.549   8.542   8.412  1.5657  0.8165 -2.8215
  902MOL0     H19024   6.570   8.828   8.311 -2.2027  0.4734  1.1396
  902MOL0     H19025   6.600   8.689   8.223  1.4798 -1.2075  1.3948
  902MOL0     H19026   6.948   8.732   8.493 -1.9542 -0.9798 -0.7608
  902MOL0     H19027   7.107   8.917   8.458  0.1119 -1.2808  0.7410
  902MOL0     H19028   7.324   9.325   8.298  1.0032 -0.3129  2.0897
  902MOL0     H19029   7.556   9.393   8.252  1.2555  0.3112 -1.2972
  902MOL0     H19030   7.761   9.375   8.343 -2.0889 -1.7566  0.0226
  902MOL0     H19031   7.796   9.434   8.172 -0.4199 -0.1956 -0.7755
  902MOL0     H19032   7.990   9.449   8.256 -2.7729  1.1693 -0.0208
  902MOL0     H19033   8.002   9.292   8.164  0.0236 -1.7958  1.7467
  902MOL0     H19034   7.960   9.158   8.357 -1.4946  0.2294 -2.5291
  902MOL0     H19035   7.940   9.305   8.451 -1.2924  3.7064 -2.7207
  902MOL0     H19036   8.171   9.163   8.324  0.9961  2.1875 -1.2777
  902MOL0     H19037   8.195   9.342   8.349  3.1783 -1.4191 -1.3560
  902MOL0     H19038   8.157   9.123   8.559  2.0914 -1.2373 -1.3126
  902MOL0     H19039   8.159   9.309   8.586  1.3540  0.9098 -0.1280
  902MOL0     H19040   8.371   9.139   8.466  0.4111 -0.9711  0.8910
  902MOL0     H19041   8.364   9.188   8.638 -1.2263  1.9050  0.2242
  902MOL0     H19042   8.383   9.384   8.412  2.5054 -0.3225 -0.9843
  902MOL0     H19043   8.430   9.422   8.581  0.4445  0.4598 -0.7751
  902MOL0     H19044   8.640   9.390   8.440  4.1329 -2.3119  0.2398
  902MOL0     H19045   8.584   9.236   8.401 -1.8618 -0.8781  0.8505
  902MOL0     H19046   7.673   8.991   8.194  1.3384 -0.4715  1.2503
  902MOL0     H19047   7.444   8.918   8.259  0.8231 -0.7923  0.8135
  902MOL0     H19048   6.934   9.032   8.102  2.2281  1.4029  1.8613
  902MOL0     H19049   6.749   8.820   8.142 -1.6660  1.0462  1.2426
  902MOL0     H19050   7.195   8.188   7.883 -0.3959 -1.7145 -1.0469
  902MOL0     H19051   7.436   8.289   7.907  2.3173 -1.6667 -0.5836
  902MOL0     H19052   8.000   8.061   7.847  1.0291 -0.2950  0.3830
  902MOL0     H19053   8.205   8.194   7.879 -0.6174 -3.9083  0.0350
  902MOL0     H19054   8.211   8.423   8.213 -4.0973 -0.1466 -1.9427
  902MOL0     H19055   8.207   8.585   8.123  4.0339  1.8375 -1.5863
  902MOL0     H19056   8.436   8.409   8.095 -1.0368  0.3789  1.9626
  902MOL0     H19057   8.434   8.578   8.062  3.4663 -1.1381 -0.2440
  902MOL0     H19058   8.407   8.437   8.332  2.0705  0.2910  1.2108
  902MOL0     H19059   8.356   8.617   8.306 -3.6323 -0.7189 -2.7252
  902MOL0     H19060   8.575   8.666   8.220 -3.3886 -0.8031 -0.9369
  902MOL0     H19061   8.582   8.605   8.393  2.2739 -1.6448  0.8184
  902MOL0     H19062   8.815   8.342   8.140  1.9796  4.1717 -0.2814
  902MOL0     H19063   7.975   8.474   8.126 -1.0492 -0.3400  1.9998
  902MOL0     H19064   7.780   8.343   8.099 -0.0470  0.2097 -0.4527
  903MOL0     O19065   7.063   8.421   2.167  1.0437  0.1178  0.4957
  903MOL0     C19066   7.146   8.401   2.080  0.2749  0.0920 -0.1672
  903MOL0     O19067   7.117   8.382   1.953  0.7192  0.3320 -0.0481
  903MOL0     C19068   6.985   8.379   1.920 -0.9352 -1.0503  0.6728
  903MOL0     C19069   6.931   8.265   1.867  0.3931 -0.2382 -0.2779
  903MOL0     C19070   6.802   8.259   1.808  1.2946 -0.9788  0.0867
  903MOL0     C19071   6.721   8.375   1.816  0.5386 -0.3762 -0.4700
  903MOL0     O19072   6.592   8.354   1.776 -1.0938  0.2076  0.4620
  903MOL0     C19073   6.486   8.441   1.803 -0.0222 -0.1600 -0.7618
  903MOL0     C19074   6.360   8.365   1.741 -0.6696 -0.2547  0.1970
  903MOL0     C19075   6.352   8.350   1.585 -0.1963  0.8025 -0.3059
  903MOL0     C19076   6.213   8.282   1.549  0.5930  0.0617 -1.0191
  903MOL0     C19077   6.201   8.260   1.400  0.3185 -0.1622 -0.5684
  903MOL0     C19078   6.196   8.371   1.306  0.0280 -0.5729 -0.4855
  903MOL0     C19079   6.232   8.310   1.171  0.7655  0.2416 -0.1475
  903MOL0     C19080   6.268   8.412   1.061 -0.0312 -1.1792  0.6448
  903MOL0     N19081   6.292   8.343   0.932 -0.0231  0.4405 -0.3700
  903MOL0     C19082   6.226   8.355   0.814  0.4192  0.7803  0.0748
  903MOL0     C19083   6.292   8.275   0.729 -0.9033 -0.3322  0.4332
  903MOL0     C19084   6.243   8.251   0.591 -0.2475  0.2405  0.0852
  903MOL0     C19085   6.306   8.342   0.486 -0.0206 -0.4408  0.0973
  903MOL0     C19086   6.456   8.344   0.485  0.6765  0.4026  0.0971
  903MOL0     C19087   6.500   8.204   0.437 -0.2070 -0.1557  0.1615
  903MOL0     O19088   6.628   8.223   0.381 -0.3036  0.6818 -0.3483
  903MOL0     C19089   6.693   8.106   0.343 -0.0752  1.1006 -0.0998
  903MOL0     C19090   6.813   8.061   0.406 -0.0328  0.0480 -0.4077
  903MOL0     C19091   6.868   7.941   0.354  0.6000  0.0360  1.1018
  903MOL0     C19092   6.816   7.882   0.237 -0.0210 -0.4676  0.3907
  903MOL0     C19093   6.883   7.760   0.182 -0.7181 -0.6468 -0.5523
  903MOL0     O19094   6.996   7.714   0.243 -1.2503 -0.0669 -0.4785
  903MOL0     C19095   7.091   7.651   0.166 -0.1554  0.7455 -0.2245
  903MOL0     C19096   7.102   7.660   0.027 -0.1055  0.7795  0.3893
  903MOL0     C19097   7.190   7.571  -0.039 -0.1527 -0.4644  0.1911
  903MOL0     C19098   7.275   7.485   0.032 -0.0807  0.0311  0.3500
  903MOL0     O19099   7.373   7.403  -0.014  0.2203  0.7071  0.8903
  903MOL0     C19100   7.491   7.466  -0.061 -0.9052 -0.2843 -0.1657
  903MOL0     C19101   7.613   7.376  -0.040  0.1473  1.2062 -0.8719
  903MOL0     C19102   7.621   7.335   0.116 -0.0398  0.0768  0.0677
  903MOL0     C19103   7.730   7.234   0.138 -0.9011  0.1130 -1.0342
  903MOL0     C19104   7.774   7.240   0.284  0.5748 -0.5157 -0.3996
  903MOL0     C19105   7.872   7.128   0.294  0.0563  0.3388  0.2145
  903MOL0     C19106   7.925   7.120   0.434  0.1581 -0.1095 -0.1974
  903MOL0     C19107   8.023   7.233   0.474  0.3271 -0.1637  1.6840
  903MOL0    Cl19108   8.170   7.205   0.380  0.4623  0.2215  0.1018
  903MOL0     C19109   7.263   7.480   0.173  0.7484 -0.1358 -0.6233
  903MOL0     C19110   7.170   7.557   0.240  0.2275  0.6095 -0.2517
  903MOL0     O19111   6.841   7.720   0.077 -0.1908 -0.0888  0.2998
  903MOL0     C19112   6.702   7.938   0.169  0.5323  0.3417  0.4828
  903MOL0     C19113   6.634   8.046   0.232  0.3682 -0.0966 -0.0016
  903MOL0     N19114   6.403   8.218   0.788  0.1954 -0.5457 -0.7077
  903MOL0     N19115   6.403   8.254   0.916  0.0600 -0.0579 -0.2101
  903MOL0     C19116   6.772   8.491   1.880 -1.1398 -0.1863 -0.5584
  903MOL0     C19117   6.905   8.496   1.922 -1.1287  0.1601 -0.4281
  903MOL0     C19118   7.290   8.411   2.110  1.3387  0.5643  0.3442
  903MOL0     C19119   7.332   8.449   2.239 -0.0536 -0.3185  0.7941
  903MOL0     C19120   7.463   8.465   2.272 -0.9120 -0.6848 -0.1302
  903MOL0     C19121   7.556   8.415   2.183 -0.2051 -0.1187  0.2337
  903MOL0     O19122   7.687   8.423   2.214  0.4285  0.3122  0.5947
  903MOL0     C19123   7.775   8.344   2.139 -0.8349 -0.2140  1.0068
  903MOL0     C19124   7.907   8.331   2.214 -0.8081  0.4052  0.3143
  903MOL0     C19125   7.984   8.470   2.206  0.2132  0.7523  0.6079
  903MOL0     C19126   8.100   8.473   2.312 -0.5720  0.4956  0.0826
  903MOL0     C19127   8.214   8.403   2.247  0.2883 -0.5547  0.1883
  903MOL0     C19128   8.311   8.336   2.202  0.1244  0.2010  0.2963
  903MOL0     C19129   7.518   8.400   2.049  0.7264 -0.0630  0.3762
  903MOL0     C19130   7.386   8.386   2.014  0.3037  0.5209 -0.0650
  903MOL0     H19131   7.000   8.181   1.860  0.0257 -0.5671 -0.0301
  903MOL0     H19132   6.739   8.175   1.781 -2.8628  1.3491  1.5234
  903MOL0     H19133   6.502   8.538   1.755 -1.9603  0.4559 -0.2608
  903MOL0     H19134   6.458   8.462   1.907 -0.5350 -1.8982 -0.5296
  903MOL0     H19135   6.266   8.409   1.776  0.1239  1.9979 -0.3319
  903MOL0     H19136   6.371   8.262   1.775  3.3045 -0.1499 -0.2988
  903MOL0     H19137   6.430   8.282   1.549 -0.1470 -0.6051  2.2396
  903MOL0     H19138   6.352   8.446   1.533 -1.5587  1.3777  0.6951
  903MOL0     H19139   6.204   8.184   1.598 -3.7289  0.9447  0.4168
  903MOL0     H19140   6.131   8.343   1.589  1.0119  1.8207 -2.7026
  903MOL0     H19141   6.116   8.194   1.381  1.3209 -1.6615 -0.0759
  903MOL0     H19142   6.289   8.200   1.373  0.4986  0.4819 -1.4419
  903MOL0     H19143   6.238   8.470   1.324 -2.5805  0.8227 -1.5630
  903MOL0     H19144   6.090   8.397   1.296  0.8706  2.9507 -1.4750
  903MOL0     H19145   6.321   8.246   1.179 -0.7474 -2.1153 -1.0042
  903MOL0     H19146   6.157   8.247   1.123  0.3700 -0.1484  0.9504
  903MOL0     H19147   6.353   8.478   1.080 -3.6137  4.5499 -0.7194
  903MOL0     H19148   6.190   8.488   1.049  1.2156 -0.3286 -3.9655
  903MOL0     H19149   6.129   8.402   0.803  0.5837  1.8490  2.5730
  903MOL0     H19150   6.136   8.270   0.585 -1.1008 -3.1670  2.1094
  903MOL0     H19151   6.277   8.149   0.567  0.6486 -0.1052  2.5396
  903MOL0     H19152   6.270   8.443   0.511 -1.3926 -1.8844  5.0965
  903MOL0     H19153   6.267   8.311   0.388 -1.6021  1.1729  0.1582
  903MOL0     H19154   6.495   8.411   0.409 -0.5737  1.0414 -0.0073
  903MOL0     H19155   6.497   8.373   0.582  0.0151 -0.4886  0.6652
  903MOL0     H19156   6.430   8.177   0.357 -0.4621  0.5390  0.1390
  903MOL0     H19157   6.489   8.127   0.514 -0.4551 -0.2840 -0.0003
  903MOL0     H19158   6.855   8.115   0.491 -0.9162  1.3770 -0.7791
  903MOL0     H19159   6.955   7.905   0.408  2.0649  1.7546 -0.0033
  903MOL0     H19160   7.043   7.722  -0.040  0.4865 -2.2060 -3.2196
  903MOL0     H19161   7.203   7.597  -0.144 -0.5302  1.2578  0.5328
  903MOL0     H19162   7.515   7.561  -0.012 -1.5770 -1.0539  1.7363
  903MOL0     H19163   7.472   7.489  -0.167 -4.3972  0.9958  0.5835
  903MOL0     H19164   7.709   7.404  -0.083  1.5522 -2.9902 -0.9624
  903MOL0     H19165   7.610   7.279  -0.090  1.2571  0.7785 -0.1542
  903MOL0     H19166   7.529   7.289   0.151 -0.4510  0.6751 -0.2092
  903MOL0     H19167   7.630   7.424   0.180 -2.6927  0.8625 -0.5340
  903MOL0     H19168   7.688   7.134   0.126 -0.7281 -0.2370  0.8766
  903MOL0     H19169   7.812   7.269   0.075 -1.4953  0.9886 -1.3447
  903MOL0     H19170   7.685   7.214   0.341  1.1700 -3.8953 -0.8439
  903MOL0     H19171   7.817   7.336   0.315 -1.6102  0.2606  0.3870
  903MOL0     H19172   7.960   7.144   0.231 -0.3635 -2.8957 -1.4171
  903MOL0     H19173   7.833   7.030   0.263  0.6303  0.1182  0.1667
  903MOL0     H19174   7.840   7.129   0.503  0.1070  1.2068 -0.4066
  903MOL0     H19175   7.969   7.020   0.438  1.0253  0.2921  2.6896
  903MOL0     H19176   8.043   7.225   0.582  0.6347 -2.0100  1.5264
  903MOL0     H19177   7.986   7.333   0.450  1.8417  0.0136 -0.0918
  903MOL0     H19178   7.323   7.407   0.225  0.1175  0.7276  1.4199
  903MOL0     H19179   7.159   7.539   0.346 -1.0875 -1.1500 -0.6333
  903MOL0     H19180   6.658   7.905   0.075  0.9972 -3.1081  1.3396
  903MOL0     H19181   6.534   8.073   0.200  1.4565  1.1635 -2.6162
  903MOL0     H19182   6.714   8.582   1.884 -1.6825 -0.5689  0.8377
  903MOL0     H19183   6.934   8.593   1.960  4.5030 -1.8826  1.5415
  903MOL0     H19184   7.261   8.492   2.309 -0.8151  3.4346 -2.0059
  903MOL0     H19185   7.490   8.506   2.369 -3.2824 -3.0827  1.6838
  903MOL0     H19186   7.798   8.388   2.041 -2.6380  0.6474  0.9225
  903MOL0     H19187   7.740   8.244   2.112 -3.3252  0.2390  2.2304
  903MOL0     H19188   7.905   8.307   2.320 -2.0437  2.9193  0.9461
  903MOL0     H19189   7.960   8.246   2.170 -2.0583  0.0428 -0.5573
  903MOL0     H19190   7.916   8.551   2.235 -1.8256 -1.6679  3.2965
  903MOL0     H19191   8.027   8.476   2.106 -0.4625 -0.0653  0.2536
  903MOL0     H19192   8.111   8.578   2.339  1.1398  0.5196 -0.5791
  903MOL0     H19193   8.075   8.420   2.405  2.9104 -0.6908  0.4973
  903MOL0     H19194   8.400   8.283   2.176  0.1233  0.8819 -1.1650
  903MOL0     H19195   7.593   8.377   1.974  0.2336 -1.7478  0.3815
  903MOL0     H19196   7.368   8.358   1.911 -1.5654  0.6862  0.1782
  904MOL0     O19197   8.218   5.272   5.372 -0.5138 -0.5449  0.0594
  904MOL0     C19198   8.255   5.169   5.312  0.4850 -0.8290  0.6671
  904MOL0     O19199   8.169   5.095   5.237  0.3151  0.5516  0.3437
  904MOL0     C19200   8.053   5.157   5.194  0.7482  0.5908 -0.4333
  904MOL0     C19201   8.049   5.272   5.115 -0.2711  0.2394 -0.1229
  904MOL0     C19202   7.926   5.327   5.079  0.2937 -0.0646 -0.6948
  904MOL0     C19203   7.810   5.269   5.108 -0.0123  0.5824 -0.3715
  904MOL0     O19204   7.696   5.334   5.076  0.5351  0.2852 -0.6303
  904MOL0     C19205   7.596   5.253   5.001  0.6708  0.7944  0.6043
  904MOL0     C19206   7.462   5.326   4.991  0.1106  0.4094  0.2709
  904MOL0     C19207   7.348   5.252   4.923  0.9361 -0.4567 -0.1135
  904MOL0     C19208   7.225   5.345   4.923  0.2126  0.5992 -0.5250
  904MOL0     C19209   7.103   5.267   4.867  0.2315 -0.0020 -0.1204
  904MOL0     C19210   6.968   5.328   4.901  1.0035 -0.9545 -0.5829
  904MOL0     C19211   6.841   5.319   4.813  0.4164  0.3992 -1.2199
  904MOL0     C19212   6.759   5.187   4.841 -0.5933  0.4186 -0.7846
  904MOL0     N19213   6.632   5.176   4.777 -0.5854 -0.5205  0.3165
  904MOL0     C19214   6.527   5.258   4.802  0.3308 -1.5752  0.0675
  904MOL0     C19215   6.421   5.194   4.746  0.1270 -1.2938 -0.4685
  904MOL0     C19216   6.279   5.239   4.719 -1.0901 -0.3599 -0.2102
  904MOL0     C19217   6.219   5.295   4.841  0.3066 -0.3850  0.2586
  904MOL0     C19218   6.147   5.186   4.919  0.6383 -0.7945  0.3499
  904MOL0     C19219   6.045   5.239   5.022  0.8112  0.3145 -0.4633
  904MOL0     O19220   5.985   5.144   5.122 -0.0607  0.6556  0.2498
  904MOL0     C19221   5.879   5.062   5.085 -0.5214  0.4253  0.1238
  904MOL0     C19222   5.837   5.051   4.954  1.0545  0.0182 -0.1639
  904MOL0     C19223   5.721   4.983   4.925  0.5377  0.6318  0.0891
  904MOL0     C19224   5.647   4.919   5.025  0.6610 -0.2111 -0.4974
  904MOL0     C19225   5.531   4.842   4.994 -0.1255 -0.5394  0.5646
  904MOL0     O19226   5.504   4.813   4.865  0.6901  0.3901 -0.1767
  904MOL0     C19227   5.414   4.708   4.854  0.1524 -0.1694  0.3255
  904MOL0     C19228   5.460   4.583   4.804  0.2961  0.8902  0.4031
  904MOL0     C19229   5.371   4.476   4.780  1.0654  0.3197 -0.2415
  904MOL0     C19230   5.232   4.484   4.810 -0.6662 -0.9823  0.8037
  904MOL0     O19231   5.135   4.397   4.776  0.0402  0.0552  0.1669
  904MOL0     C19232   5.128   4.376   4.630  0.7066  0.2564 -0.8117
  904MOL0     C19233   4.997   4.448   4.575 -0.2107  0.8313  0.3419
  904MOL0     C19234   4.883   4.423   4.664  0.2602  0.7977  0.2268
  904MOL0     C19235   4.740   4.440   4.607  0.1725  0.2688 -0.2327
  904MOL0     C19236   4.631   4.397   4.702  0.4752  0.3159 -1.1382
  904MOL0     C19237   4.495   4.379   4.640 -0.0585 -0.8569 -0.1375
  904MOL0     C19238   4.432   4.514   4.602  0.2376 -0.2051 -0.6389
  904MOL0     C19239   4.277   4.502   4.597  0.4898  0.7278 -0.8501
  904MOL0    Cl19240   4.222   4.498   4.408  0.0064 -0.4717  0.1572
  904MOL0     C19241   5.181   4.613   4.859  0.0664  0.5641 -0.3981
  904MOL0     C19242   5.271   4.713   4.879  0.1468  0.0327  0.3834
  904MOL0     O19243   5.471   4.788   5.089  0.6043 -0.3826  0.4348
  904MOL0     C19244   5.690   4.928   5.155 -0.7259  1.2898 -0.5384
  904MOL0     C19245   5.807   5.002   5.187 -0.0976  0.4200  0.0041
  904MOL0     N19246   6.464   5.072   4.706  0.1149  0.1208  0.5888
  904MOL0     N19247   6.592   5.062   4.724 -0.1723  0.9659  0.4308
  904MOL0     C19248   7.810   5.160   5.193 -0.5268  0.6306 -0.4210
  904MOL0     C19249   7.929   5.100   5.233 -0.5928 -0.4903 -0.0445
  904MOL0     C19250   8.395   5.137   5.306 -0.0223  0.6368 -0.6882
  904MOL0     C19251   8.483   5.181   5.407  0.2375 -0.2875  0.4030
  904MOL0     C19252   8.617   5.149   5.398 -0.1549 -0.4872 -0.8102
  904MOL0     C19253   8.659   5.056   5.299 -0.1438 -0.0194 -0.7969
  904MOL0     O19254   8.790   5.022   5.286  0.1462 -0.1259  1.0217
  904MOL0     C19255   8.884   5.043   5.394 -0.3537  0.7910 -0.2818
  904MOL0     C19256   8.983   4.931   5.373 -0.3700  0.2059 -0.2277
  904MOL0     C19257   9.099   4.950   5.469  0.0588  0.4605 -0.0974
  904MOL0     C19258   9.204   4.835   5.484  0.0312 -0.0388 -1.0028
  904MOL0     C19259   9.237   4.791   5.345 -0.1870  0.1812  0.7021
  904MOL0     C19260   9.262   4.758   5.231 -0.2719 -0.2254 -0.4507
  904MOL0     C19261   8.566   5.003   5.213  0.1529 -0.5218  1.4390
  904MOL0     C19262   8.432   5.042   5.216  0.3097  0.1983  0.2836
  904MOL0     H19263   8.142   5.313   5.078  0.0605 -0.9209 -0.6218
  904MOL0     H19264   7.922   5.416   5.018  1.5350 -0.4942 -1.4489
  904MOL0     H19265   7.566   5.157   5.046 -3.3843  1.2557 -0.7147
  904MOL0     H19266   7.633   5.233   4.900  1.5910 -2.1325  1.4138
  904MOL0     H19267   7.483   5.413   4.929 -1.1447  1.0765  0.7270
  904MOL0     H19268   7.428   5.356   5.091 -0.6360 -2.2842  0.9174
  904MOL0     H19269   7.322   5.157   4.971 -0.8117 -1.3985 -2.6743
  904MOL0     H19270   7.386   5.230   4.822  3.8016 -0.9830  0.9924
  904MOL0     H19271   7.192   5.360   5.027 -0.2930 -1.3097 -0.3710
  904MOL0     H19272   7.234   5.440   4.870 -3.6583  2.2240  1.3067
  904MOL0     H19273   7.111   5.163   4.899 -0.6377 -1.3683 -3.8795
  904MOL0     H19274   7.105   5.264   4.758 -1.1919 -0.1289 -0.1680
  904MOL0     H19275   7.000   5.433   4.896  1.7675 -1.2447 -3.0434
  904MOL0     H19276   6.936   5.303   5.003 -0.8888 -2.7152 -1.5394
  904MOL0     H19277   6.783   5.402   4.854 -2.0143 -1.1696 -1.2880
  904MOL0     H19278   6.870   5.333   4.708  1.1061  0.3555 -1.0388
  904MOL0     H19279   6.744   5.177   4.949 -2.8267  2.2709 -0.8544
  904MOL0     H19280   6.824   5.101   4.821 -0.6099  0.2255 -0.0326
  904MOL0     H19281   6.531   5.355   4.850  0.3890 -1.1794 -0.7242
  904MOL0     H19282   6.220   5.158   4.675  0.1556 -0.2119 -2.2711
  904MOL0     H19283   6.296   5.312   4.640  2.5936  1.1989  1.7700
  904MOL0     H19284   6.149   5.378   4.824  2.2783  1.7412  1.8550
  904MOL0     H19285   6.288   5.347   4.907 -1.6485  0.5288  1.6710
  904MOL0     H19286   6.098   5.118   4.849 -3.6003  1.6261  0.6053
  904MOL0     H19287   6.221   5.121   4.966  0.4992  0.3560  2.2516
  904MOL0     H19288   5.959   5.289   4.976 -1.5102 -0.2123  2.9302
  904MOL0     H19289   6.103   5.314   5.075 -2.0305  1.7305  0.8966
  904MOL0     H19290   5.887   5.097   4.870 -1.2048  1.6422 -0.7280
  904MOL0     H19291   5.680   4.991   4.825 -2.3471  1.6305  1.2439
  904MOL0     H19292   5.562   4.588   4.768  0.0003  2.4597 -0.3435
  904MOL0     H19293   5.405   4.382   4.739 -3.7973 -3.2035  2.7002
  904MOL0     H19294   5.127   4.268   4.617 -2.7061  0.2191 -1.1584
  904MOL0     H19295   5.214   4.425   4.583  1.1448  1.1783  0.8813
  904MOL0     H19296   4.967   4.425   4.473 -2.2350  0.4308  0.9937
  904MOL0     H19297   5.014   4.554   4.555 -3.3640  1.3871  0.0994
  904MOL0     H19298   4.888   4.485   4.754 -2.5217 -0.2587  1.2352
  904MOL0     H19299   4.883   4.318   4.695 -1.5385  0.7778  0.3032
  904MOL0     H19300   4.717   4.543   4.579 -3.3771  0.1727  1.7670
  904MOL0     H19301   4.742   4.378   4.516 -1.1034  0.0863 -0.1492
  904MOL0     H19302   4.644   4.478   4.774  2.1911  0.0926 -1.1515
  904MOL0     H19303   4.657   4.308   4.760  0.5379  0.6754 -0.6066
  904MOL0     H19304   4.436   4.332   4.719  0.8935 -4.3114 -1.3031
  904MOL0     H19305   4.494   4.303   4.561 -0.0261 -2.6535  1.5266
  904MOL0     H19306   4.459   4.577   4.688 -3.0112 -1.3212  1.3660
  904MOL0     H19307   4.466   4.541   4.502 -1.6604  2.4992 -0.6506
  904MOL0     H19308   4.226   4.587   4.644 -1.5486 -0.8164 -0.1261
  904MOL0     H19309   4.237   4.410   4.641  0.6994  0.8985 -0.2949
  904MOL0     H19310   5.075   4.619   4.881  0.8250  1.5636  4.0482
  904MOL0     H19311   5.220   4.801   4.915  4.2403  2.3874  1.0230
  904MOL0     H19312   5.636   4.883   5.238 -1.8506  0.3457 -1.7345
  904MOL0     H19313   5.835   5.004   5.292 -1.6051  0.6236  0.4338
  904MOL0     H19314   7.724   5.120   5.245  0.4183  0.4349  1.0510
  904MOL0     H19315   7.924   5.012   5.296  2.1704 -0.4160  0.3637
  904MOL0     H19316   8.450   5.260   5.473 -4.2957 -2.1620  0.7180
  904MOL0     H19317   8.692   5.182   5.469  0.5057 -1.0670 -1.2196
  904MOL0     H19318   8.844   5.043   5.496  0.0655 -1.5117 -0.0599
  904MOL0     H19319   8.938   5.137   5.384 -0.3275  0.6943 -1.1261
  904MOL0     H19320   8.928   4.837   5.369  0.9974 -0.5764 -2.1229
  904MOL0     H19321   9.029   4.934   5.274 -0.2237  2.8675 -0.1617
  904MOL0     H19322   9.059   4.979   5.567 -1.1075  0.9964 -0.7157
  904MOL0     H19323   9.154   5.036   5.430  1.8341 -1.2592 -1.5287
  904MOL0     H19324   9.292   4.871   5.538 -1.6766  2.9449  0.0058
  904MOL0     H19325   9.156   4.750   5.533 -2.8325  1.1279 -1.5785
  904MOL0     H19326   9.290   4.713   5.138  0.4302 -2.5424  0.7997
  904MOL0     H19327   8.611   4.925   5.154 -2.7438 -1.2865  0.0526
  904MOL0     H19328   8.361   4.992   5.150  0.1743  0.2070  0.4216
  905MOL0     O19329   0.541  10.926   4.131  0.2229 -0.2662 -0.1654
  905MOL0     C19330   0.507  11.046   4.108 -0.2653 -0.1984  0.6257
  905MOL0     O19331   0.580  11.144   4.042 -0.1004  0.2690  0.1649
  905MOL0     C19332   0.722  11.125   4.037  0.1056  0.4995 -0.4677
  905MOL0     C19333   0.791  11.017   3.993  0.1776  0.7466  0.2090
  905MOL0     C19334   0.932  11.014   4.002  0.5149  0.1315  0.4333
  905MOL0     C19335   1.000  11.123   4.058  0.2629 -0.8092 -1.0052
  905MOL0     O19336   1.131  11.126   4.092 -0.3780 -0.0544  0.5895
  905MOL0     C19337   1.220  11.085   3.987  0.6529  0.7972  0.9049
  905MOL0     C19338   1.365  11.100   4.018 -0.1144  0.1089 -0.1541
  905MOL0     C19339   1.407  11.013   4.129 -1.1190  0.3324 -0.5888
  905MOL0     C19340   1.555  11.049   4.163 -0.7207  0.6814 -0.4790
  905MOL0     C19341   1.618  10.974   4.286  0.1856  0.0832 -0.4028
  905MOL0     C19342   1.744  11.048   4.333 -0.6906 -0.1101 -0.2992
  905MOL0     C19343   1.810  10.966   4.450  0.5772 -0.2953  0.9931
  905MOL0     C19344   1.956  11.015   4.486  0.0342  0.0159 -0.0251
  905MOL0     N19345   1.990  10.979   4.618  0.5292 -0.5003  0.6885
  905MOL0     C19346   2.034  10.861   4.656 -0.6882  0.6826  0.0970
  905MOL0     C19347   2.029  10.848   4.793 -0.2513  0.8591 -0.8912
  905MOL0     C19348   2.046  10.730   4.887 -0.6727 -0.3182  0.3360
  905MOL0     C19349   1.949  10.617   4.862  0.2962  0.6866  0.1925
  905MOL0     C19350   1.800  10.674   4.851 -0.1256  0.8813  0.3040
  905MOL0     C19351   1.701  10.556   4.847  0.1617 -0.0258 -0.8020
  905MOL0     O19352   1.699  10.512   4.981 -0.0653  0.0557 -0.0650
  905MOL0     C19353   1.603  10.423   5.009  0.5886  0.3297  0.6702
  905MOL0     C19354   1.627  10.290   4.977 -0.0910 -0.2453 -0.2126
  905MOL0     C19355   1.526  10.187   4.999  0.1797 -0.2783 -0.6695
  905MOL0     C19356   1.409  10.214   5.066  0.5078 -0.7714  0.3240
  905MOL0     C19357   1.318  10.114   5.111  0.3068 -0.4747  0.1362
  905MOL0     O19358   1.226  10.156   5.203  0.0700 -0.0135  0.4412
  905MOL0     C19359   1.112  10.079   5.231 -0.1206 -1.3020 -0.4625
  905MOL0     C19360   1.078   9.948   5.190 -0.3256  0.6150 -0.7323
  905MOL0     C19361   0.962   9.885   5.247 -0.3795  0.4688 -0.7071
  905MOL0     C19362   0.871   9.949   5.341 -0.3137 -0.1246 -0.5762
  905MOL0     O19363   0.741   9.915   5.376 -0.4012 -0.4864  0.2593
  905MOL0     C19364   0.707   9.771   5.383 -0.1458  0.3929  0.5729
  905MOL0     C19365   0.575   9.750   5.317 -0.5145  0.0765 -0.6865
  905MOL0     C19366   0.537   9.600   5.298 -0.1263  0.3313 -0.5259
  905MOL0     C19367   0.398   9.594   5.225 -0.0847  0.0590 -0.1489
  905MOL0     C19368   0.330   9.456   5.212 -0.8460  0.1165  0.0814
  905MOL0     C19369   0.220   9.473   5.103  0.1156 -0.2127  1.3640
  905MOL0     C19370   0.178   9.352   5.012  0.2148  0.2539 -0.6346
  905MOL0     C19371   0.145   9.230   5.081 -0.7255  0.6355 -0.3564
  905MOL0    Cl19372   0.033   9.278   5.223  0.1943 -0.4778  0.1897
  905MOL0     C19373   0.910  10.081   5.374 -0.0593 -1.4033  0.1032
  905MOL0     C19374   1.021  10.145   5.317 -0.0658 -0.0050 -0.1097
  905MOL0     O19375   1.330   9.993   5.076  0.4636 -0.7160  0.4345
  905MOL0     C19376   1.386  10.353   5.095 -0.9085  1.4567 -0.0796
  905MOL0     C19377   1.477  10.455   5.065 -0.8637 -0.6646 -0.1134
  905MOL0     N19378   1.965  10.962   4.826 -0.5014 -0.3083  0.2684
  905MOL0     N19379   1.955  11.040   4.726 -0.2962  0.4574  0.1402
  905MOL0     C19380   0.932  11.229   4.104  0.7416  0.3177  1.0638
  905MOL0     C19381   0.794  11.229   4.095  0.3695 -0.1903  1.4047
  905MOL0     C19382   0.381  11.085   4.161 -0.3170  0.5721  1.1013
  905MOL0     C19383   0.317  11.018   4.266  0.6515 -0.1579  0.1884
  905MOL0     C19384   0.180  11.041   4.291  0.7760  0.0414 -0.1276
  905MOL0     C19385   0.110  11.145   4.224 -0.3828  0.8005 -0.2914
  905MOL0     O19386  -0.014  11.182   4.254 -0.2976  0.8159  0.0083
  905MOL0     C19387  -0.092  11.102   4.341  0.5165 -0.0423  0.0276
  905MOL0     C19388  -0.137  10.963   4.284  0.7464 -0.0554  0.1598
  905MOL0     C19389  -0.217  10.978   4.145  0.7443  0.1422  1.1217
  905MOL0     C19390  -0.241  10.841   4.095  0.5162 -0.3628  0.1091
  905MOL0     C19391  -0.124  10.799   4.014  0.3705  0.0810  0.2715
  905MOL0     C19392  -0.033  10.766   3.941  0.0310  0.6624  0.1853
  905MOL0     C19393   0.184  11.222   4.128  1.1027  0.1587  0.0407
  905MOL0     C19394   0.311  11.184   4.093  0.9048  0.7209 -0.2336
  905MOL0     H19395   0.726  10.949   3.940 -0.1214  0.2658  1.1729
  905MOL0     H19396   0.985  10.929   3.962  2.1038  1.4480 -0.3737
  905MOL0     H19397   1.192  11.126   3.890 -1.5243  1.5643  1.7975
  905MOL0     H19398   1.211  10.976   3.981 -1.8933  0.8467  2.3220
  905MOL0     H19399   1.376  11.207   4.038 -2.9561  0.3108  0.8826
  905MOL0     H19400   1.427  11.081   3.931  2.3529  1.1948  1.2685
  905MOL0     H19401   1.402  10.912   4.088  1.5700 -0.0589 -0.1644
  905MOL0     H19402   1.343  11.008   4.218  1.2310 -0.4004  1.1765
  905MOL0     H19403   1.628  11.053   4.081  1.7519  1.4713  1.6085
  905MOL0     H19404   1.546  11.156   4.184 -3.6501  0.4310 -0.0439
  905MOL0     H19405   1.644  10.872   4.256 -1.8537 -0.3549 -0.8270
  905MOL0     H19406   1.540  10.960   4.361 -2.6034 -0.1742 -3.1434
  905MOL0     H19407   1.729  11.151   4.365  3.2393  0.4182  0.2782
  905MOL0     H19408   1.813  11.068   4.251  0.2967  2.7787  1.0921
  905MOL0     H19409   1.739  10.998   4.526 -5.3044 -1.9619 -3.0643
  905MOL0     H19410   1.812  10.857   4.438  5.1088 -0.4235  0.9946
  905MOL0     H19411   1.956  11.123   4.470  3.0151 -0.0374 -1.0637
  905MOL0     H19412   2.030  10.970   4.418  0.9504 -0.0114  0.9633
  905MOL0     H19413   2.056  10.794   4.574 -0.7603  3.4770 -2.3866
  905MOL0     H19414   2.035  10.771   4.988  1.3606  2.3270 -0.4040
  905MOL0     H19415   2.150  10.696   4.881 -1.1149 -1.4646 -3.7422
  905MOL0     H19416   1.952  10.560   4.956 -0.3035  0.7568  0.2527
  905MOL0     H19417   1.977  10.547   4.783  1.1307  0.6800  0.4790
  905MOL0     H19418   1.784  10.745   4.932  0.3450  3.3782 -1.6559
  905MOL0     H19419   1.789  10.733   4.759  1.2373  0.0149 -0.4588
  905MOL0     H19420   1.730  10.489   4.765  0.0737 -0.1616 -0.7219
  905MOL0     H19421   1.608  10.611   4.829  1.6187  2.5780 -0.7849
  905MOL0     H19422   1.726  10.259   4.948  0.3394 -0.2202  1.1308
  905MOL0     H19423   1.555  10.085   4.974 -1.9351 -1.7387  2.2051
  905MOL0     H19424   1.140   9.888   5.125  0.6246  0.5912  0.1730
  905MOL0     H19425   0.938   9.784   5.216  2.3199 -0.0996 -1.1964
  905MOL0     H19426   0.698   9.737   5.486 -2.0350 -1.6578 -0.1739
  905MOL0     H19427   0.765   9.711   5.312  0.2434  1.6441 -0.2046
  905MOL0     H19428   0.580   9.796   5.218  3.4799 -2.9170 -2.1144
  905MOL0     H19429   0.500   9.805   5.375 -0.4285 -1.2733  0.7560
  905MOL0     H19430   0.546   9.545   5.392 -1.1698 -2.3524 -1.8964
  905MOL0     H19431   0.609   9.550   5.232 -0.3030  1.2722 -1.4559
  905MOL0     H19432   0.329   9.666   5.270 -0.1292  0.9697 -1.5835
  905MOL0     H19433   0.416   9.629   5.122  1.5692  1.2764  0.5073
  905MOL0     H19434   0.289   9.424   5.308 -1.1169 -0.0919 -0.1043
  905MOL0     H19435   0.397   9.379   5.173  1.8107  2.0940  0.4377
  905MOL0     H19436   0.257   9.535   5.021  0.9991 -1.9218  0.4095
  905MOL0     H19437   0.136   9.526   5.149 -0.6084 -0.6470  0.5913
  905MOL0     H19438   0.083   9.376   4.964 -0.7091 -0.0051  1.0101
  905MOL0     H19439   0.251   9.329   4.934  1.4020  0.6825  0.3216
  905MOL0     H19440   0.237   9.201   5.131 -1.3654  0.0683  0.5306
  905MOL0     H19441   0.109   9.146   5.022 -0.7502 -0.0760  0.6371
  905MOL0     H19442   0.839  10.132   5.439  0.8561  0.9389 -0.6595
  905MOL0     H19443   1.046  10.250   5.330  1.3725 -0.4033  0.5428
  905MOL0     H19444   1.293  10.369   5.149 -1.8293 -0.5907 -0.9677
  905MOL0     H19445   1.445  10.557   5.083  1.1760 -0.2566  1.7184
  905MOL0     H19446   0.985  11.319   4.132  1.0033  2.7382 -5.4540
  905MOL0     H19447   0.727  11.307   4.132 -1.0537 -1.8081  2.3703
  905MOL0     H19448   0.367  10.951   4.335 -2.3250 -0.8376  1.8898
  905MOL0     H19449   0.130  10.978   4.364 -1.5811  0.2202 -1.4738
  905MOL0     H19450  -0.183  11.161   4.351  1.1741  0.8467  0.9788
  905MOL0     H19451  -0.054  11.094   4.443  0.3833  1.1680  0.1849
  905MOL0     H19452  -0.049  10.898   4.283  1.8428  1.2211  2.7738
  905MOL0     H19453  -0.209  10.916   4.350 -1.5245 -1.1564 -2.8652
  905MOL0     H19454  -0.175  11.044   4.070  0.1422 -1.3036 -0.5456
  905MOL0     H19455  -0.315  11.020   4.171  0.4396  0.3220 -0.2528
  905MOL0     H19456  -0.277  10.756   4.154  1.2676  0.2198  1.4670
  905MOL0     H19457  -0.328  10.863   4.032  1.7343 -0.5832 -1.6891
  905MOL0     H19458   0.050  10.729   3.885  3.3052  0.5245  4.5510
  905MOL0     H19459   0.128  11.294   4.071  1.3147 -1.2739 -2.1077
  905MOL0     H19460   0.351  11.230   4.003 -2.5386 -2.5203 -3.7513
  906MOL0     O19461   0.209   5.903   0.612 -0.0512 -0.6145  0.1133
  906MOL0     C19462   0.268   5.988   0.683  0.3864 -0.4492  0.1909
  906MOL0     O19463   0.213   6.091   0.744 -0.2385 -0.1292 -1.1942
  906MOL0     C19464   0.075   6.105   0.752  0.3077 -0.5280  0.3832
  906MOL0     C19465  -0.013   5.993   0.757  0.0746 -0.7519  1.2662
  906MOL0     C19466  -0.153   6.018   0.760 -0.1632  0.3986 -0.2568
  906MOL0     C19467  -0.211   6.152   0.781 -0.6905 -0.3181 -0.4037
  906MOL0     O19468  -0.345   6.183   0.790  0.5893  0.5471  0.5180
  906MOL0     C19469  -0.440   6.084   0.753  0.6623 -0.2298 -0.1044
  906MOL0     C19470  -0.584   6.139   0.769  0.2558  0.5257  0.3498
  906MOL0     C19471  -0.619   6.262   0.688  0.1029 -0.0233 -0.9239
  906MOL0     C19472  -0.760   6.320   0.739  0.2117 -0.2791 -0.2883
  906MOL0     C19473  -0.750   6.391   0.868  0.0102  0.9237 -0.1475
  906MOL0     C19474  -0.895   6.423   0.922  0.5123  0.2544 -0.0822
  906MOL0     C19475  -0.908   6.501   1.054 -0.8572 -0.0673  0.4956
  906MOL0     C19476  -1.053   6.515   1.100  0.7540 -0.7505 -0.5988
  906MOL0     N19477  -1.065   6.610   1.210 -0.2813 -0.3171 -0.8929
  906MOL0     C19478  -0.985   6.620   1.324  0.9510  0.2082  0.4118
  906MOL0     C19479  -1.056   6.672   1.418 -0.2167 -0.0271 -0.3628
  906MOL0     C19480  -1.015   6.696   1.564  1.2644 -0.0576  0.2691
  906MOL0     C19481  -1.129   6.640   1.657 -0.8435  0.5255  0.2181
  906MOL0     C19482  -1.102   6.701   1.793 -0.4230  0.6764  0.0238
  906MOL0     C19483  -1.210   6.653   1.901 -0.4094 -0.3263  0.3844
  906MOL0     O19484  -1.187   6.514   1.940 -0.3305 -0.7316 -0.1769
  906MOL0     C19485  -1.289   6.452   1.999  0.7006 -0.4513  0.3684
  906MOL0     C19486  -1.423   6.511   2.026 -0.3166 -0.0310 -1.0492
  906MOL0     C19487  -1.532   6.438   2.067  0.1570  1.0039  0.1468
  906MOL0     C19488  -1.510   6.305   2.114  0.3481  0.2673  0.6556
  906MOL0     C19489  -1.614   6.234   2.184  1.0025 -0.0066 -0.1721
  906MOL0     O19490  -1.595   6.102   2.202  0.4150 -0.5630  0.9392
  906MOL0     C19491  -1.684   6.039   2.282 -0.2595 -0.6330  0.3420
  906MOL0     C19492  -1.821   6.032   2.261 -1.0272  0.4284 -0.5172
  906MOL0     C19493  -1.905   5.968   2.361  0.0368  0.6396  0.8987
  906MOL0     C19494  -1.845   5.914   2.469 -0.3653 -0.1326 -0.5844
  906MOL0     O19495  -1.909   5.846   2.565  0.1157 -0.4730 -0.4260
  906MOL0     C19496  -1.993   5.735   2.524  0.0607  0.1176 -0.0161
  906MOL0     C19497  -2.140   5.751   2.565 -0.4529 -0.4789  0.3229
  906MOL0     C19498  -2.237   5.638   2.537  1.4617  0.6372 -0.5370
  906MOL0     C19499  -2.292   5.639   2.392  0.8924  0.2618  0.3530
  906MOL0     C19500  -2.380   5.517   2.367  0.5607  0.5875  0.1806
  906MOL0     C19501  -2.500   5.545   2.275  0.1222 -0.5603  0.1050
  906MOL0     C19502  -2.591   5.426   2.268 -0.2362 -0.1221  0.3277
  906MOL0     C19503  -2.705   5.453   2.173 -0.0873 -0.6221  0.7685
  906MOL0    Cl19504  -2.804   5.296   2.178  0.5916 -0.5120  0.3816
  906MOL0     C19505  -1.700   5.924   2.485  0.0789 -0.1295 -0.4596
  906MOL0     C19506  -1.620   5.980   2.387 -1.6593  0.1781 -0.2818
  906MOL0     O19507  -1.706   6.297   2.238  0.5133  0.9201  1.3603
  906MOL0     C19508  -1.380   6.257   2.111  0.2244 -0.5844  1.1344
  906MOL0     C19509  -1.272   6.321   2.046  0.3878 -0.2834 -0.1780
  906MOL0     N19510  -1.186   6.701   1.370 -0.2545  0.0867  0.2857
  906MOL0     N19511  -1.180   6.682   1.236 -0.0412 -0.2060 -0.0791
  906MOL0     C19512  -0.120   6.251   0.809  0.0877 -0.8172  0.0500
  906MOL0     C19513   0.019   6.226   0.792 -0.2153  0.5758 -0.0015
  906MOL0     C19514   0.417   5.964   0.684 -0.7316  0.6173 -0.4747
  906MOL0     C19515   0.500   6.076   0.720  0.7200  0.7903 -0.3697
  906MOL0     C19516   0.638   6.061   0.726 -0.4659  0.6369 -0.0331
  906MOL0     C19517   0.701   5.938   0.708  0.3657 -0.0310 -0.4028
  906MOL0     O19518   0.841   5.930   0.709 -0.1042  0.2557 -0.0628
  906MOL0     C19519   0.897   5.909   0.843 -0.1951  0.3264 -0.2175
  906MOL0     C19520   0.889   5.770   0.888  0.0163 -0.1732  0.6744
  906MOL0     C19521   0.905   5.662   0.779  0.3782 -0.5409 -0.1027
  906MOL0     C19522   0.837   5.527   0.806  0.0135 -0.6108 -0.4049
  906MOL0     C19523   0.894   5.433   0.718  0.5117  0.5164  0.0259
  906MOL0     C19524   0.951   5.343   0.661 -0.8213 -1.1080 -0.2665
  906MOL0     C19525   0.619   5.830   0.672 -0.0052 -0.3819 -0.0353
  906MOL0     C19526   0.480   5.842   0.645  0.4231 -0.1747 -0.9215
  906MOL0     H19527   0.012   5.890   0.736 -0.4898 -0.6304 -0.0900
  906MOL0     H19528  -0.221   5.934   0.757  1.1576 -0.6825 -1.1668
  906MOL0     H19529  -0.437   6.000   0.822 -2.8688 -0.1324  0.3843
  906MOL0     H19530  -0.427   6.054   0.648  0.6760  0.2560 -0.2445
  906MOL0     H19531  -0.602   6.155   0.876  2.1599 -2.3025  1.2435
  906MOL0     H19532  -0.646   6.057   0.732 -0.2393  0.3821  1.4564
  906MOL0     H19533  -0.623   6.239   0.581 -1.1070  0.1491 -0.9374
  906MOL0     H19534  -0.561   6.352   0.710 -2.4426  0.8220  3.6665
  906MOL0     H19535  -0.808   6.392   0.672  0.2046 -1.7912 -1.9822
  906MOL0     H19536  -0.819   6.229   0.733  1.6863 -1.3373  0.6627
  906MOL0     H19537  -0.700   6.486   0.847  0.0552  0.7371 -0.9387
  906MOL0     H19538  -0.703   6.333   0.947 -2.1555  1.6324  1.7914
  906MOL0     H19539  -0.946   6.326   0.929 -0.2444  0.4771 -1.9362
  906MOL0     H19540  -0.955   6.488   0.858 -1.3279  2.1746  3.2839
  906MOL0     H19541  -0.853   6.454   1.136 -2.6573  1.6164  2.8440
  906MOL0     H19542  -0.872   6.602   1.034  1.6959 -0.5758  2.1297
  906MOL0     H19543  -1.107   6.422   1.120 -2.7533  1.3550  0.4852
  906MOL0     H19544  -1.109   6.564   1.020 -2.3573  0.6298  2.2118
  906MOL0     H19545  -0.895   6.563   1.347 -0.4851 -2.2012  0.4726
  906MOL0     H19546  -1.005   6.805   1.576 -0.3321 -0.0952  2.5841
  906MOL0     H19547  -0.915   6.654   1.576  0.1955 -3.3008 -1.0314
  906MOL0     H19548  -1.111   6.534   1.677 -0.6359  0.6909  0.9408
  906MOL0     H19549  -1.230   6.661   1.621 -1.4727 -0.5362  1.2710
  906MOL0     H19550  -1.008   6.662   1.834 -0.5477 -0.4464 -0.7169
  906MOL0     H19551  -1.097   6.809   1.778 -0.3249  0.4101 -2.1121
  906MOL0     H19552  -1.308   6.651   1.853 -0.2877 -3.6452  0.0651
  906MOL0     H19553  -1.208   6.715   1.991 -0.3445  1.1536 -0.5990
  906MOL0     H19554  -1.432   6.619   2.029 -0.7478 -0.0814 -0.0419
  906MOL0     H19555  -1.622   6.489   2.102 -2.3558 -2.7273 -0.2042
  906MOL0     H19556  -1.860   6.054   2.163  0.3459  2.8599 -0.6005
  906MOL0     H19557  -2.012   5.967   2.349  0.1283  2.1390 -0.2637
  906MOL0     H19558  -1.955   5.638   2.557 -0.4989 -0.1876 -0.2669
  906MOL0     H19559  -1.988   5.726   2.415 -2.8344 -1.2311 -0.1214
  906MOL0     H19560  -2.167   5.844   2.513  2.8668  0.1465 -0.4752
  906MOL0     H19561  -2.142   5.771   2.672  0.4134  0.0237  0.2506
  906MOL0     H19562  -2.320   5.641   2.608  0.6015 -3.9345 -1.0368
  906MOL0     H19563  -2.191   5.540   2.552  2.2702  0.9408 -0.9559
  906MOL0     H19564  -2.337   5.737   2.372  1.4017  0.1368 -1.5122
  906MOL0     H19565  -2.208   5.629   2.323 -0.1687 -0.6134 -0.8552
  906MOL0     H19566  -2.418   5.494   2.466 -0.1182 -2.8202 -0.7436
  906MOL0     H19567  -2.316   5.434   2.336 -0.5463 -1.0380  1.9866
  906MOL0     H19568  -2.463   5.570   2.175 -0.2896 -0.7459 -0.0983
  906MOL0     H19569  -2.547   5.632   2.321  2.5480 -0.7818  3.3600
  906MOL0     H19570  -2.545   5.329   2.247 -1.7718 -2.0313  4.5622
  906MOL0     H19571  -2.639   5.412   2.366 -3.0414 -1.4102 -1.1363
  906MOL0     H19572  -2.670   5.484   2.074 -0.1934 -1.1088  0.5770
  906MOL0     H19573  -2.762   5.540   2.205  0.8307  0.2801  0.0162
  906MOL0     H19574  -1.657   5.881   2.575 -2.0761  1.2069  1.3251
  906MOL0     H19575  -1.512   5.991   2.390 -1.7593  1.6645 -1.0901
  906MOL0     H19576  -1.354   6.157   2.144  0.7190 -1.5927 -1.9979
  906MOL0     H19577  -1.174   6.276   2.048  1.5155  2.0498  0.3568
  906MOL0     H19578  -0.154   6.348   0.843 -0.7758 -0.1632 -2.5134
  906MOL0     H19579   0.102   6.296   0.802  1.9060 -0.9262 -4.4629
  906MOL0     H19580   0.463   6.177   0.733 -2.7430 -0.2337 -1.1120
  906MOL0     H19581   0.689   6.157   0.735 -2.2212  1.4876  1.5772
  906MOL0     H19582   0.840   5.975   0.909 -0.6684 -0.1709 -0.1193
  906MOL0     H19583   1.004   5.930   0.842 -0.1771  0.3298 -1.9059
  906MOL0     H19584   0.963   5.755   0.968 -1.1584  3.3364  2.6182
  906MOL0     H19585   0.789   5.765   0.932 -0.2551 -0.7425  0.0050
  906MOL0     H19586   1.014   5.657   0.767  0.1996 -1.5081 -1.5480
  906MOL0     H19587   0.865   5.708   0.688 -1.0152  1.6768  1.5397
  906MOL0     H19588   0.858   5.501   0.910 -5.1143  1.9127  1.5945
  906MOL0     H19589   0.728   5.528   0.801  0.0243  0.7848 -0.7344
  906MOL0     H19590   1.007   5.270   0.606  0.2943 -0.1305 -0.4821
  906MOL0     H19591   0.665   5.741   0.628  0.2236  0.2616 -1.1507
  906MOL0     H19592   0.412   5.768   0.604 -1.4116  0.3461  1.0467
  907MOL0     O19593   5.366   3.809   0.439  0.4958  0.0512  0.0829
  907MOL0     C19594   5.386   3.918   0.383 -0.5036  0.7431 -0.5889
  907MOL0     O19595   5.514   3.970   0.350 -0.1849  0.0599 -0.6287
  907MOL0     C19596   5.615   3.896   0.404 -0.5719  0.2887  0.2628
  907MOL0     C19597   5.714   3.854   0.313  0.2831  0.8089 -0.5587
  907MOL0     C19598   5.825   3.783   0.364  0.2852 -1.4843 -0.5066
  907MOL0     C19599   5.850   3.768   0.499  0.0473 -0.4665  0.7815
  907MOL0     O19600   5.956   3.690   0.540 -0.4414  0.3540 -0.0066
  907MOL0     C19601   5.996   3.701   0.682  0.9188 -0.4428  0.3113
  907MOL0     C19602   6.134   3.639   0.685  0.3363  0.6167  0.2539
  907MOL0     C19603   6.132   3.497   0.630  0.7915 -0.7688  0.2988
  907MOL0     C19604   6.263   3.423   0.645  0.5308  0.1147  0.3218
  907MOL0     C19605   6.365   3.448   0.530  0.0356  0.1919 -0.8603
  907MOL0     C19606   6.513   3.449   0.575 -0.5369 -0.4403  0.1981
  907MOL0     C19607   6.616   3.414   0.465 -0.1839  0.1961 -1.4402
  907MOL0     C19608   6.599   3.497   0.336 -0.0876  1.0699 -0.5159
  907MOL0     N19609   6.654   3.624   0.344  0.4001  0.0911  0.1278
  907MOL0     C19610   6.601   3.738   0.403  1.0931 -0.0307  0.2105
  907MOL0     C19611   6.666   3.840   0.367 -0.3931 -0.8030  1.4434
  907MOL0     C19612   6.629   3.989   0.385 -0.2858  0.7879 -0.6174
  907MOL0     C19613   6.473   4.008   0.377 -0.5575  0.6621 -0.5837
  907MOL0     C19614   6.454   4.137   0.442  0.7021 -0.0085 -0.1448
  907MOL0     C19615   6.309   4.182   0.436 -0.3610  0.1038  1.0586
  907MOL0     O19616   6.235   4.089   0.520 -0.1964  0.7192 -0.1160
  907MOL0     C19617   6.107   4.129   0.544  0.0166 -0.3156  0.0827
  907MOL0     C19618   6.026   4.201   0.450 -1.1907 -0.1996 -0.6540
  907MOL0     C19619   5.901   4.256   0.481 -0.2370 -0.4792  0.1888
  907MOL0     C19620   5.842   4.222   0.604  0.6266 -0.4516  0.2105
  907MOL0     C19621   5.700   4.260   0.648  0.2973 -0.0610  0.5380
  907MOL0     O19622   5.631   4.342   0.551  0.2651  0.2145  0.7917
  907MOL0     C19623   5.505   4.388   0.586  0.2893  0.6857  0.1763
  907MOL0     C19624   5.399   4.367   0.499 -0.3909 -0.0684  1.2118
  907MOL0     C19625   5.273   4.430   0.520 -0.2296  0.4436 -0.9119
  907MOL0     C19626   5.253   4.506   0.640  0.6849 -0.5950  0.1866
  907MOL0     O19627   5.137   4.568   0.662  0.7707  0.1857  0.4489
  907MOL0     C19628   5.037   4.479   0.724 -0.1022 -0.8330 -0.0997
  907MOL0     C19629   4.887   4.520   0.692 -0.2917 -0.9508  0.5288
  907MOL0     C19630   4.860   4.653   0.759 -0.5970 -0.3002 -1.2312
  907MOL0     C19631   4.729   4.720   0.722 -0.1600  0.9257 -0.0045
  907MOL0     C19632   4.706   4.841   0.814 -0.1377  0.2618  0.3288
  907MOL0     C19633   4.690   4.819   0.968 -0.1164  0.5184  0.7675
  907MOL0     C19634   4.599   4.706   0.999 -0.2829  0.5082  1.1231
  907MOL0     C19635   4.573   4.688   1.152 -1.0357 -0.1847 -0.3545
  907MOL0    Cl19636   4.738   4.658   1.225 -0.5962  0.2345 -0.0543
  907MOL0     C19637   5.363   4.527   0.726  0.6952  0.9084 -0.2826
  907MOL0     C19638   5.485   4.468   0.701  0.0565 -0.0058  0.4287
  907MOL0     O19639   5.656   4.214   0.755 -0.1312  0.2709 -0.8257
  907MOL0     C19640   5.914   4.151   0.694  0.1632  1.1493 -0.0724
  907MOL0     C19641   6.036   4.102   0.661 -0.6846  0.5435 -1.1586
  907MOL0     N19642   6.775   3.798   0.285  0.0351 -0.5526 -0.2090
  907MOL0     N19643   6.759   3.665   0.273  0.0351 -1.1063 -0.7363
  907MOL0     C19644   5.754   3.831   0.582  0.3966  0.1424 -0.7134
  907MOL0     C19645   5.636   3.887   0.544  0.1733 -0.3062  0.0420
  907MOL0     C19646   5.262   3.992   0.349  0.2851 -0.1072 -0.1071
  907MOL0     C19647   5.132   3.955   0.377 -0.7636 -0.1756  0.0203
  907MOL0     C19648   5.025   4.041   0.351 -0.2986  0.3816 -0.1693
  907MOL0     C19649   5.040   4.160   0.281  0.2024 -1.7669 -0.6953
  907MOL0     O19650   4.922   4.227   0.250  0.3416  0.3522  0.5308
  907MOL0     C19651   4.933   4.357   0.193  0.8145 -0.3663 -0.7074
  907MOL0     C19652   4.833   4.458   0.254  0.3115 -1.0959  0.6602
  907MOL0     C19653   4.894   4.596   0.257  0.5269 -0.7874 -0.3324
  907MOL0     C19654   4.792   4.697   0.321 -0.0439  0.2180  0.3013
  907MOL0     C19655   4.802   4.827   0.263 -0.6906 -0.7655  0.3358
  907MOL0     C19656   4.812   4.942   0.226  0.6299  0.1705 -0.4356
  907MOL0     C19657   5.175   4.194   0.252 -0.4834  0.1607 -0.2320
  907MOL0     C19658   5.284   4.114   0.286 -0.3357  0.5680 -0.4433
  907MOL0     H19659   5.697   3.877   0.209 -1.6083 -0.6946 -0.6421
  907MOL0     H19660   5.883   3.723   0.295  0.7234 -2.4775  0.6901
  907MOL0     H19661   5.923   3.649   0.743  0.7298  1.7448  2.0917
  907MOL0     H19662   6.006   3.806   0.713 -0.3625 -0.5378  1.1005
  907MOL0     H19663   6.158   3.619   0.790  1.1447 -3.3801 -0.5221
  907MOL0     H19664   6.211   3.701   0.640  1.5318 -1.1411 -0.2278
  907MOL0     H19665   6.113   3.492   0.522 -3.5729  0.8190  0.7822
  907MOL0     H19666   6.049   3.442   0.677 -0.9918  2.2696  0.9782
  907MOL0     H19667   6.309   3.467   0.733  0.1565 -1.3695  1.3077
  907MOL0     H19668   6.229   3.320   0.660 -1.5487  0.4986 -1.2607
  907MOL0     H19669   6.337   3.543   0.483 -1.6733  1.1669  1.8949
  907MOL0     H19670   6.351   3.365   0.460  1.2636 -0.7285 -0.0533
  907MOL0     H19671   6.511   3.372   0.653 -2.3576  0.2625  0.9118
  907MOL0     H19672   6.543   3.539   0.628  2.4148 -2.3214  2.0194
  907MOL0     H19673   6.718   3.413   0.504 -1.1605 -2.8389  1.4807
  907MOL0     H19674   6.602   3.312   0.429 -2.2388 -0.5181  1.1259
  907MOL0     H19675   6.492   3.500   0.313 -0.1187 -3.4630 -1.9626
  907MOL0     H19676   6.631   3.439   0.249 -2.5200 -1.5252  0.1861
  907MOL0     H19677   6.516   3.741   0.471  1.4191 -0.7543  0.6669
  907MOL0     H19678   6.663   4.048   0.299 -0.9214  2.1497  0.0278
  907MOL0     H19679   6.671   4.029   0.477 -0.5068  1.7717 -0.9344
  907MOL0     H19680   6.419   3.938   0.442  1.4561  1.4482  2.1302
  907MOL0     H19681   6.441   3.997   0.273 -1.3481 -2.3613 -0.1171
  907MOL0     H19682   6.512   4.144   0.535  0.1111  0.1453  0.2227
  907MOL0     H19683   6.514   4.199   0.375  0.7179 -0.9348 -1.0011
  907MOL0     H19684   6.271   4.188   0.333 -2.2175  0.9764  1.7404
  907MOL0     H19685   6.304   4.281   0.482  1.5154  0.3513  0.7955
  907MOL0     H19686   6.063   4.225   0.351  1.4504  1.7264  0.6890
  907MOL0     H19687   5.840   4.324   0.423 -0.3182 -1.0180 -0.3617
  907MOL0     H19688   5.428   4.313   0.410 -2.2946  1.2199 -0.2800
  907MOL0     H19689   5.197   4.429   0.442 -0.5896 -2.7843 -0.6705
  907MOL0     H19690   5.050   4.468   0.832  1.9000 -1.2958 -0.3419
  907MOL0     H19691   5.054   4.383   0.673 -1.6737  0.5068 -3.4439
  907MOL0     H19692   4.820   4.448   0.740 -2.2068 -0.3430 -1.0935
  907MOL0     H19693   4.883   4.525   0.582  2.5548  1.9040  0.3970
  907MOL0     H19694   4.946   4.720   0.749  0.2004 -0.6541  1.9927
  907MOL0     H19695   4.859   4.634   0.867 -2.7750 -0.6533 -1.2637
  907MOL0     H19696   4.734   4.746   0.616 -1.1330 -1.1252 -0.6179
  907MOL0     H19697   4.641   4.656   0.739  0.2995  0.4944  0.8138
  907MOL0     H19698   4.608   4.874   0.778 -1.4975 -2.2187  1.4978
  907MOL0     H19699   4.781   4.919   0.798  0.2691 -0.3613 -0.9522
  907MOL0     H19700   4.639   4.902   1.018 -1.6496  1.4930 -2.1582
  907MOL0     H19701   4.786   4.808   1.018 -0.4971 -1.8336  1.0791
  907MOL0     H19702   4.500   4.719   0.953  0.0875 -1.6863 -0.4543
  907MOL0     H19703   4.640   4.609   0.973  0.6329  0.9878  0.7202
  907MOL0     H19704   4.507   4.604   1.177  1.5847 -2.3219 -0.2334
  907MOL0     H19705   4.531   4.779   1.195  0.4565  0.4969 -0.3097
  907MOL0     H19706   5.349   4.587   0.816 -0.5406 -1.0055  0.8855
  907MOL0     H19707   5.566   4.484   0.771  2.4672  1.5147 -2.4391
  907MOL0     H19708   5.862   4.134   0.788  0.6350 -0.0579 -0.0130
  907MOL0     H19709   6.092   4.045   0.734  3.0265 -0.1526 -4.2267
  907MOL0     H19710   5.754   3.822   0.690  0.5607  1.6298 -0.5748
  907MOL0     H19711   5.564   3.937   0.608  0.5452  2.3692 -1.4951
  907MOL0     H19712   5.125   3.858   0.425  2.0106 -2.6430 -3.8813
  907MOL0     H19713   4.927   4.031   0.397  0.3353 -0.4138  1.0731
  907MOL0     H19714   4.907   4.354   0.087 -2.0880  1.1389 -0.1609
  907MOL0     H19715   5.031   4.402   0.212 -0.8513  3.0520  0.6487
  907MOL0     H19716   4.741   4.451   0.195  0.7385 -2.5305  0.1053
  907MOL0     H19717   4.817   4.430   0.359 -0.4488 -1.1455  0.5327
  907MOL0     H19718   4.915   4.631   0.156 -1.1165  0.9675 -0.1263
  907MOL0     H19719   4.985   4.608   0.317 -0.5026  3.0571  0.7145
  907MOL0     H19720   4.688   4.674   0.299 -0.9088  5.1362 -2.0999
  907MOL0     H19721   4.822   4.696   0.426  0.9775 -0.4213  0.0235
  907MOL0     H19722   4.828   5.038   0.182  2.4897  0.2835  0.4025
  907MOL0     H19723   5.188   4.276   0.181  1.1038  0.1245 -0.0099
  907MOL0     H19724   5.384   4.147   0.257 -0.1432  2.4133  1.9891
  908MOL0     O19725   4.778   3.782   5.947  0.1644  0.4244  0.5749
  908MOL0     C19726   4.810   3.661   5.946  0.1928 -0.7391 -0.1631
  908MOL0     O19727   4.727   3.559   5.954  0.3873  0.1305  0.7160
  908MOL0     C19728   4.597   3.571   5.899 -0.3414 -0.5395 -0.8224
  908MOL0     C19729   4.490   3.516   5.970  0.7936  0.0946  0.2719
  908MOL0     C19730   4.353   3.531   5.923  0.2395 -0.1686  0.2533
  908MOL0     C19731   4.323   3.596   5.806 -0.0666 -1.6846 -0.5170
  908MOL0     O19732   4.202   3.592   5.738 -0.2503 -0.0108  0.3236
  908MOL0     C19733   4.115   3.474   5.745 -0.7508 -0.1498 -0.2925
  908MOL0     C19734   4.013   3.494   5.854 -0.2158  0.6835 -0.3006
  908MOL0     C19735   3.891   3.576   5.813 -0.4739  0.8975  0.6952
  908MOL0     C19736   3.943   3.723   5.785  0.1561  0.0840  0.0010
  908MOL0     C19737   3.834   3.815   5.745 -0.8145  0.2340 -0.6211
  908MOL0     C19738   3.858   3.969   5.783 -0.9437 -0.0568 -0.0487
  908MOL0     C19739   3.860   4.010   5.927 -0.0596  0.3476 -0.3987
  908MOL0     C19740   3.975   4.099   5.978  0.1036 -0.3036  0.0174
  908MOL0     N19741   3.971   4.227   5.900  0.4606  0.5302 -0.0570
  908MOL0     C19742   3.936   4.349   5.937  0.3959 -0.8934 -0.1564
  908MOL0     C19743   3.958   4.428   5.824 -0.0090  0.8420  0.3070
  908MOL0     C19744   3.928   4.578   5.801  0.1177  0.0922 -0.0295
  908MOL0     C19745   3.812   4.582   5.697 -0.7298 -0.0555  0.4336
  908MOL0     C19746   3.756   4.728   5.697 -0.1113 -0.3052  0.1280
  908MOL0     C19747   3.626   4.733   5.606  0.7599  0.3761  0.0945
  908MOL0     O19748   3.569   4.864   5.632  1.1161 -0.7485 -1.0898
  908MOL0     C19749   3.482   4.916   5.541  0.2439 -0.0978 -0.1430
  908MOL0     C19750   3.354   4.942   5.587 -0.2033 -0.0794  0.0387
  908MOL0     C19751   3.252   4.973   5.495  0.5823  0.3415 -0.1692
  908MOL0     C19752   3.282   4.974   5.358 -0.7315  0.1074 -0.3731
  908MOL0     C19753   3.165   4.981   5.268 -0.0300  0.0123 -0.1348
  908MOL0     O19754   3.045   5.005   5.321 -0.4122 -0.3973 -0.0272
  908MOL0     C19755   2.931   5.010   5.250  0.8632 -0.2544  0.8508
  908MOL0     C19756   2.919   5.046   5.112  0.5960  0.0003 -0.0622
  908MOL0     C19757   2.796   5.054   5.051  0.1103 -0.4936 -0.5166
  908MOL0     C19758   2.677   5.029   5.121  0.5461 -0.2204  0.9319
  908MOL0     O19759   2.557   5.020   5.047 -0.1069 -0.3046  0.4802
  908MOL0     C19760   2.433   5.015   5.106 -0.6940  1.2245  0.5186
  908MOL0     C19761   2.344   4.940   5.017 -0.2138 -0.5244 -0.6718
  908MOL0     C19762   2.316   5.014   4.893  0.3047 -0.8263  0.1118
  908MOL0     C19763   2.220   4.950   4.786 -0.8638  0.3755  0.0775
  908MOL0     C19764   2.208   5.028   4.663 -0.0226  0.1928  0.1082
  908MOL0     C19765   2.094   4.957   4.594 -0.0078  0.0118 -0.0867
  908MOL0     C19766   2.059   5.020   4.462  0.3579 -0.4822 -0.5840
  908MOL0     C19767   1.921   4.982   4.426  0.0673 -0.0142 -0.4525
  908MOL0    Cl19768   1.900   4.808   4.408 -0.4175  0.0294  0.2592
  908MOL0     C19769   2.680   4.995   5.259  0.0083 -0.0132  0.5266
  908MOL0     C19770   2.808   4.991   5.315  0.7039  0.6199 -0.7974
  908MOL0     O19771   3.182   4.950   5.149  0.2763 -0.3293  0.1145
  908MOL0     C19772   3.414   4.949   5.311  0.4077 -0.4836  0.2818
  908MOL0     C19773   3.512   4.935   5.406  0.4605  0.3080  1.2164
  908MOL0     N19774   4.027   4.349   5.737  0.1769 -0.3574  0.0517
  908MOL0     N19775   4.045   4.245   5.790  0.0253  0.7728  0.6610
  908MOL0     C19776   4.433   3.662   5.741  0.1606  0.4926 -0.0761
  908MOL0     C19777   4.563   3.645   5.785 -0.5951 -0.1440 -0.0787
  908MOL0     C19778   4.950   3.631   5.928 -0.7751  0.2010 -0.4809
  908MOL0     C19779   5.055   3.732   5.926 -1.0597  0.0988  0.3599
  908MOL0     C19780   5.191   3.694   5.906 -0.1527  0.3175 -0.3116
  908MOL0     C19781   5.227   3.559   5.916  0.2394  0.5989 -0.3578
  908MOL0     O19782   5.358   3.506   5.896 -0.4237 -0.6342  0.6298
  908MOL0     C19783   5.469   3.598   5.895 -1.1137 -0.0042  0.3607
  908MOL0     C19784   5.586   3.517   5.959 -0.2856  0.3872 -0.3874
  908MOL0     C19785   5.657   3.403   5.874  0.6406 -0.7228  0.2037
  908MOL0     C19786   5.726   3.296   5.951 -0.7727  0.5077  0.4609
  908MOL0     C19787   5.844   3.336   6.030 -0.8415  0.1033  1.1526
  908MOL0     C19788   5.961   3.366   6.080 -0.0168  0.2908 -0.5467
  908MOL0     C19789   5.127   3.459   5.922  0.2587  0.0906  0.2669
  908MOL0     C19790   4.991   3.496   5.925  1.6249  0.0926 -0.3421
  908MOL0     H19791   4.509   3.446   6.051  0.4445 -2.1553 -1.4724
  908MOL0     H19792   4.276   3.497   5.991 -0.9800  0.9233 -0.5391
  908MOL0     H19793   4.182   3.393   5.775  1.3520  2.0646  1.4276
  908MOL0     H19794   4.076   3.451   5.646  1.7384 -2.2534 -0.8930
  908MOL0     H19795   4.058   3.558   5.930  0.1665  4.2629 -3.3009
  908MOL0     H19796   3.993   3.396   5.900  0.2600 -0.7049 -2.8725
  908MOL0     H19797   3.816   3.582   5.892 -0.2334  2.0635  0.8647
  908MOL0     H19798   3.850   3.533   5.721  0.1809 -0.2695  0.9325
  908MOL0     H19799   3.988   3.766   5.875 -2.0862  0.0467  1.2032
  908MOL0     H19800   4.025   3.737   5.714  0.8673  2.6494  1.1994
  908MOL0     H19801   3.739   3.780   5.787 -0.9498  1.9299  0.6112
  908MOL0     H19802   3.826   3.809   5.636  1.0959  1.0042 -0.8278
  908MOL0     H19803   3.779   4.031   5.740 -0.4961  0.1358 -0.6099
  908MOL0     H19804   3.954   4.002   5.742 -1.0267  0.1863 -0.0488
  908MOL0     H19805   3.770   4.059   5.964  0.4814  1.3216 -0.3593
  908MOL0     H19806   3.874   3.915   5.979  3.5748  0.6230 -0.6434
  908MOL0     H19807   4.071   4.049   5.956  0.1104 -1.7389  2.8405
  908MOL0     H19808   3.985   4.122   6.084 -0.4492  1.7900 -0.3397
  908MOL0     H19809   3.900   4.376   6.036  2.0267  2.0997 -0.2626
  908MOL0     H19810   4.014   4.636   5.767  0.1301 -0.3079 -0.6985
  908MOL0     H19811   3.880   4.620   5.890 -0.0850 -1.1089  0.4488
  908MOL0     H19812   3.736   4.508   5.726 -3.6619  2.4422 -0.3492
  908MOL0     H19813   3.847   4.551   5.598 -0.6618  0.8118  0.1844
  908MOL0     H19814   3.728   4.754   5.799  1.9043  0.8896  0.4232
  908MOL0     H19815   3.826   4.806   5.666 -1.2743  1.4197  1.6417
  908MOL0     H19816   3.557   4.649   5.623  1.3964  0.0321  1.0812
  908MOL0     H19817   3.662   4.739   5.503  1.2958 -1.1284  0.1647
  908MOL0     H19818   3.344   4.949   5.695  3.6134  0.8544  0.4682
  908MOL0     H19819   3.157   5.017   5.525  1.6035  3.2865 -0.9399
  908MOL0     H19820   3.003   5.060   5.045 -1.3296  1.5858 -2.3422
  908MOL0     H19821   2.795   5.081   4.946  1.8899  2.6021  0.1496
  908MOL0     H19822   2.388   5.114   5.110 -0.7681  1.1786  0.8667
  908MOL0     H19823   2.438   4.974   5.208  1.7108  2.2843  0.8971
  908MOL0     H19824   2.261   4.931   5.088  1.4551 -0.0256  1.4539
  908MOL0     H19825   2.375   4.835   5.012  0.1936 -0.8275  3.8349
  908MOL0     H19826   2.411   5.041   4.847  0.0509  0.2337  0.1803
  908MOL0     H19827   2.257   5.099   4.929  0.5638 -1.3682  1.9422
  908MOL0     H19828   2.255   4.854   4.745 -1.0974 -0.0824  0.9337
  908MOL0     H19829   2.124   4.921   4.829 -0.4989  0.9485  1.3154
  908MOL0     H19830   2.298   5.017   4.602 -0.9470  1.4257 -1.5406
  908MOL0     H19831   2.182   5.133   4.682 -0.6864  0.2793 -1.2032
  908MOL0     H19832   2.006   4.969   4.657 -0.5696  2.3278 -1.1898
  908MOL0     H19833   2.113   4.850   4.581 -0.5065 -0.1200  0.2646
  908MOL0     H19834   2.058   5.129   4.471 -0.3074 -0.6087  1.4043
  908MOL0     H19835   2.139   4.999   4.391  2.6211  0.6681  1.4683
  908MOL0     H19836   1.889   5.038   4.338 -4.1693 -0.1398  0.7779
  908MOL0     H19837   1.855   5.015   4.507  1.4925  2.1115 -0.0719
  908MOL0     H19838   2.596   4.958   5.318 -0.3697 -1.0384 -0.6057
  908MOL0     H19839   2.807   4.963   5.419 -2.2742  2.7062 -0.1202
  908MOL0     H19840   3.446   4.952   5.208 -0.3592  1.2518  0.0583
  908MOL0     H19841   3.615   4.913   5.380 -0.5468 -1.5205 -1.7439
  908MOL0     H19842   4.428   3.722   5.650  0.8418 -1.0626 -1.1780
  908MOL0     H19843   4.654   3.686   5.742 -1.1462 -0.0995 -1.2525
  908MOL0     H19844   5.042   3.839   5.935 -0.2570  0.3972 -1.5263
  908MOL0     H19845   5.261   3.773   5.880 -0.5401  0.7902  0.0646
  908MOL0     H19846   5.447   3.695   5.940 -0.0410  0.5924 -0.3526
  908MOL0     H19847   5.501   3.611   5.791 -1.1436 -1.2171  0.1796
  908MOL0     H19848   5.656   3.586   6.007 -0.6069  1.0914 -0.9144
  908MOL0     H19849   5.543   3.471   6.049  1.4739  2.3545  1.6047
  908MOL0     H19850   5.735   3.438   5.806  2.6296 -5.4005 -0.2768
  908MOL0     H19851   5.573   3.360   5.819  0.8035  0.1527 -0.7519
  908MOL0     H19852   5.653   3.240   6.011  2.6382 -3.9707  1.0143
  908MOL0     H19853   5.761   3.226   5.875  1.3123  0.1040  1.7047
  908MOL0     H19854   6.047   3.377   6.143  0.1100 -1.9855 -0.2638
  908MOL0     H19855   5.156   3.354   5.920  5.9588  1.3221 -0.7798
  908MOL0     H19856   4.924   3.413   5.938  2.5064 -0.3971  1.5137
  909MOL0     O19857   1.254   2.157   8.904 -0.4289  0.2890  0.7906
  909MOL0     C19858   1.329   2.074   8.952 -0.1793 -0.5659 -0.9538
  909MOL0     O19859   1.434   2.011   8.895  0.0259  0.1307  1.0828
  909MOL0     C19860   1.449   1.997   8.758 -0.4043  0.0887  0.3570
  909MOL0     C19861   1.578   1.967   8.713  0.1520 -0.4711 -0.9932
  909MOL0     C19862   1.607   1.956   8.582  0.6832  0.3926 -0.4119
  909MOL0     C19863   1.514   1.963   8.487  0.1259  0.1308 -1.0473
  909MOL0     O19864   1.533   1.930   8.357  0.0112  0.0621 -0.4467
  909MOL0     C19865   1.594   1.809   8.327 -0.3828  0.5418 -0.9130
  909MOL0     C19866   1.541   1.779   8.182  0.4590  0.3157 -0.7507
  909MOL0     C19867   1.386   1.785   8.162 -0.7326  0.5141  0.4900
  909MOL0     C19868   1.326   1.649   8.206 -0.2706  0.1224 -0.7508
  909MOL0     C19869   1.172   1.670   8.206 -0.1897 -0.2197  0.4606
  909MOL0     C19870   1.091   1.548   8.243 -0.5482  0.3657 -0.0910
  909MOL0     C19871   0.941   1.552   8.191  0.2302 -0.8175 -0.4223
  909MOL0     C19872   0.864   1.428   8.227  0.0537 -0.4740 -0.7288
  909MOL0     N19873   0.742   1.421   8.156  1.0673 -0.7087 -0.5617
  909MOL0     C19874   0.615   1.426   8.224 -0.3322  0.2920  0.8891
  909MOL0     C19875   0.526   1.378   8.140  0.2789  0.7132 -0.0020
  909MOL0     C19876   0.369   1.372   8.156  0.5158  0.4762 -0.3623
  909MOL0     C19877   0.316   1.295   8.267  0.4820  0.2869  0.5511
  909MOL0     C19878   0.345   1.138   8.266  0.3215 -0.2587  1.0108
  909MOL0     C19879   0.252   1.059   8.362 -0.5455 -0.4748  0.9960
  909MOL0     O19880   0.282   0.917   8.366  0.5033 -0.5226  0.5465
  909MOL0     C19881   0.195   0.836   8.445 -0.2117 -0.0800 -0.3667
  909MOL0     C19882   0.228   0.698   8.451  0.6771  0.3474  0.6210
  909MOL0     C19883   0.148   0.603   8.525 -0.2870  0.3300  0.3187
  909MOL0     C19884   0.037   0.648   8.595 -1.6134  0.3230 -0.8666
  909MOL0     C19885  -0.035   0.551   8.685  0.7200  0.0631  0.0881
  909MOL0     O19886  -0.141   0.603   8.746  0.5245 -0.1382 -0.0078
  909MOL0     C19887  -0.226   0.534   8.823  0.3974 -0.9638 -0.1643
  909MOL0     C19888  -0.181   0.502   8.951  0.4174 -1.2403  0.5496
  909MOL0     C19889  -0.253   0.418   9.034 -0.7667  0.4328  0.2945
  909MOL0     C19890  -0.378   0.376   8.987  0.8949 -0.7884 -0.9171
  909MOL0     O19891  -0.463   0.311   9.082 -0.0713 -0.2963  0.7560
  909MOL0     C19892  -0.584   0.234   9.043  0.7048  0.1752  0.3653
  909MOL0     C19893  -0.650   0.195   9.174  0.9476  0.1994  0.2984
  909MOL0     C19894  -0.803   0.160   9.152 -0.1065 -0.4528  0.6105
  909MOL0     C19895  -0.873   0.142   9.288  0.3550  0.1829  0.7462
  909MOL0     C19896  -1.023   0.126   9.277 -0.1334  0.2395  0.1031
  909MOL0     C19897  -1.096   0.258   9.268  0.6144  0.4585  0.2903
  909MOL0     C19898  -1.247   0.246   9.275  0.6990  0.1099 -0.1659
  909MOL0     C19899  -1.307   0.207   9.411 -0.7768  0.2598 -1.0312
  909MOL0    Cl19900  -1.476   0.155   9.389  0.0535  0.1501 -0.3968
  909MOL0     C19901  -0.430   0.412   8.858  0.1919  0.1157 -0.9079
  909MOL0     C19902  -0.347   0.488   8.780 -0.1026 -0.2167 -0.0997
  909MOL0     O19903  -0.006   0.431   8.692  0.2045  0.2798 -0.5627
  909MOL0     C19904   0.007   0.782   8.585  0.2662 -0.4541  0.2553
  909MOL0     C19905   0.087   0.874   8.517  0.1138  0.4259 -0.2718
  909MOL0     N19906   0.586   1.341   8.024 -0.2995  0.1337 -0.7119
  909MOL0     N19907   0.717   1.372   8.032  0.1307 -1.0258 -0.5140
  909MOL0     C19908   1.391   2.004   8.528 -0.5313  0.3838 -0.1436
  909MOL0     C19909   1.349   2.014   8.664 -0.7319  0.1328 -0.4349
  909MOL0     C19910   1.327   2.059   9.095 -0.0999  0.4799  0.2099
  909MOL0     C19911   1.433   1.988   9.152  0.1002  0.2656 -0.3389
  909MOL0     C19912   1.431   1.967   9.288  0.0137 -0.7201  0.1127
  909MOL0     C19913   1.337   2.038   9.375  0.0328 -0.0408 -0.3884
  909MOL0     O19914   1.354   2.008   9.506 -0.1916  0.1261  0.1224
  909MOL0     C19915   1.321   2.110   9.602 -0.2108  1.4282 -0.0522
  909MOL0     C19916   1.267   2.051   9.727 -0.2254  0.3740 -0.2271
  909MOL0     C19917   1.376   1.970   9.799 -0.2112 -0.5151  0.9932
  909MOL0     C19918   1.470   2.063   9.887  0.4220  0.0285  1.0648
  909MOL0     C19919   1.419   2.077  10.018  0.2224 -0.3903  0.3222
  909MOL0     C19920   1.382   2.095  10.135 -0.1139 -1.0989  0.6893
  909MOL0     C19921   1.232   2.101   9.308  0.4129  0.3034  0.2306
  909MOL0     C19922   1.229   2.121   9.170 -0.1553 -0.4209 -0.4363
  909MOL0     H19923   1.654   1.953   8.790 -2.3508  0.2725  1.7681
  909MOL0     H19924   1.707   1.921   8.556 -0.0599 -0.3987 -2.3165
  909MOL0     H19925   1.569   1.727   8.395 -2.6774  1.5978 -0.3849
  909MOL0     H19926   1.703   1.813   8.316 -0.3323 -2.0100 -1.9492
  909MOL0     H19927   1.569   1.675   8.165  2.6439  0.5662  0.9411
  909MOL0     H19928   1.597   1.846   8.115 -0.7697  0.3852 -1.7615
  909MOL0     H19929   1.360   1.802   8.057 -0.3700 -0.6878  0.1955
  909MOL0     H19930   1.346   1.866   8.223  0.6669 -0.8707  3.4098
  909MOL0     H19931   1.352   1.566   8.140 -0.5389 -1.1583  0.7089
  909MOL0     H19932   1.356   1.619   8.307  3.5293 -0.4753 -1.8995
  909MOL0     H19933   1.148   1.690   8.102 -0.6037  1.7971  0.9013
  909MOL0     H19934   1.148   1.758   8.267 -0.4300  1.1766 -1.5571
  909MOL0     H19935   1.087   1.552   8.352  0.7749  0.2625 -0.0141
  909MOL0     H19936   1.140   1.459   8.201 -2.4791 -0.9942  0.4113
  909MOL0     H19937   0.901   1.641   8.240  0.6248 -0.4549 -0.7566
  909MOL0     H19938   0.940   1.561   8.082  1.9125  3.0169 -0.2584
  909MOL0     H19939   0.861   1.423   8.336  0.8264  1.1985 -0.5950
  909MOL0     H19940   0.933   1.346   8.203  2.2386  0.9790  0.2334
  909MOL0     H19941   0.582   1.445   8.325 -1.2683  1.6940  0.3564
  909MOL0     H19942   0.324   1.332   8.064  1.6139 -2.9355  0.4403
  909MOL0     H19943   0.325   1.473   8.159 -5.2250 -1.6681  0.2598
  909MOL0     H19944   0.208   1.304   8.254 -0.0504 -2.2170  2.4100
  909MOL0     H19945   0.344   1.338   8.364  0.3052  0.5262  0.4960
  909MOL0     H19946   0.333   1.109   8.161  4.1383  1.1892 -0.0157
  909MOL0     H19947   0.444   1.110   8.305  1.0608  1.5840  0.5717
  909MOL0     H19948   0.152   1.077   8.322  0.5145  2.9788 -0.4036
  909MOL0     H19949   0.259   1.092   8.466  2.3797 -0.9191  1.0464
  909MOL0     H19950   0.316   0.670   8.393  1.3772  3.5297 -0.0839
  909MOL0     H19951   0.178   0.499   8.525  0.5759  0.5459 -1.1206
  909MOL0     H19952  -0.089   0.544   8.990  1.1559 -0.8591 -1.4842
  909MOL0     H19953  -0.225   0.395   9.136 -2.9061 -0.2785  0.7906
  909MOL0     H19954  -0.549   0.150   8.982 -0.7884  1.1138 -1.9272
  909MOL0     H19955  -0.655   0.302   8.996  0.8911 -0.0924 -0.3143
  909MOL0     H19956  -0.656   0.281   9.242 -0.2914  0.9495 -0.7091
  909MOL0     H19957  -0.592   0.122   9.231 -0.2491  1.3699  3.2666
  909MOL0     H19958  -0.800   0.077   9.081 -1.2698 -2.0138  2.2807
  909MOL0     H19959  -0.835   0.249   9.096  1.4003  0.8211  1.6778
  909MOL0     H19960  -0.839   0.046   9.326  0.2996  0.0228  0.3942
  909MOL0     H19961  -0.851   0.221   9.360  1.7778  0.3814  0.1352
  909MOL0     H19962  -1.050   0.065   9.363  1.9436 -1.6608 -0.5010
  909MOL0     H19963  -1.045   0.062   9.191  1.9302 -2.3481  1.3685
  909MOL0     H19964  -1.068   0.308   9.175 -0.8091 -3.1915 -2.3465
  909MOL0     H19965  -1.059   0.318   9.351  0.5943 -1.9310  2.1548
  909MOL0     H19966  -1.289   0.345   9.253 -0.3139 -0.2468  0.1140
  909MOL0     H19967  -1.274   0.171   9.200  0.0784  2.1075 -2.0437
  909MOL0     H19968  -1.299   0.288   9.484 -0.0769  1.1012 -2.0089
  909MOL0     H19969  -1.250   0.127   9.459  1.3352  0.8118 -2.4578
  909MOL0     H19970  -0.534   0.392   8.833  0.2709 -1.6166 -0.0123
  909MOL0     H19971  -0.381   0.518   8.681 -1.1239 -1.0645 -0.0351
  909MOL0     H19972  -0.076   0.821   8.643  1.9831  0.7654  2.0264
  909MOL0     H19973   0.064   0.980   8.512  0.1416  0.4304 -0.3092
  909MOL0     H19974   1.331   1.999   8.438  2.5991 -0.1122 -2.3868
  909MOL0     H19975   1.250   2.045   8.695  0.1324 -0.4664  3.3938
  909MOL0     H19976   1.503   1.927   9.096 -0.8512 -2.9430  1.7462
  909MOL0     H19977   1.506   1.913   9.344 -0.7911 -0.6939  1.2517
  909MOL0     H19978   1.236   2.170   9.570 -0.8560  0.3183 -0.4626
  909MOL0     H19979   1.413   2.165   9.624  3.5770 -3.6641 -1.0858
  909MOL0     H19980   1.226   2.124   9.796 -4.7894 -1.3378 -0.7486
  909MOL0     H19981   1.185   1.983   9.701 -2.1323  2.3263  0.4228
  909MOL0     H19982   1.426   1.915   9.719  0.7396  0.7764  0.6816
  909MOL0     H19983   1.343   1.883   9.858  0.5413  0.1157  2.3876
  909MOL0     H19984   1.567   2.013   9.895 -0.2515 -1.0114  3.2857
  909MOL0     H19985   1.480   2.162   9.841  2.0092 -0.9886 -0.9475
  909MOL0     H19986   1.350   2.104  10.237  0.1236 -0.4098  0.7101
  909MOL0     H19987   1.161   2.148   9.376  1.9490  0.5936  1.7049
  909MOL0     H19988   1.145   2.168   9.120 -0.0644 -0.3429 -0.5162
  910MOL0     O19989   8.169   6.180   6.507  0.1228 -0.3208  0.2608
  910MOL0     C19990   8.213   6.109   6.418 -0.8419  0.2793 -0.0751
  910MOL0     O19991   8.138   6.045   6.318 -0.1516 -0.1720  0.0375
  910MOL0     C19992   8.001   6.071   6.319  0.8196  0.5767 -0.1450
  910MOL0     C19993   7.925   6.053   6.433  0.3719  0.0908  0.4287
  910MOL0     C19994   7.786   6.074   6.420 -0.0820  1.0653 -0.4239
  910MOL0     C19995   7.732   6.116   6.296  0.4449 -1.0310  0.3484
  910MOL0     O19996   7.605   6.165   6.306  0.6383  0.4780  0.1688
  910MOL0     C19997   7.595   6.294   6.248  0.4401 -0.1726  0.2991
  910MOL0     C19998   7.458   6.350   6.247  0.4626  0.2835 -0.0533
  910MOL0     C19999   7.403   6.363   6.393  0.0136  0.1891 -0.3768
  910MOL0     C20000   7.272   6.455   6.387 -0.4709  0.2929  0.2734
  910MOL0     C20001   7.147   6.382   6.319  0.8892 -0.2009  0.1155
  910MOL0     C20002   7.016   6.468   6.338  0.2149 -0.5287 -0.1534
  910MOL0     C20003   7.008   6.585   6.234  0.0109  0.0627  0.1075
  910MOL0     C20004   6.882   6.673   6.257  0.2603 -0.4211  0.2700
  910MOL0     N20005   6.745   6.616   6.225 -0.2624  1.0115 -0.1809
  910MOL0     C20006   6.645   6.662   6.142  0.0490  0.6065  0.5372
  910MOL0     C20007   6.539   6.580   6.172  1.3120 -0.4411  0.7983
  910MOL0     C20008   6.400   6.599   6.117 -0.0693 -0.2398  0.4231
  910MOL0     C20009   6.346   6.725   6.191 -0.4587  0.1590  0.3191
  910MOL0     C20010   6.213   6.790   6.132 -0.1786 -0.3429 -0.0119
  910MOL0     C20011   6.092   6.695   6.148  0.0079 -0.0465  0.2647
  910MOL0     O20012   6.021   6.722   6.031 -0.8195 -0.1376 -0.3817
  910MOL0     C20013   5.905   6.656   6.012 -0.3753  0.1472 -0.5699
  910MOL0     C20014   5.907   6.517   6.014  0.5405 -0.3971 -0.4501
  910MOL0     C20015   5.788   6.443   5.995 -0.0617 -0.2698  0.8587
  910MOL0     C20016   5.673   6.508   5.935 -0.7526  0.7635  0.2947
  910MOL0     C20017   5.557   6.440   5.877  0.0337  0.8943  0.1282
  910MOL0     O20018   5.447   6.514   5.839  0.4194 -0.0838  0.6177
  910MOL0     C20019   5.359   6.446   5.754  0.4564  0.2526 -0.0908
  910MOL0     C20020   5.222   6.425   5.788 -0.6444  0.4760 -0.2001
  910MOL0     C20021   5.130   6.357   5.704  0.3889 -0.4156 -1.1390
  910MOL0     C20022   5.176   6.304   5.583  0.4337 -0.9267  0.3786
  910MOL0     O20023   5.082   6.259   5.494  0.2538  0.1185  0.4783
  910MOL0     C20024   5.119   6.156   5.403  0.1458  1.2820 -0.6295
  910MOL0     C20025   5.013   6.099   5.315 -0.7469 -0.9543 -0.1173
  910MOL0     C20026   4.947   6.212   5.232 -0.6015  0.3451 -0.2867
  910MOL0     C20027   4.843   6.150   5.138 -0.7898  0.1177  0.3343
  910MOL0     C20028   4.786   6.247   5.052 -0.0906 -0.7089 -0.9550
  910MOL0     C20029   4.669   6.325   5.122 -0.8395 -0.6655  0.8776
  910MOL0     C20030   4.607   6.418   5.021  0.2425  0.3180  0.0790
  910MOL0     C20031   4.485   6.493   5.074  0.1617  0.1609 -0.4559
  910MOL0    Cl20032   4.545   6.601   5.204 -0.0061 -0.7724  0.1451
  910MOL0     C20033   5.315   6.323   5.550 -0.4821  0.1961 -0.0721
  910MOL0     C20034   5.403   6.385   5.632  0.4062 -0.7736  0.2418
  910MOL0     O20035   5.549   6.318   5.887 -0.6192 -0.2160 -0.5907
  910MOL0     C20036   5.678   6.653   5.928  0.2216  0.0356 -0.6568
  910MOL0     C20037   5.790   6.722   5.981 -0.0477 -0.0220  0.1796
  910MOL0     N20038   6.572   6.500   6.271 -0.0759  1.0033 -0.3279
  910MOL0     N20039   6.700   6.512   6.301  0.0657 -0.0513  0.4874
  910MOL0     C20040   7.810   6.108   6.178 -0.1965 -0.7293  0.0342
  910MOL0     C20041   7.949   6.090   6.191  0.3882 -1.3645  0.4250
  910MOL0     C20042   8.363   6.081   6.430  0.6391  0.0747 -0.5341
  910MOL0     C20043   8.442   6.107   6.549 -0.6525  0.0730  0.6549
  910MOL0     C20044   8.581   6.071   6.543 -0.1314 -0.6882 -0.3668
  910MOL0     C20045   8.635   6.008   6.427  0.4689  0.2320  0.8358
  910MOL0     O20046   8.770   5.966   6.436 -0.1882 -0.3031 -0.3516
  910MOL0     C20047   8.851   5.913   6.328  0.0737 -0.5628  0.8936
  910MOL0     C20048   8.917   6.034   6.247 -0.4370  0.0474  0.1945
  910MOL0     C20049   8.944   5.996   6.100 -0.1569  1.4236  0.4269
  910MOL0     C20050   9.000   6.100   6.007  0.9165  0.5559 -0.2937
  910MOL0     C20051   9.030   6.045   5.882 -0.2858  0.3504  0.2981
  910MOL0     C20052   9.054   5.976   5.783 -0.6171 -1.1182  0.0583
  910MOL0     C20053   8.553   5.980   6.315 -0.1941 -0.4215 -0.5813
  910MOL0     C20054   8.418   6.015   6.316 -0.3107 -0.1080 -0.1153
  910MOL0     H20055   7.964   6.031   6.532 -2.0269  1.3438  1.7401
  910MOL0     H20056   7.725   6.077   6.509 -1.6589 -0.8747 -1.3564
  910MOL0     H20057   7.627   6.291   6.143  0.6921 -0.7476  0.3934
  910MOL0     H20058   7.662   6.352   6.312  0.4611 -0.5964  0.6632
  910MOL0     H20059   7.387   6.297   6.183 -0.1821 -0.4286  1.2170
  910MOL0     H20060   7.467   6.452   6.207  2.9145 -0.1469 -0.8039
  910MOL0     H20061   7.485   6.409   6.450  0.2389  2.2307 -2.2245
  910MOL0     H20062   7.364   6.266   6.423 -2.9266  0.6722 -2.2802
  910MOL0     H20063   7.247   6.483   6.489 -1.9243  1.3295 -0.3179
  910MOL0     H20064   7.292   6.551   6.337  1.2024 -0.8207 -1.3082
  910MOL0     H20065   7.126   6.286   6.367  0.0310  0.3407  0.8666
  910MOL0     H20066   7.168   6.366   6.212  0.4745 -1.6035  0.2229
  910MOL0     H20067   6.989   6.487   6.442 -0.2797  1.1272 -0.5462
  910MOL0     H20068   6.938   6.403   6.299 -0.8718  0.4667  0.3071
  910MOL0     H20069   7.099   6.645   6.245 -1.0332  1.4663  1.6073
  910MOL0     H20070   7.000   6.541   6.134 -0.2361  1.7703 -0.6688
  910MOL0     H20071   6.905   6.756   6.190  1.8438 -4.0069 -4.1818
  910MOL0     H20072   6.883   6.706   6.361 -1.3109 -2.4236  0.9934
  910MOL0     H20073   6.650   6.744   6.071 -1.7478 -0.7763 -1.2675
  910MOL0     H20074   6.332   6.515   6.135  0.2263 -0.9202 -1.4115
  910MOL0     H20075   6.410   6.611   6.009  0.6352  1.8168  0.6774
  910MOL0     H20076   6.425   6.800   6.201  1.5030 -1.7879  0.0817
  910MOL0     H20077   6.313   6.681   6.286 -2.4184 -2.7840 -1.5882
  910MOL0     H20078   6.200   6.889   6.177 -1.1803 -0.2005 -0.5909
  910MOL0     H20079   6.228   6.802   6.025 -5.5373  4.1278 -0.7262
  910MOL0     H20080   6.035   6.720   6.237 -0.6203 -2.5983  0.6623
  910MOL0     H20081   6.128   6.592   6.138 -1.0089 -0.2374 -2.1028
  910MOL0     H20082   6.001   6.464   6.025 -0.2943 -1.7458  0.4249
  910MOL0     H20083   5.785   6.334   5.990  1.7480 -0.3348  0.3423
  910MOL0     H20084   5.194   6.471   5.882  2.7006  0.9378  0.6870
  910MOL0     H20085   5.027   6.348   5.737  1.2840 -3.0902  1.3240
  910MOL0     H20086   5.172   6.082   5.464  1.8438  2.0056 -1.1719
  910MOL0     H20087   5.200   6.182   5.335  1.2795 -0.1765  0.1093
  910MOL0     H20088   4.940   6.053   5.381 -2.3090 -0.6030 -1.5355
  910MOL0     H20089   5.049   6.019   5.250 -1.3955  0.2440 -2.0394
  910MOL0     H20090   5.027   6.265   5.179 -0.4173 -0.6038 -0.9939
  910MOL0     H20091   4.904   6.276   5.310 -0.1407 -2.2384  2.2487
  910MOL0     H20092   4.895   6.067   5.088  0.6313 -0.4111  2.5057
  910MOL0     H20093   4.764   6.104   5.199 -1.9614 -0.1458 -1.3254
  910MOL0     H20094   4.743   6.189   4.969 -0.9256 -1.2663 -0.1544
  910MOL0     H20095   4.861   6.314   5.009 -0.6597  0.8344  0.3257
  910MOL0     H20096   4.723   6.381   5.199 -1.4030  0.4314  0.4811
  910MOL0     H20097   4.593   6.262   5.168 -0.5986 -2.3823 -0.9441
  910MOL0     H20098   4.684   6.494   5.007 -1.3409  2.4502  2.0290
  910MOL0     H20099   4.582   6.370   4.926 -0.3703  2.3926 -0.8771
  910MOL0     H20100   4.421   6.413   5.115  3.2533 -0.9561  2.6904
  910MOL0     H20101   4.430   6.550   4.999  3.4330  3.0932 -0.8544
  910MOL0     H20102   5.356   6.288   5.456 -1.0959  0.3502 -0.4018
  910MOL0     H20103   5.506   6.393   5.598  0.0740 -0.0014 -0.6262
  910MOL0     H20104   5.597   6.714   5.889  0.4379  1.9441  1.6211
  910MOL0     H20105   5.784   6.830   5.977 -1.7084 -0.1125 -0.4326
  910MOL0     H20106   7.773   6.137   6.081 -0.2401 -1.0549 -0.0474
  910MOL0     H20107   8.021   6.103   6.111  1.9340  1.0809  2.0943
  910MOL0     H20108   8.402   6.141   6.644  0.5951 -2.3168  2.1558
  910MOL0     H20109   8.641   6.089   6.632 -0.6182 -1.0358  0.0428
  910MOL0     H20110   8.800   5.837   6.268  2.2385 -0.8799 -0.6920
  910MOL0     H20111   8.928   5.852   6.378  0.0764  1.7363  3.9638
  910MOL0     H20112   8.856   6.125   6.245  0.5328  0.7019 -1.1859
  910MOL0     H20113   9.018   6.054   6.283  0.6994 -3.1191 -0.9011
  910MOL0     H20114   8.848   5.968   6.054  1.4152 -3.2617 -0.5428
  910MOL0     H20115   9.004   5.905   6.102 -1.9402  0.0200 -2.7944
  910MOL0     H20116   8.924   6.173   5.976 -2.8457 -2.4204  1.0902
  910MOL0     H20117   9.083   6.158   6.048  0.1947 -0.0057  2.1700
  910MOL0     H20118   9.070   5.918   5.694 -0.9840  1.3052 -1.6967
  910MOL0     H20119   8.594   5.918   6.236 -0.3834 -1.4918  0.1494
  910MOL0     H20120   8.365   5.986   6.225  0.3288  1.2570 -0.9377
  911MOL0     O20121   0.290   6.223   5.457  0.3272  0.3399 -1.1049
  911MOL0     C20122   0.257   6.266   5.355 -0.1467 -0.3223  0.8934
  911MOL0     O20123   0.314   6.226   5.243 -0.4554 -0.1230 -0.0964
  911MOL0     C20124   0.431   6.153   5.242 -0.6323 -1.0287  0.5313
  911MOL0     C20125   0.549   6.206   5.299  0.1804 -0.2208  0.1109
  911MOL0     C20126   0.666   6.142   5.284 -0.0890  0.4299 -0.7406
  911MOL0     C20127   0.677   6.026   5.209 -0.5559 -0.3641  0.7510
  911MOL0     O20128   0.796   5.968   5.196 -0.0926  0.1795  0.2671
  911MOL0     C20129   0.821   5.876   5.092 -0.2672 -0.1711 -0.3308
  911MOL0     C20130   0.967   5.869   5.050  1.0224  0.3988  0.7708
  911MOL0     C20131   0.986   5.758   4.943 -0.0604 -0.0065 -0.4376
  911MOL0     C20132   1.137   5.709   4.931  0.4616 -0.7645  0.0777
  911MOL0     C20133   1.164   5.625   4.813  0.2836 -0.6369  0.2571
  911MOL0     C20134   1.107   5.484   4.812 -0.6349 -0.4030 -0.8130
  911MOL0     C20135   1.143   5.393   4.700 -0.0069 -0.4125 -0.2653
  911MOL0     C20136   1.088   5.421   4.563  0.4269  0.3895 -0.3271
  911MOL0     N20137   1.153   5.542   4.498 -0.2433  0.1843 -0.2624
  911MOL0     C20138   1.289   5.564   4.474 -0.0977 -0.1605  0.0757
  911MOL0     C20139   1.282   5.689   4.425 -0.0028  1.0163  0.1847
  911MOL0     C20140   1.400   5.769   4.398 -0.3660  0.8456 -0.4162
  911MOL0     C20141   1.477   5.803   4.521 -1.4343  1.0493 -0.1768
  911MOL0     C20142   1.399   5.898   4.609 -0.3230 -0.2988 -0.2656
  911MOL0     C20143   1.459   5.931   4.745 -0.9812 -0.4179  0.7263
  911MOL0     O20144   1.472   5.810   4.815 -0.5272  0.5473  0.6710
  911MOL0     C20145   1.487   5.803   4.949 -0.1758 -0.2258 -0.9093
  911MOL0     C20146   1.480   5.900   5.050  0.0634  0.1525  0.7209
  911MOL0     C20147   1.515   5.874   5.180  0.6978 -0.6760 -0.7829
  911MOL0     C20148   1.576   5.752   5.212 -0.4567  0.7615 -0.0828
  911MOL0     C20149   1.636   5.750   5.339  0.1697  0.8838  0.4515
  911MOL0     O20150   1.689   5.628   5.370 -0.4121  0.0001 -0.7293
  911MOL0     C20151   1.781   5.606   5.474  0.1975 -0.3612 -0.5372
  911MOL0     C20152   1.873   5.503   5.445 -0.2944 -0.4256  1.0919
  911MOL0     C20153   1.957   5.465   5.543 -1.7219  0.0734  0.3731
  911MOL0     C20154   1.964   5.535   5.662  0.6299 -0.4750  0.1751
  911MOL0     O20155   2.051   5.519   5.759  0.2261  0.3803 -0.5672
  911MOL0     C20156   2.156   5.430   5.747  1.1795  0.3269 -0.0340
  911MOL0     C20157   2.252   5.459   5.855  0.3437  0.4697  0.5093
  911MOL0     C20158   2.365   5.351   5.832  0.6238  0.6178 -0.4297
  911MOL0     C20159   2.471   5.355   5.947  0.3860  0.0522 -0.4315
  911MOL0     C20160   2.562   5.232   5.934 -1.3906  0.3722 -0.3922
  911MOL0     C20161   2.654   5.268   5.820  0.1096  0.4385 -0.3594
  911MOL0     C20162   2.782   5.173   5.835  0.2375  0.0452 -0.0175
  911MOL0     C20163   2.864   5.161   5.709 -0.1416  0.0927  0.3016
  911MOL0    Cl20164   2.996   5.039   5.747  0.3160 -0.3153  0.5894
  911MOL0     C20165   1.859   5.622   5.701 -0.2686 -0.7790  0.0298
  911MOL0     C20166   1.767   5.663   5.602 -0.3048  0.0325 -0.5185
  911MOL0     O20167   1.653   5.854   5.404  0.4691 -0.1623  0.0418
  911MOL0     C20168   1.579   5.644   5.118 -0.7965 -0.0874 -0.5960
  911MOL0     C20169   1.533   5.673   4.992  0.3139  0.0898  0.2241
  911MOL0     N20170   1.154   5.749   4.427  0.2169 -0.1332  0.3303
  911MOL0     N20171   1.077   5.655   4.472 -0.2831 -0.0021  0.1615
  911MOL0     C20172   0.562   5.968   5.152 -0.4251  0.0635  0.1595
  911MOL0     C20173   0.444   6.035   5.162 -1.2541 -0.0657  0.0383
  911MOL0     C20174   0.134   6.352   5.337 -0.9394 -0.0786  0.1632
  911MOL0     C20175   0.085   6.428   5.447 -0.0258 -0.5714  0.6958
  911MOL0     C20176  -0.032   6.500   5.426 -0.7546 -0.7481  0.8502
  911MOL0     C20177  -0.098   6.517   5.309 -0.0077  0.2938 -0.7131
  911MOL0     O20178  -0.209   6.603   5.315 -0.7688  0.4441 -0.5065
  911MOL0     C20179  -0.303   6.583   5.213  0.6060  0.1177 -0.9011
  911MOL0     C20180  -0.441   6.642   5.254  0.8102 -0.7458 -0.9069
  911MOL0     C20181  -0.540   6.600   5.147 -0.4761 -0.3499  0.2193
  911MOL0     C20182  -0.685   6.636   5.191  0.6578  0.1650 -0.4132
  911MOL0     C20183  -0.794   6.606   5.096  0.0486  0.2336  0.1278
  911MOL0     C20184  -0.889   6.571   5.025 -0.0460 -0.2158  0.1705
  911MOL0     C20185  -0.056   6.444   5.201  0.9193  0.7024  0.1510
  911MOL0     C20186   0.067   6.364   5.209 -0.1764  0.9333 -0.2075
  911MOL0     H20187   0.544   6.303   5.348 -0.1220 -0.1190 -0.1175
  911MOL0     H20188   0.761   6.182   5.318 -0.0281 -0.2719 -0.0746
  911MOL0     H20189   0.765   5.901   5.002 -0.3788 -0.8781 -0.4669
  911MOL0     H20190   0.790   5.780   5.133 -2.4187  1.3145  1.7920
  911MOL0     H20191   1.021   5.840   5.140 -2.3752 -0.2689  2.7431
  911MOL0     H20192   1.002   5.966   5.015  0.3522  0.6612  0.8110
  911MOL0     H20193   0.960   5.806   4.848  0.1351 -0.3418 -0.6621
  911MOL0     H20194   0.920   5.675   4.967  0.4690 -0.8875 -1.8983
  911MOL0     H20195   1.197   5.800   4.919  1.5222 -1.4066  0.4273
  911MOL0     H20196   1.165   5.660   5.025  0.3024 -0.2089  0.4203
  911MOL0     H20197   1.271   5.620   4.795  0.2942 -0.2340  0.1884
  911MOL0     H20198   1.121   5.677   4.727 -0.8460 -1.9753 -0.0321
  911MOL0     H20199   0.999   5.471   4.827 -1.1337  0.2294 -3.2388
  911MOL0     H20200   1.160   5.435   4.894 -2.3439 -2.7034 -0.9679
  911MOL0     H20201   1.252   5.399   4.688  0.1190  0.8622  1.1280
  911MOL0     H20202   1.106   5.295   4.732 -2.1101  1.1609  2.6097
  911MOL0     H20203   0.981   5.443   4.566  1.2067  5.1399  0.7438
  911MOL0     H20204   1.105   5.336   4.495 -0.5782  0.2157 -0.3652
  911MOL0     H20205   1.371   5.499   4.502  0.2321  0.3173  0.2299
  911MOL0     H20206   1.380   5.856   4.336  1.0171  2.6717  1.5413
  911MOL0     H20207   1.466   5.711   4.333 -0.0541  2.8271 -1.9617
  911MOL0     H20208   1.576   5.839   4.490 -0.5292 -0.7623  0.4670
  911MOL0     H20209   1.482   5.709   4.577 -2.0735  0.4530 -1.0840
  911MOL0     H20210   1.386   5.989   4.550  0.2004  0.0376  0.1279
  911MOL0     H20211   1.292   5.881   4.620 -0.8480  2.5230 -0.3190
  911MOL0     H20212   1.399   6.007   4.796  2.4725  2.2536  1.1990
  911MOL0     H20213   1.559   5.970   4.725 -1.8546  1.0558 -1.1787
  911MOL0     H20214   1.453   6.000   5.020  0.7374 -0.1738 -1.1055
  911MOL0     H20215   1.516   5.957   5.250  2.4762 -1.3597  0.0539
  911MOL0     H20216   1.869   5.462   5.344  1.6482  1.9689 -0.0669
  911MOL0     H20217   2.026   5.386   5.517 -3.6625 -2.5515  2.6217
  911MOL0     H20218   2.212   5.452   5.656  4.2489  1.0530  1.8916
  911MOL0     H20219   2.118   5.327   5.740  0.1547  0.7365 -0.6037
  911MOL0     H20220   2.202   5.438   5.950  0.5833 -0.8337  0.3681
  911MOL0     H20221   2.302   5.556   5.846  0.9484  0.1559  0.4645
  911MOL0     H20222   2.406   5.385   5.736  0.0866  0.7379 -0.6190
  911MOL0     H20223   2.319   5.253   5.830  3.2166 -0.8974  3.0611
  911MOL0     H20224   2.520   5.453   5.947  0.5039  0.0127 -1.9096
  911MOL0     H20225   2.423   5.346   6.045 -0.2599  0.5957 -0.6900
  911MOL0     H20226   2.521   5.133   5.914  0.1258 -0.5056  0.7150
  911MOL0     H20227   2.613   5.222   6.030 -2.3349 -2.4435 -0.0944
  911MOL0     H20228   2.690   5.371   5.814 -0.3935  1.0121  3.4813
  911MOL0     H20229   2.607   5.224   5.732  2.7995 -0.2065 -1.5982
  911MOL0     H20230   2.849   5.219   5.908 -0.9297  0.7753  0.6120
  911MOL0     H20231   2.747   5.073   5.864 -1.0457  0.2156 -0.9154
  911MOL0     H20232   2.906   5.256   5.673 -0.4434 -0.4647 -1.6768
  911MOL0     H20233   2.815   5.119   5.621 -0.2036  1.4314 -0.3355
  911MOL0     H20234   1.856   5.655   5.804 -0.0673  3.5889 -1.1849
  911MOL0     H20235   1.686   5.734   5.614 -0.5534  0.0796 -2.2650
  911MOL0     H20236   1.626   5.548   5.135 -0.2032  0.2195 -0.4702
  911MOL0     H20237   1.547   5.590   4.924 -0.1862 -3.7526  4.2772
  911MOL0     H20238   0.545   5.872   5.105 -1.2505  0.6702 -0.8356
  911MOL0     H20239   0.350   5.999   5.121 -1.8028  2.0474 -0.6744
  911MOL0     H20240   0.135   6.436   5.543 -2.3866  2.7685  1.8111
  911MOL0     H20241  -0.074   6.566   5.502  0.6482  1.5253 -0.2170
  911MOL0     H20242  -0.314   6.477   5.187  3.9744 -0.0171 -2.3348
  911MOL0     H20243  -0.256   6.623   5.123 -1.3712  0.1093 -1.9717
  911MOL0     H20244  -0.469   6.598   5.350 -0.5527  2.2615  0.1979
  911MOL0     H20245  -0.427   6.751   5.256 -1.6435 -0.3668  1.7050
  911MOL0     H20246  -0.531   6.492   5.134  0.7953 -0.1629 -0.6563
  911MOL0     H20247  -0.509   6.643   5.051  0.3515 -2.0197 -0.2959
  911MOL0     H20248  -0.705   6.590   5.289 -0.5519 -1.5880 -1.4369
  911MOL0     H20249  -0.687   6.745   5.197  0.1245  0.1129  0.9949
  911MOL0     H20250  -0.957   6.525   4.956 -0.5920  0.1845  0.4326
  911MOL0     H20251  -0.111   6.443   5.107 -0.3150  1.3350  0.8457
  911MOL0     H20252   0.113   6.316   5.123  0.1069  0.6901  0.0756
  912MOL0     O20253   4.967   1.385   4.169 -0.1730  1.4269  0.8239
  912MOL0     C20254   5.045   1.466   4.217  1.0143  0.1685  0.1652
  912MOL0     O20255   5.014   1.593   4.244  0.4415 -0.3665 -0.2289
  912MOL0     C20256   4.890   1.648   4.220  0.2274 -0.3078 -0.3869
  912MOL0     C20257   4.777   1.596   4.149 -1.1011  0.2026 -0.3152
  912MOL0     C20258   4.657   1.665   4.144 -0.6252 -0.1750  0.1994
  912MOL0     C20259   4.646   1.795   4.191 -1.3568  0.3420  0.1601
  912MOL0     O20260   4.526   1.863   4.170  0.0680 -0.4513 -0.3624
  912MOL0     C20261   4.493   1.978   4.242 -0.3590  0.2168 -0.5319
  912MOL0     C20262   4.339   2.006   4.264 -0.2158 -0.3757 -1.2603
  912MOL0     C20263   4.260   1.957   4.136  0.1265  0.6010 -0.1074
  912MOL0     C20264   4.113   1.967   4.146 -0.5751  0.0289 -0.2519
  912MOL0     C20265   4.035   1.859   4.078 -0.2869 -0.3574 -0.6959
  912MOL0     C20266   4.054   1.860   3.923 -0.1885 -0.0148  0.9462
  912MOL0     C20267   3.939   1.779   3.856 -0.6044 -0.1954 -0.0098
  912MOL0     C20268   3.991   1.743   3.717 -0.0194 -0.3833 -0.1772
  912MOL0     N20269   3.912   1.672   3.622  0.3528 -0.1114  0.8554
  912MOL0     C20270   3.917   1.533   3.610 -0.1318 -0.8303 -0.1478
  912MOL0     C20271   3.847   1.504   3.503 -0.0147  0.1038  0.0363
  912MOL0     C20272   3.841   1.366   3.449 -0.2954  1.1712  0.8975
  912MOL0     C20273   3.729   1.289   3.522 -1.1666  0.4688 -0.1541
  912MOL0     C20274   3.727   1.149   3.481 -0.3233 -0.1628  0.7130
  912MOL0     C20275   3.706   1.127   3.325  0.2711 -0.1807  0.3246
  912MOL0     O20276   3.695   0.994   3.278  0.8688  0.0131  0.6384
  912MOL0     C20277   3.576   0.921   3.290  0.4703 -0.4374  0.1460
  912MOL0     C20278   3.589   0.789   3.262 -0.2770  0.0691  0.0454
  912MOL0     C20279   3.478   0.711   3.264  0.2156  1.2122  0.8967
  912MOL0     C20280   3.361   0.750   3.328 -0.2557 -0.3121 -0.2640
  912MOL0     C20281   3.255   0.653   3.338  0.1555 -0.6719 -0.5883
  912MOL0     O20282   3.138   0.700   3.398 -0.1228 -0.1867 -0.2329
  912MOL0     C20283   3.037   0.607   3.407 -0.6044 -0.2828 -0.0993
  912MOL0     C20284   3.044   0.485   3.471 -0.0608 -0.5851 -0.9302
  912MOL0     C20285   2.930   0.411   3.494 -0.7881  0.2373  0.9166
  912MOL0     C20286   2.807   0.439   3.431 -0.1400 -0.2973 -0.1035
  912MOL0     O20287   2.718   0.332   3.461  0.7147 -0.2976  0.3353
  912MOL0     C20288   2.580   0.355   3.412 -1.1735  0.3123  0.1915
  912MOL0     C20289   2.466   0.292   3.505  0.9707 -0.8227  0.0212
  912MOL0     C20290   2.338   0.288   3.422  0.9512 -0.2335 -0.4293
  912MOL0     C20291   2.218   0.211   3.484  0.5753  0.7804 -0.0679
  912MOL0     C20292   2.098   0.181   3.385 -0.1717 -0.4694 -0.5930
  912MOL0     C20293   1.988   0.302   3.366 -0.8092 -0.2488  0.1236
  912MOL0     C20294   1.855   0.254   3.290 -0.2331  0.2061 -0.4345
  912MOL0     C20295   1.754   0.195   3.395  0.3218  0.3767  0.2192
  912MOL0    Cl20296   1.639   0.092   3.316  0.2902  0.0431 -0.2824
  912MOL0     C20297   2.799   0.548   3.349 -0.0235 -0.7954 -0.0996
  912MOL0     C20298   2.917   0.633   3.342  0.0737  0.5285  0.3797
  912MOL0     O20299   3.271   0.542   3.294 -0.2982  0.3814 -0.0660
  912MOL0     C20300   3.353   0.882   3.385  0.4867 -0.5762  0.5703
  912MOL0     C20301   3.461   0.972   3.359 -0.7042 -0.0428 -0.0654
  912MOL0     N20302   3.803   1.621   3.442 -1.0989 -0.0791  0.3784
  912MOL0     N20303   3.848   1.722   3.514 -0.7111  0.1515 -0.2753
  912MOL0     C20304   4.764   1.853   4.260  0.5104 -0.1874  0.4854
  912MOL0     C20305   4.874   1.773   4.270  0.4808  0.4405 -0.7630
  912MOL0     C20306   5.178   1.413   4.255 -0.1117  0.1218 -0.4115
  912MOL0     C20307   5.208   1.271   4.244  1.1292 -0.1072  0.0789
  912MOL0     C20308   5.331   1.219   4.292 -0.7299 -0.9180 -1.0830
  912MOL0     C20309   5.433   1.295   4.353  1.0218 -0.3966  1.0887
  912MOL0     O20310   5.546   1.253   4.405 -0.5633 -0.1207  0.3820
  912MOL0     C20311   5.580   1.114   4.413  0.3114  0.1753  0.5216
  912MOL0     C20312   5.651   1.059   4.284  0.1502 -0.5006  0.6517
  912MOL0     C20313   5.713   0.923   4.314 -0.2878 -0.3645  0.1022
  912MOL0     C20314   5.850   0.944   4.378  0.0188 -0.7510 -0.8310
  912MOL0     C20315   5.916   0.815   4.400 -0.3997  0.4068  0.4867
  912MOL0     C20316   5.985   0.717   4.433 -0.1938 -0.2973 -1.1219
  912MOL0     C20317   5.409   1.437   4.354 -0.5882 -0.0166  0.6659
  912MOL0     C20318   5.276   1.492   4.321  0.0102 -0.5373  0.1459
  912MOL0     H20319   4.774   1.506   4.088 -2.0643  1.7011 -2.6145
  912MOL0     H20320   4.579   1.621   4.083 -1.4490  0.6360  0.6240
  912MOL0     H20321   4.546   2.063   4.197  2.1938 -0.5527  0.8129
  912MOL0     H20322   4.531   1.966   4.344  1.6729 -0.0351 -1.2653
  912MOL0     H20323   4.323   2.112   4.287  2.8322 -0.3489  1.6201
  912MOL0     H20324   4.305   1.965   4.360 -3.9993 -0.4918 -2.4812
  912MOL0     H20325   4.291   1.852   4.141  0.1875  0.6817  2.0530
  912MOL0     H20326   4.296   2.002   4.043  1.3332  0.5685  0.3219
  912MOL0     H20327   4.084   1.963   4.251  1.8087 -0.2527  0.4506
  912MOL0     H20328   4.078   2.058   4.097 -2.1319 -2.2354 -3.8366
  912MOL0     H20329   3.928   1.880   4.084  0.0792  1.2923  0.8198
  912MOL0     H20330   4.065   1.762   4.120 -0.3889  0.4872  1.4584
  912MOL0     H20331   4.149   1.818   3.892 -0.9207  0.3712 -2.0718
  912MOL0     H20332   4.048   1.963   3.888  0.6422  0.0267  0.9101
  912MOL0     H20333   3.921   1.694   3.922  1.4149  1.9130  3.6116
  912MOL0     H20334   3.852   1.844   3.843  1.5260  2.5994 -1.3629
  912MOL0     H20335   4.069   1.668   3.727  0.5078 -0.3311 -3.0431
  912MOL0     H20336   4.029   1.831   3.666 -2.1134 -0.0780 -1.3380
  912MOL0     H20337   3.973   1.458   3.664  0.7002  1.1642  1.9408
  912MOL0     H20338   3.938   1.315   3.455 -1.0334 -0.5842 -0.9711
  912MOL0     H20339   3.812   1.377   3.344 -0.9843 -1.3578  0.7528
  912MOL0     H20340   3.636   1.342   3.499  0.0149  3.9790  2.3300
  912MOL0     H20341   3.744   1.296   3.630  1.9554 -0.2666 -0.4385
  912MOL0     H20342   3.821   1.095   3.498  1.4311  2.3776 -0.4129
  912MOL0     H20343   3.645   1.100   3.535 -1.0020  0.6589  0.4428
  912MOL0     H20344   3.786   1.173   3.266 -1.5239  0.0926 -2.0253
  912MOL0     H20345   3.611   1.174   3.299 -2.9929 -4.0854  3.7197
  912MOL0     H20346   3.683   0.745   3.231  0.2374  1.2291 -0.0920
  912MOL0     H20347   3.482   0.607   3.231 -2.6686  0.7199  1.8488
  912MOL0     H20348   3.129   0.427   3.507 -1.4095 -2.6838 -0.9271
  912MOL0     H20349   2.933   0.321   3.555 -1.3216 -0.6386 -0.2853
  912MOL0     H20350   2.572   0.301   3.317 -3.2833  0.2944  0.3340
  912MOL0     H20351   2.559   0.461   3.398  2.6103  1.4222  1.6796
  912MOL0     H20352   2.456   0.364   3.586 -0.5503 -1.9792  0.8962
  912MOL0     H20353   2.493   0.194   3.547  1.4454 -0.4745  0.5421
  912MOL0     H20354   2.368   0.234   3.332  2.8114 -0.4982  0.3166
  912MOL0     H20355   2.319   0.392   3.396  0.3364 -0.5266 -1.2028
  912MOL0     H20356   2.249   0.120   3.536 -2.6689 -1.3206 -1.4633
  912MOL0     H20357   2.173   0.268   3.566 -1.6426 -2.5886  1.2504
  912MOL0     H20358   2.052   0.096   3.438 -0.5379 -0.9498 -1.6582
  912MOL0     H20359   2.128   0.154   3.284 -0.5386  0.7460 -1.0420
  912MOL0     H20360   2.043   0.376   3.307 -1.2062  0.3213  0.4567
  912MOL0     H20361   1.960   0.347   3.462  0.3663 -0.8253  0.7581
  912MOL0     H20362   1.810   0.338   3.235  1.7373  0.4151 -1.8515
  912MOL0     H20363   1.880   0.185   3.209  0.9673 -0.4425  0.4538
  912MOL0     H20364   1.688   0.268   3.443 -0.6926  0.5366 -1.3272
  912MOL0     H20365   1.807   0.130   3.465  0.1253  0.4027  0.3936
  912MOL0     H20366   2.712   0.573   3.290 -0.0065 -0.4097  0.0340
  912MOL0     H20367   2.903   0.728   3.292 -1.9832 -1.1838 -2.6274
  912MOL0     H20368   3.265   0.911   3.442 -0.1329 -2.3570  0.5980
  912MOL0     H20369   3.458   1.073   3.400 -0.5207 -0.8397  2.0738
  912MOL0     H20370   4.759   1.951   4.306 -1.8184 -0.2345  0.4450
  912MOL0     H20371   4.957   1.823   4.319 -0.8113  0.8396  1.0883
  912MOL0     H20372   5.144   1.199   4.194  0.3447  2.5886 -3.2566
  912MOL0     H20373   5.351   1.114   4.273  0.5382 -0.8621 -0.1891
  912MOL0     H20374   5.493   1.057   4.446 -0.4790  0.7466 -0.5084
  912MOL0     H20375   5.640   1.106   4.504  1.5789 -0.6228 -0.3455
  912MOL0     H20376   5.575   1.041   4.207  0.1955  0.7606  0.2944
  912MOL0     H20377   5.722   1.133   4.248  1.1054 -1.8205 -0.2745
  912MOL0     H20378   5.734   0.874   4.218 -1.9142 -0.2926 -0.3051
  912MOL0     H20379   5.642   0.863   4.372  0.3060 -1.5154 -0.3280
  912MOL0     H20380   5.909   1.011   4.314  1.3925  0.0325  1.1465
  912MOL0     H20381   5.842   0.993   4.476  1.5431  0.2359 -1.1598
  912MOL0     H20382   6.047   0.643   4.480 -0.1477  0.7023  0.4694
  912MOL0     H20383   5.496   1.485   4.397  0.7219 -0.4652 -1.3188
  912MOL0     H20384   5.274   1.601   4.331  0.5784 -0.1647 -3.0257
  913MOL0     O20385   4.250   7.092  11.261 -0.4841  0.4336 -0.4434
  913MOL0     C20386   4.309   6.984  11.283 -0.0128 -0.0452  0.7256
  913MOL0     O20387   4.253   6.868  11.328  0.1244 -0.4171  0.1089
  913MOL0     C20388   4.122   6.861  11.358 -0.5078  1.0414 -0.0385
  913MOL0     C20389   4.059   6.927  11.467  0.5557  0.1065  0.5066
  913MOL0     C20390   3.918   6.899  11.511 -0.0814  0.2172 -0.1032
  913MOL0     C20391   3.843   6.807  11.440 -0.5734  0.2781  0.9228
  913MOL0     O20392   3.704   6.792  11.445  0.2880  0.1560 -0.5580
  913MOL0     C20393   3.625   6.904  11.503 -0.3627  0.8206 -0.0455
  913MOL0     C20394   3.512   6.926  11.409  0.2798 -0.0984 -1.5689
  913MOL0     C20395   3.387   6.836  11.447  0.0684  0.7011 -0.4628
  913MOL0     C20396   3.250   6.895  11.407 -0.7779 -0.1206  0.6053
  913MOL0     C20397   3.141   6.816  11.475 -0.2580 -1.2036 -0.6119
  913MOL0     C20398   3.015   6.911  11.454  1.0461 -0.4551 -0.1190
  913MOL0     C20399   2.895   6.851  11.522  2.0540  0.6013 -0.0464
  913MOL0     C20400   2.846   6.729  11.439 -0.1381 -0.8077 -0.0974
  913MOL0     N20401   2.716   6.673  11.488 -0.1996  0.5739 -0.7151
  913MOL0     C20402   2.685   6.537  11.487  0.0474 -0.4749 -1.2604
  913MOL0     C20403   2.557   6.527  11.536 -0.4998 -0.6439  0.3957
  913MOL0     C20404   2.484   6.399  11.531 -0.2620  0.9566 -0.5225
  913MOL0     C20405   2.446   6.344  11.394 -0.0259  0.7194  0.3225
  913MOL0     C20406   2.365   6.434  11.300 -0.3389 -0.5853 -0.8234
  913MOL0     C20407   2.300   6.353  11.195  1.0762  0.4010  0.3501
  913MOL0     O20408   2.229   6.441  11.116 -0.9670  0.5700  1.4651
  913MOL0     C20409   2.105   6.484  11.146  0.3258 -0.1057 -1.1414
  913MOL0     C20410   2.023   6.417  11.232  0.3179 -0.3846  0.5946
  913MOL0     C20411   1.890   6.462  11.259 -0.6262 -0.1115 -0.0618
  913MOL0     C20412   1.837   6.585  11.209 -0.9305 -0.1517  0.5894
  913MOL0     C20413   1.698   6.617  11.242 -0.4873  0.0356 -0.6090
  913MOL0     O20414   1.624   6.541  11.331 -0.5746  0.4776  0.1774
  913MOL0     C20415   1.491   6.576  11.369 -0.7000 -0.0338  0.1786
  913MOL0     C20416   1.448   6.700  11.403 -0.4327 -0.8090 -1.7843
  913MOL0     C20417   1.315   6.730  11.444 -0.0710  0.2431  0.5759
  913MOL0     C20418   1.223   6.620  11.464 -0.3308 -1.4189  0.4926
  913MOL0     O20419   1.094   6.640  11.516 -0.4475 -0.1760 -0.0227
  913MOL0     C20420   1.002   6.527  11.519  0.4947  0.4740  0.0380
  913MOL0     C20421   0.869   6.583  11.566  0.8446  0.6337 -1.1173
  913MOL0     C20422   0.810   6.698  11.475 -0.6678  0.5643 -0.0818
  913MOL0     C20423   0.660   6.714  11.486 -0.1700  0.1833  0.2739
  913MOL0     C20424   0.585   6.639  11.385 -0.4217  0.6745  0.5808
  913MOL0     C20425   0.437   6.637  11.415 -0.8854  0.5997  0.4225
  913MOL0     C20426   0.365   6.563  11.309 -0.3251  0.1122  0.1637
  913MOL0     C20427   0.235   6.507  11.351  0.5353 -0.4470 -0.8264
  913MOL0    Cl20428   0.114   6.620  11.430  0.6929  0.3718  0.0994
  913MOL0     C20429   1.268   6.497  11.434  0.8751 -0.3905 -0.2269
  913MOL0     C20430   1.402   6.468  11.385  0.7818  0.1212  0.1157
  913MOL0     O20431   1.665   6.732  11.207 -0.4530  0.2638 -0.8904
  913MOL0     C20432   1.926   6.648  11.117 -0.2323  0.2185 -0.2823
  913MOL0     C20433   2.059   6.601  11.089 -0.5690  0.0315  0.1650
  913MOL0     N20434   2.507   6.655  11.540 -0.9521  0.1335  0.2419
  913MOL0     N20435   2.607   6.737  11.522  0.2083 -1.0758 -0.8122
  913MOL0     C20436   3.918   6.731  11.347  0.1494 -0.4681  0.1444
  913MOL0     C20437   4.044   6.758  11.297 -0.1138 -0.0517 -1.0191
  913MOL0     C20438   4.457   6.983  11.253  0.0475 -0.2625 -0.3501
  913MOL0     C20439   4.533   7.100  11.218 -0.2804 -0.4956 -1.0560
  913MOL0     C20440   4.668   7.099  11.194 -0.7016  0.7968 -0.3560
  913MOL0     C20441   4.742   6.980  11.204 -0.6827  0.1422 -0.4295
  913MOL0     O20442   4.872   7.006  11.181 -0.0756  0.3533  0.7982
  913MOL0     C20443   4.973   6.904  11.220 -0.7514 -0.9461  1.1420
  913MOL0     C20444   5.112   6.968  11.179  0.8469 -0.1941 -0.9179
  913MOL0     C20445   5.139   7.090  11.265  0.5295 -0.9403 -0.0731
  913MOL0     C20446   5.286   7.138  11.239 -0.2455  0.4297 -0.2973
  913MOL0     C20447   5.381   7.036  11.278  0.4931  0.1844 -0.0349
  913MOL0     C20448   5.470   6.963  11.320  0.0119  1.1734 -0.2678
  913MOL0     C20449   4.675   6.865  11.247  0.3722 -0.1112  0.4494
  913MOL0     C20450   4.534   6.862  11.267  0.2378  0.2192 -0.7856
  913MOL0     H20451   4.123   7.009  11.497  1.8076 -0.9509  0.8479
  913MOL0     H20452   3.884   6.958  11.596  1.2746  2.9030 -1.3235
  913MOL0     H20453   3.686   6.995  11.510  1.1585  0.2846 -3.9629
  913MOL0     H20454   3.591   6.881  11.604 -2.6651  2.6677 -0.3112
  913MOL0     H20455   3.533   6.911  11.302  0.5322  0.3820 -1.5875
  913MOL0     H20456   3.499   7.034  11.420 -1.1384 -0.4959  1.7559
  913MOL0     H20457   3.403   6.830  11.555  0.6996 -3.1890 -0.6399
  913MOL0     H20458   3.393   6.730  11.422  1.1723  0.7373 -0.4396
  913MOL0     H20459   3.252   7.003  11.422 -1.9119  0.0052 -0.0304
  913MOL0     H20460   3.232   6.887  11.300 -1.1650 -1.0320  0.7291
  913MOL0     H20461   3.158   6.792  11.580 -1.8711 -1.1634 -0.3026
  913MOL0     H20462   3.130   6.718  11.427 -2.5053 -2.5888  2.3381
  913MOL0     H20463   2.986   6.937  11.352 -0.9953 -5.4463 -1.0697
  913MOL0     H20464   3.037   7.000  11.515  0.6184 -2.0980  2.5810
  913MOL0     H20465   2.915   6.818  11.624  1.8594 -1.9857 -0.7829
  913MOL0     H20466   2.811   6.920  11.524 -0.4491 -2.2578  2.0103
  913MOL0     H20467   2.912   6.643  11.446 -1.1924 -1.4843  2.9142
  913MOL0     H20468   2.829   6.750  11.333 -0.3821 -1.1152 -0.1194
  913MOL0     H20469   2.756   6.466  11.447  1.6996  1.6298 -2.2784
  913MOL0     H20470   2.395   6.405  11.594  0.2835 -1.8906  0.6665
  913MOL0     H20471   2.550   6.328  11.583  1.8075  1.0079 -2.9068
  913MOL0     H20472   2.390   6.251  11.406  2.7722 -1.0570  0.5653
  913MOL0     H20473   2.535   6.303  11.344  1.1740  3.1980  0.2408
  913MOL0     H20474   2.290   6.493  11.352 -0.5493  1.2558 -3.0585
  913MOL0     H20475   2.435   6.501  11.249  0.4599  0.6764  1.7588
  913MOL0     H20476   2.239   6.271  11.233  2.3818 -0.9944 -0.4392
  913MOL0     H20477   2.382   6.309  11.138  1.5308  0.3833  0.9988
  913MOL0     H20478   2.046   6.319  11.273 -0.2431 -1.5329 -1.6741
  913MOL0     H20479   1.832   6.407  11.332  0.2141 -2.2301 -0.9135
  913MOL0     H20480   1.531   6.769  11.406  0.4246 -1.8458 -0.1746
  913MOL0     H20481   1.282   6.832  11.462 -2.2426 -0.0065 -1.4525
  913MOL0     H20482   1.027   6.453  11.596 -0.8262  2.8352  2.9596
  913MOL0     H20483   0.995   6.469  11.427 -3.1434 -0.1446  0.5255
  913MOL0     H20484   0.864   6.608  11.672 -0.4936  0.0950 -1.0302
  913MOL0     H20485   0.800   6.498  11.557  0.2928  0.8096  0.9964
  913MOL0     H20486   0.851   6.686  11.375  2.2593  0.4131  1.0534
  913MOL0     H20487   0.854   6.789  11.518 -1.9890  0.1439  2.3769
  913MOL0     H20488   0.621   6.679  11.582 -1.8968 -0.3457 -0.5855
  913MOL0     H20489   0.634   6.816  11.456 -1.7140 -0.2212  0.1838
  913MOL0     H20490   0.626   6.538  11.390  0.3570  0.7520 -2.4873
  913MOL0     H20491   0.615   6.680  11.288 -0.6321  0.4897  0.4349
  913MOL0     H20492   0.390   6.736  11.418 -2.9857 -0.2803 -1.4581
  913MOL0     H20493   0.414   6.589  11.511  0.4117 -1.7409 -0.3639
  913MOL0     H20494   0.351   6.635  11.228 -1.7189 -1.2553 -0.8880
  913MOL0     H20495   0.418   6.480  11.260 -3.0194 -0.4967 -1.9943
  913MOL0     H20496   0.261   6.424  11.417  0.9124 -0.7558 -1.3471
  913MOL0     H20497   0.187   6.472  11.259 -0.8830  1.1217 -0.7292
  913MOL0     H20498   1.198   6.415  11.448  1.1273 -1.1464 -2.9038
  913MOL0     H20499   1.434   6.365  11.374 -0.4860 -0.4166  1.2732
  913MOL0     H20500   1.886   6.739  11.072 -0.5957  0.6021  0.7860
  913MOL0     H20501   2.127   6.642  11.015  0.4071 -2.6914 -0.5676
  913MOL0     H20502   3.872   6.650  11.292  1.9413 -0.1691 -1.8846
  913MOL0     H20503   4.096   6.698  11.222  3.0092  0.1077  0.8403
  913MOL0     H20504   4.477   7.193  11.212 -1.1044 -0.6168  2.5383
  913MOL0     H20505   4.722   7.189  11.168  0.4658 -0.1822 -1.4212
  913MOL0     H20506   4.961   6.804  11.177  0.0521 -0.0446 -1.3697
  913MOL0     H20507   4.976   6.903  11.329 -1.4825 -0.0889  1.1835
  913MOL0     H20508   5.188   6.891  11.191  1.5046  0.3264 -1.5926
  913MOL0     H20509   5.113   7.004  11.075  0.1059 -1.4630 -1.3759
  913MOL0     H20510   5.116   7.073  11.371  1.8713  4.2512  1.3078
  913MOL0     H20511   5.084   7.183  11.247  1.0356 -0.2579  1.6505
  913MOL0     H20512   5.310   7.167  11.136  5.2056 -2.5816 -0.2313
  913MOL0     H20513   5.310   7.232  11.290  0.0246 -0.1137  0.5851
  913MOL0     H20514   5.559   6.915  11.356  0.9390  0.4011 -3.2763
  913MOL0     H20515   4.726   6.771  11.264 -0.8390 -0.5880  1.6817
  913MOL0     H20516   4.487   6.770  11.300 -0.6412  0.6876 -0.6981
  914MOL0     O20517  10.224   8.224  10.389  0.1948 -0.2566  0.1693
  914MOL0     C20518  10.288   8.267  10.291  0.1683 -0.1161 -0.1341
  914MOL0     O20519  10.280   8.401  10.242 -0.2889 -0.6593 -0.0650
  914MOL0     C20520  10.198   8.490  10.311  0.5468  0.5500  0.3663
  914MOL0     C20521  10.114   8.575  10.238 -0.6935 -0.6038 -0.7670
  914MOL0     C20522  10.038   8.675  10.297 -0.2667 -0.3484 -0.0599
  914MOL0     C20523  10.028   8.691  10.436 -0.1940 -0.6759 -0.0786
  914MOL0     O20524   9.941   8.770  10.514 -0.5736  0.8886  0.4532
  914MOL0     C20525   9.913   8.899  10.462 -0.1232  1.8394  0.5891
  914MOL0     C20526  10.046   8.984  10.488 -0.0264 -0.3500 -0.0021
  914MOL0     C20527  10.008   9.137  10.473  0.0604  0.8514  0.3219
  914MOL0     C20528  10.136   9.219  10.468  0.5724  0.7307 -0.2641
  914MOL0     C20529  10.101   9.374  10.448 -0.7173 -0.3429 -0.4939
  914MOL0     C20530  10.000   9.407  10.339  0.5353  0.8224 -0.1024
  914MOL0     C20531   9.987   9.557  10.313  0.1681 -0.6467  1.1216
  914MOL0     C20532   9.944   9.594  10.173  0.0768 -0.0402  0.6765
  914MOL0     N20533  10.050   9.590  10.071  0.6158  0.8378  0.7519
  914MOL0     C20534  10.186   9.555  10.090 -0.5144 -0.0441 -0.2290
  914MOL0     C20535  10.243   9.563   9.965 -0.2160  0.3605 -0.6732
  914MOL0     C20536  10.389   9.542   9.929 -0.0998  0.1625 -0.1462
  914MOL0     C20537  10.482   9.652   9.993  0.8924  0.2619  0.4548
  914MOL0     C20538  10.627   9.609   9.988 -0.9238 -0.7668 -0.3199
  914MOL0     C20539  10.711   9.682  10.083 -0.4933  0.0256 -1.4284
  914MOL0     O20540  10.849   9.649  10.040 -0.0307 -1.1739 -0.0180
  914MOL0     C20541  10.953   9.676  10.132 -0.3626 -0.2512 -0.0377
  914MOL0     C20542  10.939   9.732  10.258 -0.0608 -0.3021  0.0275
  914MOL0     C20543  11.044   9.723  10.352  0.4169 -0.5020 -0.0089
  914MOL0     C20544  11.174   9.690  10.308 -0.6492  0.1586  0.2059
  914MOL0     C20545  11.290   9.687  10.406 -0.1522 -0.1768 -1.1252
  914MOL0     O20546  11.395   9.615  10.367 -0.6266 -0.1927 -0.5816
  914MOL0     C20547  11.478   9.575  10.465 -0.7803 -0.3286  0.5425
  914MOL0     C20548  11.508   9.437  10.482  0.9110  0.3271 -0.3266
  914MOL0     C20549  11.616   9.402  10.562  0.6738  0.4306  0.4640
  914MOL0     C20550  11.694   9.497  10.620 -0.2308 -0.9944  0.4339
  914MOL0     O20551  11.820   9.475  10.677  0.1878  0.0807  0.8226
  914MOL0     C20552  11.794   9.378  10.790 -0.0587  0.2675  0.2263
  914MOL0     C20553  11.879   9.246  10.770 -0.1969  0.4032 -0.3032
  914MOL0     C20554  12.031   9.256  10.800  0.1017  0.1032  0.3035
  914MOL0     C20555  12.096   9.120  10.773 -0.0541  0.3608  0.1315
  914MOL0     C20556  12.245   9.114  10.825  0.5637  0.7204 -0.1117
  914MOL0     C20557  12.333   9.206  10.734  1.0736  1.0204 -0.3225
  914MOL0     C20558  12.477   9.174  10.761  0.0472 -0.7772 -0.2767
  914MOL0     C20559  12.564   9.281  10.692 -0.0719  0.0588 -0.3705
  914MOL0    Cl20560  12.522   9.316  10.518  0.4260  0.5856 -0.0445
  914MOL0     C20561  11.664   9.635  10.599 -0.1961 -1.1199  0.0280
  914MOL0     C20562  11.559   9.678  10.517  0.1682  0.5787 -0.6344
  914MOL0     O20563  11.273   9.725  10.522  0.2173  0.2102  0.0563
  914MOL0     C20564  11.190   9.645  10.177 -0.5597  0.1374 -0.8167
  914MOL0     C20565  11.090   9.640  10.093  0.8224  0.5417  0.3922
  914MOL0     N20566  10.143   9.595   9.877 -0.0165  0.4285 -0.3259
  914MOL0     N20567  10.023   9.609   9.939 -0.6319  0.4442 -0.4543
  914MOL0     C20568  10.103   8.599  10.518  0.2854  0.0293  1.2640
  914MOL0     C20569  10.197   8.507  10.458 -0.4116  0.3572  0.0695
  914MOL0     C20570  10.367   8.174  10.210 -1.0825  0.3558 -0.0158
  914MOL0     C20571  10.435   8.224  10.091 -0.2294  0.6904  0.4180
  914MOL0     C20572  10.520   8.141  10.015 -0.8271 -1.2729 -0.6746
  914MOL0     C20573  10.551   8.006  10.053 -0.5372 -0.5305 -0.1157
  914MOL0     O20574  10.624   7.928   9.961 -0.3525  0.3501 -0.8224
  914MOL0     C20575  10.723   7.851  10.030  0.4959 -0.1585  0.0041
  914MOL0     C20576  10.816   7.773   9.939 -0.5286  0.0160  0.2423
  914MOL0     C20577  10.907   7.846   9.841  0.3113 -0.0242 -0.6064
  914MOL0     C20578  11.006   7.750   9.770  0.3476 -0.7847  0.3315
  914MOL0     C20579  11.064   7.819   9.647 -0.2203 -0.7656  0.9723
  914MOL0     C20580  11.112   7.871   9.543 -0.3052  0.1985 -0.0952
  914MOL0     C20581  10.482   7.953  10.171 -1.4829  0.7742 -0.2734
  914MOL0     C20582  10.399   8.038  10.248 -0.9361  0.3167 -0.5767
  914MOL0     H20583  10.109   8.549  10.133 -3.0189 -6.4097  0.3749
  914MOL0     H20584   9.985   8.745  10.234 -0.2720 -0.3796 -0.0915
  914MOL0     H20585   9.835   8.943  10.523 -2.3852  2.6649 -2.6233
  914MOL0     H20586   9.872   8.895  10.361 -1.8392 -0.7599  1.2872
  914MOL0     H20587  10.103   8.951  10.400  2.0669  2.5366  0.1175
  914MOL0     H20588  10.104   8.970  10.579 -0.5034 -0.6527  0.2580
  914MOL0     H20589   9.952   9.172  10.560 -0.8111  1.6942 -0.5481
  914MOL0     H20590   9.954   9.161  10.381 -2.7185  2.4342  2.2066
  914MOL0     H20591  10.193   9.210  10.560 -1.1915  0.9341  0.8882
  914MOL0     H20592  10.192   9.183  10.381  0.4664 -0.4071  0.1243
  914MOL0     H20593  10.195   9.427  10.430 -1.0967  0.0122 -1.5037
  914MOL0     H20594  10.066   9.409  10.546  1.9211 -1.5256  0.9548
  914MOL0     H20595   9.900   9.365  10.354  0.6281  0.2854 -0.9404
  914MOL0     H20596  10.041   9.351  10.255  0.3498 -0.3228  0.5451
  914MOL0     H20597   9.920   9.596  10.390  1.1797 -0.0059  1.7057
  914MOL0     H20598  10.087   9.598  10.334 -0.5392  0.8497  1.6980
  914MOL0     H20599   9.899   9.693  10.166  0.3351 -0.0186 -2.7374
  914MOL0     H20600   9.858   9.534  10.142  2.1700 -0.9475 -4.3716
  914MOL0     H20601  10.227   9.512  10.181 -0.1098 -2.9731 -1.6733
  914MOL0     H20602  10.400   9.540   9.821  3.8701  3.5566 -0.0295
  914MOL0     H20603  10.421   9.442   9.960  0.7939  0.1648 -1.0290
  914MOL0     H20604  10.448   9.658  10.096 -0.8760  0.5109 -0.1207
  914MOL0     H20605  10.466   9.745   9.938 -0.2968 -0.2014 -0.0172
  914MOL0     H20606  10.649   9.502   9.997  2.8323 -0.0642  0.3189
  914MOL0     H20607  10.673   9.629   9.890  0.7714  1.7016  0.8662
  914MOL0     H20608  10.692   9.655  10.187  0.4745 -0.1966 -1.2973
  914MOL0     H20609  10.708   9.791  10.079 -1.0705  0.0134 -1.4715
  914MOL0     H20610  10.854   9.790  10.293  1.0281 -0.1904  2.7013
  914MOL0     H20611  11.029   9.766  10.450 -2.7121  0.8879 -0.9679
  914MOL0     H20612  11.446   9.358  10.441  1.2614 -0.6162  0.8787
  914MOL0     H20613  11.644   9.304  10.598  0.0302  0.8583  2.2359
  914MOL0     H20614  11.692   9.352  10.821  0.3579  0.5813  1.9806
  914MOL0     H20615  11.828   9.421  10.884  1.0853  2.1136 -0.9750
  914MOL0     H20616  11.868   9.202  10.671  0.1603 -3.2381  1.0974
  914MOL0     H20617  11.844   9.171  10.842  1.7683 -0.6745 -0.3738
  914MOL0     H20618  12.044   9.282  10.905  0.8893 -1.4181  0.6102
  914MOL0     H20619  12.087   9.331  10.745  1.8989 -1.4223 -0.0594
  914MOL0     H20620  12.039   9.052  10.836 -1.9245  0.4466 -1.4002
  914MOL0     H20621  12.087   9.089  10.669  1.1363  1.5835 -0.3738
  914MOL0     H20622  12.282   9.013  10.843 -0.3266  0.0067 -2.0205
  914MOL0     H20623  12.257   9.152  10.927 -0.1643  0.7384 -0.0312
  914MOL0     H20624  12.306   9.311  10.749  3.0236  1.4661  0.2911
  914MOL0     H20625  12.315   9.185  10.628 -1.9178  0.1443  0.2698
  914MOL0     H20626  12.494   9.189  10.868  3.1084  1.4983 -0.9250
  914MOL0     H20627  12.501   9.071  10.733 -2.3278 -1.3543 -0.4113
  914MOL0     H20628  12.662   9.232  10.689 -0.8438 -1.5133 -1.9677
  914MOL0     H20629  12.560   9.375  10.747  0.5993  0.7932 -1.5503
  914MOL0     H20630  11.719   9.717  10.645 -1.7019  0.2955 -0.5820
  914MOL0     H20631  11.533   9.783  10.510  0.8581  0.7781 -0.2700
  914MOL0     H20632  11.284   9.619  10.130  0.3430 -0.4803  1.2021
  914MOL0     H20633  11.097   9.612   9.988  0.7877 -0.6730  0.7016
  914MOL0     H20634  10.084   8.600  10.625  2.0492 -1.3948  1.6480
  914MOL0     H20635  10.262   8.442  10.517  3.1685  1.5222 -2.2252
  914MOL0     H20636  10.414   8.322  10.051 -4.3031 -0.4696 -0.6769
  914MOL0     H20637  10.565   8.195   9.932  1.5876 -0.9987  0.7283
  914MOL0     H20638  10.681   7.779  10.101  1.1881 -0.3534  0.2214
  914MOL0     H20639  10.786   7.920  10.088  1.1182 -0.4299 -0.3383
  914MOL0     H20640  10.877   7.710  10.004  1.0219  0.7058 -0.4865
  914MOL0     H20641  10.749   7.702   9.888  0.2505  0.7644 -1.9575
  914MOL0     H20642  10.965   7.920   9.897  0.6704 -2.0420  1.8300
  914MOL0     H20643  10.835   7.899   9.777 -2.6288  0.6918  2.9702
  914MOL0     H20644  11.092   7.724   9.833  1.5825 -0.6191 -1.2318
  914MOL0     H20645  10.958   7.657   9.740  1.2447 -1.4768  1.0182
  914MOL0     H20646  11.162   7.907   9.455 -0.9803 -1.1344 -1.0563
  914MOL0     H20647  10.496   7.846  10.186  1.0662  0.8800 -1.3496
  914MOL0     H20648  10.347   7.989  10.329 -1.3818  2.7879  0.7226
  915MOL0     O20649   8.064  10.249   6.717 -0.4488 -0.5047 -0.0360
  915MOL0     C20650   8.179  10.205   6.723  0.8104  0.4725  0.5220
  915MOL0     O20651   8.203  10.080   6.778  0.7811 -0.0683 -0.0510
  915MOL0     C20652   8.090  10.004   6.772 -1.1166 -0.4065  0.3554
  915MOL0     C20653   8.003   9.986   6.886 -0.4290  0.0028 -0.7959
  915MOL0     C20654   7.910   9.892   6.894 -0.4535  0.5949 -0.4819
  915MOL0     C20655   7.875   9.820   6.780  0.3797 -0.1442 -0.0302
  915MOL0     O20656   7.764   9.742   6.796  0.1603 -0.6082 -0.4368
  915MOL0     C20657   7.661   9.750   6.699 -0.5010 -0.2849 -0.1754
  915MOL0     C20658   7.549   9.657   6.734 -0.6649 -0.0026  0.0042
  915MOL0     C20659   7.452   9.628   6.615 -1.7864  0.6211 -0.8935
  915MOL0     C20660   7.325   9.556   6.659  0.6392 -0.3710  0.8211
  915MOL0     C20661   7.294   9.438   6.564  0.6105 -0.8829 -0.5130
  915MOL0     C20662   7.177   9.353   6.618  0.1019  0.2077  1.0752
  915MOL0     C20663   7.045   9.428   6.627  0.0967 -0.1253  0.3447
  915MOL0     C20664   6.940   9.327   6.673  0.4057  0.1110 -0.3611
  915MOL0     N20665   6.804   9.389   6.688 -0.7436  0.7057 -0.7666
  915MOL0     C20666   6.772   9.524   6.673 -0.1515  0.4753 -0.2557
  915MOL0     C20667   6.642   9.528   6.642  0.3218 -0.1096  0.7246
  915MOL0     C20668   6.550   9.646   6.632  0.0669  0.6287  0.1005
  915MOL0     C20669   6.501   9.682   6.488 -0.3581 -0.1846  0.7886
  915MOL0     C20670   6.402   9.800   6.489  0.0196 -0.6193 -0.2509
  915MOL0     C20671   6.336   9.819   6.347  0.0732 -0.2082 -0.8172
  915MOL0     O20672   6.242   9.926   6.348  0.8630  0.0169  0.5656
  915MOL0     C20673   6.125   9.906   6.276  0.1087  0.3218 -0.6119
  915MOL0     C20674   6.036   9.793   6.297  0.1720 -0.7842  0.2721
  915MOL0     C20675   5.913   9.778   6.240  0.2975 -0.0730 -0.7446
  915MOL0     C20676   5.869   9.874   6.155  0.5706  0.3742  0.9202
  915MOL0     C20677   5.737   9.850   6.086  0.9002 -0.3080 -0.4001
  915MOL0     O20678   5.694   9.713   6.067  0.2175 -0.3505 -0.5158
  915MOL0     C20679   5.572   9.667   6.045  0.5251  0.3310  0.2827
  915MOL0     C20680   5.559   9.533   6.005  0.2214  0.4304 -0.5438
  915MOL0     C20681   5.434   9.475   5.980 -0.4819 -0.4390  0.0390
  915MOL0     C20682   5.320   9.553   5.981  0.1882 -0.1487 -1.0227
  915MOL0     O20683   5.200   9.483   5.977  0.1276 -0.2779 -0.5884
  915MOL0     C20684   5.183   9.394   6.092 -0.6331  0.4461 -0.3491
  915MOL0     C20685   5.068   9.303   6.045 -0.2344  0.0570  0.3269
  915MOL0     C20686   5.105   9.157   6.031 -0.3955  0.0749  0.0070
  915MOL0     C20687   4.993   9.070   5.973  1.3205 -0.1956 -0.7398
  915MOL0     C20688   5.030   8.928   5.953 -0.0796 -0.3560  0.0914
  915MOL0     C20689   5.052   8.890   5.801  0.2879 -0.8787 -0.3984
  915MOL0     C20690   5.069   8.743   5.759 -0.8243  0.4554 -0.8917
  915MOL0     C20691   5.055   8.726   5.602  0.3266  0.6103 -0.7765
  915MOL0    Cl20692   5.110   8.566   5.547  0.1155 -0.0491  0.1816
  915MOL0     C20693   5.330   9.680   6.024  0.0025 -0.9706  0.0794
  915MOL0     C20694   5.451   9.741   6.059  0.3960  0.1179 -0.2933
  915MOL0     O20695   5.673   9.947   6.056 -0.9990  0.2090 -0.0826
  915MOL0     C20696   5.959   9.985   6.124  0.9522  0.2715 -0.1457
  915MOL0     C20697   6.077  10.007   6.189 -0.5045  0.4069 -0.7090
  915MOL0     N20698   6.595   9.401   6.625 -0.8340  0.7149  0.2519
  915MOL0     N20699   6.692   9.315   6.669  0.1874  0.0376 -0.0514
  915MOL0     C20700   7.944   9.835   6.659 -0.7569 -0.0879  0.2921
  915MOL0     C20701   8.050   9.933   6.658 -0.4945 -0.0429 -0.0845
  915MOL0     C20702   8.298  10.288   6.686 -0.6621  0.8525  0.5453
  915MOL0     C20703   8.429  10.243   6.694 -0.5299 -0.0026  0.6108
  915MOL0     C20704   8.542  10.328   6.672  0.4195  0.5793 -0.1614
  915MOL0     C20705   8.519  10.453   6.612  1.0164  0.0845  0.8095
  915MOL0     O20706   8.610  10.537   6.564 -0.3533 -0.2087  0.6661
  915MOL0     C20707   8.743  10.492   6.539  0.3651  0.2108  0.5703
  915MOL0     C20708   8.830  10.515   6.663  0.6621 -0.0278  0.5344
  915MOL0     C20709   8.978  10.468   6.649 -0.4574 -0.5248 -0.0073
  915MOL0     C20710   9.058  10.454   6.778  0.1656 -0.0579  0.5216
  915MOL0     C20711   9.204  10.445   6.751 -0.9782 -0.7988 -0.3350
  915MOL0     C20712   9.328  10.432   6.738  0.4601  0.0659  0.6773
  915MOL0     C20713   8.388  10.495   6.595 -0.3175  0.2638 -0.1132
  915MOL0     C20714   8.283  10.415   6.639 -0.6060 -0.0963 -0.2806
  915MOL0     H20715   8.022  10.054   6.968 -0.3954  2.2945 -2.6006
  915MOL0     H20716   7.849   9.884   6.983 -1.4093 -1.3004 -1.2559
  915MOL0     H20717   7.701   9.713   6.604 -1.3608 -0.6692 -0.4071
  915MOL0     H20718   7.638   9.856   6.686  2.2165  0.5015  0.7688
  915MOL0     H20719   7.491   9.702   6.816 -1.0436  3.2536 -1.8864
  915MOL0     H20720   7.589   9.562   6.772  1.8622  0.7986 -0.4822
  915MOL0     H20721   7.497   9.554   6.547 -1.2481  0.7719 -0.7053
  915MOL0     H20722   7.421   9.718   6.562 -0.0526  0.6761 -1.8618
  915MOL0     H20723   7.346   9.515   6.758 -0.6403 -1.1110  0.7997
  915MOL0     H20724   7.249   9.635   6.665  0.4585 -0.2998 -1.4772
  915MOL0     H20725   7.388   9.385   6.553  2.2493  1.5601  0.7123
  915MOL0     H20726   7.266   9.486   6.470 -0.5053 -0.9999 -0.2564
  915MOL0     H20727   7.200   9.315   6.718 -2.0238 -1.2278  1.0796
  915MOL0     H20728   7.163   9.273   6.545  0.2040 -0.3423  1.6475
  915MOL0     H20729   7.043   9.506   6.704 -0.1858 -0.2943  0.5106
  915MOL0     H20730   7.023   9.473   6.530  1.6093  1.1318  0.5426
  915MOL0     H20731   6.963   9.282   6.770  2.3939  2.0757  0.1663
  915MOL0     H20732   6.926   9.244   6.603 -2.5469 -0.4534  0.7422
  915MOL0     H20733   6.836   9.610   6.690 -2.2958  1.9730  0.7999
  915MOL0     H20734   6.600   9.732   6.678  0.0016  1.1503 -0.7806
  915MOL0     H20735   6.457   9.631   6.687 -1.3858  1.4544 -2.0073
  915MOL0     H20736   6.448   9.602   6.436 -1.3520  1.4998 -0.9484
  915MOL0     H20737   6.593   9.708   6.433 -0.4374 -1.8619 -0.2204
  915MOL0     H20738   6.325   9.782   6.564  0.3486  2.6228  1.0352
  915MOL0     H20739   6.444   9.897   6.520 -1.7564 -0.4959  2.0499
  915MOL0     H20740   6.298   9.721   6.318  1.8167 -2.2303  3.0062
  915MOL0     H20741   6.414   9.836   6.272  2.7867 -2.8181  1.1813
  915MOL0     H20742   6.085   9.719   6.360  0.0922  0.6073  2.0638
  915MOL0     H20743   5.854   9.688   6.254  2.3354 -1.2136  0.8932
  915MOL0     H20744   5.650   9.474   6.004  0.4213  0.6719  1.0246
  915MOL0     H20745   5.432   9.372   5.945  0.6365 -1.1585  1.9381
  915MOL0     H20746   5.156   9.454   6.180  0.1546  0.4081 -0.0692
  915MOL0     H20747   5.269   9.333   6.121 -2.6640 -1.7595  1.4935
  915MOL0     H20748   5.018   9.347   5.958 -1.3455 -1.8800 -0.0529
  915MOL0     H20749   4.995   9.300   6.127 -0.3989  0.9096  0.2202
  915MOL0     H20750   5.132   9.110   6.125 -0.6472  1.1683  0.6461
  915MOL0     H20751   5.189   9.148   5.962 -0.0342 -2.9547  0.7343
  915MOL0     H20752   4.903   9.070   6.036 -0.8842 -1.2876 -3.6619
  915MOL0     H20753   4.952   9.105   5.878 -0.6714  0.2367  0.2234
  915MOL0     H20754   4.956   8.861   5.999 -0.9415 -1.4378 -2.6861
  915MOL0     H20755   5.118   8.902   6.012 -0.3458 -1.4721  0.0187
  915MOL0     H20756   5.132   8.953   5.762  0.7398 -0.9318  0.4331
  915MOL0     H20757   4.956   8.919   5.756  0.1331  3.2571  2.0549
  915MOL0     H20758   5.168   8.710   5.791 -1.1035  0.6594  0.2616
  915MOL0     H20759   4.993   8.687   5.814  1.9074 -1.0150  1.6799
  915MOL0     H20760   5.109   8.812   5.561  1.4620  0.3552  0.1403
  915MOL0     H20761   4.946   8.729   5.589  0.0955 -0.0221  0.8124
  915MOL0     H20762   5.241   9.733   6.057  0.4702  0.3175 -0.6537
  915MOL0     H20763   5.453   9.840   6.104  0.6108  0.6580 -1.4504
  915MOL0     H20764   5.929  10.066   6.058 -1.2136  1.0419  1.6716
  915MOL0     H20765   6.121  10.105   6.173 -0.2623  0.6274  1.1092
  915MOL0     H20766   7.930   9.773   6.570  0.6846 -1.1431  0.7689
  915MOL0     H20767   8.106   9.950   6.566 -3.6562  2.2364 -1.8099
  915MOL0     H20768   8.447  10.138   6.712  0.6972 -0.1378 -1.1465
  915MOL0     H20769   8.640  10.293   6.703  0.1631 -0.2606 -0.2902
  915MOL0     H20770   8.763  10.554   6.451 -1.7750 -1.2632 -1.0451
  915MOL0     H20771   8.757  10.388   6.510  3.7164  0.6361  0.1767
  915MOL0     H20772   8.836  10.623   6.680 -0.7552  0.4848 -1.7498
  915MOL0     H20773   8.784  10.471   6.752 -1.6245  1.3035  0.1045
  915MOL0     H20774   9.031  10.547   6.595  1.0781 -0.0413  2.0836
  915MOL0     H20775   8.979  10.376   6.590  3.6117 -1.7997  1.6831
  915MOL0     H20776   9.042  10.546   6.834 -1.7902 -0.9585  1.5412
  915MOL0     H20777   9.030  10.368   6.839  1.2467  0.5900  1.9958
  915MOL0     H20778   9.429  10.412   6.710  0.6788  1.0160  0.7438
  915MOL0     H20779   8.366  10.588   6.544  2.4631  1.2981  0.4104
  915MOL0     H20780   8.181  10.454   6.640  0.2451  2.3286 -1.4651
  916MOL0     O20781   2.230   7.386   6.293 -0.3024  0.2030  0.6080
  916MOL0     C20782   2.274   7.320   6.199  0.0184  0.6934  0.3106
  916MOL0     O20783   2.213   7.306   6.079  0.1520 -0.0887 -0.4191
  916MOL0     C20784   2.088   7.360   6.053  0.4577 -0.2072 -0.0596
  916MOL0     C20785   2.084   7.457   5.951 -0.2930 -0.4104 -0.1847
  916MOL0     C20786   1.959   7.526   5.916 -0.7633 -0.2807 -0.8039
  916MOL0     C20787   1.843   7.494   5.996 -0.5308 -0.0082  1.0274
  916MOL0     O20788   1.711   7.529   5.974  0.2954  0.0679  0.6755
  916MOL0     C20789   1.688   7.649   5.888 -0.4019  0.3910 -0.2318
  916MOL0     C20790   1.688   7.607   5.741  0.4398  0.4297  0.0779
  916MOL0     C20791   1.655   7.725   5.647  0.5159  0.2253  0.0236
  916MOL0     C20792   1.628   7.672   5.505  1.0419  0.0902  0.4446
  916MOL0     C20793   1.598   7.791   5.402 -0.8691 -0.2769 -0.4504
  916MOL0     C20794   1.475   7.872   5.432 -0.6488  1.1994 -0.5570
  916MOL0     C20795   1.454   7.961   5.312  0.0500 -0.8483  0.0658
  916MOL0     C20796   1.367   8.077   5.348 -1.0883  0.8578 -1.0114
  916MOL0     N20797   1.224   8.043   5.367 -0.4048 -0.6491 -0.8884
  916MOL0     C20798   1.131   8.048   5.265 -0.1952 -0.4286 -0.8228
  916MOL0     C20799   1.021   7.982   5.316  0.9465 -0.2209  0.4016
  916MOL0     C20800   0.882   7.980   5.263 -0.2364 -0.3794  0.8325
  916MOL0     C20801   0.835   8.116   5.211 -1.5770  0.1907 -1.4151
  916MOL0     C20802   0.694   8.097   5.158  0.0639  0.2667  0.2423
  916MOL0     C20803   0.624   8.221   5.121  0.2759 -1.1786  0.1770
  916MOL0     O20804   0.491   8.196   5.083 -0.3634 -0.7217  0.1689
  916MOL0     C20805   0.419   8.291   5.019  0.4867  0.2390 -0.2184
  916MOL0     C20806   0.446   8.432   5.017  0.2781 -0.1694  0.1066
  916MOL0     C20807   0.363   8.524   4.952 -0.1833 -0.1815  0.5422
  916MOL0     C20808   0.251   8.477   4.873 -0.8124  1.2271 -1.0487
  916MOL0     C20809   0.173   8.563   4.782  1.0829 -0.7074 -0.1598
  916MOL0     O20810   0.070   8.507   4.715 -0.2997 -0.5109  0.4973
  916MOL0     C20811  -0.052   8.570   4.683  0.2028 -0.7224 -0.8118
  916MOL0     C20812  -0.103   8.688   4.738  0.1944  0.2901  0.2290
  916MOL0     C20813  -0.229   8.739   4.699 -0.1369 -0.4392 -0.0154
  916MOL0     C20814  -0.308   8.668   4.600  0.4221 -1.1901  0.2321
  916MOL0     O20815  -0.428   8.716   4.561 -0.4124 -0.0224  0.2275
  916MOL0     C20816  -0.532   8.635   4.494  0.0637  0.8942  1.3241
  916MOL0     C20817  -0.670   8.700   4.512  0.1567  0.4850  0.6089
  916MOL0     C20818  -0.733   8.662   4.646  0.3138  0.4915  0.0380
  916MOL0     C20819  -0.875   8.712   4.666  0.3390 -0.5286 -0.4565
  916MOL0     C20820  -0.966   8.667   4.545 -0.7072  0.0060 -0.3017
  916MOL0     C20821  -1.118   8.676   4.570  0.2302  0.1970 -0.0065
  916MOL0     C20822  -1.215   8.659   4.443 -0.5684 -0.9478 -0.4361
  916MOL0     C20823  -1.216   8.517   4.384  1.7258  0.6941 -0.3353
  916MOL0    Cl20824  -1.078   8.491   4.284 -0.1314 -0.0136 -0.2412
  916MOL0     C20825  -0.251   8.542   4.563  0.2078 -0.3452  0.2220
  916MOL0     C20826  -0.130   8.495   4.590 -0.3354  0.1286  0.4085
  916MOL0     O20827   0.201   8.681   4.793  0.2895  0.0128  0.5904
  916MOL0     C20828   0.220   8.338   4.884  0.1684 -0.1528 -0.7619
  916MOL0     C20829   0.311   8.244   4.940 -0.9895 -0.0400 -0.5062
  916MOL0     N20830   1.046   7.945   5.446 -0.3040 -0.2543  0.5242
  916MOL0     N20831   1.167   7.979   5.476 -0.5890 -0.8447  0.2077
  916MOL0     C20832   1.854   7.406   6.103  0.1965 -0.7840 -0.0033
  916MOL0     C20833   1.967   7.338   6.127  0.0013  0.2272  1.4812
  916MOL0     C20834   2.396   7.242   6.236 -0.5626  0.0572 -0.4175
  916MOL0     C20835   2.451   7.217   6.365 -0.3211  0.0121  0.9123
  916MOL0     C20836   2.570   7.152   6.381  0.3647 -1.2189  0.3384
  916MOL0     C20837   2.644   7.109   6.277 -0.3652 -0.1969  0.5657
  916MOL0     O20838   2.776   7.064   6.304 -0.9369 -0.1026  0.0789
  916MOL0     C20839   2.861   7.020   6.198 -0.2114 -0.3658 -0.3932
  916MOL0     C20840   2.828   6.886   6.129  0.4933 -0.3948  0.4000
  916MOL0     C20841   2.837   6.779   6.243  0.1101  0.0885 -0.7850
  916MOL0     C20842   2.749   6.654   6.204  0.5801  0.3847  0.6487
  916MOL0     C20843   2.803   6.578   6.092  0.2356 -0.1855 -0.0428
  916MOL0     C20844   2.847   6.505   6.001  0.1205  0.3421  0.6156
  916MOL0     C20845   2.601   7.138   6.138  0.4973  0.6263  0.5653
  916MOL0     C20846   2.473   7.199   6.125  0.3980  0.3714  0.2791
  916MOL0     H20847   2.174   7.494   5.903 -2.7221  1.1776 -3.9253
  916MOL0     H20848   1.962   7.592   5.830  0.6141  0.2014 -0.4188
  916MOL0     H20849   1.774   7.715   5.907  2.2227 -2.5119 -1.3117
  916MOL0     H20850   1.594   7.703   5.905 -0.4135  0.1620  0.4753
  916MOL0     H20851   1.613   7.528   5.730  1.8566 -0.9486  0.0533
  916MOL0     H20852   1.785   7.560   5.723  0.0123 -0.3538 -0.2231
  916MOL0     H20853   1.736   7.798   5.652  1.0597 -0.4182  0.9184
  916MOL0     H20854   1.565   7.772   5.686  0.9839  0.4409  0.8622
  916MOL0     H20855   1.711   7.610   5.470  0.9229  0.0609  0.2120
  916MOL0     H20856   1.540   7.608   5.510  0.4733  0.6901 -1.2528
  916MOL0     H20857   1.593   7.749   5.301 -3.7024 -1.4401  0.0851
  916MOL0     H20858   1.686   7.856   5.395 -0.7079 -0.5569 -1.1594
  916MOL0     H20859   1.488   7.930   5.524  2.5439  0.8091 -0.6461
  916MOL0     H20860   1.383   7.812   5.440 -0.1860  0.6351  0.8042
  916MOL0     H20861   1.553   8.001   5.291 -0.0411  0.0322  1.2162
  916MOL0     H20862   1.416   7.907   5.225  2.9122 -2.1037 -0.5213
  916MOL0     H20863   1.380   8.162   5.280  1.1337  1.6100  0.2263
  916MOL0     H20864   1.399   8.139   5.432  4.6397  0.7205 -2.6642
  916MOL0     H20865   1.140   8.088   5.165 -0.7218  0.3604 -0.5626
  916MOL0     H20866   0.812   7.944   5.339 -0.7424 -2.4295 -0.5202
  916MOL0     H20867   0.866   7.907   5.183  1.3814 -0.2269  0.3253
  916MOL0     H20868   0.902   8.162   5.138 -2.4506 -0.6184 -2.7530
  916MOL0     H20869   0.827   8.190   5.292 -0.4781  0.7876 -1.8284
  916MOL0     H20870   0.705   8.035   5.068 -0.3113  4.0766 -2.6880
  916MOL0     H20871   0.631   8.037   5.225 -1.4908  1.7066  0.1434
  916MOL0     H20872   0.686   8.261   5.041 -2.5542  1.5212 -0.8918
  916MOL0     H20873   0.627   8.279   5.213 -0.7570 -2.3481  0.9873
  916MOL0     H20874   0.537   8.473   5.060 -0.4791 -0.7698  2.4156
  916MOL0     H20875   0.402   8.625   4.961  2.4221 -1.1867  1.4438
  916MOL0     H20876  -0.053   8.755   4.808  1.6746  1.4316 -1.7876
  916MOL0     H20877  -0.262   8.832   4.743 -0.4161 -0.5147 -0.0611
  916MOL0     H20878  -0.544   8.538   4.544 -3.2344  0.3833 -0.1756
  916MOL0     H20879  -0.501   8.628   4.390  2.2560  0.6735  1.9374
  916MOL0     H20880  -0.724   8.654   4.429  1.8975 -2.0363  0.7664
  916MOL0     H20881  -0.659   8.807   4.491  2.0811 -0.1276 -2.0324
  916MOL0     H20882  -0.670   8.684   4.733  1.9920 -2.1170 -0.4155
  916MOL0     H20883  -0.742   8.553   4.652  2.2346  0.1870 -1.7413
  916MOL0     H20884  -0.925   8.667   4.752 -1.8475 -2.0523 -2.3711
  916MOL0     H20885  -0.876   8.820   4.680  1.7731 -0.7584  1.7677
  916MOL0     H20886  -0.951   8.560   4.531 -3.1443 -0.7068  1.7940
  916MOL0     H20887  -0.943   8.733   4.460 -2.2456  0.5647 -0.3281
  916MOL0     H20888  -1.147   8.773   4.610 -0.1219 -0.6866  1.9705
  916MOL0     H20889  -1.153   8.597   4.636  0.8697 -0.3023 -0.2545
  916MOL0     H20890  -1.312   8.699   4.473  1.4652  4.1446  0.4756
  916MOL0     H20891  -1.192   8.741   4.375  0.2159 -1.0823 -0.3419
  916MOL0     H20892  -1.310   8.504   4.329  0.5852 -2.7277  2.0934
  916MOL0     H20893  -1.224   8.450   4.471  2.1709  2.5856  1.2321
  916MOL0     H20894  -0.313   8.471   4.510 -1.7538  2.0993 -0.9779
  916MOL0     H20895  -0.092   8.399   4.557  2.9324  1.7832 -1.1001
  916MOL0     H20896   0.141   8.289   4.829  0.5001 -1.7237  0.0917
  916MOL0     H20897   0.293   8.137   4.941  0.7456 -0.4053 -1.8490
  916MOL0     H20898   1.765   7.376   6.157  1.3941  0.1315  2.6295
  916MOL0     H20899   1.971   7.265   6.207  1.4109 -0.2564  0.9902
  916MOL0     H20900   2.398   7.252   6.453 -1.7876 -0.7684  0.3896
  916MOL0     H20901   2.610   7.140   6.482 -0.1270 -1.2756  0.5332
  916MOL0     H20902   2.957   7.024   6.250 -1.4620  3.0681  2.0073
  916MOL0     H20903   2.873   7.111   6.139 -1.9206  0.7190  0.8187
  916MOL0     H20904   2.732   6.879   6.075  1.2548  0.3239 -1.1104
  916MOL0     H20905   2.905   6.876   6.052  2.1829  2.6416  1.5590
  916MOL0     H20906   2.806   6.815   6.342 -0.6097 -2.2291 -0.1114
  916MOL0     H20907   2.939   6.741   6.250  0.3433  0.9081  0.5776
  916MOL0     H20908   2.747   6.585   6.289 -0.0439  0.5858  0.8049
  916MOL0     H20909   2.650   6.696   6.182 -0.1621 -0.2009  2.6032
  916MOL0     H20910   2.870   6.438   5.921  0.4019 -0.9871  1.7615
  916MOL0     H20911   2.662   7.112   6.052  3.3222  2.5956  1.8161
  916MOL0     H20912   2.427   7.226   6.031 -0.6082  2.2740  1.2733
  917MOL0     O20913   4.680   6.901  10.527 -0.7417  0.2086 -0.0658
  917MOL0     C20914   4.736   7.001  10.591  0.0086  1.0994  0.0833
  917MOL0     O20915   4.668   7.070  10.691  0.1606  0.3556 -0.6219
  917MOL0     C20916   4.536   7.035  10.718  0.5609  1.0264 -0.1090
  917MOL0     C20917   4.432   7.021  10.613 -0.3262  0.3911 -0.3053
  917MOL0     C20918   4.302   6.994  10.660 -0.2166 -0.2298  0.2265
  917MOL0     C20919   4.287   6.954  10.791  0.0642  0.0308 -1.0575
  917MOL0     O20920   4.160   6.929  10.830  0.5853  0.2504  0.0478
  917MOL0     C20921   4.073   7.037  10.860  0.0577 -0.8293  0.4102
  917MOL0     C20922   3.967   6.992  10.961  0.5815  0.4238  0.1826
  917MOL0     C20923   3.892   7.113  11.020  0.1422 -0.7654 -0.0165
  917MOL0     C20924   3.849   7.073  11.161 -0.4075  0.8252  0.2463
  917MOL0     C20925   3.756   7.176  11.230  0.3111  0.2787  0.5284
  917MOL0     C20926   3.804   7.324  11.224 -0.2872 -0.3264 -0.0707
  917MOL0     C20927   3.941   7.362  11.291 -0.2360  0.0256  0.6295
  917MOL0     C20928   4.011   7.488  11.218 -0.3539 -0.2325 -0.4347
  917MOL0     N20929   4.073   7.441  11.092 -0.6470  0.2860 -1.0992
  917MOL0     C20930   4.190   7.363  11.093  0.0093  0.2578  0.7675
  917MOL0     C20931   4.228   7.356  10.965  0.0323  0.9051 -0.3417
  917MOL0     C20932   4.350   7.306  10.903  0.3128  0.3677  0.5838
  917MOL0     C20933   4.454   7.411  10.896  0.0665  0.6661 -0.4568
  917MOL0     C20934   4.569   7.367  10.811 -0.6153  0.3139  0.0489
  917MOL0     C20935   4.679   7.463  10.792 -0.0204 -0.3944 -0.6961
  917MOL0     O20936   4.756   7.466  10.914  0.4209  0.5639 -0.1604
  917MOL0     C20937   4.894   7.475  10.895 -0.6869  0.1721  0.1554
  917MOL0     C20938   4.976   7.494  10.782  0.0039 -0.0208  0.8429
  917MOL0     C20939   5.112   7.478  10.788  0.3892 -0.3378  0.2671
  917MOL0     C20940   5.183   7.469  10.905 -0.3640 -1.1122 -0.4152
  917MOL0     C20941   5.334   7.474  10.907 -0.5894  0.3382 -0.9198
  917MOL0     O20942   5.406   7.448  10.796  0.0629 -0.5719  0.4440
  917MOL0     C20943   5.542   7.442  10.817 -0.2682 -0.8110  0.7589
  917MOL0     C20944   5.600   7.333  10.878 -0.7198  0.5677  0.0654
  917MOL0     C20945   5.740   7.325  10.869 -0.4094  1.0952 -0.3916
  917MOL0     C20946   5.819   7.423  10.815  0.1852  0.0520 -0.5364
  917MOL0     O20947   5.955   7.430  10.796  0.5496  0.8304 -0.5123
  917MOL0     C20948   6.035   7.308  10.759  1.0637 -0.2483 -0.4173
  917MOL0     C20949   6.161   7.349  10.675  0.9390 -0.7950 -0.6593
  917MOL0     C20950   6.252   7.453  10.751 -0.4737  0.4585 -0.9669
  917MOL0     C20951   6.373   7.497  10.661  0.2857  0.3875  0.9129
  917MOL0     C20952   6.445   7.379  10.593 -0.7395 -0.5111 -1.1817
  917MOL0     C20953   6.510   7.292  10.707  0.2334  0.2470 -0.0152
  917MOL0     C20954   6.580   7.164  10.648 -0.0229 -0.6105 -0.9366
  917MOL0     C20955   6.706   7.214  10.562 -0.0177 -0.1077 -0.3252
  917MOL0    Cl20956   6.788   7.068  10.495 -0.2630  0.0437  0.3368
  917MOL0     C20957   5.759   7.528  10.760  0.5680 -1.1898 -0.5086
  917MOL0     C20958   5.621   7.543  10.758  0.1615 -0.0471 -0.9106
  917MOL0     O20959   5.381   7.496  11.015  0.7458  0.7885 -1.1703
  917MOL0     C20960   5.109   7.461  11.020  0.6939  1.0453 -0.0489
  917MOL0     C20961   4.968   7.467  11.009  0.2503 -0.1761  0.5085
  917MOL0     N20962   4.140   7.439  10.895  0.6198  0.0427  0.0931
  917MOL0     N20963   4.040   7.475  10.969  1.0208 -0.3135 -0.5749
  917MOL0     C20964   4.387   6.963  10.882 -0.0171  0.1518 -0.7969
  917MOL0     C20965   4.511   6.994  10.849  0.3945 -0.1411  0.9211
  917MOL0     C20966   4.882   7.026  10.564 -0.0905  0.6845  0.2578
  917MOL0     C20967   4.940   6.970  10.453 -0.4867 -0.7738  0.2247
  917MOL0     C20968   5.071   7.002  10.413 -0.2098  0.3271 -0.3186
  917MOL0     C20969   5.138   7.089  10.494  0.3324  0.4644 -0.1221
  917MOL0     O20970   5.264   7.111  10.440 -1.0421  0.5640  0.2322
  917MOL0     C20971   5.349   7.188  10.526  0.5492 -0.7385  0.1552
  917MOL0     C20972   5.486   7.175  10.492 -0.3345 -0.6452  0.2157
  917MOL0     C20973   5.528   7.029  10.503 -0.2527 -0.6256  0.6121
  917MOL0     C20974   5.655   6.990  10.429 -0.1280  0.1305 -0.0697
  917MOL0     C20975   5.691   6.849  10.436  0.2355 -0.2341 -1.0475
  917MOL0     C20976   5.702   6.731  10.417  1.2732 -0.3623 -0.7350
  917MOL0     C20977   5.082   7.140  10.609  0.6094  0.4919 -0.1767
  917MOL0     C20978   4.948   7.117  10.636  0.3393  0.1972 -1.3292
  917MOL0     H20979   4.454   7.033  10.507 -0.5698 -2.8073 -0.8138
  917MOL0     H20980   4.218   6.992  10.592  0.3776  2.6914 -0.7504
  917MOL0     H20981   4.028   7.055  10.762 -0.2090 -4.0492 -0.1821
  917MOL0     H20982   4.122   7.117  10.916  0.3067 -1.7813  1.5807
  917MOL0     H20983   4.015   6.934  11.040  1.4416 -0.4799 -0.9590
  917MOL0     H20984   3.894   6.929  10.910 -1.2408 -1.3388  4.5193
  917MOL0     H20985   3.807   7.145  10.959  1.2704  1.6475 -0.4659
  917MOL0     H20986   3.962   7.197  11.016 -1.5140  0.8986  2.4631
  917MOL0     H20987   3.800   6.975  11.173  0.5768 -0.1746 -3.0151
  917MOL0     H20988   3.939   7.047  11.217 -1.0780 -1.6121  0.3284
  917MOL0     H20989   3.731   7.147  11.332  0.2538 -0.7558  0.2327
  917MOL0     H20990   3.666   7.158  11.171  0.2545  0.9223  0.4146
  917MOL0     H20991   3.725   7.388  11.265  0.5038 -0.1225  1.1908
  917MOL0     H20992   3.811   7.346  11.117 -2.3009  0.4188 -0.0886
  917MOL0     H20993   3.920   7.386  11.396 -0.2600  2.6910  0.0786
  917MOL0     H20994   3.995   7.267  11.303 -0.7836 -0.1633  1.7186
  917MOL0     H20995   4.092   7.524  11.282 -1.6408  2.2033 -0.0451
  917MOL0     H20996   3.948   7.576  11.201 -0.5413 -0.0751  0.9785
  917MOL0     H20997   4.225   7.302  11.175 -3.2128  1.8869  3.5996
  917MOL0     H20998   4.335   7.267  10.801  2.2950  0.4773  0.2147
  917MOL0     H20999   4.387   7.224  10.965  0.0595  0.5083  0.9235
  917MOL0     H21000   4.481   7.440  10.997 -2.7861  1.4503  0.1729
  917MOL0     H21001   4.414   7.497  10.842 -1.3233 -0.3947 -1.1914
  917MOL0     H21002   4.617   7.280  10.857 -3.0390 -0.6369  0.9339
  917MOL0     H21003   4.528   7.333  10.715 -2.9074  0.7383  0.8208
  917MOL0     H21004   4.638   7.559  10.757 -0.2246 -0.6849 -1.2577
  917MOL0     H21005   4.738   7.430  10.707  0.5733  1.0676 -0.8777
  917MOL0     H21006   4.935   7.508  10.682  4.5514 -0.0131 -1.2835
  917MOL0     H21007   5.162   7.497  10.693 -0.2618 -0.7913 -0.1724
  917MOL0     H21008   5.542   7.256  10.930  1.7904 -0.0773  2.1337
  917MOL0     H21009   5.788   7.242  10.920 -1.1078  2.0919  2.0307
  917MOL0     H21010   5.970   7.237  10.707  1.2905  0.5285 -1.8053
  917MOL0     H21011   6.078   7.268  10.851  2.0921  1.4729 -0.1081
  917MOL0     H21012   6.127   7.398  10.583  1.9672 -2.8744 -2.2432
  917MOL0     H21013   6.217   7.258  10.651  0.2270 -1.4370  0.0754
  917MOL0     H21014   6.277   7.400  10.844 -0.4199  0.9697 -0.6859
  917MOL0     H21015   6.203   7.543  10.789 -2.8364  0.1410 -2.9850
  917MOL0     H21016   6.332   7.558  10.579  0.5037 -1.2413 -0.4587
  917MOL0     H21017   6.446   7.553  10.722 -0.4421 -0.4798  2.6388
  917MOL0     H21018   6.523   7.414  10.524  2.4679  0.3519  2.5656
  917MOL0     H21019   6.368   7.330  10.532 -0.8045  0.8650 -2.2587
  917MOL0     H21020   6.429   7.256  10.772 -1.2417  0.8678 -1.4353
  917MOL0     H21021   6.586   7.350  10.761  1.2444  0.5742 -1.7147
  917MOL0     H21022   6.624   7.110  10.733 -0.9351  0.3930  0.2104
  917MOL0     H21023   6.517   7.093  10.594 -2.2784  1.3624 -1.0752
  917MOL0     H21024   6.774   7.280  10.617 -1.5944  1.2414  0.0989
  917MOL0     H21025   6.663   7.270  10.479 -1.8013 -0.4527  0.3040
  917MOL0     H21026   5.809   7.608  10.707 -1.3445  0.1548 -0.3836
  917MOL0     H21027   5.575   7.627  10.707  1.3188  0.6108 -0.9183
  917MOL0     H21028   5.164   7.449  11.113 -0.0968  1.2209  0.4546
  917MOL0     H21029   4.928   7.472  11.109  0.6387  1.5197  0.6114
  917MOL0     H21030   4.364   6.937  10.984  2.1887 -0.6447 -0.4364
  917MOL0     H21031   4.597   6.996  10.916  1.3597 -1.9487 -0.2085
  917MOL0     H21032   4.871   6.924  10.384  0.4751  1.2098 -2.2227
  917MOL0     H21033   5.123   6.953  10.332  0.8098 -0.5709  0.8367
  917MOL0     H21034   5.337   7.139  10.623 -0.1789 -2.8333 -0.9266
  917MOL0     H21035   5.309   7.288  10.544  0.1476 -1.0940  1.3335
  917MOL0     H21036   5.494   7.207  10.387 -1.8452 -0.4604  0.1397
  917MOL0     H21037   5.557   7.235  10.549  0.2038  0.5013 -1.5551
  917MOL0     H21038   5.453   6.964  10.459 -0.9485  1.2795 -1.1914
  917MOL0     H21039   5.542   7.001  10.608 -0.8228 -0.9818  0.6016
  917MOL0     H21040   5.650   7.005  10.321 -2.5058  1.6872  0.1815
  917MOL0     H21041   5.740   7.044  10.472  1.7042 -1.8453 -1.0306
  917MOL0     H21042   5.694   6.627  10.393  0.3314 -1.4368  3.3798
  917MOL0     H21043   5.139   7.201  10.679  1.3803 -2.3008  1.8111
  917MOL0     H21044   4.888   7.172  10.708  1.6393 -1.5271  1.2219
  918MOL0     O21045   6.912  11.266   8.755 -0.0370  0.3949  0.1928
  918MOL0     C21046   6.938  11.160   8.818 -0.2475  0.3478 -0.8618
  918MOL0     O21047   6.935  11.148   8.959 -0.2571 -0.6393  0.6112
  918MOL0     C21048   6.847  11.203   9.053  0.3950 -1.0024  0.7634
  918MOL0     C21049   6.848  11.167   9.190 -0.6162  0.1912 -0.3382
  918MOL0     C21050   6.757  11.218   9.280 -0.0615 -0.1844 -0.4680
  918MOL0     C21051   6.655  11.302   9.239 -0.6654 -0.7012 -0.3254
  918MOL0     O21052   6.588  11.379   9.320  0.4209  0.0329 -0.8169
  918MOL0     C21053   6.448  11.367   9.318 -0.3462 -0.3985 -0.4483
  918MOL0     C21054   6.372  11.452   9.430 -0.4087 -0.2481 -0.1883
  918MOL0     C21055   6.233  11.506   9.381  0.4409  0.9178 -0.3167
  918MOL0     C21056   6.176  11.618   9.470  0.0573  0.2399 -0.4851
  918MOL0     C21057   6.045  11.673   9.410  0.2362  0.5950  0.4839
  918MOL0     C21058   5.979  11.754   9.524 -0.2254 -0.0318  0.4598
  918MOL0     C21059   5.853  11.835   9.483 -0.5589  0.2499  0.2405
  918MOL0     C21060   5.880  11.932   9.357 -0.6478  0.7603 -0.1372
  918MOL0     N21061   5.766  12.010   9.344 -0.2453  0.0449 -0.1762
  918MOL0     C21062   5.747  12.137   9.389  0.1229 -0.2861 -0.2503
  918MOL0     C21063   5.621  12.173   9.379  0.8094  0.3618  0.0740
  918MOL0     C21064   5.560  12.300   9.438  0.4035 -0.6479  0.2766
  918MOL0     C21065   5.508  12.397   9.328  0.4060  0.5436  0.1169
  918MOL0     C21066   5.355  12.383   9.312  0.1231 -0.2546  0.3328
  918MOL0     C21067   5.293  12.505   9.238  0.2544  0.5758  0.4481
  918MOL0     O21068   5.182  12.452   9.151 -0.9326  0.6309  0.2535
  918MOL0     C21069   5.078  12.535   9.128  1.4130  0.0972  1.1789
  918MOL0     C21070   4.977  12.500   9.035 -0.3224 -0.4838  0.2009
  918MOL0     C21071   4.848  12.559   9.025  0.0838 -0.9769 -0.0669
  918MOL0     C21072   4.824  12.675   9.101  0.3148 -0.3497  0.9056
  918MOL0     C21073   4.688  12.733   9.101 -1.0414  0.3899 -0.5622
  918MOL0     O21074   4.599  12.657   9.033 -0.1979 -0.7051 -0.5529
  918MOL0     C21075   4.466  12.703   9.043 -0.7202 -0.2335 -0.1981
  918MOL0     C21076   4.390  12.680   9.164  0.4204  0.1529  0.1819
  918MOL0     C21077   4.259  12.724   9.180  0.4094 -0.2066  0.7946
  918MOL0     C21078   4.192  12.781   9.067  0.5413  0.1318  0.9281
  918MOL0     O21079   4.064  12.829   9.073  0.2397 -0.6665 -0.0273
  918MOL0     C21080   3.977  12.752   9.164  0.4924 -0.5530  0.3910
  918MOL0     C21081   3.836  12.791   9.134  0.4273 -0.6346 -0.3929
  918MOL0     C21082   3.789  12.775   8.999  0.7286 -0.2374 -0.3726
  918MOL0     C21083   3.656  12.854   8.985  0.5341 -0.5138 -0.3619
  918MOL0     C21084   3.533  12.777   9.030 -0.5813  0.3007 -0.0879
  918MOL0     C21085   3.407  12.855   9.012  0.3756 -0.4969 -0.0163
  918MOL0     C21086   3.286  12.778   9.054 -0.0862 -0.5628 -0.3588
  918MOL0     C21087   3.162  12.861   9.053  0.0684 -0.0314  0.7783
  918MOL0    Cl21088   3.120  12.912   8.887 -0.0310 -0.2634  0.0533
  918MOL0     C21089   4.266  12.802   8.950  0.3899 -0.3214  0.3377
  918MOL0     C21090   4.402  12.764   8.940  0.1365 -0.3828  0.4426
  918MOL0     O21091   4.671  12.837   9.165 -0.5600  0.4872 -0.3020
  918MOL0     C21092   4.927  12.732   9.171 -0.1866 -1.1120  0.3746
  918MOL0     C21093   5.047  12.660   9.196 -1.0768 -0.2973  0.0310
  918MOL0     N21094   5.564  12.075   9.295 -0.9921  0.4548  0.6373
  918MOL0     N21095   5.662  11.983   9.263  0.4014 -0.1887 -0.4706
  918MOL0     C21096   6.650  11.329   9.106  0.9802 -0.8240 -0.0062
  918MOL0     C21097   6.748  11.290   9.017  0.2004  0.8002  0.1197
  918MOL0     C21098   6.993  11.045   8.741 -0.3698  0.9134 -0.3616
  918MOL0     C21099   6.981  11.042   8.601  0.4493 -0.0084 -0.6193
  918MOL0     C21100   7.041  10.945   8.523 -0.7042  0.6548  0.2980
  918MOL0     C21101   7.124  10.850   8.580 -0.4485 -0.3817 -0.8399
  918MOL0     O21102   7.206  10.762   8.516 -0.1475 -0.1291  0.3981
  918MOL0     C21103   7.230  10.779   8.373  0.2372  0.2650 -0.1268
  918MOL0     C21104   7.342  10.702   8.317 -0.3721  0.0974  0.3644
  918MOL0     C21105   7.478  10.712   8.393  0.9215 -0.2110  0.7602
  918MOL0     C21106   7.594  10.688   8.292 -1.3202  0.6062  0.0233
  918MOL0     C21107   7.582  10.549   8.250  0.4451 -0.7784 -0.1411
  918MOL0     C21108   7.587  10.436   8.211  0.2477  1.1615 -0.0526
  918MOL0     C21109   7.139  10.849   8.723  0.4461 -0.9719  0.7744
  918MOL0     C21110   7.073  10.941   8.801 -0.0406 -0.1442 -0.7199
  918MOL0     H21111   6.919  11.087   9.211  0.4876  1.4693  0.9363
  918MOL0     H21112   6.768  11.197   9.386  0.8612  2.3144  0.0019
  918MOL0     H21113   6.426  11.260   9.326  2.8188 -1.1734 -0.6727
  918MOL0     H21114   6.410  11.405   9.223  0.2598 -2.4719 -1.5873
  918MOL0     H21115   6.430  11.538   9.464 -2.0937  0.6339  0.5864
  918MOL0     H21116   6.360  11.388   9.518  2.0098  0.3376  0.6203
  918MOL0     H21117   6.165  11.420   9.374  1.7569 -0.5400  2.9255
  918MOL0     H21118   6.244  11.557   9.285  0.9952 -1.4052 -1.5682
  918MOL0     H21119   6.159  11.569   9.566 -3.3113 -1.1937 -1.6456
  918MOL0     H21120   6.260  11.688   9.480  0.3553 -0.1912  0.0746
  918MOL0     H21121   5.971  11.603   9.370 -1.7228  3.4504 -1.2905
  918MOL0     H21122   6.057  11.750   9.333 -3.1778  0.4593 -0.3563
  918MOL0     H21123   6.055  11.822   9.563  0.1634 -0.9322  1.3152
  918MOL0     H21124   5.958  11.686   9.607  2.5090  1.9392  2.9734
  918MOL0     H21125   5.770  11.769   9.454  0.5518 -0.8270 -0.5730
  918MOL0     H21126   5.829  11.893   9.572 -1.2093  2.2176 -1.1463
  918MOL0     H21127   5.887  11.860   9.274 -0.6740 -1.6901  1.8847
  918MOL0     H21128   5.975  11.986   9.365  1.0487 -2.3037  3.8306
  918MOL0     H21129   5.820  12.195   9.445 -0.1960 -1.7608  1.7978
  918MOL0     H21130   5.637  12.353   9.494  0.5703 -1.7448  1.1285
  918MOL0     H21131   5.477  12.270   9.503 -1.0969 -2.1463 -2.1689
  918MOL0     H21132   5.557  12.391   9.231  0.2111 -2.8281  0.1114
  918MOL0     H21133   5.526  12.498   9.368  0.3173  0.5565  0.1227
  918MOL0     H21134   5.333  12.289   9.262  1.9526  0.5357 -2.1527
  918MOL0     H21135   5.305  12.387   9.410 -0.4010 -4.0638  0.3558
  918MOL0     H21136   5.369  12.549   9.173  2.8833 -2.4095  1.2579
  918MOL0     H21137   5.261  12.571   9.319 -0.8156 -2.1159  2.3529
  918MOL0     H21138   4.978  12.415   8.968 -2.1462 -0.1145 -0.3501
  918MOL0     H21139   4.769  12.508   8.970  1.6983  0.0986 -3.6226
  918MOL0     H21140   4.433  12.630   9.250  0.8843  0.7732  0.3226
  918MOL0     H21141   4.205  12.700   9.271  1.5587  0.8392  1.7880
  918MOL0     H21142   3.993  12.787   9.267 -2.9026  1.5172  0.3652
  918MOL0     H21143   3.995  12.645   9.167  2.8025 -0.2789 -0.9835
  918MOL0     H21144   3.817  12.895   9.160  1.7923  0.0687 -2.0127
  918MOL0     H21145   3.774  12.731   9.201 -0.8753 -1.5746 -2.3457
  918MOL0     H21146   3.769  12.668   8.985 -0.9185  0.2411 -2.0659
  918MOL0     H21147   3.864  12.795   8.922  1.3556 -3.9833 -0.9695
  918MOL0     H21148   3.667  12.955   9.025  1.4331 -1.5165  2.1370
  918MOL0     H21149   3.633  12.869   8.879  1.5721  0.4566 -0.4691
  918MOL0     H21150   3.540  12.744   9.134  1.8939  3.0868  0.7801
  918MOL0     H21151   3.529  12.683   8.973 -1.3290  1.1929 -1.5789
  918MOL0     H21152   3.399  12.877   8.905  0.3016  4.1360  0.7451
  918MOL0     H21153   3.421  12.947   9.069 -0.3361 -2.1492  3.0596
  918MOL0     H21154   3.273  12.697   8.982 -0.8664  1.1847 -2.3121
  918MOL0     H21155   3.300  12.744   9.157 -2.1667  3.0491  1.3119
  918MOL0     H21156   3.178  12.940   9.128  1.8617  0.2109  0.1919
  918MOL0     H21157   3.086  12.795   9.095  1.4017 -2.4007 -0.3358
  918MOL0     H21158   4.206  12.844   8.870 -1.0855 -1.6153  0.7139
  918MOL0     H21159   4.456  12.779   8.847 -0.4447 -2.7699 -0.3401
  918MOL0     H21160   4.907  12.828   9.218  1.4745  1.1850 -3.1830
  918MOL0     H21161   5.115  12.701   9.271 -0.7986  0.3601 -0.5727
  918MOL0     H21162   6.566  11.382   9.062  0.3736 -2.1527 -0.5189
  918MOL0     H21163   6.739  11.308   8.910 -0.1826 -0.8319 -0.1483
  918MOL0     H21164   6.920  11.113   8.546 -0.0243 -0.3982 -0.6022
  918MOL0     H21165   7.038  10.958   8.416 -0.1748 -2.0461 -0.1191
  918MOL0     H21166   7.251  10.885   8.356 -0.4334  0.5009  0.4481
  918MOL0     H21167   7.140  10.754   8.316 -2.1811  1.5519  2.8565
  918MOL0     H21168   7.309  10.597   8.318  2.9838 -1.0979  2.3589
  918MOL0     H21169   7.352  10.727   8.211  1.4517 -1.6153  0.0579
  918MOL0     H21170   7.474  10.648   8.481 -1.2825  0.1622  0.9842
  918MOL0     H21171   7.493  10.816   8.425  2.2291  0.3055 -1.3094
  918MOL0     H21172   7.592  10.748   8.201 -0.3635  2.9644  1.4751
  918MOL0     H21173   7.688  10.708   8.346 -2.2675  0.9792  1.6041
  918MOL0     H21174   7.607  10.333   8.189  0.3217  1.5832 -2.1964
  918MOL0     H21175   7.207  10.781   8.773 -0.5005 -2.9086 -0.4591
  918MOL0     H21176   7.090  10.934   8.908 -2.2736 -1.5852 -0.4085
  919MOL0     O21177   1.892   0.183   5.397  0.0447 -0.1111  0.2174
  919MOL0     C21178   1.871   0.131   5.287 -0.5781  1.1988  0.1961
  919MOL0     O21179   1.957   0.125   5.171 -0.3574  0.1423 -0.1204
  919MOL0     C21180   2.082   0.190   5.164 -0.2526 -0.0774 -0.8451
  919MOL0     C21181   2.163   0.221   5.272  0.2836  0.4475 -1.2734
  919MOL0     C21182   2.286   0.278   5.255 -0.9609 -1.0651 -0.3448
  919MOL0     C21183   2.331   0.315   5.129 -0.1172  0.5072 -0.2497
  919MOL0     O21184   2.457   0.358   5.121  0.2908 -0.9234 -0.0912
  919MOL0     C21185   2.491   0.493   5.166  0.7871  0.5245  0.3513
  919MOL0     C21186   2.591   0.554   5.066  0.5787  1.0006 -0.6499
  919MOL0     C21187   2.545   0.576   4.926  0.8097 -0.2901 -0.3878
  919MOL0     C21188   2.634   0.669   4.831  0.2559 -0.3381 -0.4898
  919MOL0     C21189   2.567   0.716   4.694  0.1359  0.2369 -0.1100
  919MOL0     C21190   2.602   0.601   4.592  0.8343  0.5170 -0.4138
  919MOL0     C21191   2.550   0.650   4.460  0.3736  0.4136 -0.3426
  919MOL0     C21192   2.565   0.553   4.346  0.5462 -0.8322  0.0903
  919MOL0     N21193   2.544   0.618   4.217  0.3435  0.6809 -0.5910
  919MOL0     C21194   2.427   0.662   4.156  0.4314  1.3463  0.8633
  919MOL0     C21195   2.472   0.711   4.039  0.5337  0.4871  0.0340
  919MOL0     C21196   2.389   0.774   3.933  0.1520 -0.8516  0.3536
  919MOL0     C21197   2.348   0.923   3.952 -0.0655  0.7671 -0.6390
  919MOL0     C21198   2.330   1.000   3.823  0.6206  0.1103  0.1467
  919MOL0     C21199   2.218   0.953   3.731  0.2666 -0.1282 -0.3325
  919MOL0     O21200   2.096   0.960   3.811  0.0365 -0.0592 -0.4415
  919MOL0     C21201   1.976   0.978   3.744 -0.1929  0.4657 -0.0043
  919MOL0     C21202   1.865   0.990   3.824  0.1554  0.6195  0.1025
  919MOL0     C21203   1.737   0.996   3.770 -0.4896  0.4428 -0.8683
  919MOL0     C21204   1.714   0.994   3.632 -0.5621 -0.7679 -0.5647
  919MOL0     C21205   1.586   1.001   3.584  0.2791 -0.0086  0.3584
  919MOL0     O21206   1.481   1.032   3.669  0.2913  0.3273 -0.2807
  919MOL0     C21207   1.353   1.046   3.631 -0.2292  0.2776 -0.4048
  919MOL0     C21208   1.293   1.028   3.511 -0.1168  0.0367 -0.2770
  919MOL0     C21209   1.155   1.056   3.496  0.1925 -0.0087 -0.2727
  919MOL0     C21210   1.078   1.114   3.602 -0.5164 -0.6701 -0.2991
  919MOL0     O21211   0.951   1.132   3.576  0.1602 -0.3662  0.3691
  919MOL0     C21212   0.881   1.020   3.627 -0.1825  0.9449 -0.3824
  919MOL0     C21213   0.864   0.899   3.527  0.0824  0.3478 -0.0089
  919MOL0     C21214   0.799   0.947   3.400  0.0209 -0.2233 -0.3988
  919MOL0     C21215   0.766   0.837   3.301  0.1714  0.6533  0.5056
  919MOL0     C21216   0.728   0.882   3.157  0.3721  0.3672 -0.2618
  919MOL0     C21217   0.573   0.925   3.164  0.2450  0.7407  0.3722
  919MOL0     C21218   0.544   1.001   3.034 -0.1647  0.2440 -0.6334
  919MOL0     C21219   0.395   1.048   3.019  1.1589  0.0113  0.1355
  919MOL0    Cl21220   0.377   1.084   2.844 -0.4240  0.1867  0.4220
  919MOL0     C21221   1.152   1.144   3.719 -0.7725 -0.0205 -0.4698
  919MOL0     C21222   1.278   1.102   3.733  0.2362 -0.2576  0.0696
  919MOL0     O21223   1.577   0.978   3.463 -0.1686 -0.0759  0.8867
  919MOL0     C21224   1.825   0.983   3.547  0.1480 -0.0326 -0.2688
  919MOL0     C21225   1.954   0.972   3.604  0.6069  0.0894 -1.2996
  919MOL0     N21226   2.605   0.710   4.042 -0.3380 -0.0351 -0.6377
  919MOL0     N21227   2.649   0.650   4.142  0.2809 -0.1700 -0.1775
  919MOL0     C21228   2.249   0.287   5.020  0.0098  0.3629  0.8111
  919MOL0     C21229   2.120   0.231   5.038 -0.6062  0.5381  0.6642
  919MOL0     C21230   1.734   0.065   5.283  0.8302 -0.2023  0.0816
  919MOL0     C21231   1.696  -0.000   5.171 -0.6641 -1.0240  0.8997
  919MOL0     C21232   1.577  -0.077   5.174 -0.4167 -0.6916  0.2922
  919MOL0     C21233   1.496  -0.092   5.280  0.7196  0.6859 -0.4524
  919MOL0     O21234   1.384  -0.165   5.250  0.2485  0.5395 -0.5580
  919MOL0     C21235   1.287  -0.178   5.362  0.6404 -0.5088  0.2811
  919MOL0     C21236   1.331  -0.279   5.470 -0.1365 -0.7560  0.6408
  919MOL0     C21237   1.217  -0.299   5.569 -0.2426 -0.8247  0.3555
  919MOL0     C21238   1.124  -0.415   5.535 -1.3861 -0.1412 -0.3929
  919MOL0     C21239   0.983  -0.389   5.565 -0.4335  0.1069 -0.1243
  919MOL0     C21240   0.859  -0.389   5.590  0.1038  1.0713  0.4385
  919MOL0     C21241   1.533  -0.015   5.394 -0.9859  0.2556 -1.0084
  919MOL0     C21242   1.657   0.050   5.399 -0.2846 -0.0342  0.0123
  919MOL0     H21243   2.123   0.206   5.372  4.9868 -0.2760  0.7652
  919MOL0     H21244   2.349   0.306   5.339 -1.3981  0.2460 -0.4251
  919MOL0     H21245   2.538   0.496   5.265 -0.1960  1.4583  0.8104
  919MOL0     H21246   2.394   0.542   5.172 -1.7939 -4.0762  0.7485
  919MOL0     H21247   2.673   0.483   5.078  0.4026  1.3364  5.9139
  919MOL0     H21248   2.628   0.643   5.116  2.1436  0.8549 -1.4788
  919MOL0     H21249   2.442   0.613   4.934  0.2003 -2.2049  1.7857
  919MOL0     H21250   2.544   0.473   4.890  0.5561  0.0015 -1.2519
  919MOL0     H21251   2.661   0.760   4.885  0.0725 -1.1407  0.9991
  919MOL0     H21252   2.725   0.612   4.812 -0.3457 -1.9673  1.2298
  919MOL0     H21253   2.619   0.807   4.662 -0.2980 -0.5820 -3.6271
  919MOL0     H21254   2.460   0.730   4.709  0.1415  1.7329 -1.2342
  919MOL0     H21255   2.556   0.508   4.627  0.8853  1.4520  2.3277
  919MOL0     H21256   2.711   0.589   4.579  0.6877 -2.1603  0.0823
  919MOL0     H21257   2.447   0.684   4.470 -0.0577 -0.2736 -2.1304
  919MOL0     H21258   2.605   0.741   4.435 -0.5538  0.4921 -2.2328
  919MOL0     H21259   2.491   0.473   4.349 -0.1763 -0.4598 -3.1913
  919MOL0     H21260   2.658   0.497   4.340  0.6536 -0.8094  1.2753
  919MOL0     H21261   2.322   0.652   4.178  0.8035 -0.6119  2.0045
  919MOL0     H21262   2.296   0.720   3.913 -1.5034  1.8018  0.3513
  919MOL0     H21263   2.447   0.770   3.841  0.4945 -1.4691  0.5919
  919MOL0     H21264   2.430   0.972   4.006 -0.7300 -0.0318  1.1908
  919MOL0     H21265   2.255   0.924   4.010 -0.2437  2.5500 -0.9043
  919MOL0     H21266   2.323   1.109   3.830  0.4045  0.0524  0.8652
  919MOL0     H21267   2.426   0.980   3.774 -0.0161 -2.9985 -0.0563
  919MOL0     H21268   2.236   0.849   3.701 -1.3874 -0.2014 -1.1959
  919MOL0     H21269   2.225   1.009   3.637  2.9822  0.8623  0.3591
  919MOL0     H21270   1.883   0.992   3.931 -0.2258 -1.8223  0.2583
  919MOL0     H21271   1.655   1.008   3.841 -1.9994  1.1012 -2.6296
  919MOL0     H21272   1.339   0.967   3.434 -2.6610 -1.3621 -0.8233
  919MOL0     H21273   1.102   1.010   3.414 -2.3248  1.2481  0.5223
  919MOL0     H21274   0.778   1.049   3.649 -1.0133 -2.9043  1.7123
  919MOL0     H21275   0.934   0.989   3.718  0.9583 -0.6069 -1.5218
  919MOL0     H21276   0.798   0.825   3.572  1.5810 -1.5694 -0.8356
  919MOL0     H21277   0.956   0.849   3.496 -1.1609 -0.4573 -2.7093
  919MOL0     H21278   0.869   1.024   3.366  2.0572 -0.4109  2.9763
  919MOL0     H21279   0.710   1.006   3.428  0.1054 -0.5810  0.6858
  919MOL0     H21280   0.862   0.787   3.285  1.5407  3.1959  0.2215
  919MOL0     H21281   0.690   0.770   3.342 -1.1095  1.5433 -0.3560
  919MOL0     H21282   0.748   0.809   3.078 -0.7833 -0.0929 -0.1416
  919MOL0     H21283   0.789   0.972   3.142  0.6328  0.2297 -0.0322
  919MOL0     H21284   0.547   0.993   3.246  0.7194  0.0371  1.1152
  919MOL0     H21285   0.509   0.837   3.163  1.0651  0.1345  0.4536
  919MOL0     H21286   0.606   1.091   3.028 -0.1095  0.2906  0.4662
  919MOL0     H21287   0.562   0.938   2.946 -0.4096  1.6822 -1.7328
  919MOL0     H21288   0.372   1.136   3.080 -1.6067 -0.4510 -0.1043
  919MOL0     H21289   0.331   0.963   3.044  1.5630  0.0058  1.1918
  919MOL0     H21290   1.095   1.185   3.802  0.2501 -1.1601  0.8437
  919MOL0     H21291   1.327   1.104   3.829  2.3628  1.1815 -0.9612
  919MOL0     H21292   1.814   0.998   3.441  0.2644  1.9753 -0.0276
  919MOL0     H21293   2.037   0.952   3.537  0.4328  0.2873 -1.5761
  919MOL0     H21294   2.297   0.309   4.925  0.8440 -0.3475  1.0511
  919MOL0     H21295   2.049   0.212   4.958  1.0367  1.3772 -1.1004
  919MOL0     H21296   1.751   0.017   5.079  0.7052 -0.1623  1.8426
  919MOL0     H21297   1.561  -0.130   5.080  1.3810 -1.1243  0.1799
  919MOL0     H21298   1.184  -0.199   5.333  0.4938 -1.4725  1.4101
  919MOL0     H21299   1.271  -0.076   5.398 -0.0601  1.3258 -4.4997
  919MOL0     H21300   1.356  -0.369   5.413 -0.0560 -0.5250  0.3137
  919MOL0     H21301   1.424  -0.257   5.522  2.3351 -3.2465 -2.2917
  919MOL0     H21302   1.173  -0.200   5.579  2.0513  0.2324  0.7152
  919MOL0     H21303   1.259  -0.328   5.665 -1.7604 -2.1483  0.6622
  919MOL0     H21304   1.129  -0.429   5.427 -0.9560 -0.0985 -0.3818
  919MOL0     H21305   1.155  -0.507   5.586 -1.3830 -1.0446 -1.9774
  919MOL0     H21306   0.753  -0.387   5.602  0.2754  1.1198  2.3147
  919MOL0     H21307   1.465  -0.010   5.479 -3.7695 -1.0203 -3.0282
  919MOL0     H21308   1.689   0.117   5.478 -0.8131 -0.2823  0.4443
  920MOL0     O21309   6.716   4.593   7.027 -0.0568 -0.8460 -1.0634
  920MOL0     C21310   6.672   4.708   7.046 -0.2906  0.7162 -0.0575
  920MOL0     O21311   6.742   4.815   7.089 -0.2870 -0.2284 -0.0198
  920MOL0     C21312   6.863   4.803   7.148 -0.4816  0.3703  0.4160
  920MOL0     C21313   6.975   4.762   7.077 -0.1813  0.2067  0.6075
  920MOL0     C21314   7.091   4.735   7.151 -0.4912 -0.1502 -1.1838
  920MOL0     C21315   7.095   4.754   7.297  0.2534  0.3861  0.0324
  920MOL0     O21316   7.206   4.752   7.379 -0.6790  0.1345  0.1644
  920MOL0     C21317   7.324   4.711   7.304  0.8790 -0.0514 -0.5779
  920MOL0     C21318   7.445   4.739   7.402  0.7279  0.1176 -0.1705
  920MOL0     C21319   7.414   4.693   7.550  0.6383 -0.3567  0.3767
  920MOL0     C21320   7.318   4.761   7.652 -0.2927 -0.2945  0.8794
  920MOL0     C21321   7.295   4.670   7.773  0.5365 -0.5546 -0.1427
  920MOL0     C21322   7.200   4.738   7.879  0.1566 -0.2859 -0.2900
  920MOL0     C21323   7.181   4.648   8.003  0.5087 -1.0444  1.2061
  920MOL0     C21324   7.079   4.711   8.084  0.8927  0.6387  0.6053
  920MOL0     N21325   7.040   4.615   8.189  0.3944 -0.0720 -0.4773
  920MOL0     C21326   7.112   4.577   8.294 -0.1576 -0.0545 -0.0316
  920MOL0     C21327   7.029   4.503   8.372 -0.3442  0.0647  0.3282
  920MOL0     C21328   7.054   4.424   8.502  0.4221  1.1521  0.6444
  920MOL0     C21329   7.159   4.316   8.472 -0.5931 -0.1460 -0.1274
  920MOL0     C21330   7.107   4.199   8.395 -0.9739  0.4354  0.4977
  920MOL0     C21331   7.211   4.136   8.299 -0.4720  0.4265 -0.5962
  920MOL0     O21332   7.219   4.220   8.187 -0.7336  0.3147 -0.5582
  920MOL0     C21333   7.296   4.186   8.075 -0.8621 -0.5852  0.2343
  920MOL0     C21334   7.258   4.259   7.962 -0.7139 -0.3967  0.2897
  920MOL0     C21335   7.293   4.211   7.840  0.0563  0.1137 -0.0889
  920MOL0     C21336   7.386   4.108   7.829 -0.4951 -0.7203 -0.1255
  920MOL0     C21337   7.434   4.064   7.697  0.2684 -0.1926 -0.0115
  920MOL0     O21338   7.552   3.999   7.684  0.1021  0.4799  0.4774
  920MOL0     C21339   7.622   4.010   7.564  0.4402  0.3346 -0.0838
  920MOL0     C21340   7.669   4.127   7.505 -1.1994  0.1205  0.1960
  920MOL0     C21341   7.734   4.119   7.380 -0.0095 -0.3853  0.2080
  920MOL0     C21342   7.742   3.999   7.309 -0.6347  0.0344  1.9840
  920MOL0     O21343   7.817   4.002   7.186  0.1813  0.1636 -0.2745
  920MOL0     C21344   7.821   3.878   7.108 -0.7684 -0.5269 -0.3908
  920MOL0     C21345   7.925   3.891   7.010 -1.1848 -0.4593  0.2609
  920MOL0     C21346   7.915   3.765   6.919 -0.0483 -0.3740  0.6212
  920MOL0     C21347   8.039   3.740   6.831  0.0100 -0.9232 -0.6626
  920MOL0     C21348   8.025   3.832   6.712 -0.2118  0.0522  0.1862
  920MOL0     C21349   8.064   3.770   6.578 -0.6110 -0.1038  0.0150
  920MOL0     C21350   8.201   3.708   6.560  0.2977 -0.5355 -0.2899
  920MOL0     C21351   8.239   3.685   6.411 -0.7033  0.7288 -0.2353
  920MOL0    Cl21352   8.249   3.845   6.326 -0.4671 -0.3165  0.1985
  920MOL0     C21353   7.692   3.883   7.365 -0.0103 -0.5695 -0.2680
  920MOL0     C21354   7.628   3.889   7.488  0.0203  0.8201 -0.3228
  920MOL0     O21355   7.364   4.120   7.606  0.0711  0.3426  0.6351
  920MOL0     C21356   7.425   4.033   7.940 -0.1110  0.2318 -0.4980
  920MOL0     C21357   7.377   4.076   8.061 -0.0093  0.4883 -0.7160
  920MOL0     N21358   6.911   4.505   8.302  0.2706 -0.1201 -0.0902
  920MOL0     N21359   6.917   4.561   8.189 -0.4960 -0.2726 -0.0105
  920MOL0     C21360   6.970   4.775   7.363 -0.7259 -0.7180  0.3541
  920MOL0     C21361   6.861   4.805   7.285 -0.4802 -0.0036  0.5248
  920MOL0     C21362   6.529   4.722   7.024 -0.1415 -0.6569 -0.4733
  920MOL0     C21363   6.452   4.785   7.118 -0.6850  0.3027  0.2626
  920MOL0     C21364   6.309   4.794   7.112 -0.5090 -0.2025 -0.4488
  920MOL0     C21365   6.247   4.743   6.991  0.8453 -0.6481 -0.3087
  920MOL0     O21366   6.110   4.758   6.977 -0.1614  0.4203  0.6473
  920MOL0     C21367   6.059   4.783   6.844 -0.0715  0.5672 -1.7183
  920MOL0     C21368   5.920   4.841   6.867  0.4569  0.1712  1.2939
  920MOL0     C21369   5.823   4.735   6.923 -0.3365  0.4515  0.3228
  920MOL0     C21370   5.709   4.799   6.999 -0.3556  0.3095  0.3058
  920MOL0     C21371   5.619   4.875   6.911  0.3939  0.5240 -0.6581
  920MOL0     C21372   5.548   4.961   6.862  0.5139  0.7270  0.7323
  920MOL0     C21373   6.327   4.670   6.906 -0.5946 -0.9773  0.4782
  920MOL0     C21374   6.469   4.652   6.924 -0.0918 -0.8769  0.0836
  920MOL0     H21375   6.970   4.737   6.972  1.9590 -0.0935  0.5293
  920MOL0     H21376   7.174   4.701   7.090  0.0949  2.2554 -1.8334
  920MOL0     H21377   7.336   4.786   7.225  0.2051  0.1670 -0.4752
  920MOL0     H21378   7.307   4.609   7.268 -0.1343 -1.2445  2.9082
  920MOL0     H21379   7.460   4.848   7.400 -0.5137  0.3042 -1.6763
  920MOL0     H21380   7.533   4.677   7.380 -0.7454 -2.5246  0.9558
  920MOL0     H21381   7.510   4.694   7.602  1.3839  1.4247 -0.9313
  920MOL0     H21382   7.375   4.591   7.540 -2.1799  0.6747  0.1962
  920MOL0     H21383   7.361   4.854   7.689 -2.8360  2.3081 -2.0257
  920MOL0     H21384   7.216   4.784   7.619 -1.9319 -1.4725  4.6462
  920MOL0     H21385   7.391   4.636   7.814 -0.1906 -1.9065  0.5110
  920MOL0     H21386   7.245   4.583   7.730  0.9904 -0.4568 -0.9014
  920MOL0     H21387   7.105   4.753   7.829  1.3550  0.7959 -2.3784
  920MOL0     H21388   7.243   4.834   7.912 -0.7289  0.0221 -0.0172
  920MOL0     H21389   7.143   4.552   7.966  2.8869 -0.8469 -2.1832
  920MOL0     H21390   7.272   4.635   8.061  0.4049  0.0029  1.6212
  920MOL0     H21391   6.987   4.736   8.029  0.7754 -0.6615  0.1757
  920MOL0     H21392   7.118   4.798   8.136  0.0990  1.4798 -0.1678
  920MOL0     H21393   7.214   4.605   8.322 -0.3810  0.4569  0.2929
  920MOL0     H21394   6.963   4.367   8.520  0.8212 -1.2612 -3.6246
  920MOL0     H21395   7.078   4.495   8.582 -2.6107  2.6642  0.3435
  920MOL0     H21396   7.190   4.281   8.571 -1.7448  0.0806  0.3312
  920MOL0     H21397   7.243   4.351   8.411 -0.0907 -4.0219 -1.9442
  920MOL0     H21398   7.067   4.126   8.466  0.8680 -0.5396  0.5804
  920MOL0     H21399   7.028   4.234   8.327 -0.7768  0.1425  0.1148
  920MOL0     H21400   7.181   4.033   8.276  4.4322 -1.5135  0.5469
  920MOL0     H21401   7.301   4.123   8.360 -1.0063  2.7045  0.7770
  920MOL0     H21402   7.182   4.337   7.961  0.3193  0.6574 -0.6529
  920MOL0     H21403   7.245   4.262   7.756  2.2810 -0.0662 -1.5640
  920MOL0     H21404   7.675   4.223   7.554  0.4151  0.1814 -0.0644
  920MOL0     H21405   7.791   4.198   7.331 -1.4973 -0.4515 -1.7765
  920MOL0     H21406   7.721   3.866   7.065 -2.0644  0.6595  2.0851
  920MOL0     H21407   7.837   3.791   7.172 -0.8554 -0.1060  0.2155
  920MOL0     H21408   8.024   3.898   7.056 -2.7477  0.2957  3.8211
  920MOL0     H21409   7.910   3.984   6.954  0.8680  0.5231  1.2456
  920MOL0     H21410   7.828   3.758   6.852  1.9206  0.3851 -2.1920
  920MOL0     H21411   7.911   3.681   6.988 -4.0184  0.6385  1.9164
  920MOL0     H21412   8.133   3.766   6.880 -0.1446  1.6885 -1.5870
  920MOL0     H21413   8.048   3.636   6.798 -1.7820 -2.2818  2.6688
  920MOL0     H21414   8.078   3.926   6.730 -0.8790  0.4292  0.2339
  920MOL0     H21415   7.926   3.879   6.706  0.0499  0.7289  0.9366
  920MOL0     H21416   8.047   3.853   6.508  0.2011  0.8260  0.8884
  920MOL0     H21417   7.994   3.694   6.541  1.9191 -2.4382 -0.3728
  920MOL0     H21418   8.266   3.778   6.614  0.0035  0.4551 -1.1821
  920MOL0     H21419   8.217   3.616   6.617  1.5621  0.1325  0.4914
  920MOL0     H21420   8.167   3.614   6.368  0.2003 -0.1925 -0.2555
  920MOL0     H21421   8.333   3.631   6.394 -1.0280  0.6022 -1.7605
  920MOL0     H21422   7.701   3.783   7.324 -0.0348 -0.1130 -1.4398
  920MOL0     H21423   7.588   3.794   7.522  3.1132 -1.3703 -2.3529
  920MOL0     H21424   7.480   3.940   7.928  0.5058  0.9148 -4.1102
  920MOL0     H21425   7.396   4.017   8.151 -1.2745  0.1876 -0.6267
  920MOL0     H21426   6.975   4.770   7.471  2.5313  0.1134  0.3439
  920MOL0     H21427   6.763   4.830   7.324 -2.2864 -3.4888 -1.3996
  920MOL0     H21428   6.502   4.818   7.209  1.2502  1.1754 -1.0443
  920MOL0     H21429   6.261   4.819   7.206  2.2518 -0.5589  1.1725
  920MOL0     H21430   6.055   4.688   6.789  0.0586 -0.6450  0.2481
  920MOL0     H21431   6.124   4.844   6.780  3.7599 -3.1899 -1.8800
  920MOL0     H21432   5.918   4.933   6.926  0.6570  0.2456  1.1857
  920MOL0     H21433   5.882   4.875   6.771  0.1516 -0.2768  1.2510
  920MOL0     H21434   5.856   4.644   6.974 -1.4643 -0.3854 -0.3808
  920MOL0     H21435   5.789   4.685   6.832  0.0475 -1.2325  1.0628
  920MOL0     H21436   5.656   4.714   7.044  1.9616 -2.4617 -1.7884
  920MOL0     H21437   5.744   4.871   7.073 -2.7004  1.8938 -0.0087
  920MOL0     H21438   5.484   5.033   6.814 -0.2821 -0.8890 -0.7421
  920MOL0     H21439   6.282   4.622   6.820 -1.4078  3.1499 -1.6529
  920MOL0     H21440   6.519   4.577   6.864 -0.9819 -2.6922  1.5001
  921MOL0     O21441   8.034   0.368   1.961  1.1451 -0.4096  0.4467
  921MOL0     C21442   8.077   0.482   1.952  0.3910 -0.5587  0.1686
  921MOL0     O21443   7.998   0.596   1.961  0.2295  0.1264 -0.3463
  921MOL0     C21444   7.867   0.584   1.993 -0.7562 -0.2018  0.5064
  921MOL0     C21445   7.768   0.558   1.904 -0.7101 -0.6174  0.6631
  921MOL0     C21446   7.626   0.547   1.942 -0.6189 -0.6222  0.2554
  921MOL0     C21447   7.594   0.577   2.080  0.8769  0.3866 -0.2536
  921MOL0     O21448   7.463   0.561   2.131  0.3954 -0.2669  0.1988
  921MOL0     C21449   7.357   0.573   2.038  0.5597  0.4595 -0.1183
  921MOL0     C21450   7.307   0.433   1.988  0.3827 -0.6314  0.2264
  921MOL0     C21451   7.168   0.434   1.923 -0.5874 -0.2941 -0.1709
  921MOL0     C21452   7.066   0.479   2.024  0.1569  0.0492  0.5217
  921MOL0     C21453   6.930   0.415   1.994 -0.1423  1.0977 -0.0387
  921MOL0     C21454   6.838   0.428   2.113 -0.7854 -0.1171 -0.4078
  921MOL0     C21455   6.784   0.580   2.126  0.0140 -0.2800  1.2931
  921MOL0     C21456   6.687   0.623   2.017  0.2547 -0.6274  0.6721
  921MOL0     N21457   6.626   0.754   2.065 -0.2573  0.2695 -0.4523
  921MOL0     C21458   6.513   0.761   2.139  0.3363 -0.1170  0.2315
  921MOL0     C21459   6.484   0.887   2.170 -0.4505  0.0941 -0.9941
  921MOL0     C21460   6.368   0.927   2.263  0.2298  0.3227  0.0750
  921MOL0     C21461   6.281   1.032   2.194  0.3244 -0.9195  0.0629
  921MOL0     C21462   6.190   0.971   2.092  0.1329  0.2983 -0.8748
  921MOL0     C21463   6.116   1.071   2.004 -0.3306  0.0476 -0.2552
  921MOL0     O21464   6.010   1.006   1.949  0.6280 -0.6368 -0.4822
  921MOL0     C21465   5.904   1.087   1.903  0.0175 -1.2163 -0.5123
  921MOL0     C21466   5.782   1.016   1.899  0.7508 -0.4658  0.2475
  921MOL0     C21467   5.664   1.082   1.853 -0.3495 -0.3445  0.3379
  921MOL0     C21468   5.676   1.221   1.817 -0.3373  0.4900 -0.3423
  921MOL0     C21469   5.553   1.283   1.768 -0.2293 -0.3039  0.2160
  921MOL0     O21470   5.557   1.416   1.745 -0.1897  0.4219 -0.0362
  921MOL0     C21471   5.443   1.486   1.707  0.7334  0.2231 -0.2783
  921MOL0     C21472   5.421   1.601   1.776  0.7875  1.1171 -0.1333
  921MOL0     C21473   5.297   1.662   1.765 -0.5973  0.3517 -0.1234
  921MOL0     C21474   5.201   1.631   1.668 -0.0141  0.4270  1.0408
  921MOL0     O21475   5.087   1.708   1.648  0.4368 -0.1643  0.4402
  921MOL0     C21476   5.122   1.848   1.669 -0.2247 -0.6190  0.5994
  921MOL0     C21477   5.003   1.930   1.614  1.1526  0.6491 -0.5056
  921MOL0     C21478   5.013   2.069   1.676 -0.2516 -0.2855  0.5044
  921MOL0     C21479   4.889   2.152   1.628  0.3422 -0.4083  0.1053
  921MOL0     C21480   4.911   2.295   1.637 -0.0851  0.5778 -0.0110
  921MOL0     C21481   4.768   2.363   1.627  0.8569  0.0404  0.3479
  921MOL0     C21482   4.798   2.513   1.617  0.1475 -0.3932 -0.4582
  921MOL0     C21483   4.676   2.601   1.589  0.6184  0.1516  1.3214
  921MOL0    Cl21484   4.571   2.614   1.728  0.0523  0.1928  0.1108
  921MOL0     C21485   5.234   1.516   1.594  0.6372  0.3112  0.2760
  921MOL0     C21486   5.350   1.443   1.615  0.2873  0.3008 -0.7942
  921MOL0     O21487   5.449   1.218   1.751 -0.0590  0.4440 -0.2475
  921MOL0     C21488   5.798   1.290   1.834  0.4471 -0.1552 -0.0973
  921MOL0     C21489   5.918   1.224   1.874  1.0348  0.6348  0.4103
  921MOL0     N21490   6.575   0.955   2.090  0.3746  0.2587 -0.8872
  921MOL0     N21491   6.652   0.878   2.023 -0.6422 -0.4661 -0.2060
  921MOL0     C21492   7.692   0.608   2.177  0.1831  0.0229  0.7091
  921MOL0     C21493   7.824   0.600   2.131 -0.0716  0.4249  0.3931
  921MOL0     C21494   8.223   0.499   1.920  0.5652 -0.1442  0.0771
  921MOL0     C21495   8.299   0.392   1.865 -0.4006 -0.2441 -0.8622
  921MOL0     C21496   8.430   0.425   1.826 -0.3876  0.4928  0.1984
  921MOL0     C21497   8.484   0.557   1.846 -0.1578 -0.1356  0.1433
  921MOL0     O21498   8.603   0.594   1.793 -0.4361 -0.6733  0.1519
  921MOL0     C21499   8.688   0.508   1.713  0.3466  0.4585 -0.0822
  921MOL0     C21500   8.777   0.421   1.801 -0.5372 -0.4808  0.0240
  921MOL0     C21501   8.890   0.494   1.870 -1.0221 -0.1164  0.0155
  921MOL0     C21502   8.944   0.417   1.986 -0.5089 -0.6071 -0.1597
  921MOL0     C21503   9.056   0.499   2.030 -0.3349 -0.2480 -1.4346
  921MOL0     C21504   9.152   0.562   2.063  0.2207 -0.0640  0.1210
  921MOL0     C21505   8.402   0.655   1.894  0.1808  0.3040 -0.5643
  921MOL0     C21506   8.274   0.629   1.936  0.6514  0.6325  0.9314
  921MOL0     H21507   7.809   0.531   1.807 -0.6447 -3.6871  1.4403
  921MOL0     H21508   7.559   0.511   1.865  0.6807 -2.0317 -0.2753
  921MOL0     H21509   7.392   0.641   1.960 -0.1871 -0.2168 -1.0732
  921MOL0     H21510   7.277   0.623   2.093  0.5651 -1.4221  1.7476
  921MOL0     H21511   7.288   0.361   2.068  1.5867 -1.5803 -0.3214
  921MOL0     H21512   7.366   0.383   1.911  0.5759  0.5974 -0.4501
  921MOL0     H21513   7.145   0.333   1.889 -0.6863 -1.0355  1.9521
  921MOL0     H21514   7.163   0.496   1.833  1.4691  0.8011  0.3996
  921MOL0     H21515   7.094   0.442   2.123  1.2359  0.7782  0.5008
  921MOL0     H21516   7.066   0.588   2.033  0.1561  0.0030  1.0888
  921MOL0     H21517   6.950   0.311   1.967  2.6693  2.0808 -2.2399
  921MOL0     H21518   6.887   0.454   1.902 -0.1197 -1.6545 -1.3239
  921MOL0     H21519   6.886   0.399   2.207 -1.3525  5.5497  2.1013
  921MOL0     H21520   6.748   0.367   2.099 -0.9698  0.2507 -0.8685
  921MOL0     H21521   6.740   0.581   2.227  1.6179  2.3102  2.0701
  921MOL0     H21522   6.869   0.648   2.131 -0.1824 -0.0374  6.0845
  921MOL0     H21523   6.598   0.563   1.995 -1.0904  2.3117 -2.9905
  921MOL0     H21524   6.747   0.636   1.926 -1.4532  0.5545 -0.3506
  921MOL0     H21525   6.464   0.671   2.173 -0.9724 -0.4918 -2.3725
  921MOL0     H21526   6.409   0.983   2.348  0.0001  1.7090 -0.6969
  921MOL0     H21527   6.309   0.847   2.308  0.3346  0.6229  0.7624
  921MOL0     H21528   6.346   1.105   2.145 -0.4473 -0.3796 -0.1669
  921MOL0     H21529   6.231   1.088   2.273  1.3443 -0.5505  0.4663
  921MOL0     H21530   6.235   0.903   2.019  0.1397 -1.0192  0.3109
  921MOL0     H21531   6.117   0.902   2.136  1.5753 -1.3645 -0.9732
  921MOL0     H21532   6.181   1.107   1.924 -1.8628  4.4768  0.1946
  921MOL0     H21533   6.075   1.162   2.051 -0.3448  0.6005 -1.3070
  921MOL0     H21534   5.776   0.910   1.924  0.0265 -0.2715  0.9253
  921MOL0     H21535   5.574   1.023   1.840 -1.2447  1.1014 -0.2642
  921MOL0     H21536   5.488   1.623   1.859 -1.1588  0.2300  1.7779
  921MOL0     H21537   5.295   1.737   1.843 -0.1849 -0.6030  0.8137
  921MOL0     H21538   5.220   1.879   1.632 -0.9359  0.4073 -0.4881
  921MOL0     H21539   5.129   1.870   1.776 -0.0575  0.9961  0.2827
  921MOL0     H21540   4.917   1.878   1.657  3.3482 -1.4520  1.7302
  921MOL0     H21541   4.991   1.938   1.506 -0.0749 -0.3591 -0.4648
  921MOL0     H21542   5.101   2.122   1.636 -1.2453  0.8730 -0.2318
  921MOL0     H21543   5.008   2.058   1.785 -0.3343  0.8648  0.6377
  921MOL0     H21544   4.876   2.130   1.522  0.1299 -1.2729  0.3036
  921MOL0     H21545   4.798   2.115   1.675  0.4175 -1.6670 -0.6836
  921MOL0     H21546   4.981   2.336   1.564  0.7682  1.3564  1.1934
  921MOL0     H21547   4.959   2.305   1.735 -2.3380 -0.3626  1.2670
  921MOL0     H21548   4.708   2.348   1.717  0.7134 -0.0611  0.2358
  921MOL0     H21549   4.705   2.327   1.545  2.2143  3.0149 -2.2465
  921MOL0     H21550   4.847   2.552   1.707  1.6587 -1.1324 -0.9263
  921MOL0     H21551   4.864   2.536   1.532 -0.4564  0.1886 -0.7819
  921MOL0     H21552   4.623   2.546   1.511  1.9656  0.6077  0.0326
  921MOL0     H21553   4.687   2.703   1.554 -1.8149  0.1170  0.2750
  921MOL0     H21554   5.162   1.495   1.516  3.0595 -1.7453 -1.5738
  921MOL0     H21555   5.367   1.352   1.559  0.5112 -1.1645  1.5281
  921MOL0     H21556   5.797   1.395   1.807 -1.0600 -0.7169 -2.6001
  921MOL0     H21557   6.016   1.270   1.874  1.8273 -0.9515  1.6392
  921MOL0     H21558   7.659   0.627   2.278  1.4120  2.9402  0.6346
  921MOL0     H21559   7.904   0.617   2.203 -1.1097  1.8900  1.2670
  921MOL0     H21560   8.252   0.297   1.843 -0.5738 -0.7267  1.3170
  921MOL0     H21561   8.485   0.346   1.776 -1.5219  1.0190 -2.0026
  921MOL0     H21562   8.745   0.570   1.642 -0.2373  1.2051  0.0915
  921MOL0     H21563   8.625   0.438   1.658  0.9226  1.4423 -2.1143
  921MOL0     H21564   8.725   0.360   1.875  2.2508 -1.2384  1.5019
  921MOL0     H21565   8.815   0.347   1.729  1.3710 -1.4432  1.9295
  921MOL0     H21566   8.875   0.601   1.889 -1.1740 -0.5321  2.5100
  921MOL0     H21567   8.970   0.489   1.796  0.2633 -3.6882  1.4365
  921MOL0     H21568   8.864   0.408   2.060  1.0520 -3.3023  1.3672
  921MOL0     H21569   8.971   0.318   1.947 -2.0824  0.7126 -5.4308
  921MOL0     H21570   9.245   0.614   2.075  1.2768 -1.5650 -1.1616
  921MOL0     H21571   8.441   0.749   1.933  1.5156 -1.4604  2.6934
  921MOL0     H21572   8.215   0.712   1.974 -0.1989  1.4441 -1.8760
  922MOL0     O21573   5.880   5.017   2.298 -0.2543  0.7409 -0.2222
  922MOL0     C21574   5.977   4.933   2.272 -0.6646  0.6302  0.3859
  922MOL0     O21575   5.971   4.810   2.188 -0.2428 -0.6982 -0.4485
  922MOL0     C21576   5.859   4.765   2.124  0.5365 -0.0504 -1.0437
  922MOL0     C21577   5.880   4.646   2.053 -1.0325  0.0171  0.1514
  922MOL0     C21578   5.771   4.581   1.977  0.0747  0.3076  0.3322
  922MOL0     C21579   5.642   4.636   1.988 -0.0141  0.2888 -0.1454
  922MOL0     O21580   5.542   4.568   1.933  0.0069  0.3722 -0.1254
  922MOL0     C21581   5.471   4.643   1.834 -0.2604  0.1901  0.4624
  922MOL0     C21582   5.415   4.555   1.729 -0.1044  0.3136 -0.1423
  922MOL0     C21583   5.278   4.610   1.681 -0.2477 -0.2068 -0.4564
  922MOL0     C21584   5.243   4.555   1.544  0.5510 -0.4698 -0.0760
  922MOL0     C21585   5.090   4.569   1.499 -0.3826  0.0096  0.7438
  922MOL0     C21586   4.993   4.538   1.613 -0.5857 -0.9423 -0.0875
  922MOL0     C21587   4.854   4.520   1.563  0.1352 -0.8749  0.3970
  922MOL0     C21588   4.822   4.398   1.475 -0.1865 -0.3489 -0.3520
  922MOL0     N21589   4.687   4.358   1.490  0.2985  0.0857 -0.1648
  922MOL0     C21590   4.584   4.451   1.502  0.0578  0.0903 -0.4614
  922MOL0     C21591   4.475   4.367   1.517 -0.0157  0.4935 -1.2083
  922MOL0     C21592   4.342   4.433   1.553 -0.3203  0.6873  0.2003
  922MOL0     C21593   4.333   4.433   1.709 -0.2161  0.6668  0.7512
  922MOL0     C21594   4.221   4.520   1.761  0.7485  0.1213 -0.2106
  922MOL0     C21595   4.094   4.512   1.671  0.0207  0.6335 -0.2501
  922MOL0     O21596   4.003   4.596   1.728  0.0329  0.3046 -0.2490
  922MOL0     C21597   3.884   4.619   1.668  0.3394 -0.7627 -0.5871
  922MOL0     C21598   3.813   4.725   1.733 -0.4516  0.1645 -0.0129
  922MOL0     C21599   3.681   4.754   1.709  0.0904  0.2555 -0.5961
  922MOL0     C21600   3.611   4.683   1.602  1.0503 -0.3236 -0.2845
  922MOL0     C21601   3.471   4.700   1.575  0.8589  0.0874 -0.1935
  922MOL0     O21602   3.412   4.800   1.647  0.3453 -0.8088  0.5993
  922MOL0     C21603   3.285   4.847   1.617 -0.0809  0.3948 -0.2663
  922MOL0     C21604   3.234   4.908   1.726  0.3205  0.0905  0.6508
  922MOL0     C21605   3.101   4.955   1.727  0.2797  0.0123 -0.3643
  922MOL0     C21606   3.011   4.932   1.624  0.6690  0.5661 -0.9487
  922MOL0     O21607   2.881   4.985   1.624 -0.4082  0.5344  0.4431
  922MOL0     C21608   2.842   5.046   1.495  0.0840 -1.0161  0.1293
  922MOL0     C21609   2.763   5.175   1.529  0.3951  0.2552  0.2778
  922MOL0     C21610   2.674   5.223   1.410 -0.5609  0.1815 -0.0529
  922MOL0     C21611   2.619   5.361   1.451  0.3169 -0.6961  1.0337
  922MOL0     C21612   2.528   5.403   1.336 -0.3139  0.0408  0.0279
  922MOL0     C21613   2.423   5.507   1.379 -0.2246  0.1468  0.5694
  922MOL0     C21614   2.312   5.499   1.272  0.3919 -0.1014  0.2894
  922MOL0     C21615   2.200   5.590   1.302  0.2408 -0.4276 -0.2384
  922MOL0    Cl21616   2.069   5.579   1.178  0.0376 -0.0891 -0.3960
  922MOL0     C21617   3.061   4.860   1.509  0.2973 -0.5773 -0.0075
  922MOL0     C21618   3.194   4.819   1.509  0.0485 -0.1159  0.6639
  922MOL0     O21619   3.409   4.631   1.489 -0.5696 -0.1543  0.1562
  922MOL0     C21620   3.684   4.578   1.543  0.5069 -0.8860 -0.9421
  922MOL0     C21621   3.822   4.547   1.562  0.0915  0.3604  0.5670
  922MOL0     N21622   4.508   4.237   1.530 -0.2253  0.1357 -0.0400
  922MOL0     N21623   4.642   4.226   1.509 -0.1889  0.3521  0.3392
  922MOL0     C21624   5.627   4.752   2.060 -0.0426 -0.5416  0.4626
  922MOL0     C21625   5.730   4.812   2.132  0.5779  0.5904 -0.5421
  922MOL0     C21626   6.115   4.966   2.327  0.1582 -0.6429  0.3554
  922MOL0     C21627   6.227   4.890   2.300 -0.3277 -0.2268 -0.3488
  922MOL0     C21628   6.350   4.925   2.360  0.2656  0.3679  0.0205
  922MOL0     C21629   6.364   5.045   2.435  0.0653 -0.0798 -1.2168
  922MOL0     O21630   6.484   5.087   2.466  0.7851  0.0503 -0.9637
  922MOL0     C21631   6.510   5.108   2.608 -0.0256 -0.7742  0.2485
  922MOL0     C21632   6.663   5.109   2.622  0.4419  0.9558  0.5749
  922MOL0     C21633   6.681   5.139   2.769  0.0241  0.2294  0.5530
  922MOL0     C21634   6.828   5.135   2.805 -0.1459  0.2125  0.2813
  922MOL0     C21635   6.841   5.146   2.952 -0.5470  0.5622  0.5035
  922MOL0     C21636   6.848   5.161   3.071  0.0045  0.2620 -0.3613
  922MOL0     C21637   6.247   5.119   2.466  0.5430  0.4201 -0.6500
  922MOL0     C21638   6.126   5.083   2.401 -0.0775 -0.5108  0.7150
  922MOL0     H21639   5.978   4.600   2.055 -1.4168 -0.7911  1.1740
  922MOL0     H21640   5.793   4.493   1.916  0.2240 -0.0318  0.8697
  922MOL0     H21641   5.534   4.721   1.791 -2.0817  0.9260 -0.9833
  922MOL0     H21642   5.386   4.693   1.883 -1.0298  0.0859 -0.7300
  922MOL0     H21643   5.394   4.454   1.765 -3.8942  0.1532 -2.2645
  922MOL0     H21644   5.487   4.554   1.646 -1.8533  2.3999 -1.8222
  922MOL0     H21645   5.282   4.719   1.674 -1.1581  0.0554  2.0711
  922MOL0     H21646   5.203   4.588   1.758 -1.6396 -3.1538 -2.4747
  922MOL0     H21647   5.321   4.581   1.472  0.8811 -2.8014 -0.6656
  922MOL0     H21648   5.250   4.446   1.557 -1.9212 -1.1058 -2.8418
  922MOL0     H21649   5.082   4.501   1.415  3.2716  1.0732 -0.6585
  922MOL0     H21650   5.072   4.675   1.479  0.9142  0.2111  0.5528
  922MOL0     H21651   5.001   4.621   1.685  1.6371  1.2191 -2.5929
  922MOL0     H21652   5.033   4.444   1.650 -0.0654 -0.3760  0.8297
  922MOL0     H21653   4.796   4.514   1.656  0.2823  0.1743  0.5713
  922MOL0     H21654   4.827   4.618   1.523  4.4159  0.9993  1.4551
  922MOL0     H21655   4.878   4.308   1.502 -0.4662 -0.2526  0.6046
  922MOL0     H21656   4.852   4.421   1.372 -3.1824 -1.5244 -1.6094
  922MOL0     H21657   4.587   4.557   1.522  0.2202 -0.3116  1.9343
  922MOL0     H21658   4.266   4.371   1.504  0.3823 -1.1098  1.2881
  922MOL0     H21659   4.339   4.531   1.505  0.1839  1.8665  2.4563
  922MOL0     H21660   4.427   4.459   1.758  1.4117  0.1064 -1.8481
  922MOL0     H21661   4.318   4.330   1.742 -1.9675  1.0306  1.1890
  922MOL0     H21662   4.194   4.490   1.863  1.2734 -1.1874 -0.4261
  922MOL0     H21663   4.241   4.627   1.764  2.1743 -0.1090 -0.3078
  922MOL0     H21664   4.058   4.410   1.659  2.0821  0.0419 -2.0868
  922MOL0     H21665   4.116   4.549   1.570 -1.7297 -0.3333 -1.0301
  922MOL0     H21666   3.863   4.770   1.818  2.5796 -1.2011 -0.9323
  922MOL0     H21667   3.638   4.834   1.767  2.9042  0.9129  0.7457
  922MOL0     H21668   3.284   4.926   1.820 -1.1363 -0.1465  1.4939
  922MOL0     H21669   3.070   5.010   1.815  2.9024  1.2028 -0.0960
  922MOL0     H21670   2.784   4.967   1.446 -1.0524 -1.1324  1.5979
  922MOL0     H21671   2.937   5.068   1.446  0.7249  2.0428  2.4518
  922MOL0     H21672   2.832   5.256   1.556  0.5665 -0.3742  1.8390
  922MOL0     H21673   2.704   5.157   1.619 -1.7661 -1.0184 -1.3132
  922MOL0     H21674   2.589   5.154   1.404 -0.8247  0.5026 -0.0385
  922MOL0     H21675   2.724   5.238   1.315 -1.6356 -1.3933 -0.9225
  922MOL0     H21676   2.550   5.354   1.535 -2.1130 -1.9002 -0.9078
  922MOL0     H21677   2.706   5.427   1.462 -0.8080  1.1415 -0.4925
  922MOL0     H21678   2.479   5.314   1.296 -0.2030 -1.5444  3.1247
  922MOL0     H21679   2.595   5.451   1.265  0.6819  0.6402  1.3263
  922MOL0     H21680   2.480   5.600   1.393  2.1829 -1.3119  1.1214
  922MOL0     H21681   2.382   5.471   1.473 -1.8129  2.5077  0.8684
  922MOL0     H21682   2.357   5.516   1.174  0.2950 -0.6580  0.1481
  922MOL0     H21683   2.271   5.398   1.263 -0.3763  0.3144 -1.3245
  922MOL0     H21684   2.235   5.693   1.315 -1.3866  0.1064  0.1617
  922MOL0     H21685   2.157   5.554   1.396  2.4733  1.3896  1.6047
  922MOL0     H21686   3.000   4.832   1.424  0.4957  2.9642 -1.5156
  922MOL0     H21687   3.226   4.751   1.430 -3.7579  1.9085 -3.0024
  922MOL0     H21688   3.629   4.525   1.466 -0.7262  1.1729 -1.5536
  922MOL0     H21689   3.859   4.463   1.505  1.9081  1.3009  0.2751
  922MOL0     H21690   5.533   4.806   2.067  1.6744  2.8163 -0.3030
  922MOL0     H21691   5.721   4.902   2.192  2.0897  0.5114 -0.1538
  922MOL0     H21692   6.223   4.807   2.230  2.0644  0.0063 -0.8315
  922MOL0     H21693   6.446   4.875   2.355 -1.4116 -3.2983  1.0549
  922MOL0     H21694   6.476   5.023   2.666 -0.9079 -0.7698 -0.2361
  922MOL0     H21695   6.465   5.201   2.644  2.4134  0.1062  1.2490
  922MOL0     H21696   6.697   5.011   2.589 -1.0121  0.3401  0.8275
  922MOL0     H21697   6.703   5.182   2.552  3.2055  1.8574  2.8952
  922MOL0     H21698   6.629   5.065   2.831  1.5914 -0.6192  0.9035
  922MOL0     H21699   6.639   5.240   2.782 -1.2375  0.0301 -1.5773
  922MOL0     H21700   6.872   5.041   2.771  3.0328  0.8544  2.2468
  922MOL0     H21701   6.872   5.225   2.762 -5.1524  1.9300 -2.0220
  922MOL0     H21702   6.848   5.185   3.176  2.3477 -1.6378  0.1389
  922MOL0     H21703   6.239   5.206   2.530 -0.4687  0.9953 -1.5242
  922MOL0     H21704   6.040   5.144   2.427 -0.8851 -0.9853 -0.7377
  923MOL0     O21705   7.542   7.970   0.786  0.4451  0.0517  0.7216
  923MOL0     C21706   7.528   8.086   0.730 -0.3590 -0.1129 -1.2048
  923MOL0     O21707   7.427   8.116   0.644  0.0055 -0.1056  0.1351
  923MOL0     C21708   7.329   8.022   0.622 -0.0830  0.3467 -0.4741
  923MOL0     C21709   7.325   7.946   0.508  0.0866 -0.1986  0.3911
  923MOL0     C21710   7.232   7.844   0.499  0.5635 -0.0269 -0.1229
  923MOL0     C21711   7.142   7.820   0.603  0.2714  0.3922  0.0054
  923MOL0     O21712   7.072   7.705   0.584  0.0140  0.5618 -0.2135
  923MOL0     C21713   6.996   7.655   0.689 -0.1518  0.6762 -0.3950
  923MOL0     C21714   6.947   7.530   0.623 -0.2909  0.4883  0.1042
  923MOL0     C21715   6.824   7.544   0.522 -0.5387  0.2413  0.0542
  923MOL0     C21716   6.697   7.605   0.593  1.1357 -0.5196 -0.1273
  923MOL0     C21717   6.619   7.709   0.507 -0.7162  0.3237  0.6525
  923MOL0     C21718   6.480   7.752   0.547  0.0799 -0.0801 -0.8321
  923MOL0     C21719   6.411   7.824   0.442  0.1098  1.2648 -0.1068
  923MOL0     C21720   6.262   7.855   0.482 -0.6520 -0.0345 -0.1089
  923MOL0     N21721   6.186   7.938   0.392  0.9967  0.8726  0.2532
  923MOL0     C21722   6.044   7.942   0.396  0.7426 -0.0299 -1.0586
  923MOL0     C21723   6.015   8.013   0.294  0.3254  0.1257 -0.5507
  923MOL0     C21724   5.866   8.042   0.256 -0.0719 -0.6037 -0.3900
  923MOL0     C21725   5.796   8.142   0.349  0.0278  0.2065 -0.2447
  923MOL0     C21726   5.643   8.159   0.326 -0.4465  0.2794  0.6392
  923MOL0     C21727   5.576   8.240   0.429 -0.6276 -0.3917  0.0547
  923MOL0     O21728   5.466   8.306   0.353 -0.5271 -0.5026 -0.1372
  923MOL0     C21729   5.362   8.342   0.428  0.2037 -0.3153  0.0400
  923MOL0     C21730   5.247   8.392   0.364 -0.5468  0.3426  0.4531
  923MOL0     C21731   5.136   8.437   0.430  0.4914  0.0630  0.3716
  923MOL0     C21732   5.132   8.430   0.569  0.7830 -1.1505 -0.7964
  923MOL0     C21733   5.014   8.464   0.654 -0.4820  0.5750  0.5186
  923MOL0     O21734   5.043   8.487   0.787 -0.4919 -0.5401  0.0064
  923MOL0     C21735   4.949   8.511   0.879  0.2109 -0.4662 -0.8739
  923MOL0     C21736   4.955   8.463   1.013  0.2153  0.9090  0.2062
  923MOL0     C21737   4.861   8.492   1.117  0.2595 -1.3483  0.9923
  923MOL0     C21738   4.760   8.584   1.081 -0.5610  0.1382 -0.6659
  923MOL0     O21739   4.660   8.617   1.163  0.9288  0.5083  0.2043
  923MOL0     C21740   4.596   8.516   1.245 -0.4175  0.5332  0.1115
  923MOL0     C21741   4.453   8.538   1.285  1.1655 -1.2270 -0.1279
  923MOL0     C21742   4.382   8.404   1.298  0.6425 -0.0489 -0.5173
  923MOL0     C21743   4.251   8.409   1.366 -0.3385  0.5369 -1.0747
  923MOL0     C21744   4.134   8.447   1.276  0.4927  0.9446  0.7523
  923MOL0     C21745   4.108   8.355   1.153  0.2986  0.8505  0.7825
  923MOL0     C21746   3.965   8.353   1.089 -0.4179 -0.5486 -0.2360
  923MOL0     C21747   3.859   8.278   1.174  0.4517 -0.1296  1.0689
  923MOL0    Cl21748   3.702   8.324   1.103 -0.1554  0.3445 -0.0627
  923MOL0     C21749   4.743   8.632   0.953 -0.1840  0.1216  0.1378
  923MOL0     C21750   4.844   8.593   0.855  0.1983 -0.6678 -0.0372
  923MOL0     O21751   4.902   8.470   0.606 -0.0174  0.0145  1.0661
  923MOL0     C21752   5.248   8.386   0.641 -0.0636 -0.6013  0.9125
  923MOL0     C21753   5.354   8.339   0.571 -0.0716 -0.6624  0.7371
  923MOL0     N21754   6.128   8.049   0.220  0.2324  0.2974 -0.1571
  923MOL0     N21755   6.237   7.997   0.277  1.2659  0.3798 -0.2902
  923MOL0     C21756   7.139   7.903   0.721  0.1801  0.1435 -0.0717
  923MOL0     C21757   7.241   8.002   0.728 -0.2121 -0.7516  0.2503
  923MOL0     C21758   7.618   8.189   0.790 -0.0660 -0.8844 -0.9499
  923MOL0     C21759   7.755   8.170   0.802  1.0245  0.1370 -0.6668
  923MOL0     C21760   7.848   8.265   0.849 -0.1981  0.5208  0.2769
  923MOL0     C21761   7.797   8.385   0.901  0.1076 -0.0144  0.1898
  923MOL0     O21762   7.880   8.482   0.943 -0.4764 -0.6326 -0.2970
  923MOL0     C21763   7.843   8.565   1.052 -0.1921 -0.0503 -0.6663
  923MOL0     C21764   7.966   8.614   1.134 -0.8926  0.2044  0.3526
  923MOL0     C21765   8.080   8.499   1.134 -0.1458  0.4984 -0.2875
  923MOL0     C21766   8.181   8.551   1.238  0.1763  0.3766  0.1622
  923MOL0     C21767   8.239   8.677   1.192 -0.0144  0.7905 -0.1742
  923MOL0     C21768   8.284   8.783   1.167 -0.1587  0.9562 -0.2672
  923MOL0     C21769   7.664   8.421   0.864  0.3942  0.0119 -0.1465
  923MOL0     C21770   7.576   8.322   0.813 -0.3652 -0.3492  0.6411
  923MOL0     H21771   7.396   7.962   0.426 -0.9823  1.3400 -0.2955
  923MOL0     H21772   7.235   7.782   0.410 -0.8013 -0.9055  0.4253
  923MOL0     H21773   6.908   7.719   0.702 -1.0293 -0.1220 -1.9949
  923MOL0     H21774   7.044   7.646   0.787 -1.4372  0.8772  0.2887
  923MOL0     H21775   6.916   7.463   0.704  0.5576 -0.1642 -0.1048
  923MOL0     H21776   7.027   7.478   0.571  1.2207  2.4638  0.3476
  923MOL0     H21777   6.792   7.444   0.491  0.9928 -0.1768 -0.2492
  923MOL0     H21778   6.860   7.591   0.430  0.8522 -1.2673 -0.2094
  923MOL0     H21779   6.626   7.532   0.634  1.5616  0.0351  1.7184
  923MOL0     H21780   6.729   7.666   0.678 -1.3641  3.5821 -1.7966
  923MOL0     H21781   6.618   7.668   0.406  1.7087 -0.1281  0.7417
  923MOL0     H21782   6.688   7.795   0.509 -0.6755  0.2970  0.4520
  923MOL0     H21783   6.491   7.813   0.637 -0.9398 -1.1588  0.0409
  923MOL0     H21784   6.419   7.663   0.566  1.1768 -0.8999 -1.0020
  923MOL0     H21785   6.466   7.916   0.421 -0.6203  1.3168 -1.9181
  923MOL0     H21786   6.418   7.773   0.345 -1.8816 -2.0538  1.3171
  923MOL0     H21787   6.257   7.914   0.574 -1.8226  1.8969 -1.3284
  923MOL0     H21788   6.217   7.758   0.505 -0.1374  0.0312  1.2808
  923MOL0     H21789   5.969   7.889   0.455 -1.4433 -0.1175 -3.6930
  923MOL0     H21790   5.817   7.944   0.251 -2.5499  0.3662  2.1266
  923MOL0     H21791   5.868   8.078   0.153 -1.5267 -0.0419 -0.2409
  923MOL0     H21792   5.841   8.241   0.343  0.8035 -0.1242 -0.0289
  923MOL0     H21793   5.802   8.106   0.452 -1.6302  0.9568  0.1431
  923MOL0     H21794   5.635   8.213   0.232  0.6753  2.1435  1.5507
  923MOL0     H21795   5.595   8.062   0.311  0.1489  0.1573 -0.5953
  923MOL0     H21796   5.643   8.317   0.467 -0.8298 -0.5941  0.8581
  923MOL0     H21797   5.551   8.173   0.513  2.1953 -1.4181  0.1641
  923MOL0     H21798   5.257   8.385   0.256  0.3491 -0.6582  0.5748
  923MOL0     H21799   5.057   8.478   0.368  2.8795  0.1609 -2.8817
  923MOL0     H21800   5.033   8.390   1.030  1.9125  2.1813 -1.6577
  923MOL0     H21801   4.853   8.455   1.219  0.7793 -0.8196  1.2357
  923MOL0     H21802   4.662   8.494   1.329 -0.0432  0.1370 -0.2783
  923MOL0     H21803   4.590   8.424   1.186 -1.9220  0.8356 -0.2516
  923MOL0     H21804   4.399   8.596   1.210  3.3649  0.2907 -0.6396
  923MOL0     H21805   4.442   8.602   1.373  1.9186  1.0008 -1.5663
  923MOL0     H21806   4.443   8.329   1.350 -1.0486  0.2818  2.1185
  923MOL0     H21807   4.359   8.364   1.199 -1.6252  1.7828 -0.7979
  923MOL0     H21808   4.232   8.318   1.424 -1.5762  0.8168 -1.0122
  923MOL0     H21809   4.261   8.483   1.446 -0.2535  0.0163 -0.5965
  923MOL0     H21810   4.141   8.551   1.244  1.4468  0.4072 -0.8942
  923MOL0     H21811   4.042   8.433   1.334 -0.0945  0.9647 -0.1668
  923MOL0     H21812   4.135   8.255   1.185 -0.1194  0.4659 -0.0224
  923MOL0     H21813   4.182   8.383   1.077  0.7599 -0.4989  0.7223
  923MOL0     H21814   3.925   8.454   1.082  0.1904 -0.4046 -2.0025
  923MOL0     H21815   3.964   8.323   0.984 -4.7250  0.4758 -0.6671
  923MOL0     H21816   3.863   8.297   1.281  1.2745  0.5233  0.9246
  923MOL0     H21817   3.877   8.171   1.155  0.8205  0.1360 -0.1978
  923MOL0     H21818   4.658   8.696   0.935 -0.2363  0.1881  0.6175
  923MOL0     H21819   4.835   8.637   0.756  3.9948  0.2137 -0.1662
  923MOL0     H21820   5.244   8.371   0.749  0.9301 -2.4982  0.7337
  923MOL0     H21821   5.435   8.303   0.633  1.4146  3.2639  1.4184
  923MOL0     H21822   7.068   7.893   0.802 -1.0901  1.5197 -0.9786
  923MOL0     H21823   7.249   8.063   0.818 -3.8089 -2.2028  1.7261
  923MOL0     H21824   7.806   8.074   0.792  0.1346 -0.2980 -1.1774
  923MOL0     H21825   7.954   8.244   0.863 -0.5744 -0.8948  1.3555
  923MOL0     H21826   7.787   8.500   1.120 -2.1581  2.6052  0.4331
  923MOL0     H21827   7.773   8.643   1.020  1.2646  0.5198 -2.6205
  923MOL0     H21828   8.004   8.709   1.096 -2.0355  0.8528  0.8093
  923MOL0     H21829   7.941   8.636   1.238 -1.0724  0.4119  0.2640
  923MOL0     H21830   8.135   8.485   1.040  2.3945 -4.2295  1.5909
  923MOL0     H21831   8.035   8.404   1.163  0.3319  0.3506 -0.0211
  923MOL0     H21832   8.135   8.561   1.337  2.0564 -0.5375  1.1802
  923MOL0     H21833   8.260   8.479   1.260  0.8724  1.4524  1.3141
  923MOL0     H21834   8.312   8.884   1.144  0.6239  0.9971  0.7466
  923MOL0     H21835   7.631   8.522   0.885 -0.0686  0.7344 -3.8097
  923MOL0     H21836   7.475   8.356   0.795 -1.6693 -2.9258  2.4601
  924MOL0     O21837   6.459   9.028   0.514 -0.7710 -0.2555  0.4216
  924MOL0     C21838   6.504   9.140   0.489  1.4465 -0.1231  0.7527
  924MOL0     O21839   6.422   9.247   0.466 -0.2077 -1.0333 -0.5632
  924MOL0     C21840   6.294   9.267   0.515  0.5326  0.0827 -0.3295
  924MOL0     C21841   6.207   9.171   0.559 -0.6569 -0.7881 -0.6120
  924MOL0     C21842   6.075   9.199   0.577  0.1623  0.3886 -0.2401
  924MOL0     C21843   6.019   9.326   0.563 -0.4698  0.1200 -0.6599
  924MOL0     O21844   5.898   9.356   0.619 -0.4931 -0.1722  0.2082
  924MOL0     C21845   5.795   9.328   0.525 -0.0573  0.7327  0.5341
  924MOL0     C21846   5.668   9.346   0.588  0.6300 -0.1881 -0.2052
  924MOL0     C21847   5.543   9.309   0.496  0.6478 -0.8967  0.0591
  924MOL0     C21848   5.407   9.321   0.575  0.6028  0.0485 -0.0572
  924MOL0     C21849   5.293   9.254   0.494  0.7867 -0.6195 -0.0429
  924MOL0     C21850   5.289   9.290   0.349  0.1334  0.0393 -0.3762
  924MOL0     C21851   5.164   9.205   0.281 -0.6149 -0.3276  0.0975
  924MOL0     C21852   5.152   9.243   0.134 -1.1044 -0.9411 -0.1973
  924MOL0     N21853   5.114   9.383   0.107 -0.2195 -0.0027 -0.0089
  924MOL0     C21854   5.003   9.451   0.142 -0.1891  0.7545 -0.5724
  924MOL0     C21855   4.998   9.562   0.072  0.7106  0.4334  0.7241
  924MOL0     C21856   4.898   9.676   0.063  0.5366  0.4822  0.0186
  924MOL0     C21857   4.754   9.628   0.081 -0.2656 -0.4290  0.7872
  924MOL0     C21858   4.652   9.740   0.091 -0.2316 -0.5402 -0.4177
  924MOL0     C21859   4.505   9.699   0.117  0.5061 -0.3554  0.1354
  924MOL0     O21860   4.414   9.786   0.055 -0.4888  0.1038  0.8069
  924MOL0     C21861   4.289   9.741   0.009  0.2436  0.3753  0.7199
  924MOL0     C21862   4.225   9.810  -0.086 -0.0488 -0.6347 -0.3867
  924MOL0     C21863   4.105   9.764  -0.141 -0.6399  0.4976  0.4401
  924MOL0     C21864   4.056   9.638  -0.113 -0.2451 -0.0547 -1.1779
  924MOL0     C21865   3.940   9.585  -0.181  0.1682  0.7066  0.0705
  924MOL0     O21866   3.887   9.656  -0.288  0.1603 -0.0363 -0.8467
  924MOL0     C21867   3.794   9.594  -0.367  0.8067  0.5794 -0.3395
  924MOL0     C21868   3.812   9.576  -0.502 -0.7180  0.5548 -0.4566
  924MOL0     C21869   3.705   9.530  -0.583 -0.9067  1.4050  0.3810
  924MOL0     C21870   3.573   9.508  -0.531 -0.3317  0.1985 -0.2823
  924MOL0     O21871   3.475   9.435  -0.595 -0.2433  0.1218  0.5707
  924MOL0     C21872   3.501   9.394  -0.732 -0.1438 -0.8646 -0.1348
  924MOL0     C21873   3.391   9.311  -0.793 -0.1802 -0.2465  0.6264
  924MOL0     C21874   3.252   9.350  -0.745  0.0387 -0.4910  0.0522
  924MOL0     C21875   3.222   9.501  -0.788 -0.5799 -0.4332 -0.1328
  924MOL0     C21876   3.198   9.514  -0.936 -0.5919 -0.2108 -0.1956
  924MOL0     C21877   3.083   9.441  -0.997  0.2675  0.7733 -0.9748
  924MOL0     C21878   3.040   9.475  -1.138  0.2771  0.0422 -0.1617
  924MOL0     C21879   2.940   9.371  -1.186 -0.2334 -0.4146 -0.5386
  924MOL0    Cl21880   2.878   9.416  -1.346 -0.4163  0.6545  0.3921
  924MOL0     C21881   3.556   9.535  -0.396 -0.7543  0.2656  0.2038
  924MOL0     C21882   3.658   9.580  -0.314  0.6371  0.9774  0.4050
  924MOL0     O21883   3.896   9.481  -0.138  0.5129  0.0196  0.2245
  924MOL0     C21884   4.126   9.561  -0.019  0.4144  0.9092 -0.8477
  924MOL0     C21885   4.241   9.611   0.048  0.0123  0.1568 -0.0872
  924MOL0     N21886   5.112   9.571  -0.004 -0.0012  0.1558 -0.4018
  924MOL0     N21887   5.185   9.469   0.024 -0.5159 -0.6501 -0.5288
  924MOL0     C21888   6.105   9.430   0.515 -0.5574 -0.6296 -0.3274
  924MOL0     C21889   6.236   9.393   0.478 -0.5720  0.1902  0.3590
  924MOL0     C21890   6.648   9.171   0.484 -0.7656  0.3021  0.2618
  924MOL0     C21891   6.706   9.302   0.471 -0.1392  0.2095 -1.1488
  924MOL0     C21892   6.842   9.318   0.458 -0.7533 -0.1824 -0.1457
  924MOL0     C21893   6.935   9.213   0.489 -0.1803 -0.0120  0.7748
  924MOL0     O21894   7.073   9.217   0.508 -0.5894 -0.6573  0.3340
  924MOL0     C21895   7.145   9.342   0.476  0.3600 -0.2692 -0.0292
  924MOL0     C21896   7.287   9.337   0.536  0.7621  0.2227  0.0255
  924MOL0     C21897   7.372   9.235   0.465  0.9238 -0.0959 -0.5797
  924MOL0     C21898   7.512   9.210   0.521 -0.0427  1.0139 -0.7289
  924MOL0     C21899   7.592   9.125   0.425  0.4142  0.4353 -0.3311
  924MOL0     C21900   7.649   9.064   0.336  0.6416  0.2362  0.0890
  924MOL0     C21901   6.874   9.084   0.509  0.7036 -0.7122 -0.1500
  924MOL0     C21902   6.732   9.059   0.504  0.5095  0.4208  0.5495
  924MOL0     H21903   6.234   9.070   0.590  1.6579  0.2973  1.1950
  924MOL0     H21904   6.003   9.123   0.607  0.0678  1.0526  1.2967
  924MOL0     H21905   5.799   9.223   0.494  1.6495  1.5398 -2.3052
  924MOL0     H21906   5.801   9.378   0.428  0.0369 -0.0931  0.1028
  924MOL0     H21907   5.653   9.449   0.622 -0.7817 -1.1540  2.3388
  924MOL0     H21908   5.654   9.284   0.677  1.7201 -0.2324 -0.0558
  924MOL0     H21909   5.551   9.212   0.446  0.2825  0.1894 -2.2491
  924MOL0     H21910   5.542   9.375   0.408  2.5701 -1.0878 -0.1479
  924MOL0     H21911   5.417   9.279   0.676  0.3643  2.1739  0.9125
  924MOL0     H21912   5.379   9.426   0.585 -2.0713 -0.5643 -0.4268
  924MOL0     H21913   5.203   9.293   0.542  1.8642 -0.7897  2.2684
  924MOL0     H21914   5.294   9.146   0.508  0.5395 -0.9981 -2.4655
  924MOL0     H21915   5.381   9.269   0.294  1.2286 -0.7365  1.6471
  924MOL0     H21916   5.266   9.397   0.338 -1.4448 -0.0600  1.4422
  924MOL0     H21917   5.179   9.097   0.292 -5.8621 -1.5910 -2.2660
  924MOL0     H21918   5.067   9.236   0.321 -0.3279  0.7247  0.0183
  924MOL0     H21919   5.076   9.183   0.083 -0.3910 -2.6490  0.6545
  924MOL0     H21920   5.244   9.215   0.082 -2.0900 -6.6528  0.4643
  924MOL0     H21921   4.935   9.419   0.219  3.0154  0.8619  2.5674
  924MOL0     H21922   4.915   9.732  -0.030 -0.0032 -0.1457 -0.4702
  924MOL0     H21923   4.922   9.744   0.145  0.2268  1.5303 -0.7352
  924MOL0     H21924   4.734   9.569   0.170 -1.7544 -0.9019  0.1835
  924MOL0     H21925   4.724   9.571  -0.008 -1.0310  0.5964  0.3709
  924MOL0     H21926   4.686   9.818   0.160 -1.8627  0.5359 -0.7817
  924MOL0     H21927   4.650   9.784  -0.009  0.6282 -1.0843 -0.6842
  924MOL0     H21928   4.485   9.699   0.225  1.6740 -1.5747  0.3774
  924MOL0     H21929   4.493   9.595   0.087  2.5141 -1.2668  2.1767
  924MOL0     H21930   4.267   9.906  -0.114  0.8549 -0.7561  0.4743
  924MOL0     H21931   4.056   9.837  -0.204 -0.7736 -1.4501 -1.8485
  924MOL0     H21932   3.912   9.600  -0.537  0.2361 -2.3270  0.0041
  924MOL0     H21933   3.726   9.521  -0.689  2.7558 -0.0697  1.0784
  924MOL0     H21934   3.588   9.328  -0.737  0.7542  0.3732 -1.9749
  924MOL0     H21935   3.523   9.482  -0.794  1.2508 -1.5164 -0.5950
  924MOL0     H21936   3.399   9.207  -0.760 -0.9111 -0.5388 -0.1033
  924MOL0     H21937   3.388   9.325  -0.901 -1.1868  5.0788  1.0390
  924MOL0     H21938   3.253   9.359  -0.636  1.2152 -1.2076  0.1174
  924MOL0     H21939   3.190   9.274  -0.792 -0.8875  0.5603 -0.4800
  924MOL0     H21940   3.137   9.545  -0.734  0.0577 -1.3831  1.7507
  924MOL0     H21941   3.304   9.564  -0.752  2.4218 -2.4724 -2.8396
  924MOL0     H21942   3.289   9.489  -0.991  0.4582 -0.0278  1.4098
  924MOL0     H21943   3.180   9.619  -0.960 -2.8270 -0.3072  0.8064
  924MOL0     H21944   3.001   9.458  -0.926  2.3481 -1.5590  2.2903
  924MOL0     H21945   3.113   9.336  -0.995 -3.1048 -0.3894  2.8208
  924MOL0     H21946   2.988   9.571  -1.142 -3.2256 -1.6207  0.8935
  924MOL0     H21947   3.133   9.464  -1.193  2.2190  0.2172  2.8383
  924MOL0     H21948   2.857   9.375  -1.114 -0.3444  1.1091 -0.7177
  924MOL0     H21949   2.981   9.271  -1.199 -0.3592 -0.7803  1.4435
  924MOL0     H21950   3.459   9.506  -0.358  0.0645 -0.1530  2.1213
  924MOL0     H21951   3.636   9.589  -0.208  2.6664 -0.3958  1.0203
  924MOL0     H21952   4.090   9.462   0.006  1.4632  1.0998  1.7595
  924MOL0     H21953   4.281   9.549   0.128  0.8892 -0.4411 -0.9668
  924MOL0     H21954   6.083   9.535   0.495  0.6856 -0.3306 -0.1629
  924MOL0     H21955   6.288   9.468   0.419  0.1148 -1.4340 -1.2204
  924MOL0     H21956   6.646   9.392   0.461  1.7984  1.3844 -3.3313
  924MOL0     H21957   6.870   9.418   0.425 -0.8174 -0.0499  0.1946
  924MOL0     H21958   7.092   9.417   0.535  0.4638  0.5650 -0.9627
  924MOL0     H21959   7.134   9.354   0.367 -0.2667  2.7393  0.2724
  924MOL0     H21960   7.330   9.438   0.543  1.5038  0.2960 -3.5999
  924MOL0     H21961   7.273   9.305   0.640 -0.4203  1.3633  0.2470
  924MOL0     H21962   7.380   9.259   0.358  2.4499 -1.6470 -0.8465
  924MOL0     H21963   7.320   9.139   0.476  1.9025 -0.3298  3.4174
  924MOL0     H21964   7.569   9.303   0.532  0.2196  0.9302 -1.3641
  924MOL0     H21965   7.496   9.161   0.618  2.7321  0.9321 -0.2240
  924MOL0     H21966   7.701   8.997   0.270  0.9379 -1.8919  2.3551
  924MOL0     H21967   6.940   8.998   0.511  0.7852 -0.6408  1.0760
  924MOL0     H21968   6.697   8.961   0.534  1.7495  0.1986  1.3145
  925MOL0     O21969   4.539   3.306   4.161  0.2473  1.2911 -0.1036
  925MOL0     C21970   4.622   3.215   4.167 -0.6783 -0.3521  0.0049
  925MOL0     O21971   4.740   3.223   4.102  0.3398 -0.2936  0.5783
  925MOL0     C21972   4.802   3.325   4.045 -0.6178 -0.0608  0.0718
  925MOL0     C21973   4.896   3.295   3.945 -0.0227  0.4677  1.3461
  925MOL0     C21974   4.975   3.392   3.887 -0.5728 -0.4880 -0.7113
  925MOL0     C21975   4.982   3.527   3.937 -0.5480  0.2218 -0.1284
  925MOL0     O21976   5.061   3.614   3.866  0.0510  0.5867 -0.6418
  925MOL0     C21977   5.113   3.724   3.942 -0.8182 -0.4113 -0.1152
  925MOL0     C21978   5.259   3.751   3.905 -0.2018  1.1068 -0.1606
  925MOL0     C21979   5.296   3.900   3.929  0.6757  0.4727  0.3615
  925MOL0     C21980   5.439   3.927   3.883  0.1705 -1.0568 -0.5535
  925MOL0     C21981   5.493   4.064   3.933  0.1065  0.7386 -0.2300
  925MOL0     C21982   5.635   4.077   3.913 -0.5219 -0.5472 -0.1940
  925MOL0     C21983   5.679   4.136   3.772  0.4264 -0.1178 -0.0526
  925MOL0     C21984   5.831   4.134   3.759 -0.7531 -0.6456 -0.3071
  925MOL0     N21985   5.883   4.192   3.635  0.0084 -0.2496  0.3438
  925MOL0     C21986   5.855   4.149   3.504 -0.3809 -0.3159  0.6749
  925MOL0     C21987   5.931   4.222   3.422  0.0154 -0.5194 -0.0431
  925MOL0     C21988   5.944   4.217   3.268  0.4753  0.4292  0.5976
  925MOL0     C21989   6.090   4.228   3.221 -0.2987  0.1960 -0.6919
  925MOL0     C21990   6.125   4.376   3.192 -0.5898 -0.1554 -0.0119
  925MOL0     C21991   6.253   4.385   3.118  0.5158 -0.2575  0.4167
  925MOL0     O21992   6.347   4.305   3.186  0.6236  0.0442 -0.3496
  925MOL0     C21993   6.479   4.339   3.199  0.7202 -0.0104  0.6529
  925MOL0     C21994   6.585   4.265   3.145  0.5194 -0.3409  0.9524
  925MOL0     C21995   6.707   4.312   3.157 -0.1900 -0.6728  0.1593
  925MOL0     C21996   6.740   4.437   3.217  0.6466 -0.6438  0.4243
  925MOL0     C21997   6.874   4.495   3.223  0.5551 -0.1143 -0.5721
  925MOL0     O21998   6.870   4.627   3.252 -0.7957 -0.5263 -0.3581
  925MOL0     C21999   6.980   4.712   3.269  0.8273 -0.4293  0.6839
  925MOL0     C22000   7.116   4.688   3.238 -0.4514  0.0750  0.6731
  925MOL0     C22001   7.214   4.789   3.229  0.6189 -0.2182 -1.0039
  925MOL0     C22002   7.176   4.922   3.260 -0.0623  0.6437  0.5026
  925MOL0     O22003   7.270   5.020   3.235  0.8216 -0.2925  0.1456
  925MOL0     C22004   7.220   5.148   3.245 -0.4367  0.2865  0.1271
  925MOL0     C22005   7.315   5.257   3.182  0.0053  0.0785  0.2968
  925MOL0     C22006   7.420   5.319   3.280 -0.0889  0.5774  1.3972
  925MOL0     C22007   7.499   5.404   3.184  0.2412  0.1446  0.6042
  925MOL0     C22008   7.631   5.454   3.250 -0.4074 -0.0255  0.5440
  925MOL0     C22009   7.706   5.557   3.170 -0.3129 -0.2502  0.8697
  925MOL0     C22010   7.818   5.626   3.261  0.8880 -0.5029 -0.3112
  925MOL0     C22011   7.906   5.709   3.168  0.0913 -0.7859 -0.4110
  925MOL0    Cl22012   8.045   5.783   3.269 -0.0875 -0.4665 -0.3462
  925MOL0     C22013   7.037   4.948   3.294 -0.3418  0.1033  0.0262
  925MOL0     C22014   6.946   4.844   3.307  0.8412  0.4195  0.9009
  925MOL0     O22015   6.968   4.428   3.186 -1.0084 -0.3134  0.8009
  925MOL0     C22016   6.631   4.504   3.268  0.3513 -0.0861  0.1250
  925MOL0     C22017   6.497   4.461   3.262  0.5232  0.4112 -0.3887
  925MOL0     N22018   5.995   4.315   3.499  0.2029  0.0953 -0.1155
  925MOL0     N22019   5.963   4.302   3.626  0.2199  0.6507  0.0112
  925MOL0     C22020   4.882   3.556   4.033  1.1423 -1.0770  0.4797
  925MOL0     C22021   4.797   3.458   4.091 -0.2128 -0.3876 -0.1068
  925MOL0     C22022   4.578   3.083   4.231  0.4717 -0.1846  0.0120
  925MOL0     C22023   4.641   2.967   4.192 -0.5923 -0.3467 -0.6122
  925MOL0     C22024   4.598   2.850   4.256  0.2840  1.0670  0.6924
  925MOL0     C22025   4.508   2.845   4.359  0.5765 -0.1911  0.1109
  925MOL0     O22026   4.472   2.720   4.403  0.1055  0.3795 -0.2020
  925MOL0     C22027   4.373   2.699   4.500  0.7312  0.0555 -0.1781
  925MOL0     C22028   4.359   2.557   4.544 -0.4867 -0.1777 -0.8016
  925MOL0     C22029   4.345   2.457   4.425  0.2171  0.3341  0.6851
  925MOL0     C22030   4.199   2.444   4.370 -0.1618 -0.0416 -0.8191
  925MOL0     C22031   4.114   2.408   4.489  0.8862 -0.1449 -0.4469
  925MOL0     C22032   4.056   2.393   4.597  0.1731 -0.4624  0.7351
  925MOL0     C22033   4.440   2.963   4.387  0.2515  0.5734  0.4481
  925MOL0     C22034   4.470   3.080   4.324 -0.1182  0.2430  0.8748
  925MOL0     H22035   4.887   3.198   3.896  1.0854  2.7900 -4.1933
  925MOL0     H22036   5.035   3.371   3.798  1.2523  1.8064 -0.1256
  925MOL0     H22037   5.111   3.720   4.051 -0.0837 -0.9494 -0.1108
  925MOL0     H22038   5.055   3.810   3.910 -1.4462 -1.3970 -1.7798
  925MOL0     H22039   5.267   3.738   3.797 -0.7540  2.8485 -0.4386
  925MOL0     H22040   5.320   3.673   3.952 -1.3776 -0.6748 -1.4578
  925MOL0     H22041   5.286   3.910   4.038 -0.5698  2.2942  0.1296
  925MOL0     H22042   5.223   3.964   3.877  0.1895 -0.1719  0.2327
  925MOL0     H22043   5.510   3.850   3.915 -1.3582 -2.8641 -1.3088
  925MOL0     H22044   5.430   3.929   3.774 -3.2467  1.7681 -0.3946
  925MOL0     H22045   5.467   4.080   4.039 -3.7973 -1.2548 -0.7110
  925MOL0     H22046   5.431   4.142   3.887 -0.8594  0.7001  0.9476
  925MOL0     H22047   5.689   3.982   3.921  2.4575  0.9724 -0.6651
  925MOL0     H22048   5.680   4.139   3.991  3.7492 -1.6182 -1.5173
  925MOL0     H22049   5.624   4.095   3.687  0.4041 -0.4291  0.1122
  925MOL0     H22050   5.645   4.239   3.781 -0.5927 -0.5679  1.5803
  925MOL0     H22051   5.870   4.031   3.759  0.6022 -0.1668  0.3974
  925MOL0     H22052   5.880   4.189   3.840 -1.1012 -0.2987 -0.3309
  925MOL0     H22053   5.818   4.053   3.471  3.1016 -2.3891  2.3416
  925MOL0     H22054   5.882   4.296   3.223 -2.5402 -0.8016  2.2767
  925MOL0     H22055   5.909   4.118   3.235  2.6567  0.6472 -2.8434
  925MOL0     H22056   6.090   4.160   3.135  1.0256 -1.3672  0.4826
  925MOL0     H22057   6.163   4.176   3.284  0.6636  0.5189 -1.5068
  925MOL0     H22058   6.049   4.433   3.137 -0.0289 -0.4848 -1.1641
  925MOL0     H22059   6.142   4.415   3.293 -1.3856  1.6411 -0.5181
  925MOL0     H22060   6.290   4.488   3.112  0.0790 -0.0409  1.2001
  925MOL0     H22061   6.246   4.357   3.013 -1.0286  0.0123  0.4308
  925MOL0     H22062   6.561   4.177   3.088  0.2077  0.3767 -0.0542
  925MOL0     H22063   6.790   4.249   3.125 -0.7042 -1.0449 -0.4835
  925MOL0     H22064   7.142   4.591   3.198 -0.2993  1.1693 -2.1238
  925MOL0     H22065   7.315   4.762   3.198  2.0645  2.0670  1.2994
  925MOL0     H22066   7.213   5.168   3.353  0.5436 -1.7954  0.6297
  925MOL0     H22067   7.116   5.151   3.213 -1.0275 -1.9940  1.5775
  925MOL0     H22068   7.253   5.333   3.133  0.5511 -1.1575 -2.5582
  925MOL0     H22069   7.367   5.209   3.098 -1.7392 -2.7895  0.6999
  925MOL0     H22070   7.482   5.238   3.321  1.4017  1.4995  1.0356
  925MOL0     H22071   7.366   5.372   3.358 -0.6757 -1.7604  2.6978
  925MOL0     H22072   7.536   5.342   3.101  2.4531  1.6946  0.3325
  925MOL0     H22073   7.439   5.486   3.143  0.3708 -0.1551 -0.2140
  925MOL0     H22074   7.701   5.371   3.266  2.3157  1.4480 -2.4705
  925MOL0     H22075   7.619   5.503   3.347  0.3544  3.1230 -0.8100
  925MOL0     H22076   7.634   5.631   3.135  1.0383  1.7670  2.1603
  925MOL0     H22077   7.766   5.514   3.089  2.1293 -2.2392  3.5246
  925MOL0     H22078   7.770   5.685   3.340 -1.6074 -0.4417 -1.7631
  925MOL0     H22079   7.882   5.561   3.322  1.5481  0.6410  0.2394
  925MOL0     H22080   7.849   5.789   3.122  1.3211 -0.0608 -0.7136
  925MOL0     H22081   7.930   5.643   3.084 -1.3393  1.9084 -3.1153
  925MOL0     H22082   6.991   5.042   3.322  1.8144  0.4828  2.8009
  925MOL0     H22083   6.847   4.874   3.340  0.8884 -1.1742  2.7467
  925MOL0     H22084   6.652   4.601   3.311  0.7761  0.6493 -1.6454
  925MOL0     H22085   6.415   4.526   3.291  2.8926  3.6562 -0.3233
  925MOL0     H22086   4.864   3.658   4.066  4.1962  0.2926 -1.5999
  925MOL0     H22087   4.729   3.488   4.171 -1.1902  2.2818 -1.7831
  925MOL0     H22088   4.712   2.961   4.110 -0.3569  3.8498 -0.9240
  925MOL0     H22089   4.636   2.751   4.231  1.8464  2.0215 -0.9672
  925MOL0     H22090   4.276   2.747   4.480  2.8797  5.3628  0.6348
  925MOL0     H22091   4.398   2.758   4.588  2.1835  0.6475 -0.9529
  925MOL0     H22092   4.446   2.526   4.603 -2.3749  1.4350  3.1690
  925MOL0     H22093   4.275   2.558   4.613 -0.7446  1.6792 -1.0901
  925MOL0     H22094   4.358   2.358   4.471 -1.4933  0.4084  1.3972
  925MOL0     H22095   4.422   2.476   4.350 -0.9674  0.1199 -0.6328
  925MOL0     H22096   4.172   2.544   4.335  0.7000  0.8334  0.8608
  925MOL0     H22097   4.195   2.359   4.302  2.3736 -0.8885 -0.0383
  925MOL0     H22098   3.999   2.369   4.684 -1.0644 -1.8382 -0.4073
  925MOL0     H22099   4.356   2.966   4.455 -0.3435 -0.3893 -0.2099
  925MOL0     H22100   4.414   3.173   4.329 -0.2140  0.5068 -2.5126
  926MOL0     O22101   2.779   2.510   2.264  0.2514  0.3609 -0.4103
  926MOL0     C22102   2.890   2.470   2.227  0.3299 -0.2359 -0.2137
  926MOL0     O22103   2.927   2.433   2.101  0.0767 -0.1355 -0.1042
  926MOL0     C22104   2.841   2.455   1.993  0.0525 -0.4037 -0.3791
  926MOL0     C22105   2.766   2.572   1.976  0.0056  0.1784 -0.1305
  926MOL0     C22106   2.688   2.589   1.861  0.0873  0.1425  0.5640
  926MOL0     C22107   2.694   2.505   1.754  0.2500 -0.0298 -0.0428
  926MOL0     O22108   2.633   2.530   1.628 -1.0303 -0.1485  0.3784
  926MOL0     C22109   2.504   2.597   1.629 -0.0240 -0.7213 -0.3026
  926MOL0     C22110   2.430   2.548   1.503 -0.2534 -0.5656 -0.8927
  926MOL0     C22111   2.298   2.617   1.521  0.4955 -0.5003  0.6405
  926MOL0     C22112   2.206   2.583   1.411  0.2344  0.3020 -0.6479
  926MOL0     C22113   2.058   2.608   1.448 -0.0600 -0.5570  0.6008
  926MOL0     C22114   1.970   2.562   1.330  2.0105 -0.5941  0.4548
  926MOL0     C22115   1.822   2.573   1.376 -0.4795 -0.4827 -0.2799
  926MOL0     C22116   1.715   2.543   1.273 -0.7008  0.5847 -0.5485
  926MOL0     N22117   1.585   2.587   1.326 -0.6016 -0.3328  0.7153
  926MOL0     C22118   1.547   2.573   1.463 -0.5242 -1.0133  1.3820
  926MOL0     C22119   1.433   2.640   1.459 -0.0315  0.2654 -0.4847
  926MOL0     C22120   1.348   2.669   1.585  0.3324 -0.4096  0.4397
  926MOL0     C22121   1.230   2.750   1.541  0.4781 -0.0024  0.4532
  926MOL0     C22122   1.155   2.807   1.657 -0.0862 -0.2694 -0.4906
  926MOL0     C22123   1.010   2.813   1.638  0.2912  0.2811 -0.1800
  926MOL0     O22124   0.940   2.768   1.751  0.6239  0.2849 -0.6073
  926MOL0     C22125   0.811   2.737   1.733  0.0719  0.9540  0.4104
  926MOL0     C22126   0.735   2.761   1.615 -0.5035  0.5061 -0.0937
  926MOL0     C22127   0.599   2.739   1.619 -0.4943  0.2923  0.1989
  926MOL0     C22128   0.532   2.713   1.742 -0.8208 -0.4344  0.8370
  926MOL0     C22129   0.383   2.697   1.751 -0.8072  0.4345  0.4715
  926MOL0     O22130   0.337   2.622   1.856 -0.1062  0.0272 -0.0361
  926MOL0     C22131   0.209   2.629   1.896  1.2895  0.7355 -0.2329
  926MOL0     C22132   0.154   2.514   1.968 -0.1730 -0.4233  0.5474
  926MOL0     C22133   0.037   2.525   2.042  0.6456 -0.8267 -0.4311
  926MOL0     C22134  -0.034   2.638   2.051  0.6953 -0.3270 -0.3254
  926MOL0     O22135  -0.147   2.642   2.128  0.1427 -0.6104  0.6840
  926MOL0     C22136  -0.259   2.724   2.094  0.6728 -0.1127 -0.4102
  926MOL0     C22137  -0.385   2.651   2.114 -0.5998 -0.5777  0.5535
  926MOL0     C22138  -0.503   2.710   2.037  0.7093 -0.4003 -0.2801
  926MOL0     C22139  -0.630   2.629   2.068  0.2088  0.4650 -0.4761
  926MOL0     C22140  -0.747   2.688   1.985 -0.4335  0.3331  0.0723
  926MOL0     C22141  -0.862   2.729   2.063 -0.0726  0.3474  0.3850
  926MOL0     C22142  -0.979   2.779   1.977  0.2508  0.8312  0.2976
  926MOL0     C22143  -0.948   2.877   1.869 -0.7109 -0.3726  0.2847
  926MOL0    Cl22144  -0.864   3.015   1.954  0.1191 -0.3369 -0.1912
  926MOL0     C22145   0.013   2.754   1.988 -0.8632  0.3116  1.0397
  926MOL0     C22146   0.136   2.750   1.918 -0.9219 -0.2077 -0.2358
  926MOL0     O22147   0.314   2.752   1.668 -0.4064 -0.8885 -0.2851
  926MOL0     C22148   0.611   2.685   1.852  0.0435  0.4007 -0.0495
  926MOL0     C22149   0.752   2.692   1.842 -0.5005 -0.4282  0.6013
  926MOL0     N22150   1.387   2.672   1.337 -0.3159  0.0448  0.6703
  926MOL0     N22151   1.480   2.631   1.255  0.5401 -0.2864  0.8388
  926MOL0     C22152   2.750   2.379   1.770 -0.4247 -0.9832  0.4982
  926MOL0     C22153   2.824   2.357   1.892 -1.2771  0.3913  0.5445
  926MOL0     C22154   2.993   2.444   2.323 -0.2053  0.8667 -0.3913
  926MOL0     C22155   2.975   2.432   2.463 -0.0328  0.6764  0.1252
  926MOL0     C22156   3.076   2.387   2.545  0.8869 -0.1571 -0.3923
  926MOL0     C22157   3.210   2.369   2.495 -0.4737 -0.0210 -0.3959
  926MOL0     O22158   3.314   2.328   2.573 -0.4485  0.6858  0.1816
  926MOL0     C22159   3.315   2.336   2.714 -1.2584 -0.8376  0.3694
  926MOL0     C22160   3.463   2.320   2.749 -0.9810 -0.5997 -0.2513
  926MOL0     C22161   3.509   2.164   2.756 -0.3760 -0.7898 -0.5979
  926MOL0     C22162   3.647   2.141   2.829  0.2879 -0.3506 -0.2310
  926MOL0     C22163   3.646   2.145   2.977  0.0650  0.2703  0.1534
  926MOL0     C22164   3.659   2.152   3.093 -0.5285  0.7478  0.6268
  926MOL0     C22165   3.233   2.401   2.363 -0.1738 -0.2488  0.2034
  926MOL0     C22166   3.127   2.417   2.273 -0.4149  0.0294  0.0596
  926MOL0     H22167   2.763   2.643   2.058 -0.7567 -0.0629  0.0603
  926MOL0     H22168   2.620   2.673   1.852 -0.6101 -0.5889 -1.5392
  926MOL0     H22169   2.512   2.705   1.610 -2.6185 -0.4185 -0.0095
  926MOL0     H22170   2.452   2.584   1.725  3.3697  0.1146  1.8677
  926MOL0     H22171   2.434   2.438   1.506 -0.2385 -0.5483  0.4504
  926MOL0     H22172   2.475   2.566   1.405  1.4341 -0.2780 -0.1129
  926MOL0     H22173   2.310   2.725   1.534  0.0193 -0.4092  0.3534
  926MOL0     H22174   2.246   2.569   1.604 -0.4221  2.3866  1.8486
  926MOL0     H22175   2.239   2.651   1.333  1.6402  2.9206  2.0002
  926MOL0     H22176   2.219   2.479   1.380 -4.2121 -0.4303 -0.7879
  926MOL0     H22177   2.060   2.715   1.469 -1.9457 -0.2428 -0.5288
  926MOL0     H22178   2.028   2.555   1.539 -2.1503 -0.6102 -0.0486
  926MOL0     H22179   2.006   2.461   1.310  1.0976 -0.7097 -0.7015
  926MOL0     H22180   1.992   2.618   1.239  2.7745 -1.7951 -0.1262
  926MOL0     H22181   1.814   2.502   1.458 -1.8200  0.9531  0.8968
  926MOL0     H22182   1.812   2.666   1.433  2.4992 -0.1843 -0.1236
  926MOL0     H22183   1.712   2.435   1.258  0.7460  0.4689 -0.1159
  926MOL0     H22184   1.735   2.594   1.178 -2.4847 -0.3285 -1.4638
  926MOL0     H22185   1.614   2.544   1.544  2.2525 -0.3140 -0.5222
  926MOL0     H22186   1.404   2.721   1.664 -0.6692 -1.4349  1.8747
  926MOL0     H22187   1.303   2.582   1.634 -0.7767  0.6687  1.4141
  926MOL0     H22188   1.164   2.693   1.476 -1.4244  2.0721  0.4492
  926MOL0     H22189   1.267   2.833   1.480  1.5380 -0.8119 -0.0293
  926MOL0     H22190   1.194   2.760   1.747  4.0680  0.9972 -1.3939
  926MOL0     H22191   1.193   2.909   1.668  1.4106 -0.8887  0.3482
  926MOL0     H22192   0.988   2.744   1.556  0.2256 -1.1617  1.0165
  926MOL0     H22193   0.978   2.916   1.619  0.7810  0.1224 -2.0080
  926MOL0     H22194   0.776   2.781   1.516  0.5203 -0.5052  0.0924
  926MOL0     H22195   0.546   2.755   1.526 -1.3348 -2.1530  0.1913
  926MOL0     H22196   0.200   2.416   1.962  3.0573  1.0418 -1.6098
  926MOL0     H22197   0.001   2.442   2.103  1.6879 -0.6222  0.4824
  926MOL0     H22198  -0.251   2.766   1.993  1.0429 -1.5199 -0.9867
  926MOL0     H22199  -0.264   2.811   2.161 -1.6772 -0.8219  0.4160
  926MOL0     H22200  -0.411   2.662   2.220  0.2764  2.0561  0.5678
  926MOL0     H22201  -0.369   2.551   2.074  0.5096  0.6572 -2.4116
  926MOL0     H22202  -0.491   2.697   1.929 -0.8857  0.4174 -0.5774
  926MOL0     H22203  -0.524   2.816   2.050 -1.4050 -0.5426 -2.0957
  926MOL0     H22204  -0.606   2.524   2.048 -0.2575  0.2167  0.2317
  926MOL0     H22205  -0.648   2.630   2.176 -0.0107  0.1184 -0.5104
  926MOL0     H22206  -0.775   2.609   1.915  1.9095 -1.3694  0.9228
  926MOL0     H22207  -0.715   2.768   1.917  0.2426 -0.5242 -0.6411
  926MOL0     H22208  -0.831   2.804   2.137  2.6226 -2.7233  2.6648
  926MOL0     H22209  -0.903   2.646   2.122 -1.1434  0.9888  0.5742
  926MOL0     H22210  -1.029   2.692   1.933  1.2085  1.7364 -2.7715
  926MOL0     H22211  -1.049   2.832   2.042  0.8375  1.1927  0.6510
  926MOL0     H22212  -1.046   2.906   1.831 -2.2460  0.3227  4.2384
  926MOL0     H22213  -0.881   2.835   1.793 -3.9235 -1.5993 -2.0962
  926MOL0     H22214  -0.019   2.856   2.004  3.8680  2.2414  0.0781
  926MOL0     H22215   0.173   2.847   1.885  0.6711 -0.9696 -0.8011
  926MOL0     H22216   0.559   2.646   1.939 -1.2005 -1.3993 -1.5211
  926MOL0     H22217   0.804   2.665   1.933  3.3400  0.4307 -1.1534
  926MOL0     H22218   2.738   2.317   1.681  0.1491 -0.4845  0.0604
  926MOL0     H22219   2.874   2.261   1.895 -1.4460  0.1423 -2.1083
  926MOL0     H22220   2.874   2.432   2.503  0.2202 -1.0472  0.8465
  926MOL0     H22221   3.063   2.359   2.649  1.0778  1.2041  0.0291
  926MOL0     H22222   3.247   2.257   2.745 -1.6935 -1.2665 -1.5162
  926MOL0     H22223   3.278   2.434   2.745  1.0130  0.5263 -0.9560
  926MOL0     H22224   3.527   2.381   2.684 -0.8665 -1.0024 -0.5182
  926MOL0     H22225   3.475   2.355   2.852  1.3803  0.7126 -0.9001
  926MOL0     H22226   3.521   2.120   2.657  2.4838 -3.2251  0.6829
  926MOL0     H22227   3.433   2.101   2.804 -3.2807  3.5226  1.0730
  926MOL0     H22228   3.688   2.046   2.793  0.2288 -1.4312  2.3332
  926MOL0     H22229   3.713   2.222   2.796  2.0262 -2.4184 -2.1686
  926MOL0     H22230   3.650   2.127   3.197 -0.7653 -1.2083  0.1601
  926MOL0     H22231   3.333   2.384   2.324 -0.7832 -2.1254 -0.6546
  926MOL0     H22232   3.144   2.434   2.167  0.7418  1.6536  0.4562
  927MOL0     O22233   0.142   1.654   9.012 -0.5104 -0.4617 -0.1930
  927MOL0     C22234   0.137   1.546   9.067  0.0069  0.0219 -0.8938
  927MOL0     O22235   0.247   1.490   9.140  0.5510  0.5934  0.2717
  927MOL0     C22236   0.358   1.576   9.146 -0.3141  0.0392 -0.5573
  927MOL0     C22237   0.390   1.625   9.267 -0.9197  0.0656  0.5849
  927MOL0     C22238   0.512   1.688   9.303 -0.7352  0.4092  0.4998
  927MOL0     C22239   0.594   1.726   9.193  0.3135 -0.3966  0.2093
  927MOL0     O22240   0.705   1.797   9.214  0.3796  0.4533 -0.2482
  927MOL0     C22241   0.697   1.943   9.246 -0.1675  1.0960  0.2806
  927MOL0     C22242   0.831   2.000   9.217  0.1281  0.4208  0.1563
  927MOL0     C22243   0.854   2.067   9.073  0.3829 -0.2804 -0.1153
  927MOL0     C22244   0.860   1.947   8.980  0.2203 -0.2416  1.1620
  927MOL0     C22245   0.937   1.973   8.846  0.2219 -0.5793  0.0574
  927MOL0     C22246   0.928   2.114   8.795 -0.0104  0.7040  0.6802
  927MOL0     C22247   0.937   2.118   8.648  0.5096  0.0117 -0.5559
  927MOL0     C22248   0.943   2.257   8.578 -0.0526  0.1668 -0.0511
  927MOL0     N22249   0.804   2.308   8.547  0.3915 -0.1611  0.1418
  927MOL0     C22250   0.717   2.358   8.639  0.5377 -0.3904 -0.5000
  927MOL0     C22251   0.600   2.362   8.574  0.8049  0.0997  0.2244
  927MOL0     C22252   0.465   2.407   8.639  0.2288  0.1517  1.1636
  927MOL0     C22253   0.345   2.316   8.619  0.5369 -0.0611 -0.2138
  927MOL0     C22254   0.276   2.295   8.487  0.9170 -0.7093 -0.4971
  927MOL0     C22255   0.222   2.434   8.435  0.3622  0.8617 -0.6625
  927MOL0     O22256   0.133   2.500   8.535 -0.1398  0.3677 -0.3641
  927MOL0     C22257   0.013   2.553   8.501 -0.9511 -0.7046  0.5845
  927MOL0     C22258  -0.084   2.468   8.448 -0.8610  0.3374 -0.0692
  927MOL0     C22259  -0.204   2.517   8.404 -0.7090 -1.0545  0.3744
  927MOL0     C22260  -0.236   2.656   8.412 -0.6862  0.8101  0.2677
  927MOL0     C22261  -0.367   2.715   8.386  0.1274 -0.2103  0.9485
  927MOL0     O22262  -0.463   2.628   8.352  0.4816  0.5001 -0.4115
  927MOL0     C22263  -0.601   2.657   8.367 -0.7150  0.3003  0.9011
  927MOL0     C22264  -0.681   2.603   8.260 -0.0076 -0.0191 -0.6806
  927MOL0     C22265  -0.819   2.628   8.266 -0.0227 -0.4904 -0.1367
  927MOL0     C22266  -0.878   2.722   8.353 -0.6899  0.0983 -0.4377
  927MOL0     O22267  -1.010   2.749   8.328  0.0306  0.9939 -0.2910
  927MOL0     C22268  -1.084   2.810   8.435 -0.1057  1.0556  0.1007
  927MOL0     C22269  -1.235   2.809   8.417  0.7486 -0.2396 -0.0015
  927MOL0     C22270  -1.279   2.664   8.451 -0.6542 -0.3923 -0.2443
  927MOL0     C22271  -1.264   2.618   8.593 -0.0240 -0.6499 -0.8136
  927MOL0     C22272  -1.302   2.726   8.702 -1.5543 -0.0732  0.9581
  927MOL0     C22273  -1.315   2.680   8.842  0.2731 -0.2043 -0.7271
  927MOL0     C22274  -1.177   2.648   8.905 -0.4734  0.0948  0.0767
  927MOL0     C22275  -1.178   2.629   9.048  0.5964 -0.0615  0.7310
  927MOL0    Cl22276  -1.010   2.566   9.094  0.3316  0.0493  0.0931
  927MOL0     C22277  -0.795   2.784   8.449 -0.9836 -0.7114 -0.1008
  927MOL0     C22278  -0.658   2.738   8.461  0.0268 -1.3793  0.4118
  927MOL0     O22279  -0.383   2.835   8.369  0.2830  0.6214 -0.1494
  927MOL0     C22280  -0.137   2.747   8.458  0.4128  0.2487  0.4068
  927MOL0     C22281  -0.015   2.690   8.504 -0.0828  0.3876  0.3127
  927MOL0     N22282   0.613   2.321   8.442 -0.0349 -0.7584  0.0746
  927MOL0     N22283   0.737   2.282   8.431  0.0509 -0.5297  0.3790
  927MOL0     C22284   0.564   1.678   9.061 -0.2393  0.8883 -0.0373
  927MOL0     C22285   0.448   1.597   9.033  0.7030  0.4074 -0.4859
  927MOL0     C22286   0.017   1.455   9.060  0.5083 -0.3528  0.7656
  927MOL0     C22287   0.015   1.314   9.089  0.2550 -0.1607  0.6242
  927MOL0     C22288  -0.112   1.244   9.090 -0.5430  0.2114 -0.5415
  927MOL0     C22289  -0.231   1.319   9.077 -0.3587  0.4421 -0.7582
  927MOL0     O22290  -0.353   1.249   9.107 -0.1237 -0.3748  0.7362
  927MOL0     C22291  -0.482   1.307   9.067  0.0741  1.3449 -0.2628
  927MOL0     C22292  -0.590   1.208   9.052 -0.0718 -0.6925  0.6524
  927MOL0     C22293  -0.721   1.261   9.107  0.4687  0.4037  0.5537
  927MOL0     C22294  -0.838   1.158   9.109  0.8849  0.8022 -0.2628
  927MOL0     C22295  -0.957   1.229   9.162  0.9532  0.4711 -0.1709
  927MOL0     C22296  -1.048   1.299   9.199 -0.1596 -0.0777  0.2351
  927MOL0     C22297  -0.226   1.454   9.041 -0.3752  1.2550  0.0208
  927MOL0     C22298  -0.110   1.524   9.028  0.3832  0.3923 -0.1876
  927MOL0     H22299   0.329   1.601   9.353  0.8616 -0.7609  1.6844
  927MOL0     H22300   0.530   1.726   9.403 -1.8361  1.7130  0.2250
  927MOL0     H22301   0.677   1.958   9.353  0.1346  0.0368  0.4935
  927MOL0     H22302   0.618   1.985   9.183 -0.9367  0.4252  0.7767
  927MOL0     H22303   0.921   1.943   9.240  0.3045  0.8451  0.5325
  927MOL0     H22304   0.839   2.087   9.283 -0.4400  0.6716 -0.1004
  927MOL0     H22305   0.945   2.127   9.068 -0.0648  0.3291 -1.1928
  927MOL0     H22306   0.772   2.131   9.039  0.3038 -1.0400 -1.4349
  927MOL0     H22307   0.892   1.856   9.032  1.1860 -1.7715 -1.8688
  927MOL0     H22308   0.758   1.924   8.949  0.3684 -1.9331  1.8107
  927MOL0     H22309   0.905   1.900   8.771 -1.4159 -1.5264  1.5956
  927MOL0     H22310   1.043   1.950   8.860  0.7803  2.3809  1.4004
  927MOL0     H22311   1.002   2.184   8.835  0.8450  0.7428 -0.8538
  927MOL0     H22312   0.827   2.149   8.817 -1.1100 -1.9048  0.2193
  927MOL0     H22313   1.032   2.066   8.628  2.5874  2.6147  1.6605
  927MOL0     H22314   0.857   2.056   8.607 -0.8597  0.5678  1.1601
  927MOL0     H22315   0.997   2.230   8.487  0.2576  1.8888 -0.4066
  927MOL0     H22316   1.005   2.324   8.638 -0.2543 -1.2265  1.8089
  927MOL0     H22317   0.752   2.367   8.741 -0.1928 -1.9009 -0.0940
  927MOL0     H22318   0.445   2.502   8.588  0.9674  0.3945  1.3061
  927MOL0     H22319   0.485   2.430   8.744  0.7205  1.3670  0.8218
  927MOL0     H22320   0.271   2.338   8.697  0.7311 -2.7605  0.8537
  927MOL0     H22321   0.382   2.214   8.637 -1.4484 -0.6332  0.9645
  927MOL0     H22322   0.339   2.247   8.411  0.7132  0.8268 -1.7041
  927MOL0     H22323   0.193   2.226   8.501 -0.0985  0.5360 -0.2542
  927MOL0     H22324   0.159   2.427   8.346 -0.9197  0.2172  0.2713
  927MOL0     H22325   0.311   2.485   8.395 -0.6401  1.8550 -1.6812
  927MOL0     H22326  -0.065   2.365   8.422  1.6854 -0.1875  3.1268
  927MOL0     H22327  -0.277   2.452   8.357 -2.3262  0.7801  0.2126
  927MOL0     H22328  -0.654   2.533   8.182 -4.4950 -0.1027 -2.4734
  927MOL0     H22329  -0.874   2.577   8.188  1.2138 -3.1775  0.6507
  927MOL0     H22330  -1.040   2.910   8.426  2.1131  0.3524  2.2146
  927MOL0     H22331  -1.065   2.770   8.535 -1.3909  2.2751  0.8773
  927MOL0     H22332  -1.266   2.846   8.319 -1.6673  1.0946  1.1700
  927MOL0     H22333  -1.287   2.874   8.488 -1.0239 -2.1084  0.5307
  927MOL0     H22334  -1.222   2.598   8.385  0.2396 -0.3932  0.5129
  927MOL0     H22335  -1.385   2.646   8.428 -1.1026  1.1817  0.4522
  927MOL0     H22336  -1.340   2.539   8.602 -2.2553  1.0616 -3.1737
  927MOL0     H22337  -1.166   2.570   8.608  0.6349 -0.2521 -3.3180
  927MOL0     H22338  -1.398   2.771   8.675 -0.1563  1.4495 -1.9811
  927MOL0     H22339  -1.230   2.808   8.710  0.0466 -0.9639 -2.4276
  927MOL0     H22340  -1.392   2.602   8.848 -0.3132  0.3784 -0.4726
  927MOL0     H22341  -1.358   2.766   8.894  1.0130  0.1370 -0.6690
  927MOL0     H22342  -1.143   2.554   8.860 -0.0784  1.2829 -2.2493
  927MOL0     H22343  -1.107   2.730   8.886  0.4967 -0.5418  0.7782
  927MOL0     H22344  -1.258   2.559   9.075  1.0676 -0.1745  1.8853
  927MOL0     H22345  -1.198   2.728   9.091 -1.1860  0.3949 -0.9897
  927MOL0     H22346  -0.838   2.857   8.517  0.6546 -0.0337  0.2477
  927MOL0     H22347  -0.606   2.775   8.549  1.4306 -3.1409  0.3820
  927MOL0     H22348  -0.155   2.853   8.455  0.7532  0.3006  0.1206
  927MOL0     H22349   0.065   2.748   8.548 -0.3847  0.5119  0.7083
  927MOL0     H22350   0.629   1.713   8.982 -0.2986  0.4259 -0.2920
  927MOL0     H22351   0.405   1.568   8.938 -2.3861  1.0961  0.5625
  927MOL0     H22352   0.111   1.267   9.109 -0.0778 -0.0475  2.7169
  927MOL0     H22353  -0.105   1.138   9.110  1.3623 -0.1497 -2.7910
  927MOL0     H22354  -0.468   1.348   8.966 -0.2987  1.6444 -0.1948
  927MOL0     H22355  -0.511   1.381   9.142 -2.4464  1.9892 -1.7428
  927MOL0     H22356  -0.604   1.185   8.946 -0.8894 -0.1590  0.6349
  927MOL0     H22357  -0.562   1.117   9.107  0.3289 -0.4839  0.7946
  927MOL0     H22358  -0.753   1.348   9.049  1.2397 -0.5399 -1.3668
  927MOL0     H22359  -0.706   1.287   9.213 -1.8448  0.7971  0.8498
  927MOL0     H22360  -0.860   1.111   9.012  1.5222 -1.7321  0.7471
  927MOL0     H22361  -0.813   1.076   9.177 -1.1467  1.3487  1.2475
  927MOL0     H22362  -1.129   1.361   9.231  0.0186  0.1465  0.2589
  927MOL0     H22363  -0.318   1.508   9.028 -2.3610 -2.1391 -1.4709
  927MOL0     H22364  -0.119   1.621   8.980 -2.2487 -0.2156 -1.1066
  928MOL0     O22365   9.661  10.578   4.925 -0.2735 -0.3513  0.4457
  928MOL0     C22366   9.704  10.484   4.850  0.3895  0.2591  0.3627
  928MOL0     O22367   9.630  10.383   4.786 -0.1259 -0.7797 -0.0600
  928MOL0     C22368   9.498  10.358   4.799 -0.8576  0.1701 -0.1449
  928MOL0     C22369   9.449  10.247   4.731  0.0638 -0.1987 -0.3140
  928MOL0     C22370   9.308  10.221   4.738 -1.1092  0.6405  1.1895
  928MOL0     C22371   9.213  10.295   4.817  0.2770  0.0160 -0.1877
  928MOL0     O22372   9.077  10.259   4.824 -0.5267 -0.2139 -0.0164
  928MOL0     C22373   9.037  10.141   4.758 -0.7754 -0.1974 -0.1421
  928MOL0     C22374   8.887  10.155   4.763  0.7111  0.0388  0.2535
  928MOL0     C22375   8.831  10.269   4.678  0.1922  0.2206  0.0543
  928MOL0     C22376   8.675  10.254   4.657 -0.6110 -0.7663  0.5904
  928MOL0     C22377   8.613  10.385   4.595 -0.3771 -0.6478  0.7981
  928MOL0     C22378   8.464  10.373   4.563 -0.1928 -0.1854 -0.4355
  928MOL0     C22379   8.371  10.390   4.688  0.0319 -0.5156  0.0462
  928MOL0     C22380   8.362  10.534   4.732 -0.2824 -1.0162 -0.0384
  928MOL0     N22381   8.312  10.627   4.629 -0.0284 -0.5483  0.2557
  928MOL0     C22382   8.188  10.636   4.570  0.3068 -0.1833 -0.8001
  928MOL0     C22383   8.187  10.736   4.482 -0.4765 -0.6193  0.6416
  928MOL0     C22384   8.075  10.785   4.396 -0.4334  0.2691  0.0761
  928MOL0     C22385   8.006  10.914   4.444 -0.0116 -0.6014  0.0789
  928MOL0     C22386   7.882  10.958   4.363  0.0891  0.0736 -0.0045
  928MOL0     C22387   7.766  10.980   4.456 -0.2105  0.1957 -0.2442
  928MOL0     O22388   7.662  11.050   4.385  0.0781 -0.5286  0.5312
  928MOL0     C22389   7.530  11.025   4.409  0.0755  0.6375 -0.2554
  928MOL0     C22390   7.469  10.963   4.522  0.4648 -0.2229  0.7054
  928MOL0     C22391   7.330  10.927   4.516 -0.1706 -0.4890  0.6731
  928MOL0     C22392   7.247  10.986   4.416 -0.9358 -1.0459 -0.0087
  928MOL0     C22393   7.100  10.963   4.421  0.3022  0.2039 -1.5158
  928MOL0     O22394   7.047  10.948   4.543 -0.0789 -0.4399 -0.1705
  928MOL0     C22395   6.925  10.889   4.545 -0.4772  0.3820  0.2066
  928MOL0     C22396   6.898  10.754   4.575 -0.6061 -0.5491  0.5546
  928MOL0     C22397   6.758  10.715   4.591  0.1653  0.4605  0.0925
  928MOL0     C22398   6.654  10.806   4.576  0.1381  0.4946 -0.1079
  928MOL0     O22399   6.529  10.748   4.598 -0.3961  0.0668  0.3563
  928MOL0     C22400   6.417  10.828   4.562  0.5506  0.2166  0.1136
  928MOL0     C22401   6.291  10.743   4.589  0.5950  0.4510 -0.2658
  928MOL0     C22402   6.172  10.795   4.502  0.3673 -0.1871  0.5924
  928MOL0     C22403   6.046  10.709   4.540  0.2458  0.3145 -0.3971
  928MOL0     C22404   5.924  10.774   4.484  0.1050 -0.1047  0.5782
  928MOL0     C22405   5.797  10.708   4.529  0.6280  0.4890  0.4118
  928MOL0     C22406   5.685  10.807   4.504 -0.5220  0.2450 -0.0544
  928MOL0     C22407   5.663  10.900   4.616  0.3836 -0.1561 -0.2667
  928MOL0    Cl22408   5.607  10.812   4.765  0.6278 -0.5554  0.0517
  928MOL0     C22409   6.685  10.931   4.539  0.2255 -1.1127  1.0898
  928MOL0     C22410   6.812  10.981   4.527 -0.1297  0.4962 -0.2349
  928MOL0     O22411   7.041  10.944   4.310 -0.1140  0.5663 -0.4073
  928MOL0     C22412   7.311  11.049   4.305  0.2622  0.7016 -0.3089
  928MOL0     C22413   7.448  11.066   4.306  0.6693 -0.8599  0.0862
  928MOL0     N22414   8.311  10.789   4.479  0.6735  0.7807 -0.2942
  928MOL0     N22415   8.386  10.724   4.569 -0.4297  0.5791 -0.0048
  928MOL0     C22416   9.270  10.397   4.889  0.7430 -0.9643 -0.2127
  928MOL0     C22417   9.412  10.433   4.878  0.1435  0.7032 -0.6108
  928MOL0     C22418   9.844  10.479   4.818  0.1141 -0.1594 -0.3798
  928MOL0     C22419   9.892  10.436   4.692  0.2904  0.0455 -1.6801
  928MOL0     C22420  10.026  10.421   4.662 -0.4493 -0.4056  0.0619
  928MOL0     C22421  10.122  10.464   4.756 -0.2731  0.8670 -0.1328
  928MOL0     O22422  10.251  10.444   4.713  0.4982  0.6112  0.0021
  928MOL0     C22423  10.341  10.504   4.803  0.1051  0.5242 -0.0852
  928MOL0     C22424  10.491  10.512   4.758 -0.3548  0.4180 -0.5979
  928MOL0     C22425  10.603  10.537   4.857 -0.5095  0.2916 -0.5484
  928MOL0     C22426  10.750  10.522   4.798  0.4755  0.2018  0.4125
  928MOL0     C22427  10.853  10.548   4.894  0.1820  0.9259  0.0733
  928MOL0     C22428  10.944  10.575   4.967  0.1242 -0.2199  0.4305
  928MOL0     C22429  10.069  10.538   4.867 -0.7315 -0.2278 -0.8621
  928MOL0     C22430   9.940  10.532   4.909  0.2825  0.2736  0.0309
  928MOL0     H22431   9.511  10.186   4.665  1.3852  1.3893 -0.5939
  928MOL0     H22432   9.278  10.139   4.673  1.2561  2.1576 -2.0807
  928MOL0     H22433   9.065  10.047   4.806 -1.1034 -1.2329 -1.8949
  928MOL0     H22434   9.064  10.128   4.653 -0.1569 -0.9854  0.1085
  928MOL0     H22435   8.847  10.186   4.860 -0.8548  3.1833 -1.2366
  928MOL0     H22436   8.842  10.063   4.725  0.5141 -0.1930  1.0393
  928MOL0     H22437   8.869  10.261   4.576  3.5284 -0.5547  1.2267
  928MOL0     H22438   8.851  10.364   4.729 -0.6951  0.6439 -0.3629
  928MOL0     H22439   8.655  10.168   4.593  0.6907 -1.1423  0.6562
  928MOL0     H22440   8.632  10.224   4.753  2.0004 -1.8924  1.5195
  928MOL0     H22441   8.666  10.412   4.503  0.2982  0.4638  1.4852
  928MOL0     H22442   8.637  10.475   4.652  0.6236 -0.0064 -0.5541
  928MOL0     H22443   8.442  10.277   4.517 -0.2052  0.0956 -1.0259
  928MOL0     H22444   8.438  10.440   4.480  0.3090 -0.8805 -1.1599
  928MOL0     H22445   8.267  10.369   4.661 -1.4951  2.0272  3.2709
  928MOL0     H22446   8.404  10.326   4.770 -1.2694  0.4562  1.3706
  928MOL0     H22447   8.461  10.570   4.763 -0.6941  0.0409  0.1019
  928MOL0     H22448   8.290  10.533   4.815  0.0356 -3.5725  0.2935
  928MOL0     H22449   8.105  10.578   4.609  0.5259  1.1027  1.7510
  928MOL0     H22450   8.017  10.695   4.376  2.6107 -2.6918  3.1529
  928MOL0     H22451   8.130  10.808   4.304 -0.3207  0.8795  0.2889
  928MOL0     H22452   8.081  10.993   4.454  0.1325 -0.8929  1.4244
  928MOL0     H22453   7.974  10.893   4.547 -2.5370  2.2253  0.0243
  928MOL0     H22454   7.905  11.049   4.307  2.0748  0.2260  0.9591
  928MOL0     H22455   7.853  10.875   4.298 -0.9814  0.5153 -0.1022
  928MOL0     H22456   7.794  11.036   4.545 -0.6426 -1.1629  0.7723
  928MOL0     H22457   7.723  10.889   4.498  1.5578 -1.9328 -2.7256
  928MOL0     H22458   7.518  10.928   4.612  1.3734 -1.2078 -0.1375
  928MOL0     H22459   7.286  10.880   4.603  0.4613 -1.0107  0.7190
  928MOL0     H22460   6.977  10.679   4.580 -1.0015 -1.0951 -0.8937
  928MOL0     H22461   6.746  10.608   4.593  2.1461  0.1853  2.5859
  928MOL0     H22462   6.425  10.867   4.460  1.8225  0.6957  0.3744
  928MOL0     H22463   6.410  10.915   4.629  2.6842  0.4909  0.0529
  928MOL0     H22464   6.269  10.717   4.693 -0.0104  0.7457 -0.3129
  928MOL0     H22465   6.319  10.644   4.551 -1.3251  0.9957 -3.5417
  928MOL0     H22466   6.202  10.781   4.398  0.3011 -2.3000  0.8079
  928MOL0     H22467   6.138  10.898   4.516  0.3742 -0.0582 -0.2971
  928MOL0     H22468   6.046  10.601   4.522 -1.4325 -0.1363  1.8984
  928MOL0     H22469   6.041  10.722   4.648  3.9764 -1.8786  0.1912
  928MOL0     H22470   5.926  10.790   4.376  1.4211  1.0676  0.7496
  928MOL0     H22471   5.914  10.879   4.512 -1.0542 -0.3803  1.2913
  928MOL0     H22472   5.808  10.694   4.637  2.0352  1.9054  0.4837
  928MOL0     H22473   5.783  10.608   4.489  1.5340  0.2107  0.7794
  928MOL0     H22474   5.706  10.867   4.415 -0.3252 -0.1207 -0.2579
  928MOL0     H22475   5.593  10.754   4.479 -1.3255  1.2130  0.7846
  928MOL0     H22476   5.589  10.980   4.601  1.0188  0.6507  0.7850
  928MOL0     H22477   5.757  10.947   4.646 -0.8999  1.2376  1.8086
  928MOL0     H22478   6.598  10.992   4.514 -0.2013 -1.8540  0.7388
  928MOL0     H22479   6.828  11.088   4.519  0.9029  0.6271  2.4968
  928MOL0     H22480   7.259  11.066   4.212  3.8535 -1.1477 -2.8938
  928MOL0     H22481   7.500  11.104   4.218  2.4918 -1.9251  0.6423
  928MOL0     H22482   9.203  10.461   4.946 -0.8125 -0.6831 -2.2386
  928MOL0     H22483   9.449  10.524   4.924  2.9189  0.0614 -1.3640
  928MOL0     H22484   9.826  10.399   4.615 -0.0849 -1.0941 -0.8440
  928MOL0     H22485  10.052  10.357   4.578  0.6051 -1.5464  1.2174
  928MOL0     H22486  10.352  10.450   4.897 -0.8305 -0.9345 -0.7792
  928MOL0     H22487  10.317  10.610   4.815  0.9930  0.5886  1.3359
  928MOL0     H22488  10.520  10.409   4.734  2.8378  0.3285  2.6777
  928MOL0     H22489  10.493  10.569   4.665 -3.4265  0.7071 -0.5730
  928MOL0     H22490  10.588  10.464   4.936 -0.4388  1.7718  0.8842
  928MOL0     H22491  10.588  10.638   4.895 -0.3748  0.9536 -2.1614
  928MOL0     H22492  10.758  10.429   4.742  3.6091  1.6241 -1.7906
  928MOL0     H22493  10.764  10.601   4.724  0.0492 -0.7034 -0.6628
  928MOL0     H22494  11.012  10.601   5.045 -3.8886 -0.2557  4.3074
  928MOL0     H22495  10.142  10.580   4.936 -0.7568  1.8196 -1.9980
  928MOL0     H22496   9.907  10.578   5.001 -0.3699 -0.1516  0.0157
  929MOL0     O22497  11.024   2.275  10.973 -0.2790  0.2481 -0.2538
  929MOL0     C22498  10.955   2.354  11.040 -0.2226  0.7726  0.1047
  929MOL0     O22499  10.990   2.439  11.138  0.3488  0.8509  0.1959
  929MOL0     C22500  11.123   2.462  11.168  0.0688 -0.0825  0.2740
  929MOL0     C22501  11.186   2.591  11.132  0.7392 -0.8067  0.2978
  929MOL0     C22502  11.324   2.610  11.155  0.6989 -0.8144  1.2627
  929MOL0     C22503  11.404   2.515  11.207 -0.6187  0.4579 -0.3887
  929MOL0     O22504  11.537   2.549  11.237 -0.8227 -0.8441 -0.0063
  929MOL0     C22505  11.622   2.577  11.124 -0.4640 -0.0232  0.0901
  929MOL0     C22506  11.635   2.454  11.031 -0.7907  0.0922  0.5026
  929MOL0     C22507  11.757   2.369  11.080  0.5046  0.9587  1.1354
  929MOL0     C22508  11.761   2.228  11.031  0.0419  0.7138 -0.2844
  929MOL0     C22509  11.898   2.158  11.026  0.4780 -0.9072 -0.0630
  929MOL0     C22510  11.910   2.012  11.073 -0.2135 -0.3867  0.2626
  929MOL0     C22511  12.051   1.981  11.111 -0.3361  0.0680 -1.3945
  929MOL0     C22512  12.076   1.836  11.139 -0.7459  0.4124  0.4210
  929MOL0     N22513  11.988   1.758  11.229  0.2840  0.4341 -0.2437
  929MOL0     C22514  11.951   1.787  11.361  0.3400 -0.2159 -0.2879
  929MOL0     C22515  11.845   1.698  11.386 -0.0703  0.0546 -0.7090
  929MOL0     C22516  11.757   1.703  11.503 -0.4269  0.0287 -0.2126
  929MOL0     C22517  11.677   1.562  11.523 -0.7669 -0.5037  0.6318
  929MOL0     C22518  11.594   1.554  11.647  0.6412 -0.4471  0.6621
  929MOL0     C22519  11.467   1.485  11.621 -0.6394 -0.7436 -0.3663
  929MOL0     O22520  11.388   1.510  11.746  0.8181 -0.8585 -0.7621
  929MOL0     C22521  11.259   1.467  11.749 -0.2465 -0.2966  0.4162
  929MOL0     C22522  11.184   1.430  11.635  0.4917 -0.2252 -0.6065
  929MOL0     C22523  11.049   1.387  11.645  0.3257  0.4336 -0.4840
  929MOL0     C22524  10.976   1.409  11.763 -0.4361  0.2776 -0.0749
  929MOL0     C22525  10.826   1.399  11.783 -0.8153  0.3996 -0.2346
  929MOL0     O22526  10.778   1.433  11.897 -0.0865 -0.7881 -0.0528
  929MOL0     C22527  10.644   1.469  11.908  0.0103  0.4941 -0.2344
  929MOL0     C22528  10.546   1.375  11.899  0.7374 -0.1712 -0.0753
  929MOL0     C22529  10.405   1.408  11.925  0.8829 -0.0727 -0.2116
  929MOL0     C22530  10.370   1.535  11.961 -0.7142  0.0236 -0.2084
  929MOL0     O22531  10.241   1.560  11.985  0.2084 -0.3488 -0.5009
  929MOL0     C22532  10.196   1.655  11.882 -0.1569 -0.9410  0.3275
  929MOL0     C22533  10.050   1.676  11.894 -0.0820  0.0588  0.1770
  929MOL0     C22534   9.996   1.808  11.841  0.8192  0.2782  0.9580
  929MOL0     C22535   9.842   1.811  11.834 -0.0624  0.1033 -0.1330
  929MOL0     C22536   9.762   1.937  11.793  1.0035  0.1358  0.2818
  929MOL0     C22537   9.612   1.913  11.808  0.7696  0.2939 -0.7532
  929MOL0     C22538   9.532   2.040  11.843 -0.0870 -0.7277 -0.8752
  929MOL0     C22539   9.383   2.014  11.859  0.3598  1.4941 -0.2465
  929MOL0    Cl22540   9.312   2.180  11.869  0.3072  0.3322  0.2351
  929MOL0     C22541  10.476   1.623  11.972 -0.2489 -0.1010  0.3171
  929MOL0     C22542  10.608   1.593  11.952 -1.1157  0.6022  0.1231
  929MOL0     O22543  10.760   1.360  11.684  0.4406  0.8782  0.7865
  929MOL0     C22544  11.062   1.426  11.879  0.4269  0.1968 -0.5907
  929MOL0     C22545  11.197   1.458  11.872 -0.3413 -0.3775 -0.1960
  929MOL0     N22546  11.815   1.627  11.270 -0.3192 -0.3075 -0.1449
  929MOL0     N22547  11.907   1.660  11.178  0.0709 -0.7486  1.0152
  929MOL0     C22548  11.346   2.394  11.246  0.1155  0.5697  1.2775
  929MOL0     C22549  11.206   2.370  11.220 -0.8326 -0.3817 -0.3907
  929MOL0     C22550  10.809   2.364  11.009 -0.7685  1.0968  0.4186
  929MOL0     C22551  10.729   2.470  11.075  0.7417 -0.3994  0.2456
  929MOL0     C22552  10.589   2.468  11.067  0.0861 -0.1825 -0.2560
  929MOL0     C22553  10.517   2.378  10.979 -0.0117  0.0067 -1.4862
  929MOL0     O22554  10.388   2.410  10.958 -0.2161  0.5713 -0.0018
  929MOL0     C22555  10.294   2.305  10.960 -1.0661 -0.0797  0.2328
  929MOL0     C22556  10.157   2.357  10.923  0.2221 -0.7143  0.6213
  929MOL0     C22557  10.059   2.236  10.912  0.0589  0.3722 -0.3505
  929MOL0     C22558   9.912   2.278  10.919  0.2214  0.9583  0.2860
  929MOL0     C22559   9.891   2.418  10.877  0.5688  0.0015  0.4413
  929MOL0     C22560   9.849   2.526  10.842  0.3189 -0.2117  0.0252
  929MOL0     C22561  10.589   2.276  10.914  0.2883  0.0204  0.7874
  929MOL0     C22562  10.735   2.280  10.922 -0.1101  0.2441  0.2996
  929MOL0     H22563  11.128   2.674  11.094  2.1576 -0.9553 -2.4593
  929MOL0     H22564  11.361   2.711  11.138  2.6182 -1.2217  2.7342
  929MOL0     H22565  11.716   2.629  11.148 -0.5393 -0.5160  1.5344
  929MOL0     H22566  11.564   2.649  11.065 -0.2819  0.7391  0.8187
  929MOL0     H22567  11.641   2.472  10.923 -2.9622 -0.5856  0.2158
  929MOL0     H22568  11.549   2.387  11.036 -0.1664 -0.8039 -0.3703
  929MOL0     H22569  11.767   2.355  11.189 -1.0968 -3.8986  0.9069
  929MOL0     H22570  11.850   2.420  11.054 -0.7849  2.0192 -1.8464
  929MOL0     H22571  11.698   2.175  11.104 -1.4965  3.3539  0.4570
  929MOL0     H22572  11.719   2.220  10.930  0.0131  1.2001 -0.3159
  929MOL0     H22573  11.969   2.225  11.075 -1.2647  0.9524  0.0751
  929MOL0     H22574  11.942   2.168  10.926  2.0694  0.2202  0.7178
  929MOL0     H22575  11.883   1.944  10.992 -1.4580 -1.1406  1.2570
  929MOL0     H22576  11.868   1.999  11.173  1.2442 -1.4703  0.7686
  929MOL0     H22577  12.126   2.014  11.038  0.6696 -1.3471 -1.0444
  929MOL0     H22578  12.083   2.031  11.203 -1.6002 -2.5132  0.5981
  929MOL0     H22579  12.173   1.826  11.188 -1.0227 -0.8612  0.7429
  929MOL0     H22580  12.068   1.778  11.046 -0.1023  0.3904  0.3777
  929MOL0     H22581  11.986   1.848  11.443 -3.3362 -0.4708  1.6617
  929MOL0     H22582  11.695   1.793  11.497 -0.3318  0.0926 -0.2297
  929MOL0     H22583  11.825   1.724  11.586 -0.3445 -3.1356  0.6918
  929MOL0     H22584  11.737   1.471  11.532  0.2968  0.3447  2.7138
  929MOL0     H22585  11.616   1.533  11.437 -0.8604 -3.6452  1.6284
  929MOL0     H22586  11.651   1.511  11.730  2.3185 -1.6944 -1.0500
  929MOL0     H22587  11.571   1.659  11.670 -0.6092 -0.9080  1.6284
  929MOL0     H22588  11.490   1.380  11.603 -0.7820 -0.8071 -0.1783
  929MOL0     H22589  11.425   1.533  11.532 -0.4018  1.7086  0.7746
  929MOL0     H22590  11.235   1.429  11.539  0.3744  2.5491 -0.7818
  929MOL0     H22591  10.991   1.361  11.557  1.5000  0.0568 -1.1682
  929MOL0     H22592  10.575   1.272  11.881  1.6507  0.1490 -0.4950
  929MOL0     H22593  10.330   1.336  11.892  0.1442  0.6862 -0.2354
  929MOL0     H22594  10.214   1.608  11.785 -0.5075  1.4755 -0.9965
  929MOL0     H22595  10.254   1.746  11.868 -1.5575  0.0237  0.5935
  929MOL0     H22596  10.032   1.680  12.002 -0.1546  0.9232  0.1399
  929MOL0     H22597  10.010   1.581  11.858  1.7603 -0.3331 -0.9654
  929MOL0     H22598  10.037   1.835  11.744  1.5030  0.1295  1.1994
  929MOL0     H22599  10.019   1.893  11.905  1.1520  1.3390 -0.5342
  929MOL0     H22600   9.811   1.733  11.765 -0.8837 -0.7681  1.1654
  929MOL0     H22601   9.821   1.787  11.939 -0.9000 -0.4645 -0.4212
  929MOL0     H22602   9.785   1.955  11.687  1.2886 -2.0730 -0.0673
  929MOL0     H22603   9.795   2.020  11.856  0.1887  0.3065  0.4981
  929MOL0     H22604   9.594   1.834  11.882 -0.8662  0.3040 -1.1058
  929MOL0     H22605   9.560   1.866  11.724  0.6193 -2.7979  0.9053
  929MOL0     H22606   9.572   2.084  11.935  1.6908 -0.2804 -1.8074
  929MOL0     H22607   9.551   2.102  11.755  0.3714 -0.4580 -0.5946
  929MOL0     H22608   9.359   1.953  11.946  0.5706  1.2507 -0.3570
  929MOL0     H22609   9.341   1.965  11.771  1.2728  1.2652 -0.5623
  929MOL0     H22610  10.449   1.727  11.985  0.9046  0.5328 -1.7796
  929MOL0     H22611  10.683   1.670  11.959  1.0323 -1.1121 -2.0902
  929MOL0     H22612  11.014   1.420  11.976 -0.5161 -0.1508 -1.0673
  929MOL0     H22613  11.270   1.465  11.952  1.6757  0.5158 -2.0239
  929MOL0     H22614  11.416   2.326  11.294  0.5019  1.1708  1.5747
  929MOL0     H22615  11.156   2.276  11.237 -1.6031 -0.1609 -1.3171
  929MOL0     H22616  10.774   2.549  11.134  1.7348 -0.4615 -0.4052
  929MOL0     H22617  10.535   2.548  11.117  0.0986 -0.6177  0.4685
  929MOL0     H22618  10.287   2.271  11.064 -0.4173  2.8228  1.3286
  929MOL0     H22619  10.327   2.213  10.912  1.1335  0.9443 -0.3818
  929MOL0     H22620  10.131   2.420  11.009  0.3619 -1.8687  1.5373
  929MOL0     H22621  10.158   2.405  10.825 -1.7572 -2.1813 -0.1849
  929MOL0     H22622  10.078   2.157  10.986  1.4146 -0.7913 -1.8693
  929MOL0     H22623  10.071   2.192  10.813 -2.5638 -0.5560 -0.3420
  929MOL0     H22624   9.847   2.210  10.863  1.0494 -1.0677  1.6527
  929MOL0     H22625   9.881   2.250  11.020 -0.0145 -4.9036 -1.0101
  929MOL0     H22626   9.796   2.613  10.809 -2.1550 -1.5556  0.1348
  929MOL0     H22627  10.547   2.216  10.833 -1.0101  1.0968  0.6193
  929MOL0     H22628  10.796   2.207  10.870  0.4213  1.7757 -1.3530
  930MOL0     O22629   1.578   3.315   3.532  0.0064  0.3551 -0.1569
  930MOL0     C22630   1.636   3.248   3.625  1.3541 -0.4117  0.1092
  930MOL0     O22631   1.570   3.175   3.734 -0.5409 -0.2661 -0.4638
  930MOL0     C22632   1.436   3.173   3.743 -0.8318 -0.8020  0.2075
  930MOL0     C22633   1.365   3.056   3.711  0.2771  0.0968  0.0448
  930MOL0     C22634   1.225   3.052   3.721  0.5824  0.6138 -0.3936
  930MOL0     C22635   1.150   3.163   3.759 -0.4820 -0.2706  0.2747
  930MOL0     O22636   1.013   3.161   3.774 -0.3907  0.0491  0.5438
  930MOL0     C22637   0.947   3.078   3.682  0.1742 -0.0041  0.7470
  930MOL0     C22638   0.798   3.122   3.665  0.2629 -1.1501  0.7433
  930MOL0     C22639   0.792   3.282   3.612  0.9800  0.2857  0.2375
  930MOL0     C22640   0.650   3.348   3.592 -0.5123  0.2911  0.2962
  930MOL0     C22641   0.660   3.475   3.511 -0.2382  0.0164  0.0463
  930MOL0     C22642   0.758   3.573   3.568 -0.0314  0.6631 -0.4486
  930MOL0     C22643   0.772   3.712   3.502  1.2647  0.9189 -0.3451
  930MOL0     C22644   0.883   3.794   3.559  0.1849  1.2180 -0.2393
  930MOL0     N22645   0.857   3.936   3.517 -0.4897  0.8510  0.0497
  930MOL0     C22646   0.858   4.042   3.605 -1.1021  0.9437  1.0105
  930MOL0     C22647   0.816   4.145   3.528 -1.2511  0.6687  0.3672
  930MOL0     C22648   0.792   4.290   3.580 -0.8525 -0.0754  0.0868
  930MOL0     C22649   0.884   4.383   3.500 -0.7398  1.1079  1.1466
  930MOL0     C22650   1.039   4.350   3.514 -0.0771  0.9805  0.1674
  930MOL0     C22651   1.114   4.316   3.378  0.1614 -1.1369  0.1634
  930MOL0     O22652   1.253   4.300   3.395  0.4208  0.0746  0.1413
  930MOL0     C22653   1.329   4.412   3.399 -0.3268 -0.0062  0.4610
  930MOL0     C22654   1.277   4.545   3.403  0.1081 -0.4198 -0.1678
  930MOL0     C22655   1.357   4.655   3.424  0.1181 -0.2641  0.1141
  930MOL0     C22656   1.494   4.638   3.450 -0.1736 -0.2740  0.3072
  930MOL0     C22657   1.573   4.765   3.470  0.4128  0.6684 -0.8563
  930MOL0     O22658   1.700   4.741   3.505 -1.1937 -0.4495  0.3163
  930MOL0     C22659   1.790   4.851   3.539  0.7217 -0.3313 -0.5359
  930MOL0     C22660   1.760   4.990   3.546  0.5123  0.5530  0.0434
  930MOL0     C22661   1.861   5.080   3.586  0.9620  0.2796  0.4914
  930MOL0     C22662   1.990   5.038   3.615  0.3237 -0.1567 -0.9232
  930MOL0     O22663   2.087   5.133   3.635  0.1917  0.7292  0.4224
  930MOL0     C22664   2.226   5.094   3.633 -0.0945  0.5136 -0.2962
  930MOL0     C22665   2.311   5.220   3.632 -1.1359 -0.1318 -0.0895
  930MOL0     C22666   2.464   5.175   3.644 -0.7275  0.9543 -0.0168
  930MOL0     C22667   2.544   5.301   3.684 -1.3813  0.7578  0.0261
  930MOL0     C22668   2.699   5.274   3.694  0.2941  0.1589 -0.6674
  930MOL0     C22669   2.779   5.399   3.714 -0.0027  0.1497 -0.6816
  930MOL0     C22670   2.935   5.382   3.719  0.6949  0.0300  0.3068
  930MOL0     C22671   3.008   5.498   3.786  0.1035  0.6945  0.4363
  930MOL0    Cl22672   2.977   5.476   3.967 -0.2253  0.1810  0.2107
  930MOL0     C22673   2.017   4.898   3.625  0.1081 -0.3804  0.5812
  930MOL0     C22674   1.922   4.811   3.579 -0.4632  0.5487  0.0047
  930MOL0     O22675   1.522   4.874   3.457 -0.2244 -0.0113 -0.4741
  930MOL0     C22676   1.548   4.509   3.449 -0.0301  0.3021  0.0428
  930MOL0     C22677   1.464   4.403   3.420 -0.3871  0.7600  0.1826
  930MOL0     N22678   0.799   4.098   3.395 -0.1780 -0.0542 -0.0854
  930MOL0     N22679   0.833   3.969   3.392  0.4803  0.1489  0.1528
  930MOL0     C22680   1.228   3.271   3.809  0.7473  0.1066 -0.0327
  930MOL0     C22681   1.369   3.280   3.799  0.4231  0.1163 -1.0996
  930MOL0     C22682   1.786   3.275   3.621 -0.2401  1.4199  0.3196
  930MOL0     C22683   1.870   3.214   3.728  0.0369  0.4306  0.6303
  930MOL0     C22684   2.000   3.262   3.750  0.2057  0.4949  0.2385
  930MOL0     C22685   2.052   3.360   3.666  0.7064  0.0424 -0.2070
  930MOL0     O22686   2.185   3.401   3.695 -0.3615  0.1064 -0.4278
  930MOL0     C22687   2.278   3.301   3.742 -0.4788 -0.0999 -0.1397
  930MOL0     C22688   2.415   3.351   3.689  0.5501  0.1254 -0.0671
  930MOL0     C22689   2.519   3.237   3.696  0.0770 -0.2206 -1.0486
  930MOL0     C22690   2.665   3.281   3.638  0.3870  0.4805 -1.0089
  930MOL0     C22691   2.725   3.394   3.713 -0.8664  0.0644  0.6650
  930MOL0     C22692   2.763   3.494   3.768  0.5299  0.2646  0.0305
  930MOL0     C22693   1.983   3.397   3.552  0.7557 -0.6864 -0.4567
  930MOL0     C22694   1.852   3.348   3.523  0.3450  0.2530 -0.3203
  930MOL0     H22695   1.417   2.978   3.657  1.2787  0.8669 -0.1498
  930MOL0     H22696   1.171   2.960   3.701  0.7689  0.6625 -1.1803
  930MOL0     H22697   0.956   2.973   3.710  1.3349  0.7455  3.4518
  930MOL0     H22698   1.005   3.087   3.589 -1.0910  1.3976  0.0376
  930MOL0     H22699   0.736   3.120   3.755 -1.6280  2.3344 -0.2904
  930MOL0     H22700   0.748   3.062   3.588 -1.4470  2.1739 -0.9883
  930MOL0     H22701   0.850   3.279   3.519 -0.3220 -1.9391 -0.5960
  930MOL0     H22702   0.841   3.345   3.686  0.0301  2.2814 -0.7795
  930MOL0     H22703   0.586   3.271   3.548  0.0702 -0.0590  0.0503
  930MOL0     H22704   0.611   3.384   3.688 -0.4999 -0.3657  0.5556
  930MOL0     H22705   0.557   3.512   3.516 -0.3248 -0.3502  1.4924
  930MOL0     H22706   0.689   3.457   3.407  0.5537  1.3462  0.0092
  930MOL0     H22707   0.855   3.524   3.564 -0.0566  0.5295  0.4756
  930MOL0     H22708   0.726   3.602   3.668  1.6928 -0.2471  0.3960
  930MOL0     H22709   0.767   3.699   3.394 -0.0619  1.6564 -0.3849
  930MOL0     H22710   0.684   3.769   3.533  1.9598  3.7811 -3.1121
  930MOL0     H22711   0.976   3.754   3.518  0.8308  1.9500  0.4682
  930MOL0     H22712   0.880   3.780   3.667 -1.2181 -2.4111 -0.6032
  930MOL0     H22713   0.877   4.039   3.712  4.2592 -0.9783  0.3003
  930MOL0     H22714   0.819   4.304   3.685  0.0308  0.9922 -0.2523
  930MOL0     H22715   0.686   4.318   3.580 -0.4614  2.4945  4.8497
  930MOL0     H22716   0.861   4.486   3.529  0.5874  1.4014  1.2288
  930MOL0     H22717   0.860   4.365   3.394  2.5709 -1.8584  0.7013
  930MOL0     H22718   1.087   4.438   3.559 -1.6207  1.0416  1.8181
  930MOL0     H22719   1.054   4.262   3.577 -2.5829 -1.1420 -1.9878
  930MOL0     H22720   1.088   4.380   3.293  2.0547 -0.6599 -0.0987
  930MOL0     H22721   1.074   4.218   3.350 -1.4001 -0.4160 -0.2592
  930MOL0     H22722   1.174   4.579   3.397  0.0384  0.4432  3.5370
  930MOL0     H22723   1.312   4.753   3.432  1.1252  0.3082 -0.9087
  930MOL0     H22724   1.661   5.031   3.528 -1.6621 -4.0788  0.0723
  930MOL0     H22725   1.840   5.186   3.577 -0.2343 -0.0574 -1.1332
  930MOL0     H22726   2.244   5.030   3.546  1.6935  0.0182  0.3861
  930MOL0     H22727   2.233   5.031   3.722 -0.2567 -0.6032 -1.0518
  930MOL0     H22728   2.282   5.288   3.713 -1.0370  1.9743 -1.7387
  930MOL0     H22729   2.299   5.286   3.545  0.0868  0.7450  0.3716
  930MOL0     H22730   2.501   5.135   3.550 -1.2347  2.3673 -0.8536
  930MOL0     H22731   2.475   5.095   3.717 -1.7233  1.0184  0.2196
  930MOL0     H22732   2.528   5.376   3.607 -4.0207  4.0499  3.4265
  930MOL0     H22733   2.510   5.348   3.777 -4.6642 -0.5173 -0.4032
  930MOL0     H22734   2.731   5.228   3.600 -1.0044 -0.9636 -0.5955
  930MOL0     H22735   2.722   5.199   3.770 -0.5815  0.7518  0.2056
  930MOL0     H22736   2.751   5.455   3.803  2.2982  1.4537 -0.7052
  930MOL0     H22737   2.755   5.471   3.635  0.3570  0.5043 -0.4737
  930MOL0     H22738   2.964   5.293   3.777 -0.3044  0.4953  1.5654
  930MOL0     H22739   2.970   5.367   3.617  0.2292 -1.3663  0.3203
  930MOL0     H22740   2.967   5.593   3.749  1.0320  0.8437 -0.2513
  930MOL0     H22741   3.117   5.495   3.778  0.3119 -1.0625  2.9373
  930MOL0     H22742   2.108   4.863   3.672 -0.1706 -0.0487  1.3937
  930MOL0     H22743   1.936   4.704   3.565 -0.1506  0.6618 -0.5823
  930MOL0     H22744   1.653   4.490   3.465  0.1849  1.3421 -0.0426
  930MOL0     H22745   1.517   4.308   3.423 -1.6190 -0.0065 -1.0367
  930MOL0     H22746   1.177   3.352   3.860 -0.7136 -0.2382 -0.8841
  930MOL0     H22747   1.425   3.364   3.840 -0.5920  1.0020 -1.4770
  930MOL0     H22748   1.823   3.152   3.803 -1.0920 -1.7241 -1.7087
  930MOL0     H22749   2.051   3.222   3.837  0.4111  0.7842  0.2551
  930MOL0     H22750   2.260   3.204   3.696  1.9781 -0.5160 -0.3321
  930MOL0     H22751   2.262   3.289   3.850 -2.4036  0.8681 -0.2771
  930MOL0     H22752   2.405   3.375   3.583 -1.9091 -2.5089 -0.5667
  930MOL0     H22753   2.452   3.430   3.756  1.3724 -3.9342  4.9096
  930MOL0     H22754   2.476   3.144   3.656 -3.9621 -0.3378  2.7800
  930MOL0     H22755   2.543   3.201   3.796  3.3819  0.0454 -1.6349
  930MOL0     H22756   2.730   3.193   3.638  0.0899 -0.0279  3.9773
  930MOL0     H22757   2.658   3.309   3.533  2.9264  0.1710 -1.3120
  930MOL0     H22758   2.806   3.583   3.810  0.0342  0.8475 -0.6694
  930MOL0     H22759   2.010   3.482   3.490 -2.6307  1.7610  1.1274
  930MOL0     H22760   1.788   3.376   3.440 -1.9374  2.3203  1.9943
  931MOL0     O22761   8.372   8.098   3.530  0.5196  0.5281  0.2429
  931MOL0     C22762   8.383   8.152   3.639  0.0810  0.7808  0.6866
  931MOL0     O22763   8.292   8.148   3.736 -0.9126  0.3842 -0.7454
  931MOL0     C22764   8.177   8.095   3.718  0.1351  0.6445 -0.0224
  931MOL0     C22765   8.142   7.974   3.777 -0.6324 -0.5398  0.5730
  931MOL0     C22766   8.016   7.916   3.764  0.4255  0.5044  0.2163
  931MOL0     C22767   7.916   7.986   3.692  0.6012 -0.2182 -0.4514
  931MOL0     O22768   7.785   7.938   3.692  0.8633 -0.2968 -0.6003
  931MOL0     C22769   7.683   8.002   3.611 -0.2219 -0.8200 -1.1193
  931MOL0     C22770   7.563   7.909   3.579 -0.4722 -0.4053 -0.2778
  931MOL0     C22771   7.494   7.960   3.449  0.5795 -0.3355  0.8003
  931MOL0     C22772   7.395   8.075   3.471  0.0342 -0.7046 -0.3212
  931MOL0     C22773   7.456   8.213   3.420  0.5016  0.0471 -1.0204
  931MOL0     C22774   7.366   8.333   3.421  0.3191 -0.3722 -0.6907
  931MOL0     C22775   7.380   8.417   3.549  1.2836  0.3357  0.4052
  931MOL0     C22776   7.514   8.497   3.565  0.1771 -0.6307 -0.4921
  931MOL0     N22777   7.522   8.562   3.705  0.0693 -0.0207 -0.3386
  931MOL0     C22778   7.586   8.480   3.803 -0.1997 -0.6022  0.1883
  931MOL0     C22779   7.555   8.540   3.920 -0.5785 -0.5944 -0.8508
  931MOL0     C22780   7.609   8.469   4.046 -0.4513 -0.7590 -0.2452
  931MOL0     C22781   7.479   8.444   4.142 -0.9737  0.4309  0.1003
  931MOL0     C22782   7.529   8.390   4.280 -0.9787  0.0328  0.3050
  931MOL0     C22783   7.422   8.380   4.383  0.2615 -0.5929 -0.4416
  931MOL0     O22784   7.329   8.277   4.347 -0.2528 -0.6801 -0.6456
  931MOL0     C22785   7.225   8.273   4.450 -0.8644 -0.6441 -0.8731
  931MOL0     C22786   7.241   8.253   4.588  0.2298 -0.6181  0.1196
  931MOL0     C22787   7.132   8.236   4.679 -0.6888  0.9786 -0.0746
  931MOL0     C22788   7.004   8.237   4.619 -1.1320  0.0322  0.0998
  931MOL0     C22789   6.887   8.211   4.700  0.2481  0.3757 -0.6302
  931MOL0     O22790   6.907   8.181   4.834  0.4535 -0.6668 -0.7479
  931MOL0     C22791   6.797   8.164   4.916  1.2744 -0.3596 -0.0223
  931MOL0     C22792   6.699   8.270   4.935 -0.6865  0.7078 -0.5843
  931MOL0     C22793   6.594   8.243   5.024 -0.9053  0.2278  0.2044
  931MOL0     C22794   6.575   8.121   5.085 -0.2428  0.0695 -0.3798
  931MOL0     O22795   6.480   8.075   5.171  0.2388 -0.8491  1.1782
  931MOL0     C22796   6.383   8.181   5.200  0.4814  0.1485  0.5778
  931MOL0     C22797   6.270   8.124   5.286  0.2183 -0.5036  0.1192
  931MOL0     C22798   6.207   7.994   5.238 -0.5266  0.3404 -0.1133
  931MOL0     C22799   6.085   7.948   5.324 -0.0690 -0.4862  0.1496
  931MOL0     C22800   5.950   7.984   5.265 -0.2782 -0.4561  0.4564
  931MOL0     C22801   5.827   7.900   5.310  0.0808  0.0642 -0.3086
  931MOL0     C22802   5.793   7.932   5.459  0.4281  1.0157 -0.3458
  931MOL0     C22803   5.649   7.906   5.496 -0.0141 -0.1129 -0.0548
  931MOL0    Cl22804   5.628   7.944   5.665  0.0923  0.2616 -0.0139
  931MOL0     C22805   6.671   8.020   5.065  0.2469 -0.3747 -0.1782
  931MOL0     C22806   6.778   8.034   4.972 -0.3942  0.3021 -0.4053
  931MOL0     O22807   6.783   8.247   4.647  0.2383 -0.3323 -0.2178
  931MOL0     C22808   6.993   8.250   4.472  0.3820 -0.8322  0.4489
  931MOL0     C22809   7.103   8.271   4.398  0.2723 -0.3852  0.1389
  931MOL0     N22810   7.475   8.639   3.901 -0.5961  0.3480  0.5758
  931MOL0     N22811   7.460   8.653   3.772  0.5490 -0.5285  0.0614
  931MOL0     C22812   7.953   8.101   3.628 -0.1367 -0.0268 -0.0505
  931MOL0     C22813   8.075   8.161   3.649  0.0078  0.0623  0.5602
  931MOL0     C22814   8.486   8.250   3.635 -0.5464  0.3482 -0.0106
  931MOL0     C22815   8.581   8.264   3.533  0.0113  0.2974 -0.1494
  931MOL0     C22816   8.673   8.370   3.537 -0.2701 -0.2796 -0.1631
  931MOL0     C22817   8.674   8.471   3.642  0.0075 -0.3784 -0.3321
  931MOL0     O22818   8.766   8.576   3.642  0.9796  0.0121  0.0039
  931MOL0     C22819   8.749   8.687   3.555 -0.1634 -0.1180  0.0213
  931MOL0     C22820   8.657   8.793   3.613  0.9593  0.6206 -0.0951
  931MOL0     C22821   8.701   8.854   3.745  0.2119 -0.2260  0.3725
  931MOL0     C22822   8.606   8.944   3.817  0.7675  0.5304 -0.5697
  931MOL0     C22823   8.478   8.874   3.854 -1.2925 -0.3156 -0.4426
  931MOL0     C22824   8.374   8.830   3.889 -1.1073 -0.3326  0.1938
  931MOL0     C22825   8.593   8.438   3.753 -0.4990  0.6666  0.7019
  931MOL0     C22826   8.500   8.332   3.748  0.3654 -0.2995  0.4421
  931MOL0     H22827   8.220   7.922   3.830  0.8548  1.2711  0.2665
  931MOL0     H22828   7.987   7.828   3.820  4.2940 -0.8126  0.4365
  931MOL0     H22829   7.716   8.036   3.512 -0.3679 -1.4550 -1.3936
  931MOL0     H22830   7.652   8.088   3.670  1.1464 -2.2315  1.8378
  931MOL0     H22831   7.502   7.909   3.670  0.5238 -0.9933  0.4089
  931MOL0     H22832   7.599   7.809   3.551 -0.6029 -0.3249 -0.7414
  931MOL0     H22833   7.429   7.883   3.406 -0.0071  1.6365 -2.1492
  931MOL0     H22834   7.552   7.990   3.361 -1.9354 -3.3291 -2.1494
  931MOL0     H22835   7.306   8.055   3.410  0.2008 -0.9550 -0.4837
  931MOL0     H22836   7.363   8.077   3.576 -0.4222 -3.5900 -0.3236
  931MOL0     H22837   7.462   8.194   3.312  0.6431  2.0055 -1.4103
  931MOL0     H22838   7.555   8.223   3.466  0.7150 -3.4074 -0.5250
  931MOL0     H22839   7.265   8.301   3.396  0.5137 -1.5347 -0.0455
  931MOL0     H22840   7.408   8.396   3.342 -0.2119  0.0668 -0.6255
  931MOL0     H22841   7.303   8.493   3.529  0.2108 -0.5886  0.9025
  931MOL0     H22842   7.344   8.364   3.638 -1.2655  1.9202  0.4113
  931MOL0     H22843   7.509   8.578   3.492 -0.0542 -1.5923 -1.5761
  931MOL0     H22844   7.600   8.435   3.541 -0.6965 -2.1098  0.0614
  931MOL0     H22845   7.634   8.387   3.776 -2.8945 -1.7270 -1.0859
  931MOL0     H22846   7.676   8.546   4.085 -0.9326 -0.2241 -0.4593
  931MOL0     H22847   7.665   8.378   4.024  1.2823 -0.1449  1.3117
  931MOL0     H22848   7.397   8.384   4.101 -0.5371  2.7794 -5.0583
  931MOL0     H22849   7.432   8.541   4.157 -0.0476  0.8396  0.4535
  931MOL0     H22850   7.567   8.289   4.264 -3.7164 -1.0428  0.0530
  931MOL0     H22851   7.609   8.456   4.315 -0.5679  0.7742 -1.8547
  931MOL0     H22852   7.368   8.474   4.398 -1.6476 -1.4071 -1.8616
  931MOL0     H22853   7.480   8.356   4.472  1.1981 -0.3142 -0.9579
  931MOL0     H22854   7.341   8.257   4.629  0.6466  3.4094 -0.8309
  931MOL0     H22855   7.146   8.237   4.786 -2.1788 -0.9786  0.1959
  931MOL0     H22856   6.706   8.365   4.884  0.4467 -0.0502 -1.9244
  931MOL0     H22857   6.519   8.321   5.028 -1.9916 -0.7551 -0.2465
  931MOL0     H22858   6.334   8.228   5.115 -3.1095 -3.0925  0.5803
  931MOL0     H22859   6.436   8.262   5.252 -1.1930  1.0875  0.8848
  931MOL0     H22860   6.199   8.207   5.289  2.0849  1.2236 -0.7234
  931MOL0     H22861   6.312   8.098   5.384 -0.7341 -3.3168 -0.1327
  931MOL0     H22862   6.274   7.907   5.237 -1.6769 -0.6293 -2.5300
  931MOL0     H22863   6.189   8.005   5.131  3.8239 -0.6048 -1.1401
  931MOL0     H22864   6.101   7.839   5.320  3.4013 -0.0750 -0.9402
  931MOL0     H22865   6.090   7.989   5.425 -4.5969  1.3539 -0.1426
  931MOL0     H22866   5.959   7.970   5.157 -1.3702  1.7767  0.0014
  931MOL0     H22867   5.929   8.092   5.266  1.0058 -0.1216 -1.6025
  931MOL0     H22868   5.841   7.794   5.289  4.7031  0.6406 -1.4010
  931MOL0     H22869   5.741   7.933   5.251  0.7573 -0.0420 -1.4045
  931MOL0     H22870   5.851   7.872   5.529 -2.4593 -0.4296  0.9465
  931MOL0     H22871   5.812   8.036   5.488  2.7917  0.7579 -0.7555
  931MOL0     H22872   5.619   7.802   5.480 -0.8027  0.5233 -3.5570
  931MOL0     H22873   5.578   7.965   5.436  1.1955  1.1484 -0.3113
  931MOL0     H22874   6.646   7.923   5.107 -1.1193  1.0733  2.6028
  931MOL0     H22875   6.838   7.947   4.946 -0.7280 -0.5115  1.3911
  931MOL0     H22876   6.893   8.253   4.431  0.0633  1.6889  1.1870
  931MOL0     H22877   7.082   8.307   4.297  0.1924  1.8003  0.8735
  931MOL0     H22878   7.882   8.158   3.569 -0.1853 -0.2725 -0.2315
  931MOL0     H22879   8.091   8.260   3.607  0.6592  1.0071  2.9111
  931MOL0     H22880   8.576   8.209   3.440 -0.6311  1.2707 -0.7068
  931MOL0     H22881   8.752   8.375   3.464  1.2806  0.6509  1.4938
  931MOL0     H22882   8.713   8.648   3.459  0.1476 -0.9990  0.2592
  931MOL0     H22883   8.850   8.726   3.536  0.6932 -0.6766  2.9661
  931MOL0     H22884   8.641   8.870   3.537  1.7788  0.1467 -0.7678
  931MOL0     H22885   8.560   8.745   3.630  3.3358 -3.7154  3.5408
  931MOL0     H22886   8.793   8.914   3.740 -0.7586  1.3672  0.9542
  931MOL0     H22887   8.719   8.767   3.810 -2.2738 -2.4730 -1.7390
  931MOL0     H22888   8.664   8.986   3.901  0.2830 -1.6886  0.9532
  931MOL0     H22889   8.583   9.026   3.748 -0.3660  1.7283  1.1410
  931MOL0     H22890   8.274   8.794   3.897 -1.1862 -1.3767 -3.5285
  931MOL0     H22891   8.602   8.488   3.849  1.3610  0.3272  0.7411
  931MOL0     H22892   8.427   8.306   3.823 -1.1583 -2.5895 -1.6485
  932MOL0     O22893   1.195  10.135   2.442 -0.1864  1.0909 -0.1061
  932MOL0     C22894   1.158  10.238   2.504  1.1416 -0.0286 -0.0360
  932MOL0     O22895   1.228  10.348   2.529  0.6170  0.5786 -0.1529
  932MOL0     C22896   1.362  10.349   2.499 -0.3239 -0.3926  0.3761
  932MOL0     C22897   1.398  10.341   2.361 -0.1249 -0.8494 -0.2314
  932MOL0     C22898   1.542  10.345   2.336  0.6136 -0.4886  0.1542
  932MOL0     C22899   1.638  10.354   2.439  0.2247 -0.3020 -1.0522
  932MOL0     O22900   1.772  10.339   2.424 -0.0777 -0.4644  0.7109
  932MOL0     C22901   1.833  10.331   2.288  0.2680  0.3236  0.2569
  932MOL0     C22902   1.974  10.292   2.293 -0.0440  0.5436  0.3272
  932MOL0     C22903   2.036  10.292   2.157 -0.6544 -0.2583  0.3376
  932MOL0     C22904   2.190  10.270   2.174  0.5350 -0.6649  0.6506
  932MOL0     C22905   2.269  10.288   2.048  0.2341  0.0832  0.1450
  932MOL0     C22906   2.421  10.252   2.073  0.2524  1.0004  0.1605
  932MOL0     C22907   2.525  10.306   1.970  0.3014 -0.3457  0.5790
  932MOL0     C22908   2.678  10.302   2.014  0.9295  0.0128 -0.0408
  932MOL0     N22909   2.767  10.333   1.906 -0.6421 -0.3912 -0.3287
  932MOL0     C22910   2.837  10.450   1.883 -0.1653 -0.5020  0.6933
  932MOL0     C22911   2.897  10.435   1.758  0.1018  0.1770 -0.1029
  932MOL0     C22912   2.987  10.517   1.684 -0.1072  0.4095  0.4330
  932MOL0     C22913   3.135  10.462   1.667  0.1565 -0.7420 -1.2704
  932MOL0     C22914   3.247  10.550   1.733  0.1506 -0.1985 -0.7251
  932MOL0     C22915   3.232  10.559   1.886 -0.6370 -0.7535  0.9481
  932MOL0     O22916   3.267  10.436   1.950  0.3123 -0.8599  0.3798
  932MOL0     C22917   3.170  10.385   2.034 -0.8381 -0.8250  0.0779
  932MOL0     C22918   3.158  10.246   2.052  0.1418 -0.1959 -0.2077
  932MOL0     C22919   3.081  10.192   2.156 -0.7822  0.1272 -0.3036
  932MOL0     C22920   2.988  10.274   2.222  0.3087  1.1388 -0.5036
  932MOL0     C22921   2.902  10.216   2.326  0.0264 -0.6765 -0.1954
  932MOL0     O22922   2.926  10.089   2.366  0.0594  0.0585 -0.0570
  932MOL0     C22923   2.821  10.019   2.416  0.0107 -0.2881  0.3389
  932MOL0     C22924   2.743   9.938   2.339  0.5663 -0.3009  0.5746
  932MOL0     C22925   2.639   9.856   2.399  0.2007 -0.8765 -0.1482
  932MOL0     C22926   2.625   9.857   2.542 -1.1004 -0.4031  0.7698
  932MOL0     O22927   2.530   9.775   2.601 -0.1180  0.1227 -0.4650
  932MOL0     C22928   2.518   9.785   2.747 -0.7676 -0.1129 -0.0128
  932MOL0     C22929   2.442   9.674   2.812 -0.4893 -0.4434  1.1109
  932MOL0     C22930   2.519   9.543   2.799  0.3341  0.5065 -0.3396
  932MOL0     C22931   2.439   9.439   2.878 -0.3241 -0.2043  1.6497
  932MOL0     C22932   2.506   9.307   2.908 -0.6140 -0.2467 -0.3778
  932MOL0     C22933   2.587   9.335   3.041 -0.1622 -0.3048 -0.4050
  932MOL0     C22934   2.619   9.192   3.103  1.1232  0.4211  0.4177
  932MOL0     C22935   2.719   9.209   3.218 -0.4859  0.8825 -0.2292
  932MOL0    Cl22936   2.758   9.046   3.301 -0.0939 -0.3909  0.3305
  932MOL0     C22937   2.708   9.940   2.609 -0.5188 -0.8853  0.1269
  932MOL0     C22938   2.802  10.017   2.543  0.0498 -1.0129 -0.8316
  932MOL0     O22939   2.808  10.287   2.363 -0.0665  0.0606  0.3146
  932MOL0     C22940   3.006  10.410   2.207 -1.0078  0.7667  0.3022
  932MOL0     C22941   3.092  10.465   2.114  0.4383 -0.7015 -0.0427
  932MOL0     N22942   2.843  10.317   1.708 -0.1105 -0.8573  0.0972
  932MOL0     N22943   2.760  10.268   1.795  0.0896  0.0729  0.5845
  932MOL0     C22944   1.590  10.371   2.571  0.3729 -0.6966  0.1276
  932MOL0     C22945   1.455  10.369   2.596 -0.2296 -1.0412 -0.6237
  932MOL0     C22946   1.015  10.236   2.536 -0.9033  0.7329  0.4884
  932MOL0     C22947   0.931  10.126   2.496 -0.3259 -0.8182 -0.3681
  932MOL0     C22948   0.805  10.118   2.535 -0.3320  0.4572  0.2066
  932MOL0     C22949   0.750  10.227   2.610  0.1708  0.1267 -0.1292
  932MOL0     O22950   0.629  10.221   2.668 -0.1263 -0.4702  0.2791
  932MOL0     C22951   0.525  10.281   2.582  0.2400 -0.4179 -1.0667
  932MOL0     C22952   0.389  10.228   2.612 -0.2747  1.3723  0.0664
  932MOL0     C22953   0.373  10.077   2.574 -0.9005 -0.2895 -0.3006
  932MOL0     C22954   0.247  10.012   2.625 -0.3622 -1.0486 -0.2832
  932MOL0     C22955   0.125  10.043   2.552 -0.2108 -0.1238  0.1388
  932MOL0     C22956   0.042  10.071   2.462  0.2609 -0.1345 -0.0431
  932MOL0     C22957   0.830  10.337   2.640 -0.2130  0.1860  0.2727
  932MOL0     C22958   0.963  10.343   2.604 -0.9663  0.7778  0.1113
  932MOL0     H22959   1.315  10.323   2.293 -0.2697  1.5782 -0.7903
  932MOL0     H22960   1.564  10.337   2.230  0.0091 -0.6793  0.0412
  932MOL0     H22961   1.836  10.430   2.243  2.3329  1.2156  2.1846
  932MOL0     H22962   1.779  10.250   2.238  1.7228 -1.9562  2.1487
  932MOL0     H22963   1.978  10.197   2.347 -0.2931  0.7117  0.6483
  932MOL0     H22964   2.023  10.364   2.359 -0.4507 -0.3804  1.6728
  932MOL0     H22965   2.021  10.386   2.104  0.7761 -0.0490  0.2430
  932MOL0     H22966   1.996  10.211   2.096  0.1053  1.5295 -2.7735
  932MOL0     H22967   2.228  10.344   2.244  1.2715 -0.4981  0.0832
  932MOL0     H22968   2.217  10.171   2.214  0.8181 -1.7039 -1.9256
  932MOL0     H22969   2.267  10.391   2.012  2.2122 -0.4715 -1.7613
  932MOL0     H22970   2.218  10.240   1.963 -0.8290  2.0426 -0.4055
  932MOL0     H22971   2.435  10.144   2.063  0.4259  0.7565  2.6064
  932MOL0     H22972   2.447  10.290   2.171 -1.9216  2.4583  0.2352
  932MOL0     H22973   2.514  10.257   1.874  1.2589 -2.6976  1.5934
  932MOL0     H22974   2.501  10.413   1.964  1.9757  0.0319 -0.0276
  932MOL0     H22975   2.706  10.205   2.055  0.7386 -0.7113 -1.5638
  932MOL0     H22976   2.678  10.368   2.102 -0.8691 -0.6999  0.5312
  932MOL0     H22977   2.858  10.539   1.941  6.6146 -2.5056  2.2965
  932MOL0     H22978   2.990  10.616   1.731  0.8096  0.7873 -0.3663
  932MOL0     H22979   2.946  10.531   1.584  0.7530 -2.9207 -0.5040
  932MOL0     H22980   3.162  10.453   1.561  0.6342 -1.8280 -1.0740
  932MOL0     H22981   3.159  10.362   1.706  3.2590 -0.0565 -1.1986
  932MOL0     H22982   3.342  10.499   1.717 -0.3895 -1.9809  1.3709
  932MOL0     H22983   3.247  10.656   1.705  2.0106  0.8373  2.6927
  932MOL0     H22984   3.137  10.599   1.923  0.6421  0.7498  2.7648
  932MOL0     H22985   3.306  10.634   1.915 -0.6373 -0.1397 -0.5232
  932MOL0     H22986   3.208  10.176   1.986  2.2194  1.0029 -0.0014
  932MOL0     H22987   3.071  10.084   2.166 -3.1678  0.2116 -1.1275
  932MOL0     H22988   2.764   9.931   2.232 -1.1610 -0.1771  0.1899
  932MOL0     H22989   2.576   9.788   2.343  1.2978 -1.1501 -1.1020
  932MOL0     H22990   2.470   9.883   2.763  0.7237  1.1350 -2.5500
  932MOL0     H22991   2.611   9.789   2.805  1.8246  3.4280 -3.8401
  932MOL0     H22992   2.348   9.660   2.758 -0.9326  1.2448  1.4050
  932MOL0     H22993   2.425   9.706   2.915 -2.0428  0.2179  0.6629
  932MOL0     H22994   2.608   9.552   2.863  0.7027  0.7934 -0.8857
  932MOL0     H22995   2.548   9.525   2.695  1.6558  4.3991 -0.8090
  932MOL0     H22996   2.391   9.476   2.969 -2.6253  2.8535 -0.5614
  932MOL0     H22997   2.360   9.417   2.806 -1.2372  1.8941  1.9355
  932MOL0     H22998   2.574   9.282   2.826 -2.1481  1.7176 -2.3778
  932MOL0     H22999   2.428   9.230   2.916 -1.7865  1.0226  0.8108
  932MOL0     H23000   2.533   9.389   3.118 -1.2994 -1.5143 -0.3114
  932MOL0     H23001   2.681   9.374   3.001  0.3213 -3.2453 -2.5550
  932MOL0     H23002   2.525   9.148   3.137  2.1236 -2.5834 -0.3677
  932MOL0     H23003   2.654   9.131   3.020 -2.9827  0.1243 -1.3301
  932MOL0     H23004   2.695   9.277   3.300 -0.1195  1.1022 -0.3024
  932MOL0     H23005   2.809   9.249   3.171 -0.4227  1.4072  0.3261
  932MOL0     H23006   2.696   9.949   2.717  0.2150 -0.8195  0.2067
  932MOL0     H23007   2.870  10.079   2.600 -0.1249  1.7849 -3.3979
  932MOL0     H23008   2.955  10.459   2.290  1.5488  2.2234  1.1015
  932MOL0     H23009   3.094  10.573   2.103  2.5517 -0.7174 -0.3941
  932MOL0     H23010   1.665  10.396   2.645 -2.5322  3.6909  2.0821
  932MOL0     H23011   1.423  10.384   2.698 -0.4086 -1.1647 -0.6615
  932MOL0     H23012   0.959  10.035   2.445  3.6760 -1.3313  2.3180
  932MOL0     H23013   0.735  10.040   2.507 -2.1673  2.5749 -1.5253
  932MOL0     H23014   0.549  10.268   2.476  1.1426 -0.2495 -0.8918
  932MOL0     H23015   0.532  10.388   2.607  1.8424 -0.6834 -0.2679
  932MOL0     H23016   0.361  10.239   2.717  1.7424  1.4794  0.6359
  932MOL0     H23017   0.325  10.288   2.545  1.0108  2.9161  0.1626
  932MOL0     H23018   0.446  10.016   2.628 -2.0997 -3.1582 -1.7020
  932MOL0     H23019   0.383  10.052   2.468 -0.6856 -2.3336  0.1552
  932MOL0     H23020   0.275   9.907   2.623  3.7845 -0.1040 -1.0789
  932MOL0     H23021   0.224  10.043   2.727 -0.1292  2.7629 -1.2044
  932MOL0     H23022  -0.046  10.088   2.404 -0.2151 -4.1152 -0.7896
  932MOL0     H23023   0.797  10.420   2.702  2.7982  0.3225  1.8506
  932MOL0     H23024   1.025  10.430   2.624 -1.1847  0.6405  1.5064
  933MOL0     O23025  11.133  10.151   8.019 -0.1811  0.3037 -0.6120
  933MOL0     C23026  11.095  10.107   8.131  0.5140 -0.4040  1.0312
  933MOL0     O23027  10.957  10.079   8.169 -0.5722 -0.1726 -0.8403
  933MOL0     C23028  10.873  10.098   8.066 -0.2106  0.8469  1.2830
  933MOL0     C23029  10.869  10.215   7.990  0.1712  1.0466  0.3526
  933MOL0     C23030  10.771  10.242   7.884  0.7232 -0.2097 -0.5439
  933MOL0     C23031  10.671  10.139   7.864  0.0381 -0.5342 -0.7903
  933MOL0     O23032  10.587  10.155   7.755  0.4537  0.0194 -0.1001
  933MOL0     C23033  10.512  10.277   7.745 -0.1454  0.1031 -0.0736
  933MOL0     C23034  10.410  10.292   7.862 -0.3828  0.1032 -0.0760
  933MOL0     C23035  10.301  10.183   7.881 -0.5375  0.4298 -0.4819
  933MOL0     C23036  10.179  10.242   7.954  0.2250 -0.4874 -0.6180
  933MOL0     C23037  10.057  10.155   7.942  0.0734  0.5238  0.2985
  933MOL0     C23038   9.985  10.182   7.805 -0.4512  0.2609 -0.3712
  933MOL0     C23039   9.844  10.127   7.797  0.4861  0.3554  0.3613
  933MOL0     C23040   9.831   9.976   7.816  0.2627 -0.2187 -0.6687
  933MOL0     N23041   9.689   9.942   7.848 -0.8128  0.2073  0.0864
  933MOL0     C23042   9.590   9.908   7.758 -0.7359 -0.8397 -0.1224
  933MOL0     C23043   9.502   9.844   7.841  0.8068 -0.3005  0.8838
  933MOL0     C23044   9.374   9.795   7.801  0.2448  0.6401  0.5118
  933MOL0     C23045   9.255   9.821   7.890 -0.1953  0.5752 -0.9918
  933MOL0     C23046   9.276   9.732   8.023 -0.0169  0.6143  0.2649
  933MOL0     C23047   9.303   9.793   8.170  0.7691 -0.2445  1.7403
  933MOL0     O23048   9.179   9.788   8.232 -0.2176  0.2827 -0.4295
  933MOL0     C23049   9.156   9.885   8.328  0.0008  0.2812 -0.8259
  933MOL0     C23050   9.257   9.950   8.402 -0.3839  0.4558  0.2109
  933MOL0     C23051   9.228  10.015   8.522  0.1967 -0.6140  0.1532
  933MOL0     C23052   9.091  10.036   8.564  1.0092 -0.8026 -0.5908
  933MOL0     C23053   9.060  10.116   8.688 -0.7295  0.5110 -0.1102
  933MOL0     O23054   8.928  10.132   8.716  0.4254 -0.1198  0.2090
  933MOL0     C23055   8.888  10.186   8.836 -0.6213  0.1118  0.1356
  933MOL0     C23056   8.787  10.113   8.891  0.1301 -0.5816 -0.2832
  933MOL0     C23057   8.746  10.155   9.019 -0.1395 -0.4497 -0.0912
  933MOL0     C23058   8.810  10.265   9.093 -0.4662 -0.1816  0.2790
  933MOL0     O23059   8.758  10.308   9.214 -0.4172  0.3160 -1.5139
  933MOL0     C23060   8.829  10.405   9.286 -0.3363 -0.3415 -0.4601
  933MOL0     C23061   8.738  10.451   9.398  0.1188 -0.4497 -0.5400
  933MOL0     C23062   8.600  10.507   9.360 -0.5963  0.5543  1.2922
  933MOL0     C23063   8.530  10.569   9.475 -0.7690 -0.2053 -0.2137
  933MOL0     C23064   8.437  10.683   9.438 -0.2029  0.4134 -0.2049
  933MOL0     C23065   8.321  10.627   9.354 -0.3929 -0.0786  0.3085
  933MOL0     C23066   8.230  10.736   9.308 -0.0735 -0.6026 -0.3361
  933MOL0     C23067   8.148  10.698   9.180 -1.0238 -0.9451  0.0806
  933MOL0    Cl23068   8.028  10.574   9.227 -0.2073  0.1263  0.4082
  933MOL0     C23069   8.912  10.331   9.030  0.0481 -0.4129  0.0509
  933MOL0     C23070   8.952  10.297   8.903 -0.6625  0.9618 -0.8054
  933MOL0     O23071   9.153  10.166   8.744 -0.4106 -0.0818 -0.6442
  933MOL0     C23072   8.991   9.980   8.479 -0.3176  0.5553  0.4136
  933MOL0     C23073   9.028   9.906   8.367  0.1322  1.0630 -0.3871
  933MOL0     N23074   9.551   9.841   7.974 -0.0732  0.5103  0.1146
  933MOL0     N23075   9.663   9.904   7.974 -0.2710  0.8813  0.2486
  933MOL0     C23076  10.683  10.020   7.932  0.2743 -0.7002 -0.2163
  933MOL0     C23077  10.769  10.000   8.046 -0.9504  0.1880 -0.0061
  933MOL0     C23078  11.201  10.089   8.233 -0.6360 -1.2997 -0.4718
  933MOL0     C23079  11.157  10.091   8.370 -1.6357 -1.0687  0.6983
  933MOL0     C23080  11.250  10.046   8.469 -0.3077  0.1901  0.6367
  933MOL0     C23081  11.376  10.000   8.440 -0.6427 -0.4066  0.6995
  933MOL0     O23082  11.454   9.955   8.550  0.7083 -0.6890  0.3483
  933MOL0     C23083  11.580   9.888   8.524  0.4863 -0.2058  0.3622
  933MOL0     C23084  11.647   9.859   8.657 -0.3042  0.0994 -0.2163
  933MOL0     C23085  11.695   9.993   8.718  0.3002 -0.2013 -0.8904
  933MOL0     C23086  11.744   9.965   8.858  0.3980 -0.8454  0.5392
  933MOL0     C23087  11.760  10.096   8.928  0.5348 -0.3573 -0.8676
  933MOL0     C23088  11.778  10.202   8.982 -0.2667  0.4867  0.3107
  933MOL0     C23089  11.424  10.009   8.315  0.3602  0.2177  0.3236
  933MOL0     C23090  11.340  10.054   8.211  0.1869  0.2828 -0.3047
  933MOL0     H23091  10.947  10.290   8.003  1.5489 -0.0204 -1.2822
  933MOL0     H23092  10.777  10.341   7.839  0.9218  0.0829  0.1142
  933MOL0     H23093  10.457  10.279   7.651 -0.0493  0.2087 -0.1271
  933MOL0     H23094  10.570  10.370   7.751 -2.2307  2.0492 -5.1641
  933MOL0     H23095  10.371  10.394   7.856  2.1849  1.1642  0.0661
  933MOL0     H23096  10.466  10.294   7.956 -2.0350  0.1581  0.9585
  933MOL0     H23097  10.346  10.096   7.928  3.9244  3.0963  0.8539
  933MOL0     H23098  10.271  10.149   7.781  4.4943 -0.1216 -2.1115
  933MOL0     H23099  10.207  10.244   8.059 -2.3821  1.3019  0.1409
  933MOL0     H23100  10.159  10.348   7.935  2.0063  0.2882  1.4681
  933MOL0     H23101   9.984  10.176   8.022  0.9884  0.7694  1.0923
  933MOL0     H23102  10.088  10.051   7.958 -1.0527  0.2201  0.6226
  933MOL0     H23103  10.046  10.144   7.722 -2.2763  0.2035 -1.7499
  933MOL0     H23104   9.958  10.287   7.788 -2.3625 -0.3801 -1.6805
  933MOL0     H23105   9.772  10.175   7.864 -0.3828 -1.0814  0.5049
  933MOL0     H23106   9.807  10.146   7.696  0.2010  1.8913  0.7314
  933MOL0     H23107   9.890   9.939   7.900 -0.7033 -2.9481 -1.0737
  933MOL0     H23108   9.882   9.928   7.731  2.8130  1.4217 -0.1746
  933MOL0     H23109   9.585   9.912   7.650 -0.0412 -0.8670 -0.1628
  933MOL0     H23110   9.381   9.691   7.768  1.2769  1.3519 -1.7278
  933MOL0     H23111   9.357   9.843   7.704 -1.1989 -1.6626 -0.4779
  933MOL0     H23112   9.164   9.783   7.843 -1.0739 -1.7840  2.2883
  933MOL0     H23113   9.244   9.927   7.917  1.4812  0.4403  0.4310
  933MOL0     H23114   9.198   9.656   8.036 -1.3419  1.5796 -1.5687
  933MOL0     H23115   9.360   9.666   7.999  2.3619  2.5859  2.5174
  933MOL0     H23116   9.320   9.900   8.153 -0.8822 -0.4564 -2.4886
  933MOL0     H23117   9.376   9.731   8.222  2.5384 -0.3956 -0.7451
  933MOL0     H23118   9.361   9.949   8.373 -1.1862 -0.8040 -3.0543
  933MOL0     H23119   9.319  10.044   8.573 -0.1952  2.3475 -0.6616
  933MOL0     H23120   8.754  10.030   8.829 -0.3510  0.8835 -2.0996
  933MOL0     H23121   8.677  10.092   9.074  0.5704 -0.3033  1.0083
  933MOL0     H23122   8.855  10.496   9.231  0.7988 -1.0242 -1.1147
  933MOL0     H23123   8.921  10.363   9.328 -0.8300  1.7270  3.0261
  933MOL0     H23124   8.799  10.526   9.449  0.4100 -1.3042  0.4022
  933MOL0     H23125   8.711  10.371   9.467  0.7351  1.2598  1.7944
  933MOL0     H23126   8.531  10.429   9.325 -2.6340  2.5686  0.5488
  933MOL0     H23127   8.599  10.585   9.284 -1.2176 -1.1458 -0.5375
  933MOL0     H23128   8.472  10.495   9.530 -1.4806  0.4011 -0.1316
  933MOL0     H23129   8.605  10.611   9.542  0.3751 -1.9203 -0.3810
  933MOL0     H23130   8.490  10.757   9.378  1.9660 -0.4952  0.4748
  933MOL0     H23131   8.415  10.726   9.535 -0.3242 -0.7984  0.3254
  933MOL0     H23132   8.261  10.551   9.404 -0.6739  1.0540  1.7873
  933MOL0     H23133   8.371  10.586   9.266 -0.3955  0.1303  0.2078
  933MOL0     H23134   8.169  10.749   9.398  2.4539 -1.1876  1.5945
  933MOL0     H23135   8.281  10.828   9.281 -0.1209  0.0116  1.5223
  933MOL0     H23136   8.223  10.666   9.107  0.9153 -1.0148  2.0133
  933MOL0     H23137   8.099  10.787   9.138  1.9078  0.6597 -0.2172
  933MOL0     H23138   8.960  10.415   9.079  1.1209 -1.8352  1.5442
  933MOL0     H23139   9.020  10.356   8.843  0.4977 -0.5564 -1.0308
  933MOL0     H23140   8.886   9.995   8.500  0.2267  3.3796  1.6475
  933MOL0     H23141   8.958   9.846   8.309  0.6096  3.2164 -3.4596
  933MOL0     H23142  10.602   9.952   7.908  0.6657 -0.8491 -1.1480
  933MOL0     H23143  10.769   9.904   8.096  2.1060 -0.6789 -1.4790
  933MOL0     H23144  11.056  10.117   8.398 -1.7760 -2.8202  2.0071
  933MOL0     H23145  11.206  10.034   8.567 -1.1655  0.4676  0.3004
  933MOL0     H23146  11.641   9.943   8.452 -0.8757  2.0594  0.8319
  933MOL0     H23147  11.556   9.791   8.479 -0.2535 -1.5694  3.4627
  933MOL0     H23148  11.578   9.805   8.722  0.1250  0.5074  0.5971
  933MOL0     H23149  11.740   9.807   8.633  0.6169  1.2740  0.6521
  933MOL0     H23150  11.608  10.058   8.735  2.0089  1.3374  3.2012
  933MOL0     H23151  11.760  10.053   8.654  0.9372  1.4175  1.1626
  933MOL0     H23152  11.665   9.910   8.911 -0.1543  0.2271  0.8569
  933MOL0     H23153  11.835   9.904   8.856  1.1230  0.2319 -1.5726
  933MOL0     H23154  11.790  10.299   9.027  1.2056 -1.1894  3.9750
  933MOL0     H23155  11.524   9.973   8.292  0.5593  1.4679 -0.8728
  933MOL0     H23156  11.385  10.060   8.112  0.2920 -0.7675 -0.3298
  934MOL0     O23157   6.864   1.122   8.697 -0.4094  0.5022  0.7333
  934MOL0     C23158   6.979   1.096   8.644  1.2597 -1.0894  0.4359
  934MOL0     O23159   7.035   1.167   8.542 -0.4870  0.1888  0.1405
  934MOL0     C23160   6.963   1.255   8.456  0.5122 -0.5499 -0.4303
  934MOL0     C23161   7.037   1.335   8.375 -0.1919 -0.4274  0.7257
  934MOL0     C23162   6.982   1.432   8.280 -0.1707  0.2338  0.4647
  934MOL0     C23163   6.852   1.467   8.283 -0.7950 -0.6969  0.2700
  934MOL0     O23164   6.822   1.582   8.203  0.2148  0.6212 -1.0816
  934MOL0     C23165   6.681   1.596   8.164  0.1197  1.4990  0.7139
  934MOL0     C23166   6.608   1.675   8.266  0.0435 -0.1126  0.7433
  934MOL0     C23167   6.463   1.676   8.215 -0.2051  0.9446  0.3989
  934MOL0     C23168   6.400   1.806   8.263  0.0399 -0.4388  0.2495
  934MOL0     C23169   6.257   1.823   8.203 -0.7237 -0.4385  0.8171
  934MOL0     C23170   6.185   1.945   8.264 -0.9792 -0.2610 -0.3055
  934MOL0     C23171   6.256   2.078   8.230 -0.1775 -0.3681 -0.0339
  934MOL0     C23172   6.202   2.192   8.313 -0.6880 -0.9221 -0.0476
  934MOL0     N23173   6.057   2.196   8.302  0.3896  0.6066 -0.2284
  934MOL0     C23174   5.989   2.227   8.189 -0.5238 -0.0218  0.1164
  934MOL0     C23175   5.861   2.225   8.224 -0.0093  0.5058 -0.5811
  934MOL0     C23176   5.749   2.275   8.140 -0.2672  0.2825 -0.8192
  934MOL0     C23177   5.657   2.160   8.091 -0.2345  0.8245  0.5280
  934MOL0     C23178   5.593   2.074   8.211  0.3316 -0.4289 -0.8686
  934MOL0     C23179   5.490   1.974   8.157 -0.7812  0.3580 -0.3435
  934MOL0     O23180   5.384   2.043   8.096  0.4336 -0.0777 -0.1170
  934MOL0     C23181   5.292   2.117   8.168  0.4203  0.9358  0.1889
  934MOL0     C23182   5.271   2.113   8.310  0.3074  0.2107  1.2437
  934MOL0     C23183   5.185   2.204   8.374 -0.3342  0.3511 -0.1001
  934MOL0     C23184   5.096   2.283   8.301  0.0587  0.1377 -0.2049
  934MOL0     C23185   4.996   2.372   8.368 -0.5050  0.6925 -0.6155
  934MOL0     O23186   4.966   2.346   8.498  0.6687  0.1030  0.2698
  934MOL0     C23187   4.874   2.431   8.553 -0.9760  0.5855 -0.7535
  934MOL0     C23188   4.921   2.536   8.630  0.4557  0.5335  1.0346
  934MOL0     C23189   4.837   2.615   8.695 -0.1925  0.6394 -0.4508
  934MOL0     C23190   4.697   2.598   8.683  0.2635 -0.3224  0.0320
  934MOL0     O23191   4.606   2.662   8.772 -0.1916  0.0079  0.1345
  934MOL0     C23192   4.648   2.773   8.849 -0.2257 -0.0484  1.5813
  934MOL0     C23193   4.543   2.839   8.939  0.1053 -0.5074  0.3909
  934MOL0     C23194   4.411   2.886   8.874  0.5985  0.3834 -0.2055
  934MOL0     C23195   4.330   2.969   8.979  0.1599 -0.1028  0.2574
  934MOL0     C23196   4.203   3.024   8.912  0.1032 -0.4258 -0.1307
  934MOL0     C23197   4.094   3.089   8.999  0.6052  0.1391  0.3280
  934MOL0     C23198   4.024   2.960   9.059 -0.7147 -0.3000  0.7332
  934MOL0     C23199   3.890   3.001   9.124  0.1101 -0.1139  0.1150
  934MOL0    Cl23200   3.912   3.128   9.265  0.3968  0.2520 -0.3573
  934MOL0     C23201   4.641   2.492   8.612  0.8037 -0.1012 -0.1034
  934MOL0     C23202   4.740   2.403   8.544  0.0177  0.9920  0.5398
  934MOL0     O23203   4.943   2.461   8.297 -0.5182  0.1247  0.3524
  934MOL0     C23204   5.121   2.290   8.168  0.5957 -0.0191  0.3862
  934MOL0     C23205   5.202   2.202   8.092 -0.1388  0.8002 -0.3124
  934MOL0     N23206   5.853   2.202   8.368  0.1587 -0.6653  1.2968
  934MOL0     N23207   5.975   2.193   8.413 -0.0103  0.2640  0.6333
  934MOL0     C23208   6.770   1.385   8.360  0.2629 -0.1240 -0.3629
  934MOL0     C23209   6.823   1.280   8.440  0.0657  0.5739 -0.0359
  934MOL0     C23210   7.046   0.978   8.702 -0.0062 -0.2043 -0.9095
  934MOL0     C23211   6.977   0.879   8.789 -0.8527 -0.7955 -0.1464
  934MOL0     C23212   7.057   0.775   8.845 -0.1078  0.7494  0.4912
  934MOL0     C23213   7.196   0.767   8.815  0.2924  0.0309  0.3536
  934MOL0     O23214   7.278   0.672   8.864  0.2479 -0.3533 -0.5479
  934MOL0     C23215   7.244   0.571   8.954 -0.4060 -0.2973  0.0750
  934MOL0     C23216   7.368   0.481   8.982  0.1538  0.0368 -0.0081
  934MOL0     C23217   7.414   0.415   8.850  1.1761  0.9877  0.8516
  934MOL0     C23218   7.542   0.340   8.861 -0.1296 -0.0509  0.0380
  934MOL0     C23219   7.567   0.259   8.747  0.6412  0.3380 -0.7337
  934MOL0     C23220   7.588   0.180   8.655  0.0559  0.2509 -0.3021
  934MOL0     C23221   7.252   0.851   8.725  0.7919  0.0386  1.0160
  934MOL0     C23222   7.177   0.955   8.675 -0.3842 -0.1179 -0.8927
  934MOL0     H23223   7.142   1.317   8.353 -0.1483 -0.2668  0.7992
  934MOL0     H23224   7.057   1.486   8.223  2.5325 -1.4400  2.2113
  934MOL0     H23225   6.634   1.498   8.153 -2.2320  2.7332 -0.9811
  934MOL0     H23226   6.681   1.649   8.068 -0.7699 -1.0735 -0.8222
  934MOL0     H23227   6.653   1.775   8.260 -1.1373  0.3576 -1.2211
  934MOL0     H23228   6.619   1.638   8.369  0.5493  0.7603  1.0163
  934MOL0     H23229   6.409   1.585   8.241  0.0711  0.4408 -0.7583
  934MOL0     H23230   6.483   1.683   8.108  1.6179 -2.5127  0.3842
  934MOL0     H23231   6.395   1.798   8.372  2.3257 -2.4517  0.2924
  934MOL0     H23232   6.454   1.898   8.238 -0.9036  0.5572  1.7257
  934MOL0     H23233   6.199   1.730   8.209 -1.9653  0.2674  0.1803
  934MOL0     H23234   6.263   1.835   8.095  2.2826 -1.1209  0.8192
  934MOL0     H23235   6.183   1.935   8.373 -2.4662  0.2703 -0.2701
  934MOL0     H23236   6.080   1.942   8.234 -1.2863 -1.1061  0.7796
  934MOL0     H23237   6.363   2.078   8.252 -0.4748  1.8893  1.6982
  934MOL0     H23238   6.254   2.103   8.123 -0.4698  2.3971  0.5430
  934MOL0     H23239   6.253   2.278   8.267 -1.1176 -1.2176 -1.0984
  934MOL0     H23240   6.218   2.202   8.421 -2.3659  3.7095  0.0052
  934MOL0     H23241   6.031   2.260   8.094  0.6078  1.7739  1.1904
  934MOL0     H23242   5.782   2.335   8.055  0.6257 -0.4681 -1.0161
  934MOL0     H23243   5.690   2.342   8.203  3.4144  2.5210  0.5614
  934MOL0     H23244   5.713   2.098   8.020 -1.1337  3.0989 -2.3738
  934MOL0     H23245   5.585   2.208   8.025 -1.0905 -2.1541 -0.9080
  934MOL0     H23246   5.671   2.015   8.260  0.4075 -0.8775 -1.5129
  934MOL0     H23247   5.527   2.125   8.282 -1.1700 -3.1529 -0.1791
  934MOL0     H23248   5.447   1.914   8.238  1.1261 -1.6932 -0.7405
  934MOL0     H23249   5.539   1.907   8.085 -1.1553  0.0108 -0.2840
  934MOL0     H23250   5.328   2.055   8.382 -0.5109 -2.4508 -0.0985
  934MOL0     H23251   5.168   2.201   8.482  2.5913  0.6965  0.4596
  934MOL0     H23252   5.029   2.542   8.636  0.8317 -3.9135  1.9177
  934MOL0     H23253   4.882   2.679   8.770  0.1673 -1.1938  0.9823
  934MOL0     H23254   4.679   2.845   8.773  1.4522 -1.4412  0.8661
  934MOL0     H23255   4.733   2.750   8.915 -0.2072 -0.2211  1.4976
  934MOL0     H23256   4.597   2.921   8.986 -1.4974 -0.7751  2.8627
  934MOL0     H23257   4.521   2.760   9.011  2.2212 -0.6610  0.9465
  934MOL0     H23258   4.362   2.793   8.844  2.0246 -0.2991 -0.5205
  934MOL0     H23259   4.424   2.948   8.784  1.1541 -1.9487 -1.8261
  934MOL0     H23260   4.311   2.892   9.054  0.3043 -1.1153 -0.7042
  934MOL0     H23261   4.386   3.047   9.031 -0.5327  1.7598 -1.6514
  934MOL0     H23262   4.166   2.947   8.844  1.0175 -0.3088 -0.7749
  934MOL0     H23263   4.248   3.102   8.850  2.7159 -1.7953 -0.1319
  934MOL0     H23264   4.018   3.139   8.938 -1.3331 -1.3495  1.3992
  934MOL0     H23265   4.137   3.153   9.076 -0.9513 -1.8891  3.0882
  934MOL0     H23266   4.005   2.877   8.991  0.8858  0.4845 -0.7610
  934MOL0     H23267   4.083   2.927   9.144 -2.0747  1.1409  2.3147
  934MOL0     H23268   3.861   2.906   9.169  1.1495 -1.6216 -2.1764
  934MOL0     H23269   3.817   3.023   9.046  0.1009  0.5844  0.3154
  934MOL0     H23270   4.536   2.467   8.610  0.2088  2.1613 -0.4029
  934MOL0     H23271   4.704   2.316   8.490  0.8018  0.8251  0.2625
  934MOL0     H23272   5.069   2.362   8.105  2.4880  0.6639 -0.5022
  934MOL0     H23273   5.203   2.216   7.984 -1.2970 -2.5489 -0.8644
  934MOL0     H23274   6.662   1.392   8.363 -0.0296 -3.0861  2.4841
  934MOL0     H23275   6.756   1.229   8.509  0.5963  0.4922  0.4323
  934MOL0     H23276   6.872   0.889   8.813 -1.3088 -2.9542 -1.0321
  934MOL0     H23277   6.992   0.722   8.914  1.0548  3.0177  3.5670
  934MOL0     H23278   7.168   0.508   8.907 -0.6498  0.8561 -1.1122
  934MOL0     H23279   7.210   0.611   9.050  1.7733  0.5491  0.5416
  934MOL0     H23280   7.444   0.539   9.036  0.1973  0.5187 -0.5719
  934MOL0     H23281   7.328   0.409   9.053 -0.6236 -0.7846 -1.2485
  934MOL0     H23282   7.419   0.484   8.766  1.0855 -0.2019 -0.1572
  934MOL0     H23283   7.338   0.340   8.825  0.5153  1.4817  1.3396
  934MOL0     H23284   7.618   0.417   8.882 -1.3304  1.8714 -2.1316
  934MOL0     H23285   7.547   0.279   8.952  2.8932 -1.6122 -1.0312
  934MOL0     H23286   7.592   0.134   8.559 -1.7600  0.1256 -0.3643
  934MOL0     H23287   7.349   0.823   8.684  0.7558  0.2792  0.7621
  934MOL0     H23288   7.224   1.022   8.604 -0.3066  2.1749  1.1538
  935MOL0     O23289   2.023  10.803   3.099 -1.2194 -0.0452 -0.3754
  935MOL0     C23290   2.049  10.686   3.106 -0.7330  0.6254  0.3347
  935MOL0     O23291   1.955  10.586   3.107  0.2941  0.0198 -0.0350
  935MOL0     C23292   1.825  10.605   3.068 -0.2759  0.6316  0.0643
  935MOL0     C23293   1.754  10.721   3.051  0.3899 -0.5258  1.0170
  935MOL0     C23294   1.616  10.722   3.017 -0.0314 -0.0211 -0.3878
  935MOL0     C23295   1.549  10.606   3.002 -0.3067  0.6497  0.2224
  935MOL0     O23296   1.411  10.597   2.986  1.7015 -0.0099  0.1066
  935MOL0     C23297   1.338  10.675   3.086  0.4329  0.3222  0.0901
  935MOL0     C23298   1.195  10.633   3.097 -0.5562 -0.5402 -0.8665
  935MOL0     C23299   1.106  10.682   2.979 -0.0250  0.6263  0.0149
  935MOL0     C23300   0.968  10.615   2.988 -0.3091 -0.4675  0.3587
  935MOL0     C23301   0.871  10.683   2.891 -0.3647 -0.5197 -0.5141
  935MOL0     C23302   0.732  10.629   2.916  0.1735 -0.3792 -0.2268
  935MOL0     C23303   0.639  10.695   2.819  0.8293  0.3805 -0.1954
  935MOL0     C23304   0.493  10.654   2.832 -0.7705 -0.7771 -0.0566
  935MOL0     N23305   0.442  10.726   2.950 -0.5263  0.0546 -0.9254
  935MOL0     C23306   0.390  10.855   2.948 -0.5871  0.1210  0.0821
  935MOL0     C23307   0.321  10.869   3.062  0.8241  0.9410 -0.2312
  935MOL0     C23308   0.257  10.989   3.116  0.9301 -0.0603 -0.3810
  935MOL0     C23309   0.120  10.963   3.188 -0.4705 -0.1855  0.2678
  935MOL0     C23310   0.043  11.096   3.214  0.0678  0.0537  0.8102
  935MOL0     C23311  -0.116  11.081   3.222 -0.7968 -0.1942  0.2496
  935MOL0     O23312  -0.166  11.196   3.284  0.2238  0.1819 -0.1121
  935MOL0     C23313  -0.298  11.207   3.301  0.0868 -0.3921 -1.0540
  935MOL0     C23314  -0.335  11.335   3.349  0.1382  0.7996 -0.5387
  935MOL0     C23315  -0.474  11.370   3.358  0.1282  0.4475 -0.3023
  935MOL0     C23316  -0.573  11.272   3.332  0.0108  0.2736 -0.3202
  935MOL0     C23317  -0.711  11.295   3.349 -0.8485 -0.0040 -0.6374
  935MOL0     O23318  -0.793  11.194   3.318  0.1676 -0.3740  0.2628
  935MOL0     C23319  -0.934  11.211   3.323  0.4799 -0.4520 -0.5787
  935MOL0     C23320  -1.012  11.122   3.398  0.3238  0.4179  0.1371
  935MOL0     C23321  -1.155  11.139   3.386  0.1366 -0.1720 -0.7218
  935MOL0     C23322  -1.220  11.249   3.324  0.4013  0.6780  0.2602
  935MOL0     O23323  -1.363  11.251   3.334 -0.1635  0.0688  0.7974
  935MOL0     C23324  -1.433  11.353   3.254 -0.2453 -0.0906 -0.2740
  935MOL0     C23325  -1.577  11.334   3.286  0.1963  0.3488 -0.6003
  935MOL0     C23326  -1.660  11.457   3.244 -0.4780 -0.3674  0.0130
  935MOL0     C23327  -1.806  11.433   3.267  0.5389 -0.6534  0.1362
  935MOL0     C23328  -1.894  11.547   3.220  0.3792 -1.0272  0.6389
  935MOL0     C23329  -1.868  11.693   3.281  1.2228  0.1320 -0.7204
  935MOL0     C23330  -1.915  11.798   3.186 -0.5041 -0.5127  0.5939
  935MOL0     C23331  -1.914  11.942   3.237  0.2197 -0.7762  0.1196
  935MOL0    Cl23332  -1.939  12.045   3.087  0.2250 -0.6871 -0.7963
  935MOL0     C23333  -1.135  11.332   3.246 -1.0698 -0.2245  0.4104
  935MOL0     C23334  -0.996  11.311   3.241 -1.2883  0.1413 -0.8782
  935MOL0     O23335  -0.738  11.405   3.403  0.8539  0.5546  0.1931
  935MOL0     C23336  -0.521  11.145   3.292  1.5820 -0.5238  0.3268
  935MOL0     C23337  -0.391  11.117   3.264 -0.3129 -0.4561  0.0100
  935MOL0     N23338   0.325  10.743   3.135 -0.2448 -0.2619 -0.7121
  935MOL0     N23339   0.392  10.662   3.063  0.0730  0.5330 -0.1587
  935MOL0     C23340   1.616  10.480   3.025 -0.3908  0.5421  0.4485
  935MOL0     C23341   1.757  10.482   3.048  0.5080  0.4084  0.3195
  935MOL0     C23342   2.189  10.648   3.115  0.5101  0.4558  0.5386
  935MOL0     C23343   2.292  10.728   3.047  0.1088  0.4957 -0.2148
  935MOL0     C23344   2.425  10.683   3.056 -0.1676 -0.0602  0.3995
  935MOL0     C23345   2.457  10.559   3.121  0.4363  0.1895  0.3721
  935MOL0     O23346   2.583  10.509   3.119 -0.4706 -0.2513 -0.5367
  935MOL0     C23347   2.670  10.524   3.004 -0.2465 -0.0877 -0.4028
  935MOL0     C23348   2.815  10.483   3.028  0.1421 -0.0246 -0.9582
  935MOL0     C23349   2.901  10.593   3.094  0.0054  0.0583 -0.3056
  935MOL0     C23350   2.850  10.614   3.240  0.0849 -0.0751  0.1140
  935MOL0     C23351   2.741  10.716   3.253  0.2435 -0.6076  0.3015
  935MOL0     C23352   2.659  10.804   3.255  0.3915 -0.0374  0.1518
  935MOL0     C23353   2.350  10.480   3.173  0.5070 -0.1886  0.5581
  935MOL0     C23354   2.215  10.519   3.171  0.8016 -0.5913 -0.2701
  935MOL0     H23355   1.797  10.820   3.056 -3.7817  1.4833  1.4481
  935MOL0     H23356   1.571  10.820   3.004 -0.1800 -0.0656 -0.2114
  935MOL0     H23357   1.342  10.779   3.052  0.7734 -0.0905 -1.2134
  935MOL0     H23358   1.382  10.663   3.185 -1.6179  2.8956  1.4235
  935MOL0     H23359   1.155  10.649   3.197  0.0037 -4.2361  0.1138
  935MOL0     H23360   1.198  10.524   3.086 -4.7237 -0.9891  0.6457
  935MOL0     H23361   1.156  10.678   2.881  0.4131  3.4474  0.0476
  935MOL0     H23362   1.091  10.789   2.996 -0.4272  0.3459  1.5248
  935MOL0     H23363   0.988  10.513   2.955  2.7309  0.5501 -1.3209
  935MOL0     H23364   0.926  10.608   3.088  0.7497  0.0421  0.8564
  935MOL0     H23365   0.893  10.664   2.786 -3.9320 -0.2062 -1.4496
  935MOL0     H23366   0.868  10.792   2.905 -2.4303 -0.4642 -1.0913
  935MOL0     H23367   0.697  10.652   3.017 -3.2445  1.8484 -1.7482
  935MOL0     H23368   0.725  10.521   2.899 -1.6176 -0.1674 -1.0628
  935MOL0     H23369   0.636  10.804   2.831 -1.3920  0.1684  1.9296
  935MOL0     H23370   0.674  10.656   2.723  1.0486  0.4672 -0.1523
  935MOL0     H23371   0.478  10.546   2.839 -2.5626 -0.5283  0.6036
  935MOL0     H23372   0.437  10.685   2.743  2.3258 -0.8419 -2.1741
  935MOL0     H23373   0.411  10.932   2.875  0.1859 -1.3771 -1.3439
  935MOL0     H23374   0.238  11.055   3.032  2.0713 -0.5078 -1.0076
  935MOL0     H23375   0.328  11.026   3.191 -2.0272 -0.1892  2.7637
  935MOL0     H23376   0.137  10.909   3.282 -2.7762 -1.0691  0.2457
  935MOL0     H23377   0.050  10.908   3.124 -1.1195  3.0955 -2.1107
  935MOL0     H23378   0.080  11.137   3.308  2.6164  1.4096 -0.6680
  935MOL0     H23379   0.058  11.164   3.129 -0.8282  0.6583  1.1176
  935MOL0     H23380  -0.138  10.994   3.284 -0.3696  1.2018  2.4749
  935MOL0     H23381  -0.155  11.061   3.121  0.8515  1.9673 -0.9093
  935MOL0     H23382  -0.257  11.407   3.371  0.8579  0.0686 -0.6427
  935MOL0     H23383  -0.513  11.462   3.399 -0.0484  0.2011  0.0843
  935MOL0     H23384  -0.968  11.041   3.456 -0.8550  0.4555  1.1456
  935MOL0     H23385  -1.215  11.072   3.446 -0.9906  0.4031 -1.1827
  935MOL0     H23386  -1.415  11.326   3.149 -0.2651 -3.1546  0.4168
  935MOL0     H23387  -1.388  11.449   3.280  1.3928 -0.8152 -0.3230
  935MOL0     H23388  -1.586  11.332   3.395  2.7629 -1.1553 -0.3270
  935MOL0     H23389  -1.616  11.241   3.244 -1.2227  1.1149 -1.0561
  935MOL0     H23390  -1.633  11.475   3.140  3.6375 -0.7506  0.8346
  935MOL0     H23391  -1.626  11.544   3.302 -2.6630  0.5855 -0.0150
  935MOL0     H23392  -1.831  11.352   3.198  0.9016  1.5800 -2.8075
  935MOL0     H23393  -1.816  11.417   3.375 -0.6373  2.6333  0.6123
  935MOL0     H23394  -2.000  11.530   3.244 -0.2016  0.7457 -0.5036
  935MOL0     H23395  -1.887  11.568   3.113  3.2895  1.7378  1.2320
  935MOL0     H23396  -1.758  11.701   3.282  1.5860 -2.9793  1.5633
  935MOL0     H23397  -1.894  11.705   3.387 -2.0450  1.1022 -1.5306
  935MOL0     H23398  -1.856  11.782   3.095 -1.6241 -0.6403 -0.1255
  935MOL0     H23399  -2.020  11.775   3.164 -1.0002  1.7664  0.3693
  935MOL0     H23400  -1.816  11.969   3.277 -1.0461  3.3487  0.9601
  935MOL0     H23401  -1.992  11.948   3.313 -0.8371 -2.0532 -0.8133
  935MOL0     H23402  -1.194  11.404   3.190 -0.6205  0.9222  1.3507
  935MOL0     H23403  -0.935  11.380   3.184 -0.1127  0.2183  0.4088
  935MOL0     H23404  -0.602  11.076   3.273  1.4945 -1.2265  2.9523
  935MOL0     H23405  -0.375  11.013   3.238  2.0354 -0.4691  1.1927
  935MOL0     H23406   1.566  10.386   3.006 -0.4496  0.4759  0.9192
  935MOL0     H23407   1.818  10.392   3.051  0.3479  0.2923  0.0796
  935MOL0     H23408   2.262  10.827   3.012  1.2182  1.3784  1.2012
  935MOL0     H23409   2.504  10.752   3.027  0.7103 -1.2813 -0.1900
  935MOL0     H23410   2.659  10.631   2.981 -2.8210  0.0049  0.8679
  935MOL0     H23411   2.619  10.451   2.941 -0.7876 -0.7525  0.7689
  935MOL0     H23412   2.814  10.393   3.090  0.2595 -0.8562 -2.1371
  935MOL0     H23413   2.860  10.465   2.930 -0.0117 -1.7541 -0.7531
  935MOL0     H23414   2.899  10.688   3.041 -0.8878  0.8645  1.0942
  935MOL0     H23415   3.006  10.564   3.104  0.7885  2.2353 -1.4634
  935MOL0     H23416   2.816  10.517   3.276  0.5002 -0.8013 -1.3536
  935MOL0     H23417   2.927  10.650   3.309 -0.5741  0.6668  0.4814
  935MOL0     H23418   2.585  10.879   3.276 -1.0347 -1.9043  2.3161
  935MOL0     H23419   2.370  10.385   3.221 -0.4352 -0.1420  1.0530
  935MOL0     H23420   2.136  10.452   3.203 -1.1917  1.3033 -0.9997
  936MOL0     O23421   4.097   9.255   1.195 -0.6972  0.0250 -0.4015
  936MOL0     C23422   4.048   9.361   1.231 -0.7679 -1.0442 -0.8802
  936MOL0     O23423   4.122   9.473   1.253 -0.2645 -0.4450  0.5396
  936MOL0     C23424   4.259   9.462   1.272  0.7372 -0.1391  0.2151
  936MOL0     C23425   4.314   9.375   1.364  0.2298  0.6419 -0.2256
  936MOL0     C23426   4.451   9.373   1.384 -0.2983 -0.1675  0.4404
  936MOL0     C23427   4.542   9.480   1.338  1.5123  0.4500  0.3073
  936MOL0     O23428   4.677   9.492   1.350  0.3355  0.3904  0.2841
  936MOL0     C23429   4.747   9.376   1.378 -0.6985 -0.0143 -0.5517
  936MOL0     C23430   4.744   9.265   1.275 -0.0018  0.1480  0.1383
  936MOL0     C23431   4.793   9.128   1.317 -0.2807  0.4816 -0.4569
  936MOL0     C23432   4.794   9.020   1.197  0.4343  0.4366 -0.7638
  936MOL0     C23433   4.899   8.915   1.217  0.7072  0.2016  0.3264
  936MOL0     C23434   4.891   8.836   1.348  0.0693  0.1110 -0.1062
  936MOL0     C23435   4.997   8.719   1.332  0.1945  0.3919  0.3418
  936MOL0     C23436   5.134   8.752   1.394 -0.8327  0.1551 -0.2222
  936MOL0     N23437   5.121   8.784   1.533 -0.4947 -0.4280 -0.2188
  936MOL0     C23438   5.157   8.902   1.580  0.5485  0.0302 -0.0078
  936MOL0     C23439   5.204   8.889   1.703  0.6578 -0.3620  0.3149
  936MOL0     C23440   5.284   8.990   1.780  0.1191  0.2064 -0.6048
  936MOL0     C23441   5.193   9.082   1.863 -0.4641  0.0758  0.5141
  936MOL0     C23442   5.229   9.080   2.011 -0.1611 -0.2322 -1.0493
  936MOL0     C23443   5.353   9.162   2.032  0.2802 -0.9781  0.5762
  936MOL0     O23444   5.471   9.079   2.044  0.0637 -0.0067  0.6004
  936MOL0     C23445   5.592   9.145   2.072  0.1211 -0.1907  0.1598
  936MOL0     C23446   5.605   9.278   2.096 -0.2876  1.1411  1.1313
  936MOL0     C23447   5.733   9.336   2.121  0.3137  0.2590 -0.3911
  936MOL0     C23448   5.849   9.257   2.118 -0.2295  0.6891  0.0975
  936MOL0     C23449   5.987   9.311   2.125  0.5535  0.4212  1.1191
  936MOL0     O23450   6.085   9.236   2.180  0.0372  0.4856 -0.3946
  936MOL0     C23451   6.206   9.272   2.142  0.0791  0.0656 -1.0491
  936MOL0     C23452   6.279   9.188   2.055  0.4092  0.1762 -0.3376
  936MOL0     C23453   6.417   9.214   2.034  0.2033  1.0534  1.5326
  936MOL0     C23454   6.477   9.326   2.086 -0.2096  0.0532  0.3473
  936MOL0     O23455   6.594   9.380   2.048 -0.8179 -0.4191  0.0836
  936MOL0     C23456   6.703   9.281   2.026 -0.1322 -0.1426  0.0202
  936MOL0     C23457   6.816   9.377   1.978  0.3825  0.3413 -0.7063
  936MOL0     C23458   6.938   9.298   1.926  0.3292  0.5754 -0.1026
  936MOL0     C23459   7.059   9.382   1.885  0.3494  0.6171 -0.2495
  936MOL0     C23460   7.182   9.298   1.839  0.6751 -0.5636  0.4528
  936MOL0     C23461   7.282   9.276   1.951 -0.2286  0.1589 -1.2151
  936MOL0     C23462   7.395   9.206   1.889  0.3405  0.8819 -0.1780
  936MOL0     C23463   7.480   9.118   1.987  1.4573  0.9159 -0.1028
  936MOL0    Cl23464   7.599   9.224   2.069 -0.1034 -0.0155  0.5467
  936MOL0     C23465   6.405   9.411   2.167 -0.2191  1.0700  0.4305
  936MOL0     C23466   6.277   9.377   2.207  0.7016 -0.0109 -0.0995
  936MOL0     O23467   5.994   9.432   2.090 -0.1639 -0.2715  0.1531
  936MOL0     C23468   5.838   9.118   2.110  0.3374 -0.0684 -0.0080
  936MOL0     C23469   5.707   9.066   2.085 -0.0342  0.2216 -0.2233
  936MOL0     N23470   5.176   8.758   1.737  0.4061 -0.4566 -0.6834
  936MOL0     N23471   5.133   8.697   1.635  0.3707  0.1282 -0.0991
  936MOL0     C23472   4.475   9.572   1.254  0.0785 -0.2981 -0.6354
  936MOL0     C23473   4.341   9.564   1.219 -0.2150  0.2647 -0.3744
  936MOL0     C23474   3.896   9.379   1.219  0.3011  0.0907  0.0561
  936MOL0     C23475   3.826   9.261   1.247  0.4965 -0.0334  0.5833
  936MOL0     C23476   3.685   9.264   1.259 -0.2405 -0.1508 -0.3500
  936MOL0     C23477   3.615   9.382   1.240 -0.3817 -0.5939  0.0047
  936MOL0     O23478   3.479   9.372   1.238 -0.7011 -0.2181 -0.4642
  936MOL0     C23479   3.414   9.497   1.183  0.1169  0.2176  0.1279
  936MOL0     C23480   3.265   9.467   1.154 -0.7731 -0.1096  0.8647
  936MOL0     C23481   3.184   9.465   1.280 -0.2080  0.0256 -0.7988
  936MOL0     C23482   3.049   9.392   1.263 -0.0098  0.5791 -0.2407
  936MOL0     C23483   2.953   9.421   1.378 -0.9027  0.8019  0.2594
  936MOL0     C23484   2.885   9.434   1.480  0.4434 -0.3425 -0.5231
  936MOL0     C23485   3.681   9.504   1.228  0.5688 -0.1720 -0.0932
  936MOL0     C23486   3.820   9.498   1.205  0.0672  0.4832 -0.2910
  936MOL0     H23487   4.262   9.296   1.416 -1.5829  2.5954  1.1165
  936MOL0     H23488   4.491   9.291   1.443 -0.2943 -0.5717 -0.1164
  936MOL0     H23489   4.719   9.332   1.474 -1.4451  0.0950 -0.7131
  936MOL0     H23490   4.849   9.403   1.405 -1.5422  1.2332  1.6354
  936MOL0     H23491   4.808   9.285   1.189  0.8967 -2.1424  0.1969
  936MOL0     H23492   4.639   9.247   1.249  0.4230 -0.9829 -0.8909
  936MOL0     H23493   4.728   9.099   1.400 -0.2581  2.2650  0.2285
  936MOL0     H23494   4.895   9.129   1.356  0.7846 -2.3879 -2.7646
  936MOL0     H23495   4.698   8.969   1.190 -0.3949  1.6584  1.0423
  936MOL0     H23496   4.829   9.072   1.107  0.3412  2.0764  0.1108
  936MOL0     H23497   4.996   8.964   1.203  0.5892  0.4629  0.4221
  936MOL0     H23498   4.895   8.838   1.139  1.7575 -1.9869  2.2907
  936MOL0     H23499   4.793   8.789   1.348 -0.9578  2.1285  0.7306
  936MOL0     H23500   4.910   8.907   1.429 -1.3805  2.1075 -1.4159
  936MOL0     H23501   4.954   8.630   1.377 -0.4804  0.3513 -0.3659
  936MOL0     H23502   5.024   8.704   1.227  3.0120  0.5991  0.9710
  936MOL0     H23503   5.187   8.826   1.334  0.1797 -1.8051 -1.8645
  936MOL0     H23504   5.188   8.657   1.398 -2.4336 -0.7753  2.9348
  936MOL0     H23505   5.158   9.001   1.537  0.4818 -1.4566 -3.7845
  936MOL0     H23506   5.355   9.047   1.719  1.8060 -1.1230  0.0257
  936MOL0     H23507   5.356   8.944   1.848  0.4035  2.0115  0.3576
  936MOL0     H23508   5.092   9.045   1.844 -0.2187  0.0220 -0.7551
  936MOL0     H23509   5.193   9.186   1.832 -0.6611  0.7163  2.5396
  936MOL0     H23510   5.149   9.127   2.069  1.4673  0.5454  0.6429
  936MOL0     H23511   5.236   8.975   2.041 -0.1731 -0.4027 -1.6234
  936MOL0     H23512   5.339   9.226   2.120 -0.4603  0.7621 -0.7652
  936MOL0     H23513   5.370   9.237   1.954  1.2919 -1.1546  0.6183
  936MOL0     H23514   5.520   9.345   2.091 -0.0525  1.3578 -0.4724
  936MOL0     H23515   5.727   9.444   2.118 -2.1158  0.1960  0.0868
  936MOL0     H23516   6.241   9.100   2.005 -0.2071  1.8170 -2.9512
  936MOL0     H23517   6.468   9.155   1.960  3.0019  0.7820  3.5021
  936MOL0     H23518   6.689   9.217   1.939  1.2240  0.4860 -0.6845
  936MOL0     H23519   6.737   9.230   2.117 -3.0752  0.3102  1.5150
  936MOL0     H23520   6.848   9.451   2.053 -0.8946 -2.4150  2.8425
  936MOL0     H23521   6.769   9.438   1.900 -3.2479  1.5393  2.1224
  936MOL0     H23522   6.913   9.235   1.839 -2.5174  0.4818  0.6647
  936MOL0     H23523   6.957   9.226   2.005  0.6317 -0.3719 -1.0166
  936MOL0     H23524   7.031   9.445   1.800 -1.9886 -2.1528 -1.7233
  936MOL0     H23525   7.082   9.445   1.971 -1.2824  4.4700 -2.3677
  936MOL0     H23526   7.234   9.343   1.754 -0.2314  0.4311  0.4086
  936MOL0     H23527   7.144   9.200   1.806  1.2791 -0.0548 -1.8912
  936MOL0     H23528   7.233   9.220   2.032 -0.3787  0.8472 -0.8188
  936MOL0     H23529   7.311   9.372   1.994 -0.6207 -0.2192 -0.0560
  936MOL0     H23530   7.362   9.145   1.804 -2.1180  1.4692  0.2911
  936MOL0     H23531   7.453   9.293   1.856 -1.5068  3.4959  2.9396
  936MOL0     H23532   7.520   9.026   1.943 -2.0800 -2.1203  2.3905
  936MOL0     H23533   7.416   9.086   2.069  1.3287  0.4863 -0.3700
  936MOL0     H23534   6.459   9.493   2.212  0.0474  0.7425  0.7068
  936MOL0     H23535   6.229   9.446   2.277 -1.3507 -1.0701 -0.3897
  936MOL0     H23536   5.925   9.053   2.120 -0.5274 -0.9257  3.0505
  936MOL0     H23537   5.690   8.961   2.064  0.7564  0.5132 -2.5795
  936MOL0     H23538   4.538   9.645   1.205  0.5416  0.3642  0.8888
  936MOL0     H23539   4.288   9.627   1.149 -2.7260 -1.0704  0.2253
  936MOL0     H23540   3.879   9.168   1.264  1.5003  0.7487  1.9840
  936MOL0     H23541   3.627   9.174   1.279 -2.1932  1.1011 -0.0407
  936MOL0     H23542   3.469   9.534   1.096  3.1851  0.9789  2.2236
  936MOL0     H23543   3.427   9.584   1.248 -2.3955  3.5240 -3.3587
  936MOL0     H23544   3.227   9.552   1.096 -2.3354  0.3559  2.4920
  936MOL0     H23545   3.249   9.377   1.093 -1.7444  0.9822 -0.5742
  936MOL0     H23546   3.157   9.571   1.288 -3.8912 -0.6698 -1.8143
  936MOL0     H23547   3.239   9.433   1.370 -0.2318  1.6935 -0.1622
  936MOL0     H23548   3.002   9.419   1.169  0.6285  1.7631 -0.2282
  936MOL0     H23549   3.093   9.292   1.256 -0.1565  0.4816  0.1592
  936MOL0     H23550   2.826   9.458   1.567 -1.2031 -0.8999 -1.4349
  936MOL0     H23551   3.627   9.598   1.213  0.5794 -0.3630 -1.4975
  936MOL0     H23552   3.865   9.591   1.172  1.8694 -0.2090  0.1007
  937MOL0     O23553   2.398   2.558   7.694 -0.3900  0.9136 -0.4369
  937MOL0     C23554   2.407   2.632   7.793  0.7374  0.1247 -0.4709
  937MOL0     O23555   2.519   2.659   7.859 -0.6347 -0.4894  0.9180
  937MOL0     C23556   2.640   2.616   7.819 -0.1282 -0.1405  0.5820
  937MOL0     C23557   2.666   2.486   7.793  0.2551  0.4485 -0.3426
  937MOL0     C23558   2.786   2.433   7.746 -0.5568  0.8757 -0.4757
  937MOL0     C23559   2.893   2.518   7.726  0.4393 -0.1211  0.2959
  937MOL0     O23560   3.017   2.484   7.681 -0.2000  0.2585 -0.3781
  937MOL0     C23561   3.033   2.356   7.641 -0.5801  0.1396  0.2083
  937MOL0     C23562   3.178   2.343   7.592  0.9513 -0.4830 -0.0363
  937MOL0     C23563   3.273   2.325   7.706  0.4453  0.1102 -0.0714
  937MOL0     C23564   3.286   2.192   7.764  0.3225  0.7101  1.1859
  937MOL0     C23565   3.364   2.100   7.670  0.1101  0.7828  0.2578
  937MOL0     C23566   3.399   1.955   7.715  0.3631 -0.0462  0.2745
  937MOL0     C23567   3.523   1.887   7.638  0.0921  0.2647  0.3873
  937MOL0     C23568   3.545   1.744   7.695  0.1247 -0.4736  0.5011
  937MOL0     N23569   3.446   1.643   7.667 -0.0499 -0.2922 -0.2972
  937MOL0     C23570   3.321   1.633   7.728 -0.0569 -0.0113 -0.4760
  937MOL0     C23571   3.240   1.542   7.657 -0.2543 -0.9466 -0.5363
  937MOL0     C23572   3.103   1.483   7.682 -0.3592  0.5602 -0.0411
  937MOL0     C23573   3.017   1.596   7.724  0.5341 -0.1237 -1.0147
  937MOL0     C23574   2.873   1.553   7.751 -0.1481 -0.9450  1.1704
  937MOL0     C23575   2.788   1.669   7.798  0.1488 -0.4244  0.1651
  937MOL0     O23576   2.653   1.613   7.807  0.4373 -0.1989  0.2477
  937MOL0     C23577   2.537   1.688   7.813 -0.9720  0.1562 -0.4671
  937MOL0     C23578   2.537   1.827   7.822 -0.3953 -0.0692  0.0040
  937MOL0     C23579   2.415   1.903   7.834  0.3694  0.9542 -0.0427
  937MOL0     C23580   2.296   1.840   7.824 -0.1333 -0.2324 -0.2733
  937MOL0     C23581   2.175   1.917   7.854  0.3064 -0.7432  0.4084
  937MOL0     O23582   2.183   2.013   7.952  0.1938  0.4091 -1.2174
  937MOL0     C23583   2.067   2.070   7.975 -0.4036  0.4174  0.1046
  937MOL0     C23584   2.061   2.205   7.964 -0.2929 -2.0312  0.2357
  937MOL0     C23585   1.942   2.273   7.992 -0.4355  0.6329  0.1479
  937MOL0     C23586   1.823   2.200   8.022  0.1724 -0.9289 -0.3418
  937MOL0     O23587   1.700   2.253   8.050  0.1498 -0.3639 -0.3157
  937MOL0     C23588   1.700   2.400   8.059 -0.0696  0.2723  0.2755
  937MOL0     C23589   1.565   2.455   8.085  0.5871  0.2582  0.3907
  937MOL0     C23590   1.580   2.609   8.091 -0.0298 -0.5122 -0.1055
  937MOL0     C23591   1.451   2.670   8.132 -1.0209 -0.7839 -0.0834
  937MOL0     C23592   1.414   2.652   8.280 -0.7937  0.3694 -0.3502
  937MOL0     C23593   1.338   2.771   8.319  0.2602  0.2678  0.1514
  937MOL0     C23594   1.271   2.747   8.459 -0.8411 -0.6063 -0.4023
  937MOL0     C23595   1.261   2.887   8.539 -0.2918 -0.7166  0.1969
  937MOL0    Cl23596   1.200   3.019   8.424  0.2198 -0.0545 -0.1186
  937MOL0     C23597   1.834   2.067   8.037  0.0202  0.1875  1.0013
  937MOL0     C23598   1.954   2.000   8.014  0.4270  0.0110  0.5540
  937MOL0     O23599   2.081   1.897   7.773 -0.3071 -0.1959 -0.5340
  937MOL0     C23600   2.293   1.703   7.810  0.4452  0.5426  0.7850
  937MOL0     C23601   2.414   1.622   7.805 -0.6482 -1.4239 -0.6662
  937MOL0     N23602   3.325   1.490   7.564 -0.8669  0.8208 -0.4273
  937MOL0     N23603   3.448   1.539   7.570  0.6796 -0.2485 -0.0122
  937MOL0     C23604   2.879   2.648   7.780  0.0581 -0.6466 -0.5155
  937MOL0     C23605   2.750   2.697   7.814 -0.2105 -0.0424 -0.3456
  937MOL0     C23606   2.280   2.676   7.860 -0.5226 -0.3671  1.1882
  937MOL0     C23607   2.277   2.777   7.960  0.6841  0.5110 -0.2391
  937MOL0     C23608   2.164   2.826   8.016  0.1222  0.6554  0.5367
  937MOL0     C23609   2.047   2.772   7.971  0.8350 -0.3445  0.5264
  937MOL0     O23610   1.929   2.822   8.018  0.3513  0.3963  0.1642
  937MOL0     C23611   1.924   2.927   8.112  0.1881 -0.5555 -0.5883
  937MOL0     C23612   1.782   2.960   8.154  0.1809  0.8758 -0.4526
  937MOL0     C23613   1.750   3.105   8.146  0.0628  0.0593  0.9210
  937MOL0     C23614   1.606   3.134   8.197  0.5033  0.4856 -0.1137
  937MOL0     C23615   1.586   3.100   8.335  0.4901  0.3025  0.5920
  937MOL0     C23616   1.585   3.052   8.444 -0.1723 -0.1304 -0.5103
  937MOL0     C23617   2.049   2.667   7.874  0.8123  0.5429 -0.6337
  937MOL0     C23618   2.163   2.618   7.822  0.4362 -0.4929  0.0716
  937MOL0     H23619   2.588   2.413   7.810  0.5722  0.5275  1.6503
  937MOL0     H23620   2.814   2.330   7.727  4.8421  1.9538 -0.0269
  937MOL0     H23621   2.966   2.328   7.559  0.7614 -3.2415  0.1020
  937MOL0     H23622   3.033   2.282   7.721  3.5396 -1.4006 -0.9292
  937MOL0     H23623   3.221   2.432   7.545  3.1204 -1.9499 -0.9798
  937MOL0     H23624   3.174   2.265   7.516 -0.5727  2.0236 -2.7480
  937MOL0     H23625   3.247   2.398   7.784 -0.0310  0.4363 -0.5359
  937MOL0     H23626   3.374   2.356   7.677  0.7445  0.0413  0.8410
  937MOL0     H23627   3.342   2.211   7.855  2.4499  1.1048 -0.1427
  937MOL0     H23628   3.196   2.132   7.780 -1.8140  2.9602 -1.2901
  937MOL0     H23629   3.456   2.155   7.650 -0.1076  1.5048  1.1528
  937MOL0     H23630   3.313   2.099   7.573  0.3126  3.1660  0.0688
  937MOL0     H23631   3.301   1.913   7.694 -0.7203  3.3699 -2.3821
  937MOL0     H23632   3.422   1.946   7.822  3.1751  0.0284 -0.2470
  937MOL0     H23633   3.511   1.876   7.530 -0.5276 -1.8747  0.6268
  937MOL0     H23634   3.613   1.944   7.662 -1.5215  2.3968  1.7459
  937MOL0     H23635   3.557   1.753   7.803 -0.0514 -1.0803  0.5738
  937MOL0     H23636   3.640   1.713   7.650  0.3280 -1.5846  1.6488
  937MOL0     H23637   3.285   1.684   7.817  1.5220 -2.7299  1.9254
  937MOL0     H23638   3.106   1.397   7.749 -1.2574  1.1245  0.7448
  937MOL0     H23639   3.072   1.452   7.582  3.4383  0.5097 -1.3409
  937MOL0     H23640   3.012   1.670   7.644 -0.1840 -0.4012 -1.2316
  937MOL0     H23641   3.058   1.647   7.812 -0.2061 -2.1789  0.5949
  937MOL0     H23642   2.827   1.515   7.659  4.4116 -0.4460 -1.6192
  937MOL0     H23643   2.862   1.473   7.826 -3.2086 -0.2232  1.6241
  937MOL0     H23644   2.792   1.756   7.732 -1.5495 -0.7971 -0.4965
  937MOL0     H23645   2.828   1.691   7.897 -0.2873 -2.3258  0.8094
  937MOL0     H23646   2.627   1.885   7.808 -1.3650  1.9599  1.5796
  937MOL0     H23647   2.412   2.012   7.836 -2.2509  1.0403 -2.1764
  937MOL0     H23648   2.144   2.274   7.952 -1.7037  0.4101  3.0702
  937MOL0     H23649   1.953   2.381   7.989 -0.3943  0.6968  1.8147
  937MOL0     H23650   1.739   2.450   7.970  1.3566 -0.1796  0.6173
  937MOL0     H23651   1.769   2.427   8.140  0.8268  2.0489 -1.0092
  937MOL0     H23652   1.524   2.414   8.177 -1.4001  0.6859 -0.2672
  937MOL0     H23653   1.496   2.429   8.005  0.3526  2.9840 -0.3862
  937MOL0     H23654   1.617   2.651   7.997  2.2027 -1.4487  0.2748
  937MOL0     H23655   1.648   2.632   8.174 -0.6355 -0.9231  0.5145
  937MOL0     H23656   1.470   2.777   8.116  1.0041 -1.3689 -2.1079
  937MOL0     H23657   1.372   2.645   8.061 -0.5158  0.6120 -1.1849
  937MOL0     H23658   1.498   2.647   8.350 -0.4774 -0.3038 -0.7605
  937MOL0     H23659   1.355   2.561   8.296 -0.7704  0.6828  1.7562
  937MOL0     H23660   1.257   2.794   8.249 -0.6375 -0.1740  1.0111
  937MOL0     H23661   1.399   2.861   8.308 -0.2807  0.4925 -1.1673
  937MOL0     H23662   1.175   2.695   8.448 -1.3054  0.5724 -2.4059
  937MOL0     H23663   1.336   2.678   8.514 -0.5051 -0.6538 -0.8598
  937MOL0     H23664   1.367   2.915   8.550 -0.1688 -0.1933 -1.9130
  937MOL0     H23665   1.223   2.892   8.642 -0.3140 -1.1910  0.2138
  937MOL0     H23666   1.752   2.005   8.072 -0.9203 -0.4786 -2.0691
  937MOL0     H23667   1.956   1.893   8.030  2.3011 -0.3859 -1.8350
  937MOL0     H23668   2.197   1.655   7.798  0.8817 -0.5143  1.4193
  937MOL0     H23669   2.415   1.513   7.798  1.6380 -1.4961 -0.1336
  937MOL0     H23670   2.963   2.717   7.785 -0.6749  0.2025  0.3042
  937MOL0     H23671   2.750   2.801   7.847 -2.9369 -0.4804  1.3339
  937MOL0     H23672   2.372   2.817   7.993  1.3109 -1.2763  0.2575
  937MOL0     H23673   2.177   2.915   8.078  0.3358  3.4911 -3.2051
  937MOL0     H23674   1.967   3.017   8.068 -1.9356  1.2971  0.8861
  937MOL0     H23675   1.977   2.919   8.208 -1.3451 -0.4821  0.2970
  937MOL0     H23676   1.710   2.905   8.093 -1.1390  1.6435  0.3702
  937MOL0     H23677   1.756   2.927   8.255 -0.6080  0.6827 -0.7076
  937MOL0     H23678   1.754   3.142   8.043 -3.2345  1.7645  1.2906
  937MOL0     H23679   1.814   3.173   8.204 -1.8720  2.8812 -0.0306
  937MOL0     H23680   1.581   3.240   8.189 -1.1784  0.0256 -1.6701
  937MOL0     H23681   1.531   3.085   8.134 -0.3421  0.8624  0.5759
  937MOL0     H23682   1.576   3.007   8.541 -1.9763 -1.5808 -1.2795
  937MOL0     H23683   1.960   2.613   7.843  1.8041  0.0713 -2.8539
  937MOL0     H23684   2.157   2.550   7.738  1.3523 -1.1208  0.4956
  938MOL0     O23685   9.453   7.232   8.061  0.2851  1.3028 -0.4819
  938MOL0     C23686   9.340   7.280   8.051 -0.0736 -0.4030 -0.0790
  938MOL0     O23687   9.301   7.400   8.110 -1.0223  0.7291 -0.3576
  938MOL0     C23688   9.390   7.479   8.183  0.6474 -0.6598 -0.0789
  938MOL0     C23689   9.332   7.526   8.301  0.3658 -0.3659  0.5684
  938MOL0     C23690   9.417   7.584   8.390 -0.8932 -0.2979  0.5136
  938MOL0     C23691   9.560   7.594   8.369  0.0409 -0.3870 -0.3401
  938MOL0     O23692   9.640   7.646   8.467  0.5368  0.6039  0.3362
  938MOL0     C23693   9.775   7.704   8.439 -0.5785 -0.0365 -0.6225
  938MOL0     C23694   9.832   7.772   8.565  0.7798 -0.0569 -0.3622
  938MOL0     C23695   9.773   7.706   8.690  0.6771 -0.0029  0.6476
  938MOL0     C23696   9.823   7.777   8.825 -0.8270  0.3144  1.4043
  938MOL0     C23697   9.767   7.706   8.946  0.3381  0.2218  0.1424
  938MOL0     C23698   9.792   7.781   9.069 -0.7812  0.3440 -0.2171
  938MOL0     C23699   9.681   7.885   9.090  0.4093  0.5995 -0.3574
  938MOL0     C23700   9.672   7.934   9.233  0.5031  0.1221 -0.3044
  938MOL0     N23701   9.548   8.015   9.243  0.0932  0.3240 -0.0722
  938MOL0     C23702   9.422   7.976   9.258 -0.5241  0.0601 -0.1168
  938MOL0     C23703   9.356   8.093   9.271 -0.0107  0.2742 -0.1294
  938MOL0     C23704   9.205   8.105   9.298 -0.1081  0.0572 -0.4579
  938MOL0     C23705   9.113   7.994   9.254  0.3378  0.1787 -0.0084
  938MOL0     C23706   8.968   8.043   9.261 -0.6469  0.2098 -0.0450
  938MOL0     C23707   8.916   7.999   9.408 -0.1595 -0.1788  0.6694
  938MOL0     O23708   8.773   7.997   9.423 -0.7208 -0.0778 -0.1633
  938MOL0     C23709   8.721   8.040   9.543 -0.4924  0.7019  0.3626
  938MOL0     C23710   8.594   8.110   9.540  0.7783 -0.1242  0.6236
  938MOL0     C23711   8.548   8.158   9.659  1.0736 -0.4655 -0.4335
  938MOL0     C23712   8.614   8.131   9.786  0.3379 -0.6691 -0.1810
  938MOL0     C23713   8.553   8.182   9.908 -1.0739  0.8121 -0.1791
  938MOL0     O23714   8.636   8.181  10.016  0.6667  0.4606  0.1925
  938MOL0     C23715   8.607   8.260  10.124 -0.3309  0.2538  0.2369
  938MOL0     C23716   8.481   8.296  10.176  0.2342 -0.0357 -0.6276
  938MOL0     C23717   8.474   8.391  10.286  0.7559  0.3689  0.1859
  938MOL0     C23718   8.592   8.422  10.350  0.2101 -0.8444 -1.0300
  938MOL0     O23719   8.568   8.506  10.462  0.5298 -0.8049  0.2816
  938MOL0     C23720   8.683   8.579  10.512 -0.1940 -0.0299 -0.2093
  938MOL0     C23721   8.721   8.693  10.422  0.7256  0.8282 -0.1140
  938MOL0     C23722   8.831   8.776  10.480 -0.2381  0.3412  0.5267
  938MOL0     C23723   8.832   8.910  10.423  0.0666  0.1274 -0.0715
  938MOL0     C23724   8.965   8.983  10.443 -0.1765  1.4789  0.2473
  938MOL0     C23725   8.970   9.038  10.583 -0.4267  0.1902 -0.4861
  938MOL0     C23726   9.111   9.092  10.613  0.4367  0.1030  0.6383
  938MOL0     C23727   9.134   9.087  10.764  0.6588  0.1041  0.4464
  938MOL0    Cl23728   9.302   9.106  10.803 -0.6208  0.4851 -0.0879
  938MOL0     C23729   8.716   8.386  10.304  0.1218  0.1121 -0.3202
  938MOL0     C23730   8.721   8.293  10.201 -0.1878 -0.1061 -0.7523
  938MOL0     O23731   8.450   8.235   9.899 -0.1951 -0.2578  1.1293
  938MOL0     C23732   8.720   8.047   9.792  1.3565 -0.2103 -0.5098
  938MOL0     C23733   8.781   8.006   9.667 -0.6232 -0.0007  0.0240
  938MOL0     N23734   9.436   8.201   9.256 -0.7029 -0.7796 -0.3196
  938MOL0     N23735   9.550   8.152   9.244  0.5033  0.3906 -0.2089
  938MOL0     C23736   9.617   7.565   8.243  0.0356  0.0659  0.2512
  938MOL0     C23737   9.527   7.490   8.159  0.3989  0.3384  0.2968
  938MOL0     C23738   9.243   7.199   7.983  0.8433  0.2362 -0.7018
  938MOL0     C23739   9.104   7.235   7.969 -0.2527  0.0588 -0.4998
  938MOL0     C23740   9.004   7.160   7.899  0.6846  0.3058 -0.7249
  938MOL0     C23741   9.041   7.048   7.832  0.5037 -0.0502 -0.0079
  938MOL0     O23742   8.938   6.974   7.772 -0.2519 -0.2455 -0.0824
  938MOL0     C23743   8.973   6.886   7.666  0.5799  0.3640  0.9469
  938MOL0     C23744   8.841   6.855   7.598  0.5479  0.3622  0.2369
  938MOL0     C23745   8.742   6.749   7.660 -0.1628 -1.0232  0.4281
  938MOL0     C23746   8.606   6.746   7.593  1.3788 -0.5916  0.2242
  938MOL0     C23747   8.532   6.874   7.612  0.9409  0.8536 -0.5218
  938MOL0     C23748   8.472   6.975   7.642 -0.9192 -0.7735 -0.0014
  938MOL0     C23749   9.179   7.008   7.833  0.3611  0.0194 -0.1516
  938MOL0     C23750   9.277   7.081   7.913 -0.4698 -0.1579  0.4534
  938MOL0     H23751   9.227   7.504   8.318  1.1385 -4.1870  1.3908
  938MOL0     H23752   9.381   7.610   8.489 -1.2380  2.4401 -0.2423
  938MOL0     H23753   9.777   7.776   8.357 -0.5226 -0.6841 -1.1922
  938MOL0     H23754   9.848   7.630   8.404  0.2120  1.6928 -2.8459
  938MOL0     H23755   9.816   7.880   8.565  2.5925  0.2443  0.6010
  938MOL0     H23756   9.940   7.759   8.563  0.8408  0.3909 -0.1211
  938MOL0     H23757   9.800   7.600   8.695  2.5289  0.3234 -1.1969
  938MOL0     H23758   9.666   7.725   8.701  1.3477  2.8466  3.8267
  938MOL0     H23759   9.931   7.762   8.827 -0.9476 -0.8814  0.1838
  938MOL0     H23760   9.798   7.883   8.813  2.7165  1.0658 -0.9607
  938MOL0     H23761   9.810   7.606   8.955 -0.6380 -0.0576  2.4006
  938MOL0     H23762   9.659   7.697   8.930  0.1282 -0.5022  1.8064
  938MOL0     H23763   9.895   7.818   9.076 -0.3134 -1.1946  1.9266
  938MOL0     H23764   9.777   7.709   9.150 -1.6149  0.3233 -0.3816
  938MOL0     H23765   9.707   7.968   9.024 -0.3230  0.3901 -0.9287
  938MOL0     H23766   9.587   7.842   9.054 -0.1090  0.4528  1.1281
  938MOL0     H23767   9.763   7.988   9.263  1.1611 -1.4837  0.7715
  938MOL0     H23768   9.665   7.853   9.306 -0.8223 -1.5644 -2.2007
  938MOL0     H23769   9.385   7.874   9.262 -1.8257  0.5417  1.4277
  938MOL0     H23770   9.177   8.184   9.228 -0.6805  2.1620  2.0191
  938MOL0     H23771   9.194   8.133   9.403 -1.3902 -0.8458 -0.3240
  938MOL0     H23772   9.131   7.912   9.323 -1.7325 -0.1341  0.2452
  938MOL0     H23773   9.130   7.956   9.152  1.8154  1.8904 -0.4538
  938MOL0     H23774   8.960   8.151   9.253 -2.3458  0.1426  0.2609
  938MOL0     H23775   8.900   7.992   9.191 -0.5599  2.2305 -1.6810
  938MOL0     H23776   8.973   8.064   9.475  1.2817 -0.4843 -0.2052
  938MOL0     H23777   8.950   7.896   9.425 -1.9171 -1.1534 -1.3145
  938MOL0     H23778   8.548   8.124   9.442 -2.6585 -1.9605  1.8287
  938MOL0     H23779   8.456   8.216   9.654  2.6895  2.4863  1.2114
  938MOL0     H23780   8.389   8.260  10.132  0.7476 -3.3060  0.6638
  938MOL0     H23781   8.382   8.438  10.320  0.2157  1.6996 -2.8005
  938MOL0     H23782   8.767   8.515  10.538 -0.0100  0.3322  0.1091
  938MOL0     H23783   8.646   8.618  10.607 -0.5347  1.9459 -1.1002
  938MOL0     H23784   8.638   8.758  10.394 -2.3602 -3.1508 -1.1614
  938MOL0     H23785   8.753   8.630  10.339 -0.5142 -1.5167  1.0745
  938MOL0     H23786   8.923   8.720  10.461 -0.7893 -0.1370 -0.8559
  938MOL0     H23787   8.815   8.790  10.588 -1.2906 -5.5268  1.4551
  938MOL0     H23788   8.828   8.897  10.314  1.4725  0.7274 -0.2230
  938MOL0     H23789   8.748   8.968  10.461 -0.6979 -2.4251  2.4593
  938MOL0     H23790   8.980   9.060  10.368 -0.0221 -0.1100 -1.4285
  938MOL0     H23791   9.044   8.909  10.430 -0.2024  1.5640 -0.3956
  938MOL0     H23792   8.941   8.964  10.659  0.8139 -1.1366 -1.2406
  938MOL0     H23793   8.908   9.127  10.586  0.1123  0.5643 -0.2786
  938MOL0     H23794   9.193   9.031  10.574 -0.2003 -0.8056  0.7018
  938MOL0     H23795   9.124   9.192  10.571  2.1824 -0.9917 -1.6362
  938MOL0     H23796   9.101   8.990  10.802  0.3402 -0.0030 -0.0961
  938MOL0     H23797   9.072   9.161  10.815  0.6535  1.8030 -1.8919
  938MOL0     H23798   8.804   8.416  10.360 -0.4783 -0.1221  0.7826
  938MOL0     H23799   8.819   8.257  10.172  0.1721  0.3410 -0.1140
  938MOL0     H23800   8.770   8.016   9.883 -0.3965 -4.4399 -0.7369
  938MOL0     H23801   8.867   7.941   9.669 -1.3338 -0.9553  1.6445
  938MOL0     H23802   9.720   7.580   8.213  0.4133 -2.2296  0.1771
  938MOL0     H23803   9.574   7.452   8.068 -0.4952 -0.0488 -0.0115
  938MOL0     H23804   9.059   7.317   8.025 -2.3469 -0.7801 -0.8594
  938MOL0     H23805   8.898   7.184   7.894 -0.0043 -1.5761  2.3569
  938MOL0     H23806   9.015   6.790   7.698 -1.3931 -1.0263 -0.4359
  938MOL0     H23807   9.051   6.932   7.604  2.4511 -0.5327  2.5121
  938MOL0     H23808   8.783   6.943   7.568 -0.3619  0.9090  3.2830
  938MOL0     H23809   8.874   6.821   7.500 -1.7006  1.8852 -1.1360
  938MOL0     H23810   8.710   6.755   7.764  0.0906 -1.7468  0.5518
  938MOL0     H23811   8.796   6.654   7.654  2.7367  0.5934 -1.0927
  938MOL0     H23812   8.598   6.725   7.486 -1.4420 -0.9253  0.4096
  938MOL0     H23813   8.548   6.668   7.644  1.6356  0.4688  2.2222
  938MOL0     H23814   8.415   7.061   7.669  0.3245  0.3175 -0.7565
  938MOL0     H23815   9.212   6.925   7.771  2.0543  2.0208 -2.0987
  938MOL0     H23816   9.379   7.045   7.918 -0.4748 -0.4677 -1.0599
  939MOL0     O23817   5.971   1.205   6.564 -0.3261 -0.2297  0.8701
  939MOL0     C23818   5.916   1.113   6.618 -0.6489  0.7371 -0.6572
  939MOL0     O23819   5.976   1.024   6.715  0.1382  0.4693  0.5722
  939MOL0     C23820   6.098   1.056   6.771 -0.1965  0.0950  0.7181
  939MOL0     C23821   6.186   0.955   6.818  0.2901  0.0962 -0.2175
  939MOL0     C23822   6.304   0.983   6.881 -0.3485 -1.2321 -0.8128
  939MOL0     C23823   6.345   1.110   6.897 -1.2425 -0.1349 -0.6451
  939MOL0     O23824   6.465   1.132   6.960 -0.5129  0.9479 -0.8063
  939MOL0     C23825   6.573   1.041   6.942 -0.9230  0.3222 -0.1328
  939MOL0     C23826   6.674   1.082   6.832  1.0701 -0.2962 -0.4405
  939MOL0     C23827   6.725   1.222   6.858 -0.0951  0.4814  0.5188
  939MOL0     C23828   6.854   1.246   6.772 -0.9478  0.4791  0.1352
  939MOL0     C23829   6.926   1.384   6.791  0.5060 -0.0064 -0.4085
  939MOL0     C23830   6.829   1.503   6.778  0.0419  0.4550  0.5682
  939MOL0     C23831   6.917   1.634   6.772  0.6098 -0.7872  0.6291
  939MOL0     C23832   6.972   1.685   6.907  0.2304  0.5661  0.1280
  939MOL0     N23833   7.046   1.810   6.888  0.2372  0.1932 -0.2973
  939MOL0     C23834   7.001   1.937   6.844 -0.1808  0.3408 -0.1829
  939MOL0     C23835   7.103   2.018   6.864  1.1265 -0.2958  0.2468
  939MOL0     C23836   7.099   2.159   6.843 -0.8757 -0.3484  0.5451
  939MOL0     C23837   7.085   2.234   6.975  0.8008 -0.5184 -0.2498
  939MOL0     C23838   7.048   2.382   6.975  0.5715 -1.0275 -0.1061
  939MOL0     C23839   7.036   2.452   7.115  0.0550  0.5174  0.4119
  939MOL0     O23840   7.070   2.595   7.097 -0.5310  0.3666 -0.4126
  939MOL0     C23841   7.011   2.685   7.178 -0.1277  0.5274 -0.8167
  939MOL0     C23842   6.995   2.810   7.115  0.1656  0.2442 -0.7909
  939MOL0     C23843   6.942   2.919   7.184  0.3081 -0.1755 -0.3903
  939MOL0     C23844   6.896   2.891   7.315 -0.4520 -0.7390 -0.0928
  939MOL0     C23845   6.844   3.013   7.382  0.0734  0.0733  0.4953
  939MOL0     O23846   6.860   3.142   7.321 -0.5769  0.7485 -0.2096
  939MOL0     C23847   6.793   3.257   7.365  0.0291 -0.2208 -0.1655
  939MOL0     C23848   6.708   3.271   7.485 -0.4393 -0.3401  0.0749
  939MOL0     C23849   6.657   3.399   7.518 -1.0272  0.4723  0.5347
  939MOL0     C23850   6.675   3.512   7.431  0.9461  0.5155  1.0634
  939MOL0     O23851   6.639   3.631   7.488 -0.2952  0.5926  0.4091
  939MOL0     C23852   6.733   3.736   7.480  0.6519  0.1349  0.1874
  939MOL0     C23853   6.670   3.856   7.557 -0.8210  0.9156  0.3112
  939MOL0     C23854   6.543   3.905   7.498 -0.3071  0.3559  0.0260
  939MOL0     C23855   6.491   4.033   7.583 -0.2512 -0.3131  0.4337
  939MOL0     C23856   6.363   4.094   7.527  0.6467  0.3189  0.0964
  939MOL0     C23857   6.327   4.231   7.586  0.2321  0.0756  0.2981
  939MOL0     C23858   6.307   4.233   7.738  0.1580  0.0328 -0.4481
  939MOL0     C23859   6.239   4.357   7.803  0.3274  0.3695  0.2851
  939MOL0    Cl23860   6.364   4.478   7.818  0.5529 -0.7373 -0.2722
  939MOL0     C23861   6.746   3.496   7.311 -0.6605  0.5476 -0.4812
  939MOL0     C23862   6.806   3.371   7.287  0.0066  0.3085  0.0663
  939MOL0     O23863   6.777   2.989   7.483  0.1758 -0.3570  0.6608
  939MOL0     C23864   6.899   2.762   7.373  0.0639 -0.2317  0.6988
  939MOL0     C23865   6.961   2.660   7.308  0.3029  0.7183  0.3096
  939MOL0     N23866   7.207   1.939   6.909 -0.5898 -0.0063 -0.4497
  939MOL0     N23867   7.164   1.827   6.948 -0.1477  0.6976 -0.5738
  939MOL0     C23868   6.264   1.216   6.843  0.4907  0.0334  0.0398
  939MOL0     C23869   6.137   1.191   6.789  0.2598  0.1534  0.0554
  939MOL0     C23870   5.765   1.107   6.598 -0.6768  0.3997 -0.7605
  939MOL0     C23871   5.702   1.208   6.520 -0.0744  0.3083  0.0054
  939MOL0     C23872   5.568   1.196   6.488  0.3428 -0.2690  0.2010
  939MOL0     C23873   5.485   1.092   6.533  0.0498 -0.2548  0.3454
  939MOL0     O23874   5.360   1.091   6.491 -0.0027 -0.2544  0.5552
  939MOL0     C23875   5.272   0.981   6.512 -0.7579 -0.4881 -0.6982
  939MOL0     C23876   5.207   0.965   6.643  0.0816 -0.2079  0.2773
  939MOL0     C23877   5.103   1.070   6.673  0.3720 -0.4358  1.0096
  939MOL0     C23878   5.045   1.043   6.813 -0.6915 -0.1838  0.0020
  939MOL0     C23879   4.966   1.160   6.845  0.6225  0.0917 -0.0242
  939MOL0     C23880   4.890   1.245   6.866 -0.9847  0.0125  0.4890
  939MOL0     C23881   5.548   0.982   6.610  0.1075 -0.1587 -0.5007
  939MOL0     C23882   5.683   0.998   6.649 -0.5017  0.6518  0.6987
  939MOL0     H23883   6.141   0.857   6.809 -0.0995  0.0931  1.4593
  939MOL0     H23884   6.357   0.913   6.946  0.3868  0.7447  0.8341
  939MOL0     H23885   6.545   0.943   6.902 -2.1858  1.0155 -1.0393
  939MOL0     H23886   6.621   1.027   7.039 -0.2018 -1.8792 -0.7532
  939MOL0     H23887   6.624   1.074   6.735  0.1954  0.5242 -0.0793
  939MOL0     H23888   6.751   1.005   6.840  2.0058  0.7020  0.7086
  939MOL0     H23889   6.747   1.226   6.965 -1.7693  3.0235  0.8559
  939MOL0     H23890   6.645   1.294   6.838 -1.1465 -0.8891 -0.4119
  939MOL0     H23891   6.931   1.170   6.788 -0.9821 -0.2496 -2.5502
  939MOL0     H23892   6.820   1.247   6.668 -1.0100 -0.1650  0.1444
  939MOL0     H23893   6.995   1.395   6.706  3.2586  3.6325  1.9569
  939MOL0     H23894   6.971   1.389   6.891 -0.8337  0.5292  0.1832
  939MOL0     H23895   6.758   1.505   6.862 -0.2313 -0.5550  0.3749
  939MOL0     H23896   6.778   1.492   6.682 -0.8897 -2.4568  1.2745
  939MOL0     H23897   6.994   1.633   6.695 -0.2748  0.2516 -0.3087
  939MOL0     H23898   6.852   1.716   6.739  1.3601 -0.3836  0.1291
  939MOL0     H23899   7.028   1.607   6.959 -1.7100 -1.5877 -0.8658
  939MOL0     H23900   6.885   1.694   6.973  0.4065 -0.3669  0.5021
  939MOL0     H23901   6.905   1.953   6.797 -0.4021  0.7411  0.3879
  939MOL0     H23902   7.024   2.191   6.771  0.8555 -1.5823 -1.9342
  939MOL0     H23903   7.197   2.186   6.801  0.1659 -3.2833  0.8609
  939MOL0     H23904   7.176   2.220   7.034  0.9188  3.6113  0.8522
  939MOL0     H23905   7.004   2.178   7.024 -0.7070  0.1098 -1.9058
  939MOL0     H23906   7.124   2.439   6.921  2.7302  0.6015  4.2042
  939MOL0     H23907   6.956   2.387   6.915 -0.6096 -0.4360  1.6930
  939MOL0     H23908   7.113   2.404   7.176 -2.2379 -2.3090  1.3261
  939MOL0     H23909   6.934   2.442   7.153  0.1852 -2.1418  0.2335
  939MOL0     H23910   7.038   2.827   7.016 -0.7297  0.2151 -1.1927
  939MOL0     H23911   6.931   3.003   7.117 -1.8547 -1.6026 -1.9609
  939MOL0     H23912   6.693   3.193   7.559 -1.2570  0.6261  0.9666
  939MOL0     H23913   6.601   3.408   7.611  2.6067  4.8832  2.6974
  939MOL0     H23914   6.746   3.753   7.373 -2.7416 -0.6767 -0.4724
  939MOL0     H23915   6.828   3.720   7.531 -0.2787  3.3010  3.3182
  939MOL0     H23916   6.746   3.933   7.547  1.8025 -1.4521  0.6772
  939MOL0     H23917   6.659   3.829   7.663  0.7476 -0.3372  0.2022
  939MOL0     H23918   6.461   3.833   7.510  0.1594 -0.0584  0.7926
  939MOL0     H23919   6.536   3.930   7.391  1.5642 -2.1514 -0.7896
  939MOL0     H23920   6.481   4.017   7.690  0.9364  0.0749  0.6262
  939MOL0     H23921   6.572   4.104   7.565 -1.3654  0.9876  0.3975
  939MOL0     H23922   6.282   4.022   7.542 -0.0747  1.0609 -0.1468
  939MOL0     H23923   6.363   4.114   7.419 -2.7420  1.9674  0.2372
  939MOL0     H23924   6.247   4.266   7.520  1.2638 -0.3676 -1.2623
  939MOL0     H23925   6.404   4.304   7.561  1.6758 -1.9602 -1.7027
  939MOL0     H23926   6.243   4.148   7.766 -0.0828 -0.3155 -1.9717
  939MOL0     H23927   6.410   4.220   7.773  0.0245  1.1379  0.4019
  939MOL0     H23928   6.193   4.353   7.902 -2.4219  3.0423 -0.6978
  939MOL0     H23929   6.165   4.399   7.733  2.7140  3.7863 -0.4502
  939MOL0     H23930   6.751   3.581   7.244  2.0371  0.8130 -0.0530
  939MOL0     H23931   6.866   3.350   7.199  0.5711 -0.3705  0.5966
  939MOL0     H23932   6.866   2.731   7.472  1.3122  0.8205  1.4853
  939MOL0     H23933   6.986   2.567   7.358 -1.2214 -0.8830 -1.7459
  939MOL0     H23934   6.311   1.314   6.852 -0.1397  0.2551  0.9756
  939MOL0     H23935   6.069   1.269   6.756 -0.5805 -2.1423 -4.3832
  939MOL0     H23936   5.744   1.302   6.488  0.9851  0.1343  0.8403
  939MOL0     H23937   5.524   1.272   6.424  1.4846  1.6432  1.6024
  939MOL0     H23938   5.332   0.895   6.481 -0.8741 -0.0748 -2.1728
  939MOL0     H23939   5.190   0.998   6.442  0.3488  0.7283 -1.7734
  939MOL0     H23940   5.160   0.867   6.642  1.9786 -1.1822 -0.7279
  939MOL0     H23941   5.279   0.965   6.725 -1.1561  0.7053  1.4110
  939MOL0     H23942   5.022   1.062   6.599  2.0984 -0.0097 -1.0380
  939MOL0     H23943   5.139   1.173   6.660 -2.8635  0.5842 -1.0117
  939MOL0     H23944   5.001   0.945   6.832 -0.3462 -0.0729  1.4658
  939MOL0     H23945   5.128   1.061   6.882 -0.3120  0.0510 -0.5146
  939MOL0     H23946   4.827   1.328   6.890 -3.0600 -0.9188 -1.4528
  939MOL0     H23947   5.494   0.892   6.638 -1.4312  1.0305  0.4781
  939MOL0     H23948   5.721   0.923   6.718 -3.8658 -0.3053  1.6688
  940MOL0     O23949   5.133   9.643   7.470  0.2026 -0.9499 -0.4973
  940MOL0     C23950   5.187   9.748   7.448  0.3275  0.3443  0.6778
  940MOL0     O23951   5.144   9.871   7.496 -0.5695  0.6597  0.2614
  940MOL0     C23952   5.031   9.876   7.573  0.0011 -0.6613  0.3682
  940MOL0     C23953   4.909   9.870   7.511  0.3487 -1.0831  0.2871
  940MOL0     C23954   4.798   9.845   7.594 -0.3023 -0.7389  0.2066
  940MOL0     C23955   4.803   9.835   7.726  0.4170  0.4627 -0.2424
  940MOL0     O23956   4.692   9.824   7.809 -0.1611 -0.3059  0.0958
  940MOL0     C23957   4.568   9.844   7.747  0.1080 -0.0895  0.7485
  940MOL0     C23958   4.485   9.917   7.850  0.0063 -0.2981  0.2043
  940MOL0     C23959   4.337   9.926   7.802 -0.9360 -0.3746 -0.1140
  940MOL0     C23960   4.247   9.978   7.909  1.4306  0.7638  0.3544
  940MOL0     C23961   4.121  10.026   7.838 -0.1542 -0.1315 -0.4527
  940MOL0     C23962   3.995  10.025   7.931  0.6125  0.2834  0.9353
  940MOL0     C23963   3.866  10.050   7.841  1.3800  0.9438 -0.7748
  940MOL0     C23964   3.824   9.919   7.771  0.4769 -0.6047 -0.4247
  940MOL0     N23965   3.686   9.907   7.721 -0.1139  0.0599 -0.6031
  940MOL0     C23966   3.578  10.002   7.714  0.2656  0.0280 -0.5131
  940MOL0     C23967   3.466   9.932   7.716  0.3623  0.9607  0.4684
  940MOL0     C23968   3.322   9.965   7.723  0.6907 -0.0974 -0.0124
  940MOL0     C23969   3.251  10.021   7.846  0.1395  0.0488  0.1975
  940MOL0     C23970   3.185  10.159   7.836 -0.3191  0.1578 -0.5734
  940MOL0     C23971   3.091  10.195   7.950  0.7661 -0.2918  0.9736
  940MOL0     O23972   2.964  10.125   7.940  0.2230  0.2953  0.4505
  940MOL0     C23973   2.879  10.142   8.045 -0.7872  0.5472  1.2009
  940MOL0     C23974   2.888  10.219   8.158 -0.1664 -0.5287 -0.8353
  940MOL0     C23975   2.789  10.220   8.256  0.1658 -0.2184 -0.1120
  940MOL0     C23976   2.665  10.155   8.243 -0.1587  0.6244  0.0917
  940MOL0     C23977   2.562  10.174   8.342  0.8532 -0.5472  0.3562
  940MOL0     O23978   2.439  10.134   8.312  0.3073  0.0376  0.1861
  940MOL0     C23979   2.317  10.172   8.371  0.1668 -0.2243 -0.1178
  940MOL0     C23980   2.199  10.137   8.312 -0.4958 -0.1075 -0.0017
  940MOL0     C23981   2.075  10.171   8.365 -0.0051 -0.4492 -0.7325
  940MOL0     C23982   2.066  10.260   8.475  0.2674 -0.0243  0.8157
  940MOL0     O23983   1.939  10.293   8.517 -0.0228  0.0565  0.4015
  940MOL0     C23984   1.919  10.329   8.654  0.8652 -0.0675  0.4993
  940MOL0     C23985   1.896  10.199   8.741 -0.8967 -1.2042  0.1053
  940MOL0     C23986   1.771  10.118   8.706 -0.5352 -0.0249  0.1664
  940MOL0     C23987   1.754  10.006   8.814  0.6264 -0.7270  0.3152
  940MOL0     C23988   1.614   9.943   8.791 -0.4405  0.2717 -0.4704
  940MOL0     C23989   1.620   9.829   8.690 -0.9431  0.6113  0.0776
  940MOL0     C23990   1.477   9.783   8.655  0.2956 -0.1386  1.5746
  940MOL0     C23991   1.447   9.709   8.527 -1.0104  0.2148  0.1147
  940MOL0    Cl23992   1.458   9.807   8.376 -0.4300 -0.2728 -0.8491
  940MOL0     C23993   2.181  10.287   8.540 -0.5642  0.1976 -0.1901
  940MOL0     C23994   2.309  10.239   8.496  0.9820 -0.7038  0.7378
  940MOL0     O23995   2.589  10.235   8.444 -1.0029  0.2971 -0.2605
  940MOL0     C23996   2.647  10.084   8.121 -0.7194 -0.9526  1.0341
  940MOL0     C23997   2.758  10.064   8.037 -0.3717  0.4869  0.2606
  940MOL0     N23998   3.493   9.794   7.712 -0.5325 -0.1644 -0.1000
  940MOL0     N23999   3.624   9.777   7.722 -0.0284 -0.8435 -0.3738
  940MOL0     C24000   4.925   9.862   7.783 -0.3480 -0.8065 -0.5284
  940MOL0     C24001   5.037   9.881   7.711  0.0807 -0.8181 -0.2209
  940MOL0     C24002   5.301   9.745   7.353  0.3397 -0.5723  0.2822
  940MOL0     C24003   5.337   9.637   7.273 -1.0597 -0.1701 -0.5857
  940MOL0     C24004   5.461   9.638   7.206  0.5566  0.0480 -0.0925
  940MOL0     C24005   5.547   9.745   7.209 -0.7915 -0.1315 -0.6872
  940MOL0     O24006   5.661   9.764   7.144 -0.0426  0.0042  1.4332
  940MOL0     C24007   5.729   9.653   7.084 -0.2029  0.2462  0.1220
  940MOL0     C24008   5.869   9.705   7.041  0.9317  0.0189 -0.1403
  940MOL0     C24009   5.957   9.590   6.971 -1.3165 -0.0921 -0.2463
  940MOL0     C24010   6.104   9.621   6.968 -0.3869 -0.9973  0.0805
  940MOL0     C24011   6.181   9.522   6.896 -0.3813  0.2404  0.5210
  940MOL0     C24012   6.234   9.423   6.853 -0.6475 -0.9217 -0.7574
  940MOL0     C24013   5.508   9.846   7.283  0.0335 -1.2236 -0.8799
  940MOL0     C24014   5.387   9.857   7.348  0.4011  0.2274 -0.0739
  940MOL0     H24015   4.888   9.873   7.404  0.9534  3.2149  0.1181
  940MOL0     H24016   4.701   9.838   7.544 -0.9744 -1.1205  1.5023
  940MOL0     H24017   4.522   9.748   7.719  1.2820 -0.6505  0.6951
  940MOL0     H24018   4.563   9.923   7.672 -2.3321  0.9315  1.8574
  940MOL0     H24019   4.536  10.011   7.870  0.8504 -0.4381 -1.1994
  940MOL0     H24020   4.488   9.858   7.942 -1.5584 -0.1941  0.3477
  940MOL0     H24021   4.311   9.830   7.757 -0.6833  0.0937 -1.2958
  940MOL0     H24022   4.338   9.990   7.713 -0.3024 -0.6811 -0.3331
  940MOL0     H24023   4.232   9.894   7.978  1.8805 -0.6091 -1.1463
  940MOL0     H24024   4.306  10.061   7.949  0.4042  2.3779 -1.3130
  940MOL0     H24025   4.116   9.951   7.758  1.1622 -1.8056  0.9386
  940MOL0     H24026   4.134  10.125   7.794 -3.4442 -0.0406 -1.5285
  940MOL0     H24027   4.003  10.101   8.009  1.9876 -1.4275  2.5801
  940MOL0     H24028   3.976   9.932   7.986 -0.8858  1.4073  2.4101
  940MOL0     H24029   3.788  10.062   7.917  2.6458  0.8489  0.5678
  940MOL0     H24030   3.875  10.142   7.783  1.6809  1.7977  0.5947
  940MOL0     H24031   3.846   9.831   7.833  0.8857 -0.8791 -0.9525
  940MOL0     H24032   3.880   9.913   7.678 -3.4131  2.0971 -3.2545
  940MOL0     H24033   3.587  10.110   7.723  0.3575  0.0294 -0.6136
  940MOL0     H24034   3.271   9.872   7.697 -1.1412  1.1388 -1.0991
  940MOL0     H24035   3.304  10.039   7.644  0.9982  0.9791  0.9024
  940MOL0     H24036   3.329  10.014   7.923  0.7464 -0.0724 -0.4191
  940MOL0     H24037   3.175   9.948   7.876  1.1840 -1.6899 -1.1428
  940MOL0     H24038   3.273  10.223   7.841 -0.6900  0.5829  1.1734
  940MOL0     H24039   3.132  10.165   7.741 -1.6462 -0.1005  0.1189
  940MOL0     H24040   3.076  10.303   7.941  5.0309  0.5364  1.2841
  940MOL0     H24041   3.145  10.196   8.046 -1.0070  2.6175  2.0779
  940MOL0     H24042   2.970  10.289   8.172  2.7984 -4.0011  1.1553
  940MOL0     H24043   2.806  10.285   8.342 -0.8962  2.2316 -1.6400
  940MOL0     H24044   2.201  10.071   8.227 -0.6022 -0.7225  0.4678
  940MOL0     H24045   1.984  10.137   8.317 -0.4130  1.1552 -1.1845
  940MOL0     H24046   1.827  10.387   8.645  2.1044  1.9085 -0.0158
  940MOL0     H24047   1.989  10.395   8.705  1.8165 -2.2614  2.2356
  940MOL0     H24048   1.913  10.230   8.844  0.7043 -1.6657  0.0045
  940MOL0     H24049   1.980  10.135   8.712  0.4262  0.3529  0.4134
  940MOL0     H24050   1.789  10.074   8.607  3.2054 -1.5586  1.3612
  940MOL0     H24051   1.689  10.189   8.696 -0.5250  0.2005  1.5988
  940MOL0     H24052   1.826   9.927   8.791  1.1304  0.4677 -2.7401
  940MOL0     H24053   1.755  10.046   8.916  1.3623 -1.5544  0.6467
  940MOL0     H24054   1.548  10.024   8.759 -2.8125 -1.0220  0.8503
  940MOL0     H24055   1.575   9.912   8.889 -2.5185  0.8025 -1.0821
  940MOL0     H24056   1.683   9.749   8.731  0.3295  0.6425 -1.6835
  940MOL0     H24057   1.674   9.868   8.604  1.1036 -1.9075  0.0897
  940MOL0     H24058   1.434   9.723   8.736 -2.4222 -1.4411 -0.6891
  940MOL0     H24059   1.412   9.871   8.649  2.0592  1.1481 -3.5036
  940MOL0     H24060   1.344   9.675   8.544 -1.4504  0.4917 -1.7604
  940MOL0     H24061   1.514   9.623   8.519 -0.1888  0.9518 -1.2521
  940MOL0     H24062   2.190  10.348   8.630  0.5333 -1.1529  0.6649
  940MOL0     H24063   2.385  10.272   8.566  0.2234  1.2104  0.7310
  940MOL0     H24064   2.549  10.038   8.106 -1.6231  0.1625  3.1428
  940MOL0     H24065   2.746  10.003   7.948  4.3375  0.9600 -0.9848
  940MOL0     H24066   4.924   9.886   7.889 -1.0154 -0.1763 -0.6700
  940MOL0     H24067   5.143   9.879   7.736  0.1838  1.5777 -0.3152
  940MOL0     H24068   5.294   9.538   7.268  0.3972 -0.8063 -0.9368
  940MOL0     H24069   5.492   9.549   7.152 -3.0456 -1.7747  0.4994
  940MOL0     H24070   5.685   9.627   6.987  1.2509  1.7027 -1.0051
  940MOL0     H24071   5.740   9.560   7.141  2.1062 -0.5071 -1.3962
  940MOL0     H24072   5.863   9.793   6.975 -3.1044 -0.7544 -1.0612
  940MOL0     H24073   5.914   9.729   7.137 -3.2908 -0.1869  2.1499
  940MOL0     H24074   5.918   9.591   6.868 -4.1368  2.2942  0.6925
  940MOL0     H24075   5.933   9.496   7.022  2.7823 -1.2136 -0.0655
  940MOL0     H24076   6.120   9.719   6.922 -0.3666 -0.9073  0.2782
  940MOL0     H24077   6.136   9.624   7.073  1.1242  2.6988 -0.3577
  940MOL0     H24078   6.298   9.348   6.810  1.7288  1.0955 -0.9546
  940MOL0     H24079   5.576   9.931   7.280  1.2876 -2.1561  0.0724
  940MOL0     H24080   5.360   9.943   7.408 -1.3786 -0.3259 -0.0257
  941MOL0     O24081   3.982   5.993   6.183 -0.4112 -0.1031 -0.1819
  941MOL0     C24082   3.958   6.084   6.108  0.3758 -0.5381  0.2014
  941MOL0     O24083   4.050   6.151   6.037 -0.3688  0.0563  0.5876
  941MOL0     C24084   4.179   6.129   6.080  0.1330  0.4844 -0.5715
  941MOL0     C24085   4.248   6.016   6.038  0.2634  0.3624 -0.4177
  941MOL0     C24086   4.350   5.970   6.113  0.2869  0.2493 -0.2621
  941MOL0     C24087   4.409   6.045   6.211  0.3520 -0.4593 -0.5289
  941MOL0     O24088   4.509   5.994   6.288 -0.8129  0.3494  0.5064
  941MOL0     C24089   4.601   5.899   6.232  0.1755 -0.1831 -0.6196
  941MOL0     C24090   4.712   5.879   6.334 -0.0858 -0.1924 -0.9080
  941MOL0     C24091   4.825   5.991   6.329  0.0785  0.3178  0.7323
  941MOL0     C24092   4.945   5.942   6.406  0.0740  1.1112 -0.0539
  941MOL0     C24093   5.054   6.053   6.415  0.0740 -0.0865  0.3859
  941MOL0     C24094   5.176   6.002   6.490 -0.4364 -0.2441 -0.0971
  941MOL0     C24095   5.157   5.905   6.607 -0.9703  0.1546  0.4070
  941MOL0     C24096   5.287   5.867   6.679  0.4000 -0.8081  0.6985
  941MOL0     N24097   5.373   5.773   6.614 -0.1829 -0.2460 -0.5901
  941MOL0     C24098   5.475   5.796   6.528  0.6209  0.0264 -0.7529
  941MOL0     C24099   5.519   5.675   6.506 -0.3756 -0.5043  0.3397
  941MOL0     C24100   5.634   5.654   6.418  0.1785  0.5090  0.1752
  941MOL0     C24101   5.773   5.623   6.479 -0.8098  0.1710 -0.0866
  941MOL0     C24102   5.783   5.483   6.541 -0.8231 -0.1792 -0.8604
  941MOL0     C24103   5.831   5.366   6.461  0.0093 -0.1278  1.0329
  941MOL0     O24104   5.778   5.232   6.506  0.7917 -0.6392 -0.6912
  941MOL0     C24105   5.646   5.199   6.503 -0.0821 -0.9642 -0.0343
  941MOL0     C24106   5.613   5.069   6.540 -0.3192  0.3594 -0.1134
  941MOL0     C24107   5.482   5.023   6.528 -0.0118 -0.3944 -0.1928
  941MOL0     C24108   5.373   5.107   6.496  0.3723 -0.4474  0.2403
  941MOL0     C24109   5.237   5.055   6.476  0.6981 -0.0030 -0.3534
  941MOL0     O24110   5.139   5.148   6.449  0.2042 -0.5200 -0.1374
  941MOL0     C24111   5.001   5.130   6.472 -0.3615 -0.7169  0.2832
  941MOL0     C24112   4.909   5.201   6.390 -0.8440  0.1887 -0.1466
  941MOL0     C24113   4.775   5.177   6.386  0.1693 -0.7310 -0.8866
  941MOL0     C24114   4.711   5.088   6.480  0.8856 -0.3254  0.1770
  941MOL0     O24115   4.581   5.081   6.467 -0.2559  0.0617 -0.2582
  941MOL0     C24116   4.501   5.012   6.558  0.1822  0.5150 -0.4775
  941MOL0     C24117   4.349   5.053   6.549  0.2117  0.7941 -0.4953
  941MOL0     C24118   4.289   5.019   6.407 -0.7257 -0.8814  1.0215
  941MOL0     C24119   4.269   4.867   6.393 -0.3769 -0.8798 -0.0784
  941MOL0     C24120   4.149   4.831   6.314  0.5921 -0.1063  0.2963
  941MOL0     C24121   4.160   4.873   6.170 -0.7671 -0.5219 -0.5801
  941MOL0     C24122   4.037   4.825   6.085 -1.3309 -0.2690  1.3499
  941MOL0     C24123   4.044   4.873   5.940  0.3019 -0.2117 -0.5210
  941MOL0    Cl24124   4.029   5.049   5.948 -0.0804 -0.3768 -0.1940
  941MOL0     C24125   4.800   5.018   6.566 -0.3527  0.1373  0.2419
  941MOL0     C24126   4.946   5.035   6.563  0.8344  0.2843  0.0961
  941MOL0     O24127   5.219   4.933   6.490  0.1735 -0.7091  0.5439
  941MOL0     C24128   5.407   5.238   6.457  0.5388 -0.2885  0.2914
  941MOL0     C24129   5.536   5.285   6.461 -0.7437  0.0742 -0.6200
  941MOL0     N24130   5.450   5.572   6.569  0.8599  0.5095  0.3307
  941MOL0     N24131   5.358   5.641   6.628  0.4826 -0.4531 -0.5708
  941MOL0     C24132   4.356   6.170   6.246  0.8141  0.0082 -0.5838
  941MOL0     C24133   4.230   6.209   6.182 -1.2160 -0.0342 -0.1933
  941MOL0     C24134   3.815   6.126   6.099  0.3849  0.2338  0.4642
  941MOL0     C24135   3.761   6.241   6.037 -0.3595 -0.0180 -0.8045
  941MOL0     C24136   3.628   6.269   6.024  0.5368 -0.2408  0.1376
  941MOL0     C24137   3.529   6.184   6.076 -1.0824  0.0719 -0.8941
  941MOL0     O24138   3.396   6.193   6.054 -0.0368  0.1050 -0.2709
  941MOL0     C24139   3.351   6.246   5.930 -0.7853 -0.8824 -0.4010
  941MOL0     C24140   3.214   6.193   5.898  0.8913 -0.1876  0.3432
  941MOL0     C24141   3.108   6.243   6.002 -0.1946  0.7412 -0.0708
  941MOL0     C24142   2.981   6.160   6.005 -1.0710  0.1253  0.3975
  941MOL0     C24143   2.906   6.156   5.878 -0.3926 -0.2405  0.4457
  941MOL0     C24144   2.841   6.133   5.779 -0.3513  0.4622  0.4105
  941MOL0     C24145   3.579   6.082   6.160 -1.0712  0.2484 -0.0686
  941MOL0     C24146   3.717   6.053   6.171  0.4142  0.0936  0.0590
  941MOL0     H24147   4.211   5.960   5.954  0.8286  2.3555 -2.0802
  941MOL0     H24148   4.377   5.868   6.088 -1.3682 -0.5284  0.9469
  941MOL0     H24149   4.640   5.928   6.134  2.1219 -1.7656 -0.3816
  941MOL0     H24150   4.544   5.807   6.225 -0.3167  0.2776 -4.2746
  941MOL0     H24151   4.769   5.786   6.333  0.3173  0.0401 -0.3728
  941MOL0     H24152   4.670   5.885   6.435 -2.3298 -1.9476 -1.6646
  941MOL0     H24153   4.770   6.084   6.344 -3.5456 -1.5659  0.3828
  941MOL0     H24154   4.877   6.009   6.234 -2.2405 -0.4969 -0.7857
  941MOL0     H24155   4.911   5.914   6.506 -0.0762  1.2964 -0.0534
  941MOL0     H24156   5.003   5.859   6.362 -0.1140 -0.1028  1.8786
  941MOL0     H24157   5.017   6.142   6.465 -0.2888  1.7041 -2.8478
  941MOL0     H24158   5.081   6.085   6.314 -0.3908 -1.3670 -0.1626
  941MOL0     H24159   5.231   6.092   6.520  0.2343 -0.6184 -0.2015
  941MOL0     H24160   5.234   5.952   6.412 -1.9109  0.3619 -1.6433
  941MOL0     H24161   5.078   5.949   6.667 -2.3480  1.8571 -2.4114
  941MOL0     H24162   5.120   5.810   6.568  0.5604 -1.2884  2.2835
  941MOL0     H24163   5.274   5.833   6.782  1.2853 -3.3928  0.0207
  941MOL0     H24164   5.342   5.962   6.689  0.0880 -0.4901 -0.4880
  941MOL0     H24165   5.508   5.891   6.489 -1.4514  0.9480 -0.3628
  941MOL0     H24166   5.655   5.741   6.356  2.4188 -1.7375 -2.4428
  941MOL0     H24167   5.599   5.573   6.353 -1.1699  0.7005  0.6285
  941MOL0     H24168   5.781   5.698   6.559 -0.0526 -0.0900  0.0898
  941MOL0     H24169   5.849   5.634   6.401 -0.1084 -1.2214  0.3682
  941MOL0     H24170   5.849   5.483   6.629  0.4780  1.0422 -1.7935
  941MOL0     H24171   5.692   5.443   6.588  0.0568  0.7066  1.7846
  941MOL0     H24172   5.939   5.355   6.458  0.0490  0.2933  0.7398
  941MOL0     H24173   5.801   5.386   6.357  0.4376  0.8780  1.0911
  941MOL0     H24174   5.692   4.998   6.561 -1.7433 -2.1248 -2.4651
  941MOL0     H24175   5.467   4.916   6.539 -0.0008 -0.4146 -0.3722
  941MOL0     H24176   4.952   5.268   6.316 -2.0174  1.3408  0.1901
  941MOL0     H24177   4.725   5.218   6.299  2.5516 -0.6464 -2.2991
  941MOL0     H24178   4.531   5.017   6.663 -0.7138 -3.3310  0.1208
  941MOL0     H24179   4.521   4.907   6.535  4.6338  0.7377  1.4407
  941MOL0     H24180   4.344   5.161   6.568  5.6009  1.1504  0.3104
  941MOL0     H24181   4.294   5.002   6.628  0.9917 -1.6477 -1.4515
  941MOL0     H24182   4.358   5.055   6.331  1.1294  0.2898  3.1453
  941MOL0     H24183   4.188   5.062   6.399 -1.4337 -1.9895  3.1299
  941MOL0     H24184   4.353   4.807   6.355  2.3709  0.2651  3.6065
  941MOL0     H24185   4.263   4.832   6.497  1.1193  0.6203  0.5521
  941MOL0     H24186   4.059   4.871   6.361  0.2846 -0.5521  0.1020
  941MOL0     H24187   4.134   4.722   6.320  2.7415 -0.4291  0.6902
  941MOL0     H24188   4.258   4.844   6.132 -0.6173  0.7485 -1.2265
  941MOL0     H24189   4.162   4.982   6.168  2.3541 -0.4582 -4.3835
  941MOL0     H24190   4.031   4.716   6.086 -0.3884 -0.3624 -0.0687
  941MOL0     H24191   3.946   4.862   6.134 -1.5656  1.8092 -0.4891
  941MOL0     H24192   3.970   4.815   5.884  2.2426 -3.0661 -0.3214
  941MOL0     H24193   4.136   4.842   5.890  0.7917 -0.3272  0.4357
  941MOL0     H24194   4.765   4.950   6.644  2.6619 -0.0332  1.5659
  941MOL0     H24195   5.007   4.969   6.623 -0.3854 -0.5883  0.4218
  941MOL0     H24196   5.336   5.319   6.444  0.6671 -0.4304 -1.4865
  941MOL0     H24197   5.547   5.389   6.431 -0.9640  0.9457  2.0975
  941MOL0     H24198   4.405   6.220   6.329  0.4625 -2.4045  1.1948
  941MOL0     H24199   4.191   6.308   6.203  3.1995  1.5195  1.8269
  941MOL0     H24200   3.832   6.321   6.018 -0.4858  0.7188  1.4895
  941MOL0     H24201   3.599   6.366   5.984 -3.9673 -0.6710  1.7032
  941MOL0     H24202   3.420   6.220   5.849  0.3597 -1.4526  0.7210
  941MOL0     H24203   3.342   6.355   5.937  0.0126 -0.6543 -2.4339
  941MOL0     H24204   3.190   6.236   5.800 -0.2472 -2.2036 -0.3115
  941MOL0     H24205   3.220   6.084   5.889 -1.4569 -0.3616  0.3065
  941MOL0     H24206   3.082   6.346   5.979 -1.5930  0.2509 -0.7738
  941MOL0     H24207   3.164   6.240   6.096  0.4047  3.4812 -0.2636
  941MOL0     H24208   3.000   6.055   6.028 -2.1736  0.0129  0.8440
  941MOL0     H24209   2.921   6.200   6.087  0.5288  0.7214  1.3271
  941MOL0     H24210   2.779   6.099   5.699  1.2154 -1.5240 -0.0371
  941MOL0     H24211   3.514   6.013   6.213 -0.2012  1.8410  3.3717
  941MOL0     H24212   3.745   5.966   6.230  2.1166  1.4545  1.4077
  942MOL0     O24213   0.399   9.404   0.663 -0.4215  0.1408 -0.2303
  942MOL0     C24214   0.449   9.385   0.770 -0.0278  0.2183  0.2780
  942MOL0     O24215   0.387   9.338   0.881  0.1174 -0.4316 -0.7316
  942MOL0     C24216   0.260   9.287   0.874  0.0068  0.7156  0.3907
  942MOL0     C24217   0.243   9.171   0.801  0.3882 -0.5922  0.6907
  942MOL0     C24218   0.117   9.113   0.782 -0.8187 -0.0300  0.8223
  942MOL0     C24219   0.004   9.172   0.843 -0.1457  0.3537 -0.5118
  942MOL0     O24220  -0.127   9.121   0.824  0.7732  0.0873 -0.2374
  942MOL0     C24221  -0.208   9.113   0.940 -0.1381  0.6346  0.3821
  942MOL0     C24222  -0.345   9.050   0.895 -0.2582  0.1176 -0.2205
  942MOL0     C24223  -0.436   9.008   1.012  0.3215  0.3067 -0.3961
  942MOL0     C24224  -0.404   8.865   1.054  0.4083 -0.3470 -0.0469
  942MOL0     C24225  -0.502   8.806   1.142 -0.4943  0.1444 -0.4271
  942MOL0     C24226  -0.644   8.796   1.089  0.2519 -0.2359 -0.5120
  942MOL0     C24227  -0.741   8.753   1.198  0.1624 -0.2451 -0.3006
  942MOL0     C24228  -0.869   8.705   1.125 -0.0188 -0.0492 -0.1182
  942MOL0     N24229  -0.990   8.724   1.217 -0.1116  1.0985 -0.1523
  942MOL0     C24230  -1.114   8.670   1.200  0.1192 -0.4240  0.3620
  942MOL0     C24231  -1.188   8.684   1.317 -0.8562 -0.0531  0.7896
  942MOL0     C24232  -1.320   8.626   1.356  0.2925  0.2493  0.3184
  942MOL0     C24233  -1.423   8.742   1.360 -0.3783 -0.5058 -0.0323
  942MOL0     C24234  -1.558   8.679   1.341 -0.0535 -0.1605 -0.0581
  942MOL0     C24235  -1.668   8.781   1.380 -0.2000  0.7937  0.0280
  942MOL0     O24236  -1.674   8.867   1.270  0.8477  0.0957  0.1266
  942MOL0     C24237  -1.718   8.997   1.297  0.8370  0.6235 -0.0578
  942MOL0     C24238  -1.769   9.053   1.414 -1.0541  0.1228  0.5702
  942MOL0     C24239  -1.774   9.193   1.420 -0.2198  0.6138  0.4245
  942MOL0     C24240  -1.772   9.276   1.310 -0.1988 -0.1007  0.1754
  942MOL0     C24241  -1.815   9.424   1.337 -0.6287  0.1548  0.6599
  942MOL0     O24242  -1.780   9.513   1.245  0.3003 -0.5722  0.2808
  942MOL0     C24243  -1.829   9.636   1.253 -0.4375  1.0950 -0.6395
  942MOL0     C24244  -1.737   9.733   1.303  0.7666  0.2485 -0.6662
  942MOL0     C24245  -1.779   9.870   1.328 -0.9452  0.2290 -0.4645
  942MOL0     C24246  -1.917   9.905   1.305 -0.6115  0.7670  0.0325
  942MOL0     O24247  -1.953  10.037   1.314 -0.4873  0.3386 -0.2825
  942MOL0     C24248  -1.861  10.126   1.371  0.2062  1.3160 -0.0162
  942MOL0     C24249  -1.921  10.255   1.411  0.1090 -0.1892 -0.2700
  942MOL0     C24250  -2.071  10.239   1.463 -0.0428 -0.0637 -0.4253
  942MOL0     C24251  -2.139  10.366   1.503 -0.9153 -0.0314 -0.0146
  942MOL0     C24252  -2.097  10.421   1.638 -0.2393 -0.2784  0.0764
  942MOL0     C24253  -2.150  10.565   1.649  0.1637 -0.1487 -0.2954
  942MOL0     C24254  -2.136  10.613   1.796  0.5233 -0.1107 -0.0088
  942MOL0     C24255  -2.218  10.740   1.823  0.2496  0.6116  0.4345
  942MOL0    Cl24256  -2.182  10.811   1.974  0.7435 -0.3176  0.0918
  942MOL0     C24257  -2.001   9.808   1.245  0.1755  0.6837 -0.7556
  942MOL0     C24258  -1.958   9.675   1.225 -0.5323  0.3062 -0.3179
  942MOL0     O24259  -1.872   9.439   1.443 -0.0860 -0.3322 -0.5211
  942MOL0     C24260  -1.734   9.212   1.186  0.6882  0.3849 -0.7395
  942MOL0     C24261  -1.709   9.082   1.184 -0.1891  0.3436 -0.9738
  942MOL0     N24262  -1.093   8.739   1.404 -0.6320  0.9042 -0.0101
  942MOL0     N24263  -0.978   8.767   1.347  0.0367 -0.4597  0.8549
  942MOL0     C24264   0.019   9.287   0.922 -0.0557 -0.3878  0.4655
  942MOL0     C24265   0.149   9.343   0.943  1.1659  0.5692  0.2157
  942MOL0     C24266   0.593   9.415   0.777 -0.3843 -1.2154  0.2984
  942MOL0     C24267   0.653   9.419   0.911  0.0984  0.5588 -0.1266
  942MOL0     C24268   0.790   9.438   0.907  0.3133  0.6396 -0.2288
  942MOL0     C24269   0.873   9.451   0.797  0.5183  0.3205 -0.3576
  942MOL0     O24270   1.011   9.455   0.803  0.5344  0.2020  0.4256
  942MOL0     C24271   1.075   9.364   0.902 -0.9922 -0.3297 -0.2992
  942MOL0     C24272   1.227   9.388   0.874  0.4240 -0.4434  0.1388
  942MOL0     C24273   1.261   9.386   0.730  0.8816 -0.0229 -0.0514
  942MOL0     C24274   1.404   9.420   0.709 -0.4813  0.1607  0.1389
  942MOL0     C24275   1.489   9.318   0.768 -0.5963  0.0971  0.7671
  942MOL0     C24276   1.577   9.245   0.815  0.6785 -0.4737  0.4766
  942MOL0     C24277   0.814   9.459   0.681  1.4508 -0.1162  0.8101
  942MOL0     C24278   0.671   9.434   0.657 -0.4400  0.4736 -0.3798
  942MOL0     H24279   0.332   9.123   0.763 -1.0906 -1.8630 -1.3408
  942MOL0     H24280   0.105   9.032   0.712  0.2802  1.7816 -1.6094
  942MOL0     H24281  -0.234   9.211   0.980 -0.6990  0.0939  1.4215
  942MOL0     H24282  -0.161   9.050   1.017  0.0878 -0.4197 -0.5961
  942MOL0     H24283  -0.325   8.963   0.833 -4.0075 -2.1720  1.4605
  942MOL0     H24284  -0.398   9.125   0.836 -0.2853 -0.2023 -0.6026
  942MOL0     H24285  -0.539   9.027   0.981  0.8744  0.5995 -2.1172
  942MOL0     H24286  -0.425   9.074   1.100  0.1823 -0.4383  0.1912
  942MOL0     H24287  -0.383   8.805   0.965  3.4711  2.0833 -1.1237
  942MOL0     H24288  -0.309   8.866   1.108 -0.8768 -1.0521  2.3834
  942MOL0     H24289  -0.516   8.879   1.223 -1.1147 -0.2077 -0.2131
  942MOL0     H24290  -0.469   8.710   1.181 -0.1453  0.2830 -0.3707
  942MOL0     H24291  -0.650   8.723   1.007 -1.5595 -0.0392 -0.6053
  942MOL0     H24292  -0.671   8.895   1.051  1.0917 -0.6638 -2.3621
  942MOL0     H24293  -0.701   8.671   1.258  0.9486  1.4050  1.5320
  942MOL0     H24294  -0.753   8.836   1.268  0.1611  0.6463 -1.3310
  942MOL0     H24295  -0.862   8.601   1.090  0.5590  0.6714 -2.2928
  942MOL0     H24296  -0.893   8.754   1.030 -0.7532 -1.9504 -0.9680
  942MOL0     H24297  -1.159   8.627   1.111  0.8939 -3.4526  1.3194
  942MOL0     H24298  -1.333   8.574   1.451 -1.6102  2.4550  1.3418
  942MOL0     H24299  -1.348   8.553   1.279  0.3255  1.5110 -0.9204
  942MOL0     H24300  -1.412   8.809   1.274 -2.0462 -1.6860 -1.2293
  942MOL0     H24301  -1.425   8.799   1.453 -1.0124 -0.6171  0.0295
  942MOL0     H24302  -1.581   8.637   1.243 -0.8526 -0.0916  0.0926
  942MOL0     H24303  -1.570   8.599   1.415  2.5047 -0.4720  0.1031
  942MOL0     H24304  -1.653   8.835   1.474 -0.4572 -0.9473  1.1200
  942MOL0     H24305  -1.755   8.716   1.393  1.2646 -0.8950  2.1307
  942MOL0     H24306  -1.776   8.999   1.508 -1.8034 -3.2394 -1.2590
  942MOL0     H24307  -1.794   9.245   1.513 -1.5842  4.4502 -1.7622
  942MOL0     H24308  -1.636   9.694   1.309  1.5435  1.8197 -2.4951
  942MOL0     H24309  -1.698   9.934   1.362  0.5144 -1.7767 -0.0265
  942MOL0     H24310  -1.772  10.151   1.312  0.7383  1.9530  1.0358
  942MOL0     H24311  -1.831  10.073   1.461 -1.4711 -0.4359 -0.4230
  942MOL0     H24312  -1.931  10.326   1.328  1.4681 -0.7185 -0.9221
  942MOL0     H24313  -1.851  10.306   1.477 -1.2630  2.9863 -1.0883
  942MOL0     H24314  -2.075  10.172   1.550  0.7608  0.0193 -0.3180
  942MOL0     H24315  -2.135  10.189   1.389  2.1126 -2.5680 -0.7477
  942MOL0     H24316  -2.117  10.448   1.435  0.0903  2.2090  2.8279
  942MOL0     H24317  -2.244  10.335   1.514 -1.1030  1.0055  1.4387
  942MOL0     H24318  -1.993  10.423   1.670 -1.1288  0.4137  3.3665
  942MOL0     H24319  -2.146  10.362   1.716  0.4625  0.3100  0.9920
  942MOL0     H24320  -2.259  10.558   1.639  0.0127  0.3062  0.9343
  942MOL0     H24321  -2.117  10.635   1.572 -1.0536  2.7681  1.6511
  942MOL0     H24322  -2.168  10.538   1.869 -1.4215 -1.3002 -1.9318
  942MOL0     H24323  -2.031  10.643   1.801  1.0282 -1.5604 -1.2407
  942MOL0     H24324  -2.327  10.730   1.825  0.0609  1.9981 -1.0595
  942MOL0     H24325  -2.190  10.810   1.744 -0.8757 -1.1679 -1.6427
  942MOL0     H24326  -2.100   9.838   1.212 -2.2666 -0.1122  4.6373
  942MOL0     H24327  -2.027   9.598   1.193 -1.7896 -0.3557  3.4041
  942MOL0     H24328  -1.738   9.263   1.090 -0.3550 -0.0006 -0.9103
  942MOL0     H24329  -1.687   9.037   1.087  1.8012  0.5338 -0.6533
  942MOL0     H24330  -0.063   9.339   0.970 -1.2730 -0.8759 -1.0266
  942MOL0     H24331   0.172   9.424   1.013 -1.9363 -1.7601  4.3829
  942MOL0     H24332   0.591   9.406   0.999 -1.4077  2.2149 -0.8933
  942MOL0     H24333   0.830   9.434   1.008 -2.4277  0.7120  0.9386
  942MOL0     H24334   1.050   9.260   0.878  1.6209 -1.4677  1.4663
  942MOL0     H24335   1.048   9.387   1.005 -2.8713 -0.6422 -0.6800
  942MOL0     H24336   1.253   9.485   0.917 -0.8515  0.0839 -0.2379
  942MOL0     H24337   1.273   9.311   0.937 -1.1558 -1.4866  0.0779
  942MOL0     H24338   1.206   9.464   0.676 -0.4662 -0.0630  1.2029
  942MOL0     H24339   1.233   9.292   0.681 -1.1980  0.5826 -0.1311
  942MOL0     H24340   1.423   9.422   0.602 -1.0921  2.3962  0.0322
  942MOL0     H24341   1.430   9.513   0.762 -0.0958 -1.1053  2.3169
  942MOL0     H24342   1.649   9.173   0.848 -0.2659 -0.3049  3.1272
  942MOL0     H24343   0.865   9.478   0.587 -0.7008 -0.5849 -0.5245
  942MOL0     H24344   0.634   9.424   0.555 -0.3337  4.0484 -0.9087
  943MOL0     O24345   7.946   0.974   4.616  0.5589 -0.1816  0.8652
  943MOL0     C24346   7.974   1.091   4.581  0.7279  0.3195  0.2565
  943MOL0     O24347   8.098   1.143   4.562  0.8542  0.0790 -0.2478
  943MOL0     C24348   8.208   1.072   4.596 -0.8619 -0.2652 -0.3431
  943MOL0     C24349   8.215   1.002   4.718 -1.0321  0.6307  0.2785
  943MOL0     C24350   8.326   0.928   4.748  0.1485  0.6746  0.2189
  943MOL0     C24351   8.435   0.927   4.661 -0.8673  0.5489 -0.2624
  943MOL0     O24352   8.548   0.852   4.693  0.5797  0.3040  1.1252
  943MOL0     C24353   8.565   0.792   4.813  0.1947 -0.5299 -0.2054
  943MOL0     C24354   8.671   0.690   4.789 -0.6255  0.2179  0.1747
  943MOL0     C24355   8.613   0.568   4.708 -0.0217 -0.6809 -0.5782
  943MOL0     C24356   8.715   0.455   4.691 -0.0457 -0.5135  0.5534
  943MOL0     C24357   8.774   0.480   4.550  1.3957 -0.2555 -0.0036
  943MOL0     C24358   8.891   0.390   4.510 -0.0797 -0.5167  0.6739
  943MOL0     C24359   8.915   0.410   4.357 -0.0326 -0.7687  0.5146
  943MOL0     C24360   9.058   0.361   4.306  1.4447 -0.5682 -0.1542
  943MOL0     N24361   9.076   0.217   4.311 -0.4534  0.0373 -0.2462
  943MOL0     C24362   9.063   0.133   4.211  0.5703 -0.3216 -0.3634
  943MOL0     C24363   9.105   0.011   4.262  0.0416 -0.2382 -0.0294
  943MOL0     C24364   9.113  -0.102   4.166  0.2523  0.0811 -0.0877
  943MOL0     C24365   8.982  -0.149   4.100  0.2419 -0.2036 -1.0009
  943MOL0     C24366   8.962  -0.300   4.072  0.0489 -0.1280  0.7325
  943MOL0     C24367   8.823  -0.320   4.000  0.8315  0.7103 -0.0747
  943MOL0     O24368   8.815  -0.240   3.879 -0.6291 -0.7711  0.8518
  943MOL0     C24369   8.695  -0.200   3.832 -0.2970 -0.2281  1.1900
  943MOL0     C24370   8.565  -0.223   3.888 -0.7117 -0.0429 -0.3625
  943MOL0     C24371   8.455  -0.157   3.838 -1.4524 -1.0202  0.0006
  943MOL0     C24372   8.474  -0.091   3.713  0.6619  0.8802 -0.7272
  943MOL0     C24373   8.355  -0.030   3.657 -0.2348 -0.2765 -0.8898
  943MOL0     O24374   8.271   0.026   3.748 -0.4775  0.0914 -0.0508
  943MOL0     C24375   8.155   0.108   3.714 -0.9758  0.5691 -0.4140
  943MOL0     C24376   8.102   0.129   3.581 -0.5433 -0.3506  0.0893
  943MOL0     C24377   7.983   0.200   3.561 -0.3013  0.3862 -0.7659
  943MOL0     C24378   7.900   0.240   3.668  0.5349  0.0893  0.2452
  943MOL0     O24379   7.773   0.297   3.660 -1.3797 -0.2729 -0.3321
  943MOL0     C24380   7.719   0.310   3.534  0.4045  0.0297  0.2868
  943MOL0     C24381   7.607   0.416   3.534 -0.1691  0.0859  0.2096
  943MOL0     C24382   7.467   0.371   3.592 -0.0080 -0.7649 -0.1618
  943MOL0     C24383   7.371   0.490   3.622  0.8016 -0.8391  0.0348
  943MOL0     C24384   7.220   0.444   3.649  1.0143  0.4175 -0.6358
  943MOL0     C24385   7.135   0.405   3.523  0.5544 -0.3959 -0.2600
  943MOL0     C24386   7.003   0.346   3.563  0.2491 -0.4278  0.2192
  943MOL0     C24387   6.907   0.336   3.445 -0.2202  0.7576 -0.9472
  943MOL0    Cl24388   6.829   0.495   3.398 -0.2225  0.1049 -0.2290
  943MOL0     C24389   7.950   0.218   3.796  0.3325 -1.0311  0.8895
  943MOL0     C24390   8.075   0.154   3.821  0.0283  0.4175  0.1771
  943MOL0     O24391   8.357  -0.010   3.535  0.2672 -0.2912 -0.5606
  943MOL0     C24392   8.594  -0.072   3.651  0.2835 -0.3238 -0.5894
  943MOL0     C24393   8.706  -0.133   3.713  0.4148  0.2085  0.5193
  943MOL0     N24394   9.129   0.018   4.399  0.7912  0.0859 -0.3371
  943MOL0     N24395   9.119   0.140   4.422 -0.5277 -1.0077 -0.0384
  943MOL0     C24396   8.441   0.997   4.539 -0.0818 -0.2330 -0.5499
  943MOL0     C24397   8.325   1.072   4.515  0.2456  0.6643  0.2861
  943MOL0     C24398   7.861   1.185   4.587 -0.2547  0.4477 -0.6885
  943MOL0     C24399   7.722   1.146   4.609 -0.3811 -0.0507  0.3690
  943MOL0     C24400   7.621   1.240   4.602 -0.3248  0.0512  0.3029
  943MOL0     C24401   7.645   1.376   4.601  0.7141 -0.2084  0.4112
  943MOL0     O24402   7.546   1.478   4.603  0.4251  0.2186 -0.1116
  943MOL0     C24403   7.420   1.445   4.651 -0.4447  0.7276 -0.0337
  943MOL0     C24404   7.352   1.581   4.692  0.2877  0.1334  0.2108
  943MOL0     C24405   7.236   1.555   4.790  0.4115  0.0052  0.7804
  943MOL0     C24406   7.141   1.674   4.796  0.0541 -0.9067  0.4382
  943MOL0     C24407   7.048   1.651   4.904 -0.5410 -0.2425 -0.1071
  943MOL0     C24408   6.977   1.603   4.989  0.4454 -0.1116 -0.7742
  943MOL0     C24409   7.773   1.410   4.608  0.1847  0.7416  0.3562
  943MOL0     C24410   7.879   1.317   4.602  0.4809 -0.1585 -0.9526
  943MOL0     H24411   8.129   1.020   4.781 -3.0773  0.9758 -2.4474
  943MOL0     H24412   8.327   0.872   4.840  0.0396 -1.0903 -0.8018
  943MOL0     H24413   8.471   0.750   4.852 -0.8294  2.3396  0.6506
  943MOL0     H24414   8.598   0.867   4.885  0.5101 -0.9454  0.0896
  943MOL0     H24415   8.717   0.656   4.883 -0.1410 -0.6507 -0.3622
  943MOL0     H24416   8.760   0.728   4.740  0.1013  0.9844  1.9880
  943MOL0     H24417   8.570   0.613   4.618 -2.0021 -0.1357  0.5680
  943MOL0     H24418   8.531   0.527   4.767  1.5817 -2.1298  0.7285
  943MOL0     H24419   8.786   0.454   4.773 -0.3938  0.0442  0.8672
  943MOL0     H24420   8.657   0.362   4.693  2.1312 -1.9845 -0.6106
  943MOL0     H24421   8.808   0.584   4.546  1.3352 -0.0320  3.1475
  943MOL0     H24422   8.693   0.469   4.477  1.9581  1.8541 -1.0525
  943MOL0     H24423   8.852   0.290   4.530 -1.3615  0.0159  0.8821
  943MOL0     H24424   8.984   0.410   4.564  1.2063  0.7048 -1.8253
  943MOL0     H24425   8.840   0.356   4.297  0.6582 -1.3947  0.2072
  943MOL0     H24426   8.900   0.513   4.322  2.5930 -0.4390  0.1967
  943MOL0     H24427   9.128   0.417   4.369  3.2498 -0.6038 -2.0415
  943MOL0     H24428   9.077   0.393   4.204  1.1255 -0.6627 -0.2436
  943MOL0     H24429   9.040   0.162   4.109  0.2384 -3.5035 -1.3089
  943MOL0     H24430   9.149  -0.193   4.214 -2.1459 -1.1801 -0.5027
  943MOL0     H24431   9.186  -0.071   4.091  1.0376  2.2861  1.4733
  943MOL0     H24432   8.963  -0.084   4.014 -0.6500  1.3559  0.3106
  943MOL0     H24433   8.902  -0.111   4.164  2.8063 -0.1259  2.4140
  943MOL0     H24434   9.035  -0.334   3.998 -0.3447 -2.0128  1.1600
  943MOL0     H24435   8.967  -0.359   4.164  0.0297  1.0441  1.5078
  943MOL0     H24436   8.748  -0.292   4.074 -0.8631 -0.4023 -1.3090
  943MOL0     H24437   8.805  -0.426   3.983  1.0883  0.7658 -0.7381
  943MOL0     H24438   8.577  -0.281   3.978  1.2321  0.6450 -0.1179
  943MOL0     H24439   8.357  -0.157   3.884 -2.5050 -1.2705 -2.0995
  943MOL0     H24440   8.158   0.089   3.496  0.9898 -3.6561  2.4060
  943MOL0     H24441   7.957   0.208   3.456 -2.3729  0.1302 -0.3050
  943MOL0     H24442   7.686   0.219   3.484  0.8215  0.3347 -0.5827
  943MOL0     H24443   7.794   0.348   3.464  0.1847  0.5393  0.3232
  943MOL0     H24444   7.602   0.454   3.432  1.3760 -0.3347 -0.0445
  943MOL0     H24445   7.636   0.500   3.598 -0.0400  0.8129 -0.7868
  943MOL0     H24446   7.486   0.313   3.683 -1.2836 -0.1328  0.5271
  943MOL0     H24447   7.424   0.299   3.521 -2.7260  2.2654 -1.8563
  943MOL0     H24448   7.400   0.548   3.709  0.0164  0.8795 -0.7969
  943MOL0     H24449   7.379   0.557   3.536 -1.2277  1.5303  1.5401
  943MOL0     H24450   7.161   0.511   3.713  1.0949 -2.7857  3.1546
  943MOL0     H24451   7.226   0.357   3.715 -0.3705  0.5873 -0.2444
  943MOL0     H24452   7.204   0.339   3.470  0.9898 -1.2491  1.2989
  943MOL0     H24453   7.103   0.492   3.464 -0.3892 -0.7793 -0.3335
  943MOL0     H24454   7.025   0.249   3.609  0.4171 -0.4569  0.0807
  943MOL0     H24455   6.945   0.406   3.633 -0.5543 -1.4546  0.4734
  943MOL0     H24456   6.831   0.259   3.456 -1.8643  1.9781 -2.9263
  943MOL0     H24457   6.960   0.294   3.359 -1.3447 -2.7179 -0.0984
  943MOL0     H24458   7.891   0.252   3.881  1.1524  2.1039  0.3481
  943MOL0     H24459   8.108   0.133   3.922  0.4224 -0.7859 -0.1839
  943MOL0     H24460   8.606  -0.005   3.566  1.3768  1.0799  0.6172
  943MOL0     H24461   8.799  -0.136   3.657  1.1291  0.1747  1.6828
  943MOL0     H24462   8.523   1.011   4.469 -0.6043 -0.5509 -1.2331
  943MOL0     H24463   8.325   1.128   4.422  1.3308 -2.6123 -1.8579
  943MOL0     H24464   7.684   1.044   4.613 -0.7553 -0.0713 -2.1130
  943MOL0     H24465   7.520   1.208   4.621 -1.8267  2.9586 -1.8924
  943MOL0     H24466   7.424   1.378   4.737  0.7269 -0.0571 -0.6625
  943MOL0     H24467   7.373   1.382   4.575 -0.9221 -1.3798  1.8748
  943MOL0     H24468   7.420   1.660   4.726 -1.6474  1.4169  1.2438
  943MOL0     H24469   7.317   1.631   4.602 -1.2027 -1.0852  0.0632
  943MOL0     H24470   7.285   1.536   4.886  1.4033 -3.4984 -0.2663
  943MOL0     H24471   7.177   1.468   4.759 -0.6702  0.6510  0.9759
  943MOL0     H24472   7.185   1.775   4.800  0.4546 -1.0841  0.6310
  943MOL0     H24473   7.082   1.682   4.705 -1.2411  0.9103  1.3700
  943MOL0     H24474   6.926   1.547   5.064  0.8706  2.2136  1.3987
  943MOL0     H24475   7.796   1.516   4.612  0.2694  0.7746 -0.6856
  943MOL0     H24476   7.978   1.360   4.599  0.6474 -0.4596 -0.0650
  944MOL0     O24477   3.681   5.846   8.426  0.4088 -0.4813 -0.3406
  944MOL0     C24478   3.583   5.893   8.471  0.0950 -0.2457  0.0675
  944MOL0     O24479   3.571   6.013   8.524 -0.4530  0.0650  0.3423
  944MOL0     C24480   3.687   6.085   8.532 -0.6552 -1.5121  0.2617
  944MOL0     C24481   3.777   6.119   8.425 -0.4883  0.8004 -0.6059
  944MOL0     C24482   3.899   6.186   8.452  0.2262 -0.5408  0.3413
  944MOL0     C24483   3.925   6.230   8.582  0.2135  0.0402  1.2571
  944MOL0     O24484   4.035   6.308   8.588 -1.2158 -0.3875 -0.3638
  944MOL0     C24485   4.067   6.365   8.713  0.1948  0.0337  0.3368
  944MOL0     C24486   4.208   6.420   8.705  0.1781  0.2334  0.0090
  944MOL0     C24487   4.253   6.486   8.834 -0.2104 -0.2106 -0.1479
  944MOL0     C24488   4.306   6.390   8.940  0.2288  0.7327 -0.1635
  944MOL0     C24489   4.354   6.472   9.062 -0.2422 -0.2565  0.6974
  944MOL0     C24490   4.401   6.381   9.171 -0.0113  1.0992  0.3813
  944MOL0     C24491   4.450   6.453   9.297  0.5651 -0.7210 -0.1011
  944MOL0     C24492   4.509   6.353   9.398 -0.8749 -1.0694  0.4597
  944MOL0     N24493   4.548   6.446   9.509 -0.0679  1.0631  0.7087
  944MOL0     C24494   4.658   6.517   9.518  0.3654  0.3628 -0.2153
  944MOL0     C24495   4.659   6.586   9.636 -0.3716  0.4891 -0.2587
  944MOL0     C24496   4.763   6.681   9.688 -0.4622  1.0207 -0.3220
  944MOL0     C24497   4.837   6.604   9.797  0.0703 -0.2176  0.2059
  944MOL0     C24498   4.894   6.466   9.758  0.5967  0.3871 -1.1780
  944MOL0     C24499   4.977   6.478   9.625 -0.3626 -0.5968  0.8270
  944MOL0     O24500   5.067   6.594   9.627 -0.0618  0.3681 -0.2453
  944MOL0     C24501   5.192   6.576   9.681 -0.4805  0.2883  0.0022
  944MOL0     C24502   5.248   6.693   9.724 -0.6701 -0.2811 -0.1378
  944MOL0     C24503   5.376   6.699   9.796  0.1077 -0.0080  0.1668
  944MOL0     C24504   5.457   6.577   9.807  0.1988 -0.2126  0.4515
  944MOL0     C24505   5.590   6.589   9.864  0.2667  0.3921  0.6276
  944MOL0     O24506   5.608   6.706   9.938  0.5040 -0.0263 -0.4083
  944MOL0     C24507   5.714   6.723  10.021 -1.6006  0.7041  0.2282
  944MOL0     C24508   5.782   6.616  10.104  0.8735 -0.6989 -0.5607
  944MOL0     C24509   5.882   6.652  10.190  0.0966 -1.3677 -0.0632
  944MOL0     C24510   5.936   6.784  10.195 -0.0174 -0.2301  1.1447
  944MOL0     O24511   6.040   6.830  10.271  0.4408 -0.0553  0.3457
  944MOL0     C24512   6.064   6.770  10.394 -0.2888 -0.2962  0.3113
  944MOL0     C24513   6.129   6.886  10.482 -0.3999  0.4501 -0.1895
  944MOL0     C24514   6.202   6.833  10.600  0.2193 -0.5283  0.4009
  944MOL0     C24515   6.225   6.929  10.708  0.1776 -1.0345  0.0039
  944MOL0     C24516   6.342   6.898  10.803 -0.1821  0.1366  0.6167
  944MOL0     C24517   6.332   6.771  10.887  0.5826  0.2866 -0.5106
  944MOL0     C24518   6.211   6.785  10.999 -0.2240  0.1888  0.6095
  944MOL0     C24519   6.241   6.701  11.124  1.1383 -0.1964  0.9409
  944MOL0    Cl24520   6.159   6.540  11.119  0.1853  0.0417 -0.0671
  944MOL0     C24521   5.902   6.870  10.099 -0.1732  0.0156 -0.0541
  944MOL0     C24522   5.784   6.844  10.016  0.6480 -0.3073  0.2700
  944MOL0     O24523   5.657   6.487   9.861  0.7678  0.2836  0.2282
  944MOL0     C24524   5.402   6.464   9.753 -0.6133  0.6085  0.6270
  944MOL0     C24525   5.268   6.456   9.707 -0.4667 -0.0475  0.8133
  944MOL0     N24526   4.550   6.540   9.699 -0.3954  0.4826  0.5035
  944MOL0     N24527   4.478   6.458   9.622 -0.0371 -0.0735 -0.1150
  944MOL0     C24528   3.843   6.203   8.688  0.7651 -0.1257 -0.0141
  944MOL0     C24529   3.730   6.130   8.663  0.3825  0.2760  0.4596
  944MOL0     C24530   3.457   5.819   8.457  0.3868 -0.0376  0.5883
  944MOL0     C24531   3.456   5.680   8.440 -0.2431 -0.1558  1.3282
  944MOL0     C24532   3.338   5.608   8.414 -0.2842 -0.3460 -0.5246
  944MOL0     C24533   3.210   5.672   8.413  0.2909 -0.2708  0.7754
  944MOL0     O24534   3.097   5.594   8.382 -0.7260 -0.1295 -0.2298
  944MOL0     C24535   2.966   5.657   8.389 -0.5683 -0.4541 -1.0247
  944MOL0     C24536   2.859   5.548   8.346  0.4193 -0.3740  0.7425
  944MOL0     C24537   2.713   5.608   8.344 -0.4523 -0.3418 -0.5595
  944MOL0     C24538   2.609   5.508   8.303  0.0037 -0.0511  0.4635
  944MOL0     C24539   2.477   5.528   8.366 -0.4808  0.1870 -0.1718
  944MOL0     C24540   2.366   5.528   8.402 -0.1358  0.0517 -0.0231
  944MOL0     C24541   3.212   5.804   8.440  0.0794  0.2485  0.3799
  944MOL0     C24542   3.329   5.880   8.458  0.2531  0.0698  0.1779
  944MOL0     H24543   3.752   6.104   8.320  0.1200  2.1512 -0.9639
  944MOL0     H24544   3.958   6.199   8.362 -4.2937  1.6656 -2.7323
  944MOL0     H24545   4.077   6.292   8.794  1.6857 -0.3786 -0.1824
  944MOL0     H24546   3.998   6.445   8.742 -0.3224 -0.4988  0.5979
  944MOL0     H24547   4.220   6.485   8.617  1.0058 -2.1930 -1.7752
  944MOL0     H24548   4.272   6.333   8.688 -1.7018 -0.9840 -1.0536
  944MOL0     H24549   4.188   6.566   8.868  0.9989 -0.1525  2.2321
  944MOL0     H24550   4.328   6.551   8.788  0.0037 -0.5753 -0.3202
  944MOL0     H24551   4.217   6.336   8.974 -2.0910  2.3217 -3.1571
  944MOL0     H24552   4.384   6.326   8.898  0.3926  1.5265 -1.1038
  944MOL0     H24553   4.273   6.529   9.107 -3.2386 -3.1077 -0.5975
  944MOL0     H24554   4.437   6.537   9.031  2.2359 -3.7533 -0.7408
  944MOL0     H24555   4.481   6.325   9.121  0.5565  1.7383  0.5666
  944MOL0     H24556   4.324   6.306   9.192  1.2441 -0.7744 -1.3237
  944MOL0     H24557   4.520   6.534   9.275 -0.5099 -0.2646 -2.0886
  944MOL0     H24558   4.364   6.496   9.350 -0.4949 -0.5063 -1.9073
  944MOL0     H24559   4.600   6.307   9.358 -0.3402  0.7278 -0.4559
  944MOL0     H24560   4.446   6.272   9.437 -1.8356  0.5587  2.4856
  944MOL0     H24561   4.737   6.549   9.451 -0.7979 -0.9947 -2.3743
  944MOL0     H24562   4.708   6.763   9.735  0.9685  0.7033  2.0516
  944MOL0     H24563   4.829   6.723   9.612  1.5622 -0.2531  0.6406
  944MOL0     H24564   4.766   6.591   9.880  1.2830 -0.0045  1.3088
  944MOL0     H24565   4.923   6.659   9.836  2.3193 -1.7489 -2.2780
  944MOL0     H24566   4.953   6.429   9.842 -2.0430 -0.8324  0.2427
  944MOL0     H24567   4.814   6.396   9.734 -0.6081  0.7576  1.4796
  944MOL0     H24568   4.905   6.501   9.545  0.0862 -0.1532  0.5476
  944MOL0     H24569   5.041   6.394   9.597  2.8534  1.4838  1.4183
  944MOL0     H24570   5.202   6.789   9.703  1.7761  0.8451 -0.7766
  944MOL0     H24571   5.422   6.789   9.837  3.6033 -1.5365  0.0047
  944MOL0     H24572   5.733   6.519  10.092  0.3719 -0.2305 -2.6583
  944MOL0     H24573   5.913   6.565  10.248  0.1187 -1.7658 -0.6556
  944MOL0     H24574   6.138   6.690  10.383  1.1826  0.7397  2.0913
  944MOL0     H24575   5.976   6.718  10.434  1.0119 -2.3020  0.6941
  944MOL0     H24576   6.056   6.959  10.519  2.9993  2.8582  2.3541
  944MOL0     H24577   6.196   6.935  10.411 -0.3977  0.0139 -0.4864
  944MOL0     H24578   6.292   6.772  10.583  2.2802  1.0924  4.2154
  944MOL0     H24579   6.137   6.752  10.634 -0.2805 -0.9898 -1.5455
  944MOL0     H24580   6.250   7.025  10.661 -2.4272  0.4603  1.4427
  944MOL0     H24581   6.134   6.960  10.760  1.0410  0.8695  0.4750
  944MOL0     H24582   6.377   6.982  10.863  3.1375 -0.5228 -0.1946
  944MOL0     H24583   6.431   6.897  10.741  0.6438  2.7356  1.6137
  944MOL0     H24584   6.428   6.754  10.938  1.0504 -1.8255 -1.9631
  944MOL0     H24585   6.317   6.680  10.828 -0.4141 -0.1848  0.4192
  944MOL0     H24586   6.205   6.891  11.026  0.6838  0.3651  0.1617
  944MOL0     H24587   6.113   6.763  10.956 -1.1295  1.5213  1.9091
  944MOL0     H24588   6.207   6.754  11.214 -1.3612 -0.2210  0.0841
  944MOL0     H24589   6.351   6.701  11.129  1.2101  1.5980 -0.0189
  944MOL0     H24590   5.944   6.970  10.094 -0.8247  0.2436 -1.3507
  944MOL0     H24591   5.764   6.927   9.950  1.9528  0.3765  0.6981
  944MOL0     H24592   5.459   6.372   9.747 -2.0214 -0.2607  0.1360
  944MOL0     H24593   5.235   6.356   9.681  0.3062 -1.0562  3.4075
  944MOL0     H24594   3.860   6.217   8.795  0.6803 -1.5353  0.2032
  944MOL0     H24595   3.670   6.098   8.748 -0.7937 -1.2395 -0.9054
  944MOL0     H24596   3.549   5.625   8.453  0.0694 -0.0506 -0.2468
  944MOL0     H24597   3.348   5.500   8.413  1.8916 -0.1718 -0.8541
  944MOL0     H24598   2.978   5.737   8.316  3.3212  1.5746  1.4815
  944MOL0     H24599   2.949   5.688   8.493 -0.9915 -0.8858 -0.9582
  944MOL0     H24600   2.884   5.516   8.245  0.4169 -1.6870  1.1447
  944MOL0     H24601   2.872   5.465   8.416  0.1987  1.3727  2.9803
  944MOL0     H24602   2.708   5.700   8.285 -1.2567 -1.4338 -2.2725
  944MOL0     H24603   2.690   5.623   8.450 -0.9117 -0.1637 -0.6820
  944MOL0     H24604   2.607   5.501   8.194 -1.3296  0.6328  0.4309
  944MOL0     H24605   2.645   5.417   8.353 -1.1122  2.4062  6.6504
  944MOL0     H24606   2.260   5.520   8.418 -0.1443 -2.5086 -0.9080
  944MOL0     H24607   3.119   5.858   8.456  0.1478 -0.2240  2.8353
  944MOL0     H24608   3.305   5.985   8.475 -1.9749 -0.0195 -1.8794
  945MOL0     O24609   5.111  10.028   6.002 -0.1091 -0.2412 -0.7795
  945MOL0     C24610   5.098  10.068   5.888  0.1314  0.1337  0.0960
  945MOL0     O24611   4.986  10.047   5.811  0.6360  0.5828  0.5307
  945MOL0     C24612   4.874  10.010   5.871 -0.0215 -0.4615  0.1867
  945MOL0     C24613   4.768  10.100   5.877 -0.1103  0.8563  0.3469
  945MOL0     C24614   4.650  10.071   5.945 -0.0566  0.1041 -0.3896
  945MOL0     C24615   4.631   9.935   5.993  0.5532 -0.5993  0.4103
  945MOL0     O24616   4.520   9.895   6.067 -0.1263 -0.4849 -0.2704
  945MOL0     C24617   4.409   9.984   6.078  0.3531  0.5068  0.1954
  945MOL0     C24618   4.281   9.920   6.139 -0.3483  0.9923 -1.0343
  945MOL0     C24619   4.175  10.027   6.135 -0.6242  0.3950 -0.7066
  945MOL0     C24620   4.049   9.980   6.204  0.2579  0.1860 -0.0831
  945MOL0     C24621   3.935  10.082   6.180 -0.2049  0.4265 -0.4151
  945MOL0     C24622   3.807  10.027   6.241  1.2652  0.5166  0.1953
  945MOL0     C24623   3.710  10.147   6.239 -0.4869  0.6002 -0.9060
  945MOL0     C24624   3.575  10.116   6.318  0.4549 -0.9206 -0.2603
  945MOL0     N24625   3.508  10.246   6.357  0.3629  0.6745  0.7867
  945MOL0     C24626   3.376  10.248   6.398  0.0174  0.4985  0.0540
  945MOL0     C24627   3.337  10.378   6.387 -0.0336 -0.0814  0.2894
  945MOL0     C24628   3.211  10.432   6.455 -0.8757 -0.0043  0.4700
  945MOL0     C24629   3.081  10.351   6.460 -0.5632 -0.4729  0.0649
  945MOL0     C24630   2.990  10.407   6.580 -0.0330  0.4482  0.6354
  945MOL0     C24631   2.859  10.326   6.568 -0.1619 -0.0265 -0.3994
  945MOL0     O24632   2.791  10.363   6.690  0.3157 -0.6414 -1.2333
  945MOL0     C24633   2.653  10.360   6.701 -1.1777 -0.2826  0.4885
  945MOL0     C24634   2.572  10.289   6.617  1.0823 -0.5442  0.4165
  945MOL0     C24635   2.431  10.295   6.633 -0.2701  0.3293  0.1061
  945MOL0     C24636   2.377  10.368   6.738  0.2239 -0.0566  0.4323
  945MOL0     C24637   2.227  10.362   6.747 -0.5308  0.0484  0.1742
  945MOL0     O24638   2.166  10.255   6.700 -0.0402 -0.2772 -0.1281
  945MOL0     C24639   2.028  10.259   6.717  1.2188  0.1779 -0.2793
  945MOL0     C24640   1.984  10.204   6.832  0.7490  1.4692  0.5470
  945MOL0     C24641   1.841  10.185   6.854 -0.1960  0.1527  0.7635
  945MOL0     C24642   1.746  10.233   6.759  1.0767  0.7580 -0.0309
  945MOL0     O24643   1.613  10.193   6.772  0.1697 -0.4468 -0.3649
  945MOL0     C24644   1.520  10.271   6.691  0.0890 -0.6537 -0.1470
  945MOL0     C24645   1.387  10.246   6.763 -0.4066 -0.0178  0.2810
  945MOL0     C24646   1.272  10.304   6.693 -0.4162  1.2438  0.4309
  945MOL0     C24647   1.147  10.244   6.746 -0.2822 -0.5010 -0.5102
  945MOL0     C24648   1.018  10.254   6.664  0.2156 -0.4655  0.1570
  945MOL0     C24649   0.883  10.255   6.747 -0.2804  0.6188 -0.0216
  945MOL0     C24650   0.769  10.248   6.652  0.6576 -0.5400 -0.7683
  945MOL0     C24651   0.722  10.113   6.628 -0.4575  0.0221 -0.1722
  945MOL0    Cl24652   0.629  10.068   6.769  0.0626  0.2768 -0.5016
  945MOL0     C24653   1.790  10.296   6.639 -0.3069 -0.1006  0.8852
  945MOL0     C24654   1.926  10.320   6.635 -0.6684  0.7806  0.5695
  945MOL0     O24655   2.170  10.448   6.812  0.7216 -0.1218 -0.0378
  945MOL0     C24656   2.451  10.442   6.824  0.3593 -0.2545  0.5041
  945MOL0     C24657   2.589  10.434   6.805  0.1155 -0.6210 -0.3710
  945MOL0     N24658   3.440  10.457   6.340 -0.2577 -0.5442 -0.1704
  945MOL0     N24659   3.542  10.375   6.320 -0.8906 -0.2340  0.1581
  945MOL0     C24660   4.733   9.840   5.976  0.1176 -0.3523  0.7501
  945MOL0     C24661   4.859   9.878   5.919  0.0214  0.2435  0.1667
  945MOL0     C24662   5.210  10.132   5.820  1.0338 -0.2048 -0.3070
  945MOL0     C24663   5.196  10.228   5.719 -0.5747  0.3726  0.4946
  945MOL0     C24664   5.306  10.284   5.651 -0.0941  0.3529 -0.6776
  945MOL0     C24665   5.426  10.235   5.676  0.2695  0.7435  0.3485
  945MOL0     O24666   5.536  10.276   5.607 -0.0843 -0.5936 -0.4344
  945MOL0     C24667   5.567  10.193   5.499 -0.9967  0.0193 -0.0740
  945MOL0     C24668   5.645  10.063   5.542  0.9558  0.4888 -0.0346
  945MOL0     C24669   5.770  10.090   5.625  0.1943 -0.5432  0.1677
  945MOL0     C24670   5.802   9.952   5.700 -1.0564  0.0847  1.8148
  945MOL0     C24671   5.866   9.855   5.599  0.0750 -0.1696 -0.3288
  945MOL0     C24672   5.904   9.779   5.516 -0.6427  0.2755 -0.1028
  945MOL0     C24673   5.446  10.142   5.773 -0.2140 -0.2286 -0.9416
  945MOL0     C24674   5.340  10.094   5.855 -0.5856 -0.3185 -0.1156
  945MOL0     H24675   4.785  10.199   5.838  0.3387  0.7073  0.1622
  945MOL0     H24676   4.576  10.148   5.964  1.6481  2.6560 -3.2715
  945MOL0     H24677   4.383  10.029   5.982 -2.4050 -0.0004  0.6391
  945MOL0     H24678   4.431  10.068   6.145 -0.3968  0.4782  0.4881
  945MOL0     H24679   4.312   9.900   6.242  4.7342 -3.3933 -2.9623
  945MOL0     H24680   4.257   9.831   6.080 -0.9601  2.4562 -3.0854
  945MOL0     H24681   4.147  10.041   6.030  0.1185 -1.4407 -1.2035
  945MOL0     H24682   4.212  10.112   6.192 -3.3558  0.3402  1.3189
  945MOL0     H24683   4.022   9.880   6.171  1.5063 -1.2064  2.8108
  945MOL0     H24684   4.065   9.973   6.312  1.2020 -0.8740 -0.2752
  945MOL0     H24685   3.933  10.100   6.072  2.4836 -1.5681 -0.9117
  945MOL0     H24686   3.970  10.167   6.239 -2.8956  0.8933  0.6121
  945MOL0     H24687   3.820   9.991   6.344 -2.3659 -0.0147  0.5749
  945MOL0     H24688   3.756   9.946   6.188 -0.9654  1.0954  1.3446
  945MOL0     H24689   3.762  10.235   6.280  0.5030 -0.6625  0.6734
  945MOL0     H24690   3.677  10.168   6.137 -0.5321  0.2270 -0.9700
  945MOL0     H24691   3.592  10.063   6.412 -0.9243 -0.2421  0.4016
  945MOL0     H24692   3.507  10.052   6.262  1.0077  0.0704 -2.1388
  945MOL0     H24693   3.319  10.166   6.439 -0.0363  1.8907  3.0635
  945MOL0     H24694   3.185  10.528   6.409 -1.3938  0.9710  2.6463
  945MOL0     H24695   3.247  10.465   6.553  0.5543  1.5812 -0.5320
  945MOL0     H24696   3.114  10.250   6.484  5.0297  1.3131  1.4824
  945MOL0     H24697   3.021  10.361   6.369  1.8308  0.8967 -1.4822
  945MOL0     H24698   3.050  10.394   6.670  1.9103 -4.8822 -1.0443
  945MOL0     H24699   2.958  10.511   6.582 -2.3381 -0.1888 -0.2587
  945MOL0     H24700   2.873  10.218   6.560 -0.4101 -0.0799 -0.1230
  945MOL0     H24701   2.798  10.363   6.485 -0.0536  1.2088  0.0433
  945MOL0     H24702   2.607  10.225   6.536 -0.8253 -2.6051  1.1127
  945MOL0     H24703   2.365  10.232   6.574  0.4379 -0.1271 -0.2109
  945MOL0     H24704   2.051  10.167   6.908 -0.1791  1.0571  1.1867
  945MOL0     H24705   1.804  10.140   6.946 -0.5786  0.0689  0.5744
  945MOL0     H24706   1.506  10.241   6.587  2.6295 -0.8068 -0.5148
  945MOL0     H24707   1.537  10.379   6.695  0.0425 -0.6654  0.4282
  945MOL0     H24708   1.397  10.304   6.856 -0.7701  0.9117 -0.2553
  945MOL0     H24709   1.381  10.139   6.786 -3.1307 -0.0911 -0.4069
  945MOL0     H24710   1.265  10.278   6.587 -0.4580 -0.8214  0.9044
  945MOL0     H24711   1.279  10.413   6.704  0.7180  1.2843 -0.4476
  945MOL0     H24712   1.167  10.136   6.758  0.3020 -0.9361 -4.1913
  945MOL0     H24713   1.121  10.286   6.843 -3.5501  1.0672 -1.9314
  945MOL0     H24714   1.034  10.164   6.604  3.7786 -0.4022  0.7536
  945MOL0     H24715   1.020  10.343   6.601 -4.0982  0.1703  0.6075
  945MOL0     H24716   0.866  10.338   6.817 -3.4879 -0.4537  0.6411
  945MOL0     H24717   0.870  10.164   6.806 -1.9084  2.3996  2.6232
  945MOL0     H24718   0.685  10.308   6.689  0.9160 -1.1296  0.8397
  945MOL0     H24719   0.793  10.302   6.560 -0.8465  1.0837 -0.2899
  945MOL0     H24720   0.804  10.042   6.611 -1.4396 -0.8229 -1.6073
  945MOL0     H24721   0.665  10.103   6.535 -1.2717 -2.2193  0.4963
  945MOL0     H24722   1.734  10.327   6.552 -0.3150  0.9826  1.2615
  945MOL0     H24723   1.981  10.376   6.560  2.0743 -1.2406  0.9386
  945MOL0     H24724   2.408  10.504   6.902  0.5150  1.0590 -0.4225
  945MOL0     H24725   2.643  10.496   6.876 -0.1637  0.2933 -0.9470
  945MOL0     H24726   4.696   9.741   6.004 -1.5290 -0.4902 -1.5990
  945MOL0     H24727   4.941   9.810   5.899 -2.2704 -2.7070  0.1484
  945MOL0     H24728   5.096  10.244   5.679  0.1387 -2.7616 -3.1087
  945MOL0     H24729   5.289  10.360   5.575  1.6655  1.8492  0.3231
  945MOL0     H24730   5.634  10.234   5.423  1.5093 -2.6463  0.4779
  945MOL0     H24731   5.477  10.161   5.447 -1.3512 -1.4076  1.3241
  945MOL0     H24732   5.579   9.993   5.595  0.1386  0.1570 -1.4333
  945MOL0     H24733   5.678  10.006   5.455 -1.5957  0.0523 -0.8093
  945MOL0     H24734   5.744  10.168   5.697 -1.9518 -1.3811  0.4009
  945MOL0     H24735   5.854  10.122   5.563 -0.1004  1.1341  0.6076
  945MOL0     H24736   5.867   9.980   5.784  2.0900 -2.3740  0.4026
  945MOL0     H24737   5.707   9.909   5.732 -2.4546 -0.2861 -2.2502
  945MOL0     H24738   5.946   9.723   5.434  0.6963 -0.8668  1.3116
  945MOL0     H24739   5.543  10.112   5.811 -0.5795  1.6429  1.6946
  945MOL0     H24740   5.351  10.024   5.938 -0.9374  1.5961  1.6323
  946MOL0     O24741   0.977   4.335   8.049  0.2731 -0.0878 -0.4325
  946MOL0     C24742   1.051   4.280   7.973 -0.1317  0.0450  0.5434
  946MOL0     O24743   1.010   4.221   7.852 -0.1108 -0.3715 -0.8078
  946MOL0     C24744   0.883   4.214   7.802  0.1918  0.5720  0.8557
  946MOL0     C24745   0.847   4.105   7.718 -0.5385 -0.8323 -0.2610
  946MOL0     C24746   0.724   4.109   7.647 -0.1963  0.7763  0.0268
  946MOL0     C24747   0.641   4.216   7.662  0.2249 -0.4145 -0.2882
  946MOL0     O24748   0.531   4.231   7.576 -0.7445 -0.0050 -0.1951
  946MOL0     C24749   0.436   4.121   7.597  0.1909  0.1321  0.5805
  946MOL0     C24750   0.335   4.159   7.709 -0.7379  0.2640 -0.3527
  946MOL0     C24751   0.214   4.065   7.740 -1.3546 -0.4828  0.2895
  946MOL0     C24752   0.134   4.032   7.615 -0.1036  0.8550 -0.1070
  946MOL0     C24753  -0.007   4.008   7.657  0.7701  0.3655  1.0691
  946MOL0     C24754  -0.074   3.949   7.536  0.8645 -0.0147  0.1733
  946MOL0     C24755  -0.226   3.919   7.547  0.8081  0.4177 -0.8209
  946MOL0     C24756  -0.310   4.042   7.559  0.2001 -1.2795  0.1564
  946MOL0     N24757  -0.450   4.012   7.540  0.6734  0.2070  0.2190
  946MOL0     C24758  -0.535   3.976   7.643  0.3201  0.1670 -0.1070
  946MOL0     C24759  -0.662   3.974   7.578  0.7024 -0.0522 -0.7546
  946MOL0     C24760  -0.801   3.953   7.644 -0.4529  1.2819  0.6011
  946MOL0     C24761  -0.914   3.964   7.536  0.0127  0.0351  0.4171
  946MOL0     C24762  -0.986   4.103   7.544  0.0849  0.3017 -0.8595
  946MOL0     C24763  -1.112   4.112   7.447 -0.0063  1.0962  0.8329
  946MOL0     O24764  -1.069   4.049   7.325 -0.5516  0.6076  0.3718
  946MOL0     C24765  -1.169   3.993   7.253  0.1182  0.4258  0.7054
  946MOL0     C24766  -1.288   4.063   7.235  0.1446  0.6109 -0.2482
  946MOL0     C24767  -1.389   4.013   7.148 -0.1053 -0.8074  0.4521
  946MOL0     C24768  -1.372   3.897   7.084  0.6100 -0.7586 -0.1326
  946MOL0     C24769  -1.482   3.833   7.004  0.0275  0.2608  0.2556
  946MOL0     O24770  -1.608   3.894   7.008 -0.7747 -0.1895  0.5901
  946MOL0     C24771  -1.706   3.836   6.940  0.2160  0.8236 -0.2260
  946MOL0     C24772  -1.766   3.710   6.974 -0.4000  0.4637  0.2882
  946MOL0     C24773  -1.845   3.643   6.877 -0.3143 -0.4342 -0.3306
  946MOL0     C24774  -1.894   3.717   6.771  0.0079 -0.4255 -0.7588
  946MOL0     O24775  -1.988   3.658   6.692 -0.8157 -0.4820 -0.3491
  946MOL0     C24776  -2.115   3.666   6.761  0.7052  0.7474 -0.4034
  946MOL0     C24777  -2.227   3.642   6.653  0.0772 -0.7490 -0.2185
  946MOL0     C24778  -2.361   3.651   6.717 -0.2788 -0.0494 -0.7487
  946MOL0     C24779  -2.375   3.569   6.842 -0.0010 -0.2736 -0.4310
  946MOL0     C24780  -2.523   3.539   6.884 -0.3179  1.0993  0.5436
  946MOL0     C24781  -2.588   3.432   6.787 -0.9136  0.3152  0.3978
  946MOL0     C24782  -2.720   3.394   6.841 -0.5105 -0.0179  0.1637
  946MOL0     C24783  -2.787   3.309   6.734  0.0067  0.2165  0.5089
  946MOL0    Cl24784  -2.838   3.403   6.584 -0.2620 -0.2906  0.5986
  946MOL0     C24785  -1.854   3.854   6.750 -0.2750  0.3106  0.4371
  946MOL0     C24786  -1.752   3.900   6.828  0.3904 -0.2710  0.1012
  946MOL0     O24787  -1.459   3.732   6.939 -0.6316  0.1941  0.0905
  946MOL0     C24788  -1.252   3.829   7.098  0.6413  0.1286  0.2434
  946MOL0     C24789  -1.148   3.880   7.175 -0.7227  0.7313  0.3844
  946MOL0     N24790  -0.643   4.016   7.443  0.6515 -0.8364 -0.1689
  946MOL0     N24791  -0.512   4.036   7.423 -0.0436 -0.9262  0.2828
  946MOL0     C24792   0.665   4.317   7.751 -0.5632 -0.1004 -0.6092
  946MOL0     C24793   0.787   4.312   7.825 -0.3047  0.2231  0.2635
  946MOL0     C24794   1.194   4.291   8.000  1.0042 -0.8377 -0.0096
  946MOL0     C24795   1.250   4.349   8.112  0.7816  0.1188 -0.4025
  946MOL0     C24796   1.385   4.375   8.120 -0.4699 -0.3069  0.2140
  946MOL0     C24797   1.466   4.333   8.017 -0.3261  0.0989  0.6348
  946MOL0     O24798   1.599   4.375   8.002 -0.6786  0.3831  0.0637
  946MOL0     C24799   1.679   4.361   7.878 -0.2903  0.2266 -0.0477
  946MOL0     C24800   1.817   4.419   7.893 -0.5001 -0.4750  0.8434
  946MOL0     C24801   1.909   4.349   7.995  0.1376 -0.2775  0.8405
  946MOL0     C24802   2.044   4.402   7.977 -0.8674  0.3416  0.5190
  946MOL0     C24803   2.152   4.372   8.080 -0.9635  0.2700  0.5578
  946MOL0     C24804   2.246   4.336   8.147 -0.4885 -0.6656 -0.0623
  946MOL0     C24805   1.411   4.243   7.925  0.5810 -0.2696  0.1036
  946MOL0     C24806   1.276   4.234   7.911  0.7497 -0.4880  0.3440
  946MOL0     H24807   0.933   4.045   7.690 -0.4237 -0.5953 -0.4165
  946MOL0     H24808   0.692   4.032   7.578 -1.1591  2.6086 -1.6622
  946MOL0     H24809   0.475   4.020   7.606 -0.2651 -0.3560 -2.1464
  946MOL0     H24810   0.386   4.117   7.500  1.9471 -1.7263 -0.3192
  946MOL0     H24811   0.285   4.251   7.677 -2.5648 -1.0406 -1.4176
  946MOL0     H24812   0.397   4.167   7.799  0.0089 -0.9609 -0.7202
  946MOL0     H24813   0.153   4.118   7.814 -1.2964  0.6296 -0.4444
  946MOL0     H24814   0.240   3.972   7.791 -0.9510 -0.1760  0.6539
  946MOL0     H24815   0.136   4.124   7.555  1.5701  1.1485  0.3455
  946MOL0     H24816   0.180   3.944   7.569 -0.1612  1.0168 -0.4775
  946MOL0     H24817  -0.052   4.100   7.696 -1.4698 -1.0635  2.0165
  946MOL0     H24818  -0.019   3.933   7.736  0.3474  0.0581  0.7129
  946MOL0     H24819  -0.025   3.852   7.520  1.9370  0.6350 -0.6772
  946MOL0     H24820  -0.055   4.019   7.453 -2.9476  1.6790  0.5474
  946MOL0     H24821  -0.259   3.865   7.458 -1.8050  1.0782 -0.3430
  946MOL0     H24822  -0.252   3.869   7.641  3.1582  0.4941 -0.0677
  946MOL0     H24823  -0.266   4.114   7.489 -1.0507  0.5561  1.1936
  946MOL0     H24824  -0.318   4.088   7.658  0.1562 -0.5207 -0.1976
  946MOL0     H24825  -0.515   3.951   7.747 -1.6507 -3.1336 -0.3819
  946MOL0     H24826  -0.813   4.006   7.738  0.6354 -0.2589  1.6541
  946MOL0     H24827  -0.797   3.847   7.673 -1.0825  0.9279 -0.5265
  946MOL0     H24828  -0.980   3.881   7.565  0.5635 -0.5933 -0.0991
  946MOL0     H24829  -0.875   3.946   7.436  0.6486 -0.4549  0.7402
  946MOL0     H24830  -1.011   4.129   7.647 -1.9866  0.2538 -1.3042
  946MOL0     H24831  -0.913   4.177   7.512  1.2390 -1.1257 -1.6643
  946MOL0     H24832  -1.141   4.215   7.425 -0.5693  1.1418  1.7337
  946MOL0     H24833  -1.204   4.066   7.486  0.2787  1.9467  2.6162
  946MOL0     H24834  -1.298   4.158   7.285  1.1481  0.4033  0.3723
  946MOL0     H24835  -1.483   4.068   7.143 -0.8074 -2.0664 -1.2775
  946MOL0     H24836  -1.745   3.651   7.062  1.3923  0.9748  0.2329
  946MOL0     H24837  -1.863   3.537   6.891 -0.4501 -0.2433  1.1068
  946MOL0     H24838  -2.139   3.749   6.828 -1.2913 -1.2791  1.5704
  946MOL0     H24839  -2.118   3.589   6.839  0.0276  1.1573 -0.0106
  946MOL0     H24840  -2.219   3.546   6.601  0.4662 -0.4198 -0.7826
  946MOL0     H24841  -2.215   3.717   6.574 -0.3083 -0.1033  0.3217
  946MOL0     H24842  -2.440   3.624   6.646 -2.5678 -0.9133  1.9229
  946MOL0     H24843  -2.378   3.755   6.745 -0.7303 -0.4839  0.6847
  946MOL0     H24844  -2.322   3.473   6.837  2.4709  0.8141  2.0169
  946MOL0     H24845  -2.327   3.622   6.925  0.1481 -0.6650 -0.2616
  946MOL0     H24846  -2.581   3.632   6.890  0.8957  1.8404  1.0316
  946MOL0     H24847  -2.526   3.500   6.986  1.7067 -0.0726  0.1973
  946MOL0     H24848  -2.527   3.341   6.785  1.8752  2.0529 -0.1265
  946MOL0     H24849  -2.584   3.462   6.682  2.1508  1.8649  0.8416
  946MOL0     H24850  -2.706   3.342   6.936 -0.4302  0.7818  0.6015
  946MOL0     H24851  -2.782   3.482   6.861 -0.7909 -0.2419  0.2969
  946MOL0     H24852  -2.882   3.266   6.767 -1.9532 -0.7768 -5.2798
  946MOL0     H24853  -2.716   3.236   6.694  0.2333 -0.5192  2.2027
  946MOL0     H24854  -1.881   3.918   6.667  2.3368 -0.8359 -1.4283
  946MOL0     H24855  -1.692   3.987   6.804 -0.4986  0.5927  0.9260
  946MOL0     H24856  -1.250   3.737   7.041 -2.0384  0.5842 -0.7006
  946MOL0     H24857  -1.049   3.837   7.185 -0.2362  1.8799  0.6662
  946MOL0     H24858   0.602   4.404   7.768  0.2304  0.4151 -0.2506
  946MOL0     H24859   0.820   4.388   7.894  1.1883 -1.4700  1.4995
  946MOL0     H24860   1.186   4.373   8.197 -0.8392  0.2088 -1.6093
  946MOL0     H24861   1.421   4.436   8.202 -2.7428  0.9550  0.3514
  946MOL0     H24862   1.623   4.411   7.799 -0.5950  4.3861  2.4761
  946MOL0     H24863   1.697   4.254   7.861 -0.0983  0.0575  1.1238
  946MOL0     H24864   1.854   4.416   7.790 -1.6813 -0.5872  0.4080
  946MOL0     H24865   1.814   4.525   7.921  1.1182 -0.3076  0.5035
  946MOL0     H24866   1.913   4.247   7.956 -2.7781 -0.8854  1.8641
  946MOL0     H24867   1.863   4.352   8.094 -0.6027  0.8583  0.4832
  946MOL0     H24868   2.075   4.359   7.882 -2.8877 -2.1308  0.8747
  946MOL0     H24869   2.046   4.511   7.977 -0.9357  0.4113  2.9094
  946MOL0     H24870   2.331   4.296   8.199 -1.0672  0.8800  2.2591
  946MOL0     H24871   1.475   4.195   7.852 -0.0037  0.8520 -1.1930
  946MOL0     H24872   1.239   4.188   7.820  0.5899  0.4500 -0.0787
  947MOL0     O24873   7.175   3.593  10.025  0.1993 -0.1198  0.3592
  947MOL0     C24874   7.214   3.662   9.929  0.0847  0.5755  0.3668
  947MOL0     O24875   7.132   3.742   9.852 -0.3866 -0.1317 -0.7450
  947MOL0     C24876   7.008   3.772   9.895  0.3808 -0.2918  0.9676
  947MOL0     C24877   6.978   3.818  10.024 -0.8373  0.6172  0.3997
  947MOL0     C24878   6.850   3.858  10.057 -0.4147  1.0526 -0.3980
  947MOL0     C24879   6.744   3.859   9.961  0.3210  0.4797 -0.3677
  947MOL0     O24880   6.616   3.895   9.999 -0.0738  0.3201  0.3117
  947MOL0     C24881   6.577   3.907  10.137 -0.2518  0.7412  0.5301
  947MOL0     C24882   6.454   3.983  10.157 -0.6341 -0.6152  0.9990
  947MOL0     C24883   6.318   3.901  10.128  0.0025  0.4525 -0.0373
  947MOL0     C24884   6.194   3.987  10.140 -0.3968  0.7999  0.4379
  947MOL0     C24885   6.072   3.924  10.071 -0.1990 -0.4208 -0.2349
  947MOL0     C24886   6.020   3.795  10.140  0.3736 -0.2557 -0.2841
  947MOL0     C24887   5.885   3.763  10.097  0.5578 -0.4072 -0.4168
  947MOL0     C24888   5.829   3.637  10.163 -0.0416 -0.2213  1.1183
  947MOL0     N24889   5.705   3.596  10.111  0.1845 -0.3918 -0.2044
  947MOL0     C24890   5.635   3.477  10.135 -1.2749 -0.0111 -0.1885
  947MOL0     C24891   5.528   3.490  10.069  0.1563 -0.3959  0.0753
  947MOL0     C24892   5.415   3.384  10.072  0.0300 -0.1881 -0.0886
  947MOL0     C24893   5.282   3.454  10.104 -0.1193  0.2605  0.4591
  947MOL0     C24894   5.163   3.363  10.088  0.2380  0.5751 -0.4482
  947MOL0     C24895   5.031   3.435  10.062 -0.1306 -0.0371 -0.0831
  947MOL0     O24896   5.023   3.535  10.166 -0.0200 -0.0284 -0.3264
  947MOL0     C24897   4.895   3.569  10.196  1.0508  0.7180  0.3784
  947MOL0     C24898   4.878   3.597  10.328 -0.1391  0.4319 -0.5258
  947MOL0     C24899   4.762   3.644  10.379  0.7144  0.2642  0.2989
  947MOL0     C24900   4.643   3.642  10.308 -0.0983  0.7154 -0.1413
  947MOL0     C24901   4.511   3.698  10.360 -0.3807 -0.2288 -0.4302
  947MOL0     O24902   4.413   3.737  10.267 -0.4004  0.4416  0.5451
  947MOL0     C24903   4.295   3.775  10.315 -0.0481 -0.7526 -0.2484
  947MOL0     C24904   4.220   3.850  10.219 -0.0218 -0.1192 -0.5885
  947MOL0     C24905   4.096   3.907  10.248 -0.6758  0.1021  0.4035
  947MOL0     C24906   4.035   3.876  10.364 -0.4470  0.7100 -0.2975
  947MOL0     O24907   3.914   3.929  10.377  0.2770  0.2393 -0.0733
  947MOL0     C24908   3.808   3.868  10.456 -0.3251 -0.7851 -0.6101
  947MOL0     C24909   3.668   3.905  10.400 -0.8189  0.5518 -0.9703
  947MOL0     C24910   3.655   4.054  10.391  0.6405 -0.6506  0.0241
  947MOL0     C24911   3.506   4.091  10.370 -0.3527  0.2282  0.6743
  947MOL0     C24912   3.494   4.215  10.279  0.0040 -0.0403 -0.5811
  947MOL0     C24913   3.353   4.244  10.246  0.2534  0.0957 -0.1795
  947MOL0     C24914   3.286   4.316  10.355 -0.3028 -0.8791 -0.8950
  947MOL0     C24915   3.139   4.328  10.331 -0.8555 -0.1861  0.5287
  947MOL0    Cl24916   3.101   4.407  10.175 -0.0533  0.4855  0.2551
  947MOL0     C24917   4.092   3.792  10.453  0.3203 -0.1790  0.5190
  947MOL0     C24918   4.222   3.742  10.432 -0.9695 -0.4195  0.7602
  947MOL0     O24919   4.514   3.716  10.482  0.8136  0.3565 -0.5721
  947MOL0     C24920   4.657   3.594  10.174  0.8032  0.1842 -0.1747
  947MOL0     C24921   4.783   3.575  10.112 -0.0573 -0.0364 -0.4033
  947MOL0     N24922   5.518   3.610  10.011 -0.2536 -0.5357  0.3450
  947MOL0     N24923   5.634   3.674  10.029  0.2378  0.8211 -0.6852
  947MOL0     C24924   6.774   3.819   9.828  0.3028 -0.0961 -0.2408
  947MOL0     C24925   6.907   3.774   9.798  0.1809  0.2888 -0.0493
  947MOL0     C24926   7.358   3.670   9.918 -0.2467 -0.2612  0.0186
  947MOL0     C24927   7.417   3.719   9.800  0.1636  0.8521  0.1308
  947MOL0     C24928   7.548   3.745   9.787 -0.0466  0.7135 -0.3549
  947MOL0     C24929   7.640   3.705   9.888  1.5137  0.3962  1.0454
  947MOL0     O24930   7.767   3.749   9.878 -0.2100 -0.3394  0.6373
  947MOL0     C24931   7.809   3.838   9.981  0.5423 -0.4046 -0.9113
  947MOL0     C24932   7.888   3.778  10.102 -0.3666  0.7678 -0.5503
  947MOL0     C24933   8.007   3.690  10.061  0.0147 -0.6791  0.5297
  947MOL0     C24934   8.042   3.578  10.166  0.8985 -0.2253  0.4453
  947MOL0     C24935   7.927   3.480  10.172 -0.5129 -0.0427 -0.6153
  947MOL0     C24936   7.843   3.393  10.166 -0.0690  0.4602  0.0035
  947MOL0     C24937   7.592   3.642  10.001  0.1254 -0.1145  0.6039
  947MOL0     C24938   7.449   3.630  10.020 -0.7324  0.4865  0.1472
  947MOL0     H24939   7.056   3.816  10.099 -1.1285 -1.4891  0.6849
  947MOL0     H24940   6.832   3.889  10.159 -0.1833  3.5111 -1.0195
  947MOL0     H24941   6.658   3.954  10.192  4.7670 -2.2500 -3.4191
  947MOL0     H24942   6.552   3.804  10.166 -2.7976  0.6118 -1.7659
  947MOL0     H24943   6.451   4.073  10.094  0.0270 -2.3698 -1.7359
  947MOL0     H24944   6.457   4.022  10.259 -3.4209  0.3919  0.8073
  947MOL0     H24945   6.305   3.815  10.194 -0.0908  1.2927  1.0768
  947MOL0     H24946   6.331   3.860  10.028  2.1652 -1.2253  0.8611
  947MOL0     H24947   6.163   4.010  10.243 -2.7119 -1.7327  0.4582
  947MOL0     H24948   6.206   4.083  10.089 -3.7265  0.9048 -0.4075
  947MOL0     H24949   6.092   3.908   9.964 -1.4669 -1.1210 -0.3872
  947MOL0     H24950   5.996   4.001  10.080 -0.2773 -0.6218  0.8863
  947MOL0     H24951   6.014   3.822  10.245  0.6441  1.3357 -0.6482
  947MOL0     H24952   6.096   3.718  10.123  0.9833  0.4032 -0.6041
  947MOL0     H24953   5.822   3.843  10.137 -2.1320 -2.1903 -0.8269
  947MOL0     H24954   5.872   3.772   9.989  4.7457  1.3488 -0.9543
  947MOL0     H24955   5.824   3.641  10.273 -3.2362 -0.4588  1.0762
  947MOL0     H24956   5.893   3.549  10.147 -1.1755 -1.3447  2.4441
  947MOL0     H24957   5.650   3.396  10.206 -2.7516  0.3639  0.5851
  947MOL0     H24958   5.451   3.311  10.145  0.9241  2.1598  1.9362
  947MOL0     H24959   5.408   3.337   9.973  0.9746 -4.2244  1.5742
  947MOL0     H24960   5.267   3.535  10.032  2.4230 -0.7715 -1.4144
  947MOL0     H24961   5.281   3.496  10.205 -1.5374  2.4943 -0.4075
  947MOL0     H24962   5.185   3.296  10.004  0.3701  1.0128 -0.7686
  947MOL0     H24963   5.150   3.306  10.180  0.9026 -0.8114 -1.1724
  947MOL0     H24964   4.954   3.358  10.074 -0.2734 -0.2510 -2.0359
  947MOL0     H24965   5.036   3.479   9.962  1.2511 -1.0684 -0.5006
  947MOL0     H24966   4.969   3.601  10.387  0.2513 -1.7257 -0.9039
  947MOL0     H24967   4.773   3.674  10.483 -0.0474 -2.1278  1.1329
  947MOL0     H24968   4.279   3.876  10.131  0.8568 -1.0012 -0.2721
  947MOL0     H24969   4.043   3.974  10.181 -0.4541  0.6255  0.7470
  947MOL0     H24970   3.816   3.893  10.562 -0.2757 -2.7365 -0.1147
  947MOL0     H24971   3.805   3.759  10.454 -2.2359 -0.7558 -0.6492
  947MOL0     H24972   3.596   3.867  10.474 -0.8661  0.9828 -0.7928
  947MOL0     H24973   3.649   3.850  10.307 -2.5617  0.6920 -0.7274
  947MOL0     H24974   3.711   4.091  10.305  2.4801 -0.5051  1.2501
  947MOL0     H24975   3.690   4.101  10.483  0.8399 -1.8905  0.5973
  947MOL0     H24976   3.456   4.001  10.333 -0.8623 -0.0206  1.9046
  947MOL0     H24977   3.447   4.112  10.460 -0.6285  2.4144  0.0560
  947MOL0     H24978   3.541   4.178  10.187  1.6081 -1.5575  0.7789
  947MOL0     H24979   3.551   4.303  10.310 -2.5574  0.8560  1.9036
  947MOL0     H24980   3.305   4.153  10.211  0.9580  0.5827 -2.6135
  947MOL0     H24981   3.352   4.309  10.158 -0.8903 -1.7486 -1.6008
  947MOL0     H24982   3.307   4.270  10.453  2.2209  1.7283 -0.0405
  947MOL0     H24983   3.329   4.415  10.372  0.6223 -1.3039 -0.7025
  947MOL0     H24984   3.089   4.380  10.413 -0.4984  1.4413 -0.2371
  947MOL0     H24985   3.083   4.235  10.336 -1.9099  0.1477 -2.9055
  947MOL0     H24986   4.049   3.783  10.552 -3.1123  0.4517 -0.7621
  947MOL0     H24987   4.253   3.673  10.510 -2.5275 -2.8632 -0.6503
  947MOL0     H24988   4.575   3.594  10.104  1.8072  1.2636 -1.3995
  947MOL0     H24989   4.778   3.546  10.008 -4.3960 -0.0065 -0.3873
  947MOL0     H24990   6.698   3.837   9.753  1.3877  1.8650 -0.9439
  947MOL0     H24991   6.926   3.752   9.694  0.3390  1.0528 -0.1863
  947MOL0     H24992   7.360   3.756   9.716  1.5605  0.6336 -0.9432
  947MOL0     H24993   7.581   3.795   9.696  0.9501  0.1901 -0.2945
  947MOL0     H24994   7.725   3.894  10.023 -0.3299 -2.8102  0.7651
  947MOL0     H24995   7.865   3.919   9.932 -1.3139  0.9484 -0.8730
  947MOL0     H24996   7.917   3.857  10.171  2.6470 -0.6805  0.0291
  947MOL0     H24997   7.806   3.721  10.147 -0.2046  1.3601  0.5099
  947MOL0     H24998   8.092   3.758  10.054  0.0868 -0.8683 -0.6930
  947MOL0     H24999   7.994   3.634   9.968 -0.2267  0.9530 -0.4583
  947MOL0     H25000   8.143   3.542  10.142  1.7566  2.0943  0.2950
  947MOL0     H25001   8.032   3.624  10.265 -0.2650 -0.0648  0.2586
  947MOL0     H25002   7.768   3.320  10.143 -1.5701  1.4012  1.6017
  947MOL0     H25003   7.666   3.603  10.069 -0.0034  0.2836  0.9733
  947MOL0     H25004   7.415   3.596  10.117  0.5682  3.5166  1.8265
  948MOL0     O25005   3.693  11.064   6.540 -0.0443  0.7595 -0.4875
  948MOL0     C25006   3.793  11.119   6.571  0.4596 -0.3553 -0.1760
  948MOL0     O25007   3.815  11.186   6.690 -0.6645 -0.4377 -0.0440
  948MOL0     C25008   3.714  11.183   6.783  0.4573 -0.1504  1.3242
  948MOL0     C25009   3.762  11.179   6.907  0.0266 -0.6967  0.5549
  948MOL0     C25010   3.665  11.165   7.017  0.0624 -0.3171 -0.6584
  948MOL0     C25011   3.530  11.166   6.992  0.9394  0.7026 -0.1829
  948MOL0     O25012   3.429  11.155   7.083 -0.2834  0.1001  0.0795
  948MOL0     C25013   3.450  11.053   7.180  0.9651 -0.3998  0.1269
  948MOL0     C25014   3.314  11.030   7.258 -0.1073  0.5651  0.3989
  948MOL0     C25015   3.230  10.920   7.187  0.4772 -0.6830  0.6283
  948MOL0     C25016   3.074  10.928   7.220 -0.2094 -0.0954  0.1319
  948MOL0     C25017   3.004  10.797   7.188 -0.4492 -0.6575 -0.0594
  948MOL0     C25018   2.870  10.785   7.261  0.0497 -0.5744 -0.0678
  948MOL0     C25019   2.784  10.665   7.227 -0.5308 -0.7227  0.0999
  948MOL0     C25020   2.698  10.624   7.346  0.7314 -0.9957  0.4606
  948MOL0     N25021   2.573  10.709   7.343 -0.3304 -0.2950 -1.6158
  948MOL0     C25022   2.466  10.686   7.262  0.1919  0.7939 -0.0313
  948MOL0     C25023   2.388  10.793   7.274 -0.2578  0.2206 -0.3436
  948MOL0     C25024   2.251  10.818   7.226  0.1127 -0.1969 -0.3948
  948MOL0     C25025   2.224  10.885   7.091 -0.5932  0.0033 -0.4961
  948MOL0     C25026   2.082  10.866   7.042  0.2033  0.3254  0.0455
  948MOL0     C25027   1.966  10.880   7.141 -0.2227 -0.6157  0.1257
  948MOL0     O25028   1.967  11.000   7.200  0.1431 -0.3256  0.5096
  948MOL0     C25029   1.845  11.060   7.215  0.3942  0.0756  0.2915
  948MOL0     C25030   1.825  11.140   7.329 -0.0676  0.4117  0.6659
  948MOL0     C25031   1.713  11.206   7.350  0.9517  0.5038 -1.1338
  948MOL0     C25032   1.601  11.196   7.269  0.7516  0.6174  0.3214
  948MOL0     C25033   1.477  11.263   7.304 -0.4768  0.2726 -0.2882
  948MOL0     O25034   1.379  11.253   7.210  0.0799 -0.2416  0.3947
  948MOL0     C25035   1.243  11.266   7.234  0.5376  1.2629  0.3729
  948MOL0     C25036   1.182  11.296   7.359  0.4946 -0.0778 -0.1876
  948MOL0     C25037   1.047  11.309   7.378  0.4652 -0.0098  0.8319
  948MOL0     C25038   0.958  11.281   7.266  0.0714  0.1146 -0.8761
  948MOL0     O25039   0.822  11.293   7.278  0.1954 -0.5930 -0.1801
  948MOL0     C25040   0.763  11.302   7.411 -0.4853 -0.0642 -0.6481
  948MOL0     C25041   0.764  11.174   7.505  0.2903 -0.2021 -0.4525
  948MOL0     C25042   0.701  11.053   7.433  0.2383  1.1121 -0.6082
  948MOL0     C25043   0.635  10.950   7.532 -0.1499 -0.9260 -0.3921
  948MOL0     C25044   0.552  10.837   7.472  0.1847  1.1678 -0.0375
  948MOL0     C25045   0.507  10.744   7.590 -0.6176  0.1300  0.1176
  948MOL0     C25046   0.448  10.608   7.558 -0.1019  0.4373  0.6654
  948MOL0     C25047   0.449  10.532   7.687  0.2793  0.8744 -0.0287
  948MOL0    Cl25048   0.604  10.469   7.744 -0.4278 -0.0662 -0.1613
  948MOL0     C25049   1.015  11.248   7.144  0.6444  0.2795 -0.2640
  948MOL0     C25050   1.151  11.242   7.133 -0.6007  0.3050  0.0407
  948MOL0     O25051   1.459  11.309   7.417 -1.2638  0.1279  1.4325
  948MOL0     C25052   1.620  11.122   7.147 -0.1685 -0.1232 -0.8113
  948MOL0     C25053   1.742  11.060   7.120 -0.3236  0.2890  0.0124
  948MOL0     N25054   2.436  10.869   7.366  0.0054  0.2147 -0.0931
  948MOL0     N25055   2.550  10.823   7.412  0.7084 -0.3594 -0.1552
  948MOL0     C25056   3.489  11.194   6.855 -0.1037 -0.0700  0.4705
  948MOL0     C25057   3.577  11.199   6.753 -0.2576  0.3880 -0.5666
  948MOL0     C25058   3.918  11.093   6.488  0.0032  0.1979  0.2012
  948MOL0     C25059   4.047  11.145   6.529  0.0278  0.7513 -0.1908
  948MOL0     C25060   4.166  11.125   6.458 -0.5958  0.0979 -0.1027
  948MOL0     C25061   4.160  11.057   6.339 -0.3136  0.8705  0.4655
  948MOL0     O25062   4.286  11.029   6.289  0.0471 -0.3913  0.1517
  948MOL0     C25063   4.294  11.010   6.149  0.1783 -0.2216  0.4015
  948MOL0     C25064   4.436  10.963   6.116 -0.4412 -0.1150 -0.3027
  948MOL0     C25065   4.436  10.907   5.975 -0.4819  1.8347  0.5911
  948MOL0     C25066   4.557  10.820   5.932  0.7497  0.3786 -0.6433
  948MOL0     C25067   4.539  10.790   5.792  0.1073 -0.5224  0.6808
  948MOL0     C25068   4.517  10.757   5.680 -0.0230  0.1121  0.2919
  948MOL0     C25069   4.039  10.998   6.293 -0.1018 -1.5522  0.0768
  948MOL0     C25070   3.920  11.028   6.358  0.3457  0.0710 -0.4527
  948MOL0     H25071   3.866  11.180   6.940 -0.1664  0.0333  1.1755
  948MOL0     H25072   3.699  11.167   7.120 -0.6040  0.5714 -0.4377
  948MOL0     H25073   3.523  11.096   7.249  1.2965  0.6521 -0.8620
  948MOL0     H25074   3.487  10.958   7.141  1.1453 -1.6106  2.9899
  948MOL0     H25075   3.269  11.127   7.280  2.6648  2.0774 -0.2012
  948MOL0     H25076   3.349  10.995   7.355  0.6669  1.3383  0.4078
  948MOL0     H25077   3.280  10.825   7.208  0.1903 -0.9687  0.0566
  948MOL0     H25078   3.244  10.932   7.079  1.8847  2.4598  1.0533
  948MOL0     H25079   3.062  10.951   7.326  1.7455  2.5702 -0.1344
  948MOL0     H25080   3.026  11.009   7.165 -0.8847 -1.0056 -0.6605
  948MOL0     H25081   3.066  10.719   7.234 -1.7658 -0.7366  1.6969
  948MOL0     H25082   2.999  10.776   7.081  2.7148  0.3550 -0.4995
  948MOL0     H25083   2.809  10.875   7.254  1.6057  0.5556  0.2044
  948MOL0     H25084   2.896  10.779   7.367 -0.0331 -1.3265 -0.0811
  948MOL0     H25085   2.714  10.685   7.145 -0.6043 -1.7942 -0.1066
  948MOL0     H25086   2.849  10.580   7.205 -0.3765 -0.8884  1.1694
  948MOL0     H25087   2.743  10.643   7.443  0.0200 -0.9713  0.7952
  948MOL0     H25088   2.671  10.518   7.337 -0.8304 -0.5308 -0.9351
  948MOL0     H25089   2.455  10.591   7.210 -1.7848  0.9796 -0.0304
  948MOL0     H25090   2.206  10.880   7.303 -1.3391 -0.1991 -1.2037
  948MOL0     H25091   2.196  10.724   7.229  0.4135 -0.4764 -2.2490
  948MOL0     H25092   2.289  10.852   7.009 -1.7735  0.8084 -1.8075
  948MOL0     H25093   2.248  10.991   7.110  1.4714 -0.4509 -0.3057
  948MOL0     H25094   2.061  10.933   6.959  0.6301 -1.9753 -2.0188
  948MOL0     H25095   2.076  10.765   7.002 -1.3830 -0.5181  2.2080
  948MOL0     H25096   1.960  10.792   7.206 -0.5933 -1.5215 -1.0873
  948MOL0     H25097   1.875  10.862   7.082 -0.0543  0.4352 -0.4658
  948MOL0     H25098   1.916  11.137   7.389  0.3016 -2.5630  0.1010
  948MOL0     H25099   1.709  11.261   7.444 -1.0404 -1.9150  0.3358
  948MOL0     H25100   1.246  11.313   7.445  0.8139 -0.2821 -0.3830
  948MOL0     H25101   1.008  11.341   7.475  0.6210  1.3634  0.4612
  948MOL0     H25102   0.658  11.325   7.390 -0.2845 -0.1020 -1.7861
  948MOL0     H25103   0.797  11.390   7.466 -0.5893  1.4939 -2.9221
  948MOL0     H25104   0.705  11.200   7.593  1.1703 -2.8994  1.0579
  948MOL0     H25105   0.866  11.144   7.528  0.8652  1.3860 -0.8075
  948MOL0     H25106   0.773  11.002   7.367  0.8846  0.2693  0.7167
  948MOL0     H25107   0.614  11.079   7.372 -1.2614  1.9936  1.7888
  948MOL0     H25108   0.715  10.904   7.590  0.5909  0.6783 -0.1135
  948MOL0     H25109   0.568  10.999   7.603  0.6625 -0.9905  0.4361
  948MOL0     H25110   0.613  10.776   7.405 -0.6767 -1.5145  1.4533
  948MOL0     H25111   0.465  10.881   7.422 -0.1289  1.6452  0.9035
  948MOL0     H25112   0.422  10.795   7.636 -1.3448 -0.4951 -0.4964
  948MOL0     H25113   0.593  10.728   7.655 -2.0710  0.2855  2.1928
  948MOL0     H25114   0.349  10.612   7.511 -0.4469 -2.7898  0.8842
  948MOL0     H25115   0.509  10.550   7.488 -0.2862  0.4411  0.4999
  948MOL0     H25116   0.370  10.456   7.677  1.0254  0.3072 -2.1705
  948MOL0     H25117   0.417  10.598   7.768 -0.4361  0.6735 -0.1328
  948MOL0     H25118   0.943  11.227   7.066  0.8544  1.6908 -0.8600
  948MOL0     H25119   1.193  11.213   7.037 -1.0602  1.5040 -0.5517
  948MOL0     H25120   1.536  11.115   7.078  1.7471  2.0367 -3.5790
  948MOL0     H25121   1.749  11.027   7.017  2.0906  2.6883 -0.7173
  948MOL0     H25122   3.382  11.211   6.844 -0.3370 -0.7702  1.5189
  948MOL0     H25123   3.542  11.222   6.653 -0.4271  1.3715 -0.2883
  948MOL0     H25124   4.050  11.203   6.620 -0.4490  3.4510 -1.7860
  948MOL0     H25125   4.257  11.169   6.498  0.2523  0.4052 -2.2291
  948MOL0     H25126   4.278  11.108   6.104 -3.0928  0.4112  2.5578
  948MOL0     H25127   4.230  10.929   6.112 -1.5391  2.2975 -2.5816
  948MOL0     H25128   4.506  11.047   6.114 -0.1153 -0.3819 -1.8672
  948MOL0     H25129   4.470  10.893   6.193 -1.6754 -4.5826 -3.4146
  948MOL0     H25130   4.427  10.992   5.907 -0.2742  0.3707 -1.3651
  948MOL0     H25131   4.353  10.836   5.974 -0.1207  1.2505  3.3167
  948MOL0     H25132   4.652  10.873   5.941  0.5634  0.7378 -0.7205
  948MOL0     H25133   4.550  10.730   5.994  1.0620 -0.9912 -2.5254
  948MOL0     H25134   4.504  10.740   5.575 -0.9897  3.0840 -0.1684
  948MOL0     H25135   4.037  10.936   6.204 -0.6965 -1.3769 -0.0341
  948MOL0     H25136   3.818  11.003   6.330 -0.9660  4.5616 -0.4755
  949MOL0     O25137   9.405   8.301   7.118 -0.1009 -0.0930 -0.1165
  949MOL0     C25138   9.469   8.200   7.141 -0.2300  0.4265 -0.0266
  949MOL0     O25139   9.420   8.076   7.131  0.4098 -0.2674 -0.2750
  949MOL0     C25140   9.282   8.070   7.101 -0.5922 -0.0931 -0.2510
  949MOL0     C25141   9.242   8.085   6.964  0.1984 -0.0921  0.4273
  949MOL0     C25142   9.106   8.081   6.929  0.2918 -0.6698  0.2551
  949MOL0     C25143   9.012   8.053   7.030  0.3336 -0.2340  0.4243
  949MOL0     O25144   8.873   8.064   7.007 -0.1262  0.6884 -0.0163
  949MOL0     C25145   8.821   8.103   6.878  0.7635  0.6142  0.7688
  949MOL0     C25146   8.668   8.128   6.906 -0.2529 -0.2250  0.5082
  949MOL0     C25147   8.576   8.158   6.777  0.4465 -0.0323 -0.0687
  949MOL0     C25148   8.561   8.302   6.756  0.4343 -0.9015 -0.7681
  949MOL0     C25149   8.448   8.348   6.852 -0.2847  0.4571  0.4112
  949MOL0     C25150   8.465   8.502   6.868  0.5858  0.2242 -0.6078
  949MOL0     C25151   8.351   8.544   6.960 -0.9345  0.1431  0.4854
  949MOL0     C25152   8.363   8.687   7.010 -0.2359  0.0604 -0.1832
  949MOL0     N25153   8.402   8.784   6.912 -0.3006 -0.6078 -0.8379
  949MOL0     C25154   8.508   8.864   6.932 -0.4093 -0.4525  0.2272
  949MOL0     C25155   8.496   8.973   6.858  0.2063 -0.9661 -0.3599
  949MOL0     C25156   8.587   9.103   6.864 -0.0805  0.3296  0.2473
  949MOL0     C25157   8.543   9.196   6.986  0.0571 -0.5558 -0.0325
  949MOL0     C25158   8.402   9.244   6.968  0.6281  0.0741 -0.3866
  949MOL0     C25159   8.395   9.337   6.850  0.7320  0.9693  0.0991
  949MOL0     O25160   8.269   9.401   6.866 -0.0698  0.1565 -0.4910
  949MOL0     C25161   8.163   9.375   6.789  0.6516 -0.3429  0.0984
  949MOL0     C25162   8.139   9.263   6.706 -0.8444 -0.5299 -0.3163
  949MOL0     C25163   8.023   9.256   6.622  0.5935  0.8544 -0.8490
  949MOL0     C25164   7.929   9.354   6.619 -0.6030 -0.2517  0.3137
  949MOL0     C25165   7.821   9.341   6.519  0.3240 -0.7114 -0.2588
  949MOL0     O25166   7.787   9.219   6.468 -0.8111 -0.1211  0.5573
  949MOL0     C25167   7.684   9.211   6.369 -0.3837 -0.3798  0.3222
  949MOL0     C25168   7.552   9.171   6.406 -0.5693 -1.0600 -0.5388
  949MOL0     C25169   7.446   9.168   6.314  0.5199 -0.2481 -0.3240
  949MOL0     C25170   7.463   9.224   6.186 -0.3250  0.3454  0.6882
  949MOL0     O25171   7.361   9.247   6.103 -0.0591 -0.2129  0.1904
  949MOL0     C25172   7.241   9.170   6.102  0.1391  0.0291 -0.2277
  949MOL0     C25173   7.163   9.231   5.990 -0.3701  0.0613 -0.3762
  949MOL0     C25174   7.033   9.159   5.929  0.0345  0.1432  0.8240
  949MOL0     C25175   6.905   9.184   6.011  0.0003 -0.0309  0.0975
  949MOL0     C25176   6.783   9.111   5.952  0.6414  0.8830 -0.4658
  949MOL0     C25177   6.728   9.176   5.819 -0.0155  0.0063 -0.3570
  949MOL0     C25178   6.603   9.089   5.776 -0.7845 -1.1367  0.3853
  949MOL0     C25179   6.561   9.123   5.634 -0.0647  0.6976  0.2832
  949MOL0    Cl25180   6.514   9.283   5.604 -0.2949  0.7226 -0.4805
  949MOL0     C25181   7.596   9.259   6.148  0.3512 -0.2323  0.2007
  949MOL0     C25182   7.703   9.250   6.238  0.1710 -0.0552 -0.1760
  949MOL0     O25183   7.764   9.445   6.491 -0.1385  0.2761 -0.4620
  949MOL0     C25184   7.948   9.463   6.705 -0.1887  0.0123 -0.6253
  949MOL0     C25185   8.062   9.476   6.786  0.3610 -0.0434  0.1356
  949MOL0     N25186   8.376   8.963   6.793 -0.2111 -0.4543 -0.5950
  949MOL0     N25187   8.324   8.851   6.825  0.3981 -0.0364  0.2617
  949MOL0     C25188   9.056   8.035   7.156 -0.0361 -0.1681 -1.0543
  949MOL0     C25189   9.187   8.037   7.185  0.5387 -1.2050  0.4570
  949MOL0     C25190   9.622   8.200   7.154  0.0646 -0.4601 -0.6533
  949MOL0     C25191   9.697   8.123   7.064 -0.5764 -0.8839  0.0267
  949MOL0     C25192   9.833   8.133   7.082 -0.0340  0.1593  0.1371
  949MOL0     C25193   9.900   8.200   7.181 -0.6475 -0.0853 -0.7880
  949MOL0     O25194  10.041   8.191   7.203 -0.2595 -0.2225 -0.3179
  949MOL0     C25195  10.060   8.120   7.324 -0.6228  0.3653  0.1969
  949MOL0     C25196  10.187   8.032   7.318 -0.3969 -0.1109 -0.7100
  949MOL0     C25197  10.302   8.115   7.293  0.0686  0.7875 -0.7712
  949MOL0     C25198  10.432   8.027   7.303  0.2709 -0.3590 -0.8299
  949MOL0     C25199  10.550   8.120   7.313 -0.1896  0.2826 -0.0551
  949MOL0     C25200  10.640   8.197   7.319 -0.7920  0.4784 -0.3904
  949MOL0     C25201   9.821   8.276   7.271  0.5506 -0.4409  0.1316
  949MOL0     C25202   9.686   8.281   7.253  0.5721  0.0331 -0.3948
  949MOL0     H25203   9.327   8.106   6.899  1.1000 -1.0950  1.2213
  949MOL0     H25204   9.068   8.088   6.828 -0.1715 -0.3781  0.4475
  949MOL0     H25205   8.831   8.014   6.814  3.2192  2.8720 -2.3179
  949MOL0     H25206   8.873   8.190   6.837  0.8500  0.0860 -0.2782
  949MOL0     H25207   8.662   8.206   6.982  0.5785  0.0140  0.3407
  949MOL0     H25208   8.636   8.031   6.945  2.2749 -0.0951  3.2805
  949MOL0     H25209   8.480   8.110   6.795 -0.5510  0.9190 -2.4494
  949MOL0     H25210   8.610   8.118   6.680  3.2227 -2.9127  1.9034
  949MOL0     H25211   8.656   8.356   6.760  1.1418 -2.1745 -0.0259
  949MOL0     H25212   8.532   8.316   6.651 -1.7838 -1.7237 -0.3178
  949MOL0     H25213   8.460   8.298   6.949  0.5929  0.1585  0.1593
  949MOL0     H25214   8.350   8.327   6.806  0.4376 -0.0233 -0.9589
  949MOL0     H25215   8.466   8.569   6.781  2.6589  1.3569  0.2005
  949MOL0     H25216   8.565   8.531   6.903  1.9095 -1.7333 -2.5611
  949MOL0     H25217   8.257   8.535   6.904  0.0405 -3.0819 -0.8319
  949MOL0     H25218   8.348   8.467   7.038 -0.1470 -0.5608 -0.1706
  949MOL0     H25219   8.431   8.687   7.095 -0.2252 -1.0781 -0.1771
  949MOL0     H25220   8.260   8.718   7.029 -0.8067 -0.1388 -2.6512
  949MOL0     H25221   8.589   8.855   7.003  2.0406 -0.2534 -2.3830
  949MOL0     H25222   8.595   9.159   6.771  3.2036  0.4585  0.4921
  949MOL0     H25223   8.691   9.071   6.865 -0.6151 -1.6155 -1.0297
  949MOL0     H25224   8.613   9.279   6.995  0.2082 -0.8514  2.1607
  949MOL0     H25225   8.545   9.146   7.084 -2.4001 -1.7592 -0.5193
  949MOL0     H25226   8.333   9.161   6.952 -0.2575  0.7286 -0.0595
  949MOL0     H25227   8.361   9.301   7.052 -1.2997 -0.3156 -0.9988
  949MOL0     H25228   8.399   9.281   6.756 -1.0413 -0.3965  0.7783
  949MOL0     H25229   8.477   9.409   6.847  1.4177  0.1756 -0.4125
  949MOL0     H25230   8.216   9.188   6.690 -0.2406  0.0213 -0.0197
  949MOL0     H25231   8.032   9.171   6.555  3.2919 -1.9046  2.6419
  949MOL0     H25232   7.539   9.147   6.511 -0.4640  0.8316 -0.0638
  949MOL0     H25233   7.347   9.134   6.345  0.4096  0.7313  0.4104
  949MOL0     H25234   7.181   9.176   6.193 -0.5141  1.1709 -0.7197
  949MOL0     H25235   7.257   9.063   6.089 -0.6899 -0.0244 -0.9143
  949MOL0     H25236   7.228   9.228   5.902 -0.3247 -0.8684 -0.3277
  949MOL0     H25237   7.135   9.331   6.024 -0.6489 -0.4392  0.9293
  949MOL0     H25238   7.055   9.052   5.920 -0.1255  0.1996 -0.4226
  949MOL0     H25239   7.015   9.199   5.828  1.2283 -1.2653  0.0012
  949MOL0     H25240   6.933   9.137   6.105 -1.2128  3.4039  2.3657
  949MOL0     H25241   6.886   9.292   6.017 -0.2411 -0.0941  0.5086
  949MOL0     H25242   6.712   9.123   6.034  0.3708  1.1901 -0.7418
  949MOL0     H25243   6.799   9.003   5.944  5.0299  1.3206  0.0360
  949MOL0     H25244   6.800   9.156   5.739  0.4847  2.5048 -0.6328
  949MOL0     H25245   6.717   9.285   5.823 -1.8772 -0.1969  0.8220
  949MOL0     H25246   6.636   8.986   5.788  0.3198 -0.4812  5.2433
  949MOL0     H25247   6.515   9.115   5.836 -1.1315  1.2280 -0.9948
  949MOL0     H25248   6.481   9.061   5.591 -1.2132  2.1134  0.3107
  949MOL0     H25249   6.644   9.105   5.565 -1.0559  1.8272 -1.2730
  949MOL0     H25250   7.608   9.314   6.056 -3.5221 -0.0590 -0.3560
  949MOL0     H25251   7.799   9.292   6.208 -0.1332  0.4978 -0.3880
  949MOL0     H25252   7.869   9.537   6.702 -0.6005 -0.4236 -0.7283
  949MOL0     H25253   8.065   9.573   6.835 -2.5728  0.9173 -1.3416
  949MOL0     H25254   8.984   8.026   7.238  0.1480 -1.8524 -1.0452
  949MOL0     H25255   9.204   8.032   7.292 -2.2467  2.5227  1.2803
  949MOL0     H25256   9.654   8.079   6.976 -1.3541  4.6170 -2.7735
  949MOL0     H25257   9.887   8.075   7.008 -2.9975 -2.4052 -0.2457
  949MOL0     H25258   9.975   8.052   7.334  0.0997 -0.7348 -0.9000
  949MOL0     H25259  10.065   8.185   7.412 -1.4892 -0.1191  0.6060
  949MOL0     H25260  10.197   7.980   7.414  0.7782  0.1414 -0.6890
  949MOL0     H25261  10.175   7.954   7.242 -0.5963  0.2632 -1.0639
  949MOL0     H25262  10.312   8.198   7.363  1.5653 -0.1350  0.1920
  949MOL0     H25263  10.298   8.153   7.191  0.4665  2.9594 -0.0252
  949MOL0     H25264  10.430   7.954   7.384 -1.3418  0.8999  0.3325
  949MOL0     H25265  10.438   7.964   7.214 -1.6368 -3.0887  0.8192
  949MOL0     H25266  10.702   8.285   7.324  0.4929 -0.3700 -1.0132
  949MOL0     H25267   9.877   8.333   7.344 -1.6173  0.2951  1.3005
  949MOL0     H25268   9.631   8.345   7.320  0.9045  0.8766 -0.9178
  950MOL0     O25269   1.772   1.256   3.184  0.0744  0.2031  0.3134
  950MOL0     C25270   1.728   1.320   3.277  1.0420 -0.5845 -0.0531
  950MOL0     O25271   1.807   1.380   3.371 -0.6595  0.1259 -0.0586
  950MOL0     C25272   1.936   1.348   3.374  0.0058 -0.7624 -0.1733
  950MOL0     C25273   2.016   1.408   3.277 -0.4578 -0.5113 -0.1819
  950MOL0     C25274   2.159   1.416   3.282 -0.6443  0.5537  0.9796
  950MOL0     C25275   2.220   1.335   3.381  0.6042 -0.7366 -0.2496
  950MOL0     O25276   2.355   1.341   3.377  0.1776  0.0329  0.1868
  950MOL0     C25277   2.426   1.236   3.434 -0.3191  0.6667 -0.3861
  950MOL0     C25278   2.458   1.277   3.585 -1.8035 -0.1649 -0.6199
  950MOL0     C25279   2.562   1.389   3.611 -0.6034 -0.4638  0.2691
  950MOL0     C25280   2.535   1.531   3.556 -0.2071 -0.7965 -0.5164
  950MOL0     C25281   2.658   1.631   3.611  0.1208 -0.1619 -0.4803
  950MOL0     C25282   2.794   1.580   3.573 -0.7547  0.2958  0.4283
  950MOL0     C25283   2.896   1.695   3.585  1.2134  0.6261 -0.8581
  950MOL0     C25284   2.918   1.736   3.736  1.0493  0.3185  0.2273
  950MOL0     N25285   3.025   1.826   3.752  0.3794  0.1619 -0.1106
  950MOL0     C25286   3.161   1.800   3.754 -0.2984  1.0816 -0.0963
  950MOL0     C25287   3.223   1.916   3.785 -0.1491  0.1223  0.5609
  950MOL0     C25288   3.369   1.932   3.816 -0.3454 -0.0531  0.3718
  950MOL0     C25289   3.446   1.949   3.683 -0.2244 -0.0550 -0.8413
  950MOL0     C25290   3.414   2.083   3.618 -0.1998  0.0442  0.3238
  950MOL0     C25291   3.495   2.116   3.495  0.3956  0.6170 -0.3196
  950MOL0     O25292   3.504   2.257   3.466  0.5392  0.2720 -0.7311
  950MOL0     C25293   3.413   2.330   3.386 -0.7969 -1.0991 -0.4158
  950MOL0     C25294   3.284   2.291   3.360  0.2281  0.5567  0.2600
  950MOL0     C25295   3.211   2.365   3.263 -0.1973  0.1557 -0.1458
  950MOL0     C25296   3.258   2.487   3.210  1.0525  0.0052  0.3034
  950MOL0     C25297   3.170   2.577   3.123 -0.8218  0.5260 -0.7441
  950MOL0     O25298   3.051   2.529   3.109  0.1882  0.1784  0.6110
  950MOL0     C25299   2.965   2.580   3.013  0.1281  0.5363 -0.6941
  950MOL0     C25300   2.841   2.628   3.064 -0.6672 -0.3361  0.1927
  950MOL0     C25301   2.738   2.681   2.986  0.1608 -0.1141  0.4192
  950MOL0     C25302   2.761   2.701   2.848  0.7997  0.5733  0.1986
  950MOL0     O25303   2.677   2.772   2.775 -0.0018  0.5178 -0.9145
  950MOL0     C25304   2.713   2.912   2.787  0.1248  0.8198  0.5000
  950MOL0     C25305   2.592   3.002   2.790  0.6159 -0.0834  0.2905
  950MOL0     C25306   2.472   2.977   2.686 -0.5845  0.1088  0.3762
  950MOL0     C25307   2.373   2.880   2.739  1.5067 -0.5543  1.0730
  950MOL0     C25308   2.240   2.865   2.641 -0.8044 -0.6961  0.3179
  950MOL0     C25309   2.122   2.798   2.723  0.1413  0.3651 -0.4606
  950MOL0     C25310   2.026   2.893   2.803 -0.5235  0.4385 -0.2255
  950MOL0     C25311   1.949   2.976   2.701 -0.9686 -0.1880 -0.4375
  950MOL0    Cl25312   1.828   2.871   2.621 -0.0570 -0.2885  0.3725
  950MOL0     C25313   2.880   2.665   2.803 -0.3502  0.5455 -0.2210
  950MOL0     C25314   2.982   2.600   2.876  0.6632  0.6937  0.1313
  950MOL0     O25315   3.227   2.675   3.072 -1.1330  0.2305  0.1462
  950MOL0     C25316   3.388   2.529   3.242  1.1917  0.2454 -0.6558
  950MOL0     C25317   3.461   2.453   3.336  0.4001 -0.2602  0.3601
  950MOL0     N25318   3.131   2.014   3.793  0.7858  0.3890 -0.6578
  950MOL0     N25319   3.009   1.964   3.778 -0.4450 -0.7371  0.1983
  950MOL0     C25320   2.142   1.262   3.478 -0.1661 -0.1446 -0.0725
  950MOL0     C25321   1.999   1.290   3.487 -0.7085 -0.7279 -0.4333
  950MOL0     C25322   1.587   1.355   3.286  0.7945 -0.2786 -0.0440
  950MOL0     C25323   1.490   1.310   3.189  0.3480  0.0044 -0.0272
  950MOL0     C25324   1.350   1.328   3.209 -0.5885  0.1796  0.2832
  950MOL0     C25325   1.303   1.393   3.329  0.1072 -0.7450  0.2879
  950MOL0     O25326   1.176   1.400   3.367  0.6005 -0.3373  0.6347
  950MOL0     C25327   1.078   1.412   3.258  0.8493 -0.3114  0.1120
  950MOL0     C25328   0.981   1.292   3.235  0.5998  0.0355 -0.1251
  950MOL0     C25329   0.870   1.294   3.122 -0.4255  0.6875  0.0580
  950MOL0     C25330   0.742   1.342   3.174  0.0816 -0.8239  0.2138
  950MOL0     C25331   0.649   1.363   3.057  0.8197  0.1163 -0.5911
  950MOL0     C25332   0.566   1.386   2.969 -0.0299  0.6920  0.4831
  950MOL0     C25333   1.397   1.445   3.423 -0.3691 -0.6175  0.2577
  950MOL0     C25334   1.537   1.431   3.402  0.3923  0.3068 -0.0513
  950MOL0     H25335   1.963   1.475   3.210 -1.8881  0.4276  1.7568
  950MOL0     H25336   2.217   1.472   3.210 -1.0713  1.6322  1.4501
  950MOL0     H25337   2.529   1.237   3.397 -0.7323  1.3838 -1.5724
  950MOL0     H25338   2.387   1.136   3.416 -0.8024  0.8371 -0.2996
  950MOL0     H25339   2.490   1.183   3.630  1.6085  1.6025  1.0469
  950MOL0     H25340   2.372   1.308   3.644 -0.9587 -0.4590  0.8287
  950MOL0     H25341   2.657   1.353   3.570  0.4122  1.9239  0.3650
  950MOL0     H25342   2.583   1.391   3.719 -1.7300  1.8851  0.4973
  950MOL0     H25343   2.521   1.533   3.447 -2.1273 -1.1125 -0.3157
  950MOL0     H25344   2.443   1.572   3.598  0.7510  2.2742 -1.1123
  950MOL0     H25345   2.656   1.633   3.720  0.6514 -0.6093 -0.4533
  950MOL0     H25346   2.647   1.732   3.570 -0.7312 -0.3754 -0.7916
  950MOL0     H25347   2.787   1.552   3.467  0.0654 -1.6996  0.8628
  950MOL0     H25348   2.830   1.488   3.619  0.1103 -0.6403 -1.9549
  950MOL0     H25349   2.991   1.660   3.542  0.9797 -0.1123 -0.7939
  950MOL0     H25350   2.860   1.773   3.518 -0.0563 -0.7117 -1.7913
  950MOL0     H25351   2.945   1.645   3.790  0.5813 -1.5933 -2.5523
  950MOL0     H25352   2.830   1.776   3.787  1.2127  4.3812 -2.2735
  950MOL0     H25353   3.207   1.705   3.729  0.8378  0.9434  2.2036
  950MOL0     H25354   3.415   1.848   3.868 -0.5974 -1.5479 -1.7012
  950MOL0     H25355   3.383   2.027   3.869 -1.9031 -0.6319  1.9221
  950MOL0     H25356   3.408   1.873   3.614 -2.2571  0.0459  0.0674
  950MOL0     H25357   3.550   1.955   3.717 -0.2816 -1.8511 -0.2533
  950MOL0     H25358   3.310   2.081   3.585 -0.6450 -2.5431  1.6526
  950MOL0     H25359   3.418   2.159   3.697 -0.5256  1.8212 -1.2997
  950MOL0     H25360   3.440   2.071   3.412 -0.5626  0.3650  0.4228
  950MOL0     H25361   3.590   2.062   3.492 -0.5640 -1.1682 -4.1047
  950MOL0     H25362   3.251   2.197   3.403 -0.6528  1.7703  2.3422
  950MOL0     H25363   3.116   2.327   3.229  0.0145 -0.3852 -0.1371
  950MOL0     H25364   2.834   2.623   3.172 -2.5029  1.8438  0.2422
  950MOL0     H25365   2.642   2.719   3.019 -0.9123 -1.0909 -1.4218
  950MOL0     H25366   2.781   2.940   2.705 -2.2057  0.7479 -1.5647
  950MOL0     H25367   2.758   2.933   2.885  0.8743 -2.4745  0.9576
  950MOL0     H25368   2.623   3.106   2.787 -0.3733  0.2125 -1.9195
  950MOL0     H25369   2.532   2.988   2.880 -0.6711  1.3598 -0.2912
  950MOL0     H25370   2.512   2.939   2.591  3.5049  0.4990  1.7282
  950MOL0     H25371   2.427   3.072   2.657 -0.8752  0.0840  0.7330
  950MOL0     H25372   2.399   2.776   2.756 -4.1758 -2.0979  2.7216
  950MOL0     H25373   2.338   2.935   2.827 -0.6937  0.7928 -0.5178
  950MOL0     H25374   2.262   2.817   2.545  0.1909 -1.4012  0.8870
  950MOL0     H25375   2.216   2.969   2.615 -0.2747 -0.2500  1.5325
  950MOL0     H25376   2.161   2.724   2.794 -1.0941  2.0922  2.1781
  950MOL0     H25377   2.071   2.732   2.653  0.3110  0.3297 -0.5499
  950MOL0     H25378   1.959   2.833   2.864 -1.0504 -1.1591 -2.2539
  950MOL0     H25379   2.073   2.965   2.871 -3.3329  1.4491  0.8028
  950MOL0     H25380   2.019   3.027   2.635  0.5562  0.4505  1.5486
  950MOL0     H25381   1.898   3.056   2.757 -0.9168 -0.8205  0.5412
  950MOL0     H25382   2.895   2.696   2.700  1.6101 -2.6768 -1.0630
  950MOL0     H25383   3.080   2.580   2.834  1.4625  3.4491  0.4647
  950MOL0     H25384   3.436   2.614   3.193  1.2054  0.2828 -0.5780
  950MOL0     H25385   3.562   2.488   3.356  0.7463 -2.0111  1.9829
  950MOL0     H25386   2.176   1.194   3.555 -2.6908 -1.5913 -0.1281
  950MOL0     H25387   1.944   1.252   3.573 -3.1683  1.4603 -0.8966
  950MOL0     H25388   1.519   1.254   3.101 -0.8554 -0.6115 -0.0561
  950MOL0     H25389   1.272   1.284   3.148  0.0486  0.1535 -0.5391
  950MOL0     H25390   1.120   1.455   3.166 -1.1571  3.5226  0.7690
  950MOL0     H25391   1.012   1.490   3.298  2.2770 -0.1826  2.3718
  950MOL0     H25392   1.048   1.209   3.211  1.1017  0.8531 -1.6308
  950MOL0     H25393   0.935   1.269   3.332 -2.2675  2.6179 -0.7053
  950MOL0     H25394   0.858   1.189   3.097  2.3681  0.4632 -0.6739
  950MOL0     H25395   0.903   1.350   3.034  0.3192 -1.3774 -1.0273
  950MOL0     H25396   0.696   1.279   3.250  0.1314  0.7219  1.5621
  950MOL0     H25397   0.760   1.437   3.224 -3.9713  0.7979 -1.0752
  950MOL0     H25398   0.484   1.398   2.901 -1.0517 -0.1234  1.5117
  950MOL0     H25399   1.373   1.493   3.517  1.4854 -0.9250  0.9150
  950MOL0     H25400   1.596   1.463   3.486  1.0891 -1.1807  0.0570
  951MOL0     O25401   5.868   5.843   7.976 -0.1804 -0.3359  0.4796
  951MOL0     C25402   5.939   5.816   7.876  0.5577  0.6805  0.4758
  951MOL0     O25403   5.893   5.828   7.739 -0.4197  0.2470 -1.0242
  951MOL0     C25404   5.778   5.873   7.700  0.2166 -0.4372  1.2649
  951MOL0     C25405   5.765   5.873   7.557 -0.1739 -0.9488 -0.1867
  951MOL0     C25406   5.652   5.934   7.494  0.0757  0.0472  1.0571
  951MOL0     C25407   5.554   5.996   7.575 -0.9402 -0.2244  0.7604
  951MOL0     O25408   5.445   6.059   7.508 -0.7389  0.2426 -0.8094
  951MOL0     C25409   5.344   5.963   7.478 -0.2131  0.1108  1.2508
  951MOL0     C25410   5.220   6.030   7.534  0.7048 -0.2702  0.1151
  951MOL0     C25411   5.185   6.169   7.480  0.3896 -1.5036 -0.2733
  951MOL0     C25412   5.032   6.181   7.439  0.2317 -0.6123  0.1544
  951MOL0     C25413   4.974   6.328   7.429 -0.6720  0.2534 -0.2988
  951MOL0     C25414   5.036   6.406   7.306 -0.5045 -0.0852 -0.2507
  951MOL0     C25415   4.997   6.548   7.315  0.6959  0.1225 -0.3865
  951MOL0     C25416   5.060   6.649   7.225  0.4658 -0.4674  0.4066
  951MOL0     N25417   5.207   6.643   7.251 -0.0381  0.0413  0.1132
  951MOL0     C25418   5.269   6.667   7.376  0.1320 -0.1094  0.9986
  951MOL0     C25419   5.398   6.640   7.347  0.3995  0.0627 -0.1497
  951MOL0     C25420   5.515   6.662   7.437  0.8058 -0.4244 -0.3532
  951MOL0     C25421   5.540   6.820   7.432  0.5207  0.2956  0.3215
  951MOL0     C25422   5.612   6.890   7.550  0.5457  0.1853 -0.6116
  951MOL0     C25423   5.744   6.826   7.590 -0.0032  0.9158 -0.5039
  951MOL0     O25424   5.735   6.695   7.633 -0.1248  0.0990 -0.2086
  951MOL0     C25425   5.844   6.644   7.701  0.6936 -0.3270  0.8846
  951MOL0     C25426   5.970   6.663   7.658 -1.0739  0.6530  0.6378
  951MOL0     C25427   6.069   6.632   7.747 -0.4123  0.6145 -0.0498
  951MOL0     C25428   6.051   6.572   7.881 -0.0546  0.0728  0.8173
  951MOL0     C25429   6.162   6.543   7.973  0.1162 -0.4078 -0.1516
  951MOL0     O25430   6.292   6.564   7.919  0.7276  0.2866 -0.2652
  951MOL0     C25431   6.392   6.543   8.007 -0.4405 -0.7218 -0.1385
  951MOL0     C25432   6.502   6.462   7.970 -0.0738  1.0876  0.3508
  951MOL0     C25433   6.612   6.441   8.052  0.7409  0.5734  0.6542
  951MOL0     C25434   6.618   6.499   8.179  0.0918  0.5836 -0.1168
  951MOL0     O25435   6.714   6.475   8.267 -0.5166 -0.5142  0.1634
  951MOL0     C25436   6.827   6.395   8.219  0.1133  0.2786 -0.3303
  951MOL0     C25437   6.921   6.384   8.342  0.1338 -0.6570 -0.5117
  951MOL0     C25438   7.066   6.351   8.302 -0.4605  0.8150  0.5856
  951MOL0     C25439   7.085   6.231   8.205  1.6290  0.2432 -0.2120
  951MOL0     C25440   7.220   6.155   8.210  0.3094 -0.0700 -0.4800
  951MOL0     C25441   7.237   6.063   8.331  0.0596 -0.0724 -0.5201
  951MOL0     C25442   7.339   6.113   8.438 -0.2171  0.2630 -0.4924
  951MOL0     C25443   7.385   6.004   8.523 -1.2283  0.6982 -0.1646
  951MOL0    Cl25444   7.254   5.981   8.647  0.1169 -0.3892  0.2780
  951MOL0     C25445   6.508   6.579   8.222 -0.3049 -0.6505 -0.2607
  951MOL0     C25446   6.397   6.598   8.134 -0.3375 -0.6720  0.7111
  951MOL0     O25447   6.135   6.491   8.079 -0.0341  1.1140 -0.1322
  951MOL0     C25448   5.925   6.546   7.915  0.6653  0.6053  0.8555
  951MOL0     C25449   5.818   6.595   7.830 -0.1264 -0.3021  0.3196
  951MOL0     N25450   5.417   6.607   7.214 -0.7299 -0.8524 -0.1858
  951MOL0     N25451   5.298   6.597   7.164  0.0695 -0.2532  0.3862
  951MOL0     C25452   5.560   5.998   7.712  0.4102 -0.5550  0.0766
  951MOL0     C25453   5.670   5.932   7.774  0.4520  0.8911  0.6483
  951MOL0     C25454   6.080   5.772   7.897 -0.0387 -0.2243 -0.5156
  951MOL0     C25455   6.135   5.762   8.032  0.1128 -0.3615  1.4727
  951MOL0     C25456   6.272   5.719   8.045  0.8065 -0.2279  0.5198
  951MOL0     C25457   6.345   5.674   7.940 -0.1392 -0.2699 -0.8845
  951MOL0     O25458   6.475   5.623   7.940 -0.2724  0.0679 -0.3658
  951MOL0     C25459   6.538   5.586   8.059  0.4149 -0.7327  0.1032
  951MOL0     C25460   6.607   5.711   8.118  0.5631  0.1543 -0.5283
  951MOL0     C25461   6.720   5.778   8.036  0.3874  0.5736  0.1233
  951MOL0     C25462   6.767   5.914   8.109 -0.6860 -0.3960  0.3905
  951MOL0     C25463   6.814   5.894   8.247  0.6439  0.4291  0.4565
  951MOL0     C25464   6.873   5.868   8.349  0.7361 -0.7746 -0.5390
  951MOL0     C25465   6.289   5.687   7.818  0.8596  0.3376  0.2856
  951MOL0     C25466   6.164   5.733   7.789 -0.5002  0.9151 -0.1850
  951MOL0     H25467   5.853   5.836   7.506  1.9326  2.0812  0.9103
  951MOL0     H25468   5.639   5.946   7.386  0.2790 -2.4246  0.6881
  951MOL0     H25469   5.349   5.871   7.537  0.3223 -1.4620 -1.1076
  951MOL0     H25470   5.331   5.938   7.373 -0.9315  0.3180  1.2845
  951MOL0     H25471   5.248   6.034   7.639  0.9433  0.4528  0.0292
  951MOL0     H25472   5.130   5.972   7.515 -0.6803  1.8261 -0.0792
  951MOL0     H25473   5.253   6.203   7.402  1.6740  1.3509  1.9177
  951MOL0     H25474   5.202   6.237   7.564 -1.9560 -1.1367 -0.0046
  951MOL0     H25475   5.029   6.137   7.339  2.5877 -0.4433 -0.0494
  951MOL0     H25476   4.970   6.128   7.511 -0.4229 -0.4012 -0.2464
  951MOL0     H25477   4.994   6.380   7.523 -1.7070 -1.6208  1.0495
  951MOL0     H25478   4.868   6.322   7.401 -1.0455 -2.4362  1.3175
  951MOL0     H25479   5.003   6.370   7.209  1.0933  0.3828 -1.0031
  951MOL0     H25480   5.143   6.387   7.316 -0.7943 -2.5813 -1.3441
  951MOL0     H25481   4.894   6.552   7.279  0.7809 -1.6325 -0.9356
  951MOL0     H25482   4.991   6.588   7.417 -2.8292  0.7370 -0.6952
  951MOL0     H25483   5.031   6.752   7.250 -0.5571 -0.3752 -1.0550
  951MOL0     H25484   5.035   6.630   7.121 -2.0829 -0.5122  0.9579
  951MOL0     H25485   5.235   6.694   7.475  2.4742  1.5979  1.4092
  951MOL0     H25486   5.605   6.604   7.414  1.1254  0.9291 -2.9447
  951MOL0     H25487   5.485   6.631   7.537  2.7615 -0.7515  0.1916
  951MOL0     H25488   5.441   6.866   7.427  0.1930 -0.2116  1.8488
  951MOL0     H25489   5.578   6.848   7.333 -0.7653 -2.4066 -1.0435
  951MOL0     H25490   5.619   6.998   7.538  3.0661  0.2863  1.0367
  951MOL0     H25491   5.548   6.874   7.637  1.6311  0.6730  0.2964
  951MOL0     H25492   5.783   6.883   7.674  0.1289 -1.4228  1.1183
  951MOL0     H25493   5.813   6.837   7.506  0.8372 -0.8045 -0.0824
  951MOL0     H25494   5.989   6.690   7.555 -1.0828 -2.6712 -0.3369
  951MOL0     H25495   6.167   6.657   7.708  0.8569  0.3545  2.7376
  951MOL0     H25496   6.497   6.426   7.868 -3.6114  0.9548  0.4507
  951MOL0     H25497   6.685   6.375   8.006 -0.2690  1.6830 -2.8218
  951MOL0     H25498   6.886   6.434   8.136  0.4035 -2.3434 -1.4805
  951MOL0     H25499   6.784   6.298   8.189 -0.4920  0.0037  1.3405
  951MOL0     H25500   6.888   6.314   8.419  0.2505 -0.6417 -0.4465
  951MOL0     H25501   6.930   6.479   8.395 -0.7387 -1.6667  1.6057
  951MOL0     H25502   7.129   6.337   8.390  1.7934  2.6443 -0.6080
  951MOL0     H25503   7.112   6.439   8.256  0.1128  0.8298  1.1785
  951MOL0     H25504   7.006   6.155   8.209  2.1322 -0.2507  1.6812
  951MOL0     H25505   7.079   6.275   8.106  1.0051 -0.4423 -0.4879
  951MOL0     H25506   7.292   6.236   8.196 -1.1274  0.8444 -3.5876
  951MOL0     H25507   7.239   6.096   8.120 -1.5431  0.5203 -1.3162
  951MOL0     H25508   7.279   5.966   8.302  2.8681  1.0864 -0.7117
  951MOL0     H25509   7.144   6.033   8.379  1.6111 -3.7842  0.5356
  951MOL0     H25510   7.423   6.164   8.390 -0.2881 -1.0184 -2.0353
  951MOL0     H25511   7.290   6.191   8.498 -0.8477  1.5176 -2.5342
  951MOL0     H25512   7.475   6.041   8.574 -1.9519  2.0552  0.1956
  951MOL0     H25513   7.413   5.918   8.462 -1.0431 -0.7484  1.8543
  951MOL0     H25514   6.525   6.624   8.320 -1.6887  0.3478 -0.4524
  951MOL0     H25515   6.311   6.654   8.169 -0.4673 -1.1302  1.1415
  951MOL0     H25516   5.899   6.499   8.009 -1.9604 -1.6055 -0.8008
  951MOL0     H25517   5.720   6.586   7.875  0.6010  0.5193  2.1632
  951MOL0     H25518   5.479   6.033   7.775 -0.5304 -2.0964 -0.2038
  951MOL0     H25519   5.677   5.920   7.881  0.8830 -1.0111  0.4342
  951MOL0     H25520   6.079   5.813   8.110 -1.1447  0.4021  0.1282
  951MOL0     H25521   6.316   5.716   8.144 -0.3873 -0.2828  1.0622
  951MOL0     H25522   6.624   5.523   8.033  0.7163  0.7784 -2.9157
  951MOL0     H25523   6.476   5.543   8.138  0.2755 -0.6901  0.0174
  951MOL0     H25524   6.537   5.790   8.145 -0.1940 -0.7426  0.1840
  951MOL0     H25525   6.653   5.683   8.214 -0.8976  1.1034  0.4949
  951MOL0     H25526   6.685   5.797   7.934 -1.9128  2.6884  1.2078
  951MOL0     H25527   6.808   5.713   8.038  2.0873  2.7379  1.4539
  951MOL0     H25528   6.846   5.965   8.053  0.4617 -2.3692  0.1286
  951MOL0     H25529   6.686   5.987   8.109 -0.1313  0.2668 -0.9051
  951MOL0     H25530   6.932   5.842   8.435 -0.4174 -1.5786  0.0407
  951MOL0     H25531   6.352   5.665   7.733  0.3430 -0.1707  0.0264
  951MOL0     H25532   6.133   5.754   7.687 -0.2577  1.0001 -0.2403
  952MOL0     O25533   5.523   4.660   3.732  0.4583  0.3102  0.0310
  952MOL0     C25534   5.538   4.758   3.797 -0.1724  0.1953  0.4685
  952MOL0     O25535   5.433   4.847   3.833  0.2037 -0.0921 -0.5348
  952MOL0     C25536   5.297   4.819   3.814 -1.0835 -0.9210 -0.6968
  952MOL0     C25537   5.246   4.789   3.685 -0.5272 -0.0195 -0.3189
  952MOL0     C25538   5.107   4.781   3.662 -0.2626  0.4505 -1.0361
  952MOL0     C25539   5.016   4.825   3.759 -0.6540  0.0797 -0.0682
  952MOL0     O25540   4.883   4.815   3.721 -0.3179 -0.7398 -0.1198
  952MOL0     C25541   4.783   4.849   3.820 -0.5895  0.5567 -0.8655
  952MOL0     C25542   4.648   4.905   3.757  0.5134  0.2028 -1.0204
  952MOL0     C25543   4.582   4.807   3.671  0.1330  0.0280  0.3499
  952MOL0     C25544   4.477   4.873   3.573 -0.7627 -0.8835 -0.4228
  952MOL0     C25545   4.382   4.771   3.496 -0.5622 -0.1718 -0.0099
  952MOL0     C25546   4.254   4.846   3.456 -0.5415  0.2145  0.1905
  952MOL0     C25547   4.158   4.758   3.376 -0.4152  0.2473  0.0510
  952MOL0     C25548   4.146   4.798   3.227  0.2815  0.4763 -0.2739
  952MOL0     N25549   4.281   4.807   3.163  0.2776 -1.2807 -0.5398
  952MOL0     C25550   4.359   4.707   3.122  0.1453  1.0683 -0.1367
  952MOL0     C25551   4.465   4.750   3.060  0.4927 -0.3817  0.0071
  952MOL0     C25552   4.575   4.667   3.007 -0.4805  0.8124 -0.0705
  952MOL0     C25553   4.530   4.601   2.887  0.0312  0.3392  0.2311
  952MOL0     C25554   4.614   4.486   2.838  1.0988 -0.3488  0.2510
  952MOL0     C25555   4.763   4.521   2.832  0.3226 -0.0735 -1.0133
  952MOL0     O25556   4.854   4.413   2.785  0.0314  0.0664  0.1082
  952MOL0     C25557   4.979   4.450   2.737 -0.2274  0.7566 -0.3720
  952MOL0     C25558   5.050   4.355   2.671 -0.0365 -0.1165 -0.5483
  952MOL0     C25559   5.194   4.373   2.644  1.5706 -0.0132 -0.2208
  952MOL0     C25560   5.250   4.504   2.668 -0.0689  0.1606  0.6451
  952MOL0     C25561   5.383   4.535   2.613  0.3322  0.2472  0.0635
  952MOL0     O25562   5.447   4.436   2.557 -0.2239 -0.3967 -0.5275
  952MOL0     C25563   5.582   4.451   2.526  0.2134 -0.0528 -0.2816
  952MOL0     C25564   5.635   4.561   2.454 -0.0576 -0.4638  0.6246
  952MOL0     C25565   5.770   4.571   2.444  0.1471 -0.8465 -0.6224
  952MOL0     C25566   5.858   4.480   2.506  0.3283 -0.7866  0.2285
  952MOL0     O25567   5.992   4.471   2.502  0.3502  0.7632  0.5313
  952MOL0     C25568   6.064   4.566   2.420  0.6016  0.8547 -0.4524
  952MOL0     C25569   6.208   4.566   2.477 -0.2158 -0.1071  0.4464
  952MOL0     C25570   6.209   4.616   2.624 -0.9623 -0.6328  0.7960
  952MOL0     C25571   6.345   4.640   2.689  0.0444 -0.0176  0.8708
  952MOL0     C25572   6.351   4.606   2.846  0.8196 -0.3137 -0.6693
  952MOL0     C25573   6.495   4.636   2.899 -0.6493 -0.9841  0.2704
  952MOL0     C25574   6.570   4.767   2.857  0.8493 -0.6622  0.1659
  952MOL0     C25575   6.698   4.768   2.932  0.4799  0.7257  0.5697
  952MOL0    Cl25576   6.680   4.833   3.096 -0.1908 -0.3625  0.1355
  952MOL0     C25577   5.802   4.365   2.561  0.4506 -0.0420  0.6474
  952MOL0     C25578   5.660   4.353   2.580 -0.6219  0.3513  0.6298
  952MOL0     O25579   5.431   4.646   2.638  0.3881  0.4160 -0.8968
  952MOL0     C25580   5.172   4.598   2.735  0.6710 -0.2638  0.1644
  952MOL0     C25581   5.044   4.564   2.771  0.7386 -0.0697 -0.1789
  952MOL0     N25582   4.454   4.889   3.062  0.2417 -0.2272 -0.9240
  952MOL0     N25583   4.339   4.927   3.118  0.1026 -0.5156  0.5038
  952MOL0     C25584   5.069   4.859   3.887  0.6054  0.1401  0.3168
  952MOL0     C25585   5.208   4.855   3.912 -0.3282 -0.8418  0.9766
  952MOL0     C25586   5.674   4.787   3.837 -0.6291  0.1169  0.2089
  952MOL0     C25587   5.787   4.713   3.793  0.1602  0.3435  0.7498
  952MOL0     C25588   5.920   4.748   3.832  0.1691 -0.3989 -0.6160
  952MOL0     C25589   5.942   4.849   3.929  0.3292  0.0597  0.2603
  952MOL0     O25590   6.066   4.874   3.969 -0.4138 -0.1633  0.0588
  952MOL0     C25591   6.094   4.950   4.089 -0.1342 -0.3070 -0.3198
  952MOL0     C25592   6.243   4.903   4.150 -0.0702  0.0878 -0.8761
  952MOL0     C25593   6.239   4.767   4.233  1.2255 -0.2329 -0.0042
  952MOL0     C25594   6.311   4.654   4.165 -1.1010  0.3889 -0.5930
  952MOL0     C25595   6.300   4.528   4.230  0.3028  0.4360  0.2933
  952MOL0     C25596   6.285   4.415   4.274 -0.1247 -0.7450  0.0704
  952MOL0     C25597   5.831   4.933   3.960  1.0533  0.6081  0.3426
  952MOL0     C25598   5.694   4.903   3.908 -0.2047 -0.6730 -0.4547
  952MOL0     H25599   5.310   4.756   3.603  3.5336  1.9765  1.7542
  952MOL0     H25600   5.066   4.762   3.564 -3.2556  1.2271 -0.0324
  952MOL0     H25601   4.821   4.932   3.880 -1.1135  1.0905 -1.2639
  952MOL0     H25602   4.770   4.766   3.891  0.8573  0.9074 -0.1470
  952MOL0     H25603   4.680   4.996   3.706  0.3613  1.1147  0.4418
  952MOL0     H25604   4.580   4.933   3.838  1.3374  1.1673 -0.6462
  952MOL0     H25605   4.536   4.723   3.725  0.5912 -1.5666 -1.6051
  952MOL0     H25606   4.658   4.757   3.610  1.0709 -0.3502  1.7556
  952MOL0     H25607   4.416   4.946   3.627 -0.7620  1.2420 -3.0423
  952MOL0     H25608   4.535   4.930   3.500  0.4483 -1.2683  0.2234
  952MOL0     H25609   4.340   4.689   3.555 -1.8980  0.9951  0.7288
  952MOL0     H25610   4.430   4.722   3.410 -2.8361 -2.4321 -0.1392
  952MOL0     H25611   4.276   4.942   3.408 -1.6539  1.1572  1.5255
  952MOL0     H25612   4.205   4.878   3.548 -2.4926 -2.2342  0.0861
  952MOL0     H25613   4.183   4.652   3.390 -1.8319  0.0460  1.4397
  952MOL0     H25614   4.060   4.767   3.425  0.0365 -1.6690  1.4243
  952MOL0     H25615   4.089   4.890   3.209  1.4658  1.6537  1.5628
  952MOL0     H25616   4.091   4.723   3.170  3.7892 -1.8656 -0.9567
  952MOL0     H25617   4.344   4.600   3.136 -1.5793  1.4835  1.6207
  952MOL0     H25618   4.604   4.592   3.081  2.2650 -0.9453 -2.7212
  952MOL0     H25619   4.665   4.727   2.991  0.5208  0.0716  2.3277
  952MOL0     H25620   4.538   4.676   2.808  4.3192  0.1063  0.1899
  952MOL0     H25621   4.426   4.571   2.898  0.3454 -0.7024  0.4591
  952MOL0     H25622   4.606   4.401   2.906  0.4145 -1.2849 -0.9662
  952MOL0     H25623   4.577   4.459   2.739 -0.6249 -1.0799  1.0588
  952MOL0     H25624   4.796   4.548   2.933  1.0431 -1.6011 -0.8073
  952MOL0     H25625   4.763   4.607   2.764  1.8036  1.8036  1.1864
  952MOL0     H25626   5.003   4.262   2.641  0.1882 -0.4978  0.2633
  952MOL0     H25627   5.256   4.293   2.606  2.6007  1.0241 -0.7840
  952MOL0     H25628   5.570   4.625   2.396  3.9805 -0.4491 -4.6778
  952MOL0     H25629   5.818   4.653   2.390  1.0668 -0.7007  0.3773
  952MOL0     H25630   6.032   4.670   2.431  2.5111  1.2833  1.8025
  952MOL0     H25631   6.074   4.535   2.315 -1.8049  1.7701 -1.0171
  952MOL0     H25632   6.277   4.625   2.416  0.1495 -1.7383 -0.7903
  952MOL0     H25633   6.243   4.463   2.466 -3.4547 -1.0963 -2.7827
  952MOL0     H25634   6.155   4.546   2.687 -0.7194 -1.1462  0.4354
  952MOL0     H25635   6.148   4.707   2.626 -3.0100 -1.9388  0.1103
  952MOL0     H25636   6.419   4.580   2.635 -0.4576  0.3919 -0.3159
  952MOL0     H25637   6.372   4.740   2.654 -1.3187 -0.9031 -3.2788
  952MOL0     H25638   6.327   4.501   2.867 -0.0275 -0.2074 -1.0651
  952MOL0     H25639   6.277   4.670   2.894 -0.2938 -0.3548 -2.2483
  952MOL0     H25640   6.553   4.556   2.854 -3.1959 -3.1990  0.6174
  952MOL0     H25641   6.501   4.616   3.007  0.1633 -0.1208  0.3913
  952MOL0     H25642   6.594   4.770   2.750 -4.2181 -1.4160 -1.2449
  952MOL0     H25643   6.512   4.855   2.883 -1.8203 -2.0504 -0.6866
  952MOL0     H25644   6.768   4.819   2.865 -1.8849  0.4850 -2.3105
  952MOL0     H25645   6.729   4.663   2.930  1.1613  0.9188 -1.7123
  952MOL0     H25646   5.866   4.283   2.593 -0.9847 -2.0522 -1.3021
  952MOL0     H25647   5.617   4.274   2.639 -2.4731  0.1032 -0.9540
  952MOL0     H25648   5.202   4.700   2.757 -2.0711  0.9331 -1.1451
  952MOL0     H25649   4.976   4.635   2.816 -1.9865 -1.5906 -1.6424
  952MOL0     H25650   5.001   4.894   3.964 -1.7868 -3.6411  0.2198
  952MOL0     H25651   5.226   4.875   4.017  0.2324  0.2394  0.6909
  952MOL0     H25652   5.785   4.629   3.724  0.1540 -0.1165  1.3078
  952MOL0     H25653   5.999   4.688   3.788 -0.0655 -3.0448  2.2205
  952MOL0     H25654   6.016   4.946   4.166 -0.0036 -0.9738 -0.2180
  952MOL0     H25655   6.090   5.056   4.062 -2.3468  0.1036  1.3372
  952MOL0     H25656   6.321   4.906   4.074  1.8623  0.0771  1.0142
  952MOL0     H25657   6.275   4.974   4.227  2.1928 -1.2580 -0.4979
  952MOL0     H25658   6.133   4.740   4.245  1.0894  0.5616  0.6263
  952MOL0     H25659   6.281   4.796   4.329 -1.3777  2.8579  0.3841
  952MOL0     H25660   6.268   4.645   4.065 -1.2352  0.8872 -0.5865
  952MOL0     H25661   6.418   4.677   4.161 -1.2013  0.9479 -0.2518
  952MOL0     H25662   6.254   4.325   4.324 -0.6868 -0.8276 -0.4238
  952MOL0     H25663   5.860   5.019   4.019  2.6179 -0.2677  0.9215
  952MOL0     H25664   5.614   4.972   3.931 -0.7060 -1.5351  0.4612
  953MOL0     O25665   5.054   5.562   8.489  0.9133 -0.1847 -0.6105
  953MOL0     C25666   5.060   5.455   8.425  0.2090 -0.1966 -0.0186
  953MOL0     O25667   4.969   5.400   8.337 -0.3110 -0.1724  0.1672
  953MOL0     C25668   4.853   5.468   8.316  0.4832 -0.4700 -0.1720
  953MOL0     C25669   4.733   5.399   8.327  0.1952 -0.2857 -0.8477
  953MOL0     C25670   4.612   5.449   8.263  0.4310  0.1650  0.5927
  953MOL0     C25671   4.614   5.576   8.209 -0.1129 -0.4977  0.4452
  953MOL0     O25672   4.484   5.607   8.187  0.6561 -0.2625  0.4437
  953MOL0     C25673   4.466   5.729   8.110 -0.1494 -1.2253  0.4138
  953MOL0     C25674   4.318   5.731   8.062  0.2662  0.0338  0.2862
  953MOL0     C25675   4.229   5.722   8.182  0.0216  0.5611 -0.2629
  953MOL0     C25676   4.073   5.706   8.157  0.0473  0.1358  0.1797
  953MOL0     C25677   4.012   5.835   8.110  0.5930 -0.3741 -0.8588
  953MOL0     C25678   3.863   5.810   8.087 -0.0750 -0.1554 -0.7906
  953MOL0     C25679   3.792   5.940   8.047  0.5080  0.1742 -0.4715
  953MOL0     C25680   3.644   5.893   8.005 -0.0261  0.7406 -0.2113
  953MOL0     N25681   3.570   6.007   7.945 -0.2363 -0.2089 -0.5799
  953MOL0     C25682   3.621   6.090   7.850 -0.1134  0.5862 -0.6600
  953MOL0     C25683   3.520   6.165   7.819 -0.1798 -1.5154  0.1303
  953MOL0     C25684   3.521   6.269   7.708 -0.4210 -0.6069 -0.2585
  953MOL0     C25685   3.456   6.406   7.754  0.1336 -1.1605  1.1072
  953MOL0     C25686   3.423   6.523   7.645  0.4263  0.0430 -0.0985
  953MOL0     C25687   3.350   6.646   7.700 -0.0126  0.1320  0.3174
  953MOL0     O25688   3.443   6.728   7.770  0.2253 -0.1016  0.1668
  953MOL0     C25689   3.392   6.851   7.801  1.1207  0.1403 -0.0626
  953MOL0     C25690   3.378   6.901   7.933 -0.3322  0.4972  0.6310
  953MOL0     C25691   3.327   7.024   7.951 -0.1130 -0.0528  0.2005
  953MOL0     C25692   3.280   7.106   7.842 -0.8058 -0.1043  0.7395
  953MOL0     C25693   3.218   7.239   7.854 -0.1519  0.5089  0.2220
  953MOL0     O25694   3.225   7.325   7.745 -0.8586 -0.0292  0.2464
  953MOL0     C25695   3.166   7.445   7.744 -0.2717 -0.0488  0.4438
  953MOL0     C25696   3.250   7.555   7.720 -0.1998  0.5166  0.1160
  953MOL0     C25697   3.192   7.682   7.714  0.0234  0.1562 -0.2700
  953MOL0     C25698   3.058   7.703   7.727 -1.0667 -0.1958  0.5152
  953MOL0     O25699   3.004   7.830   7.715  0.2415  0.6514 -0.4939
  953MOL0     C25700   2.995   7.873   7.576 -0.1636  0.2655 -0.3025
  953MOL0     C25701   2.868   7.818   7.498  0.6384  0.6388 -0.4917
  953MOL0     C25702   2.878   7.833   7.353  0.6229  0.2700  0.5859
  953MOL0     C25703   2.752   7.779   7.297  0.2565  0.2482  1.3372
  953MOL0     C25704   2.738   7.774   7.136  0.5598  0.6593 -0.1033
  953MOL0     C25705   2.741   7.901   7.041  0.1202  1.0003  0.2473
  953MOL0     C25706   2.707   7.895   6.888 -0.6730  0.7657 -0.3267
  953MOL0     C25707   2.729   8.033   6.819  0.9098  0.8247 -0.0578
  953MOL0    Cl25708   2.897   8.080   6.827  0.0463  0.3111  0.0443
  953MOL0     C25709   2.973   7.592   7.743  0.3089 -0.0916 -0.2621
  953MOL0     C25710   3.032   7.460   7.759 -0.4308 -0.2110 -0.1787
  953MOL0     O25711   3.163   7.261   7.953 -0.0512  0.1841 -0.4657
  953MOL0     C25712   3.288   7.052   7.715 -0.6243  1.3642  0.2780
  953MOL0     C25713   3.345   6.930   7.701  0.8174  0.1542 -0.3044
  953MOL0     N25714   3.406   6.123   7.888 -0.2559  0.3097 -0.5216
  953MOL0     N25715   3.436   6.033   7.961 -0.2729  0.2406 -0.9145
  953MOL0     C25716   4.731   5.649   8.212 -0.5282 -0.0199  0.0548
  953MOL0     C25717   4.851   5.601   8.261 -0.4073  0.5820 -0.6706
  953MOL0     C25718   5.191   5.378   8.430  0.5311 -0.5039 -0.2420
  953MOL0     C25719   5.266   5.390   8.550  0.3880  0.2115 -0.5339
  953MOL0     C25720   5.376   5.317   8.585 -1.0709  0.6495  0.1916
  953MOL0     C25721   5.422   5.225   8.491 -0.4221  0.0779  0.3613
  953MOL0     O25722   5.537   5.159   8.532  0.5910  0.4391 -0.4412
  953MOL0     C25723   5.610   5.086   8.439 -0.1458 -0.2423  0.0985
  953MOL0     C25724   5.718   5.002   8.515  0.3609 -0.4496  0.2099
  953MOL0     C25725   5.797   5.078   8.619  0.3876 -0.3175 -0.2401
  953MOL0     C25726   5.885   5.201   8.558  0.4490  0.4938 -0.3172
  953MOL0     C25727   5.953   5.277   8.661 -0.8487  0.4826  0.2974
  953MOL0     C25728   5.977   5.346   8.760  0.8079 -0.1882  0.7093
  953MOL0     C25729   5.356   5.208   8.363  0.9347  0.3672 -0.6162
  953MOL0     C25730   5.242   5.288   8.336 -0.0904 -0.7047  0.4957
  953MOL0     H25731   4.733   5.295   8.356  2.2344 -0.6701 -2.0526
  953MOL0     H25732   4.528   5.381   8.255  0.7169 -0.1614  0.3464
  953MOL0     H25733   4.526   5.742   8.020 -1.1087 -0.4775 -0.1417
  953MOL0     H25734   4.479   5.822   8.167 -0.4801  0.1318 -1.6368
  953MOL0     H25735   4.287   5.649   7.996 -0.4761  0.3981  0.1702
  953MOL0     H25736   4.301   5.821   8.003  1.3599 -0.2655 -0.5041
  953MOL0     H25737   4.239   5.798   8.259 -0.6149  1.0960 -0.7001
  953MOL0     H25738   4.263   5.634   8.237  1.6230  1.3443  0.0408
  953MOL0     H25739   4.050   5.626   8.086  3.2339 -1.0102  0.2556
  953MOL0     H25740   4.024   5.690   8.253 -0.9123 -3.2833 -0.7603
  953MOL0     H25741   4.062   5.878   8.022  3.3884  2.8339  2.0045
  953MOL0     H25742   4.013   5.905   8.194  3.8645 -2.4963  1.1004
  953MOL0     H25743   3.811   5.771   8.175  1.7573  1.5821  1.1730
  953MOL0     H25744   3.854   5.731   8.011 -0.0687 -0.4193 -0.5185
  953MOL0     H25745   3.803   6.016   8.125  1.8467  0.4416 -0.8859
  953MOL0     H25746   3.843   5.988   7.963  3.7594 -2.0980  0.0000
  953MOL0     H25747   3.588   5.855   8.091  0.9503 -1.0184 -0.3016
  953MOL0     H25748   3.658   5.812   7.932  0.4764 -0.9604  1.6906
  953MOL0     H25749   3.722   6.097   7.814 -0.2076  1.6044 -0.7313
  953MOL0     H25750   3.465   6.241   7.618 -3.3547 -0.0818  1.2536
  953MOL0     H25751   3.621   6.284   7.668 -0.8416 -1.9822 -1.9893
  953MOL0     H25752   3.528   6.450   7.824  0.2466 -1.7509  1.3666
  953MOL0     H25753   3.364   6.378   7.806 -0.8359  1.7144  1.1121
  953MOL0     H25754   3.524   6.545   7.607  0.3409  0.6377 -0.0005
  953MOL0     H25755   3.366   6.484   7.561 -3.5526  1.7060  1.5884
  953MOL0     H25756   3.265   6.632   7.767  1.4590 -0.3080  2.1671
  953MOL0     H25757   3.310   6.701   7.614  1.9737  1.2329  0.0451
  953MOL0     H25758   3.408   6.827   8.006 -0.0234 -1.5290 -1.4303
  953MOL0     H25759   3.320   7.073   8.048 -2.5560  1.7179 -0.7726
  953MOL0     H25760   3.356   7.545   7.703  0.1426  3.3481  0.0326
  953MOL0     H25761   3.263   7.764   7.701  0.2401  0.0582  0.2822
  953MOL0     H25762   3.089   7.859   7.522  0.4919  1.8803  0.3511
  953MOL0     H25763   2.986   7.982   7.576 -0.3815  0.2591 -1.3634
  953MOL0     H25764   2.785   7.878   7.537 -0.5702 -2.4924  2.1702
  953MOL0     H25765   2.859   7.711   7.515 -1.1271  0.7385 -0.6499
  953MOL0     H25766   2.959   7.776   7.308 -2.2308 -1.5299 -2.7979
  953MOL0     H25767   2.877   7.941   7.333  3.6651  0.4131  0.8262
  953MOL0     H25768   2.736   7.680   7.340  3.2487  0.3140  2.8510
  953MOL0     H25769   2.673   7.846   7.331  0.3328  0.5511  0.9307
  953MOL0     H25770   2.636   7.740   7.119  0.5824  0.0882  0.8402
  953MOL0     H25771   2.807   7.693   7.111  1.3970  0.1704  3.2538
  953MOL0     H25772   2.845   7.935   7.048  1.3827 -1.9957 -1.7330
  953MOL0     H25773   2.686   7.983   7.089  0.1042  1.1784 -0.0738
  953MOL0     H25774   2.767   7.822   6.834  0.7290  0.2568  1.8012
  953MOL0     H25775   2.602   7.866   6.875 -0.6825  0.9567 -0.7091
  953MOL0     H25776   2.664   8.106   6.868 -0.5452  0.8966 -1.9731
  953MOL0     H25777   2.696   8.032   6.715  0.7086  0.1974  0.0051
  953MOL0     H25778   2.868   7.618   7.739  0.6533  1.2818 -0.6935
  953MOL0     H25779   2.966   7.375   7.770  1.8791 -2.0350  0.5923
  953MOL0     H25780   3.244   7.092   7.624 -0.7702 -2.3866 -1.4569
  953MOL0     H25781   3.356   6.892   7.600 -0.5422 -1.2013  0.0294
  953MOL0     H25782   4.730   5.751   8.174 -1.1684  0.3164  0.9180
  953MOL0     H25783   4.940   5.660   8.245  0.1044  0.4433  1.3265
  953MOL0     H25784   5.246   5.463   8.628 -3.1735 -1.3463  0.1960
  953MOL0     H25785   5.424   5.320   8.682 -0.1912  0.2638 -0.2165
  953MOL0     H25786   5.657   5.157   8.371  1.1962 -0.3493  0.8777
  953MOL0     H25787   5.555   5.014   8.378 -2.4350  3.1393 -2.2403
  953MOL0     H25788   5.661   4.923   8.563  2.1691 -1.9393  0.0080
  953MOL0     H25789   5.785   4.950   8.446  0.6627 -0.8059  0.7644
  953MOL0     H25790   5.878   5.014   8.655  0.3881  0.7727  1.8462
  953MOL0     H25791   5.743   5.100   8.711 -0.4324 -0.2004 -0.7444
  953MOL0     H25792   5.958   5.152   8.492  1.6202 -2.0919  2.6384
  953MOL0     H25793   5.827   5.270   8.496  0.2350 -1.5361 -2.5329
  953MOL0     H25794   5.986   5.415   8.841  0.1962  0.4930  0.2093
  953MOL0     H25795   5.390   5.143   8.283  1.2624  0.1631 -0.3148
  953MOL0     H25796   5.193   5.280   8.239  1.7663  0.1943 -0.5610
  954MOL0     O25797   8.449   1.550   7.957 -0.7176  0.2582  0.9330
  954MOL0     C25798   8.391   1.528   7.855 -0.4374  0.6194 -1.0090
  954MOL0     O25799   8.437   1.534   7.727 -0.1568 -1.0706 -0.5096
  954MOL0     C25800   8.565   1.566   7.690 -0.4947 -0.3586  0.0351
  954MOL0     C25801   8.581   1.619   7.564  0.6611 -0.5269  0.8284
  954MOL0     C25802   8.711   1.651   7.517  0.5696  0.3391 -0.0269
  954MOL0     C25803   8.821   1.654   7.607  0.4023  0.5283 -1.0612
  954MOL0     O25804   8.946   1.683   7.570 -0.5576 -0.7257 -0.0983
  954MOL0     C25805   8.971   1.816   7.518  1.1207 -0.3408 -1.0780
  954MOL0     C25806   9.109   1.869   7.539 -0.5080 -1.2563 -0.1323
  954MOL0     C25807   9.159   1.995   7.451  0.7333  0.5536  0.5662
  954MOL0     C25808   9.309   1.995   7.450  0.2177 -0.2773  0.4512
  954MOL0     C25809   9.357   2.108   7.358  0.3825 -0.2385 -0.1611
  954MOL0     C25810   9.512   2.115   7.352  0.5256 -0.2812  0.0194
  954MOL0     C25811   9.552   2.097   7.197 -0.5787 -0.2521 -0.9071
  954MOL0     C25812   9.556   2.227   7.115  0.4153  0.4904  0.7503
  954MOL0     N25813   9.633   2.245   6.989 -0.0375  0.5425 -0.5175
  954MOL0     C25814   9.624   2.180   6.871 -0.2950 -0.3603 -0.3945
  954MOL0     C25815   9.678   2.270   6.786  0.0284  0.8302  0.2208
  954MOL0     C25816   9.706   2.237   6.643 -0.0206 -0.6367 -0.1526
  954MOL0     C25817   9.814   2.132   6.637  0.3233  0.3007 -0.3686
  954MOL0     C25818   9.795   2.038   6.516  0.2772 -0.3086  0.0908
  954MOL0     C25819   9.673   1.945   6.521  1.2594  0.2855  0.2277
  954MOL0     O25820   9.699   1.810   6.477 -0.9499  0.2478 -0.6856
  954MOL0     C25821   9.603   1.715   6.492  0.8102 -0.6550  0.2655
  954MOL0     C25822   9.475   1.744   6.444  0.5848 -1.1698 -0.1859
  954MOL0     C25823   9.363   1.664   6.477 -0.4152  0.1318 -0.0422
  954MOL0     C25824   9.401   1.525   6.522 -0.6558 -0.0412 -0.7202
  954MOL0     C25825   9.298   1.424   6.547 -0.4592 -1.0526  0.6710
  954MOL0     O25826   9.334   1.295   6.561  0.1680  0.4267 -0.3584
  954MOL0     C25827   9.238   1.205   6.591 -0.0119 -0.4742 -0.5710
  954MOL0     C25828   9.203   1.185   6.726  0.0039 -0.0701  0.2167
  954MOL0     C25829   9.091   1.104   6.759 -0.2470 -1.0395 -0.2105
  954MOL0     C25830   9.022   1.034   6.660  0.2634 -0.2944 -0.7067
  954MOL0     O25831   8.925   0.947   6.687 -0.9489 -0.4283  0.0947
  954MOL0     C25832   8.839   0.983   6.800  0.5974  0.2905 -0.1051
  954MOL0     C25833   8.742   0.867   6.818  0.0869 -0.1314  0.4819
  954MOL0     C25834   8.627   0.897   6.924 -0.5635 -1.0761  0.0607
  954MOL0     C25835   8.539   0.783   6.958  0.6627  0.0872  0.0879
  954MOL0     C25836   8.465   0.804   7.094  0.4112  0.3891  0.9859
  954MOL0     C25837   8.335   0.708   7.099 -0.5077  0.4272  0.7603
  954MOL0     C25838   8.270   0.689   7.237 -0.3560  0.2163 -0.1092
  954MOL0     C25839   8.149   0.603   7.227 -0.3550 -0.3310 -0.5068
  954MOL0    Cl25840   8.050   0.682   7.118  0.6952  0.0446  0.2143
  954MOL0     C25841   9.060   1.054   6.529  0.0045 -0.4935  0.3650
  954MOL0     C25842   9.166   1.135   6.496  0.6961 -0.5356 -0.3747
  954MOL0     O25843   9.183   1.469   6.548  0.0919 -0.5980  0.3267
  954MOL0     C25844   9.532   1.492   6.556 -0.4494 -0.2497 -0.3874
  954MOL0     C25845   9.631   1.591   6.543  0.5341 -0.5158  0.3932
  954MOL0     N25846   9.726   2.382   6.845 -0.2922 -0.6214 -0.0412
  954MOL0     N25847   9.708   2.367   6.969  0.0473  0.5955 -0.1892
  954MOL0     C25848   8.807   1.592   7.727 -0.3998 -0.3743 -0.1863
  954MOL0     C25849   8.681   1.547   7.773  1.6572 -1.1356 -0.4365
  954MOL0     C25850   8.260   1.461   7.865  0.0551 -0.4132 -0.4460
  954MOL0     C25851   8.227   1.405   7.989 -0.2840 -0.6027 -0.2403
  954MOL0     C25852   8.093   1.365   8.017 -0.5414 -0.2368  0.9541
  954MOL0     C25853   7.991   1.370   7.916 -0.3397 -0.0869  0.5642
  954MOL0     O25854   7.865   1.319   7.952 -0.7292 -0.9594  0.0795
  954MOL0     C25855   7.760   1.332   7.845 -0.1721 -0.5372 -0.4657
  954MOL0     C25856   7.637   1.251   7.891  0.3655 -0.4366 -0.3873
  954MOL0     C25857   7.553   1.336   7.984  0.3449 -0.0204 -0.3940
  954MOL0     C25858   7.443   1.254   8.038 -0.0509  0.4645 -0.8364
  954MOL0     C25859   7.467   1.200   8.171 -0.6924 -0.1785  0.0477
  954MOL0     C25860   7.484   1.146   8.276 -0.0373 -1.0475 -0.2034
  954MOL0     C25861   8.026   1.422   7.792  0.1275 -0.2795 -0.8186
  954MOL0     C25862   8.152   1.484   7.764 -0.5712  0.5527 -0.4652
  954MOL0     H25863   8.496   1.632   7.498  0.7954  1.8572  1.0521
  954MOL0     H25864   8.731   1.682   7.415 -0.7268 -0.0474 -0.4251
  954MOL0     H25865   8.908   1.882   7.579  0.2793 -2.6751  0.7528
  954MOL0     H25866   8.951   1.822   7.411  0.7148  0.5565 -0.9632
  954MOL0     H25867   9.169   1.785   7.505  0.0910 -0.2191 -1.7709
  954MOL0     H25868   9.134   1.902   7.640 -0.5061  2.1301 -1.1121
  954MOL0     H25869   9.113   2.089   7.483 -1.9391 -0.1306 -0.9525
  954MOL0     H25870   9.120   1.991   7.349  1.6467  0.1360  0.2246
  954MOL0     H25871   9.353   2.004   7.550  0.8697 -2.9261  0.4813
  954MOL0     H25872   9.358   1.911   7.400  4.4340  1.4983  1.1899
  954MOL0     H25873   9.328   2.203   7.403  1.6969 -0.9193  2.2912
  954MOL0     H25874   9.309   2.105   7.260 -2.9004  3.3571  1.0751
  954MOL0     H25875   9.559   2.035   7.411  0.3330  1.4219  2.6119
  954MOL0     H25876   9.555   2.210   7.384 -0.7531  0.3844 -0.2095
  954MOL0     H25877   9.653   2.056   7.187 -0.0944  0.7428 -0.3466
  954MOL0     H25878   9.488   2.018   7.158 -4.6760  3.4599 -2.5738
  954MOL0     H25879   9.593   2.305   7.182  0.9388  1.2755 -0.4351
  954MOL0     H25880   9.452   2.259   7.102 -0.6568 -2.1967  1.7672
  954MOL0     H25881   9.571   2.088   6.848 -1.6694  0.2950  0.0618
  954MOL0     H25882   9.745   2.327   6.595  0.5857  0.2496  1.8874
  954MOL0     H25883   9.611   2.209   6.596 -2.1022  1.6097  2.3446
  954MOL0     H25884   9.812   2.067   6.725  0.1364 -0.3758 -0.8627
  954MOL0     H25885   9.917   2.167   6.633  1.0159 -1.4325  1.0085
  954MOL0     H25886   9.796   2.093   6.421  3.0586 -1.2703 -0.5412
  954MOL0     H25887   9.879   1.968   6.503  0.5166 -0.7160  3.1818
  954MOL0     H25888   9.608   1.996   6.449  1.5485  4.3431  2.5509
  954MOL0     H25889   9.614   1.952   6.612 -2.3522  1.5999 -2.0123
  954MOL0     H25890   9.449   1.824   6.375  1.5989 -1.0712 -0.4710
  954MOL0     H25891   9.263   1.690   6.442  0.1607  0.2835 -1.6626
  954MOL0     H25892   9.250   1.237   6.808 -0.4128  1.3005 -0.3918
  954MOL0     H25893   9.080   1.096   6.866  1.0925 -1.5897 -0.0933
  954MOL0     H25894   8.795   1.082   6.789  1.8516  0.9789  0.6842
  954MOL0     H25895   8.890   0.985   6.897 -0.4381 -1.4928  0.5085
  954MOL0     H25896   8.792   0.772   6.839 -2.9112 -1.2400  3.6791
  954MOL0     H25897   8.689   0.850   6.724  0.4253 -0.3816  0.3322
  954MOL0     H25898   8.568   0.983   6.894 -0.0948 -0.6387  0.3838
  954MOL0     H25899   8.679   0.938   7.011  0.0452 -2.9375  0.6361
  954MOL0     H25900   8.459   0.780   6.883 -1.7798 -4.4210  2.4096
  954MOL0     H25901   8.595   0.689   6.952 -1.9954 -1.8355  2.7799
  954MOL0     H25902   8.425   0.905   7.104 -0.6175  0.2369 -1.0784
  954MOL0     H25903   8.534   0.771   7.172  1.2923 -1.7625 -0.6113
  954MOL0     H25904   8.363   0.611   7.056  2.2533  0.6771  1.7678
  954MOL0     H25905   8.272   0.764   7.029  0.8580  0.8615 -0.1618
  954MOL0     H25906   8.342   0.656   7.313 -1.6928  0.8577  1.4849
  954MOL0     H25907   8.244   0.787   7.278  0.5742 -0.5254  2.4433
  954MOL0     H25908   8.092   0.605   7.320 -0.5218  1.3244 -0.6077
  954MOL0     H25909   8.172   0.503   7.189 -3.6301 -0.9022 -1.3279
  954MOL0     H25910   9.005   1.015   6.443  0.7746  1.7598 -1.2503
  954MOL0     H25911   9.195   1.131   6.392  1.0415 -2.2730 -0.2474
  954MOL0     H25912   9.564   1.400   6.604 -1.6857  0.0512  1.0929
  954MOL0     H25913   9.733   1.585   6.581  0.3300 -1.0206  0.8680
  954MOL0     H25914   8.894   1.577   7.792 -0.0819  3.8445  0.6214
  954MOL0     H25915   8.665   1.490   7.864 -1.5433  0.0633 -0.1143
  954MOL0     H25916   8.307   1.407   8.062 -0.7963 -2.6150  0.4477
  954MOL0     H25917   8.068   1.313   8.109 -2.0055  2.2596  2.0615
  954MOL0     H25918   7.797   1.291   7.750 -0.4510  0.3158 -0.9544
  954MOL0     H25919   7.729   1.437   7.839  1.4190 -0.0867 -1.8391
  954MOL0     H25920   7.576   1.226   7.803 -2.3684  3.9233 -0.0671
  954MOL0     H25921   7.663   1.154   7.934 -1.2017 -0.9863 -0.6014
  954MOL0     H25922   7.521   1.429   7.937  1.9488  1.3420  1.0424
  954MOL0     H25923   7.615   1.375   8.066  0.0043 -3.4410  1.7031
  954MOL0     H25924   7.351   1.312   8.052 -0.7431 -0.5939 -0.9299
  954MOL0     H25925   7.434   1.159   7.986  1.4596 -1.2508  1.8368
  954MOL0     H25926   7.500   1.092   8.367  0.7242 -0.8109 -0.1880
  954MOL0     H25927   7.954   1.444   7.714  0.4233 -3.5144 -2.1871
  954MOL0     H25928   8.172   1.543   7.674 -1.7724  0.9614 -0.4854
  955MOL0     O25929  11.278   4.296   9.183  0.5140  0.2943  0.7361
  955MOL0     C25930  11.218   4.378   9.118  0.3453 -0.0984  0.3680
  955MOL0     O25931  11.112   4.362   9.030  0.3754  0.3138 -0.2210
  955MOL0     C25932  11.065   4.238   8.998  0.5601 -0.3831  0.3896
  955MOL0     C25933  11.095   4.109   9.047 -1.1417  0.3708  0.7723
  955MOL0     C25934  11.032   3.996   9.013  0.1275  0.2025 -0.0040
  955MOL0     C25935  10.920   4.005   8.937  0.7599 -0.0317  1.0878
  955MOL0     O25936  10.842   3.900   8.892  0.5370 -0.4689  0.7094
  955MOL0     C25937  10.906   3.778   8.875 -0.5074  0.4284 -0.6092
  955MOL0     C25938  10.811   3.678   8.814 -0.7031  0.2035  0.3630
  955MOL0     C25939  10.729   3.718   8.698 -0.7791 -0.0084  0.4282
  955MOL0     C25940  10.668   3.597   8.631 -0.3258  0.1409 -0.6727
  955MOL0     C25941  10.764   3.529   8.524  0.7763 -0.0030 -0.0603
  955MOL0     C25942  10.776   3.597   8.384 -0.2781  0.6653 -0.9031
  955MOL0     C25943  10.655   3.625   8.303  0.5923  0.7538 -1.6495
  955MOL0     C25944  10.605   3.498   8.246 -0.5205  0.2638  0.0868
  955MOL0     N25945  10.496   3.546   8.163 -0.4434  0.2790  0.7259
  955MOL0     C25946  10.499   3.588   8.027  0.0848  0.0229 -0.6732
  955MOL0     C25947  10.365   3.625   8.011 -0.1730  0.4197  0.2099
  955MOL0     C25948  10.324   3.704   7.889 -0.4132  0.1604  0.5081
  955MOL0     C25949  10.194   3.779   7.896 -0.0296  0.9391  0.1710
  955MOL0     C25950  10.160   3.845   7.762 -0.5395  0.0295 -0.9925
  955MOL0     C25951  10.022   3.900   7.778 -0.1842 -0.3059  0.2608
  955MOL0     O25952   9.976   3.951   7.650  0.0710  0.4938  0.1312
  955MOL0     C25953   9.879   4.053   7.636 -0.3153 -0.2948  0.3502
  955MOL0     C25954   9.847   4.098   7.509 -0.5201 -0.9051 -0.5196
  955MOL0     C25955   9.763   4.202   7.488  0.3044 -0.6881 -0.2276
  955MOL0     C25956   9.686   4.257   7.598 -0.1316 -0.0478 -0.0247
  955MOL0     C25957   9.602   4.363   7.559  0.8248 -0.0578  0.1851
  955MOL0     O25958   9.469   4.352   7.594  0.0833  0.0821 -0.0327
  955MOL0     C25959   9.377   4.446   7.574  0.2826  0.0697 -0.5189
  955MOL0     C25960   9.284   4.466   7.682 -0.4985  0.2755 -0.3607
  955MOL0     C25961   9.204   4.580   7.689  0.1913 -0.3299  0.8221
  955MOL0     C25962   9.198   4.666   7.581  0.4207  1.3082  0.1869
  955MOL0     O25963   9.126   4.783   7.586  0.1190 -0.0133  0.1319
  955MOL0     C25964   9.172   4.882   7.687 -0.2193  0.7203  0.9117
  955MOL0     C25965   9.129   5.018   7.647  0.5201  0.4990 -0.1391
  955MOL0     C25966   8.974   5.016   7.643 -0.4196  0.5948  0.2103
  955MOL0     C25967   8.898   5.156   7.625 -0.6747  0.3074  0.5038
  955MOL0     C25968   8.749   5.144   7.581  1.8826  0.9777  0.3296
  955MOL0     C25969   8.669   5.273   7.586  0.4502 -0.4877  0.2352
  955MOL0     C25970   8.522   5.250   7.560  0.1918  0.7987 -0.2455
  955MOL0     C25971   8.434   5.367   7.597  0.1443  0.6015  0.5862
  955MOL0    Cl25972   8.522   5.515   7.550 -0.1125  0.2165  0.0295
  955MOL0     C25973   9.274   4.638   7.463 -0.3618  0.7441  1.0782
  955MOL0     C25974   9.370   4.531   7.461  0.6042  0.5328  0.5229
  955MOL0     O25975   9.654   4.461   7.511  0.6128 -0.7223  0.1887
  955MOL0     C25976   9.705   4.202   7.726 -0.1792 -0.5127  0.7681
  955MOL0     C25977   9.802   4.104   7.749 -0.2353 -0.0345  0.6855
  955MOL0     N25978  10.292   3.599   8.120 -0.0186 -0.8818 -0.0997
  955MOL0     N25979  10.373   3.565   8.218  0.2434 -0.1263  0.7241
  955MOL0     C25980  10.876   4.126   8.887 -0.0644  0.3776 -0.9123
  955MOL0     C25981  10.947   4.244   8.917 -1.0730 -0.7862  0.0428
  955MOL0     C25982  11.286   4.508   9.106  0.0011 -0.1813  0.4481
  955MOL0     C25983  11.229   4.608   9.025 -0.0778 -0.0620 -0.1261
  955MOL0     C25984  11.269   4.736   9.033 -1.0281 -0.0653  0.4533
  955MOL0     C25985  11.381   4.772   9.112  0.4598  1.1301  0.4836
  955MOL0     O25986  11.437   4.896   9.108 -0.4670 -0.3290 -1.3996
  955MOL0     C25987  11.574   4.908   9.151 -0.3404  0.1723 -0.0454
  955MOL0     C25988  11.616   5.050   9.144 -0.0307 -0.5015  0.6501
  955MOL0     C25989  11.761   5.062   9.101  0.4570  0.8998  0.5691
  955MOL0     C25990  11.791   5.200   9.068 -0.6651  0.5715 -0.0708
  955MOL0     C25991  11.791   5.294   9.179  0.3320  0.7249  0.3308
  955MOL0     C25992  11.771   5.364   9.279  1.0666 -0.6735  0.4173
  955MOL0     C25993  11.450   4.669   9.185 -0.2124  0.6623  0.1884
  955MOL0     C25994  11.396   4.540   9.181  0.1941 -0.5290 -0.0609
  955MOL0     H25995  11.169   4.110   9.126 -1.4482  1.3219  1.0615
  955MOL0     H25996  11.069   3.902   9.056  1.0573  0.9823  0.9631
  955MOL0     H25997  10.946   3.734   8.967  0.7709 -0.2014 -1.4378
  955MOL0     H25998  10.989   3.799   8.807  0.0010  3.9254  0.8986
  955MOL0     H25999  10.737   3.653   8.889  0.9402 -1.9248  1.3776
  955MOL0     H26000  10.864   3.583   8.802  0.2988  0.6851  0.7923
  955MOL0     H26001  10.775   3.775   8.617  0.8759 -1.9445 -0.0701
  955MOL0     H26002  10.655   3.787   8.739 -1.5104 -0.5972  0.1360
  955MOL0     H26003  10.637   3.531   8.713 -0.1677  0.3956 -0.4086
  955MOL0     H26004  10.572   3.625   8.588 -0.8504  1.9011  1.4622
  955MOL0     H26005  10.752   3.421   8.511  3.2389 -0.8522  3.3719
  955MOL0     H26006  10.866   3.548   8.556  1.6073  0.7100 -2.8193
  955MOL0     H26007  10.846   3.542   8.320 -0.5508  1.5281 -1.9664
  955MOL0     H26008  10.819   3.697   8.393  0.1158  0.4983 -0.9146
  955MOL0     H26009  10.581   3.663   8.373  0.9667  0.4409 -1.0722
  955MOL0     H26010  10.671   3.699   8.224  1.1509 -0.2108 -2.4794
  955MOL0     H26011  10.566   3.435   8.326 -1.7563 -2.2112 -2.2747
  955MOL0     H26012  10.674   3.437   8.187 -1.1352  0.6313 -1.0403
  955MOL0     H26013  10.577   3.604   7.954  0.9152  1.8896  0.5495
  955MOL0     H26014  10.316   3.627   7.812 -2.7752 -0.5214  1.3555
  955MOL0     H26015  10.405   3.770   7.857  1.6197 -2.5084 -0.2922
  955MOL0     H26016  10.212   3.858   7.970  2.1714  2.1265 -1.4917
  955MOL0     H26017  10.118   3.709   7.931  1.0115  0.2876  1.2002
  955MOL0     H26018  10.237   3.919   7.738  1.0872 -0.8772  1.1265
  955MOL0     H26019  10.159   3.768   7.685  1.8459  0.0759 -1.1357
  955MOL0     H26020  10.030   3.986   7.846 -3.7766  2.9728 -2.9256
  955MOL0     H26021   9.941   3.837   7.816 -0.2828  2.2612  5.0717
  955MOL0     H26022   9.908   4.052   7.432  0.6804  0.1737 -0.2527
  955MOL0     H26023   9.755   4.238   7.386  4.9788  0.1160 -0.5262
  955MOL0     H26024   9.293   4.402   7.769  3.7044  2.3312  1.0098
  955MOL0     H26025   9.150   4.600   7.781 -1.4092  2.0255 -0.5353
  955MOL0     H26026   9.281   4.874   7.686 -0.3415 -2.2050 -0.5688
  955MOL0     H26027   9.139   4.850   7.787 -1.7603 -1.8441 -0.3322
  955MOL0     H26028   9.166   5.054   7.550 -2.2673  4.8321  0.1326
  955MOL0     H26029   9.156   5.088   7.726  1.1991 -1.1462  1.1227
  955MOL0     H26030   8.933   4.984   7.739 -1.7134  2.6141  0.3894
  955MOL0     H26031   8.941   4.935   7.577 -4.0555  0.5388  1.8775
  955MOL0     H26032   8.894   5.218   7.714 -2.7796 -0.1874  0.8052
  955MOL0     H26033   8.957   5.216   7.555 -1.5320 -0.5855 -1.0556
  955MOL0     H26034   8.697   5.069   7.641 -0.1799  1.1706 -1.1384
  955MOL0     H26035   8.756   5.112   7.477 -0.1639  0.6696  0.2430
  955MOL0     H26036   8.695   5.341   7.504 -2.7770  1.4194  0.6127
  955MOL0     H26037   8.685   5.313   7.687  3.3939  2.9514 -1.3521
  955MOL0     H26038   8.513   5.221   7.455  2.5625 -3.3375  0.4545
  955MOL0     H26039   8.498   5.159   7.615  0.6784  1.9931  2.0745
  955MOL0     H26040   8.418   5.378   7.705  0.8471  0.9379  0.6648
  955MOL0     H26041   8.343   5.375   7.536  1.1598 -4.3846 -2.1433
  955MOL0     H26042   9.258   4.719   7.393  2.5180  1.6049  1.2840
  955MOL0     H26043   9.429   4.510   7.373  0.0709 -2.1495  0.7129
  955MOL0     H26044   9.659   4.242   7.816  1.4007  5.0302 -0.4700
  955MOL0     H26045   9.823   4.075   7.851  0.0597 -0.3434  0.5437
  955MOL0     H26046  10.783   4.128   8.831 -1.3703 -2.7434  0.8896
  955MOL0     H26047  10.923   4.345   8.883 -2.1750 -1.2785 -0.6750
  955MOL0     H26048  11.144   4.574   8.966 -0.1359  0.1709 -0.1756
  955MOL0     H26049  11.220   4.814   8.975  1.0810  1.3411  0.4640
  955MOL0     H26050  11.626   4.845   9.078  1.5978  0.3200  1.1416
  955MOL0     H26051  11.602   4.875   9.251  4.2137 -1.1542 -1.5119
  955MOL0     H26052  11.552   5.092   9.066  0.9479 -0.8928 -0.3817
  955MOL0     H26053  11.594   5.097   9.241 -0.0393  1.1141 -0.1009
  955MOL0     H26054  11.770   5.000   9.011 -2.7463  1.7232 -0.4294
  955MOL0     H26055  11.826   5.034   9.184 -3.0951  0.8452  3.5785
  955MOL0     H26056  11.890   5.200   9.021 -0.1033  1.1327  1.0622
  955MOL0     H26057  11.719   5.232   8.992 -0.2184  0.5546 -0.5084
  955MOL0     H26058  11.736   5.418   9.365  0.3080 -1.8114  0.8487
  955MOL0     H26059  11.538   4.694   9.244  0.5594  2.5858 -1.6796
  955MOL0     H26060  11.437   4.463   9.247 -0.5817 -0.7191  0.2041
  956MOL0     O26061  11.093   8.813   6.815 -0.2586 -0.0417  0.1057
  956MOL0     C26062  11.103   8.703   6.760 -0.0121 -1.1825 -0.5659
  956MOL0     O26063  11.002   8.609   6.772 -0.6042 -0.3368 -0.0209
  956MOL0     C26064  10.897   8.624   6.851  0.6137 -0.0987  0.4782
  956MOL0     C26065  10.805   8.730   6.859  0.0824  0.0697  0.7071
  956MOL0     C26066  10.706   8.738   6.954  0.2574 -0.5919 -0.1043
  956MOL0     C26067  10.672   8.633   7.033 -0.0754 -0.1289  0.4034
  956MOL0     O26068  10.579   8.660   7.135 -0.0857  0.2397  0.6006
  956MOL0     C26069  10.571   8.565   7.254  0.4257  0.0754  0.7431
  956MOL0     C26070  10.444   8.562   7.337  0.0921  0.1599  0.3949
  956MOL0     C26071  10.325   8.523   7.249 -0.7747 -0.0229 -0.0435
  956MOL0     C26072  10.213   8.624   7.263  0.5439 -0.0545  0.0193
  956MOL0     C26073  10.098   8.558   7.189  0.2107 -0.0205  0.5037
  956MOL0     C26074   9.955   8.637   7.201 -0.7586 -0.2516 -0.7634
  956MOL0     C26075   9.846   8.592   7.098 -0.5562 -0.1785  0.0043
  956MOL0     C26076   9.717   8.656   7.129  0.9286 -0.0603 -0.1746
  956MOL0     N26077   9.611   8.651   7.030  1.2449 -0.6569 -0.2043
  956MOL0     C26078   9.592   8.543   6.946 -0.1736 -0.0936 -0.0476
  956MOL0     C26079   9.501   8.587   6.853 -0.2817 -0.3077 -0.5459
  956MOL0     C26080   9.429   8.485   6.764  1.4487  0.1387  0.1503
  956MOL0     C26081   9.293   8.451   6.822 -0.7139  0.2851  0.4682
  956MOL0     C26082   9.189   8.568   6.809 -0.0310  0.5278  0.7170
  956MOL0     C26083   9.047   8.516   6.821 -1.3957 -0.0951 -0.6971
  956MOL0     O26084   8.956   8.628   6.781 -0.1199  0.4938  0.1473
  956MOL0     C26085   8.946   8.739   6.865 -0.5772 -0.1142  0.0513
  956MOL0     C26086   8.963   8.737   7.000  1.1470 -0.2579 -0.4315
  956MOL0     C26087   8.966   8.847   7.079 -0.1169  0.2159 -0.0374
  956MOL0     C26088   8.946   8.973   7.016 -0.3682  0.0398  0.3646
  956MOL0     C26089   8.944   9.092   7.097  0.4371 -0.2635  0.4302
  956MOL0     O26090   8.885   9.203   7.040  0.2284  0.1874 -0.0991
  956MOL0     C26091   8.881   9.312   7.115  0.0090 -0.7043 -0.2283
  956MOL0     C26092   8.796   9.309   7.230 -0.0050  0.0715  0.0905
  956MOL0     C26093   8.789   9.435   7.308  1.1588 -0.1151  0.4277
  956MOL0     C26094   8.837   9.553   7.256  0.0095  0.1492  0.0605
  956MOL0     O26095   8.815   9.657   7.333  0.3253  1.1877  0.4282
  956MOL0     C26096   8.836   9.790   7.287 -0.0806 -0.0215  0.3253
  956MOL0     C26097   8.809   9.889   7.402 -0.3031  0.2233 -0.1995
  956MOL0     C26098   8.659   9.918   7.430 -0.4436  0.5470 -0.1640
  956MOL0     C26099   8.626   9.984   7.561  0.2628  0.3639  0.4528
  956MOL0     C26100   8.472   9.951   7.587 -0.0131  0.8019  0.4134
  956MOL0     C26101   8.425  10.018   7.724 -1.1750  0.7714  0.5799
  956MOL0     C26102   8.277   9.987   7.751  0.6032 -0.0410 -0.2890
  956MOL0     C26103   8.233  10.043   7.888 -0.6109  0.2000  0.4363
  956MOL0    Cl26104   8.282   9.958   8.035  0.2492 -0.2419 -0.2447
  956MOL0     C26105   8.910   9.554   7.135  0.0911  0.9562 -1.0502
  956MOL0     C26106   8.938   9.430   7.068  0.6349 -0.8287  0.8549
  956MOL0     O26107   9.005   9.087   7.200 -0.3522 -0.3135 -0.4407
  956MOL0     C26108   8.920   8.976   6.879  0.5552  0.9144 -0.1448
  956MOL0     C26109   8.924   8.855   6.803  0.3517  0.0450 -0.1250
  956MOL0     N26110   9.480   8.725   6.869  0.1514 -0.1832  0.2056
  956MOL0     N26111   9.561   8.761   6.965  0.2417 -0.5614 -0.2938
  956MOL0     C26112  10.751   8.520   7.026 -0.7729  1.0646 -0.1935
  956MOL0     C26113  10.871   8.521   6.944 -0.2676  0.0048 -0.5043
  956MOL0     C26114  11.227   8.667   6.697  0.4100  0.8506 -0.1606
  956MOL0     C26115  11.315   8.774   6.677 -0.1470 -0.2486  0.0776
  956MOL0     C26116  11.430   8.759   6.595  0.6097  0.1580  0.0970
  956MOL0     C26117  11.464   8.628   6.556 -0.2124  0.0374  0.7177
  956MOL0     O26118  11.579   8.605   6.489  0.9573  1.0957 -0.8327
  956MOL0     C26119  11.671   8.707   6.482 -0.3513 -0.7794  0.5382
  956MOL0     C26120  11.817   8.632   6.489  0.5270  0.1834  0.0925
  956MOL0     C26121  11.854   8.524   6.381 -0.2498 -0.6114 -0.4301
  956MOL0     C26122  12.007   8.503   6.365  0.0817  0.2122 -0.1679
  956MOL0     C26123  12.042   8.403   6.261  0.7119 -0.7111  0.6262
  956MOL0     C26124  12.070   8.324   6.177  0.7397  1.0727 -0.1642
  956MOL0     C26125  11.379   8.517   6.586  0.0345  0.0245 -0.0031
  956MOL0     C26126  11.259   8.543   6.646  0.7290  0.2045  0.1565
  956MOL0     H26127  10.813   8.815   6.792  0.0152  0.6541  1.4291
  956MOL0     H26128  10.650   8.828   6.980 -0.7589 -1.0291 -0.7253
  956MOL0     H26129  10.663   8.584   7.311 -0.0542  0.1706  1.4958
  956MOL0     H26130  10.581   8.460   7.226 -3.4440 -0.8905  2.4365
  956MOL0     H26131  10.422   8.661   7.379 -3.6915 -0.7425  0.8790
  956MOL0     H26132  10.457   8.493   7.421  1.9357  0.5730  0.5083
  956MOL0     H26133  10.298   8.418   7.264 -1.0030  0.0702  0.2302
  956MOL0     H26134  10.350   8.532   7.143  0.0918 -2.2936 -0.0853
  956MOL0     H26135  10.192   8.635   7.370 -1.9118  3.5727 -0.6536
  956MOL0     H26136  10.246   8.724   7.233  1.5541  0.0699  1.4567
  956MOL0     H26137  10.083   8.453   7.216 -0.1023  0.0683  0.6778
  956MOL0     H26138  10.123   8.567   7.083 -2.2647 -1.1081 -0.2311
  956MOL0     H26139   9.978   8.742   7.181  0.5446  0.0182  1.7539
  956MOL0     H26140   9.920   8.637   7.305 -2.0773 -1.1769 -1.1924
  956MOL0     H26141   9.874   8.608   6.993 -0.0853 -4.9940 -0.8364
  956MOL0     H26142   9.850   8.482   7.094 -2.7932 -0.2638 -1.2965
  956MOL0     H26143   9.749   8.760   7.137  0.4353 -0.0273  1.7159
  956MOL0     H26144   9.678   8.618   7.224  0.2311 -1.2169 -0.8956
  956MOL0     H26145   9.614   8.438   6.962 -3.2869 -1.9374 -5.2829
  956MOL0     H26146   9.485   8.391   6.759  1.1211 -0.0025 -1.4274
  956MOL0     H26147   9.420   8.522   6.661 -0.3278 -0.0714  0.2057
  956MOL0     H26148   9.321   8.422   6.924  0.4720  1.8427  0.6115
  956MOL0     H26149   9.264   8.365   6.761  0.0161  0.0248  0.4836
  956MOL0     H26150   9.198   8.644   6.887  0.1944  4.0227 -2.4397
  956MOL0     H26151   9.195   8.621   6.714 -5.8766  0.5387 -0.0047
  956MOL0     H26152   9.024   8.468   6.917 -2.4266 -0.5749 -1.1642
  956MOL0     H26153   9.047   8.432   6.752  1.1714  1.0032 -2.1438
  956MOL0     H26154   8.978   8.637   7.040 -0.1263 -1.6682 -3.1811
  956MOL0     H26155   9.006   8.845   7.180  2.3104 -1.5391 -0.9154
  956MOL0     H26156   8.749   9.231   7.288  0.3088  2.3168  3.7097
  956MOL0     H26157   8.737   9.431   7.403  0.1168 -1.7200 -0.1626
  956MOL0     H26158   8.758   9.811   7.214  0.7501 -0.4907 -0.7229
  956MOL0     H26159   8.934   9.809   7.241  0.4237 -2.4283  0.2621
  956MOL0     H26160   8.868   9.977   7.374  2.2561 -1.2353  0.2629
  956MOL0     H26161   8.867   9.856   7.489  1.1401  0.0465 -1.1878
  956MOL0     H26162   8.605   9.823   7.427 -1.1649  0.9574 -2.7296
  956MOL0     H26163   8.633   9.981   7.344 -2.0934  0.5545  0.3136
  956MOL0     H26164   8.687   9.941   7.641 -0.6889 -2.1412 -0.0969
  956MOL0     H26165   8.646  10.092   7.557 -1.0661  0.6077 -0.4739
  956MOL0     H26166   8.454   9.843   7.586  1.0313  0.6038  1.3557
  956MOL0     H26167   8.407   9.974   7.502  1.2655  1.0778 -0.5045
  956MOL0     H26168   8.441  10.126   7.719  3.3300  0.2516 -0.1930
  956MOL0     H26169   8.484   9.976   7.805 -2.0050  2.3643  2.0701
  956MOL0     H26170   8.214  10.030   7.674  0.3951 -0.4131 -0.3302
  956MOL0     H26171   8.273   9.878   7.737  0.6419  0.3075 -3.7473
  956MOL0     H26172   8.125  10.023   7.885 -0.6771  0.6040 -0.1438
  956MOL0     H26173   8.256  10.150   7.899 -0.3537  0.2738 -0.7500
  956MOL0     H26174   8.949   9.649   7.101  0.8335  1.9534  2.2375
  956MOL0     H26175   8.986   9.434   6.971 -1.6269  0.4468 -0.3128
  956MOL0     H26176   8.901   9.066   6.821  0.7228  2.4406  2.0303
  956MOL0     H26177   8.904   8.850   6.697  0.0488 -0.9426 -0.0329
  956MOL0     H26178  10.730   8.443   7.101 -0.0952  2.8757  1.9632
  956MOL0     H26179  10.940   8.438   6.947 -0.5523 -0.2049  0.6648
  956MOL0     H26180  11.285   8.876   6.697  0.5258  0.3075 -1.5993
  956MOL0     H26181  11.482   8.851   6.572 -0.9770  1.2236  0.6382
  956MOL0     H26182  11.673   8.781   6.563  4.5959 -0.0270  0.0449
  956MOL0     H26183  11.661   8.770   6.394  0.2915  0.5702  1.3984
  956MOL0     H26184  11.898   8.706   6.486  2.6115 -1.8486  2.2136
  956MOL0     H26185  11.830   8.588   6.588  0.8716  0.2126  0.0618
  956MOL0     H26186  11.810   8.556   6.286 -1.8418 -0.8873  0.1745
  956MOL0     H26187  11.808   8.430   6.415  2.1137 -1.6653  0.0486
  956MOL0     H26188  12.059   8.597   6.344 -4.2139  3.1019  0.8130
  956MOL0     H26189  12.042   8.468   6.462  0.3265  1.8188  0.3554
  956MOL0     H26190  12.085   8.245   6.106 -0.5318 -0.9149  1.6622
  956MOL0     H26191  11.416   8.418   6.560  3.1923  1.2033 -0.4400
  956MOL0     H26192  11.193   8.458   6.654  0.3714  0.3986 -0.6129
  957MOL0     O26193   7.959   5.065   6.642 -0.5313 -0.2097 -0.1038
  957MOL0     C26194   8.062   5.013   6.608  0.0142  0.3462  0.7855
  957MOL0     O26195   8.081   4.931   6.500  0.0764 -0.0696 -0.8498
  957MOL0     C26196   7.981   4.872   6.432  0.6778 -0.0305  0.6572
  957MOL0     C26197   7.847   4.862   6.471 -0.0035 -0.6401 -0.0881
  957MOL0     C26198   7.750   4.798   6.390  0.9160 -0.3581  0.5064
  957MOL0     C26199   7.776   4.740   6.268 -1.2530 -1.0076 -0.0797
  957MOL0     O26200   7.688   4.671   6.187  0.8099 -0.6522  0.2465
  957MOL0     C26201   7.560   4.652   6.248  0.0107  0.1932  0.3614
  957MOL0     C26202   7.464   4.566   6.168 -0.0239 -0.5201  0.4596
  957MOL0     C26203   7.334   4.549   6.252  0.7733  0.9229 -0.3891
  957MOL0     C26204   7.236   4.478   6.160 -0.3541  0.0789  0.1009
  957MOL0     C26205   7.115   4.449   6.246 -0.1336  0.4473  0.0637
  957MOL0     C26206   7.009   4.400   6.151  0.1267 -0.2333  0.1057
  957MOL0     C26207   6.911   4.323   6.233 -1.2592 -0.4444 -0.8280
  957MOL0     C26208   6.814   4.263   6.139  0.1925  0.5392  1.4910
  957MOL0     N26209   6.716   4.189   6.214  0.1177  1.5974  0.8252
  957MOL0     C26210   6.602   4.232   6.277 -0.2159 -0.1607  0.3819
  957MOL0     C26211   6.538   4.123   6.319  0.0665  0.2381  0.8520
  957MOL0     C26212   6.402   4.123   6.381  0.0799 -0.2596 -0.2022
  957MOL0     C26213   6.418   4.155   6.531  0.0610  0.0760 -0.1124
  957MOL0     C26214   6.326   4.082   6.627  0.5497 -0.1814  0.2138
  957MOL0     C26215   6.171   4.096   6.591 -0.2831 -1.1061 -1.0870
  957MOL0     O26216   6.137   3.981   6.506 -0.0346 -0.0825 -0.6161
  957MOL0     C26217   6.001   3.961   6.475  0.6764 -0.5848  0.1904
  957MOL0     C26218   5.904   4.067   6.491  0.1878  0.1473  0.2282
  957MOL0     C26219   5.778   4.036   6.434  1.3313  0.4359 -0.6492
  957MOL0     C26220   5.752   3.924   6.359 -0.1724  1.0205  0.0461
  957MOL0     C26221   5.617   3.902   6.283 -0.3566  0.0837 -0.0319
  957MOL0     O26222   5.512   3.982   6.330 -0.6715  1.0079  0.3303
  957MOL0     C26223   5.399   3.995   6.258 -0.0586  0.1048 -0.2776
  957MOL0     C26224   5.391   4.050   6.128  0.4948 -0.2885 -0.7321
  957MOL0     C26225   5.265   4.089   6.082 -1.5125 -0.2808  0.1015
  957MOL0     C26226   5.151   4.084   6.165 -0.0157  0.5643  0.3263
  957MOL0     O26227   5.034   4.137   6.112 -0.2229  0.0209  0.2880
  957MOL0     C26228   4.905   4.122   6.185 -0.1648 -0.2395  1.3768
  957MOL0     C26229   4.798   4.202   6.112  0.0609  0.0079 -0.0962
  957MOL0     C26230   4.781   4.152   5.972  0.7273  0.4135 -0.2203
  957MOL0     C26231   4.653   4.217   5.909 -0.0857  0.4307 -0.1813
  957MOL0     C26232   4.649   4.368   5.914  0.4941  0.5957  0.1681
  957MOL0     C26233   4.563   4.437   6.022 -0.1027 -1.4396  0.3651
  957MOL0     C26234   4.413   4.422   5.993  0.0868  0.8326 -0.3051
  957MOL0     C26235   4.341   4.532   6.072 -0.1028  0.4093 -0.7295
  957MOL0    Cl26236   4.341   4.465   6.242  0.0239  0.2903  0.4535
  957MOL0     C26237   5.159   4.034   6.290  0.8734 -0.3720 -0.2519
  957MOL0     C26238   5.276   3.976   6.334  0.0301 -0.5694 -0.1052
  957MOL0     O26239   5.616   3.831   6.185  0.3559 -0.0258  0.2187
  957MOL0     C26240   5.855   3.828   6.343 -0.5784  0.2636  0.4607
  957MOL0     C26241   5.974   3.844   6.404 -0.5381 -0.1015 -0.2113
  957MOL0     N26242   6.617   4.015   6.270  0.6321  0.8343 -0.4103
  957MOL0     N26243   6.703   4.054   6.194 -0.6302  0.5849  0.0083
  957MOL0     C26244   7.907   4.745   6.227 -0.1363  0.3667  0.4803
  957MOL0     C26245   8.003   4.810   6.306 -0.2910  1.2427  0.0096
  957MOL0     C26246   8.187   5.069   6.670  0.6042  0.1211 -0.6629
  957MOL0     C26247   8.317   5.035   6.623 -0.3829  0.7679 -0.2235
  957MOL0     C26248   8.437   5.072   6.690 -0.3234 -0.3016 -0.0783
  957MOL0     C26249   8.432   5.172   6.786  0.3438  0.5174 -0.5037
  957MOL0     O26250   8.538   5.227   6.861  0.0646 -0.7420  0.8728
  957MOL0     C26251   8.672   5.192   6.820  0.2318  0.4733 -0.2506
  957MOL0     C26252   8.775   5.277   6.896 -1.0412 -0.0757  0.6468
  957MOL0     C26253   8.918   5.253   6.845 -0.5993 -0.2246  0.0310
  957MOL0     C26254   9.014   5.374   6.851  0.3361 -0.0366  0.1489
  957MOL0     C26255   8.977   5.477   6.747  0.2233 -0.6963  0.3388
  957MOL0     C26256   8.949   5.563   6.663  0.3536  0.1793  0.3443
  957MOL0     C26257   8.304   5.207   6.837  0.0421 -0.0578 -0.5790
  957MOL0     C26258   8.188   5.152   6.788  0.3027  0.8240 -0.5087
  957MOL0     H26259   7.806   4.891   6.567 -4.0158 -0.8227 -1.5739
  957MOL0     H26260   7.648   4.806   6.427  0.6311 -0.6624 -0.1992
  957MOL0     H26261   7.516   4.750   6.265  2.1414  1.8223 -2.5665
  957MOL0     H26262   7.577   4.603   6.345  3.1857 -2.0605 -1.1595
  957MOL0     H26263   7.519   4.475   6.139  2.3168  2.0381 -4.3871
  957MOL0     H26264   7.447   4.625   6.078 -0.2199  2.1149  2.1069
  957MOL0     H26265   7.302   4.649   6.284 -0.5742  1.1534 -2.3016
  957MOL0     H26266   7.352   4.491   6.343  0.2208 -0.7157 -1.2842
  957MOL0     H26267   7.207   4.551   6.084 -1.1542  1.8678  2.0137
  957MOL0     H26268   7.286   4.386   6.129  0.5679  0.5327  0.2044
  957MOL0     H26269   7.078   4.536   6.301 -3.2015 -1.3210  1.0367
  957MOL0     H26270   7.148   4.374   6.319 -1.8611 -0.1444  0.2737
  957MOL0     H26271   7.058   4.326   6.088  1.7118 -0.5468  1.6404
  957MOL0     H26272   6.961   4.486   6.103 -2.6707  0.3580  3.4684
  957MOL0     H26273   6.958   4.245   6.294  0.3771  0.4951 -0.8464
  957MOL0     H26274   6.855   4.393   6.296 -2.5736 -1.7109 -0.5331
  957MOL0     H26275   6.859   4.196   6.066 -3.2859 -1.7063  1.1666
  957MOL0     H26276   6.758   4.340   6.085 -0.3104 -0.3913  0.6622
  957MOL0     H26277   6.579   4.338   6.280 -0.0495 -0.1460  1.8144
  957MOL0     H26278   6.352   4.026   6.374 -3.8929  1.1888  3.8925
  957MOL0     H26279   6.338   4.196   6.332 -0.9863 -1.9316 -1.4063
  957MOL0     H26280   6.404   4.262   6.550  2.6005  0.0744  2.3947
  957MOL0     H26281   6.519   4.147   6.572  0.0325  3.3518  0.8278
  957MOL0     H26282   6.362   3.980   6.640 -0.2198 -0.7031 -1.4527
  957MOL0     H26283   6.346   4.129   6.724 -2.0744 -0.8093  1.1483
  957MOL0     H26284   6.161   4.198   6.553  0.4586  0.4768  2.5836
  957MOL0     H26285   6.112   4.090   6.682  0.0653  0.3837 -0.7376
  957MOL0     H26286   5.926   4.168   6.524  1.3787  1.5629 -4.1866
  957MOL0     H26287   5.708   4.118   6.433 -2.8475 -2.7749 -2.6715
  957MOL0     H26288   5.476   4.075   6.066  1.1692  1.9986  0.9379
  957MOL0     H26289   5.286   4.133   5.986  1.8313  0.1968  0.9063
  957MOL0     H26290   4.907   4.159   6.288 -1.6761 -0.7924  1.6216
  957MOL0     H26291   4.882   4.015   6.184  0.8902 -0.4763  0.4928
  957MOL0     H26292   4.818   4.310   6.106 -1.7519  0.3228 -5.2229
  957MOL0     H26293   4.706   4.194   6.171  0.3774  2.1009  0.7832
  957MOL0     H26294   4.771   4.043   5.973  3.1860  0.1272  0.1413
  957MOL0     H26295   4.877   4.174   5.923  1.0512  2.1330  1.1157
  957MOL0     H26296   4.651   4.177   5.807 -2.9409  1.4901 -0.6402
  957MOL0     H26297   4.564   4.171   5.953 -0.5420  2.7101  1.4373
  957MOL0     H26298   4.610   4.388   5.814  2.1856  0.3876 -0.5514
  957MOL0     H26299   4.752   4.401   5.926  0.9821  0.5664 -3.0872
  957MOL0     H26300   4.588   4.543   6.034 -0.4087 -0.9973 -2.2882
  957MOL0     H26301   4.596   4.406   6.121  0.3184  5.0529  2.7807
  957MOL0     H26302   4.390   4.423   5.886 -0.7239 -1.4849 -0.2111
  957MOL0     H26303   4.382   4.327   6.038  1.5363  1.1547  1.4888
  957MOL0     H26304   4.237   4.546   6.042 -0.8774 -0.3929  1.4488
  957MOL0     H26305   4.403   4.622   6.071  2.3208 -1.1588 -0.8017
  957MOL0     H26306   5.080   4.044   6.364 -1.2151 -1.9199 -2.1598
  957MOL0     H26307   5.276   3.929   6.432 -0.9656 -0.6984 -0.1496
  957MOL0     H26308   5.835   3.740   6.281 -1.0880 -0.5343  1.7195
  957MOL0     H26309   6.056   3.776   6.382 -1.5221 -1.0087 -1.1955
  957MOL0     H26310   7.932   4.703   6.130  0.5345  1.3786  0.1914
  957MOL0     H26311   8.110   4.813   6.285 -0.0474  0.5588  1.0967
  957MOL0     H26312   8.329   4.966   6.540  0.9154 -1.4948  1.7317
  957MOL0     H26313   8.537   5.034   6.670  0.4677 -0.2186  3.1477
  957MOL0     H26314   8.690   5.186   6.712  2.2893 -0.2314  0.0805
  957MOL0     H26315   8.688   5.091   6.858 -1.3701  0.8975  1.7473
  957MOL0     H26316   8.743   5.379   6.874 -1.2519 -0.6925 -2.2404
  957MOL0     H26317   8.761   5.264   7.004  0.4561  3.0328  1.3279
  957MOL0     H26318   8.913   5.216   6.742  1.1776 -1.2306  0.2656
  957MOL0     H26319   8.972   5.185   6.912 -1.7321  1.3963  2.7387
  957MOL0     H26320   9.031   5.412   6.951  0.8281 -1.9270  0.8381
  957MOL0     H26321   9.103   5.347   6.793  0.7970  2.1985 -0.2685
  957MOL0     H26322   8.931   5.634   6.584  0.7004 -1.6051 -1.4402
  957MOL0     H26323   8.298   5.269   6.926 -0.9989 -0.6616 -0.2067
  957MOL0     H26324   8.086   5.175   6.817  0.3337  1.4566 -0.8951
  958MOL0     O26325   4.157   2.584   6.088 -1.1390 -0.1971  0.1727
  958MOL0     C26326   4.171   2.672   6.000  0.5782 -0.3154 -0.4059
  958MOL0     O26327   4.073   2.741   5.934  0.5015 -0.2081  0.1328
  958MOL0     C26328   3.935   2.742   5.971 -0.2367  0.8352  0.0164
  958MOL0     C26329   3.843   2.785   5.881  0.4256 -0.4799 -0.1580
  958MOL0     C26330   3.714   2.811   5.927 -0.3430 -0.3821  0.9582
  958MOL0     C26331   3.672   2.770   6.052  0.2339  0.0804 -0.1424
  958MOL0     O26332   3.547   2.788   6.101  0.0011 -0.2749 -0.5630
  958MOL0     C26333   3.453   2.852   6.018  0.5329  0.2986  0.2712
  958MOL0     C26334   3.337   2.905   6.100 -0.4223  0.3704 -0.0299
  958MOL0     C26335   3.374   3.016   6.203  0.5364 -0.7129  1.2622
  958MOL0     C26336   3.266   3.017   6.318 -0.0839 -0.5017  0.5195
  958MOL0     C26337   3.220   3.162   6.355 -0.5382  0.1099  0.2519
  958MOL0     C26338   3.153   3.231   6.234  0.3930  0.2837 -0.9430
  958MOL0     C26339   3.067   3.349   6.282 -0.3239  0.2398 -0.2315
  958MOL0     C26340   3.131   3.482   6.263  0.1189  0.7718  1.3292
  958MOL0     N26341   3.108   3.537   6.128 -0.6615 -0.3289  0.2808
  958MOL0     C26342   2.997   3.616   6.103  0.0772  0.9604  0.0107
  958MOL0     C26343   3.012   3.649   5.966  0.8203 -0.2108  0.2388
  958MOL0     C26344   2.911   3.738   5.901  0.6745 -0.3811  0.1552
  958MOL0     C26345   2.974   3.871   5.843 -0.4829 -0.8305  0.1879
  958MOL0     C26346   2.883   3.940   5.740 -1.1288  0.0793 -0.1368
  958MOL0     C26347   2.738   3.941   5.789  0.2069  0.4711 -0.1589
  958MOL0     O26348   2.670   3.818   5.759  0.7742  0.0189  0.1904
  958MOL0     C26349   2.551   3.831   5.698 -0.6831 -0.3905  0.5715
  958MOL0     C26350   2.444   3.908   5.746  0.3364 -0.7470  0.2074
  958MOL0     C26351   2.326   3.936   5.669  0.0607  0.2191 -0.0860
  958MOL0     C26352   2.316   3.888   5.543  0.7392 -0.4989 -0.3754
  958MOL0     C26353   2.193   3.911   5.462  0.4083 -0.5241  0.3992
  958MOL0     O26354   2.184   3.889   5.326 -0.5979 -0.4339 -0.7150
  958MOL0     C26355   2.057   3.876   5.270  0.5207 -1.2160  0.2112
  958MOL0     C26356   2.008   3.984   5.197 -0.9978  1.0432  0.7914
  958MOL0     C26357   1.888   3.960   5.131  0.8089 -0.1828 -1.1635
  958MOL0     C26358   1.812   3.844   5.149  0.5518 -0.8845 -0.4781
  958MOL0     O26359   1.690   3.827   5.074  0.1623  0.2734 -0.4744
  958MOL0     C26360   1.720   3.847   4.935  0.1936 -0.0473 -0.0378
  958MOL0     C26361   1.582   3.888   4.879  0.2477 -0.4995 -0.4369
  958MOL0     C26362   1.470   3.783   4.907  0.7340 -0.6748 -0.2285
  958MOL0     C26363   1.349   3.823   4.839  0.5000  0.4144  0.0150
  958MOL0     C26364   1.214   3.824   4.914 -0.5829  0.2583 -0.1715
  958MOL0     C26365   1.177   3.686   4.952 -0.3032  0.8201 -0.6284
  958MOL0     C26366   1.026   3.662   4.979 -0.5719 -1.0633 -0.1328
  958MOL0     C26367   0.997   3.507   5.001 -0.2293  0.2921 -0.5418
  958MOL0    Cl26368   0.817   3.485   4.992 -0.6113  0.8591  0.3041
  958MOL0     C26369   1.871   3.741   5.222 -0.4820  0.3834 -0.0939
  958MOL0     C26370   1.990   3.757   5.284 -0.7816  0.1976 -0.2297
  958MOL0     O26371   2.102   3.957   5.529  0.4544 -0.7437 -0.0629
  958MOL0     C26372   2.414   3.794   5.496  0.2297  0.0598 -0.4765
  958MOL0     C26373   2.532   3.771   5.572  0.3247 -0.2257  0.3044
  958MOL0     N26374   3.108   3.582   5.907 -0.1986  0.5935 -0.6189
  958MOL0     N26375   3.164   3.514   6.002  0.5243 -0.4632  0.0272
  958MOL0     C26376   3.762   2.712   6.133 -0.8729 -0.4769 -0.1970
  958MOL0     C26377   3.894   2.702   6.096 -0.1610  0.0164 -0.6812
  958MOL0     C26378   4.306   2.702   5.953 -0.2714  0.6499  0.3565
  958MOL0     C26379   4.359   2.829   5.946 -0.0442  0.1742  0.6884
  958MOL0     C26380   4.497   2.831   5.946 -0.2512  0.2142 -0.1782
  958MOL0     C26381   4.583   2.718   5.962 -0.1360 -0.2116 -0.1868
  958MOL0     O26382   4.719   2.736   5.970 -0.1324 -0.5239  0.2123
  958MOL0     C26383   4.768   2.871   6.012 -0.2686 -0.1432  0.0281
  958MOL0     C26384   4.921   2.844   6.030  0.7033  1.0169 -0.1255
  958MOL0     C26385   4.997   2.955   6.103 -0.0628  0.0287  0.2170
  958MOL0     C26386   4.995   3.096   6.039 -0.7943  0.7999  0.6262
  958MOL0     C26387   4.874   3.177   6.067  0.6921 -0.6593 -0.1348
  958MOL0     C26388   4.781   3.242   6.118  0.2939  0.2240  1.0210
  958MOL0     C26389   4.526   2.597   5.951  1.0816  0.7949 -0.5946
  958MOL0     C26390   4.388   2.592   5.943 -0.2471  1.6087 -0.3274
  958MOL0     H26391   3.864   2.823   5.781 -2.6401 -0.4490 -0.8967
  958MOL0     H26392   3.648   2.859   5.856 -0.9051 -0.5472  1.3579
  958MOL0     H26393   3.406   2.789   5.942  0.2172  0.9790 -0.1015
  958MOL0     H26394   3.498   2.936   5.965 -0.6203  0.2639 -0.8008
  958MOL0     H26395   3.284   2.823   6.149  1.8409 -0.6758  0.8020
  958MOL0     H26396   3.261   2.955   6.039 -0.1333  1.9625  0.8530
  958MOL0     H26397   3.379   3.104   6.139 -3.8140 -0.8886  0.3516
  958MOL0     H26398   3.470   2.996   6.251  0.3492 -1.5909  1.2836
  958MOL0     H26399   3.175   2.963   6.289 -0.4440 -0.8509  2.1663
  958MOL0     H26400   3.299   2.967   6.410  0.2340  1.0629  1.2874
  958MOL0     H26401   3.312   3.215   6.383  1.1358 -0.6377 -3.2385
  958MOL0     H26402   3.147   3.162   6.436 -0.4352 -1.3804  0.3653
  958MOL0     H26403   3.091   3.155   6.184 -2.5548  0.8274  1.5615
  958MOL0     H26404   3.230   3.270   6.167 -0.3577 -0.9137 -2.5804
  958MOL0     H26405   2.974   3.350   6.224 -0.7789  0.0806  0.4744
  958MOL0     H26406   3.049   3.339   6.390  2.5436 -0.8699  0.2401
  958MOL0     H26407   3.238   3.473   6.283  1.7375  1.4862 -4.9166
  958MOL0     H26408   3.084   3.542   6.342  2.1764  2.2279  1.5213
  958MOL0     H26409   2.923   3.663   6.167 -0.3856 -2.0450  1.8582
  958MOL0     H26410   2.837   3.759   5.979 -2.5080 -2.8808 -1.9105
  958MOL0     H26411   2.863   3.667   5.833 -0.3073 -1.2317  1.6748
  958MOL0     H26412   3.065   3.854   5.784  0.0393 -0.1095  0.7750
  958MOL0     H26413   3.009   3.937   5.923 -0.4533  2.2443 -2.1663
  958MOL0     H26414   2.921   4.039   5.715  3.2768 -1.4127 -0.2461
  958MOL0     H26415   2.879   3.879   5.649 -1.2173  1.6672 -1.2204
  958MOL0     H26416   2.688   4.016   5.727 -0.1436  1.0643  0.8154
  958MOL0     H26417   2.725   3.966   5.895 -2.7690 -2.5855  0.3679
  958MOL0     H26418   2.468   3.969   5.832  1.7099 -1.5794  0.4469
  958MOL0     H26419   2.257   4.011   5.705  0.2208 -0.7512  2.4107
  958MOL0     H26420   2.050   4.084   5.188 -0.0431  0.5578 -0.4406
  958MOL0     H26421   1.839   4.044   5.081 -2.8022 -1.6503 -0.4025
  958MOL0     H26422   1.763   3.761   4.884  0.4264 -0.1263  0.2895
  958MOL0     H26423   1.787   3.933   4.927  1.8201 -1.0731  1.7276
  958MOL0     H26424   1.599   3.891   4.771  1.3204 -0.8065 -0.2882
  958MOL0     H26425   1.557   3.990   4.912 -1.5527 -0.9436 -0.3244
  958MOL0     H26426   1.448   3.786   5.014 -0.4352  5.0303 -0.2845
  958MOL0     H26427   1.490   3.683   4.869 -1.0963 -0.8942 -0.6982
  958MOL0     H26428   1.354   3.929   4.811 -0.3029  0.6212  0.6199
  958MOL0     H26429   1.349   3.775   4.741  0.3735 -0.8857  0.6391
  958MOL0     H26430   1.126   3.852   4.855 -1.6548  0.0144  1.2281
  958MOL0     H26431   1.209   3.888   5.003  1.2740  1.2155 -0.7075
  958MOL0     H26432   1.236   3.659   5.040 -1.7425  0.0230  0.1319
  958MOL0     H26433   1.205   3.613   4.875  0.3800  1.8545 -1.3921
  958MOL0     H26434   0.998   3.717   5.069  2.5176 -0.1319  0.3619
  958MOL0     H26435   0.967   3.693   4.892 -6.1110 -3.1188  2.4037
  958MOL0     H26436   1.040   3.490   5.100  2.5508  1.0241 -1.5571
  958MOL0     H26437   1.048   3.445   4.928 -0.7000 -0.0894 -0.5515
  958MOL0     H26438   1.815   3.650   5.241  0.7933 -0.5433 -0.6312
  958MOL0     H26439   2.026   3.676   5.346 -0.0188  2.2071  2.1473
  958MOL0     H26440   2.389   3.733   5.409  0.7024 -0.2870 -0.3739
  958MOL0     H26441   2.606   3.698   5.540  2.0221  2.1535 -1.5737
  958MOL0     H26442   3.731   2.690   6.235 -2.4093  2.7879  0.1714
  958MOL0     H26443   3.963   2.673   6.174  1.6009  1.4371 -1.6283
  958MOL0     H26444   4.296   2.916   5.930 -1.6523 -1.2564 -1.3884
  958MOL0     H26445   4.535   2.933   5.945 -2.3549  1.0825 -1.3933
  958MOL0     H26446   4.723   2.908   6.105 -1.3063  0.7040 -0.7870
  958MOL0     H26447   4.745   2.948   5.938 -1.2396 -2.3016 -2.0341
  958MOL0     H26448   4.924   2.748   6.082  0.1693  1.3974  0.6118
  958MOL0     H26449   4.967   2.826   5.932 -1.0496 -1.9315 -0.5072
  958MOL0     H26450   5.103   2.927   6.110 -0.1382 -0.7644 -1.3995
  958MOL0     H26451   4.970   2.962   6.209 -0.1351  3.8051  0.1125
  958MOL0     H26452   5.086   3.156   6.051 -1.2075  1.2398  1.6830
  958MOL0     H26453   5.000   3.073   5.932  1.7781 -2.8542  1.3524
  958MOL0     H26454   4.688   3.291   6.138 -1.2134 -1.7768 -0.5074
  958MOL0     H26455   4.587   2.508   5.936 -0.0174 -0.0377 -0.2772
  958MOL0     H26456   4.341   2.495   5.930 -0.0077  1.2985  0.9745
  959MOL0     O26457   4.478  10.558   3.288  0.2063  0.0647 -0.3727
  959MOL0     C26458   4.554  10.484   3.346 -0.3944  0.0263  0.4891
  959MOL0     O26459   4.513  10.383   3.430  0.1821 -0.2629 -0.1012
  959MOL0     C26460   4.379  10.345   3.435 -0.3459  0.6911 -0.4305
  959MOL0     C26461   4.269  10.428   3.450 -0.3666 -0.2219  0.1819
  959MOL0     C26462   4.140  10.372   3.488  0.0846  0.2433  0.5500
  959MOL0     C26463   4.118  10.239   3.511  0.0320 -0.4700  0.1441
  959MOL0     O26464   3.990  10.195   3.554  0.4484  0.1841  0.1303
  959MOL0     C26465   3.979  10.076   3.638  0.6124  0.6952 -1.1645
  959MOL0     C26466   3.846  10.075   3.709 -0.1560  0.8924  0.1607
  959MOL0     C26467   3.845  10.175   3.815  0.5505 -0.4382 -0.8185
  959MOL0     C26468   3.694  10.200   3.864 -0.5833 -0.1159  0.0844
  959MOL0     C26469   3.667  10.339   3.928 -0.5262 -0.2519 -0.1842
  959MOL0     C26470   3.768  10.376   4.040  0.6647  0.5664  0.0933
  959MOL0     C26471   3.721  10.318   4.176  0.4060 -0.3815 -0.1491
  959MOL0     C26472   3.585  10.375   4.229 -0.4331 -0.1251  0.3839
  959MOL0     N26473   3.580  10.350   4.377 -0.1222 -0.6881  0.2839
  959MOL0     C26474   3.517  10.237   4.414  0.2878 -0.2048 -0.2176
  959MOL0     C26475   3.513  10.241   4.551 -0.8433 -0.0964  0.5305
  959MOL0     C26476   3.447  10.138   4.639  0.6125  0.2986  0.3678
  959MOL0     C26477   3.292  10.131   4.619 -0.3337 -0.2400 -0.7788
  959MOL0     C26478   3.227  10.020   4.709 -0.2922  0.4370 -0.2623
  959MOL0     C26479   3.072  10.004   4.699  0.4191 -0.6968  1.5669
  959MOL0     O26480   3.040   9.905   4.788 -0.3924  0.0671 -0.2728
  959MOL0     C26481   2.905   9.866   4.783  0.4971 -0.5880  1.1908
  959MOL0     C26482   2.795   9.957   4.749 -0.2760  0.1625 -0.3789
  959MOL0     C26483   2.657   9.918   4.761  0.4592 -0.4470  0.5092
  959MOL0     C26484   2.622   9.791   4.805  0.3779 -0.0028  0.1456
  959MOL0     C26485   2.483   9.747   4.826 -0.1050 -0.9997 -0.7511
  959MOL0     O26486   2.466   9.616   4.834  0.6149 -0.3200  0.1676
  959MOL0     C26487   2.345   9.547   4.849 -0.2672 -0.7934  0.5844
  959MOL0     C26488   2.346   9.416   4.812 -0.1779  0.1164  0.1763
  959MOL0     C26489   2.230   9.336   4.825  0.7584 -0.5633 -0.0827
  959MOL0     C26490   2.112   9.391   4.867  0.2607 -0.5982 -0.4067
  959MOL0     O26491   2.005   9.304   4.879 -1.3216 -0.2699  0.5077
  959MOL0     C26492   1.950   9.270   4.751 -0.4022  0.9238  0.4786
  959MOL0     C26493   1.830   9.175   4.764  0.3904 -1.1368 -0.3835
  959MOL0     C26494   1.862   9.046   4.847  0.4981  0.6249  0.4181
  959MOL0     C26495   1.748   8.951   4.867  0.4846  0.9534  0.1275
  959MOL0     C26496   1.781   8.815   4.942 -0.5440 -0.1919 -0.2158
  959MOL0     C26497   1.669   8.709   4.939  0.1306  0.4197 -0.4075
  959MOL0     C26498   1.716   8.580   5.003 -0.9134 -0.3536  0.8025
  959MOL0     C26499   1.593   8.489   5.002 -0.5568 -0.1809  0.5801
  959MOL0    Cl26500   1.630   8.348   5.101 -0.4289  0.2211 -0.6165
  959MOL0     C26501   2.108   9.525   4.922  0.3762 -0.5402  0.9075
  959MOL0     C26502   2.226   9.606   4.912  0.1705  0.3781  1.1729
  959MOL0     O26503   2.400   9.832   4.853  0.0407 -0.1739  0.4198
  959MOL0     C26504   2.727   9.701   4.836  0.3179 -0.7604  0.3476
  959MOL0     C26505   2.867   9.740   4.826  0.8618  0.5656 -0.1548
  959MOL0     N26506   3.562  10.359   4.587 -0.0062 -0.0276  0.1293
  959MOL0     N26507   3.600  10.430   4.481 -0.8546  0.1390 -0.5811
  959MOL0     C26508   4.235  10.156   3.498 -0.0850 -0.5887 -0.0267
  959MOL0     C26509   4.360  10.206   3.461 -0.5685 -0.3896 -1.6602
  959MOL0     C26510   4.696  10.491   3.315 -0.5046 -0.0855 -0.6317
  959MOL0     C26511   4.737  10.589   3.227  0.3948  1.0569 -0.0344
  959MOL0     C26512   4.873  10.589   3.189 -0.0539 -1.0429 -0.2194
  959MOL0     C26513   4.976  10.506   3.244  0.0608  1.1978  0.4262
  959MOL0     O26514   5.110  10.513   3.204  0.3558  0.5049  0.1409
  959MOL0     C26515   5.211  10.503   3.306  0.0518 -0.3755 -0.1360
  959MOL0     C26516   5.338  10.573   3.257 -0.1587  0.0661  0.5057
  959MOL0     C26517   5.461  10.561   3.347  0.0855  0.1208 -1.2838
  959MOL0     C26518   5.495  10.413   3.388 -0.6931 -0.4733  0.1885
  959MOL0     C26519   5.601  10.426   3.487  0.4359 -1.5554 -0.0960
  959MOL0     C26520   5.693  10.414   3.564 -0.5774  0.0021  0.5239
  959MOL0     C26521   4.926  10.401   3.317  0.3306  0.1837 -0.2332
  959MOL0     C26522   4.789  10.386   3.358 -0.4136 -0.4339 -0.0064
  959MOL0     H26523   4.274  10.537   3.444  1.3637 -0.3144 -0.9523
  959MOL0     H26524   4.053  10.433   3.512  1.4992  2.4000  0.4520
  959MOL0     H26525   4.065  10.066   3.705  0.2900 -0.3209 -0.8822
  959MOL0     H26526   3.979   9.991   3.569 -2.8170 -1.5046  1.2642
  959MOL0     H26527   3.840   9.976   3.756  1.2812  1.5407  1.7968
  959MOL0     H26528   3.757  10.080   3.646 -0.2367 -2.6897 -0.2071
  959MOL0     H26529   3.893  10.268   3.784  0.8539 -0.8511 -1.6325
  959MOL0     H26530   3.906  10.132   3.895 -0.7787  2.4741  1.9648
  959MOL0     H26531   3.621  10.203   3.783 -0.3625  1.5095 -0.0888
  959MOL0     H26532   3.665  10.123   3.936  2.7181 -0.2783  1.4006
  959MOL0     H26533   3.564  10.346   3.964  0.0307  2.6026  1.1055
  959MOL0     H26534   3.675  10.414   3.850 -2.3092 -0.3576 -0.5077
  959MOL0     H26535   3.785  10.484   4.046  2.7432  0.3067 -0.3445
  959MOL0     H26536   3.864  10.327   4.022  0.1290 -0.7905  0.7916
  959MOL0     H26537   3.699  10.211   4.177 -3.8625  0.3340  0.9342
  959MOL0     H26538   3.794  10.356   4.248  0.5437  1.1169 -1.0214
  959MOL0     H26539   3.499  10.347   4.168 -0.5422 -0.9027  0.8705
  959MOL0     H26540   3.595  10.482   4.208  1.6292 -0.6076 -1.3933
  959MOL0     H26541   3.478  10.171   4.337  0.7964  0.6156 -1.1926
  959MOL0     H26542   3.469  10.162   4.743  1.5161 -1.4355  0.6111
  959MOL0     H26543   3.481  10.037   4.614  1.1067  0.7763 -1.0207
  959MOL0     H26544   3.263  10.130   4.513  1.1732 -0.1947 -1.2219
  959MOL0     H26545   3.258  10.226   4.661  1.6830 -0.4247  1.5252
  959MOL0     H26546   3.265   9.924   4.672  0.4563  1.6439 -2.8573
  959MOL0     H26547   3.235  10.030   4.817 -2.3529 -0.8946  0.0649
  959MOL0     H26548   3.073   9.981   4.592  1.4990  3.7780  0.4347
  959MOL0     H26549   3.026  10.101   4.721 -0.2235 -0.2557 -1.3640
  959MOL0     H26550   2.815  10.056   4.709 -1.2650  1.1423  1.4039
  959MOL0     H26551   2.582   9.993   4.735 -0.7399 -1.4150  1.0843
  959MOL0     H26552   2.422   9.355   4.764 -0.7016  1.5062 -2.6196
  959MOL0     H26553   2.245   9.234   4.793  0.4976 -1.5451  2.6955
  959MOL0     H26554   2.019   9.219   4.684 -2.6681  0.2980 -1.5148
  959MOL0     H26555   1.915   9.358   4.697 -1.2930  0.4805  0.3223
  959MOL0     H26556   1.808   9.143   4.662  1.1057 -2.0659 -0.2516
  959MOL0     H26557   1.739   9.217   4.808  0.8048 -0.4354 -0.1653
  959MOL0     H26558   1.889   9.067   4.950 -1.0753  3.5070  0.3583
  959MOL0     H26559   1.939   8.999   4.785 -0.7040  0.6053 -1.1428
  959MOL0     H26560   1.678   9.012   4.926  3.0632  2.9382  1.3549
  959MOL0     H26561   1.692   8.931   4.776 -0.3174 -0.0788  0.8240
  959MOL0     H26562   1.790   8.851   5.045  2.6042 -2.0407  0.2879
  959MOL0     H26563   1.877   8.773   4.911 -1.9597 -3.4060 -0.6241
  959MOL0     H26564   1.632   8.684   4.840  1.4327 -0.5704 -0.6783
  959MOL0     H26565   1.589   8.751   5.001 -0.4802 -1.1998 -0.0588
  959MOL0     H26566   1.787   8.540   4.930 -2.1506  2.2595 -2.0592
  959MOL0     H26567   1.760   8.597   5.101  2.2081 -0.7353 -0.4033
  959MOL0     H26568   1.568   8.448   4.904  2.0732 -0.9871  0.1846
  959MOL0     H26569   1.513   8.539   5.058  2.3191  1.6141  3.4559
  959MOL0     H26570   2.013   9.561   4.957  0.5866  0.0695  0.8537
  959MOL0     H26571   2.221   9.709   4.944  0.4691  0.9282 -0.4352
  959MOL0     H26572   2.693   9.602   4.864 -0.3782 -0.5054  0.4291
  959MOL0     H26573   2.949   9.671   4.844 -1.4911 -1.9989  1.5640
  959MOL0     H26574   4.226  10.049   3.516 -2.6577 -1.3830 -4.5529
  959MOL0     H26575   4.450  10.147   3.444 -0.7971 -0.6198 -2.0936
  959MOL0     H26576   4.668  10.656   3.176  0.2282  0.1570 -1.0269
  959MOL0     H26577   4.900  10.658   3.109  4.2173 -0.5748  1.3645
  959MOL0     H26578   5.225  10.395   3.319  0.6776  0.0112  3.7105
  959MOL0     H26579   5.178  10.524   3.408  0.5917 -1.3341  0.2570
  959MOL0     H26580   5.358  10.528   3.159 -2.0181  0.6296 -0.1985
  959MOL0     H26581   5.320  10.681   3.244  1.6041  0.5975  2.1141
  959MOL0     H26582   5.441  10.615   3.440 -2.9270  0.2787 -1.9334
  959MOL0     H26583   5.551  10.601   3.298  0.6048 -1.6906 -1.8761
  959MOL0     H26584   5.412  10.364   3.439 -1.6790 -0.2402 -1.1619
  959MOL0     H26585   5.543  10.357   3.307 -1.3520 -0.1617 -0.4245
  959MOL0     H26586   5.781  10.411   3.625  0.7922  3.1565 -1.1270
  959MOL0     H26587   5.002  10.330   3.347  0.6680 -0.0935 -1.6739
  959MOL0     H26588   4.751  10.309   3.424 -0.1279 -1.5908 -1.1603
  960MOL0     O26589   5.541   8.555   2.334 -0.3727 -0.2304  0.0006
  960MOL0     C26590   5.530   8.576   2.215  0.3060 -0.8765 -1.2339
  960MOL0     O26591   5.416   8.537   2.138 -0.4167  0.0311 -0.3551
  960MOL0     C26592   5.308   8.473   2.199  0.0248 -0.1383  0.7431
  960MOL0     C26593   5.255   8.354   2.137 -0.4273  0.5282 -0.8527
  960MOL0     C26594   5.148   8.285   2.194 -0.6287 -0.1238  0.6180
  960MOL0     C26595   5.079   8.335   2.303 -0.0945  0.5019 -0.0262
  960MOL0     O26596   4.974   8.255   2.345 -0.3402 -0.1372 -0.1289
  960MOL0     C26597   4.923   8.281   2.481 -0.4082  0.0940 -0.1112
  960MOL0     C26598   4.842   8.156   2.534 -1.0428 -0.2549  1.0829
  960MOL0     C26599   4.770   8.203   2.667  0.5389  0.2076  0.0763
  960MOL0     C26600   4.682   8.091   2.717 -0.1714  0.0111 -0.9366
  960MOL0     C26601   4.589   8.148   2.823  1.0182 -0.9896  0.2004
  960MOL0     C26602   4.462   8.239   2.778 -0.6723  1.5319  1.0092
  960MOL0     C26603   4.360   8.168   2.697 -0.2212  0.1353  0.1380
  960MOL0     C26604   4.309   8.034   2.754  0.4002  0.0494 -0.9165
  960MOL0     N26605   4.242   8.034   2.879  0.7544 -0.4082  1.4326
  960MOL0     C26606   4.126   8.091   2.910  0.3013  0.4794  0.0895
  960MOL0     C26607   4.120   8.065   3.046 -0.4185 -0.6008  0.0868
  960MOL0     C26608   4.031   8.116   3.155 -0.9304  0.5260  0.4000
  960MOL0     C26609   4.079   8.255   3.204 -0.5919 -0.2459 -1.0305
  960MOL0     C26610   3.988   8.310   3.303  0.6626  0.5565  0.2335
  960MOL0     C26611   3.962   8.231   3.435  0.1639  0.4900 -0.5632
  960MOL0     O26612   3.854   8.288   3.509  0.4394  0.5037  0.4215
  960MOL0     C26613   3.840   8.218   3.627 -0.3407  0.6907 -0.0218
  960MOL0     C26614   3.721   8.143   3.654  0.9009 -0.2140  0.9236
  960MOL0     C26615   3.703   8.092   3.773  0.8637  0.4589  0.3561
  960MOL0     C26616   3.788   8.112   3.880  0.4364 -0.1219 -0.1548
  960MOL0     C26617   3.754   8.071   4.019 -0.4854 -1.3791 -0.3333
  960MOL0     O26618   3.632   8.004   4.029  0.5904 -0.2281  0.2130
  960MOL0     C26619   3.583   7.990   4.154 -0.6104  0.3284  0.8356
  960MOL0     C26620   3.461   8.050   4.186  0.4033 -0.2789  0.0677
  960MOL0     C26621   3.404   8.023   4.310 -0.3520  0.2410  0.1412
  960MOL0     C26622   3.466   7.936   4.398 -0.7611  0.5501  0.7428
  960MOL0     O26623   3.398   7.898   4.505 -0.2138  0.6588  0.1992
  960MOL0     C26624   3.419   7.763   4.548 -0.1733  0.3701  0.2879
  960MOL0     C26625   3.319   7.727   4.665 -1.0236 -0.0530  0.3905
  960MOL0     C26626   3.328   7.576   4.695 -0.1876  0.2084 -0.5659
  960MOL0     C26627   3.241   7.551   4.816 -0.4562  0.8124 -0.7025
  960MOL0     C26628   3.306   7.602   4.950 -0.5967  0.4128 -0.1051
  960MOL0     C26629   3.399   7.505   5.021 -1.3612 -0.6969  0.3342
  960MOL0     C26630   3.403   7.537   5.171 -0.3612  0.0905 -0.0659
  960MOL0     C26631   3.510   7.460   5.245  0.2709 -0.3390 -0.6974
  960MOL0    Cl26632   3.540   7.555   5.394  0.5512  0.1245  0.1570
  960MOL0     C26633   3.598   7.893   4.372  1.0731  0.4998  0.0054
  960MOL0     C26634   3.649   7.915   4.247 -0.8308 -0.0378  0.1704
  960MOL0     O26635   3.824   8.106   4.118  0.1466  0.0282 -0.0495
  960MOL0     C26636   3.915   8.167   3.855  0.1312 -0.5840  0.9012
  960MOL0     C26637   3.936   8.233   3.731  0.1376  0.2824  0.8014
  960MOL0     N26638   4.230   8.002   3.091  0.9259  0.7742  0.1837
  960MOL0     N26639   4.306   7.983   2.986  0.4464 -0.3562  0.8660
  960MOL0     C26640   5.131   8.450   2.368  0.6933  0.0660 -0.0743
  960MOL0     C26641   5.250   8.516   2.318  0.2231 -0.1424  0.2069
  960MOL0     C26642   5.641   8.638   2.147  0.0257 -0.6513 -0.0089
  960MOL0     C26643   5.774   8.621   2.200 -1.0360  0.7783  0.5629
  960MOL0     C26644   5.885   8.678   2.131  0.5104  1.3889  0.3865
  960MOL0     C26645   5.873   8.738   2.004  0.4638  0.8733  0.3401
  960MOL0     O26646   5.974   8.777   1.928 -0.4987 -0.2488 -0.6638
  960MOL0     C26647   6.116   8.751   1.966  0.4188  0.0684  0.7080
  960MOL0     C26648   6.211   8.759   1.848  0.8986 -0.5239 -0.1437
  960MOL0     C26649   6.205   8.891   1.766 -0.2463  0.7137 -0.0976
  960MOL0     C26650   6.327   8.917   1.669  0.1411  0.6703 -0.2913
  960MOL0     C26651   6.371   8.802   1.604  0.6720  0.3361  0.6130
  960MOL0     C26652   6.396   8.709   1.533  0.5642 -1.1328 -0.7740
  960MOL0     C26653   5.747   8.747   1.951  0.4139  0.6479 -0.4490
  960MOL0     C26654   5.630   8.712   2.025  0.3286 -0.0334  0.8764
  960MOL0     H26655   5.304   8.313   2.049  1.6539  2.0037 -0.4675
  960MOL0     H26656   5.114   8.192   2.149  1.1812  0.5954 -2.5524
  960MOL0     H26657   4.854   8.366   2.490 -1.0511 -0.1410 -2.3875
  960MOL0     H26658   5.007   8.292   2.551  0.1939  0.6320 -0.8954
  960MOL0     H26659   4.915   8.077   2.553 -0.3055  0.0824 -0.2351
  960MOL0     H26660   4.763   8.126   2.466 -1.1425  1.2785  0.4724
  960MOL0     H26661   4.715   8.293   2.636  0.6281 -0.7314 -3.2337
  960MOL0     H26662   4.850   8.216   2.739  1.8576 -0.8035 -1.1365
  960MOL0     H26663   4.635   8.050   2.627  0.4604  0.6534 -1.5716
  960MOL0     H26664   4.743   8.015   2.766  0.2394  2.3198  2.5057
  960MOL0     H26665   4.649   8.219   2.881 -0.8171  1.7047 -1.0017
  960MOL0     H26666   4.548   8.065   2.881 -1.0342 -0.0667  0.1619
  960MOL0     H26667   4.503   8.317   2.713 -2.0265  0.3589 -1.3708
  960MOL0     H26668   4.425   8.281   2.872  1.0124 -1.3945  3.1337
  960MOL0     H26669   4.269   8.228   2.689 -0.6756 -0.8438 -3.7315
  960MOL0     H26670   4.394   8.150   2.595 -1.2354  0.9503 -0.3665
  960MOL0     H26671   4.392   7.964   2.766  0.6715  0.7276  1.8270
  960MOL0     H26672   4.241   8.005   2.674 -0.2325  0.8121 -0.6763
  960MOL0     H26673   4.057   8.154   2.855  1.2068  0.8190 -0.6794
  960MOL0     H26674   4.034   8.039   3.233 -1.5765 -1.2129 -1.2029
  960MOL0     H26675   3.931   8.118   3.110 -1.1486  2.7049  0.8556
  960MOL0     H26676   4.088   8.329   3.123  0.6312  0.5454 -0.2206
  960MOL0     H26677   4.179   8.252   3.249 -1.3515 -0.3658  0.7256
  960MOL0     H26678   4.027   8.412   3.312  0.9044  0.6023 -1.0457
  960MOL0     H26679   3.894   8.332   3.251  0.4051  0.5736  0.7064
  960MOL0     H26680   4.055   8.215   3.490 -1.2997 -0.3137  1.8415
  960MOL0     H26681   3.931   8.131   3.404 -0.0970  0.3286  0.1994
  960MOL0     H26682   3.643   8.146   3.579  2.3817  4.1420 -0.7241
  960MOL0     H26683   3.611   8.035   3.777 -0.5045  2.5691 -0.0818
  960MOL0     H26684   3.424   8.111   4.104  1.0375  1.2193  0.8576
  960MOL0     H26685   3.305   8.060   4.331  0.4318  1.3217  2.1763
  960MOL0     H26686   3.520   7.734   4.578  0.7696  1.4138 -1.6612
  960MOL0     H26687   3.409   7.701   4.458  3.6235 -1.3193  0.8554
  960MOL0     H26688   3.213   7.739   4.639 -0.6109  0.0237 -1.3779
  960MOL0     H26689   3.362   7.788   4.745 -1.3613 -2.0931  2.2133
  960MOL0     H26690   3.431   7.544   4.714  0.9473  4.0268  0.8166
  960MOL0     H26691   3.275   7.519   4.618 -0.3057 -0.4393 -0.0073
  960MOL0     H26692   3.145   7.597   4.794 -2.3463 -2.5384 -0.0580
  960MOL0     H26693   3.222   7.444   4.826  1.1200  0.2277 -3.0133
  960MOL0     H26694   3.222   7.626   5.016 -1.1306  0.7752 -0.9071
  960MOL0     H26695   3.358   7.696   4.930  0.0033  0.1772  0.2936
  960MOL0     H26696   3.502   7.518   4.984 -0.2013  0.7039  3.6826
  960MOL0     H26697   3.361   7.404   5.002 -1.4281 -0.2180 -2.5646
  960MOL0     H26698   3.413   7.645   5.173 -0.9462  0.1531 -0.3673
  960MOL0     H26699   3.311   7.496   5.213 -1.2387  0.0023 -1.9313
  960MOL0     H26700   3.601   7.470   5.186  0.3860  3.0883 -0.1759
  960MOL0     H26701   3.476   7.357   5.258  0.8954 -0.5370 -0.5954
  960MOL0     H26702   3.657   7.845   4.449  2.0544  0.8189 -0.5300
  960MOL0     H26703   3.749   7.874   4.238 -1.3186 -1.0397 -0.9925
  960MOL0     H26704   4.002   8.168   3.919  0.2042  1.8396  0.8575
  960MOL0     H26705   4.022   8.298   3.721 -1.0616  2.1793  2.0516
  960MOL0     H26706   5.078   8.496   2.451  3.7699  2.8438  0.5912
  960MOL0     H26707   5.292   8.594   2.380  2.1802  0.0431 -1.2679
  960MOL0     H26708   5.779   8.573   2.297  0.6564 -0.0713  0.1038
  960MOL0     H26709   5.969   8.678   2.200 -0.3467  1.0936  1.4682
  960MOL0     H26710   6.123   8.655   2.018  0.7782 -1.1800 -1.5140
  960MOL0     H26711   6.146   8.831   2.034  1.4120 -1.1572  1.7610
  960MOL0     H26712   6.310   8.750   1.894  1.6851 -0.3719 -1.7374
  960MOL0     H26713   6.183   8.670   1.791  1.2042 -2.1504  2.1080
  960MOL0     H26714   6.186   8.978   1.830  0.5993 -0.2208  1.4900
  960MOL0     H26715   6.116   8.873   1.705  0.9090  0.1809 -1.7066
  960MOL0     H26716   6.304   8.986   1.588 -1.6494  0.6964  0.2047
  960MOL0     H26717   6.414   8.946   1.728  0.4032 -1.3848  0.4309
  960MOL0     H26718   6.436   8.624   1.481 -0.4931 -1.5954 -0.8664
  960MOL0     H26719   5.739   8.794   1.854  1.0943 -1.3652 -1.5253
  960MOL0     H26720   5.530   8.711   1.984  0.8547  0.8098 -0.5067
  961MOL0     O26721   9.231   1.428  10.508 -0.3583  0.5306  0.3927
  961MOL0     C26722   9.237   1.308  10.527 -0.1516 -0.1023  0.1862
  961MOL0     O26723   9.356   1.235  10.553 -0.5050 -0.3482 -0.1516
  961MOL0     C26724   9.481   1.295  10.567 -0.1120 -0.5340 -0.1643
  961MOL0     C26725   9.577   1.232  10.650 -0.0882  0.5629  0.7732
  961MOL0     C26726   9.703   1.281  10.661  0.2696  0.7400  0.3693
  961MOL0     C26727   9.750   1.391  10.589 -0.6460 -0.0351 -0.2341
  961MOL0     O26728   9.876   1.433  10.597 -0.6155 -0.0458 -0.5710
  961MOL0     C26729   9.938   1.511  10.502 -0.2542  0.1401 -0.1391
  961MOL0     C26730  10.093   1.483  10.501 -0.5341  0.3304  0.8022
  961MOL0     C26731  10.163   1.610  10.472 -0.4265  0.3320 -0.1679
  961MOL0     C26732  10.309   1.588  10.491  0.6239  0.0348 -0.0604
  961MOL0     C26733  10.398   1.708  10.453 -0.4894 -0.2784 -0.0822
  961MOL0     C26734  10.551   1.686  10.478  1.0437 -0.7192  1.6414
  961MOL0     C26735  10.599   1.563  10.391 -0.9914  0.3308  0.4490
  961MOL0     C26736  10.617   1.587  10.236 -0.2950  0.1525 -0.1540
  961MOL0     N26737  10.732   1.673  10.217 -0.6268 -0.6766  0.1736
  961MOL0     C26738  10.849   1.662  10.285 -0.0456 -0.8269  0.6878
  961MOL0     C26739  10.923   1.774  10.251  0.0660  0.1356 -0.1904
  961MOL0     C26740  11.059   1.815  10.292  0.3581 -0.1704  0.3496
  961MOL0     C26741  11.145   1.866  10.171 -0.3426  0.4637 -0.9585
  961MOL0     C26742  11.197   1.742  10.094  0.2645  0.8664 -0.6113
  961MOL0     C26743  11.302   1.786   9.996  0.5546 -0.9309  0.1624
  961MOL0     O26744  11.401   1.693   9.949  0.5149  0.4702 -0.3578
  961MOL0     C26745  11.522   1.735   9.894  1.2098  0.6235  0.1179
  961MOL0     C26746  11.602   1.631   9.842  0.4577 -1.0702 -1.1402
  961MOL0     C26747  11.714   1.659   9.763  0.6325  0.1679 -0.5858
  961MOL0     C26748  11.756   1.793   9.749  0.1384  0.6892  0.4002
  961MOL0     C26749  11.884   1.825   9.696  0.7040 -0.2788 -0.7494
  961MOL0     O26750  11.958   1.727   9.634  0.9894 -0.1987 -0.6149
  961MOL0     C26751  12.090   1.730   9.648 -0.7389  0.8251  0.4404
  961MOL0     C26752  12.142   1.709   9.774  0.7235  0.6751  0.3139
  961MOL0     C26753  12.279   1.702   9.793  0.3594 -0.3962  0.0756
  961MOL0     C26754  12.361   1.712   9.688  0.1615 -0.4217  0.2642
  961MOL0     O26755  12.503   1.714   9.705 -0.1279 -0.2878  0.0815
  961MOL0     C26756  12.584   1.694   9.584 -0.3558 -0.2965 -0.2051
  961MOL0     C26757  12.729   1.660   9.611  0.5266 -0.8295  0.3789
  961MOL0     C26758  12.799   1.561   9.522  0.4788  0.0358 -0.8256
  961MOL0     C26759  12.919   1.492   9.588 -0.8782 -0.6918 -0.5242
  961MOL0     C26760  12.987   1.382   9.499  0.3258 -0.4961  0.2050
  961MOL0     C26761  13.114   1.347   9.572 -0.3281  0.2067 -0.1286
  961MOL0     C26762  13.168   1.223   9.503 -0.1687  0.8835 -0.0267
  961MOL0     C26763  13.304   1.195   9.571 -0.4082  0.7185 -0.0081
  961MOL0    Cl26764  13.394   1.066   9.480  0.3015 -0.3864  0.0011
  961MOL0     C26765  12.304   1.737   9.565 -0.7460  0.5746  0.4894
  961MOL0     C26766  12.172   1.743   9.538  0.0947  0.2180  0.1119
  961MOL0     O26767  11.933   1.930   9.734 -0.4280  0.0397  0.3879
  961MOL0     C26768  11.661   1.891   9.785 -0.5340  0.4431 -0.3349
  961MOL0     C26769  11.556   1.866   9.874  0.0884 -0.0887  0.0249
  961MOL0     N26770  10.851   1.852  10.160  0.9221 -0.9295  0.5316
  961MOL0     N26771  10.730   1.791  10.146 -0.8518 -0.7656  0.3015
  961MOL0     C26772   9.655   1.459  10.515  0.7688 -0.0199  0.6250
  961MOL0     C26773   9.517   1.414  10.499 -0.7632  0.2664  0.0599
  961MOL0     C26774   9.112   1.234  10.542  0.1021 -0.3724 -0.6971
  961MOL0     C26775   8.978   1.285  10.517  0.2717  0.3542 -1.0726
  961MOL0     C26776   8.871   1.199  10.503  0.1572 -0.6633 -0.5121
  961MOL0     C26777   8.874   1.064  10.540  0.1170  0.3565  1.0001
  961MOL0     O26778   8.759   0.989  10.547  0.6941 -0.1802  1.1120
  961MOL0     C26779   8.769   0.856  10.607  0.2933 -0.1082 -0.4820
  961MOL0     C26780   8.619   0.812  10.614  0.7148  0.3899 -0.2464
  961MOL0     C26781   8.591   0.660  10.635 -0.4759  0.1358 -0.7215
  961MOL0     C26782   8.448   0.649  10.674  0.0610 -0.1677  0.8251
  961MOL0     C26783   8.431   0.653  10.822 -0.1959 -0.7129  0.9462
  961MOL0     C26784   8.398   0.667  10.936  0.0256  0.2759  1.1327
  961MOL0     C26785   9.006   1.013  10.567  1.2818 -1.1589  0.4430
  961MOL0     C26786   9.120   1.090  10.567  1.3468 -1.1362  0.6863
  961MOL0     H26787   9.547   1.142  10.701  2.7773 -2.1655 -1.9072
  961MOL0     H26788   9.767   1.223  10.727  2.1995  3.5156  1.1005
  961MOL0     H26789   9.915   1.617  10.519 -0.4365  0.4391 -2.0246
  961MOL0     H26790   9.897   1.489  10.403  2.3541 -0.6752 -1.0994
  961MOL0     H26791  10.113   1.408  10.425  1.1667  1.0628  0.5001
  961MOL0     H26792  10.131   1.449  10.598  0.4089  2.4951  1.2407
  961MOL0     H26793  10.130   1.680  10.549  2.5735  0.4585  1.1079
  961MOL0     H26794  10.134   1.650  10.374 -0.0848 -4.1824 -2.4105
  961MOL0     H26795  10.318   1.549  10.593  0.0265  0.3702  0.1244
  961MOL0     H26796  10.338   1.496  10.440  0.5323 -1.6435  2.7205
  961MOL0     H26797  10.372   1.802  10.504  1.3480  0.4430 -0.3983
  961MOL0     H26798  10.384   1.729  10.347  2.2788 -1.2084 -0.7032
  961MOL0     H26799  10.572   1.670  10.584 -1.4243 -2.7855  1.9046
  961MOL0     H26800  10.602   1.779  10.452 -0.4401 -0.3674 -0.2181
  961MOL0     H26801  10.698   1.537  10.428 -1.1030 -2.3885 -0.9690
  961MOL0     H26802  10.542   1.473  10.415  2.4099 -1.3089  3.2027
  961MOL0     H26803  10.527   1.624  10.185  1.5365  1.8722 -2.3415
  961MOL0     H26804  10.648   1.495  10.185  3.8848  0.1491  1.9994
  961MOL0     H26805  10.889   1.581  10.345  0.3339 -0.2040  1.2821
  961MOL0     H26806  11.114   1.736  10.343 -1.0737 -1.2301  0.3148
  961MOL0     H26807  11.048   1.900  10.360  1.0264  0.6109 -0.4902
  961MOL0     H26808  11.231   1.913  10.218  0.9188 -2.0346 -0.5902
  961MOL0     H26809  11.083   1.925  10.103 -1.1263 -1.2720 -1.8344
  961MOL0     H26810  11.237   1.663  10.158 -1.5923  0.4954  0.1588
  961MOL0     H26811  11.111   1.704  10.038  1.8109 -2.6747 -0.8931
  961MOL0     H26812  11.348   1.878  10.032  0.2447  0.6706 -3.1976
  961MOL0     H26813  11.240   1.825   9.915  0.6318 -0.9191  0.1097
  961MOL0     H26814  11.569   1.530   9.866  0.7267 -0.7299  0.8268
  961MOL0     H26815  11.780   1.581   9.727  1.0106 -0.1078  0.6578
  961MOL0     H26816  12.066   1.691   9.849 -0.2828  0.9636 -0.6219
  961MOL0     H26817  12.333   1.691   9.886  3.6389  0.4985 -1.5845
  961MOL0     H26818  12.593   1.775   9.511  1.2937 -2.4104 -2.5215
  961MOL0     H26819  12.544   1.607   9.530 -0.2079 -0.1214 -0.6024
  961MOL0     H26820  12.733   1.624   9.714  1.6463 -2.3616 -0.1559
  961MOL0     H26821  12.793   1.748   9.616  0.8692 -1.1372  1.9947
  961MOL0     H26822  12.828   1.617   9.433  3.1233 -0.9922 -0.7043
  961MOL0     H26823  12.733   1.476   9.500 -1.0019  0.4569  1.6103
  961MOL0     H26824  12.989   1.569   9.622 -3.4049  1.1826  0.7332
  961MOL0     H26825  12.894   1.441   9.682  0.3028  1.4637  1.0499
  961MOL0     H26826  13.012   1.424   9.401  0.3269  1.0271  0.8391
  961MOL0     H26827  12.917   1.298   9.495 -0.4593  0.1241 -3.5040
  961MOL0     H26828  13.104   1.333   9.680  0.4604  2.0219  0.2104
  961MOL0     H26829  13.170   1.439   9.554 -1.2708  0.2153 -3.7830
  961MOL0     H26830  13.102   1.139   9.529  0.5324  0.9525  2.1631
  961MOL0     H26831  13.169   1.234   9.394 -0.0516  0.9058 -0.0236
  961MOL0     H26832  13.288   1.173   9.677  0.2940 -0.9410 -0.2077
  961MOL0     H26833  13.367   1.282   9.553  1.6868 -0.6969  0.0709
  961MOL0     H26834  12.359   1.760   9.474 -3.5521  2.5610 -0.8323
  961MOL0     H26835  12.123   1.752   9.442 -3.3685  0.6991  1.7651
  961MOL0     H26836  11.698   1.993   9.782  0.1960  0.7782  6.0467
  961MOL0     H26837  11.493   1.948   9.907  0.2426 -0.6305  1.7123
  961MOL0     H26838   9.668   1.546  10.451 -0.5897  0.8295  1.4307
  961MOL0     H26839   9.444   1.462  10.436 -1.4137  0.5793  1.0277
  961MOL0     H26840   8.951   1.389  10.499  0.2301  0.7824  1.2526
  961MOL0     H26841   8.776   1.248  10.490  0.5129 -0.2795 -1.8126
  961MOL0     H26842   8.815   0.867  10.706  0.3554  4.1439 -0.8196
  961MOL0     H26843   8.820   0.788  10.538 -0.1812 -0.5553 -0.4008
  961MOL0     H26844   8.580   0.871  10.697 -0.7062 -0.8014 -0.0206
  961MOL0     H26845   8.569   0.839  10.520 -0.8249  1.0026  0.7129
  961MOL0     H26846   8.656   0.611  10.708  1.3086  4.1643  0.7339
  961MOL0     H26847   8.608   0.602  10.543 -2.1168  1.4800 -1.9372
  961MOL0     H26848   8.396   0.738  10.636 -1.0123 -1.5739 -1.2038
  961MOL0     H26849   8.393   0.560  10.641  0.0880  0.0123  0.2784
  961MOL0     H26850   8.367   0.675  11.038 -3.8077  0.0725  0.1255
  961MOL0     H26851   9.028   0.907  10.559 -1.9388 -1.8485 -0.8187
  961MOL0     H26852   9.217   1.044  10.582  2.8840  1.7984  0.4691
  962MOL0     O26853   8.058   0.743   3.042 -1.2254  0.8588  0.0878
  962MOL0     C26854   8.120   0.718   3.145 -0.3327  0.2624 -0.5381
  962MOL0     O26855   8.063   0.688   3.257 -0.1362  0.6755  0.0314
  962MOL0     C26856   7.927   0.690   3.262 -0.3989  0.5586 -0.6032
  962MOL0     C26857   7.841   0.590   3.235  0.3864  0.7959  0.7875
  962MOL0     C26858   7.702   0.609   3.236 -0.7812 -0.3956 -0.2882
  962MOL0     C26859   7.654   0.732   3.269  0.7109  1.0923 -0.2183
  962MOL0     O26860   7.525   0.735   3.291  0.2941 -0.3382 -0.6380
  962MOL0     C26861   7.449   0.851   3.319  0.2849 -0.5425 -0.8053
  962MOL0     C26862   7.305   0.807   3.359 -0.2773  0.4187  1.1832
  962MOL0     C26863   7.198   0.922   3.385 -0.0369  0.3397  0.0507
  962MOL0     C26864   7.060   0.865   3.354 -0.2303 -0.1003 -0.7856
  962MOL0     C26865   6.952   0.968   3.389 -0.2101 -0.1797  0.3918
  962MOL0     C26866   6.950   1.072   3.282  0.3751 -0.2395  0.4371
  962MOL0     C26867   6.835   1.178   3.306  0.3035  0.0061  0.4018
  962MOL0     C26868   6.827   1.270   3.185 -0.5108  0.1337 -0.1556
  962MOL0     N26869   6.691   1.334   3.170 -0.4117  0.8077 -0.1252
  962MOL0     C26870   6.623   1.388   3.274  0.9337 -0.2010 -0.4953
  962MOL0     C26871   6.500   1.411   3.228  0.1026 -1.3720 -0.2174
  962MOL0     C26872   6.408   1.491   3.313 -0.8173 -0.6585  0.0398
  962MOL0     C26873   6.374   1.625   3.256 -0.6344 -0.2473  0.3042
  962MOL0     C26874   6.276   1.636   3.133 -0.7810  0.1881  0.1276
  962MOL0     C26875   6.223   1.777   3.123  0.0434 -0.0181 -0.2522
  962MOL0     O26876   6.120   1.782   3.020  0.4685 -0.4060 -0.0072
  962MOL0     C26877   5.990   1.733   3.050 -0.6797 -1.2272 -0.7224
  962MOL0     C26878   5.933   1.684   3.171 -0.6615  0.6638  0.2049
  962MOL0     C26879   5.803   1.637   3.176  0.6306 -0.8946  0.0195
  962MOL0     C26880   5.718   1.646   3.061 -0.6825  0.6686 -0.3818
  962MOL0     C26881   5.573   1.610   3.073  0.5734 -0.1961 -0.7372
  962MOL0     O26882   5.511   1.583   2.952  0.1773 -0.0709 -0.6666
  962MOL0     C26883   5.381   1.549   2.960 -1.7658 -0.6086  0.2263
  962MOL0     C26884   5.282   1.633   3.010 -0.7052 -0.1441  0.2545
  962MOL0     C26885   5.150   1.589   2.993  0.3031 -0.2455 -0.2363
  962MOL0     C26886   5.115   1.472   2.932  0.6610  0.6319  0.3502
  962MOL0     O26887   4.989   1.428   2.897  0.4757 -0.4195 -0.1877
  962MOL0     C26888   4.876   1.525   2.916  0.6874 -0.0774 -0.1615
  962MOL0     C26889   4.749   1.449   2.865 -0.2410 -0.4411  0.6305
  962MOL0     C26890   4.730   1.477   2.715  0.2823 -0.5356  0.4260
  962MOL0     C26891   4.589   1.434   2.683  0.3521  0.3063  0.5782
  962MOL0     C26892   4.549   1.502   2.553 -0.5408 -0.4119 -0.2000
  962MOL0     C26893   4.428   1.432   2.497  0.6178  0.6971 -0.1003
  962MOL0     C26894   4.381   1.472   2.361 -0.0142  0.6096 -0.3647
  962MOL0     C26895   4.237   1.435   2.328  1.3299 -0.8712  0.3568
  962MOL0    Cl26896   4.226   1.470   2.154  0.1753 -0.4755  0.0145
  962MOL0     C26897   5.220   1.377   2.906  1.1974  0.2127  0.2041
  962MOL0     C26898   5.357   1.421   2.920 -0.5786  0.0599 -0.0277
  962MOL0     O26899   5.525   1.583   3.188 -0.6315  0.1461  0.6373
  962MOL0     C26900   5.777   1.694   2.939 -0.2139 -0.4687 -0.4726
  962MOL0     C26901   5.906   1.741   2.940  0.9883  0.5587  0.0401
  962MOL0     N26902   6.486   1.351   3.097 -0.4043  0.2578  0.0555
  962MOL0     N26903   6.602   1.306   3.066  0.8830  0.5204 -0.0095
  962MOL0     C26904   7.736   0.835   3.310  0.3807  0.3787  0.2503
  962MOL0     C26905   7.882   0.807   3.307  0.8139 -1.7342  0.1976
  962MOL0     C26906   8.269   0.735   3.137 -0.0191  0.6079 -0.3483
  962MOL0     C26907   8.337   0.751   3.013  0.8603  0.7079  0.1634
  962MOL0     C26908   8.473   0.782   3.018  1.3765  0.3735  0.3725
  962MOL0     C26909   8.550   0.768   3.128  0.7637  0.9996  0.2013
  962MOL0     O26910   8.692   0.783   3.120  0.2593  0.1935 -0.1021
  962MOL0     C26911   8.785   0.734   3.220 -0.1178  0.4362  0.0624
  962MOL0     C26912   8.897   0.650   3.153  0.4052 -0.0441  1.1249
  962MOL0     C26913   9.013   0.604   3.243 -0.1943  0.0854 -0.1908
  962MOL0     C26914   8.968   0.489   3.335 -0.5019  0.1063 -0.2297
  962MOL0     C26915   9.075   0.475   3.439  1.1850 -0.0788 -0.0615
  962MOL0     C26916   9.156   0.461   3.528 -0.0113 -0.6370 -0.4001
  962MOL0     C26917   8.483   0.749   3.253 -0.2084 -0.0550  0.5397
  962MOL0     C26918   8.344   0.730   3.261 -0.9564 -0.7792  1.1521
  962MOL0     H26919   7.865   0.489   3.201  2.0559  2.6785 -4.7023
  962MOL0     H26920   7.638   0.526   3.210 -0.2167 -1.0430  0.3277
  962MOL0     H26921   7.437   0.903   3.224 -1.6005  2.2465  0.8024
  962MOL0     H26922   7.477   0.927   3.394  3.0116 -0.2899 -1.9641
  962MOL0     H26923   7.318   0.750   3.452 -0.3595  2.6928  2.6552
  962MOL0     H26924   7.270   0.735   3.284  3.3151 -0.7425  0.4291
  962MOL0     H26925   7.220   1.009   3.321 -1.4870  2.4158  2.2080
  962MOL0     H26926   7.203   0.954   3.489 -2.8243  0.5048  0.1946
  962MOL0     H26927   7.065   0.833   3.250 -0.3668 -1.5737 -0.3694
  962MOL0     H26928   7.041   0.777   3.417  0.6344  0.9799  1.0980
  962MOL0     H26929   6.956   1.009   3.490 -0.7729 -2.1150  1.2457
  962MOL0     H26930   6.857   0.913   3.387  0.5099 -1.4635  0.4286
  962MOL0     H26931   6.935   1.017   3.189  1.4398  1.1398 -0.6008
  962MOL0     H26932   7.046   1.122   3.269 -1.2549  3.2188  0.3971
  962MOL0     H26933   6.737   1.133   3.324  0.1472  0.0327 -0.3402
  962MOL0     H26934   6.871   1.232   3.394 -1.0199 -1.6121  2.0126
  962MOL0     H26935   6.847   1.215   3.092  2.8915 -1.2928  1.2742
  962MOL0     H26936   6.907   1.344   3.185 -1.3329  1.1389 -2.3984
  962MOL0     H26937   6.661   1.435   3.365 -0.0344 -1.2173  0.4677
  962MOL0     H26938   6.451   1.507   3.413 -2.2444  0.6641  0.4872
  962MOL0     H26939   6.314   1.439   3.336 -1.6179  1.4552  1.9478
  962MOL0     H26940   6.466   1.681   3.240 -0.7347 -0.4815 -1.1829
  962MOL0     H26941   6.318   1.683   3.330  1.3421 -0.6349  2.2006
  962MOL0     H26942   6.328   1.607   3.041 -3.9849  0.4488 -1.8913
  962MOL0     H26943   6.205   1.553   3.143  1.5259 -1.9253  0.0783
  962MOL0     H26944   6.305   1.845   3.101  2.6655 -2.8982 -0.0276
  962MOL0     H26945   6.181   1.807   3.220  1.3503 -2.0248  1.0088
  962MOL0     H26946   5.996   1.677   3.259 -2.3325  2.4768  1.5994
  962MOL0     H26947   5.759   1.596   3.267 -2.1445  3.2013  0.7947
  962MOL0     H26948   5.317   1.729   3.045 -4.7029  1.8381 -0.5327
  962MOL0     H26949   5.067   1.653   3.021 -1.3156 -1.1638 -2.5807
  962MOL0     H26950   4.902   1.612   2.855  2.8188 -2.0350 -2.2738
  962MOL0     H26951   4.871   1.548   3.023 -0.3378  0.5259 -0.3261
  962MOL0     H26952   4.664   1.483   2.925 -0.5470 -1.3772  0.7468
  962MOL0     H26953   4.759   1.343   2.891  2.9558  0.1742  2.3708
  962MOL0     H26954   4.806   1.417   2.662 -0.1331  0.7803 -1.7773
  962MOL0     H26955   4.738   1.584   2.694 -2.3598 -0.6859 -1.9915
  962MOL0     H26956   4.569   1.327   2.672 -0.7369  0.6920 -1.8787
  962MOL0     H26957   4.516   1.462   2.759  0.7519  0.3797  0.9363
  962MOL0     H26958   4.635   1.496   2.485  1.7452 -1.9143  2.5762
  962MOL0     H26959   4.517   1.605   2.570  3.3136  1.1616 -1.2902
  962MOL0     H26960   4.343   1.445   2.565  0.1320  0.7987 -0.7167
  962MOL0     H26961   4.457   1.327   2.505  1.9110  1.1281  1.2691
  962MOL0     H26962   4.396   1.580   2.353  1.4269  0.4893  0.4136
  962MOL0     H26963   4.455   1.416   2.303  0.1021 -1.4226  1.6229
  962MOL0     H26964   4.159   1.491   2.380 -1.7190 -2.4519 -2.1730
  962MOL0     H26965   4.206   1.334   2.354 -1.6058 -0.2083 -0.1503
  962MOL0     H26966   5.188   1.280   2.869  0.3762  0.1815  0.9529
  962MOL0     H26967   5.439   1.354   2.897  0.8952  1.0856  1.9277
  962MOL0     H26968   5.713   1.695   2.852  0.2316 -2.3825 -0.8633
  962MOL0     H26969   5.943   1.759   2.839  1.1391  0.2357  0.0342
  962MOL0     H26970   7.707   0.936   3.335 -0.1742  1.0507 -2.7178
  962MOL0     H26971   7.952   0.874   3.356 -0.0684 -1.7707  1.5642
  962MOL0     H26972   8.281   0.740   2.920 -1.0848 -2.2774  1.5209
  962MOL0     H26973   8.516   0.781   2.919  2.1221 -0.5671  0.6871
  962MOL0     H26974   8.735   0.675   3.298  4.3230 -4.9867 -0.5422
  962MOL0     H26975   8.835   0.823   3.260 -0.3655  1.9427 -2.7240
  962MOL0     H26976   8.850   0.561   3.112 -2.8630  1.7765  0.5418
  962MOL0     H26977   8.950   0.706   3.075  0.5224 -0.2620  1.0476
  962MOL0     H26978   9.057   0.684   3.304 -0.1694  0.3387 -0.5410
  962MOL0     H26979   9.098   0.574   3.181 -0.5426  3.4544 -2.5222
  962MOL0     H26980   8.873   0.506   3.387 -0.6208 -0.0069 -0.4123
  962MOL0     H26981   8.974   0.398   3.276 -0.2708  2.2109 -3.7582
  962MOL0     H26982   9.223   0.453   3.612 -0.1182  0.2518 -0.2253
  962MOL0     H26983   8.543   0.734   3.343 -1.0531  1.1933  1.3416
  962MOL0     H26984   8.308   0.725   3.363 -2.1238  5.4476  1.4297
  963MOL0     O26985   2.442   3.514   3.265 -0.4390  0.4713 -0.3626
  963MOL0     C26986   2.483   3.480   3.156 -0.4538  0.7238  0.2148
  963MOL0     O26987   2.610   3.457   3.120 -0.0592 -0.1668 -0.5768
  963MOL0     C26988   2.712   3.461   3.209 -0.0944 -1.3080 -0.4452
  963MOL0     C26989   2.800   3.356   3.190  0.5596  0.4329  0.0544
  963MOL0     C26990   2.910   3.334   3.268 -0.2246  0.1573  0.2627
  963MOL0     C26991   2.947   3.433   3.357 -0.6699  0.4375 -0.8194
  963MOL0     O26992   3.070   3.420   3.419  0.3949  0.3033  0.6993
  963MOL0     C26993   3.051   3.357   3.550 -0.1909 -0.0402 -1.2284
  963MOL0     C26994   3.183   3.368   3.628 -0.4802  1.5413 -0.1883
  963MOL0     C26995   3.307   3.308   3.556  0.1143 -0.4358 -0.0216
  963MOL0     C26996   3.422   3.313   3.656 -0.9566 -0.4694  0.1209
  963MOL0     C26997   3.568   3.300   3.608 -0.8899  0.4401 -0.0074
  963MOL0     C26998   3.609   3.378   3.479  0.0373  0.1211  0.1441
  963MOL0     C26999   3.761   3.346   3.449  0.6967 -0.3481 -0.4545
  963MOL0     C27000   3.799   3.379   3.306  0.1017 -0.5101  0.1016
  963MOL0     N27001   3.874   3.263   3.245 -0.0590 -0.9754 -0.5072
  963MOL0     C27002   3.822   3.153   3.174 -0.5314 -0.2865 -0.1663
  963MOL0     C27003   3.932   3.083   3.135  1.2549 -0.2926  0.0227
  963MOL0     C27004   3.930   2.959   3.058  0.5512  0.7006 -0.7892
  963MOL0     C27005   4.051   2.963   2.967 -0.4797  0.8686  0.3279
  963MOL0     C27006   4.056   2.856   2.862 -0.1590  0.6522  0.0088
  963MOL0     C27007   4.152   2.891   2.748 -0.9488 -0.4715 -0.6570
  963MOL0     O27008   4.283   2.853   2.794 -0.2056 -0.9284  0.1794
  963MOL0     C27009   4.392   2.850   2.709  0.4001  0.4360 -0.3701
  963MOL0     C27010   4.388   2.902   2.577  0.5634  0.4237 -0.3414
  963MOL0     C27011   4.510   2.911   2.502 -0.2144  0.4154 -0.1593
  963MOL0     C27012   4.629   2.882   2.563 -0.8789  0.8920 -0.9282
  963MOL0     C27013   4.768   2.889   2.495 -0.7371 -0.6207 -0.1402
  963MOL0     O27014   4.872   2.837   2.563 -0.4326 -0.0654  0.4893
  963MOL0     C27015   5.003   2.853   2.538 -0.5712  0.2749  0.0244
  963MOL0     C27016   5.065   2.949   2.461  0.4317  0.6815 -0.4990
  963MOL0     C27017   5.206   2.957   2.459 -0.8373 -0.4043 -0.8039
  963MOL0     C27018   5.291   2.854   2.512  0.4731  0.1698 -0.8670
  963MOL0     O27019   5.422   2.849   2.482  0.0295  0.5919 -0.1247
  963MOL0     C27020   5.504   2.962   2.537  0.7871  0.4258  0.6606
  963MOL0     C27021   5.661   2.954   2.538  0.2462  0.6357 -0.1984
  963MOL0     C27022   5.742   2.945   2.401  1.0368  0.4480 -0.6204
  963MOL0     C27023   5.899   2.964   2.425 -0.2249 -0.0218 -0.3075
  963MOL0     C27024   5.943   2.995   2.290 -0.3663  0.4931  0.4382
  963MOL0     C27025   5.956   2.865   2.199  0.1717  0.4589  0.6694
  963MOL0     C27026   6.018   2.864   2.066  0.0748 -0.2517  0.8264
  963MOL0     C27027   6.163   2.922   2.069 -0.7564  1.0087 -0.4987
  963MOL0    Cl27028   6.243   2.927   1.906  0.2379 -0.1812 -0.1555
  963MOL0     C27029   5.226   2.751   2.575  0.7655  0.6732 -0.7618
  963MOL0     C27030   5.085   2.754   2.595 -0.5628  0.1810 -0.0614
  963MOL0     O27031   4.775   2.952   2.386 -0.1413  0.4778 -0.3055
  963MOL0     C27032   4.625   2.834   2.701  0.2415 -0.3269  1.1513
  963MOL0     C27033   4.507   2.800   2.767  1.2009  0.3696 -1.0062
  963MOL0     N27034   4.039   3.130   3.204  0.4773  0.3243  0.0813
  963MOL0     N27035   4.005   3.242   3.264 -0.1697 -0.0170  0.5112
  963MOL0     C27036   2.859   3.542   3.377  1.0495 -0.1869 -0.6650
  963MOL0     C27037   2.742   3.556   3.307 -0.5655 -0.4401  0.0120
  963MOL0     C27038   2.386   3.438   3.054 -1.2072  0.5236 -0.7926
  963MOL0     C27039   2.408   3.336   2.959 -0.6389 -0.7102  0.0145
  963MOL0     C27040   2.307   3.315   2.868  1.2820  0.2012  0.0543
  963MOL0     C27041   2.179   3.376   2.871  0.1882  0.3598 -0.2303
  963MOL0     O27042   2.100   3.348   2.768  0.3294 -0.8980 -0.0483
  963MOL0     C27043   2.031   3.458   2.698  0.3580 -0.6083 -0.6165
  963MOL0     C27044   1.916   3.408   2.627 -0.4044 -1.3234  0.2705
  963MOL0     C27045   1.803   3.369   2.716  0.5429  0.2171  0.1424
  963MOL0     C27046   1.685   3.316   2.637  0.3314  0.2287  0.5548
  963MOL0     C27047   1.668   3.395   2.509 -0.8805  0.2164  0.0396
  963MOL0     C27048   1.664   3.449   2.402  0.1814 -0.6379 -0.2583
  963MOL0     C27049   2.154   3.468   2.974  1.1832 -0.2047  0.7556
  963MOL0     C27050   2.261   3.499   3.057 -0.1783  0.1097  0.5292
  963MOL0     H27051   2.766   3.277   3.124 -2.7935 -1.1560  3.3061
  963MOL0     H27052   2.981   3.255   3.249  2.8770  2.7802  0.1681
  963MOL0     H27053   3.036   3.249   3.538 -2.1386  0.2481 -1.7552
  963MOL0     H27054   2.964   3.396   3.604  0.3344 -0.3596 -0.1169
  963MOL0     H27055   3.168   3.303   3.715  0.0867  0.1188 -1.1143
  963MOL0     H27056   3.191   3.469   3.668 -2.7420  1.9598 -0.6250
  963MOL0     H27057   3.326   3.361   3.463 -1.0809  0.2808  0.1137
  963MOL0     H27058   3.284   3.204   3.528 -2.4578  0.0106  0.2111
  963MOL0     H27059   3.425   3.411   3.706  1.1812 -0.5301  0.2005
  963MOL0     H27060   3.414   3.240   3.737  5.5509 -1.8623  0.0691
  963MOL0     H27061   3.595   3.196   3.594  2.4127  0.8040  2.5389
  963MOL0     H27062   3.633   3.328   3.691  0.6619 -4.1354  0.6011
  963MOL0     H27063   3.586   3.484   3.492 -0.6724  0.1200 -0.9803
  963MOL0     H27064   3.546   3.331   3.403 -0.7086 -0.8615  1.3312
  963MOL0     H27065   3.820   3.404   3.521  0.7565  0.0621 -0.8292
  963MOL0     H27066   3.793   3.243   3.467  0.6769 -0.1911  0.5642
  963MOL0     H27067   3.853   3.474   3.307  0.2859 -0.6019 -0.6893
  963MOL0     H27068   3.709   3.396   3.247  0.7860  1.9862 -0.3462
  963MOL0     H27069   3.722   3.133   3.136 -0.1965 -3.3672  0.3110
  963MOL0     H27070   3.832   2.960   3.011 -0.4545  3.0684  1.1701
  963MOL0     H27071   3.944   2.875   3.128  1.7993  2.0479  0.6422
  963MOL0     H27072   4.148   2.963   3.017  0.9045 -1.8128 -2.0465
  963MOL0     H27073   4.050   3.060   2.917 -1.1141  0.3956 -0.6136
  963MOL0     H27074   4.073   2.755   2.899  1.5358  0.7711 -0.3917
  963MOL0     H27075   3.957   2.852   2.815  0.3754  0.6255 -1.1520
  963MOL0     H27076   4.147   2.993   2.710 -4.2335 -1.0702 -2.2260
  963MOL0     H27077   4.120   2.816   2.675  0.0336 -2.5333  0.9147
  963MOL0     H27078   4.295   2.941   2.537  1.1282  3.4627  1.0318
  963MOL0     H27079   4.516   2.959   2.404  3.8318  2.3407  0.8369
  963MOL0     H27080   5.005   3.019   2.404 -3.3741 -0.0105  2.3176
  963MOL0     H27081   5.250   3.036   2.400  1.0993  1.6352  2.9549
  963MOL0     H27082   5.462   2.982   2.636  0.5680 -0.7991  0.8291
  963MOL0     H27083   5.479   3.051   2.478  0.5507  0.4189  0.7495
  963MOL0     H27084   5.700   2.866   2.590  1.3378  1.2267  0.0062
  963MOL0     H27085   5.694   3.032   2.607  2.0955 -0.3493  0.0936
  963MOL0     H27086   5.704   3.021   2.332  1.1487 -0.1373 -1.3291
  963MOL0     H27087   5.723   2.843   2.366 -0.3437  0.0730  1.0787
  963MOL0     H27088   5.922   3.050   2.488  0.0145 -0.3022 -0.0083
  963MOL0     H27089   5.944   2.882   2.481  3.1697  1.7804 -0.1758
  963MOL0     H27090   6.042   3.041   2.299 -1.2368  2.4368  0.7199
  963MOL0     H27091   5.884   3.078   2.249 -2.0964 -0.4485  0.9364
  963MOL0     H27092   5.861   2.810   2.195  1.1947 -1.2822 -1.3641
  963MOL0     H27093   6.031   2.805   2.251 -0.2881  0.8392  1.8091
  963MOL0     H27094   6.006   2.768   2.015  0.2085  1.0223 -1.7498
  963MOL0     H27095   5.957   2.934   2.009  4.0126  2.4582 -0.5263
  963MOL0     H27096   6.224   2.862   2.137 -2.4547 -1.6616 -1.1779
  963MOL0     H27097   6.151   3.024   2.107  1.1283  0.5827  1.3966
  963MOL0     H27098   5.278   2.672   2.627 -1.6178  0.6606  1.8604
  963MOL0     H27099   5.023   2.683   2.649 -2.0737  2.7012  1.7668
  963MOL0     H27100   4.721   2.812   2.747  0.2258 -1.3857  0.7244
  963MOL0     H27101   4.494   2.760   2.867 -1.9793  1.4526 -0.8841
  963MOL0     H27102   2.893   3.613   3.451 -0.1396 -0.2590 -0.0152
  963MOL0     H27103   2.671   3.635   3.327 -1.1379 -0.7222 -0.8371
  963MOL0     H27104   2.503   3.283   2.955  0.7023  1.5945 -0.1477
  963MOL0     H27105   2.335   3.259   2.779  1.1267  0.5289 -0.2023
  963MOL0     H27106   2.093   3.503   2.619  0.6511  1.5849  0.7910
  963MOL0     H27107   1.992   3.531   2.768  0.1743 -0.5131 -0.8184
  963MOL0     H27108   1.889   3.488   2.558  3.2164 -0.1296  0.0509
  963MOL0     H27109   1.949   3.323   2.567 -1.2448 -1.7752  0.4279
  963MOL0     H27110   1.762   3.459   2.762 -1.2353 -0.8454  0.7530
  963MOL0     H27111   1.820   3.301   2.800  3.5706  0.6752  0.0017
  963MOL0     H27112   1.695   3.209   2.617  5.1635  1.0083 -2.9981
  963MOL0     H27113   1.594   3.329   2.697 -1.6666 -0.6917 -2.1038
  963MOL0     H27114   1.671   3.497   2.306 -1.0185  0.8408  0.3497
  963MOL0     H27115   2.053   3.499   2.996  0.1725 -1.6854 -1.4215
  963MOL0     H27116   2.247   3.567   3.141  0.4315  0.6847  0.1787
  964MOL0     O27117   3.648  10.438  10.535  0.2570  0.3763 -0.0895
  964MOL0     C27118   3.724  10.348  10.509  0.1911  0.0253 -0.1175
  964MOL0     O27119   3.685  10.225  10.457 -0.3800 -0.3669 -0.3742
  964MOL0     C27120   3.565  10.222  10.392  0.1316  0.3741  0.5229
  964MOL0     C27121   3.441  10.220  10.457  0.0580  0.4273  0.2221
  964MOL0     C27122   3.327  10.233  10.375  0.2653 -0.2409 -0.8634
  964MOL0     C27123   3.328  10.271  10.238 -0.3707  0.7773 -0.6485
  964MOL0     O27124   3.223  10.305  10.170  0.5122  0.5280  0.3907
  964MOL0     C27125   3.106  10.349  10.233 -0.2277 -0.0992  0.1136
  964MOL0     C27126   3.019  10.411  10.122  0.0383  0.3817  0.0152
  964MOL0     C27127   2.875  10.442  10.168  0.0419 -0.3716 -1.0343
  964MOL0     C27128   2.787  10.522  10.070  0.0784  0.0713  1.2495
  964MOL0     C27129   2.646  10.549  10.139 -0.1967  0.2093  0.1794
  964MOL0     C27130   2.553  10.629  10.056 -0.6933  1.0833  0.1102
  964MOL0     C27131   2.493  10.546   9.934 -0.7034  0.0000 -0.0924
  964MOL0     C27132   2.380  10.619   9.862  1.0954 -0.0392 -0.0060
  964MOL0     N27133   2.254  10.628   9.940  0.7198  1.0056  0.5610
  964MOL0     C27134   2.135  10.605   9.876  0.7274  0.3051  0.1041
  964MOL0     C27135   2.041  10.638   9.967 -0.4600  0.6532 -0.4533
  964MOL0     C27136   1.890  10.641   9.942 -0.2484 -0.8499  0.6561
  964MOL0     C27137   1.841  10.629   9.793 -1.1034 -0.4045 -0.4734
  964MOL0     C27138   1.695  10.665   9.776  1.4528 -0.2711 -0.0187
  964MOL0     C27139   1.594  10.582   9.844 -0.0611  0.2920 -0.6095
  964MOL0     O27140   1.470  10.632   9.799 -0.2320  0.6581  0.1447
  964MOL0     C27141   1.346  10.581   9.841  0.3058 -0.2595  0.3322
  964MOL0     C27142   1.235  10.654   9.810  0.2464  0.4591 -0.2787
  964MOL0     C27143   1.112  10.610   9.861  1.0452  0.2087  0.1565
  964MOL0     C27144   1.089  10.492   9.934 -0.3483  0.5639 -0.4605
  964MOL0     C27145   0.953  10.457   9.982 -0.1859  0.7376  0.4122
  964MOL0     O27146   0.858  10.554   9.963 -0.1686  0.4670 -0.7180
  964MOL0     C27147   0.736  10.548  10.019  0.7255 -0.1034  1.2106
  964MOL0     C27148   0.719  10.646  10.110  0.6003 -0.1270 -0.3102
  964MOL0     C27149   0.589  10.674  10.149  0.6524  0.2975 -0.1879
  964MOL0     C27150   0.479  10.606  10.094  0.1638  0.2157  0.0501
  964MOL0     O27151   0.345  10.624  10.115 -0.0556 -0.2122  0.3260
  964MOL0     C27152   0.309  10.681  10.238 -0.4007 -0.0930  0.7028
  964MOL0     C27153   0.184  10.611  10.281  0.7194  0.3805 -1.2426
  964MOL0     C27154   0.061  10.625  10.182  0.9914 -0.6829  0.6937
  964MOL0     C27155  -0.052  10.537  10.240  0.2949  0.0197  0.8333
  964MOL0     C27156  -0.177  10.548  10.146 -0.6248  0.6122  0.4307
  964MOL0     C27157  -0.288  10.457  10.202  0.5234  0.8413  0.2721
  964MOL0     C27158  -0.403  10.444  10.104 -0.0893 -0.1763  0.2040
  964MOL0     C27159  -0.522  10.367  10.145 -0.4530  0.7748 -0.5465
  964MOL0    Cl27160  -0.663  10.401  10.036  0.3172 -0.5039  0.7753
  964MOL0     C27161   0.511  10.503  10.009 -0.0710 -0.1642  0.4834
  964MOL0     C27162   0.635  10.465   9.967  0.6725 -0.7437 -0.1921
  964MOL0     O27163   0.935  10.343  10.026  0.0236  0.3362  0.2400
  964MOL0     C27164   1.206  10.419   9.962 -0.8252 -0.3596 -0.3634
  964MOL0     C27165   1.329  10.453   9.910 -0.7167 -0.6534  0.3189
  964MOL0     N27166   2.106  10.673  10.084  0.3211  0.9023 -0.5120
  964MOL0     N27167   2.230  10.659  10.067  0.7369  0.0216 -0.7888
  964MOL0     C27168   3.456  10.285  10.179  0.4255 -0.5046 -0.2138
  964MOL0     C27169   3.574  10.251  10.253  0.7985 -0.8906  0.5484
  964MOL0     C27170   3.865  10.345  10.552 -0.5974  0.2098  0.9452
  964MOL0     C27171   3.961  10.246  10.510 -0.2912  0.3732 -0.3105
  964MOL0     C27172   4.097  10.256  10.538  0.0538  0.5455  1.3394
  964MOL0     C27173   4.148  10.375  10.603 -0.9321  0.2880 -1.0025
  964MOL0     O27174   4.279  10.401  10.638 -0.2263 -0.1209  0.3176
  964MOL0     C27175   4.383  10.330  10.563  0.5594 -0.4813 -1.0827
  964MOL0     C27176   4.523  10.382  10.604 -0.2718  0.1748  0.0927
  964MOL0     C27177   4.571  10.342  10.751 -0.4204  0.5271  0.0716
  964MOL0     C27178   4.607  10.191  10.753  1.0786  0.3945  1.0958
  964MOL0     C27179   4.577  10.131  10.884  0.6391 -0.7408  0.0979
  964MOL0     C27180   4.528  10.088  10.985 -0.2718  0.4707 -0.0395
  964MOL0     C27181   4.053  10.470  10.638 -0.4174 -0.0672  0.4414
  964MOL0     C27182   3.921  10.448  10.620  0.8129 -0.1535 -0.1746
  964MOL0     H27183   3.422  10.200  10.562 -0.0973  1.8476  0.4837
  964MOL0     H27184   3.233  10.197  10.417  0.1858  0.4164 -0.4682
  964MOL0     H27185   3.126  10.428  10.306 -0.2661  0.4047 -0.4245
  964MOL0     H27186   3.056  10.266  10.285  1.5393 -1.5081 -0.3138
  964MOL0     H27187   3.014  10.343  10.037  1.3605  0.8415 -0.4441
  964MOL0     H27188   3.062  10.502  10.081  0.2963  0.6639  0.8859
  964MOL0     H27189   2.882  10.505  10.257 -1.4738 -0.6252 -0.7072
  964MOL0     H27190   2.816  10.350  10.175 -1.7055  0.6081 -2.1759
  964MOL0     H27191   2.827  10.619  10.040 -2.3049 -0.1505 -3.6942
  964MOL0     H27192   2.787  10.464   9.977  1.9258 -0.2861  1.4249
  964MOL0     H27193   2.665  10.599  10.234  1.4636  2.1977 -1.1143
  964MOL0     H27194   2.583  10.461  10.160 -2.5094  1.8179  0.3391
  964MOL0     H27195   2.619  10.701  10.007  0.7275 -1.6116 -2.2184
  964MOL0     H27196   2.479  10.671  10.125  0.3882  2.9220  0.2499
  964MOL0     H27197   2.568  10.516   9.860  0.3260  1.1848  0.4449
  964MOL0     H27198   2.447  10.453   9.968  2.3850 -0.2635  4.1512
  964MOL0     H27199   2.357  10.562   9.772  0.5653  1.9653 -1.1926
  964MOL0     H27200   2.424  10.712   9.824  0.9606 -0.3625 -0.9690
  964MOL0     H27201   2.126  10.572   9.773 -0.3372 -0.5901  0.4588
  964MOL0     H27202   1.848  10.735   9.980 -1.3312 -0.0380 -2.3145
  964MOL0     H27203   1.835  10.567  10.001 -3.3445 -0.4628 -1.5097
  964MOL0     H27204   1.863  10.526   9.762 -0.6703 -0.7300  0.8256
  964MOL0     H27205   1.900  10.693   9.727 -0.8748 -1.2845 -1.1466
  964MOL0     H27206   1.680  10.772   9.795 -0.4333 -0.2041 -1.5560
  964MOL0     H27207   1.676  10.648   9.670  3.6391 -3.6015 -0.0031
  964MOL0     H27208   1.603  10.594   9.953  0.5831 -0.6819 -0.5418
  964MOL0     H27209   1.611  10.474   9.831 -1.8395  0.0461 -1.2109
  964MOL0     H27210   1.251  10.740   9.747 -1.6616  0.1123 -1.2964
  964MOL0     H27211   1.030  10.676   9.830  2.1576  1.2187 -0.7605
  964MOL0     H27212   0.793  10.716  10.147 -0.2763  0.7504 -0.1470
  964MOL0     H27213   0.583  10.758  10.217  1.4986  0.7418 -0.6421
  964MOL0     H27214   0.291  10.788  10.220 -2.6925 -0.8036 -2.1741
  964MOL0     H27215   0.383  10.667  10.316  1.6054 -1.3691 -1.3204
  964MOL0     H27216   0.161  10.647  10.381  1.8116 -1.6931 -0.1659
  964MOL0     H27217   0.206  10.505  10.297 -2.0236  0.0794  1.3395
  964MOL0     H27218   0.087  10.573  10.089 -0.7975 -3.9038  1.8127
  964MOL0     H27219   0.029  10.725  10.154 -2.6034 -2.2608 -1.6288
  964MOL0     H27220  -0.024  10.433  10.258  1.7985  0.8051  3.5821
  964MOL0     H27221  -0.075  10.585  10.336  0.6708 -0.5184  1.1959
  964MOL0     H27222  -0.160  10.518  10.042  3.2485  3.4073  0.0577
  964MOL0     H27223  -0.230  10.644  10.140 -1.5104  0.0328 -2.4740
  964MOL0     H27224  -0.317  10.503  10.297  4.3888  0.3616  1.8938
  964MOL0     H27225  -0.247  10.359  10.232 -0.6755  0.8534  2.1296
  964MOL0     H27226  -0.444  10.546  10.101 -0.3038 -0.1266  2.7302
  964MOL0     H27227  -0.379  10.406  10.005  0.5929  0.1995  0.2165
  964MOL0     H27228  -0.544  10.387  10.250  0.6491 -0.1377 -0.1347
  964MOL0     H27229  -0.504  10.260  10.142  1.0601  0.9105  1.5514
  964MOL0     H27230   0.425  10.447   9.971  1.6765 -1.2616 -2.1589
  964MOL0     H27231   0.649  10.384   9.896 -1.6780 -0.6401 -0.8656
  964MOL0     H27232   1.198  10.332  10.027 -0.0573  1.8357  2.9276
  964MOL0     H27233   1.416  10.391   9.926  1.5590  1.9033 -1.2065
  964MOL0     H27234   3.466  10.312  10.075  0.0054 -0.4809 -0.2486
  964MOL0     H27235   3.674  10.262  10.212  0.1931  0.6021 -0.6575
  964MOL0     H27236   3.928  10.148  10.478 -4.2815  0.0975  3.6613
  964MOL0     H27237   4.151  10.171  10.498 -1.0043  1.0724 -1.4472
  964MOL0     H27238   4.358  10.352  10.458  0.8211 -2.2936 -1.5659
  964MOL0     H27239   4.382  10.223  10.588 -1.3377 -0.0874  0.8539
  964MOL0     H27240   4.593  10.346  10.528 -0.1313 -0.8887  0.7195
  964MOL0     H27241   4.513  10.491  10.597 -1.0672  0.1002  0.0370
  964MOL0     H27242   4.483  10.359  10.813 -2.1501  1.8477 -2.5829
  964MOL0     H27243   4.651  10.402  10.795 -0.2305 -1.1554  2.1854
  964MOL0     H27244   4.542  10.145  10.677  1.4042  3.3674 -1.1678
  964MOL0     H27245   4.712  10.199  10.724  0.6826  1.3164 -0.1558
  964MOL0     H27246   4.461  10.060  11.064 -0.1112 -1.9888 -0.7031
  964MOL0     H27247   4.083  10.555  10.699  1.3140  0.0421 -0.4800
  964MOL0     H27248   3.857  10.529  10.654 -0.9730 -1.4901 -0.2180
  965MOL0     O27249   1.454   0.937   9.771  0.9408 -0.6629 -0.7070
  965MOL0     C27250   1.500   1.042   9.804 -0.4804 -1.6489 -1.1162
  965MOL0     O27251   1.425   1.161   9.826 -0.2401  0.0477 -0.1357
  965MOL0     C27252   1.302   1.160   9.779  0.0966 -0.4970 -0.6664
  965MOL0     C27253   1.199   1.100   9.844 -0.2908  0.9449  0.4140
  965MOL0     C27254   1.067   1.120   9.809  1.5204 -0.3155  0.6628
  965MOL0     C27255   1.031   1.216   9.719  1.0246 -0.0394  0.0207
  965MOL0     O27256   0.899   1.228   9.685  0.0217  0.2143  0.1682
  965MOL0     C27257   0.835   1.352   9.634 -0.4089 -0.4570  0.3511
  965MOL0     C27258   0.688   1.322   9.621  0.2943  0.0854 -0.7321
  965MOL0     C27259   0.620   1.331   9.758 -0.3649 -0.7766  0.2474
  965MOL0     C27260   0.484   1.256   9.751  0.2184 -0.6742 -0.6086
  965MOL0     C27261   0.390   1.278   9.865  1.1796  0.0687 -0.2668
  965MOL0     C27262   0.244   1.252   9.816 -0.0548  0.2827 -0.4481
  965MOL0     C27263   0.155   1.250   9.934 -1.2872  0.6088 -0.5266
  965MOL0     C27264   0.004   1.238   9.902 -0.2587 -1.0590 -0.6534
  965MOL0     N27265  -0.068   1.228  10.033  0.1793  0.4338  0.0697
  965MOL0     C27266  -0.156   1.326  10.076  0.1802  0.1527 -0.4085
  965MOL0     C27267  -0.196   1.275  10.193  0.4223  0.0342 -0.2597
  965MOL0     C27268  -0.294   1.340  10.284  0.7435  0.1136  1.0169
  965MOL0     C27269  -0.438   1.321  10.232 -0.0936 -0.6503 -0.2485
  965MOL0     C27270  -0.478   1.174  10.259 -0.3305  1.1971  0.0893
  965MOL0     C27271  -0.615   1.138  10.212 -0.4400  0.8425 -0.8189
  965MOL0     O27272  -0.710   1.190  10.293  0.1718  0.2446 -0.5062
  965MOL0     C27273  -0.843   1.147  10.277  0.5408  0.0363  0.8914
  965MOL0     C27274  -0.935   1.188  10.375 -0.4570  0.3537 -0.0840
  965MOL0     C27275  -1.073   1.152  10.370  0.4873  0.0413 -0.5039
  965MOL0     C27276  -1.120   1.086  10.244 -0.3432 -0.2295  0.3237
  965MOL0     C27277  -1.266   1.059  10.228  0.0634  0.0737 -0.7428
  965MOL0     O27278  -1.355   1.150  10.273  0.4506  0.3221 -0.6932
  965MOL0     C27279  -1.467   1.162  10.192 -0.1762 -0.3231  0.0095
  965MOL0     C27280  -1.577   1.200  10.266 -0.3580 -0.5900  0.5927
  965MOL0     C27281  -1.698   1.232  10.200  0.2467 -0.6002 -0.1249
  965MOL0     C27282  -1.710   1.214  10.061 -0.6867  0.6810  0.3308
  965MOL0     O27283  -1.812   1.231   9.978  0.5015 -1.0170 -1.0608
  965MOL0     C27284  -1.939   1.176  10.033 -0.2389  0.3876 -0.6733
  965MOL0     C27285  -2.033   1.282  10.097  0.3181  0.2770  0.3597
  965MOL0     C27286  -2.137   1.205  10.177  0.5784 -0.0199  0.1885
  965MOL0     C27287  -2.228   1.128  10.083  1.0856  0.2605  0.2563
  965MOL0     C27288  -2.355   1.074  10.158  0.0033 -0.6209  0.8797
  965MOL0     C27289  -2.468   1.007  10.079  0.4685 -0.3531 -0.9942
  965MOL0     C27290  -2.598   0.996  10.162 -0.1336 -0.2698 -0.3247
  965MOL0     C27291  -2.688   0.881  10.118 -0.2690  0.3566 -0.6615
  965MOL0    Cl27292  -2.752   0.932   9.967  0.1719  0.1092  0.1259
  965MOL0     C27293  -1.594   1.173   9.992  0.7784  0.3352 -0.3605
  965MOL0     C27294  -1.467   1.147  10.050  0.1599 -0.1484  0.3877
  965MOL0     O27295  -1.300   0.956  10.173  0.2492 -0.5384 -0.4564
  965MOL0     C27296  -1.029   1.043  10.148 -0.3888 -1.2518  0.1224
  965MOL0     C27297  -0.894   1.070  10.165  0.1299 -0.2683  0.9707
  965MOL0     N27298  -0.139   1.149  10.223  0.2011 -0.5682  0.1380
  965MOL0     N27299  -0.078   1.123  10.115 -0.4191 -0.5958  0.2988
  965MOL0     C27300   1.131   1.289   9.654 -0.1137  0.6435 -0.1140
  965MOL0     C27301   1.263   1.264   9.686  0.2110 -0.2721  0.3700
  965MOL0     C27302   1.641   1.044   9.844 -0.4618  0.0939  0.1533
  965MOL0     C27303   1.695   1.146   9.915  0.2664 -0.6865 -0.2382
  965MOL0     C27304   1.826   1.129   9.966  0.0057 -0.3502  0.6874
  965MOL0     C27305   1.905   1.014   9.946  0.1724 -0.1964 -0.4652
  965MOL0     O27306   2.030   1.005   9.999 -0.4712  0.1379 -0.0774
  965MOL0     C27307   2.039   0.913  10.112  0.3855 -0.4044  0.2613
  965MOL0     C27308   2.146   0.977  10.201 -0.1496  0.7771  0.1373
  965MOL0     C27309   2.229   0.880  10.279 -0.5053  0.1792  0.4213
  965MOL0     C27310   2.343   0.952  10.362 -0.6064 -0.9191 -0.3896
  965MOL0     C27311   2.291   1.056  10.463  0.4109 -0.1910  0.4362
  965MOL0     C27312   2.244   1.133  10.546 -0.4119 -0.6289 -0.3964
  965MOL0     C27313   1.856   0.909   9.862 -0.6331  0.5338 -0.4215
  965MOL0     C27314   1.724   0.927   9.818  0.0596  0.1339 -0.0798
  965MOL0     H27315   1.215   1.039   9.933  0.1689  1.6360  0.8126
  965MOL0     H27316   0.985   1.063   9.852 -0.0267 -0.0820 -1.8145
  965MOL0     H27317   0.875   1.376   9.535 -0.5255  3.1380  1.0646
  965MOL0     H27318   0.849   1.422   9.717  0.5147 -0.4732  0.2254
  965MOL0     H27319   0.677   1.217   9.589 -0.6155 -0.3174  0.8230
  965MOL0     H27320   0.639   1.386   9.548  1.4743  0.3108 -1.3662
  965MOL0     H27321   0.616   1.435   9.791  0.6462 -1.0649  1.3535
  965MOL0     H27322   0.676   1.271   9.830  0.2150 -0.6768 -0.1124
  965MOL0     H27323   0.434   1.299   9.664 -1.8274  0.1632  0.9011
  965MOL0     H27324   0.501   1.149   9.736  3.9429  0.1245 -3.8114
  965MOL0     H27325   0.407   1.371   9.921 -1.7808 -0.3504  1.4966
  965MOL0     H27326   0.418   1.202   9.938  0.1372  0.1972  0.2781
  965MOL0     H27327   0.234   1.166   9.749 -0.1237 -0.0486 -0.0171
  965MOL0     H27328   0.210   1.344   9.768 -0.5850 -0.5771 -1.7807
  965MOL0     H27329   0.177   1.158   9.989 -0.3799  1.9792  1.5307
  965MOL0     H27330   0.175   1.327  10.009  0.1822 -0.6096  0.3966
  965MOL0     H27331  -0.018   1.152   9.837 -0.2566 -1.3311 -0.2931
  965MOL0     H27332  -0.030   1.329   9.851  2.6416  0.1078 -0.6686
  965MOL0     H27333  -0.188   1.419  10.030 -0.7783 -2.3942 -5.5871
  965MOL0     H27334  -0.264   1.444  10.291  0.2249  0.2784  0.8168
  965MOL0     H27335  -0.275   1.302  10.385  3.0054  0.4410  0.7561
  965MOL0     H27336  -0.450   1.333  10.124  0.9521 -1.1480 -0.4371
  965MOL0     H27337  -0.515   1.386  10.275 -0.7480 -0.4257 -1.6922
  965MOL0     H27338  -0.414   1.102  10.207 -2.5220  0.7781 -2.2454
  965MOL0     H27339  -0.476   1.146  10.365 -0.6297  0.3443 -0.1211
  965MOL0     H27340  -0.621   1.029  10.204 -0.7771  0.8644 -0.8963
  965MOL0     H27341  -0.629   1.171  10.109 -2.4271 -2.0401 -1.5859
  965MOL0     H27342  -0.899   1.239  10.463  1.2154 -1.4826  0.3762
  965MOL0     H27343  -1.149   1.180  10.442  0.6980  1.6183 -0.8645
  965MOL0     H27344  -1.580   1.218  10.373 -0.3939  1.6686  0.2510
  965MOL0     H27345  -1.765   1.294  10.259  0.6065  0.8370 -1.1606
  965MOL0     H27346  -1.919   1.092  10.101 -3.3218 -2.2452 -2.7309
  965MOL0     H27347  -1.997   1.122   9.958  0.1621 -1.2568  0.1567
  965MOL0     H27348  -2.084   1.329  10.013  2.2852 -3.5112 -3.3066
  965MOL0     H27349  -1.972   1.353  10.154  1.4759  0.8395 -1.4935
  965MOL0     H27350  -2.188   1.285  10.233  3.7373  3.4748 -1.4779
  965MOL0     H27351  -2.081   1.141  10.246  1.6949  3.9276  3.3865
  965MOL0     H27352  -2.250   1.187   9.993  0.0200  0.4488  0.6243
  965MOL0     H27353  -2.178   1.040  10.042  0.7511 -0.3316  1.0810
  965MOL0     H27354  -2.397   1.152  10.221  0.7911  0.2812  0.3163
  965MOL0     H27355  -2.329   0.998  10.232 -0.1867 -1.8464 -0.2460
  965MOL0     H27356  -2.428   0.909  10.053  0.8952  0.2913 -2.9055
  965MOL0     H27357  -2.503   1.062   9.990  1.1271 -0.0498 -1.0708
  965MOL0     H27358  -2.565   0.980  10.265  2.5575 -0.7528 -1.1853
  965MOL0     H27359  -2.643   1.095  10.148 -0.9760 -0.7106 -0.7883
  965MOL0     H27360  -2.764   0.862  10.194 -1.2375  0.4051 -1.6078
  965MOL0     H27361  -2.628   0.789  10.121 -2.3593 -1.1006 -1.3196
  965MOL0     H27362  -1.601   1.149   9.887 -0.6601  0.7086 -0.3654
  965MOL0     H27363  -1.378   1.117   9.997 -1.3682 -2.2028 -1.1851
  965MOL0     H27364  -1.062   0.982  10.065 -0.2111 -2.9604  1.2576
  965MOL0     H27365  -0.830   1.028  10.088 -1.3706 -2.0340  0.5905
  965MOL0     H27366   1.098   1.363   9.582 -1.2801 -1.2004 -1.5976
  965MOL0     H27367   1.337   1.335   9.649 -1.0272 -0.1385 -2.0198
  965MOL0     H27368   1.648   1.242   9.932 -0.6515 -0.8575 -1.6593
  965MOL0     H27369   1.874   1.214  10.013  0.7817  0.7886 -1.9602
  965MOL0     H27370   2.069   0.814  10.079 -1.4810 -0.0800 -2.8336
  965MOL0     H27371   1.962   0.903  10.189  1.2229 -0.7461  1.0763
  965MOL0     H27372   2.214   1.033  10.136  0.6673  1.1614  1.2988
  965MOL0     H27373   2.089   1.051  10.259 -0.4586  1.2616 -0.7549
  965MOL0     H27374   2.274   0.809  10.209 -2.3732  2.5347 -3.4606
  965MOL0     H27375   2.166   0.824  10.349  0.9886 -2.3693 -0.1407
  965MOL0     H27376   2.405   0.876  10.412  0.2886  1.5838  2.6340
  965MOL0     H27377   2.405   0.994  10.283  2.5191 -2.0013  1.2814
  965MOL0     H27378   2.215   1.196  10.628  4.0871  1.0194  0.2190
  965MOL0     H27379   1.918   0.823   9.842 -0.1978  0.6951  0.2344
  965MOL0     H27380   1.687   0.842   9.762 -0.5704 -0.9577  1.8874
  966MOL0     O27381   8.945  10.080   5.123 -0.9213 -0.5447  0.3422
  966MOL0     C27382   9.024  10.168   5.164 -0.3448  0.8572  0.5831
  966MOL0     O27383   8.990  10.296   5.198 -1.4014 -0.3217  0.1507
  966MOL0     C27384   8.869  10.333   5.184 -0.7452 -0.3917  0.5934
  966MOL0     C27385   8.813  10.358   5.057  0.3615  0.5442  0.2926
  966MOL0     C27386   8.692  10.422   5.047  0.8784  0.5307  0.8868
  966MOL0     C27387   8.616  10.458   5.155 -0.3463  0.3809  0.7800
  966MOL0     O27388   8.506  10.537   5.136  0.8939  0.2058  0.1522
  966MOL0     C27389   8.407  10.528   5.245  0.5266  0.3051  0.3814
  966MOL0     C27390   8.275  10.553   5.179  0.4617  0.1915  0.2208
  966MOL0     C27391   8.157  10.578   5.279  0.5889  0.1815 -0.2375
  966MOL0     C27392   8.077  10.715   5.249  0.8747 -0.5358 -0.7252
  966MOL0     C27393   7.973  10.740   5.360 -1.0893  0.2626 -0.5139
  966MOL0     C27394   7.900  10.874   5.359 -0.1981 -0.2420  0.0952
  966MOL0     C27395   7.987  10.992   5.410  0.5309  0.0791 -0.3234
  966MOL0     C27396   7.899  11.116   5.454  1.3949  0.4141  0.9689
  966MOL0     N27397   7.976  11.223   5.522 -0.1169  0.1220  0.3841
  966MOL0     C27398   8.096  11.273   5.470 -0.4531 -0.6172 -0.1090
  966MOL0     C27399   8.111  11.390   5.535 -0.0218 -0.1388 -0.5869
  966MOL0     C27400   8.233  11.478   5.523  0.3693 -0.3159 -0.4309
  966MOL0     C27401   8.290  11.509   5.657  0.7446 -0.2370 -0.1208
  966MOL0     C27402   8.353  11.389   5.726  0.2502  0.5287  0.1171
  966MOL0     C27403   8.486  11.330   5.664 -0.0709 -0.1535  0.3851
  966MOL0     O27404   8.581  11.431   5.649  0.3309  0.5277  0.5167
  966MOL0     C27405   8.708  11.405   5.609  0.5883 -0.9450  0.4933
  966MOL0     C27406   8.752  11.287   5.549 -0.2927  1.1622  0.2708
  966MOL0     C27407   8.891  11.263   5.508  0.4659  0.2108  0.5793
  966MOL0     C27408   8.973  11.376   5.512  0.5167 -0.7677  0.4301
  966MOL0     C27409   9.110  11.357   5.488 -0.4586  0.0470 -0.0322
  966MOL0     O27410   9.178  11.478   5.458 -0.4147 -0.3725  0.3356
  966MOL0     C27411   9.307  11.462   5.437 -0.1141  0.4264 -0.1325
  966MOL0     C27412   9.401  11.426   5.538 -0.1819 -0.0384 -1.0304
  966MOL0     C27413   9.542  11.455   5.511 -0.1018  0.3452  0.3762
  966MOL0     C27414   9.591  11.519   5.400 -0.1952 -0.4123  0.2264
  966MOL0     O27415   9.723  11.532   5.385 -0.1283 -0.2052  0.8076
  966MOL0     C27416   9.766  11.538   5.251  0.9210  1.1567 -1.0617
  966MOL0     C27417   9.916  11.524   5.242 -0.4366  0.0539 -0.3887
  966MOL0     C27418   9.959  11.540   5.094 -0.0746 -0.9656  0.6590
  966MOL0     C27419  10.106  11.550   5.079 -0.1633  0.1953  0.4211
  966MOL0     C27420  10.151  11.700   5.085  0.4703  0.7227 -0.1386
  966MOL0     C27421  10.299  11.719   5.096 -0.2897 -0.3445  0.1397
  966MOL0     C27422  10.383  11.705   4.968  0.6366 -1.1373 -0.1213
  966MOL0     C27423  10.525  11.736   4.981 -0.0900 -0.1999 -0.6039
  966MOL0    Cl27424  10.554  11.908   5.023 -0.0077 -0.0729  0.0882
  966MOL0     C27425   9.494  11.553   5.304  0.3407  0.1368  0.3289
  966MOL0     C27426   9.359  11.523   5.330 -0.7812  0.6326  0.1643
  966MOL0     O27427   9.159  11.249   5.512  0.3930 -0.0252  0.2615
  966MOL0     C27428   8.927  11.500   5.571  0.1992  0.4865  1.1834
  966MOL0     C27429   8.791  11.515   5.611 -0.4627 -0.0583  0.5652
  966MOL0     N27430   8.004  11.421   5.614  0.0139  0.2909 -0.4600
  966MOL0     N27431   7.935  11.313   5.622 -0.3918  0.8593  0.0757
  966MOL0     C27432   8.673  10.445   5.277  0.0590  0.0505  0.5063
  966MOL0     C27433   8.795  10.381   5.289  0.1615  0.1095 -1.4365
  966MOL0     C27434   9.169  10.132   5.193 -0.2291 -0.1329  0.0047
  966MOL0     C27435   9.271  10.235   5.192 -0.3091  0.7835  0.9623
  966MOL0     C27436   9.402  10.192   5.227  0.1434 -0.3042 -0.7011
  966MOL0     C27437   9.434  10.057   5.264 -0.7272 -0.3068  0.0932
  966MOL0     O27438   9.555  10.018   5.303  0.2542 -0.2659  0.7881
  966MOL0     C27439   9.664  10.114   5.280 -1.5163  0.1351 -0.0751
  966MOL0     C27440   9.797  10.032   5.307  0.3294  0.2117 -0.5400
  966MOL0     C27441   9.818   9.929   5.198 -0.4692  0.0921 -0.6365
  966MOL0     C27442   9.752   9.801   5.216 -0.4200 -0.9851  0.1017
  966MOL0     C27443   9.790   9.705   5.120 -0.4357 -0.5380 -0.3030
  966MOL0     C27444   9.789   9.609   5.052 -0.0759  0.0976  0.0177
  966MOL0     C27445   9.336   9.964   5.270 -0.3833 -0.4057  0.8834
  966MOL0     C27446   9.206  10.007   5.221  0.0605  0.0003 -0.1967
  966MOL0     H27447   8.858  10.340   4.960 -0.2507 -1.5656  0.3585
  966MOL0     H27448   8.648  10.446   4.950 -3.4684  0.7778  2.6967
  966MOL0     H27449   8.433  10.592   5.329 -3.6254 -1.7292  3.5900
  966MOL0     H27450   8.392  10.427   5.286 -1.2664  1.2078  2.0773
  966MOL0     H27451   8.256  10.464   5.119 -0.3828  1.6598 -1.8252
  966MOL0     H27452   8.272  10.635   5.107  0.1216  0.8782  0.9854
  966MOL0     H27453   8.187  10.584   5.384 -2.1723  1.3305  0.5934
  966MOL0     H27454   8.090  10.491   5.273  0.5856  0.2456 -1.2705
  966MOL0     H27455   8.144  10.800   5.260 -1.6237  1.5584 -0.6863
  966MOL0     H27456   8.039  10.726   5.147 -1.4441  1.3804  0.2557
  966MOL0     H27457   8.029  10.732   5.455 -0.9547  3.3325 -0.2352
  966MOL0     H27458   7.900  10.661   5.342 -0.8178  0.3931 -2.3572
  966MOL0     H27459   7.814  10.863   5.425 -0.8068  0.3630 -0.5867
  966MOL0     H27460   7.869  10.899   5.257 -0.4052  1.4740  0.5485
  966MOL0     H27461   8.039  10.953   5.498 -3.6136 -3.1924  1.0021
  966MOL0     H27462   8.072  11.017   5.346  0.9830  1.0545  0.6303
  966MOL0     H27463   7.828  11.091   5.533  0.5529  0.0393  0.1160
  966MOL0     H27464   7.854  11.158   5.364  1.9835 -3.6250 -1.4755
  966MOL0     H27465   8.167  11.220   5.406 -0.7233 -0.0499 -0.8893
  966MOL0     H27466   8.216  11.571   5.468  1.3583 -0.7324 -1.4935
  966MOL0     H27467   8.312  11.430   5.464  0.7713  2.8887 -2.7659
  966MOL0     H27468   8.206  11.529   5.725  1.6371 -0.8563  1.2277
  966MOL0     H27469   8.351  11.600   5.659  1.0347 -0.4331  1.4087
  966MOL0     H27470   8.381  11.410   5.829  0.8937 -0.9367  0.2527
  966MOL0     H27471   8.280  11.307   5.722  1.5750 -0.7524 -4.3673
  966MOL0     H27472   8.466  11.289   5.565 -1.2477  0.2085  0.4624
  966MOL0     H27473   8.526  11.245   5.720  2.6044  1.2755  0.8512
  966MOL0     H27474   8.682  11.203   5.552  2.2469 -1.7133 -5.2855
  966MOL0     H27475   8.915  11.162   5.477 -1.1750  0.8532 -3.5134
  966MOL0     H27476   9.361  11.377   5.626  2.9176 -3.6749 -1.4077
  966MOL0     H27477   9.622  11.428   5.579 -0.4018 -1.5995  0.0180
  966MOL0     H27478   9.739  11.636   5.210  0.9069  2.1992  1.2805
  966MOL0     H27479   9.719  11.451   5.203  1.7721  0.2000 -0.2025
  966MOL0     H27480   9.949  11.429   5.284  2.6417  1.7610  1.4456
  966MOL0     H27481   9.965  11.598   5.306  1.1834 -1.7520  0.5642
  966MOL0     H27482   9.901  11.620   5.048  1.0238 -2.0715 -2.9288
  966MOL0     H27483   9.936  11.451   5.035  0.5992 -1.1784  0.7052
  966MOL0     H27484  10.158  11.488   5.152  2.3054  0.9931 -0.5681
  966MOL0     H27485  10.133  11.515   4.979 -1.6146 -1.3848  0.5215
  966MOL0     H27486  10.113  11.742   5.178 -0.3932  1.3295 -0.7578
  966MOL0     H27487  10.109  11.758   5.002  2.3519  0.6586 -1.2154
  966MOL0     H27488  10.336  11.663   5.182  0.6802  1.8107  1.2263
  966MOL0     H27489  10.313  11.817   5.143  0.8189 -2.6652  5.3715
  966MOL0     H27490  10.375  11.600   4.940  0.7390 -0.4675 -2.9520
  966MOL0     H27491  10.352  11.780   4.895  0.0179 -0.7675  0.5022
  966MOL0     H27492  10.580  11.709   4.891  0.1813 -0.6165 -0.3177
  966MOL0     H27493  10.568  11.682   5.066  0.1932  4.3441  2.5176
  966MOL0     H27494   9.505  11.608   5.211 -2.3790  0.5516  0.1744
  966MOL0     H27495   9.282  11.571   5.270  1.6377  3.1880 -1.1332
  966MOL0     H27496   8.998  11.580   5.589  0.1374  1.6712 -2.9809
  966MOL0     H27497   8.748  11.609   5.644 -0.2833  0.7345 -1.3292
  966MOL0     H27498   8.620  10.497   5.356 -0.7217  0.9616 -0.5962
  966MOL0     H27499   8.839  10.388   5.387 -0.6371 -2.2406 -0.8327
  966MOL0     H27500   9.256  10.337   5.158  2.4113  0.6388 -0.9669
  966MOL0     H27501   9.471  10.275   5.226  1.5199 -1.3908 -2.1447
  966MOL0     H27502   9.654  10.202   5.345  0.4542  1.4203 -1.4190
  966MOL0     H27503   9.674  10.141   5.175  0.7077  1.3395  0.3802
  966MOL0     H27504   9.886  10.095   5.310 -0.4098  1.6226 -3.5778
  966MOL0     H27505   9.792   9.981   5.403 -4.3191 -2.1379 -1.6860
  966MOL0     H27506   9.923   9.897   5.200 -0.5361 -0.1511 -0.9867
  966MOL0     H27507   9.806   9.977   5.100  2.0134  1.9337 -0.1672
  966MOL0     H27508   9.766   9.757   5.315 -1.8751  0.1995  0.8836
  966MOL0     H27509   9.644   9.814   5.201 -0.1260  3.0517  0.3292
  966MOL0     H27510   9.761   9.523   4.994 -0.4880 -0.6524  1.2801
  966MOL0     H27511   9.370   9.862   5.289  0.2735 -0.2189  0.7511
  966MOL0     H27512   9.127   9.933   5.216 -0.0081  0.1259 -1.1122
  967MOL0     O27513   1.023   4.444   8.621  0.3597 -0.2146  0.4498
  967MOL0     C27514   1.069   4.350   8.555 -0.4930 -0.1892  0.3209
  967MOL0     O27515   1.001   4.233   8.528  0.4764 -0.3534  0.5159
  967MOL0     C27516   0.873   4.212   8.583 -0.6090  1.2361  0.2298
  967MOL0     C27517   0.781   4.129   8.508  0.7325 -0.8938 -0.0772
  967MOL0     C27518   0.668   4.085   8.567 -0.6065  0.3785 -0.6461
  967MOL0     C27519   0.625   4.124   8.693  0.2707 -0.0329  0.9685
  967MOL0     O27520   0.490   4.096   8.719  0.5568  0.2061  0.3391
  967MOL0     C27521   0.445   4.159   8.841  0.2762 -0.0481  0.4836
  967MOL0     C27522   0.292   4.121   8.866 -0.3314 -0.4641  0.3020
  967MOL0     C27523   0.205   4.160   8.748  0.2148 -0.0946  0.5397
  967MOL0     C27524   0.068   4.099   8.760 -0.0834  1.0532  1.1240
  967MOL0     C27525  -0.011   4.118   8.637 -0.6568  0.2986 -0.3401
  967MOL0     C27526  -0.156   4.067   8.660 -0.2483 -0.2429 -0.1294
  967MOL0     C27527  -0.217   4.048   8.517 -0.4148 -0.4298 -0.3511
  967MOL0     C27528  -0.344   3.963   8.521 -0.8605  1.0159  0.4926
  967MOL0     N27529  -0.412   3.978   8.392  0.7586  0.4911  0.6898
  967MOL0     C27530  -0.543   4.018   8.382  0.5289  0.4031  0.2758
  967MOL0     C27531  -0.581   3.979   8.265 -0.7546  0.2622  0.6853
  967MOL0     C27532  -0.723   4.010   8.212 -1.1004  0.0012 -0.0795
  967MOL0     C27533  -0.710   4.122   8.119  0.2644 -0.1026  0.2903
  967MOL0     C27534  -0.849   4.168   8.066 -0.2813 -0.7448 -0.2979
  967MOL0     C27535  -0.944   4.048   8.026  0.2524  0.2047 -0.6694
  967MOL0     O27536  -1.044   4.105   7.940 -0.3230 -0.0927 -0.4893
  967MOL0     C27537  -1.163   4.149   7.986  1.4802 -0.1167  0.4599
  967MOL0     C27538  -1.217   4.141   8.115 -0.8262 -0.4862  1.0415
  967MOL0     C27539  -1.344   4.190   8.146 -0.5935 -0.6164  0.4977
  967MOL0     C27540  -1.419   4.253   8.058  0.0228 -0.3428  0.6060
  967MOL0     C27541  -1.556   4.311   8.091 -0.3681  0.0606 -0.0793
  967MOL0     O27542  -1.609   4.399   8.000  0.3858  0.2008 -0.6048
  967MOL0     C27543  -1.731   4.460   8.012  1.0629 -0.6149 -0.5216
  967MOL0     C27544  -1.815   4.459   8.130  1.0263 -0.9174 -0.5930
  967MOL0     C27545  -1.922   4.543   8.145  0.8051  0.5988  0.1299
  967MOL0     C27546  -1.963   4.620   8.035 -0.3248  0.3325  1.0631
  967MOL0     O27547  -2.076   4.688   8.031  0.4247  0.5852 -0.1596
  967MOL0     C27548  -2.088   4.784   8.143 -0.1179 -0.2760  0.3313
  967MOL0     C27549  -2.205   4.874   8.115  0.2405  0.2532  0.4124
  967MOL0     C27550  -2.225   4.976   8.216  0.3137 -0.9160 -0.4624
  967MOL0     C27551  -2.352   5.060   8.198  0.1309  0.7490 -0.3326
  967MOL0     C27552  -2.340   5.193   8.267 -0.0176 -0.4114  0.0777
  967MOL0     C27553  -2.482   5.260   8.239 -0.0694  0.4498 -0.4923
  967MOL0     C27554  -2.531   5.383   8.309  0.6449  0.1187 -0.1378
  967MOL0     C27555  -2.678   5.408   8.278 -0.3403 -0.0841 -0.0214
  967MOL0    Cl27556  -2.708   5.441   8.099 -0.0257  0.3002  0.0763
  967MOL0     C27557  -1.889   4.610   7.910  0.2734 -0.7931 -0.2557
  967MOL0     C27558  -1.774   4.536   7.906 -0.0300 -0.4159  0.4544
  967MOL0     O27559  -1.607   4.257   8.185 -0.5776 -0.7716 -0.5595
  967MOL0     C27560  -1.362   4.288   7.936  0.3803  0.4610  0.8400
  967MOL0     C27561  -1.237   4.229   7.896 -0.0412  1.4376 -0.6494
  967MOL0     N27562  -0.474   3.924   8.190  0.0591  0.7000 -0.5691
  967MOL0     N27563  -0.368   3.919   8.269 -0.4299 -0.6637  0.2540
  967MOL0     C27564   0.712   4.198   8.778 -0.0018 -0.1586  0.8479
  967MOL0     C27565   0.838   4.242   8.719  0.6067  0.6042 -0.1407
  967MOL0     C27566   1.219   4.355   8.526 -0.0204  0.5581 -0.4752
  967MOL0     C27567   1.284   4.236   8.481  0.4209  0.1001 -0.3321
  967MOL0     C27568   1.425   4.238   8.453  1.2021  0.9669 -0.6286
  967MOL0     C27569   1.509   4.343   8.485  0.7213 -0.3924 -0.0156
  967MOL0     O27570   1.637   4.342   8.443  0.3729 -0.1607 -0.4530
  967MOL0     C27571   1.729   4.405   8.539 -0.1914  1.3936  0.1493
  967MOL0     C27572   1.870   4.400   8.478  0.3592 -0.0056 -0.6511
  967MOL0     C27573   1.972   4.481   8.560  0.4113 -0.1318  0.1039
  967MOL0     C27574   1.947   4.629   8.563 -0.5146 -0.6101 -0.3924
  967MOL0     C27575   1.906   4.666   8.706 -0.1710 -0.3025  0.5665
  967MOL0     C27576   1.872   4.707   8.817 -0.3260 -0.4498 -0.7879
  967MOL0     C27577   1.450   4.454   8.535  0.0619 -0.7218  0.5394
  967MOL0     C27578   1.304   4.462   8.549 -0.7040 -1.3426 -0.2861
  967MOL0     H27579   0.803   4.100   8.405  1.2481 -5.3524  1.0761
  967MOL0     H27580   0.600   4.029   8.503  0.1638 -1.0351 -0.2674
  967MOL0     H27581   0.464   4.267   8.843 -0.5124  0.0927  1.9115
  967MOL0     H27582   0.499   4.113   8.923  0.5706 -3.0127 -1.2409
  967MOL0     H27583   0.256   4.162   8.961 -0.4591  1.1771 -0.4304
  967MOL0     H27584   0.295   4.011   8.864 -0.3893 -0.4599 -0.3367
  967MOL0     H27585   0.259   4.126   8.659 -1.1845 -1.5644  0.2033
  967MOL0     H27586   0.195   4.268   8.738 -2.1327 -0.1707  1.6008
  967MOL0     H27587   0.077   3.998   8.800  1.5095  0.9025  0.4668
  967MOL0     H27588   0.033   4.151   8.849  0.2301  1.7249  0.8577
  967MOL0     H27589   0.034   4.066   8.552 -0.2640  1.1176 -0.6482
  967MOL0     H27590  -0.013   4.221   8.601 -3.4035  0.5921  0.4238
  967MOL0     H27591  -0.215   4.135   8.721 -0.1927 -1.9112  1.9376
  967MOL0     H27592  -0.154   3.976   8.721 -0.9931  0.6330  1.2596
  967MOL0     H27593  -0.243   4.152   8.496 -1.8856 -0.1177  2.4914
  967MOL0     H27594  -0.141   4.018   8.444  1.1427  0.8418  0.6655
  967MOL0     H27595  -0.410   4.002   8.599  0.8703  2.1227  1.4641
  967MOL0     H27596  -0.332   3.856   8.541 -0.9556  0.6463 -1.2413
  967MOL0     H27597  -0.606   4.054   8.463  0.0071  2.2055 -0.8810
  967MOL0     H27598  -0.782   4.043   8.298 -0.0303  0.7198  0.4049
  967MOL0     H27599  -0.775   3.925   8.169 -0.2653 -0.4681 -0.1922
  967MOL0     H27600  -0.645   4.101   8.034 -1.3634 -2.5634 -0.4389
  967MOL0     H27601  -0.654   4.202   8.168  2.8482 -0.3154 -2.0654
  967MOL0     H27602  -0.895   4.240   8.134 -2.1417 -3.0858  1.1154
  967MOL0     H27603  -0.822   4.218   7.973 -2.9317 -0.4433 -0.9708
  967MOL0     H27604  -0.986   4.003   8.116  2.0905 -0.3002 -0.0201
  967MOL0     H27605  -0.888   3.973   7.969  0.1926 -1.3420  1.1908
  967MOL0     H27606  -1.161   4.091   8.194  0.9907  0.7910  0.6331
  967MOL0     H27607  -1.384   4.176   8.246 -4.4289  0.7434 -0.6825
  967MOL0     H27608  -1.782   4.401   8.216  0.7150 -0.2012  0.0150
  967MOL0     H27609  -1.967   4.566   8.241 -0.0839 -0.2317 -0.0795
  967MOL0     H27610  -2.000   4.847   8.153 -0.2882  0.2452 -1.3391
  967MOL0     H27611  -2.095   4.739   8.243  3.7306  2.1657  1.9251
  967MOL0     H27612  -2.298   4.820   8.100  0.2987  0.3128 -0.1844
  967MOL0     H27613  -2.190   4.927   8.021  1.7013  0.9806  1.0156
  967MOL0     H27614  -2.140   5.045   8.209  0.3714 -0.9568 -0.1792
  967MOL0     H27615  -2.225   4.929   8.315  2.2206 -2.9357 -1.3315
  967MOL0     H27616  -2.357   5.082   8.091  2.7967 -0.9533 -0.8939
  967MOL0     H27617  -2.431   4.992   8.230 -0.3812  0.2624 -2.4590
  967MOL0     H27618  -2.260   5.251   8.221  1.4588 -0.8471  1.9515
  967MOL0     H27619  -2.319   5.187   8.375 -2.2800  1.2224  0.6941
  967MOL0     H27620  -2.552   5.176   8.243  0.0749  0.1804 -2.6788
  967MOL0     H27621  -2.462   5.287   8.135  0.6122 -0.7177 -0.6857
  967MOL0     H27622  -2.529   5.369   8.417  0.0535 -0.0831 -0.1454
  967MOL0     H27623  -2.467   5.466   8.280  2.9653 -1.4339  0.2914
  967MOL0     H27624  -2.688   5.506   8.325  0.6781 -0.9075  2.0180
  967MOL0     H27625  -2.742   5.330   8.319 -1.9594  0.5015 -1.3179
  967MOL0     H27626  -1.913   4.675   7.827  1.3556  1.4422  1.0759
  967MOL0     H27627  -1.709   4.559   7.822  1.6029 -2.5730  1.0329
  967MOL0     H27628  -1.408   4.353   7.863  0.8840  1.4670  1.3896
  967MOL0     H27629  -1.215   4.241   7.791 -0.7313  2.5554 -0.6769
  967MOL0     H27630   0.686   4.243   8.873  0.5575  0.4966  0.6994
  967MOL0     H27631   0.907   4.295   8.784  0.6280 -3.2611  3.4459
  967MOL0     H27632   1.224   4.148   8.460 -3.1365  1.6110  2.3661
  967MOL0     H27633   1.463   4.150   8.402 -0.3873  0.4486 -0.9493
  967MOL0     H27634   1.723   4.339   8.626  0.0435 -0.4607 -1.1854
  967MOL0     H27635   1.710   4.508   8.568  2.4752  1.3219  2.6846
  967MOL0     H27636   1.903   4.296   8.483 -1.4259 -0.5405  1.3312
  967MOL0     H27637   1.865   4.428   8.372 -1.0425 -0.2026 -0.6582
  967MOL0     H27638   2.069   4.460   8.514  0.5030 -3.1488  1.4059
  967MOL0     H27639   1.979   4.447   8.664 -0.7757  0.5771  0.4260
  967MOL0     H27640   2.040   4.683   8.542 -1.2960  2.0807  2.3821
  967MOL0     H27641   1.871   4.657   8.490  0.3016 -1.5911 -1.6630
  967MOL0     H27642   1.840   4.745   8.912  0.3691 -0.3095 -0.6009
  967MOL0     H27643   1.501   4.549   8.551 -0.0589 -0.2933 -1.3393
  967MOL0     H27644   1.260   4.557   8.577  3.3856  1.5509 -2.5783
  968MOL0     O27645   9.559   4.326   1.935  0.2374  0.2865  0.0118
  968MOL0     C27646   9.555   4.452   1.934  0.0324  0.7029 -0.9813
  968MOL0     O27647   9.451   4.525   1.875  0.4414  0.2011  0.4335
  968MOL0     C27648   9.334   4.469   1.826  0.2316  1.4011  0.1045
  968MOL0     C27649   9.260   4.366   1.884 -0.2005  0.6178  0.4396
  968MOL0     C27650   9.138   4.326   1.834  0.4142 -0.6688  0.0951
  968MOL0     C27651   9.075   4.389   1.728 -0.8984 -0.3810  0.2996
  968MOL0     O27652   8.946   4.340   1.691 -0.5102 -0.5463 -0.3755
  968MOL0     C27653   8.911   4.316   1.560 -0.6830 -1.0166 -0.1082
  968MOL0     C27654   8.781   4.237   1.559 -1.0016  0.4197 -0.8817
  968MOL0     C27655   8.731   4.197   1.423 -0.1598 -0.3649 -0.1948
  968MOL0     C27656   8.599   4.123   1.425  0.1725 -0.6404 -0.0418
  968MOL0     C27657   8.545   4.107   1.288 -0.5396 -0.2340  0.2315
  968MOL0     C27658   8.477   4.231   1.225 -0.0125  0.1969  0.6936
  968MOL0     C27659   8.355   4.282   1.313 -0.0242 -0.7378 -0.1451
  968MOL0     C27660   8.254   4.376   1.247  0.0049 -0.2285  0.8098
  968MOL0     N27661   8.183   4.320   1.127  0.6481 -0.6316 -0.1660
  968MOL0     C27662   8.186   4.365   0.998 -0.5474  0.2441 -0.2047
  968MOL0     C27663   8.121   4.265   0.927 -0.7799  0.1193 -0.9067
  968MOL0     C27664   8.100   4.256   0.782 -0.0223  0.1262 -1.2421
  968MOL0     C27665   7.990   4.350   0.760  0.0470 -1.0229  0.3070
  968MOL0     C27666   7.939   4.333   0.611 -0.3812 -0.9542 -0.2477
  968MOL0     C27667   7.822   4.432   0.588 -0.0591  0.5788  0.2381
  968MOL0     O27668   7.711   4.368   0.653  0.5008  0.1074 -0.3652
  968MOL0     C27669   7.595   4.441   0.647  0.5673  0.8646 -0.2620
  968MOL0     C27670   7.575   4.577   0.620 -0.4441  0.1969 -0.3316
  968MOL0     C27671   7.445   4.635   0.630 -0.1707 -0.0093 -0.3900
  968MOL0     C27672   7.334   4.554   0.649 -1.0540  0.5494 -1.1405
  968MOL0     C27673   7.200   4.615   0.641 -0.0676 -1.0131  0.5633
  968MOL0     O27674   7.084   4.534   0.650  0.4095  0.0568 -0.5296
  968MOL0     C27675   6.960   4.590   0.643 -1.1745  0.0576  0.3084
  968MOL0     C27676   6.928   4.705   0.569  0.5297  0.6120 -0.1277
  968MOL0     C27677   6.810   4.772   0.594 -0.2290 -0.3341  0.4111
  968MOL0     C27678   6.734   4.743   0.702 -0.1782  0.5214  0.4272
  968MOL0     O27679   6.627   4.817   0.741 -0.2067 -0.3423  0.1766
  968MOL0     C27680   6.501   4.740   0.761  0.6980  0.1258  0.4905
  968MOL0     C27681   6.373   4.830   0.749  0.1851 -0.1134 -0.2346
  968MOL0     C27682   6.328   4.874   0.616 -0.1186  0.1995 -0.2675
  968MOL0     C27683   6.198   4.947   0.616 -0.3392 -0.2912 -0.4796
  968MOL0     C27684   6.166   4.996   0.469 -0.1351 -0.0075  0.0231
  968MOL0     C27685   6.049   5.092   0.478 -0.4698 -0.3543  0.6430
  968MOL0     C27686   6.025   5.123   0.322 -0.0852  0.3653  1.1679
  968MOL0     C27687   5.934   5.240   0.303  0.3829  0.0548 -0.0751
  968MOL0    Cl27688   5.778   5.180   0.361  0.1082 -0.0198  0.1335
  968MOL0     C27689   6.764   4.628   0.780 -0.6774 -0.1158  0.1706
  968MOL0     C27690   6.880   4.548   0.749  0.2071 -0.2934  0.2304
  968MOL0     O27691   7.201   4.739   0.623 -0.3712  0.2067  1.1078
  968MOL0     C27692   7.361   4.423   0.690 -0.3856 -0.2506  0.5169
  968MOL0     C27693   7.483   4.365   0.693 -0.0069  0.5375  0.1120
  968MOL0     N27694   8.084   4.164   1.021 -0.1186  0.5604  0.7804
  968MOL0     N27695   8.118   4.199   1.136 -0.3574  0.1911 -0.1498
  968MOL0     C27696   9.137   4.505   1.673 -0.1436 -0.8006  0.4583
  968MOL0     C27697   9.262   4.539   1.724 -0.7915 -1.3029 -0.0523
  968MOL0     C27698   9.652   4.528   2.011  0.7231 -0.2475  0.4645
  968MOL0     C27699   9.622   4.661   2.045  0.7184  0.0696  0.2877
  968MOL0     C27700   9.701   4.736   2.130 -0.0329 -0.0285 -0.1050
  968MOL0     C27701   9.815   4.685   2.181  0.6862  0.6949  0.0279
  968MOL0     O27702   9.897   4.764   2.261  0.4390 -0.2462 -0.1580
  968MOL0     C27703   9.995   4.709   2.346 -0.1017 -0.2805  0.3335
  968MOL0     C27704  10.056   4.837   2.413  0.0232 -0.3712  0.1844
  968MOL0     C27705  10.179   4.792   2.500 -0.2147 -0.0339 -0.2498
  968MOL0     C27706  10.287   4.900   2.533  0.0264  0.1371 -0.3687
  968MOL0     C27707  10.389   4.912   2.424 -0.5775  0.3377  0.3899
  968MOL0     C27708  10.470   4.885   2.338  0.4336 -0.2491 -0.2257
  968MOL0     C27709   9.844   4.548   2.156 -0.6247  0.8486 -0.1296
  968MOL0     C27710   9.768   4.470   2.066 -0.0202  0.3938  0.3197
  968MOL0     H27711   9.299   4.314   1.971  1.4415  1.0800  0.0081
  968MOL0     H27712   9.089   4.249   1.892 -1.3419  1.5484  1.7726
  968MOL0     H27713   8.989   4.264   1.503  0.7365  3.3657 -2.6500
  968MOL0     H27714   8.906   4.415   1.514  0.4669 -1.1629 -0.6029
  968MOL0     H27715   8.707   4.289   1.620  0.6527  2.3134 -0.3625
  968MOL0     H27716   8.800   4.146   1.617 -2.0628 -0.8436 -2.4541
  968MOL0     H27717   8.798   4.132   1.366  1.9444  1.6539 -0.1859
  968MOL0     H27718   8.723   4.287   1.362  0.6766  0.5989  1.0550
  968MOL0     H27719   8.612   4.028   1.478  1.8104 -1.5891 -2.0172
  968MOL0     H27720   8.535   4.180   1.493  3.3846  1.2624  1.6590
  968MOL0     H27721   8.469   4.030   1.298 -0.4692 -0.3798 -0.3414
  968MOL0     H27722   8.617   4.052   1.226  3.0165  1.6316  2.3561
  968MOL0     H27723   8.450   4.200   1.124 -2.5720 -1.2748  1.7343
  968MOL0     H27724   8.549   4.314   1.226 -0.1551  0.3188  2.0567
  968MOL0     H27725   8.298   4.193   1.344 -1.3379  0.9429  2.6187
  968MOL0     H27726   8.394   4.321   1.407 -0.4603 -1.6075  0.4191
  968MOL0     H27727   8.324   4.453   1.213 -0.1280 -1.3766 -2.3151
  968MOL0     H27728   8.178   4.423   1.311 -1.5462 -0.6590 -0.6466
  968MOL0     H27729   8.235   4.455   0.960 -0.0747  0.7233  1.4504
  968MOL0     H27730   8.069   4.157   0.749 -2.4862  0.6840 -0.7678
  968MOL0     H27731   8.198   4.279   0.737  0.5921  1.1904  0.5481
  968MOL0     H27732   8.027   4.451   0.778 -0.0144 -1.0469  0.5675
  968MOL0     H27733   7.899   4.324   0.816 -2.5749  2.8547 -1.6809
  968MOL0     H27734   8.025   4.370   0.554  0.1133  0.0834  1.1118
  968MOL0     H27735   7.911   4.235   0.573 -2.0719  0.2561 -2.4035
  968MOL0     H27736   7.815   4.439   0.479  1.5690 -0.0724  0.0554
  968MOL0     H27737   7.828   4.536   0.619  0.2797  0.6141  0.0617
  968MOL0     H27738   7.656   4.644   0.593  0.9731 -0.5650  1.8336
  968MOL0     H27739   7.438   4.741   0.608  1.1928  0.2258  0.1812
  968MOL0     H27740   6.997   4.724   0.487 -1.3527 -0.4257 -2.0523
  968MOL0     H27741   6.784   4.865   0.544  0.7833  0.8037  1.8868
  968MOL0     H27742   6.496   4.702   0.864 -1.2339  0.4223  0.5382
  968MOL0     H27743   6.498   4.660   0.687  2.1860 -1.5202  2.0839
  968MOL0     H27744   6.391   4.923   0.803  2.0671  0.5264 -1.8519
  968MOL0     H27745   6.288   4.772   0.789  1.0564 -1.7701 -0.6968
  968MOL0     H27746   6.330   4.789   0.546  3.3079  1.0183 -1.3962
  968MOL0     H27747   6.407   4.940   0.579 -1.1689  0.2994 -2.5193
  968MOL0     H27748   6.113   4.889   0.652  1.3575 -2.3144  0.4870
  968MOL0     H27749   6.226   5.035   0.675 -1.9066 -0.7206  0.9812
  968MOL0     H27750   6.149   4.913   0.401 -0.6284 -0.0027  0.1352
  968MOL0     H27751   6.254   5.051   0.435 -1.5271  1.1951 -1.8091
  968MOL0     H27752   6.071   5.186   0.530  2.4228  0.3003 -1.4825
  968MOL0     H27753   5.964   5.037   0.520 -2.3163  3.1395  1.8443
  968MOL0     H27754   6.120   5.146   0.273 -1.4296 -1.5606 -2.6893
  968MOL0     H27755   5.991   5.032   0.272  2.0395 -0.7249  1.5585
  968MOL0     H27756   5.937   5.295   0.208 -0.5662  1.7381  0.8102
  968MOL0     H27757   5.970   5.318   0.371  3.0323 -1.8097  0.8202
  968MOL0     H27758   6.700   4.586   0.858  0.0852  0.1683  0.9706
  968MOL0     H27759   6.924   4.481   0.822  0.9511  0.5175  0.5422
  968MOL0     H27760   7.283   4.349   0.705 -0.0703 -0.6834  0.0336
  968MOL0     H27761   7.480   4.264   0.733 -2.5757  0.9880  1.2566
  968MOL0     H27762   9.091   4.556   1.589 -2.0729 -3.2159 -0.0668
  968MOL0     H27763   9.301   4.633   1.686  1.7804 -0.9231  3.0535
  968MOL0     H27764   9.531   4.699   2.000  1.1791  1.3959  0.4460
  968MOL0     H27765   9.671   4.836   2.162  1.6982 -0.3460  2.9448
  968MOL0     H27766  10.079   4.668   2.290 -0.2257  0.1849 -0.2081
  968MOL0     H27767   9.962   4.631   2.415 -0.4977 -1.9229 -1.6385
  968MOL0     H27768  10.101   4.907   2.342  0.8361 -0.5784  0.4845
  968MOL0     H27769   9.984   4.897   2.470  2.5838  2.8986  0.2866
  968MOL0     H27770  10.225   4.699   2.468  1.4276  0.5807  0.2120
  968MOL0     H27771  10.134   4.768   2.597 -0.6985 -1.1154 -0.7303
  968MOL0     H27772  10.241   4.996   2.558 -0.3079 -0.0730 -0.1833
  968MOL0     H27773  10.337   4.865   2.623  0.0726  3.3894  1.0224
  968MOL0     H27774  10.535   4.850   2.260 -0.1590 -3.3355  0.5305
  968MOL0     H27775   9.935   4.504   2.194 -0.5371  1.4208  0.3396
  968MOL0     H27776   9.793   4.371   2.028 -0.1143  0.9404 -1.2231
  969MOL0     O27777   6.597   0.390  10.235  0.2637 -0.3637  0.1811
  969MOL0     C27778   6.591   0.272  10.271 -0.5398 -0.3675  0.0244
  969MOL0     O27779   6.471   0.209  10.283 -0.1500  0.1771 -0.3187
  969MOL0     C27780   6.352   0.249  10.229  0.9991 -0.0681 -0.0558
  969MOL0     C27781   6.331   0.282  10.099 -0.7396 -1.0610 -0.3129
  969MOL0     C27782   6.211   0.337  10.043  0.0175  0.2175 -0.3466
  969MOL0     C27783   6.100   0.350  10.132 -0.4251  0.0480  0.8175
  969MOL0     O27784   5.976   0.380  10.111  0.0240  0.2685  0.4420
  969MOL0     C27785   5.911   0.394   9.977 -0.1153 -0.2351  0.6129
  969MOL0     C27786   5.833   0.269   9.931 -0.6688 -0.2348 -0.2543
  969MOL0     C27787   5.712   0.235  10.033  0.4486 -0.0470 -0.2084
  969MOL0     C27788   5.594   0.331   9.979 -0.4256  0.0235 -0.2267
  969MOL0     C27789   5.506   0.391  10.084  0.3994 -0.1917  0.3899
  969MOL0     C27790   5.444   0.283  10.177  0.5735 -0.3928  0.3639
  969MOL0     C27791   5.342   0.340  10.264 -0.0054  0.1748 -0.2213
  969MOL0     C27792   5.273   0.218  10.327 -0.3566  0.2626 -0.2728
  969MOL0     N27793   5.168   0.263  10.424  0.0415  0.1629  0.6937
  969MOL0     C27794   5.029   0.287  10.396 -1.4653 -0.4985 -0.0167
  969MOL0     C27795   4.966   0.283  10.511 -0.3351 -0.4769  0.4143
  969MOL0     C27796   4.814   0.274  10.524  0.1036  0.1088  0.4836
  969MOL0     C27797   4.760   0.293  10.666  0.1887 -0.1467 -0.5864
  969MOL0     C27798   4.604   0.300  10.664 -0.8228 -0.4165 -0.3702
  969MOL0     C27799   4.545   0.352  10.793  0.0086  0.7366  0.0771
  969MOL0     O27800   4.407   0.348  10.778  0.4349 -0.0051  0.6979
  969MOL0     C27801   4.329   0.234  10.796 -0.8220 -0.8666 -0.7358
  969MOL0     C27802   4.362   0.136  10.895  0.1807 -1.6161  0.8916
  969MOL0     C27803   4.289   0.021  10.901  0.2946  0.0007  0.2761
  969MOL0     C27804   4.180  -0.001  10.814 -0.3295  0.5526 -0.4849
  969MOL0     C27805   4.098  -0.127  10.824 -0.0521 -0.4499  0.2433
  969MOL0     O27806   3.985  -0.133  10.744 -0.0646  0.7782  0.3319
  969MOL0     C27807   3.927  -0.256  10.730  0.4892  0.0424 -0.1339
  969MOL0     C27808   3.962  -0.355  10.645 -0.5311 -0.0854 -0.0111
  969MOL0     C27809   3.904  -0.481  10.652 -0.0554  0.3815  0.1810
  969MOL0     C27810   3.794  -0.506  10.737 -1.0604  0.2722  0.4820
  969MOL0     O27811   3.724  -0.618  10.711  0.2805  0.2779 -0.2797
  969MOL0     C27812   3.585  -0.602  10.660  0.5924  0.3039 -0.1811
  969MOL0     C27813   3.581  -0.591  10.509  0.4655  0.9874 -0.1439
  969MOL0     C27814   3.439  -0.588  10.460 -0.0307 -0.4401 -0.4430
  969MOL0     C27815   3.429  -0.557  10.314 -1.0577 -0.4907 -0.2046
  969MOL0     C27816   3.296  -0.584  10.248 -0.0318  0.6573 -0.1842
  969MOL0     C27817   3.190  -0.501  10.327 -0.1594  0.1915  0.2544
  969MOL0     C27818   3.052  -0.521  10.262  0.0622  0.5991 -0.0006
  969MOL0     C27819   2.955  -0.432  10.327  0.6242 -1.0861 -0.4451
  969MOL0    Cl27820   2.786  -0.476  10.267 -0.3894  0.2554 -0.0985
  969MOL0     C27821   3.748  -0.406  10.815 -0.1799 -0.2966 -0.0057
  969MOL0     C27822   3.812  -0.285  10.806 -0.2948 -0.2153  0.3083
  969MOL0     O27823   4.154  -0.224  10.880  0.3547 -0.1534  0.1174
  969MOL0     C27824   4.151   0.096  10.714 -0.0427 -0.3809  0.4407
  969MOL0     C27825   4.222   0.216  10.705  0.1573  0.1888 -0.7104
  969MOL0     N27826   5.062   0.279  10.614 -0.4139 -0.4118 -1.0283
  969MOL0     N27827   5.172   0.247  10.562 -0.3240  0.7628 -0.5557
  969MOL0     C27828   6.112   0.301  10.258  0.4378  0.5284  0.1496
  969MOL0     C27829   6.238   0.260  10.302  0.3555 -0.1257 -0.3720
  969MOL0     C27830   6.718   0.199  10.290 -0.6516  0.3921  0.7528
  969MOL0     C27831   6.845   0.255  10.288  0.2369  0.2635  0.2935
  969MOL0     C27832   6.961   0.187  10.321  0.6028 -0.2908 -0.2756
  969MOL0     C27833   6.950   0.049  10.356  0.0739 -0.0492  0.6625
  969MOL0     O27834   7.053  -0.027  10.397  0.5420  0.4727 -0.0226
  969MOL0     C27835   7.179   0.025  10.446  0.0297 -0.1236  0.4226
  969MOL0     C27836   7.264  -0.096  10.492 -0.5527  0.7416 -0.3233
  969MOL0     C27837   7.396  -0.061  10.570 -0.1874  0.4528  0.3483
  969MOL0     C27838   7.510   0.007  10.496 -0.7649 -1.2869  0.5981
  969MOL0     C27839   7.537  -0.062  10.374 -0.5957  0.0383  0.6512
  969MOL0     C27840   7.571  -0.129  10.276  0.1312  0.1722  0.6088
  969MOL0     C27841   6.824  -0.011  10.331 -0.2188  1.0874  0.3739
  969MOL0     C27842   6.710   0.061  10.306 -0.3937  0.4945 -0.5481
  969MOL0     H27843   6.420   0.265  10.039 -0.2418  0.7036 -0.1345
  969MOL0     H27844   6.207   0.353   9.935 -0.6787 -0.4099 -0.4287
  969MOL0     H27845   5.981   0.421   9.898 -0.9622 -0.5303 -0.2600
  969MOL0     H27846   5.843   0.480   9.979 -1.9565 -1.4824 -2.4270
  969MOL0     H27847   5.905   0.189   9.947  0.1402  0.8702  2.1615
  969MOL0     H27848   5.798   0.270   9.827 -1.1920 -1.3605 -0.1044
  969MOL0     H27849   5.727   0.265  10.137 -1.9565  2.3833 -0.4508
  969MOL0     H27850   5.681   0.130  10.036 -1.4130  0.4709 -0.3245
  969MOL0     H27851   5.636   0.407   9.913 -1.0213 -0.8014 -1.5963
  969MOL0     H27852   5.539   0.264   9.912  1.1943 -3.1703  1.3897
  969MOL0     H27853   5.430   0.454  10.038  0.7588 -0.3040 -0.3640
  969MOL0     H27854   5.569   0.464  10.135  0.1687 -1.5217  2.7280
  969MOL0     H27855   5.527   0.235  10.229  2.4093  0.2343 -1.7991
  969MOL0     H27856   5.401   0.214  10.104 -1.6786  0.7448  0.5287
  969MOL0     H27857   5.392   0.410  10.332  1.6552  0.1102 -1.3057
  969MOL0     H27858   5.268   0.387  10.200  0.2369 -0.4735 -0.9929
  969MOL0     H27859   5.341   0.176  10.402 -0.4774 -0.2579 -0.4513
  969MOL0     H27860   5.248   0.142  10.252 -1.2483 -1.0055  1.2526
  969MOL0     H27861   4.979   0.294  10.300 -0.6576 -0.5300 -0.4466
  969MOL0     H27862   4.781   0.184  10.471  1.0805  0.6075 -1.0528
  969MOL0     H27863   4.764   0.358  10.475 -0.2937 -1.5265 -2.1217
  969MOL0     H27864   4.781   0.394  10.701 -1.7775 -0.4641  1.7305
  969MOL0     H27865   4.805   0.229  10.742  2.2025 -0.6598 -2.1304
  969MOL0     H27866   4.571   0.358  10.577 -3.3322 -4.1179 -2.1710
  969MOL0     H27867   4.567   0.198  10.651  0.6876 -1.1515  0.8925
  969MOL0     H27868   4.577   0.452  10.822  2.8078  0.5197 -1.8991
  969MOL0     H27869   4.588   0.291  10.872  0.8929  1.4822  0.1910
  969MOL0     H27870   4.452   0.142  10.955  0.4579  1.4988  0.3361
  969MOL0     H27871   4.324  -0.053  10.972  3.6998 -1.4664 -2.6276
  969MOL0     H27872   4.042  -0.332  10.575  0.6965 -3.2291  0.1982
  969MOL0     H27873   3.924  -0.560  10.580  3.1999  1.2855 -0.0609
  969MOL0     H27874   3.533  -0.512  10.695 -0.2646 -0.0146 -0.6056
  969MOL0     H27875   3.529  -0.693  10.683  2.3681 -1.7150 -3.2238
  969MOL0     H27876   3.628  -0.678  10.463 -0.5373  0.2289  0.2564
  969MOL0     H27877   3.629  -0.495  10.485  2.2287 -0.5886 -3.7506
  969MOL0     H27878   3.379  -0.517  10.518  0.8086  2.6278 -3.0139
  969MOL0     H27879   3.397  -0.687  10.476 -0.1392 -0.6315 -1.8373
  969MOL0     H27880   3.468  -0.459  10.287 -1.2572 -0.0532  1.0458
  969MOL0     H27881   3.501  -0.623  10.264  1.4298  2.3994 -0.6958
  969MOL0     H27882   3.282  -0.692  10.257  4.7681 -0.2454 -0.8026
  969MOL0     H27883   3.291  -0.551  10.144 -0.4363 -0.7071 -0.6167
  969MOL0     H27884   3.224  -0.397  10.317 -0.7299  0.1745 -2.9861
  969MOL0     H27885   3.180  -0.530  10.432  1.6181 -2.2247 -0.1614
  969MOL0     H27886   3.059  -0.499  10.155 -1.4848  4.1757  0.4736
  969MOL0     H27887   3.015  -0.623  10.265  0.6319  0.3555  3.4254
  969MOL0     H27888   2.965  -0.324  10.312 -1.2385 -1.0369 -1.6395
  969MOL0     H27889   2.971  -0.445  10.435  2.2535  3.3008  0.0363
  969MOL0     H27890   3.656  -0.411  10.872 -1.7562 -0.1575 -2.4023
  969MOL0     H27891   3.766  -0.198  10.852 -0.5394  1.0698 -2.1814
  969MOL0     H27892   4.069   0.084  10.644  0.6374 -3.1609  0.0035
  969MOL0     H27893   4.193   0.296  10.638  1.3743  1.5287  0.2974
  969MOL0     H27894   6.027   0.297  10.326 -1.6690 -0.7602 -2.3510
  969MOL0     H27895   6.250   0.239  10.408  1.2229  1.0042 -0.2322
  969MOL0     H27896   6.847   0.362  10.268 -0.5117  0.0967 -0.7454
  969MOL0     H27897   7.058   0.236  10.325 -0.2660  1.4262  1.4765
  969MOL0     H27898   7.149   0.087  10.531  0.0888 -0.9663  1.0816
  969MOL0     H27899   7.235   0.078  10.368  1.1639 -2.0001 -0.1091
  969MOL0     H27900   7.205  -0.154  10.563 -1.1532 -1.2244 -2.3247
  969MOL0     H27901   7.288  -0.161  10.407  1.9625  0.4005  0.5521
  969MOL0     H27902   7.435  -0.157  10.604  0.7783 -0.6609 -3.4777
  969MOL0     H27903   7.365   0.003  10.653  1.2297  0.9526  0.5161
  969MOL0     H27904   7.492   0.115  10.485  1.6835 -0.5928  2.4552
  969MOL0     H27905   7.601  -0.007  10.556 -1.4908 -2.1560  1.5289
  969MOL0     H27906   7.584  -0.193  10.191 -1.9418 -1.7906  1.6564
  969MOL0     H27907   6.814  -0.115  10.361  0.8540  0.1195 -2.3131
  969MOL0     H27908   6.611   0.017  10.306  0.3583 -1.3196  1.4184
  970MOL0     O27909   5.575   8.733   7.847 -0.0760  0.2699 -0.4769
  970MOL0     C27910   5.639   8.781   7.750  0.3039 -0.2879  0.2815
  970MOL0     O27911   5.652   8.910   7.718 -0.3867  0.3207 -0.1873
  970MOL0     C27912   5.585   8.998   7.795 -0.7463  0.1966  0.3890
  970MOL0     C27913   5.660   9.083   7.880 -0.2798 -0.5663 -0.0618
  970MOL0     C27914   5.602   9.182   7.956 -0.2892  0.2835 -0.4612
  970MOL0     C27915   5.462   9.196   7.956 -0.5444  0.1063  0.3788
  970MOL0     O27916   5.398   9.297   8.027  0.8557 -0.1577  0.5439
  970MOL0     C27917   5.425   9.310   8.170  0.5806 -0.1211  0.0508
  970MOL0     C27918   5.325   9.220   8.245 -0.2275 -0.2899 -0.0772
  970MOL0     C27919   5.303   9.270   8.394 -1.0472  0.2700 -0.8520
  970MOL0     C27920   5.233   9.401   8.414  0.0365  0.7412  0.7606
  970MOL0     C27921   5.218   9.432   8.560  0.8643 -0.7090 -0.0379
  970MOL0     C27922   5.150   9.577   8.586  0.0556 -0.5568  0.5834
  970MOL0     C27923   5.110   9.589   8.736 -0.6940 -0.4116  1.0582
  970MOL0     C27924   5.111   9.736   8.783  1.2829 -0.1857 -0.7230
  970MOL0     N27925   5.025   9.833   8.712 -0.9006 -0.1605 -0.0240
  970MOL0     C27926   4.933   9.912   8.774 -1.1940 -0.9512 -0.1812
  970MOL0     C27927   4.913  10.012   8.683  0.4330 -1.0017 -0.5542
  970MOL0     C27928   4.821  10.138   8.689 -0.0896  0.7183  0.7872
  970MOL0     C27929   4.881  10.253   8.763  0.0712 -0.2939  0.9485
  970MOL0     C27930   4.980  10.205   8.878  0.4608  0.1470  0.1084
  970MOL0     C27931   5.034  10.324   8.951  0.3792 -0.2354  0.3021
  970MOL0     O27932   5.124  10.271   9.057  0.0635  0.6122 -0.2239
  970MOL0     C27933   5.253  10.244   9.022 -0.2402 -0.4675 -0.6127
  970MOL0     C27934   5.305  10.127   9.064  0.7367 -0.1446  1.0356
  970MOL0     C27935   5.426  10.065   9.011  0.1670  0.2059 -0.7541
  970MOL0     C27936   5.511  10.152   8.932  0.3671  0.6093  0.4048
  970MOL0     C27937   5.630  10.101   8.861 -0.3190 -0.1104 -1.3742
  970MOL0     O27938   5.699  10.196   8.799  1.1490 -0.5360 -0.8395
  970MOL0     C27939   5.786  10.165   8.695 -0.5175 -0.0354  0.7038
  970MOL0     C27940   5.853  10.277   8.649 -0.2000 -0.3625  1.0873
  970MOL0     C27941   5.949  10.263   8.548  0.1180  0.2652  0.4199
  970MOL0     C27942   5.987  10.141   8.495 -0.6720 -0.2392 -0.4444
  970MOL0     O27943   6.099  10.129   8.414 -0.5183 -0.2612 -0.3299
  970MOL0     C27944   6.167  10.001   8.427 -1.1840 -0.0617 -0.2894
  970MOL0     C27945   6.322  10.021   8.429 -0.1659 -0.0080  0.5560
  970MOL0     C27946   6.392   9.883   8.390 -0.6493 -0.7476 -0.5759
  970MOL0     C27947   6.544   9.912   8.381  0.3800 -0.3032  0.1605
  970MOL0     C27948   6.625   9.782   8.375 -0.0646  0.0648 -0.1843
  970MOL0     C27949   6.779   9.795   8.392  1.8011 -0.2033 -0.7098
  970MOL0     C27950   6.847   9.655   8.376 -0.7719 -0.0454  0.1350
  970MOL0     C27951   6.994   9.649   8.360 -0.6098  0.2362  0.6710
  970MOL0    Cl27952   7.067   9.482   8.384 -0.2192  0.3531  0.0582
  970MOL0     C27953   5.911  10.032   8.528 -0.2965  1.3459  0.0846
  970MOL0     C27954   5.815  10.045   8.630  0.2152 -0.1195 -0.5507
  970MOL0     O27955   5.658   9.982   8.866  0.3920 -0.0408  0.2629
  970MOL0     C27956   5.465  10.283   8.913 -0.4032  0.5454 -0.3465
  970MOL0     C27957   5.341  10.328   8.952 -0.4188  0.3903  0.7745
  970MOL0     N27958   4.986   9.985   8.566 -1.0506  0.1238  0.3074
  970MOL0     N27959   5.066   9.893   8.595  0.2013 -0.2107  0.0147
  970MOL0     C27960   5.389   9.117   7.865 -0.1566 -0.1009 -0.5914
  970MOL0     C27961   5.451   9.019   7.789 -0.4365 -0.3716  0.2767
  970MOL0     C27962   5.712   8.685   7.672  0.0940 -0.0472  0.2125
  970MOL0     C27963   5.699   8.544   7.693  0.3898  1.0634  0.8265
  970MOL0     C27964   5.769   8.451   7.611 -0.2783 -0.0254  0.3311
  970MOL0     C27965   5.853   8.502   7.515 -0.6721  0.6559 -0.0723
  970MOL0     O27966   5.919   8.422   7.423  0.6245  0.4880  0.2105
  970MOL0     C27967   5.889   8.275   7.415  0.6590 -0.9373  0.2657
  970MOL0     C27968   6.001   8.206   7.347 -0.0306 -0.1870  0.1350
  970MOL0     C27969   6.140   8.242   7.395  0.7962  0.3080 -0.4982
  970MOL0     C27970   6.251   8.170   7.322  0.7164 -0.1393 -0.0611
  970MOL0     C27971   6.251   8.030   7.339  0.2990  0.9580 -0.3395
  970MOL0     C27972   6.267   7.910   7.366  0.2114  0.0345 -0.1082
  970MOL0     C27973   5.875   8.638   7.494  0.5710 -0.6772 -0.5859
  970MOL0     C27974   5.806   8.728   7.574 -0.5971  0.2111  0.1241
  970MOL0     H27975   5.768   9.073   7.888 -0.2736  0.0725  0.7809
  970MOL0     H27976   5.657   9.250   8.020  2.1213 -0.4897 -1.5997
  970MOL0     H27977   5.397   9.410   8.204 -1.6565 -1.3218  2.0625
  970MOL0     H27978   5.526   9.277   8.197  0.0254 -0.4400  1.9342
  970MOL0     H27979   5.377   9.124   8.241  1.6916  0.7445 -1.0185
  970MOL0     H27980   5.231   9.219   8.188  0.4681  2.4309 -1.4057
  970MOL0     H27981   5.401   9.261   8.440 -1.4909 -0.2647  0.0165
  970MOL0     H27982   5.241   9.201   8.452  0.4981 -0.7100 -0.3236
  970MOL0     H27983   5.299   9.476   8.369 -2.7851  2.4433 -0.8516
  970MOL0     H27984   5.140   9.395   8.358 -1.1636 -0.9097  2.8023
  970MOL0     H27985   5.319   9.436   8.601  1.4420  3.9047 -1.2920
  970MOL0     H27986   5.158   9.355   8.608 -1.3906  2.1870  2.1510
  970MOL0     H27987   5.060   9.600   8.529  1.8220  1.4007 -1.6442
  970MOL0     H27988   5.225   9.654   8.564  0.3590 -1.1301 -0.4463
  970MOL0     H27989   5.012   9.543   8.746 -0.8500 -0.0148  1.3530
  970MOL0     H27990   5.186   9.534   8.792 -1.0792 -0.1338  1.8576
  970MOL0     H27991   5.213   9.775   8.770  1.2148 -0.5015 -2.3821
  970MOL0     H27992   5.078   9.733   8.887 -1.7199 -1.1273 -1.5949
  970MOL0     H27993   4.887   9.908   8.872  2.4343 -0.7799  1.7134
  970MOL0     H27994   4.732  10.092   8.733  0.5805 -1.1655  0.2744
  970MOL0     H27995   4.784  10.176   8.593 -1.2973 -0.5376  0.7235
  970MOL0     H27996   4.797  10.310   8.805 -1.3521 -0.6335 -1.2431
  970MOL0     H27997   4.936  10.318   8.695 -0.6532  0.3358  0.9393
  970MOL0     H27998   4.936  10.138   8.952  0.0696  0.9262  0.5994
  970MOL0     H27999   5.067  10.157   8.832  0.2666 -0.8132  0.7196
  970MOL0     H28000   4.955  10.384   8.996  1.0003  2.6927 -2.2369
  970MOL0     H28001   5.086  10.393   8.884 -1.0567 -0.4011 -1.0475
  970MOL0     H28002   5.229  10.056   9.097 -1.2458  1.9660  1.3099
  970MOL0     H28003   5.442   9.958   9.011  0.9693  0.3252 -1.0521
  970MOL0     H28004   5.823  10.375   8.686 -1.5406 -0.9300  1.5768
  970MOL0     H28005   5.996  10.357   8.520 -0.8568  0.0043 -2.4168
  970MOL0     H28006   6.130   9.930   8.353 -0.3752  0.1894 -0.9512
  970MOL0     H28007   6.151   9.950   8.522  3.3201 -3.3244 -0.9125
  970MOL0     H28008   6.351  10.052   8.531 -2.2777 -0.5669  1.3760
  970MOL0     H28009   6.341  10.097   8.352  0.9374 -0.9078 -0.0870
  970MOL0     H28010   6.351   9.852   8.293 -1.9669  1.4861 -0.8015
  970MOL0     H28011   6.376   9.805   8.465 -1.0073 -1.0391 -0.9492
  970MOL0     H28012   6.551   9.970   8.289 -3.2189  0.2985  0.1041
  970MOL0     H28013   6.579   9.976   8.463 -1.8954  0.2793  0.7718
  970MOL0     H28014   6.593   9.734   8.281 -2.4596 -2.0722  1.5775
  970MOL0     H28015   6.585   9.712   8.449 -3.4748  0.3283 -1.5784
  970MOL0     H28016   6.791   9.834   8.493 -1.4735 -4.1746  1.4612
  970MOL0     H28017   6.822   9.854   8.310  0.3893  1.0842 -0.5672
  970MOL0     H28018   6.823   9.589   8.460 -2.8790  2.2097  1.4460
  970MOL0     H28019   6.802   9.611   8.287 -1.8884  0.6945  0.3130
  970MOL0     H28020   7.051   9.718   8.423 -0.0296  3.1864 -2.6974
  970MOL0     H28021   7.010   9.681   8.256 -1.9600  0.4670  0.5153
  970MOL0     H28022   5.913   9.930   8.491  1.1855  1.7959 -1.1680
  970MOL0     H28023   5.772   9.949   8.659  1.3348 -0.6673 -0.6413
  970MOL0     H28024   5.525  10.354   8.857  0.2565 -0.5448 -1.0531
  970MOL0     H28025   5.311  10.426   8.918 -1.5338 -0.3635 -0.4959
  970MOL0     H28026   5.283   9.140   7.859 -0.3279 -0.1771  1.4600
  970MOL0     H28027   5.399   8.965   7.710 -1.4020  2.7387 -1.3728
  970MOL0     H28028   5.622   8.512   7.763 -1.3292  1.3131 -0.8840
  970MOL0     H28029   5.761   8.347   7.642 -2.1790  0.5118  1.8018
  970MOL0     H28030   5.797   8.263   7.357  0.8926 -1.3496 -0.0241
  970MOL0     H28031   5.858   8.231   7.510  0.3727 -0.5990  0.3314
  970MOL0     H28032   5.980   8.099   7.354  0.1484 -0.1015  3.4948
  970MOL0     H28033   5.991   8.237   7.243  0.2293 -2.0863 -0.4916
  970MOL0     H28034   6.139   8.222   7.502 -5.1686  2.8814  0.3803
  970MOL0     H28035   6.162   8.348   7.380  0.5203  0.2659 -1.2368
  970MOL0     H28036   6.233   8.190   7.216  0.5153  3.6914  0.5382
  970MOL0     H28037   6.345   8.216   7.352 -1.5854  4.0238  1.6234
  970MOL0     H28038   6.300   7.809   7.384  0.8364  0.1145 -0.7667
  970MOL0     H28039   5.945   8.666   7.416 -1.9225 -0.1961 -2.7907
  970MOL0     H28040   5.828   8.832   7.551  1.4168 -0.2495 -0.2976
  971MOL0     O28041   4.061   8.164   0.775  1.0087  0.2991 -0.3020
  971MOL0     C28042   4.060   8.081   0.866 -0.1564 -0.3542  0.8448
  971MOL0     O28043   3.950   8.007   0.901 -0.0032  0.4209 -0.1795
  971MOL0     C28044   3.852   7.990   0.806  0.0663 -0.0466 -0.6992
  971MOL0     C28045   3.878   7.923   0.679  0.4293 -0.5361 -1.3024
  971MOL0     C28046   3.792   7.902   0.577  0.4091 -0.2297  0.4910
  971MOL0     C28047   3.675   7.978   0.589 -0.1565  0.1311  0.8992
  971MOL0     O28048   3.590   7.976   0.477  0.1078  0.0148  0.4802
  971MOL0     C28049   3.599   8.096   0.393 -0.6505 -0.8274 -0.6374
  971MOL0     C28050   3.463   8.117   0.319 -0.4876 -0.6248  0.1075
  971MOL0     C28051   3.346   8.124   0.413  0.2690 -0.2872  0.2290
  971MOL0     C28052   3.216   8.111   0.330  0.5914 -0.3725  0.0535
  971MOL0     C28053   3.084   8.148   0.413  0.1416  0.3116  0.6641
  971MOL0     C28054   3.085   8.089   0.551 -0.4663  0.1421  0.1929
  971MOL0     C28055   2.939   8.068   0.594 -0.5148 -0.0658  0.3937
  971MOL0     C28056   2.873   7.940   0.537  0.9019 -0.3735  0.2502
  971MOL0     N28057   2.737   7.937   0.604  0.1155 -0.1363  0.0469
  971MOL0     C28058   2.710   7.900   0.737 -0.0992  0.4659 -0.0134
  971MOL0     C28059   2.573   7.922   0.758  0.4780  0.0493  0.2171
  971MOL0     C28060   2.484   7.933   0.878  0.7064 -0.3068 -0.0949
  971MOL0     C28061   2.436   7.805   0.932 -0.0082  0.6501 -0.5548
  971MOL0     C28062   2.538   7.693   0.949 -0.1558 -0.9889 -0.4042
  971MOL0     C28063   2.466   7.573   1.006 -0.4217 -0.7342  0.8484
  971MOL0     O28064   2.446   7.604   1.146  0.5121 -0.4036 -0.6471
  971MOL0     C28065   2.342   7.533   1.200 -0.0529  0.1519 -0.3899
  971MOL0     C28066   2.243   7.609   1.255 -0.3741 -0.1699  0.6420
  971MOL0     C28067   2.146   7.550   1.327  0.0052 -0.9504 -0.1910
  971MOL0     C28068   2.134   7.407   1.326 -1.0323 -0.3784  0.2966
  971MOL0     C28069   2.034   7.333   1.408 -0.5045 -0.3224 -0.4789
  971MOL0     O28070   1.986   7.399   1.513 -0.4271 -0.3147  0.1569
  971MOL0     C28071   1.892   7.345   1.595 -0.2050  0.0709  0.0431
  971MOL0     C28072   1.854   7.212   1.628  0.0681 -0.6599  0.2246
  971MOL0     C28073   1.768   7.172   1.733 -0.3149 -0.1442  0.1113
  971MOL0     C28074   1.700   7.272   1.806  0.8503  0.4311 -0.4523
  971MOL0     O28075   1.607   7.245   1.912  0.1431  0.7663  0.3498
  971MOL0     C28076   1.612   7.104   1.962 -0.0486 -0.6450 -1.0188
  971MOL0     C28077   1.535   7.095   2.101 -0.7403 -0.3699  0.2456
  971MOL0     C28078   1.383   7.145   2.093 -0.2348  0.1587  0.1937
  971MOL0     C28079   1.310   7.033   2.017  0.1539 -1.1866  0.0554
  971MOL0     C28080   1.171   7.085   2.002 -0.5163  0.1037 -1.1328
  971MOL0     C28081   1.078   6.984   1.955 -0.5891  0.7953 -0.6415
  971MOL0     C28082   0.931   7.045   1.935  0.0058  0.0349  0.2575
  971MOL0     C28083   0.863   7.096   2.057  0.4604 -0.5177 -0.1836
  971MOL0    Cl28084   0.802   6.951   2.137 -0.2187  0.2498  0.4019
  971MOL0     C28085   1.727   7.405   1.771  0.6004 -0.3542  0.1347
  971MOL0     C28086   1.820   7.434   1.670  0.5763 -0.2139  0.3854
  971MOL0     O28087   1.992   7.224   1.364  0.6404 -0.0154 -0.9848
  971MOL0     C28088   2.230   7.332   1.255  0.1962  0.3036  0.0631
  971MOL0     C28089   2.341   7.399   1.204 -0.3679  0.0688 -0.2517
  971MOL0     N28090   2.516   7.958   0.637 -0.6043  0.4655 -0.2652
  971MOL0     N28091   2.613   7.961   0.537 -0.1708  0.1853 -0.6149
  971MOL0     C28092   3.642   8.047   0.711 -1.3879 -0.3366  0.4048
  971MOL0     C28093   3.725   8.046   0.826  0.7921 -0.4073  0.0877
  971MOL0     C28094   4.179   8.070   0.946  0.0520 -0.8102 -0.6461
  971MOL0     C28095   4.186   7.999   1.073 -0.6116 -0.9319 -0.1620
  971MOL0     C28096   4.297   8.012   1.160 -0.7244 -0.6673 -0.7914
  971MOL0     C28097   4.396   8.098   1.119  0.7944 -0.0438 -0.3752
  971MOL0     O28098   4.510   8.123   1.195 -0.2628 -0.4311  0.2608
  971MOL0     C28099   4.538   8.051   1.327 -0.2434  0.3813  0.2098
  971MOL0     C28100   4.682   8.063   1.386 -0.4742  1.1675  0.0830
  971MOL0     C28101   4.731   8.204   1.406 -0.4191  0.2003  0.3805
  971MOL0     C28102   4.876   8.198   1.462  0.2306 -0.5057 -0.5892
  971MOL0     C28103   4.918   8.329   1.520 -0.5100  0.3550 -0.7828
  971MOL0     C28104   4.948   8.433   1.567  0.1431  0.0648 -0.9289
  971MOL0     C28105   4.392   8.162   1.002  0.4884 -0.0416  0.3284
  971MOL0     C28106   4.289   8.146   0.916 -0.7042 -0.3253  0.2365
  971MOL0     H28107   3.974   7.873   0.676 -0.5480 -2.6498  0.3010
  971MOL0     H28108   3.828   7.840   0.495 -0.1540  0.9834 -0.7265
  971MOL0     H28109   3.675   8.069   0.320 -0.3764 -0.9190 -0.3204
  971MOL0     H28110   3.628   8.185   0.451  3.2609 -1.7418 -0.9008
  971MOL0     H28111   3.449   8.035   0.247 -1.7419  0.4581 -0.9459
  971MOL0     H28112   3.468   8.212   0.266  4.3303 -0.9728 -0.4457
  971MOL0     H28113   3.351   8.218   0.469  1.9181 -1.9266  3.1148
  971MOL0     H28114   3.356   8.045   0.489  1.5655  3.1956  4.0610
  971MOL0     H28115   3.211   8.182   0.247  1.4215 -0.2209  0.1238
  971MOL0     H28116   3.212   8.014   0.281  2.5245  0.4133 -1.8523
  971MOL0     H28117   2.997   8.113   0.357 -1.9615  0.7083  3.4175
  971MOL0     H28118   3.080   8.257   0.418  0.9977  0.3494  0.5376
  971MOL0     H28119   3.144   8.159   0.612  2.5270 -0.9154 -1.2746
  971MOL0     H28120   3.147   8.000   0.564 -1.1177 -0.1337  1.5232
  971MOL0     H28121   2.946   8.044   0.701  1.3923 -1.7195 -0.0448
  971MOL0     H28122   2.874   8.155   0.575  0.0915  0.5579  1.1042
  971MOL0     H28123   2.926   7.846   0.558 -1.4625 -2.2725 -1.6975
  971MOL0     H28124   2.852   7.934   0.430 -0.2673  1.3563  0.3351
  971MOL0     H28125   2.782   7.857   0.806 -0.6216  1.1312  0.9572
  971MOL0     H28126   2.405   8.002   0.846  2.1900  2.9496  2.6004
  971MOL0     H28127   2.537   7.983   0.959  0.7995 -1.8569  0.8294
  971MOL0     H28128   2.367   7.767   0.856  0.4269  0.0078 -0.6332
  971MOL0     H28129   2.381   7.826   1.024  0.7756 -2.0785  0.6392
  971MOL0     H28130   2.589   7.668   0.856 -0.0623  1.0937 -0.9562
  971MOL0     H28131   2.613   7.720   1.025 -1.5990  0.7745  0.4832
  971MOL0     H28132   2.539   7.492   0.994  1.6631  1.2643 -1.1212
  971MOL0     H28133   2.377   7.553   0.946  0.0451 -1.5602  0.4233
  971MOL0     H28134   2.251   7.717   1.245  1.2092 -0.2674  0.6481
  971MOL0     H28135   2.068   7.615   1.366  0.5522  0.9558 -2.0516
  971MOL0     H28136   1.892   7.133   1.565 -2.1259 -0.0230 -2.0247
  971MOL0     H28137   1.744   7.070   1.760 -4.0218  0.5910  0.0397
  971MOL0     H28138   1.714   7.078   1.993  0.0361  1.4227  0.6338
  971MOL0     H28139   1.574   7.034   1.887  2.2847 -1.2733 -1.6811
  971MOL0     H28140   1.596   7.155   2.169  0.6703 -1.0745 -0.3554
  971MOL0     H28141   1.545   6.993   2.139 -0.7114 -1.1870 -1.8225
  971MOL0     H28142   1.375   7.244   2.048  2.7365  1.5676  2.4112
  971MOL0     H28143   1.336   7.154   2.191 -1.3113 -3.2426  0.1381
  971MOL0     H28144   1.366   7.025   1.923  1.7531 -2.6595  1.0840
  971MOL0     H28145   1.317   6.944   2.080  2.1319 -0.4095  1.0186
  971MOL0     H28146   1.175   7.168   1.931 -1.4695  0.8798 -0.3148
  971MOL0     H28147   1.139   7.127   2.098  2.0620 -1.2368  0.4446
  971MOL0     H28148   1.084   6.906   2.032 -0.5604  1.4451  0.0281
  971MOL0     H28149   1.111   6.939   1.861  2.1656  1.5347 -0.1243
  971MOL0     H28150   0.931   7.126   1.862  5.2208 -0.1477 -0.3292
  971MOL0     H28151   0.876   6.959   1.895  2.1449 -1.9383  1.3607
  971MOL0     H28152   0.779   7.163   2.039  0.6454 -0.1131  0.4431
  971MOL0     H28153   0.928   7.156   2.121 -1.2669  0.0917  1.0540
  971MOL0     H28154   1.681   7.479   1.835  1.6820 -1.6369  2.5482
  971MOL0     H28155   1.835   7.538   1.641 -0.0803 -0.4520 -0.8998
  971MOL0     H28156   2.210   7.226   1.260 -0.3022  0.4422  1.8894
  971MOL0     H28157   2.422   7.343   1.159 -0.5426  0.1964 -0.7258
  971MOL0     H28158   3.542   8.090   0.707 -1.6790 -1.0872 -1.4934
  971MOL0     H28159   3.703   8.089   0.923 -0.1242 -0.9132  0.1195
  971MOL0     H28160   4.095   7.950   1.107 -0.0729 -0.8875  1.4706
  971MOL0     H28161   4.297   7.960   1.255  1.8169 -0.6161 -0.6916
  971MOL0     H28162   4.521   7.943   1.323 -1.0633  0.1360  5.0292
  971MOL0     H28163   4.463   8.081   1.401 -0.6087 -0.1839  0.0748
  971MOL0     H28164   4.675   8.009   1.481 -0.8283  0.3727 -0.3856
  971MOL0     H28165   4.754   8.003   1.329 -1.5896  0.6606 -0.8486
  971MOL0     H28166   4.658   8.254   1.472 -1.9633  0.3048 -1.3334
  971MOL0     H28167   4.725   8.260   1.312 -1.1317 -1.0935 -0.3691
  971MOL0     H28168   4.890   8.129   1.546 -0.3203  0.8610  0.6473
  971MOL0     H28169   4.949   8.168   1.385  2.9586  2.0788  0.8061
  971MOL0     H28170   4.962   8.532   1.606 -2.4694 -0.6458  2.1767
  971MOL0     H28171   4.467   8.236   0.977 -0.8996  0.4438 -2.9401
  971MOL0     H28172   4.293   8.212   0.830 -0.4480 -0.6183  0.0212
  972MOL0     O28173   2.745   3.518   9.983  0.2890 -0.3456 -0.2100
  972MOL0     C28174   2.685   3.601  10.052  0.5887 -0.6017 -0.4923
  972MOL0     O28175   2.737   3.718  10.097 -0.5890  0.3087 -0.5771
  972MOL0     C28176   2.857   3.774  10.055 -0.0386  0.4415 -0.2625
  972MOL0     C28177   2.880   3.901  10.112  0.5059 -0.4968  0.1079
  972MOL0     C28178   2.995   3.975  10.087 -0.3282  0.4497 -0.0069
  972MOL0     C28179   3.101   3.916  10.013 -0.0662 -0.4775 -1.2647
  972MOL0     O28180   3.203   4.000   9.979  0.4500 -0.2560 -0.0497
  972MOL0     C28181   3.314   3.954   9.899  0.2138 -0.3580 -0.0622
  972MOL0     C28182   3.434   4.020   9.963 -0.7483 -0.3898  0.4105
  972MOL0     C28183   3.548   4.022   9.867 -0.0199  0.7773 -0.4969
  972MOL0     C28184   3.691   4.041   9.935 -0.0213 -0.0523  0.1211
  972MOL0     C28185   3.803   4.077   9.826 -0.0047  0.2770  0.1876
  972MOL0     C28186   3.947   4.068   9.883  0.3442  1.0027  0.2658
  972MOL0     C28187   4.024   4.202   9.877 -0.1530  0.0150 -0.0873
  972MOL0     C28188   4.177   4.182   9.899  0.0574  0.3991 -0.4693
  972MOL0     N28189   4.241   4.120   9.781  0.1640  0.0387 -0.6791
  972MOL0     C28190   4.291   4.179   9.667 -0.3370  0.7758  0.2896
  972MOL0     C28191   4.346   4.082   9.592  0.3977  1.3516 -0.9900
  972MOL0     C28192   4.429   4.103   9.472 -0.1998  0.3551 -0.2809
  972MOL0     C28193   4.344   4.165   9.358  0.2989  0.7285  0.4735
  972MOL0     C28194   4.425   4.165   9.222 -0.4526 -0.1076 -0.4856
  972MOL0     C28195   4.494   4.297   9.182  0.0459 -0.6491  0.0760
  972MOL0     O28196   4.397   4.410   9.189  0.6056 -0.3990 -0.1272
  972MOL0     C28197   4.283   4.392   9.108  0.3897  0.1061 -0.2213
  972MOL0     C28198   4.305   4.383   8.969  0.9943 -0.1335  0.1121
  972MOL0     C28199   4.201   4.373   8.880  0.6995  0.3295 -0.3784
  972MOL0     C28200   4.067   4.383   8.924 -0.2072 -0.1565  0.8183
  972MOL0     C28201   3.959   4.399   8.832  0.2808 -0.5848 -0.5617
  972MOL0     O28202   3.839   4.372   8.888 -0.1304  0.7937  0.1753
  972MOL0     C28203   3.733   4.402   8.811  0.5054  0.5792 -0.6653
  972MOL0     C28204   3.645   4.503   8.853 -0.7439 -0.0436 -0.0142
  972MOL0     C28205   3.530   4.552   8.779 -0.0755  0.6145  0.9550
  972MOL0     C28206   3.502   4.477   8.654 -0.1189  0.3972  0.1762
  972MOL0     O28207   3.405   4.511   8.562  0.8836 -0.8463 -1.0525
  972MOL0     C28208   3.275   4.519   8.623  0.7351  0.5424 -0.4989
  972MOL0     C28209   3.168   4.512   8.507 -0.5747  0.5271 -0.2150
  972MOL0     C28210   3.023   4.532   8.566 -0.5876 -1.4698  0.8375
  972MOL0     C28211   2.910   4.503   8.475  1.2629  0.9075 -0.7154
  972MOL0     C28212   2.772   4.525   8.533 -1.1672  0.1595  0.3888
  972MOL0     C28213   2.759   4.471   8.674  0.7141 -0.4946 -0.4610
  972MOL0     C28214   2.607   4.476   8.703  0.1842  0.1657  0.1717
  972MOL0     C28215   2.549   4.618   8.712 -0.3901  0.3726  0.1473
  972MOL0    Cl28216   2.373   4.615   8.731  0.2461 -0.0899  0.2365
  972MOL0     C28217   3.576   4.364   8.624  0.8868 -0.7099 -0.3633
  972MOL0     C28218   3.695   4.332   8.697 -0.4465 -0.2008 -0.1020
  972MOL0     O28219   3.982   4.444   8.720  0.4045  0.6989 -0.4126
  972MOL0     C28220   4.055   4.385   9.059  0.1697  0.0318 -0.0629
  972MOL0     C28221   4.157   4.380   9.154 -0.0537  0.6839  0.7260
  972MOL0     N28222   4.325   3.956   9.646  0.0393  0.2086 -0.5967
  972MOL0     N28223   4.260   3.985   9.762 -0.7852 -0.7688  0.3384
  972MOL0     C28224   3.083   3.792   9.961  0.0108  0.6117  0.4493
  972MOL0     C28225   2.967   3.715   9.990  0.3525  0.4914  0.6965
  972MOL0     C28226   2.535   3.597  10.059  0.3288  0.4916 -0.6030
  972MOL0     C28227   2.466   3.486  10.017 -0.5828  0.2551  0.7258
  972MOL0     C28228   2.327   3.480  10.007  0.0423  0.6790 -0.4141
  972MOL0     C28229   2.247   3.586  10.041  0.1650  0.2154 -0.4094
  972MOL0     O28230   2.114   3.563  10.029 -0.0268  0.1237 -0.0233
  972MOL0     C28231   2.017   3.665  10.070 -0.1210 -0.2788 -0.3730
  972MOL0     C28232   1.883   3.632   9.995 -0.0816 -0.0255  0.8221
  972MOL0     C28233   1.825   3.498  10.026  0.1881 -0.0477 -0.2909
  972MOL0     C28234   1.685   3.475   9.983 -0.6347 -0.1473  0.5596
  972MOL0     C28235   1.599   3.524  10.085 -0.2986  0.3565 -0.0018
  972MOL0     C28236   1.536   3.540  10.185 -0.3484  0.3817  0.3215
  972MOL0     C28237   2.313   3.702  10.089  0.2140  0.6018  0.7109
  972MOL0     C28238   2.451   3.711  10.089  0.0591  0.1327 -0.3570
  972MOL0     H28239   2.793   3.945  10.159 -0.5403 -1.1514 -1.1734
  972MOL0     H28240   3.009   4.077  10.120  0.2408  0.5504 -0.5518
  972MOL0     H28241   3.287   4.003   9.805  0.5205  0.8489  0.4689
  972MOL0     H28242   3.337   3.847   9.899  2.5736  0.0811  0.5213
  972MOL0     H28243   3.456   3.959  10.052 -2.3009  0.7546  1.6418
  972MOL0     H28244   3.399   4.118   9.997 -0.3888  0.7036 -2.1826
  972MOL0     H28245   3.541   4.097   9.789  0.4918 -0.8087 -2.1278
  972MOL0     H28246   3.547   3.930   9.808  2.0385  0.7268 -0.5158
  972MOL0     H28247   3.694   4.120  10.010 -0.5985 -0.6360  0.7727
  972MOL0     H28248   3.719   3.951   9.991 -2.4307  1.1820  3.6309
  972MOL0     H28249   3.778   4.180   9.797 -0.6153  0.5528  1.5902
  972MOL0     H28250   3.800   4.016   9.735  1.5586  1.7111 -0.9039
  972MOL0     H28251   3.995   3.991   9.822 -4.5139 -2.8086  0.5748
  972MOL0     H28252   3.955   4.031   9.985 -2.5113  2.9701  1.3476
  972MOL0     H28253   4.008   4.249   9.780  1.7461 -0.7316 -0.8102
  972MOL0     H28254   3.988   4.266   9.958  0.3377  3.2191 -2.1986
  972MOL0     H28255   4.187   4.126   9.993  0.2563  2.0521  0.5266
  972MOL0     H28256   4.214   4.284   9.913  2.5979 -0.5150  0.1704
  972MOL0     H28257   4.292   4.283   9.633  2.2689  0.6338 -0.2679
  972MOL0     H28258   4.465   4.005   9.440  0.0690  0.0301  0.9775
  972MOL0     H28259   4.520   4.158   9.499  0.2024 -0.5930  0.3203
  972MOL0     H28260   4.298   4.260   9.384 -0.5455  0.1345  1.1642
  972MOL0     H28261   4.265   4.091   9.341  1.8589 -0.9800  0.1736
  972MOL0     H28262   4.515   4.105   9.236 -1.4345 -1.2697  1.1057
  972MOL0     H28263   4.359   4.134   9.141  1.3137 -0.8844 -1.6892
  972MOL0     H28264   4.526   4.292   9.078 -0.8868  0.1320 -0.2725
  972MOL0     H28265   4.579   4.317   9.248  1.3755 -1.7094 -1.2406
  972MOL0     H28266   4.409   4.379   8.941  0.4847  0.2448 -2.0313
  972MOL0     H28267   4.217   4.352   8.774 -1.1129  0.7898 -0.7719
  972MOL0     H28268   3.669   4.539   8.953 -2.4657 -0.2160  0.4925
  972MOL0     H28269   3.475   4.641   8.808  1.6264  1.9589  0.2325
  972MOL0     H28270   3.264   4.610   8.683  3.0091 -0.3293  1.4003
  972MOL0     H28271   3.245   4.441   8.693 -1.0963  0.8221 -0.9148
  972MOL0     H28272   3.187   4.414   8.462 -2.2851  0.5622 -1.1043
  972MOL0     H28273   3.189   4.579   8.422 -2.3484 -0.5205 -1.5477
  972MOL0     H28274   3.010   4.632   8.610 -1.0248 -1.7902  1.4501
  972MOL0     H28275   3.010   4.472   8.656 -1.2247  0.9010  2.4391
  972MOL0     H28276   2.920   4.553   8.379 -0.0892 -1.7616 -2.3532
  972MOL0     H28277   2.923   4.395   8.463  0.4478  0.6859  0.2620
  972MOL0     H28278   2.725   4.453   8.466  3.8030 -1.5650 -1.7503
  972MOL0     H28279   2.731   4.626   8.529 -2.8225 -0.2801  3.2274
  972MOL0     H28280   2.813   4.539   8.740  1.6538  0.2048 -1.8991
  972MOL0     H28281   2.805   4.372   8.683 -2.1474 -1.7907  1.1734
  972MOL0     H28282   2.559   4.404   8.636  0.4793  0.9525 -0.9123
  972MOL0     H28283   2.593   4.434   8.803  1.4994  3.0154  1.6776
  972MOL0     H28284   2.573   4.673   8.621  1.9466  1.7518  1.4777
  972MOL0     H28285   2.597   4.681   8.788  0.0717  0.8413 -0.5239
  972MOL0     H28286   3.538   4.318   8.533 -1.3814 -0.3433  0.3464
  972MOL0     H28287   3.743   4.245   8.653 -1.1260  0.3042 -1.9801
  972MOL0     H28288   3.960   4.387   9.112  0.2895 -1.8466  0.2902
  972MOL0     H28289   4.135   4.375   9.260 -1.0868 -0.9432  0.4827
  972MOL0     H28290   3.146   3.745   9.886  0.8909  0.8847  0.9929
  972MOL0     H28291   2.954   3.617   9.946  1.2754  1.6446 -2.4594
  972MOL0     H28292   2.512   3.396   9.977 -2.5214 -1.4688  2.1451
  972MOL0     H28293   2.269   3.393   9.978 -2.0131  1.3438  1.4703
  972MOL0     H28294   2.051   3.762  10.033  1.1372 -0.9119 -0.9303
  972MOL0     H28295   1.999   3.676  10.177  1.6999 -0.0168 -0.0629
  972MOL0     H28296   1.808   3.709  10.016 -0.9818 -0.9557  1.1065
  972MOL0     H28297   1.905   3.627   9.888  1.2432 -0.1077  1.0752
  972MOL0     H28298   1.831   3.478  10.133  2.3456  1.2777 -0.1002
  972MOL0     H28299   1.893   3.425   9.979  1.7479 -0.3100  2.2016
  972MOL0     H28300   1.648   3.512   9.887  0.5918 -0.6704 -0.1388
  972MOL0     H28301   1.678   3.366   9.985 -0.0374 -0.1962  2.7056
  972MOL0     H28302   1.484   3.544  10.278 -1.8958 -3.5374 -0.1901
  972MOL0     H28303   2.251   3.790  10.104 -1.1540  0.4458 -2.9528
  972MOL0     H28304   2.497   3.802  10.125  2.4649  0.1002 -3.0675
  973MOL0     O28305   1.221  11.186   2.492 -0.3546 -0.0835 -0.4208
  973MOL0     C28306   1.184  11.171   2.379 -0.1422 -0.2377  0.4376
  973MOL0     O28307   1.236  11.224   2.269 -0.5167  0.7107  0.2602
  973MOL0     C28308   1.369  11.221   2.257  0.1690 -1.0454  0.2325
  973MOL0     C28309   1.461  11.156   2.341 -0.2093 -0.1994  0.2684
  973MOL0     C28310   1.600  11.153   2.315  0.0586 -0.8385 -0.7388
  973MOL0     C28311   1.652  11.228   2.201 -0.2416 -0.3741 -0.1719
  973MOL0     O28312   1.784  11.250   2.175 -0.1279  0.5573  0.1482
  973MOL0     C28313   1.878  11.251   2.287  0.0281  0.7630  0.2694
  973MOL0     C28314   1.989  11.343   2.249 -0.6040 -0.1617 -0.1372
  973MOL0     C28315   2.100  11.343   2.357 -0.4681  1.0405 -0.6465
  973MOL0     C28316   2.229  11.296   2.301 -0.4953 -0.0023  0.0204
  973MOL0     C28317   2.350  11.269   2.400  1.0125  0.0870  0.0617
  973MOL0     C28318   2.425  11.400   2.425 -0.4817  0.0696 -0.9286
  973MOL0     C28319   2.516  11.409   2.553  0.4417  0.4412  0.3890
  973MOL0     C28320   2.580  11.269   2.598 -0.4593 -0.1516  0.2844
  973MOL0     N28321   2.680  11.212   2.500 -0.4993  0.6490 -0.3056
  973MOL0     C28322   2.798  11.272   2.462  0.8452 -0.5112  0.1881
  973MOL0     C28323   2.858  11.181   2.383  0.2017 -0.3848 -0.0581
  973MOL0     C28324   2.973  11.220   2.304 -0.2750  0.0325 -0.0765
  973MOL0     C28325   2.940  11.230   2.156 -0.7462 -0.0729  0.5019
  973MOL0     C28326   3.066  11.233   2.066  0.5203 -0.5301 -0.2880
  973MOL0     C28327   3.049  11.176   1.925 -0.3550 -0.1146 -0.8473
  973MOL0     O28328   2.941  11.229   1.862  0.3174 -0.0763 -0.4959
  973MOL0     C28329   2.818  11.164   1.859 -0.0629 -0.5512 -1.2328
  973MOL0     C28330   2.700  11.252   1.848  0.3634 -0.4539  0.9565
  973MOL0     C28331   2.573  11.203   1.855  0.4963  0.6401 -0.0746
  973MOL0     C28332   2.541  11.062   1.869 -0.1640 -0.1987  0.0353
  973MOL0     C28333   2.399  11.011   1.853 -0.3863  0.0968  0.5441
  973MOL0     O28334   2.307  11.094   1.799  1.0011 -0.0228 -0.2617
  973MOL0     C28335   2.178  11.041   1.775  0.2262 -0.0244 -0.8861
  973MOL0     C28336   2.164  10.936   1.684 -0.0269 -0.0646  0.5800
  973MOL0     C28337   2.052  10.852   1.671  0.0221  0.3453 -0.1308
  973MOL0     C28338   1.929  10.896   1.732 -0.4824 -0.3954  0.3565
  973MOL0     O28339   1.805  10.836   1.728 -0.2190  0.1915  0.5542
  973MOL0     C28340   1.783  10.741   1.626 -0.4063 -0.2214 -0.3572
  973MOL0     C28341   1.643  10.698   1.645 -0.4477  1.0081 -0.6846
  973MOL0     C28342   1.596  10.590   1.545 -0.8478 -0.8910 -0.4469
  973MOL0     C28343   1.683  10.466   1.529 -0.8573  0.6388  0.1583
  973MOL0     C28344   1.628  10.344   1.450 -0.3408  0.1080 -0.4701
  973MOL0     C28345   1.730  10.285   1.360 -0.1559  0.1850 -0.0328
  973MOL0     C28346   1.654  10.203   1.260 -0.1435 -0.0617  0.4218
  973MOL0     C28347   1.598  10.061   1.315  1.3266 -0.0551 -0.0448
  973MOL0    Cl28348   1.730   9.953   1.353 -0.5426  0.5083 -0.0237
  973MOL0     C28349   1.931  11.008   1.818  0.7342 -0.0113 -0.6116
  973MOL0     C28350   2.058  11.085   1.843  0.0172 -0.1855  0.7137
  973MOL0     O28351   2.387  10.895   1.883 -0.2605  0.0289  0.0995
  973MOL0     C28352   2.649  10.985   1.872 -0.3609 -0.3700  0.3775
  973MOL0     C28353   2.782  11.031   1.880 -0.8248  0.5869 -0.5372
  973MOL0     N28354   2.784  11.064   2.379  0.0631 -0.9284 -0.5644
  973MOL0     N28355   2.683  11.080   2.453  0.9258 -0.1958  0.4474
  973MOL0     C28356   1.563  11.290   2.115 -0.2488 -0.1206 -0.2822
  973MOL0     C28357   1.427  11.293   2.152 -0.0132  0.1497 -0.2625
  973MOL0     C28358   1.046  11.116   2.364 -0.8209  0.4459  0.6718
  973MOL0     C28359   0.980  11.074   2.477 -0.1226  0.1370 -0.3098
  973MOL0     C28360   0.850  11.019   2.461 -0.7009 -0.4703  0.0316
  973MOL0     C28361   0.787  11.018   2.334 -0.2069 -0.4000 -0.3240
  973MOL0     O28362   0.658  10.986   2.326  0.5621  0.4505  1.2933
  973MOL0     C28363   0.558  11.071   2.255 -0.3171  0.4757 -0.2529
  973MOL0     C28364   0.445  10.990   2.182  0.3662  0.1699  0.2794
  973MOL0     C28365   0.407  11.079   2.060  0.7628  0.4652 -0.2893
  973MOL0     C28366   0.335  11.209   2.116 -0.5294  0.3675  0.2664
  973MOL0     C28367   0.307  11.283   1.995  0.1443 -0.3975 -0.0225
  973MOL0     C28368   0.277  11.323   1.883 -0.7296  0.0415 -0.1446
  973MOL0     C28369   0.859  11.066   2.220  0.9938 -0.8220 -0.4408
  973MOL0     C28370   0.989  11.110   2.233 -0.0870 -0.0365 -0.2751
  973MOL0     H28371   1.435  11.097   2.429 -0.9506 -0.6363 -0.2418
  973MOL0     H28372   1.676  11.104   2.374 -0.8904 -2.0972 -0.5058
  973MOL0     H28373   1.900  11.145   2.303 -3.5276 -0.5194 -2.1393
  973MOL0     H28374   1.833  11.291   2.379  2.8176  1.4320  1.4483
  973MOL0     H28375   1.943  11.442   2.243 -2.7005 -1.1589 -2.1421
  973MOL0     H28376   2.027  11.313   2.151  2.1815  1.5568  0.3090
  973MOL0     H28377   2.077  11.291   2.451  1.9670  3.1593  1.2824
  973MOL0     H28378   2.112  11.445   2.394 -0.5026  0.1643  2.0612
  973MOL0     H28379   2.195  11.202   2.257 -0.8264 -1.3132  2.8585
  973MOL0     H28380   2.249  11.353   2.210  0.3608  1.3486  1.0079
  973MOL0     H28381   2.419  11.189   2.369  1.7762  0.4668  0.7422
  973MOL0     H28382   2.300  11.217   2.482  0.1360  0.1839 -0.4045
  973MOL0     H28383   2.352  11.482   2.429  0.0479  0.4847  2.1900
  973MOL0     H28384   2.486  11.421   2.337  2.7597  1.2865  1.4286
  973MOL0     H28385   2.590  11.489   2.546  1.2219 -0.3718 -1.3505
  973MOL0     H28386   2.443  11.444   2.626 -0.4165  1.9495 -1.1106
  973MOL0     H28387   2.501  11.200   2.631 -1.1435  0.0774 -0.8072
  973MOL0     H28388   2.647  11.286   2.682  2.4421 -1.2226 -1.6794
  973MOL0     H28389   2.833  11.370   2.492  1.8464 -1.0843  0.9894
  973MOL0     H28390   3.044  11.137   2.311  1.8634  1.8781  1.9422
  973MOL0     H28391   3.016  11.310   2.349  0.6342 -1.1663  1.5542
  973MOL0     H28392   2.866  11.305   2.128 -0.9171 -0.1130  0.8367
  973MOL0     H28393   2.895  11.134   2.131  0.5699 -0.7033  0.4327
  973MOL0     H28394   3.104  11.335   2.058  2.3001 -1.2483 -1.5609
  973MOL0     H28395   3.143  11.172   2.114  2.5625  4.0430  2.9070
  973MOL0     H28396   3.033  11.069   1.936 -1.5779  0.3333  2.8513
  973MOL0     H28397   3.136  11.191   1.860  0.7028 -1.4156  0.2061
  973MOL0     H28398   2.712  11.354   1.813 -2.0810 -0.3917  0.1297
  973MOL0     H28399   2.489  11.271   1.843  1.4218  1.7771 -0.3162
  973MOL0     H28400   2.252  10.914   1.625 -0.9938 -0.1028 -0.9152
  973MOL0     H28401   2.060  10.766   1.605  3.1249 -0.5153  1.1738
  973MOL0     H28402   1.856  10.660   1.627 -0.1919 -0.0268  0.2799
  973MOL0     H28403   1.790  10.774   1.522  0.9617  0.8904  0.0554
  973MOL0     H28404   1.577  10.783   1.627 -0.4363  2.1034  3.4744
  973MOL0     H28405   1.633  10.663   1.748 -3.3870 -0.7247 -1.4409
  973MOL0     H28406   1.585  10.634   1.446  1.6181 -0.5358 -0.6122
  973MOL0     H28407   1.498  10.554   1.578 -1.5654  1.3658  0.0755
  973MOL0     H28408   1.767  10.508   1.473 -1.4552 -0.4662 -1.6760
  973MOL0     H28409   1.726  10.417   1.617  0.0171 -0.0209 -0.6184
  973MOL0     H28410   1.545  10.382   1.390  1.0719 -0.8405 -3.1961
  973MOL0     H28411   1.584  10.264   1.510  0.6634 -0.2319 -0.1698
  973MOL0     H28412   1.806  10.227   1.414 -2.3132 -2.0024  0.8682
  973MOL0     H28413   1.792  10.357   1.306 -0.5763  0.3785 -0.2563
  973MOL0     H28414   1.568  10.262   1.226  1.5092  1.3962 -1.4679
  973MOL0     H28415   1.720  10.194   1.174 -0.0766  1.7681  0.2367
  973MOL0     H28416   1.528  10.020   1.242  0.9103  0.4532  0.0582
  973MOL0     H28417   1.536  10.068   1.404  3.8126 -5.0445  2.5327
  973MOL0     H28418   1.838  11.036   1.866  1.0532 -0.0993  0.0661
  973MOL0     H28419   2.073  11.162   1.918  3.4740  1.6635 -1.6010
  973MOL0     H28420   2.661  10.878   1.860  2.7531 -0.3218  1.9279
  973MOL0     H28421   2.851  10.949   1.899 -0.7316  0.9033  0.5397
  973MOL0     H28422   1.604  11.345   2.031 -1.8695  4.8165  1.7257
  973MOL0     H28423   1.370  11.357   2.086  2.0265  2.4593  0.0938
  973MOL0     H28424   1.011  11.085   2.580 -0.4818 -0.0975 -0.1768
  973MOL0     H28425   0.785  10.991   2.544 -2.3280  1.3062 -0.5615
  973MOL0     H28426   0.616  11.133   2.186  1.8540  0.8587  1.7955
  973MOL0     H28427   0.509  11.144   2.319 -0.8470  0.4215 -0.5858
  973MOL0     H28428   0.472  10.889   2.152 -1.6816 -0.1676 -0.5884
  973MOL0     H28429   0.356  10.977   2.244 -0.7960  1.2393 -1.0815
  973MOL0     H28430   0.330  11.027   2.002  0.8575  1.7531 -1.6331
  973MOL0     H28431   0.488  11.107   1.993 -0.8885 -0.2236 -2.6981
  973MOL0     H28432   0.241  11.182   2.165 -0.2825  0.2919  0.7017
  973MOL0     H28433   0.392  11.264   2.192  1.6395 -0.1622 -0.9145
  973MOL0     H28434   0.269  11.339   1.778 -2.0998 -1.7364 -0.3435
  973MOL0     H28435   0.805  11.063   2.126 -1.1940 -1.6988  0.7750
  973MOL0     H28436   1.046  11.159   2.155  1.6876 -0.4131  0.7351
  974MOL0     O28437   4.060   5.301   3.885 -0.2426  0.0109 -0.1834
  974MOL0     C28438   4.103   5.239   3.795 -0.2179 -1.0909  0.0300
  974MOL0     O28439   4.211   5.159   3.796 -0.1214  0.1109 -0.7411
  974MOL0     C28440   4.283   5.147   3.916 -0.1171  0.3380  0.4610
  974MOL0     C28441   4.226   5.105   4.041  0.2508 -0.1220 -0.1646
  974MOL0     C28442   4.310   5.092   4.148  0.6759  0.6592 -0.1787
  974MOL0     C28443   4.443   5.117   4.149  0.0179 -0.8501 -0.4994
  974MOL0     O28444   4.515   5.099   4.270  0.0588  0.4903  0.3169
  974MOL0     C28445   4.658   5.092   4.270 -0.3753 -0.2754  0.7508
  974MOL0     C28446   4.720   5.235   4.281 -0.2146  1.4188 -0.1660
  974MOL0     C28447   4.870   5.232   4.318 -0.1899  1.0306 -0.6961
  974MOL0     C28448   4.954   5.197   4.189  1.1989  0.4479 -0.5739
  974MOL0     C28449   5.111   5.212   4.219 -0.0403 -0.2633  0.3230
  974MOL0     C28450   5.202   5.187   4.096 -0.6954  0.8149  0.2834
  974MOL0     C28451   5.344   5.163   4.142  0.1355 -0.0772 -0.4877
  974MOL0     C28452   5.425   5.287   4.198  0.0182 -0.5270  0.9245
  974MOL0     N28453   5.565   5.261   4.201 -0.0830  0.7078 -0.5341
  974MOL0     C28454   5.669   5.345   4.173  0.3033  0.5909 -1.1533
  974MOL0     C28455   5.776   5.272   4.197  0.5252 -0.1967 -0.2725
  974MOL0     C28456   5.914   5.298   4.142  0.4218  0.2698 -0.1135
  974MOL0     C28457   6.011   5.288   4.249 -0.0498 -0.1657  0.0665
  974MOL0     C28458   6.150   5.338   4.209  0.2005 -0.6427 -0.1051
  974MOL0     C28459   6.256   5.280   4.296 -0.3541  0.6247 -0.2641
  974MOL0     O28460   6.379   5.330   4.244  0.5657  0.1861  1.1363
  974MOL0     C28461   6.496   5.272   4.289  0.0257 -0.2584  0.9247
  974MOL0     C28462   6.608   5.321   4.235 -0.9398  0.1048 -0.5897
  974MOL0     C28463   6.735   5.261   4.267 -0.4351 -0.2276 -0.3688
  974MOL0     C28464   6.751   5.147   4.350 -0.3532 -0.0042  0.4404
  974MOL0     C28465   6.879   5.085   4.398 -0.1610 -0.2177 -0.4518
  974MOL0     O28466   6.879   4.995   4.501 -0.0792  1.1456  0.7961
  974MOL0     C28467   6.997   4.973   4.573 -0.0151 -0.7006 -0.4725
  974MOL0     C28468   6.998   4.850   4.637 -0.3261 -0.1358 -0.3561
  974MOL0     C28469   7.104   4.815   4.720  0.1503  0.1523  0.6156
  974MOL0     C28470   7.210   4.905   4.738 -1.3918  0.4837 -0.1385
  974MOL0     O28471   7.329   4.874   4.798  0.0149 -0.0839 -0.4894
  974MOL0     C28472   7.311   4.826   4.928  0.2642  0.6081  0.2897
  974MOL0     C28473   7.407   4.717   4.961  1.1239  0.3005 -0.0756
  974MOL0     C28474   7.552   4.779   4.970  0.0083 -0.2356 -0.4913
  974MOL0     C28475   7.651   4.668   4.985 -0.9849 -0.3182  0.1602
  974MOL0     C28476   7.785   4.741   4.988  0.7635  0.1286  0.2581
  974MOL0     C28477   7.890   4.642   5.030 -0.7249 -0.6914  0.1409
  974MOL0     C28478   8.013   4.699   5.092  0.2387 -0.3029  0.5903
  974MOL0     C28479   8.103   4.594   5.129 -0.4385 -0.2840 -0.1262
  974MOL0    Cl28480   8.266   4.616   5.064 -0.1045 -0.3500 -0.2811
  974MOL0     C28481   7.215   5.026   4.669 -0.2131  0.4045 -0.6397
  974MOL0     C28482   7.106   5.057   4.595  0.5961  0.2456 -0.1418
  974MOL0     O28483   6.984   5.133   4.348  0.3559 -0.1014  0.3792
  974MOL0     C28484   6.629   5.095   4.396  0.2761  0.3740  0.3626
  974MOL0     C28485   6.509   5.159   4.360 -0.4339  1.4272  0.1302
  974MOL0     N28486   5.746   5.146   4.246  0.1760 -0.1911 -0.5575
  974MOL0     N28487   5.620   5.142   4.243  0.4952  0.0579  0.0060
  974MOL0     C28488   4.506   5.153   4.030  0.9271  0.4706 -0.6879
  974MOL0     C28489   4.423   5.160   3.913 -0.6479  0.2908 -0.2594
  974MOL0     C28490   4.036   5.254   3.659  0.2978 -0.0338 -0.2053
  974MOL0     C28491   3.906   5.306   3.630  0.4216  0.2752  0.6634
  974MOL0     C28492   3.863   5.318   3.496 -0.3979 -0.0640  0.3547
  974MOL0     C28493   3.949   5.285   3.384  1.1327 -0.2805 -0.1057
  974MOL0     O28494   3.899   5.304   3.249 -0.7772  0.1786  0.2327
  974MOL0     C28495   3.808   5.411   3.218  0.1361 -0.8866 -1.0464
  974MOL0     C28496   3.706   5.357   3.130  0.1364  0.7248 -0.0350
  974MOL0     C28497   3.596   5.469   3.097  1.3931 -0.4807  0.5943
  974MOL0     C28498   3.535   5.428   2.971  0.5085  0.2293 -0.3608
  974MOL0     C28499   3.457   5.307   2.992 -0.8591  0.2426 -0.1688
  974MOL0     C28500   3.390   5.203   2.982  0.3925  0.4392 -1.0157
  974MOL0     C28501   4.072   5.231   3.417  0.2511 -0.2440  0.1360
  974MOL0     C28502   4.119   5.214   3.544 -0.1912 -0.3805  0.4025
  974MOL0     H28503   4.118   5.100   4.052 -0.0712  1.7795 -1.9487
  974MOL0     H28504   4.285   5.079   4.253  1.9603 -0.2854  0.0334
  974MOL0     H28505   4.694   5.040   4.181 -0.8313 -1.2428  1.1143
  974MOL0     H28506   4.674   5.042   4.366  0.6965  0.2390  0.8569
  974MOL0     H28507   4.679   5.293   4.363 -0.8356  2.2239 -1.0308
  974MOL0     H28508   4.695   5.288   4.189  1.5905  0.6127 -1.1808
  974MOL0     H28509   4.895   5.166   4.401 -1.4572  0.8049 -0.4777
  974MOL0     H28510   4.888   5.332   4.359  2.0289 -0.1083  1.3125
  974MOL0     H28511   4.949   5.091   4.162  2.3666  0.5914 -1.4101
  974MOL0     H28512   4.931   5.262   4.105  2.1823  0.8358 -0.5537
  974MOL0     H28513   5.134   5.150   4.306  1.0915 -0.0459  0.2065
  974MOL0     H28514   5.131   5.317   4.239  2.4168 -0.8322  1.2871
  974MOL0     H28515   5.193   5.273   4.029  0.2592 -0.1109 -1.0918
  974MOL0     H28516   5.163   5.100   4.043 -2.9586  0.9838  1.5625
  974MOL0     H28517   5.337   5.075   4.206 -0.9106 -0.7951 -1.5272
  974MOL0     H28518   5.395   5.119   4.055  0.1897 -1.8010  0.3869
  974MOL0     H28519   5.380   5.305   4.296 -0.9802 -0.6845  0.5082
  974MOL0     H28520   5.412   5.381   4.144  2.7254 -0.7599 -0.2833
  974MOL0     H28521   5.682   5.438   4.118  2.1300  1.1855  0.1794
  974MOL0     H28522   5.919   5.403   4.112  2.5895 -0.3188 -2.0556
  974MOL0     H28523   5.926   5.236   4.053 -0.9164  1.1897 -0.9788
  974MOL0     H28524   6.027   5.181   4.268 -0.9716 -0.3709 -0.2586
  974MOL0     H28525   5.984   5.331   4.345  1.7858  5.4347 -1.5500
  974MOL0     H28526   6.168   5.310   4.105 -0.4362 -0.6975 -0.2082
  974MOL0     H28527   6.152   5.447   4.208  2.9829 -0.6243 -1.4560
  974MOL0     H28528   6.254   5.171   4.295 -0.8300  0.6344 -1.0807
  974MOL0     H28529   6.243   5.317   4.398 -3.4377  0.1886 -0.4176
  974MOL0     H28530   6.605   5.405   4.166  2.1599  1.7401  1.0810
  974MOL0     H28531   6.825   5.304   4.223  1.5246 -2.2543  1.3699
  974MOL0     H28532   6.914   4.781   4.634 -1.6259  1.3941 -0.2571
  974MOL0     H28533   7.094   4.726   4.781  0.5362 -0.3682 -0.0686
  974MOL0     H28534   7.208   4.793   4.946  0.6446 -1.4197 -1.0365
  974MOL0     H28535   7.332   4.909   4.996 -2.7972  2.3738 -0.6854
  974MOL0     H28536   7.403   4.641   4.883  2.7946 -1.3492  1.3320
  974MOL0     H28537   7.380   4.680   5.061  1.0101 -0.2836 -0.3194
  974MOL0     H28538   7.558   4.849   5.054  0.1598 -2.4073  1.3916
  974MOL0     H28539   7.572   4.833   4.877 -0.3930  1.0347  0.1436
  974MOL0     H28540   7.630   4.619   5.080  0.9321 -0.8017  0.3652
  974MOL0     H28541   7.636   4.601   4.899  1.0083 -1.2585  0.4788
  974MOL0     H28542   7.775   4.815   5.068  1.6464  3.2851 -2.3499
  974MOL0     H28543   7.805   4.791   4.893  2.2082 -1.1405 -0.1362
  974MOL0     H28544   7.917   4.573   4.949 -2.1016 -1.1852  0.0834
  974MOL0     H28545   7.854   4.580   5.113 -0.8957 -0.9827 -0.1470
  974MOL0     H28546   8.056   4.780   5.032  1.3032 -0.7067  0.7886
  974MOL0     H28547   7.988   4.749   5.186  1.5881 -0.4759  1.0663
  974MOL0     H28548   8.070   4.499   5.086  1.8780 -1.7407  1.0859
  974MOL0     H28549   8.111   4.580   5.237  1.6085 -0.2627 -0.2371
  974MOL0     H28550   7.294   5.098   4.685 -1.0799  1.3476 -0.5004
  974MOL0     H28551   7.104   5.158   4.554 -0.9355  0.5511  0.6061
  974MOL0     H28552   6.626   5.013   4.467 -3.7819 -1.7596 -1.8911
  974MOL0     H28553   6.419   5.116   4.405 -0.7791  1.8240 -0.1735
  974MOL0     H28554   4.614   5.156   4.019  0.8052  0.9861 -1.9553
  974MOL0     H28555   4.475   5.179   3.819  1.3544  1.1472  0.9621
  974MOL0     H28556   3.840   5.334   3.712 -1.7202  1.9357 -1.4852
  974MOL0     H28557   3.762   5.356   3.488 -1.0813 -2.0962 -1.8404
  974MOL0     H28558   3.860   5.485   3.157  1.6255 -2.8797 -2.2836
  974MOL0     H28559   3.756   5.465   3.298  2.6666  1.1604 -0.6622
  974MOL0     H28560   3.761   5.318   3.044  0.4371 -0.3375  0.6201
  974MOL0     H28561   3.673   5.265   3.180  3.4086 -1.8427 -2.1972
  974MOL0     H28562   3.645   5.565   3.075 -1.0014  0.3840 -1.4902
  974MOL0     H28563   3.530   5.489   3.181  2.4602  0.2661  1.2835
  974MOL0     H28564   3.467   5.508   2.940  1.5210  3.4517  4.6623
  974MOL0     H28565   3.617   5.417   2.899  1.4557  1.6095  0.4646
  974MOL0     H28566   3.335   5.114   2.961  1.5705 -0.6731  0.4303
  974MOL0     H28567   4.136   5.216   3.331  0.8683  0.2793  0.4980
  974MOL0     H28568   4.222   5.180   3.548  0.7672  1.9082 -1.7771
  975MOL0     O28569   5.906   4.158   7.773 -0.0691  0.1929  0.4172
  975MOL0     C28570   5.993   4.079   7.813  0.0170 -0.1672 -0.5483
  975MOL0     O28571   6.034   3.967   7.754 -0.1592 -0.9000 -0.0770
  975MOL0     C28572   6.005   3.936   7.627 -0.0825 -0.2794 -0.2142
  975MOL0     C28573   5.984   4.024   7.519 -0.0370 -0.0036 -0.1110
  975MOL0     C28574   5.949   3.967   7.396  0.7500  0.3449 -0.8501
  975MOL0     C28575   5.940   3.828   7.379 -0.4597 -0.8935  0.4521
  975MOL0     O28576   5.919   3.781   7.255 -0.6475 -0.1832  0.4213
  975MOL0     C28577   5.872   3.645   7.239 -0.5820  0.3398  1.1027
  975MOL0     C28578   5.728   3.625   7.293 -0.4451 -0.4753 -0.0039
  975MOL0     C28579   5.629   3.726   7.219  0.2119  0.1325  0.2071
  975MOL0     C28580   5.488   3.691   7.254 -0.3089 -0.3625 -0.5533
  975MOL0     C28581   5.392   3.808   7.226  0.6950 -0.4966 -0.8709
  975MOL0     C28582   5.248   3.778   7.258 -0.3949 -0.1385  0.5261
  975MOL0     C28583   5.177   3.690   7.144 -0.3038 -0.8245 -0.3162
  975MOL0     C28584   5.061   3.612   7.198 -0.3314 -0.1380 -0.7285
  975MOL0     N28585   4.938   3.689   7.235  0.3544 -0.2651  0.2127
  975MOL0     C28586   4.888   3.732   7.358  0.4143 -0.7578  0.4394
  975MOL0     C28587   4.776   3.800   7.340  0.3473 -0.0347 -0.7930
  975MOL0     C28588   4.690   3.887   7.436  0.3423  0.4877 -0.3555
  975MOL0     C28589   4.653   4.030   7.377 -0.1282 -0.5339  0.8413
  975MOL0     C28590   4.603   4.129   7.488 -0.1777  0.4684  0.8280
  975MOL0     C28591   4.491   4.072   7.582 -0.0320 -0.5786 -0.6775
  975MOL0     O28592   4.368   4.078   7.513  0.8788 -0.0229  0.1155
  975MOL0     C28593   4.274   4.176   7.539  0.5429  0.0762  1.1247
  975MOL0     C28594   4.165   4.178   7.457 -0.2844 -0.9458  0.6717
  975MOL0     C28595   4.067   4.273   7.463 -0.2923  0.1633 -0.8126
  975MOL0     C28596   4.062   4.371   7.560  0.1081 -0.0635  0.1128
  975MOL0     C28597   3.956   4.474   7.563 -0.5019  0.1246  1.2143
  975MOL0     O28598   3.843   4.449   7.483  0.1205  0.0745  0.4690
  975MOL0     C28599   3.756   4.550   7.455  0.4756 -0.3575 -0.9425
  975MOL0     C28600   3.625   4.539   7.515  1.0406 -0.6826  0.5974
  975MOL0     C28601   3.532   4.641   7.482  0.5345 -0.5495 -0.0928
  975MOL0     C28602   3.557   4.740   7.387 -0.6828 -0.9335 -0.5027
  975MOL0     O28603   3.461   4.846   7.370 -0.5964 -0.3341  0.1387
  975MOL0     C28604   3.509   4.954   7.288 -0.5133  1.0472 -0.7426
  975MOL0     C28605   3.381   5.035   7.284 -0.1800 -0.4304  0.0578
  975MOL0     C28606   3.285   4.988   7.173 -0.0317 -0.1855 -0.9549
  975MOL0     C28607   3.162   5.084   7.193  0.3758 -0.7686 -0.2020
  975MOL0     C28608   3.082   5.089   7.063  0.2177 -0.0045 -0.0496
  975MOL0     C28609   2.928   5.134   7.069 -0.1939  0.1344  0.0198
  975MOL0     C28610   2.915   5.280   7.127 -0.4002 -1.0199 -0.4799
  975MOL0     C28611   2.778   5.350   7.090 -0.9702 -0.2638  0.1768
  975MOL0    Cl28612   2.641   5.300   7.187  0.2545  0.4376 -0.0623
  975MOL0     C28613   3.688   4.733   7.322  0.2252  0.1736 -0.7251
  975MOL0     C28614   3.783   4.642   7.357 -0.6585 -0.3278 -0.5587
  975MOL0     O28615   3.983   4.581   7.621  0.7228  0.3354  0.0061
  975MOL0     C28616   4.184   4.380   7.645  0.6271 -0.1348  0.6228
  975MOL0     C28617   4.284   4.279   7.630 -0.1815 -0.7080 -0.0321
  975MOL0     N28618   4.747   3.778   7.201 -0.6896 -0.3689  0.3491
  975MOL0     N28619   4.848   3.721   7.143  0.3822  0.7346 -0.4324
  975MOL0     C28620   5.987   3.748   7.482  0.8253 -0.0108 -0.4203
  975MOL0     C28621   6.023   3.805   7.601  0.0897 -0.4489 -0.4607
  975MOL0     C28622   6.040   4.100   7.952 -1.2456  0.3318  0.2511
  975MOL0     C28623   6.151   4.023   8.002  0.0594  1.1563  0.1179
  975MOL0     C28624   6.198   4.034   8.133 -0.1895 -0.0416  0.0355
  975MOL0     C28625   6.157   4.134   8.206 -0.5868 -0.6811 -0.1569
  975MOL0     O28626   6.201   4.146   8.336  0.3706 -0.2696 -0.1921
  975MOL0     C28627   6.200   4.278   8.394 -0.2232 -0.0122 -0.4225
  975MOL0     C28628   6.086   4.305   8.498  0.9797  0.8933 -0.5508
  975MOL0     C28629   6.044   4.167   8.570  0.5262  0.6468  0.3937
  975MOL0     C28630   5.944   4.082   8.487 -0.2091 -0.1531  0.4352
  975MOL0     C28631   5.826   4.154   8.450 -0.0323 -0.0586  0.1363
  975MOL0     C28632   5.721   4.217   8.421  0.5548  0.4263  0.5962
  975MOL0     C28633   6.057   4.227   8.148  0.4352  0.8024 -0.8147
  975MOL0     C28634   5.997   4.207   8.029  0.0217 -0.7937 -0.2727
  975MOL0     H28635   5.978   4.131   7.530 -0.2396 -0.0189 -0.0631
  975MOL0     H28636   5.905   4.028   7.318 -0.0495 -1.1715 -1.6325
  975MOL0     H28637   5.942   3.583   7.296 -1.3374  2.0031  4.0402
  975MOL0     H28638   5.858   3.628   7.132 -4.7852  1.0410  1.3766
  975MOL0     H28639   5.731   3.665   7.395 -1.9908 -1.9731  0.6873
  975MOL0     H28640   5.691   3.522   7.289 -0.3998 -0.4569 -2.8041
  975MOL0     H28641   5.646   3.725   7.111 -1.3950  2.0016 -0.1351
  975MOL0     H28642   5.643   3.829   7.254  0.4123  0.2214 -0.1285
  975MOL0     H28643   5.461   3.609   7.186  2.1938 -2.8650  1.2291
  975MOL0     H28644   5.483   3.654   7.357 -1.7934 -1.3628 -0.9553
  975MOL0     H28645   5.407   3.834   7.121  3.2472  0.7244 -0.2865
  975MOL0     H28646   5.419   3.896   7.285 -0.3823 -0.9443  0.3248
  975MOL0     H28647   5.195   3.873   7.271 -1.4274 -0.6476  0.1944
  975MOL0     H28648   5.240   3.727   7.355  0.5575 -1.4953 -0.0708
  975MOL0     H28649   5.152   3.765   7.068  0.5136 -1.5702 -1.3499
  975MOL0     H28650   5.241   3.611   7.102 -0.4106 -1.0673 -0.0265
  975MOL0     H28651   5.102   3.569   7.290  0.1656  1.2166 -0.2896
  975MOL0     H28652   5.030   3.533   7.130  1.9976  0.7359 -2.9781
  975MOL0     H28653   4.932   3.717   7.455  2.2473 -1.7969 -0.4998
  975MOL0     H28654   4.750   3.905   7.526  0.4845 -0.2105 -0.2995
  975MOL0     H28655   4.605   3.823   7.459 -1.5841  2.2636 -2.1386
  975MOL0     H28656   4.582   4.023   7.295  1.0067 -1.7205 -0.0738
  975MOL0     H28657   4.743   4.079   7.339  1.8897 -3.1081  1.9363
  975MOL0     H28658   4.694   4.146   7.547  1.2200 -1.5105 -0.6010
  975MOL0     H28659   4.584   4.229   7.448  1.1943  1.1076  1.6761
  975MOL0     H28660   4.496   4.121   7.680  1.8919 -3.6183  0.8986
  975MOL0     H28661   4.518   3.968   7.602 -2.0452 -1.2662 -1.3836
  975MOL0     H28662   4.157   4.096   7.386  2.4998  1.0989 -2.3258
  975MOL0     H28663   3.982   4.257   7.397 -2.1262  1.0131  1.2009
  975MOL0     H28664   3.602   4.461   7.587 -0.9639 -0.3969  0.3065
  975MOL0     H28665   3.431   4.637   7.522  0.9607  1.3695  1.3463
  975MOL0     H28666   3.550   4.931   7.190  3.2004 -2.6467  1.3540
  975MOL0     H28667   3.579   5.008   7.353 -0.8358  0.2542  0.2993
  975MOL0     H28668   3.401   5.140   7.261 -1.7168 -0.1375 -0.0873
  975MOL0     H28669   3.333   5.035   7.382  2.4061  3.0038  1.5260
  975MOL0     H28670   3.256   4.883   7.167 -0.5541 -0.1166  0.0419
  975MOL0     H28671   3.341   5.001   7.080  2.1212 -3.5536 -0.3089
  975MOL0     H28672   3.095   5.044   7.270 -1.3014 -0.1436 -1.2962
  975MOL0     H28673   3.187   5.182   7.234 -0.6688 -0.8803  0.7536
  975MOL0     H28674   3.077   4.991   7.016  1.5397 -1.1112  1.9970
  975MOL0     H28675   3.139   5.153   6.995 -0.7423  0.1524 -0.7431
  975MOL0     H28676   2.877   5.067   7.139 -2.1346 -0.2642 -1.6907
  975MOL0     H28677   2.894   5.123   6.965  0.4655  2.6764 -0.5376
  975MOL0     H28678   2.916   5.271   7.236 -3.6819  0.8407 -0.1648
  975MOL0     H28679   3.010   5.323   7.096 -1.6395  0.9821 -1.7637
  975MOL0     H28680   2.757   5.334   6.984  3.0457 -1.5246 -0.5855
  975MOL0     H28681   2.790   5.459   7.089 -1.6443 -0.1722  0.7913
  975MOL0     H28682   3.727   4.812   7.259  4.2355 -0.3369  0.8153
  975MOL0     H28683   3.879   4.654   7.308 -0.4326 -2.8575 -0.8723
  975MOL0     H28684   4.194   4.455   7.722  0.9858 -1.1834  1.6375
  975MOL0     H28685   4.367   4.279   7.700  0.0097 -1.8850 -0.2297
  975MOL0     H28686   5.986   3.642   7.458 -1.3375  0.6532 -4.0084
  975MOL0     H28687   6.053   3.747   7.688  1.9104  3.9560  2.1659
  975MOL0     H28688   6.198   3.948   7.940  0.7100  3.3849 -2.2695
  975MOL0     H28689   6.272   3.966   8.174  2.1251  0.3722 -3.1060
  975MOL0     H28690   6.197   4.356   8.317 -2.3039  0.9013  0.4832
  975MOL0     H28691   6.299   4.306   8.429 -0.8812  1.6539  0.2307
  975MOL0     H28692   6.108   4.374   8.580 -2.0376  0.9596  0.3215
  975MOL0     H28693   5.999   4.357   8.456 -0.7888 -0.7235  0.9465
  975MOL0     H28694   6.001   4.166   8.671 -0.7232 -2.3463 -0.0714
  975MOL0     H28695   6.136   4.108   8.574  0.3105 -0.0104 -2.2967
  975MOL0     H28696   5.981   4.047   8.391  0.7295  1.8199  0.0081
  975MOL0     H28697   5.922   3.994   8.548 -1.2334 -0.9615 -1.0659
  975MOL0     H28698   5.630   4.269   8.401 -0.2041 -0.7104  0.9829
  975MOL0     H28699   6.014   4.299   8.218 -1.0591 -1.2619  0.5457
  975MOL0     H28700   5.922   4.272   7.986  0.9849  0.2106 -0.4800
  976MOL0     O28701   7.600   8.765   4.472  0.4505  0.4812  0.1069
  976MOL0     C28702   7.673   8.688   4.525 -0.5418  0.7673 -0.5281
  976MOL0     O28703   7.647   8.611   4.629  0.3812  0.7927  0.0815
  976MOL0     C28704   7.538   8.653   4.708 -0.4982 -0.0352  0.3774
  976MOL0     C28705   7.438   8.559   4.733  0.2866 -0.2197 -0.8726
  976MOL0     C28706   7.316   8.597   4.794 -0.3564 -0.2992 -0.6016
  976MOL0     C28707   7.294   8.725   4.820 -0.1446 -0.9816  0.6983
  976MOL0     O28708   7.166   8.768   4.855  0.0524 -0.6734  0.3086
  976MOL0     C28709   7.144   8.742   4.988 -0.2026 -1.1161 -0.1088
  976MOL0     C28710   7.026   8.642   5.002 -0.1165 -0.6206 -0.3881
  976MOL0     C28711   7.001   8.601   5.147  0.0715  0.0928 -0.2519
  976MOL0     C28712   6.914   8.478   5.144 -0.1287  1.1397  0.7570
  976MOL0     C28713   6.828   8.440   5.263  0.1134 -0.0502  0.1045
  976MOL0     C28714   6.697   8.508   5.256  0.6450 -0.1841 -0.0695
  976MOL0     C28715   6.628   8.475   5.393 -0.3173  0.6395  0.7843
  976MOL0     C28716   6.481   8.524   5.400 -0.3836  0.1317 -0.4091
  976MOL0     N28717   6.488   8.662   5.463  0.2003  1.0459  0.6891
  976MOL0     C28718   6.433   8.675   5.591  0.0615 -0.3031 -0.1007
  976MOL0     C28719   6.377   8.800   5.580 -0.1877  0.0397 -0.8405
  976MOL0     C28720   6.302   8.874   5.685  0.4960  0.0171  1.0697
  976MOL0     C28721   6.212   8.979   5.634 -0.6664  0.0489 -0.4952
  976MOL0     C28722   6.121   9.041   5.740  0.1959 -0.9488 -0.5535
  976MOL0     C28723   6.019   9.148   5.685 -0.8336 -0.3168  0.7939
  976MOL0     O28724   5.943   9.197   5.800 -0.8783  1.2693  0.2095
  976MOL0     C28725   5.845   9.279   5.755 -0.8574 -0.7350 -0.6515
  976MOL0     C28726   5.851   9.420   5.776 -0.7389 -0.1200 -0.6154
  976MOL0     C28727   5.742   9.497   5.736  0.2011  0.5223 -0.3027
  976MOL0     C28728   5.634   9.429   5.668  0.1634 -0.1671 -0.2412
  976MOL0     C28729   5.531   9.520   5.603  0.0134 -0.0378 -0.0357
  976MOL0     O28730   5.555   9.661   5.622  0.7189  0.0414  0.3342
  976MOL0     C28731   5.461   9.741   5.565 -0.3686  0.0967 -0.8129
  976MOL0     C28732   5.486   9.790   5.441 -0.2592  0.0960  0.8595
  976MOL0     C28733   5.408   9.891   5.390 -0.3522  0.1394  0.4794
  976MOL0     C28734   5.301   9.941   5.460  0.5041  0.4655  0.2957
  976MOL0     O28735   5.215  10.037   5.418  0.4688 -0.7317  0.7495
  976MOL0     C28736   5.233  10.093   5.282  0.1853  0.2081 -0.3901
  976MOL0     C28737   5.093  10.168   5.259 -0.0596 -0.6554 -0.2427
  976MOL0     C28738   4.976  10.069   5.244 -0.2937 -0.4160 -0.3656
  976MOL0     C28739   4.865  10.120   5.162  0.1185 -0.9322  0.3426
  976MOL0     C28740   4.730  10.037   5.156 -1.0463 -0.9756  0.4992
  976MOL0     C28741   4.732   9.939   5.044 -0.0912  0.4433  0.1983
  976MOL0     C28742   4.733   9.986   4.900 -0.2478 -0.5781  0.8180
  976MOL0     C28743   4.694   9.865   4.811 -0.0444  0.4715 -0.1913
  976MOL0    Cl28744   4.684   9.938   4.647 -0.3382  0.0280 -0.2248
  976MOL0     C28745   5.271   9.896   5.578 -0.0512 -0.5813 -0.5809
  976MOL0     C28746   5.353   9.806   5.638 -0.3823  0.0512 -1.3613
  976MOL0     O28747   5.437   9.466   5.547  1.0578 -0.2001 -0.2588
  976MOL0     C28748   5.627   9.289   5.645 -0.2466 -0.0579  0.7245
  976MOL0     C28749   5.740   9.219   5.689 -0.2734 -0.8640 -0.0234
  976MOL0     N28750   6.409   8.851   5.455  0.2243  0.7612  0.0147
  976MOL0     N28751   6.479   8.774   5.388 -0.9009  0.1488  0.6641
  976MOL0     C28752   7.384   8.829   4.790  0.0736 -0.8500 -0.3225
  976MOL0     C28753   7.514   8.788   4.739 -0.1398  0.7136 -0.9770
  976MOL0     C28754   7.799   8.670   4.450 -0.0027 -0.2481  1.1570
  976MOL0     C28755   7.869   8.778   4.389  0.5817  0.8915 -0.7729
  976MOL0     C28756   7.990   8.759   4.319  0.6265  0.6872 -1.5493
  976MOL0     C28757   8.046   8.635   4.333  0.1755 -0.7372  0.5874
  976MOL0     O28758   8.166   8.641   4.265 -0.9499 -0.7260  0.3276
  976MOL0     C28759   8.224   8.514   4.228  0.3511 -0.1322  0.6401
  976MOL0     C28760   8.181   8.460   4.097  0.7456  0.2874 -0.3354
  976MOL0     C28761   8.030   8.453   4.069  0.1656 -0.4332 -0.0602
  976MOL0     C28762   7.990   8.420   3.920  0.8226  0.8161 -0.0750
  976MOL0     C28763   8.019   8.524   3.824 -0.4999 -0.5467  0.0895
  976MOL0     C28764   8.044   8.607   3.729  0.7595  0.4615 -1.4986
  976MOL0     C28765   7.982   8.528   4.398 -1.0281 -1.2089  0.0465
  976MOL0     C28766   7.852   8.544   4.448 -0.2644  0.0589 -1.0271
  976MOL0     H28767   7.449   8.452   4.725  0.0819 -0.2731 -0.4632
  976MOL0     H28768   7.239   8.523   4.816 -2.3677  2.0030  0.5716
  976MOL0     H28769   7.119   8.838   5.033 -2.0326 -2.4938  2.0740
  976MOL0     H28770   7.232   8.697   5.033 -0.2675 -0.3040  0.8499
  976MOL0     H28771   7.044   8.554   4.940  1.9555 -0.2036 -0.4620
  976MOL0     H28772   6.940   8.694   4.960  1.1044  2.9271  1.0612
  976MOL0     H28773   6.954   8.689   5.191 -0.4672 -0.7633  0.9613
  976MOL0     H28774   7.090   8.585   5.208 -0.9339 -3.4735  0.5122
  976MOL0     H28775   6.849   8.462   5.058 -1.3787  0.1905  1.8443
  976MOL0     H28776   6.988   8.399   5.128 -1.3385  0.3367 -1.2949
  976MOL0     H28777   6.875   8.471   5.357  0.2104 -0.2199  0.1122
  976MOL0     H28778   6.805   8.333   5.265 -1.6454  0.3000  1.2997
  976MOL0     H28779   6.644   8.459   5.173  1.0301 -1.7151  0.5463
  976MOL0     H28780   6.701   8.616   5.244 -0.3566  0.3088  3.1777
  976MOL0     H28781   6.619   8.367   5.400 -1.3251  0.4593 -1.9479
  976MOL0     H28782   6.692   8.510   5.474  2.6196 -1.9402 -0.2209
  976MOL0     H28783   6.422   8.456   5.463 -0.0355 -1.2606 -1.5550
  976MOL0     H28784   6.434   8.539   5.302  0.0752  0.7947 -0.5303
  976MOL0     H28785   6.422   8.596   5.666  0.0283 -0.7043 -0.5252
  976MOL0     H28786   6.370   8.927   5.753 -1.7141  3.3605  0.9192
  976MOL0     H28787   6.249   8.806   5.754  1.9712  1.0368  3.3249
  976MOL0     H28788   6.157   8.929   5.555  0.7000 -0.3925 -1.2026
  976MOL0     H28789   6.264   9.063   5.588  1.8468 -0.8710  0.4792
  976MOL0     H28790   6.057   8.974   5.798 -1.2258 -1.1431 -2.2428
  976MOL0     H28791   6.190   9.094   5.806  0.9653 -1.7263 -0.7073
  976MOL0     H28792   5.956   9.101   5.610 -0.4599 -0.6128  0.6600
  976MOL0     H28793   6.078   9.224   5.633  2.4600 -0.9523  3.2493
  976MOL0     H28794   5.945   9.465   5.809 -0.9138 -1.3600  1.7851
  976MOL0     H28795   5.731   9.602   5.764  0.1228 -0.0168  1.8682
  976MOL0     H28796   5.572   9.746   5.391  0.4247  1.4101  0.8327
  976MOL0     H28797   5.438   9.932   5.294 -0.9918 -0.4141  0.0312
  976MOL0     H28798   5.264  10.019   5.207  0.2813 -1.6463  1.4150
  976MOL0     H28799   5.309  10.171   5.293 -1.1371  1.4851  0.1640
  976MOL0     H28800   5.093  10.232   5.170  0.8410 -0.9372 -0.4609
  976MOL0     H28801   5.079  10.224   5.351  2.4494  0.5791 -0.5048
  976MOL0     H28802   4.948  10.022   5.339  1.0370 -1.1658 -0.3182
  976MOL0     H28803   5.015   9.991   5.178  2.9466  1.4445 -0.8374
  976MOL0     H28804   4.824  10.210   5.209  0.9418 -1.2275  1.6536
  976MOL0     H28805   4.897  10.140   5.059 -0.8189  0.2576  0.2521
  976MOL0     H28806   4.644  10.103   5.142  1.2725  2.5738  1.6843
  976MOL0     H28807   4.719   9.993   5.256 -1.8633  3.6875  2.7332
  976MOL0     H28808   4.638   9.886   5.066 -1.7213  2.4973 -1.4515
  976MOL0     H28809   4.817   9.873   5.063  1.2996  2.2375  0.4096
  976MOL0     H28810   4.664  10.070   4.887  0.1242 -0.6782 -2.6674
  976MOL0     H28811   4.832  10.024   4.871 -0.4368  0.8844  1.9265
  976MOL0     H28812   4.596   9.824   4.836  1.1951 -2.4706  0.2603
  976MOL0     H28813   4.777   9.797   4.832 -0.4375  0.5162  1.6695
  976MOL0     H28814   5.186   9.936   5.633 -0.4538 -2.9679  0.6470
  976MOL0     H28815   5.346   9.776   5.742  1.4714  1.1501 -0.8634
  976MOL0     H28816   5.553   9.227   5.597 -0.2801  1.2144 -0.9555
  976MOL0     H28817   5.727   9.112   5.687 -0.5942 -0.8174 -1.3146
  976MOL0     H28818   7.348   8.928   4.819 -0.5796 -1.0341 -0.4743
  976MOL0     H28819   7.589   8.864   4.718  0.1061  2.5961  4.8201
  976MOL0     H28820   7.814   8.872   4.386  1.0157  1.1330 -2.2296
  976MOL0     H28821   8.050   8.844   4.287  0.0779  1.5261 -0.4545
  976MOL0     H28822   8.213   8.430   4.297  1.8183  0.0189  1.1006
  976MOL0     H28823   8.333   8.523   4.239  0.2910 -0.7360  1.9820
  976MOL0     H28824   8.227   8.523   4.020 -0.0588  1.3711  0.0521
  976MOL0     H28825   8.221   8.359   4.085  0.0104 -0.1876  1.0197
  976MOL0     H28826   7.979   8.546   4.097  2.8137  1.4826 -1.0854
  976MOL0     H28827   7.984   8.388   4.144 -2.0797 -0.2215 -1.1959
  976MOL0     H28828   8.039   8.333   3.876  0.3742 -0.4692  1.8325
  976MOL0     H28829   7.886   8.387   3.933  1.2561 -0.4159  0.4043
  976MOL0     H28830   8.056   8.694   3.668 -1.4311  1.6823 -0.2976
  976MOL0     H28831   8.023   8.429   4.414 -1.4063 -1.5860 -1.1684
  976MOL0     H28832   7.808   8.456   4.494 -1.1861  2.0072  2.2018
  977MOL0     O28833   5.256   7.045   1.007  0.5414  0.2667  0.5279
  977MOL0     C28834   5.194   7.153   1.025 -0.6493 -0.2693 -0.1634
  977MOL0     O28835   5.222   7.247   1.115  0.1774 -0.7158  0.5923
  977MOL0     C28836   5.309   7.248   1.222  1.6066  0.2052 -0.4547
  977MOL0     C28837   5.356   7.376   1.263 -0.7902  0.1605 -0.1645
  977MOL0     C28838   5.454   7.378   1.365 -0.3623 -0.3921  0.7469
  977MOL0     C28839   5.489   7.263   1.434 -0.0625 -0.2720 -0.2101
  977MOL0     O28840   5.584   7.273   1.534 -1.3723  0.1991  0.2779
  977MOL0     C28841   5.620   7.142   1.587 -0.3665  0.1504 -0.1406
  977MOL0     C28842   5.513   7.079   1.689  0.1160 -0.4273  0.5396
  977MOL0     C28843   5.514   7.136   1.827  0.6155 -0.4212  1.0422
  977MOL0     C28844   5.449   7.053   1.941 -0.0505  0.0714  0.5536
  977MOL0     C28845   5.297   7.028   1.932 -0.3030  0.1037  0.1645
  977MOL0     C28846   5.224   7.160   1.948  0.0086 -0.2362 -0.0216
  977MOL0     C28847   5.073   7.152   1.971  0.4844  0.9630 -0.6688
  977MOL0     C28848   5.036   7.062   2.093 -0.3256 -0.0599 -0.0153
  977MOL0     N28849   4.913   7.115   2.163 -0.1373  0.0907  0.1596
  977MOL0     C28850   4.911   7.165   2.295 -0.1457 -0.4797  1.4682
  977MOL0     C28851   4.780   7.195   2.309  0.2952  0.1472 -0.8354
  977MOL0     C28852   4.723   7.272   2.428 -0.8131 -0.5868 -0.0817
  977MOL0     C28853   4.773   7.224   2.566 -0.3016 -0.3506 -0.2294
  977MOL0     C28854   4.701   7.312   2.680  0.6066  0.5120  0.6807
  977MOL0     C28855   4.577   7.230   2.732  0.1509 -0.1220  0.3254
  977MOL0     O28856   4.618   7.130   2.819  0.3447 -0.0936  0.6421
  977MOL0     C28857   4.628   7.143   2.954  0.1021  0.4770 -0.8875
  977MOL0     C28858   4.617   7.269   3.009  0.2650  0.1665  0.3759
  977MOL0     C28859   4.616   7.298   3.140 -0.2736  0.0399  0.8916
  977MOL0     C28860   4.649   7.195   3.230 -0.1528 -0.2311 -1.1597
  977MOL0     C28861   4.665   7.218   3.379  0.1428 -0.3467  0.0518
  977MOL0     O28862   4.647   7.353   3.412 -0.4521  0.6315 -0.0434
  977MOL0     C28863   4.695   7.415   3.528 -1.0200 -0.1410  0.6815
  977MOL0     C28864   4.622   7.526   3.569  1.7685  0.1495 -0.6630
  977MOL0     C28865   4.654   7.591   3.689 -0.7523  0.7467  0.9451
  977MOL0     C28866   4.757   7.545   3.771  0.1679 -0.4718 -1.0244
  977MOL0     O28867   4.769   7.608   3.894  0.2545  0.0340  0.2520
  977MOL0     C28868   4.894   7.596   3.967  0.1903  0.1709 -0.0187
  977MOL0     C28869   4.883   7.670   4.100  0.3985 -0.7165 -0.1334
  977MOL0     C28870   4.846   7.819   4.083  0.4738  0.2785 -0.5747
  977MOL0     C28871   4.874   7.914   4.207  0.4964 -0.1478  0.2663
  977MOL0     C28872   4.938   8.042   4.151 -0.2418 -0.2593 -1.1501
  977MOL0     C28873   4.953   8.155   4.257  0.2788  0.3762  0.0801
  977MOL0     C28874   4.983   8.289   4.185  0.0417 -0.6326 -0.7036
  977MOL0     C28875   5.002   8.402   4.282 -0.2085 -0.7366 -0.0487
  977MOL0    Cl28876   5.102   8.533   4.215 -0.1767 -0.0910  0.3843
  977MOL0     C28877   4.837   7.443   3.726 -0.1913  0.6541  0.4176
  977MOL0     C28878   4.802   7.370   3.612  0.0665 -0.4282  1.0810
  977MOL0     O28879   4.699   7.121   3.453  0.7624  0.6155  0.2207
  977MOL0     C28880   4.676   7.064   3.181  0.1493  1.0807  0.1469
  977MOL0     C28881   4.664   7.042   3.038 -0.2591  0.3803 -0.0883
  977MOL0     N28882   4.715   7.154   2.191  0.1605 -0.6882 -0.8986
  977MOL0     N28883   4.794   7.121   2.100 -0.5250 -0.1690 -0.7093
  977MOL0     C28884   5.431   7.138   1.389 -0.2976 -0.2504  0.5560
  977MOL0     C28885   5.344   7.127   1.282 -0.5693 -1.1773 -0.6663
  977MOL0     C28886   5.081   7.184   0.941 -0.1842 -1.0120 -0.1227
  977MOL0     C28887   4.991   7.298   0.965 -0.3118 -0.2079 -0.0579
  977MOL0     C28888   4.871   7.307   0.892  0.4604  0.2499 -0.8311
  977MOL0     C28889   4.851   7.224   0.785  0.2984  0.5477  0.0209
  977MOL0     O28890   4.735   7.215   0.712 -0.7565  0.5728 -0.7980
  977MOL0     C28891   4.602   7.245   0.765  0.3536  0.2787 -0.1330
  977MOL0     C28892   4.504   7.132   0.771 -1.0419  0.0020 -0.7039
  977MOL0     C28893   4.367   7.163   0.824 -0.5412 -0.5395 -0.4876
  977MOL0     C28894   4.295   7.277   0.740  0.5009 -0.0819 -0.3936
  977MOL0     C28895   4.146   7.265   0.753 -0.2141 -1.0881  0.1813
  977MOL0     C28896   4.029   7.282   0.765  0.1654  0.0580  0.2080
  977MOL0     C28897   4.950   7.137   0.744  0.2614 -0.4886  0.4436
  977MOL0     C28898   5.060   7.112   0.823 -0.7445 -0.1055 -0.7607
  977MOL0     H28899   5.334   7.473   1.221  0.2614  0.0964 -0.9081
  977MOL0     H28900   5.490   7.477   1.390  0.2501  0.1223 -1.8064
  977MOL0     H28901   5.708   7.154   1.649  0.0037 -1.7630 -0.2422
  977MOL0     H28902   5.648   7.067   1.512 -0.2897 -2.6143  2.4561
  977MOL0     H28903   5.536   6.972   1.692 -2.3753 -1.1997 -2.6373
  977MOL0     H28904   5.408   7.072   1.659  0.0441 -2.3255  1.0712
  977MOL0     H28905   5.468   7.236   1.822  2.3991  0.3919  0.2149
  977MOL0     H28906   5.618   7.145   1.858  1.6115  2.5477 -2.4934
  977MOL0     H28907   5.490   6.952   1.940 -1.4331 -0.5531  2.0836
  977MOL0     H28908   5.467   7.092   2.041  0.1808  2.0112 -0.1995
  977MOL0     H28909   5.276   6.958   2.014  1.9097 -0.9433 -0.1084
  977MOL0     H28910   5.276   6.978   1.836  0.3044 -1.0730  0.6230
  977MOL0     H28911   5.232   7.222   1.858  1.5939 -2.2337 -1.3304
  977MOL0     H28912   5.270   7.220   2.028 -3.7072  1.1274  1.3557
  977MOL0     H28913   5.033   7.252   1.988 -0.0089  0.7566 -0.5992
  977MOL0     H28914   5.034   7.109   1.879  5.2405  0.8800 -2.9097
  977MOL0     H28915   5.114   7.071   2.169 -0.9692  1.4437  0.4976
  977MOL0     H28916   5.010   6.961   2.060 -1.5828  0.4269 -0.5833
  977MOL0     H28917   4.983   7.166   2.376 -1.5968  0.5988  2.8262
  977MOL0     H28918   4.615   7.257   2.424 -0.5660 -2.6802 -0.2887
  977MOL0     H28919   4.758   7.375   2.417 -1.2707 -0.1466  2.1390
  977MOL0     H28920   4.879   7.250   2.565 -0.5707  0.7963 -0.3626
  977MOL0     H28921   4.762   7.116   2.580  0.7691 -0.1938  2.4173
  977MOL0     H28922   4.784   7.326   2.750  1.5484 -1.6573  0.0978
  977MOL0     H28923   4.672   7.410   2.643  0.1823  0.9410  2.0729
  977MOL0     H28924   4.527   7.183   2.646 -1.7323  0.5953  0.9629
  977MOL0     H28925   4.507   7.303   2.774  1.1185  2.1364 -1.7304
  977MOL0     H28926   4.591   7.357   2.951 -0.7160  1.0997  2.1375
  977MOL0     H28927   4.589   7.402   3.158  2.3287  1.3018 -1.5896
  977MOL0     H28928   4.539   7.568   3.513  2.1712  2.4452  0.3541
  977MOL0     H28929   4.596   7.677   3.720 -1.5372  0.2613  0.8686
  977MOL0     H28930   4.979   7.630   3.908  0.7907 -3.6569 -1.6366
  977MOL0     H28931   4.923   7.493   3.992  0.5464  0.0624 -0.8560
  977MOL0     H28932   4.983   7.678   4.146 -0.7159  2.1771  2.1257
  977MOL0     H28933   4.812   7.612   4.159 -0.4728  1.2691  0.8588
  977MOL0     H28934   4.740   7.827   4.056 -0.3359  1.0698  2.4868
  977MOL0     H28935   4.914   7.841   4.000  2.5115 -2.3935  0.2394
  977MOL0     H28936   4.783   7.931   4.264 -1.7749 -3.7970 -1.8183
  977MOL0     H28937   4.944   7.860   4.272 -0.1673  0.0828  1.1798
  977MOL0     H28938   4.875   8.076   4.069 -1.6521  1.4829  0.5701
  977MOL0     H28939   5.034   8.021   4.102  0.5905 -1.2639  0.7836
  977MOL0     H28940   5.039   8.128   4.319  0.9336 -1.7336 -1.6090
  977MOL0     H28941   4.871   8.174   4.328 -0.0352  3.4392 -0.9709
  977MOL0     H28942   5.074   8.279   4.126  0.4622  3.2478 -0.9337
  977MOL0     H28943   4.903   8.293   4.111  0.9131 -2.8893 -1.8722
  977MOL0     H28944   5.069   8.364   4.360 -3.4895 -1.3347  2.7147
  977MOL0     H28945   4.907   8.431   4.327  0.2309  2.9563 -1.1098
  977MOL0     H28946   4.920   7.402   3.783 -0.5085  0.3679  0.6790
  977MOL0     H28947   4.855   7.278   3.589  0.1310  0.0303 -0.7366
  977MOL0     H28948   4.704   6.989   3.254 -3.2566 -0.4181  0.1256
  977MOL0     H28949   4.684   6.944   2.996  4.3434  1.0850 -0.1097
  977MOL0     H28950   5.461   7.046   1.437 -0.2958 -1.0039 -0.8401
  977MOL0     H28951   5.303   7.031   1.256 -1.7407 -1.6259  2.3438
  977MOL0     H28952   5.011   7.366   1.047 -1.0183 -1.4243  1.1652
  977MOL0     H28953   4.795   7.382   0.907 -0.9681  0.2718 -6.2540
  977MOL0     H28954   4.555   7.316   0.696  0.0423 -0.4607 -0.6897
  977MOL0     H28955   4.610   7.294   0.863  3.7852 -2.2541  1.0602
  977MOL0     H28956   4.491   7.095   0.669  1.0819 -5.3774  0.6178
  977MOL0     H28957   4.555   7.056   0.831 -0.9867 -0.6381 -1.5401
  977MOL0     H28958   4.365   7.184   0.932 -1.3793 -2.3342 -0.1064
  977MOL0     H28959   4.300   7.078   0.812  0.7690 -1.2793 -3.6030
  977MOL0     H28960   4.318   7.372   0.789  0.5775  0.3597 -1.2682
  977MOL0     H28961   4.319   7.284   0.633 -2.6851  0.3402 -1.1704
  977MOL0     H28962   3.925   7.291   0.792  0.9503  2.0640  2.9299
  977MOL0     H28963   4.933   7.073   0.657 -0.7330 -1.4496  1.3143
  977MOL0     H28964   5.136   7.038   0.798 -0.3360  0.5606 -1.5135
  978MOL0     O28965   5.179   2.608   1.445  0.9325 -0.2459 -0.0365
  978MOL0     C28966   5.193   2.606   1.563  0.4257 -0.0803 -0.2744
  978MOL0     O28967   5.258   2.514   1.627  0.2197  0.7158  0.0628
  978MOL0     C28968   5.299   2.391   1.579  0.4990  0.2082 -0.4702
  978MOL0     C28969   5.396   2.329   1.650  1.1545 -1.0858 -0.8905
  978MOL0     C28970   5.435   2.195   1.624  0.5648 -0.0965 -0.6096
  978MOL0     C28971   5.375   2.119   1.520  0.4175  0.0775  0.8672
  978MOL0     O28972   5.407   1.991   1.474 -0.4203  0.1983 -0.4301
  978MOL0     C28973   5.504   1.913   1.546  0.6175  0.2234  0.2954
  978MOL0     C28974   5.509   1.783   1.463 -0.0584  0.5110 -0.1131
  978MOL0     C28975   5.622   1.691   1.509  0.3805  0.5412  0.4677
  978MOL0     C28976   5.609   1.577   1.417 -0.1823 -0.1194  0.2871
  978MOL0     C28977   5.723   1.482   1.427 -0.9582 -0.3757 -0.4120
  978MOL0     C28978   5.713   1.369   1.328 -0.4066  0.0039  0.2319
  978MOL0     C28979   5.821   1.269   1.373 -0.3381 -0.4664  0.4361
  978MOL0     C28980   5.917   1.249   1.256 -0.3097  0.1371  0.1682
  978MOL0     N28981   6.025   1.150   1.282  0.8891  0.3443 -0.3444
  978MOL0     C28982   6.088   1.057   1.204  0.3776  0.3196 -0.8537
  978MOL0     C28983   6.176   0.984   1.278 -0.0185 -0.2634  0.4222
  978MOL0     C28984   6.271   0.880   1.226 -0.3517  0.5392 -0.1806
  978MOL0     C28985   6.192   0.752   1.194 -0.1515  0.7919  1.1888
  978MOL0     C28986   6.272   0.697   1.075  0.4210 -0.1551  0.1230
  978MOL0     C28987   6.218   0.562   1.035 -0.5877 -0.2716 -0.7772
  978MOL0     O28988   6.074   0.578   1.016 -0.6344  0.2128 -0.2941
  978MOL0     C28989   5.983   0.478   1.038 -0.2405  0.2294  1.4332
  978MOL0     C28990   6.008   0.344   1.069 -0.6881 -0.6906 -0.2703
  978MOL0     C28991   5.908   0.256   1.097  0.3510 -0.0908  0.0625
  978MOL0     C28992   5.773   0.300   1.100  0.2032  0.4953 -0.1174
  978MOL0     C28993   5.671   0.195   1.142  0.7576 -0.5915  0.2030
  978MOL0     O28994   5.543   0.251   1.144 -0.4492  0.2570  0.1051
  978MOL0     C28995   5.442   0.180   1.196 -0.1995  0.8097  0.2333
  978MOL0     C28996   5.407   0.192   1.334  0.8298  1.0671 -0.3263
  978MOL0     C28997   5.299   0.119   1.381 -0.3497 -0.9737 -0.6015
  978MOL0     C28998   5.224   0.029   1.302  0.3440 -0.5511 -0.5467
  978MOL0     O28999   5.111  -0.039   1.354 -0.1863 -0.1327 -0.5413
  978MOL0     C29000   5.143  -0.127   1.458  0.0494 -0.1383 -0.5218
  978MOL0     C29001   5.108  -0.269   1.430 -0.3357  0.3187  0.4292
  978MOL0     C29002   4.955  -0.282   1.408  0.1330 -0.6041  0.4297
  978MOL0     C29003   4.937  -0.424   1.358 -0.4138  0.1563  0.6640
  978MOL0     C29004   4.810  -0.478   1.424  0.6582 -0.1989  0.1197
  978MOL0     C29005   4.686  -0.442   1.345  0.1503 -0.0470  0.1066
  978MOL0     C29006   4.571  -0.429   1.442 -0.2044 -0.4698 -0.6643
  978MOL0     C29007   4.543  -0.557   1.518  0.2109 -0.2923 -0.2215
  978MOL0    Cl29008   4.374  -0.543   1.590  0.1762 -0.2441 -0.3607
  978MOL0     C29009   5.258   0.017   1.165 -0.0135 -1.0008  0.0797
  978MOL0     C29010   5.366   0.098   1.115  0.0807 -0.0989 -0.0925
  978MOL0     O29011   5.688   0.079   1.147 -0.2280  0.3575  0.8116
  978MOL0     C29012   5.748   0.434   1.053 -0.0615  1.2370 -0.0657
  978MOL0     C29013   5.851   0.517   1.026 -0.7321  0.8447 -0.1104
  978MOL0     N29014   6.154   1.023   1.409 -0.5810 -0.0516  0.4238
  978MOL0     N29015   6.066   1.120   1.413  0.6780 -0.7960  0.8043
  978MOL0     C29016   5.283   2.184   1.439  0.0965 -0.4518  0.6789
  978MOL0     C29017   5.247   2.314   1.469 -0.3784  0.0507 -0.2305
  978MOL0     C29018   5.153   2.729   1.631  0.3589  0.7407  0.1742
  978MOL0     C29019   5.057   2.815   1.586 -0.4252  0.1796  1.0916
  978MOL0     C29020   5.002   2.916   1.673  0.4633  0.5280  0.1542
  978MOL0     C29021   5.047   2.934   1.797  1.2849  0.4183  0.1009
  978MOL0     O29022   4.999   3.037   1.873 -0.1279 -0.0969 -0.3214
  978MOL0     C29023   5.080   3.125   1.950 -0.4853  0.0252  0.6953
  978MOL0     C29024   5.166   3.219   1.865  0.0114  0.3072  0.4240
  978MOL0     C29025   5.100   3.338   1.801  0.1075 -0.0516  1.0303
  978MOL0     C29026   5.013   3.302   1.680  0.5928  0.1000 -0.4771
  978MOL0     C29027   4.945   3.420   1.620  0.2146 -0.1587 -0.0767
  978MOL0     C29028   4.893   3.527   1.580  0.5606 -0.0296  0.6325
  978MOL0     C29029   5.135   2.833   1.850 -0.0651  0.2607  0.5924
  978MOL0     C29030   5.185   2.737   1.768 -0.3921  0.7132  0.7539
  978MOL0     H29031   5.437   2.391   1.729  0.3722  1.0494 -2.1121
  978MOL0     H29032   5.507   2.163   1.699  0.3810 -0.5844 -0.6402
  978MOL0     H29033   5.481   1.883   1.649  0.4833 -1.5484 -0.2137
  978MOL0     H29034   5.591   1.979   1.556  0.8229  0.3029 -1.7131
  978MOL0     H29035   5.541   1.800   1.360  4.3435  0.9005  1.1092
  978MOL0     H29036   5.418   1.722   1.465 -0.0092  0.4448  1.9606
  978MOL0     H29037   5.621   1.666   1.616  1.6184  0.4954  0.4824
  978MOL0     H29038   5.713   1.749   1.490  0.9612 -0.8854 -1.2479
  978MOL0     H29039   5.523   1.511   1.432  1.2356 -1.7971  1.5473
  978MOL0     H29040   5.605   1.609   1.313 -5.9394  1.4564  0.6547
  978MOL0     H29041   5.717   1.438   1.527  2.8433  1.4367  0.7856
  978MOL0     H29042   5.819   1.534   1.422 -0.7271 -0.1851  3.2312
  978MOL0     H29043   5.720   1.409   1.226 -2.2548  0.9218  0.4301
  978MOL0     H29044   5.619   1.317   1.346 -1.6318  2.5369  1.6342
  978MOL0     H29045   5.882   1.307   1.455  0.0544 -1.3550  0.5747
  978MOL0     H29046   5.786   1.173   1.412 -0.9270  1.0719  4.0946
  978MOL0     H29047   5.950   1.344   1.211 -1.4952 -0.1819 -1.4801
  978MOL0     H29048   5.857   1.198   1.180  1.7854 -2.9975  0.4438
  978MOL0     H29049   6.080   1.035   1.098  1.7930 -1.3091 -0.6584
  978MOL0     H29050   6.348   0.849   1.297 -2.0610 -0.7457  1.1968
  978MOL0     H29051   6.335   0.923   1.148 -0.6556 -2.0195 -1.9747
  978MOL0     H29052   6.089   0.782   1.172 -0.1028  0.4748  0.4938
  978MOL0     H29053   6.190   0.678   1.274  1.3141 -1.1938 -0.4853
  978MOL0     H29054   6.266   0.759   0.985 -0.0619 -1.0446 -0.4746
  978MOL0     H29055   6.375   0.688   1.110 -0.5396 -1.7358  2.8386
  978MOL0     H29056   6.223   0.497   1.123  1.8387 -0.2336 -0.8162
  978MOL0     H29057   6.271   0.507   0.957  2.1623 -1.7789  1.9259
  978MOL0     H29058   6.107   0.301   1.075  0.1746  1.1370 -0.6258
  978MOL0     H29059   5.925   0.153   1.128  1.4164 -0.2679 -1.0214
  978MOL0     H29060   5.456   0.254   1.409  0.5295  0.2197  0.5905
  978MOL0     H29061   5.263   0.141   1.481  2.3264  1.4175 -0.0615
  978MOL0     H29062   5.106  -0.096   1.556  2.8556  1.3883  0.1753
  978MOL0     H29063   5.249  -0.121   1.485 -0.1741 -0.3428  0.4470
  978MOL0     H29064   5.153  -0.330   1.509  4.4731 -1.5587 -3.2544
  978MOL0     H29065   5.158  -0.292   1.336  1.5341 -2.6792  2.0121
  978MOL0     H29066   4.921  -0.213   1.330  0.7975  0.2007  0.8243
  978MOL0     H29067   4.890  -0.258   1.493 -2.1866 -1.1454 -1.1098
  978MOL0     H29068   4.936  -0.436   1.249  0.1884  0.7155  0.5862
  978MOL0     H29069   5.016  -0.494   1.390  0.4266  0.5075 -0.5645
  978MOL0     H29070   4.812  -0.448   1.529 -0.7348  1.9047 -0.3949
  978MOL0     H29071   4.808  -0.587   1.422  0.9662 -0.2752  2.1875
  978MOL0     H29072   4.667  -0.525   1.275 -2.2488  0.6371 -0.1591
  978MOL0     H29073   4.687  -0.346   1.294 -0.3907 -0.9988 -1.8030
  978MOL0     H29074   4.608  -0.362   1.520 -1.1107 -1.2294  0.4591
  978MOL0     H29075   4.486  -0.399   1.380  0.6494 -0.4549 -1.8619
  978MOL0     H29076   4.621  -0.559   1.594  1.7789  2.7174 -1.5572
  978MOL0     H29077   4.552  -0.640   1.448  1.8219  0.2718 -0.7264
  978MOL0     H29078   5.197  -0.045   1.100  1.6445 -2.2208 -0.3894
  978MOL0     H29079   5.378   0.098   1.007  0.1418 -1.0195 -0.0965
  978MOL0     H29080   5.642   0.455   1.044 -0.5593 -0.5416  1.1434
  978MOL0     H29081   5.832   0.617   0.989  0.1527  0.7640 -0.8278
  978MOL0     H29082   5.230   2.144   1.353 -0.9295  1.1053  0.5398
  978MOL0     H29083   5.178   2.351   1.394  2.8500  1.1039 -2.8904
  978MOL0     H29084   5.017   2.817   1.486  4.3285 -0.9468 -1.0932
  978MOL0     H29085   4.918   2.973   1.632 -0.4032 -1.6750 -1.2926
  978MOL0     H29086   5.155   3.075   2.013  0.1581  1.2080  0.9069
  978MOL0     H29087   5.020   3.186   2.018  0.4871  0.7680  0.9130
  978MOL0     H29088   5.241   3.256   1.935  1.4628 -1.4840 -0.1216
  978MOL0     H29089   5.229   3.165   1.795 -0.0410 -0.3645  0.8832
  978MOL0     H29090   5.187   3.396   1.767  2.2594 -2.7080  1.6684
  978MOL0     H29091   5.033   3.392   1.869 -1.6245 -3.1360  1.9715
  978MOL0     H29092   5.086   3.253   1.614  3.1210  1.0331  1.4537
  978MOL0     H29093   4.940   3.227   1.711 -0.6288  1.4174 -0.0730
  978MOL0     H29094   4.874   3.619   1.528 -0.0072 -1.2357 -1.3870
  978MOL0     H29095   5.160   2.826   1.956  2.0484 -0.0372  0.1120
  978MOL0     H29096   5.256   2.667   1.813 -0.1944  0.5743  0.2349
  979MOL0     O29097   4.011   7.718   4.150 -0.3034 -0.4914  0.2784
  979MOL0     C29098   4.026   7.775   4.039 -0.0870  0.2580  0.0761
  979MOL0     O29099   4.139   7.842   4.003  0.3786  0.0861 -0.5688
  979MOL0     C29100   4.239   7.827   4.097  0.1192  0.3208 -0.0978
  979MOL0     C29101   4.329   7.723   4.069  1.0449  0.3605 -0.3928
  979MOL0     C29102   4.431   7.698   4.161 -0.5457 -0.2949  0.3247
  979MOL0     C29103   4.457   7.780   4.270  0.1290  0.6081  0.1306
  979MOL0     O29104   4.562   7.766   4.348  0.3563 -0.6291  0.0938
  979MOL0     C29105   4.557   7.660   4.440 -0.1110 -0.4120 -0.3473
  979MOL0     C29106   4.692   7.587   4.450 -0.4973 -0.1500 -0.1194
  979MOL0     C29107   4.697   7.501   4.578 -0.3167 -0.6218 -0.4620
  979MOL0     C29108   4.605   7.384   4.590  0.1363 -0.4019  0.7565
  979MOL0     C29109   4.651   7.294   4.708 -0.0104 -0.0107  0.2854
  979MOL0     C29110   4.583   7.158   4.708  0.4696  0.6553 -0.5157
  979MOL0     C29111   4.608   7.069   4.835  0.2838 -0.6712 -0.2746
  979MOL0     C29112   4.537   6.929   4.837 -0.2912 -0.3257  1.0202
  979MOL0     N29113   4.396   6.935   4.889  0.1159 -0.2406  1.0121
  979MOL0     C29114   4.278   6.962   4.819 -0.7847 -0.4813  0.6564
  979MOL0     C29115   4.178   6.964   4.910  0.3045  0.3350  0.9596
  979MOL0     C29116   4.027   6.975   4.895 -0.4932 -0.0084  0.0468
  979MOL0     C29117   3.977   7.100   4.963 -0.0326  0.1634  0.6415
  979MOL0     C29118   3.832   7.102   4.952 -1.0807  0.3064  0.5725
  979MOL0     C29119   3.782   7.241   5.010  0.6806  0.6691  0.0638
  979MOL0     O29120   3.635   7.233   5.006  0.3603 -0.1440  0.0109
  979MOL0     C29121   3.564   7.199   4.895 -0.0670 -0.4178 -0.6513
  979MOL0     C29122   3.444   7.129   4.916  0.1339 -0.2429 -0.5466
  979MOL0     C29123   3.350   7.093   4.814  1.0469 -0.0950 -0.0101
  979MOL0     C29124   3.375   7.117   4.682 -0.6981 -0.1591  0.2088
  979MOL0     C29125   3.269   7.094   4.585 -0.0923 -0.1422 -0.4395
  979MOL0     O29126   3.157   7.026   4.626 -0.1669 -0.2809 -0.1729
  979MOL0     C29127   3.037   7.039   4.556 -1.2095 -0.2865 -0.4402
  979MOL0     C29128   2.968   6.935   4.517 -0.5228 -0.1959 -0.2922
  979MOL0     C29129   2.853   6.946   4.445  0.1583 -0.5214  0.1576
  979MOL0     C29130   2.801   7.065   4.391 -0.4992 -0.4998  0.0560
  979MOL0     O29131   2.691   7.099   4.324 -0.0397  1.3221  0.0438
  979MOL0     C29132   2.607   6.991   4.280 -0.2013  0.3351 -0.6387
  979MOL0     C29133   2.502   7.056   4.186  0.6083  0.9749  0.2845
  979MOL0     C29134   2.405   6.938   4.149 -0.6680 -0.1620 -0.1382
  979MOL0     C29135   2.301   6.978   4.035 -0.6774  0.0723 -0.4531
  979MOL0     C29136   2.178   6.886   4.043 -0.3775 -0.7016 -0.5141
  979MOL0     C29137   2.077   6.924   3.930  0.4848  0.7193  0.8544
  979MOL0     C29138   1.929   6.868   3.952 -0.5780  0.5540 -0.7109
  979MOL0     C29139   1.845   6.957   4.038  0.8185 -0.2116 -0.1057
  979MOL0    Cl29140   1.676   6.893   4.044 -0.4272 -0.6802 -0.0855
  979MOL0     C29141   2.878   7.181   4.426 -0.8994  0.6653 -1.0924
  979MOL0     C29142   2.993   7.161   4.507  0.1568 -0.1277 -0.0604
  979MOL0     O29143   3.284   7.149   4.472  0.0680  0.0673  0.1549
  979MOL0     C29144   3.499   7.183   4.657 -0.3392 -0.6414  0.0205
  979MOL0     C29145   3.595   7.228   4.758 -0.1675  0.3957 -0.2943
  979MOL0     N29146   4.229   6.937   5.033  0.9803 -0.7251 -0.4601
  979MOL0     N29147   4.364   6.932   5.016  0.0154 -0.1040  0.3631
  979MOL0     C29148   4.366   7.892   4.282 -0.0055  0.3542 -0.5154
  979MOL0     C29149   4.256   7.910   4.203  0.4054 -0.3682 -0.8181
  979MOL0     C29150   3.929   7.751   3.933  0.0080 -0.3101  0.0202
  979MOL0     C29151   3.957   7.777   3.800  0.9659  0.0612 -0.0440
  979MOL0     C29152   3.860   7.758   3.700  0.6949 -0.8684  0.4087
  979MOL0     C29153   3.730   7.729   3.743  0.5277 -0.9208  0.0746
  979MOL0     O29154   3.619   7.729   3.665  0.3314 -0.0566  0.2194
  979MOL0     C29155   3.630   7.779   3.528 -0.1723 -0.1812  0.4427
  979MOL0     C29156   3.497   7.811   3.478  0.1730  0.3178 -0.9671
  979MOL0     C29157   3.416   7.675   3.451 -0.2214  0.4623  0.0239
  979MOL0     C29158   3.313   7.705   3.354 -0.8227 -2.0119 -0.8465
  979MOL0     C29159   3.245   7.578   3.320  0.6853  0.3467 -0.6946
  979MOL0     C29160   3.208   7.470   3.282  0.0246  1.0919 -0.1240
  979MOL0     C29161   3.697   7.702   3.869  0.5794  0.4639 -0.3516
  979MOL0     C29162   3.796   7.719   3.970  0.4354  0.0967 -1.3439
  979MOL0     H29163   4.319   7.668   3.976 -0.5742  3.4801 -2.2534
  979MOL0     H29164   4.495   7.613   4.143 -0.1726 -0.0670  0.5805
  979MOL0     H29165   4.473   7.594   4.421 -1.9708  1.4216  1.0287
  979MOL0     H29166   4.543   7.693   4.544  1.5097  0.2420 -0.3027
  979MOL0     H29167   4.773   7.659   4.462 -0.7278  0.7069 -2.8541
  979MOL0     H29168   4.717   7.521   4.366  0.6863  0.7110 -0.4631
  979MOL0     H29169   4.685   7.556   4.672  2.2142 -3.1970  1.5360
  979MOL0     H29170   4.797   7.457   4.586 -0.4418 -1.3722 -2.4792
  979MOL0     H29171   4.502   7.413   4.610 -0.1839 -0.1638 -1.0717
  979MOL0     H29172   4.604   7.321   4.501 -0.8455 -1.1467  1.2739
  979MOL0     H29173   4.638   7.352   4.800  3.5074  4.0802 -1.4387
  979MOL0     H29174   4.758   7.274   4.696 -0.4494 -0.8117 -4.4069
  979MOL0     H29175   4.617   7.113   4.615  1.3921  1.5591 -0.6310
  979MOL0     H29176   4.476   7.177   4.721  0.4199 -0.4684  1.0554
  979MOL0     H29177   4.717   7.064   4.841  0.3391  1.4451  3.6030
  979MOL0     H29178   4.590   7.120   4.930  0.2732 -1.4100  0.1273
  979MOL0     H29179   4.596   6.862   4.900 -0.8705 -0.7905  1.0799
  979MOL0     H29180   4.538   6.906   4.731  2.0494  5.3713 -0.5802
  979MOL0     H29181   4.249   6.978   4.715  0.9952  2.4138  0.4831
  979MOL0     H29182   3.981   6.886   4.939  0.7976  0.9290  3.6887
  979MOL0     H29183   4.004   6.988   4.789  1.2166  1.3728 -0.1907
  979MOL0     H29184   4.015   7.190   4.913 -0.6270  0.3285  0.4703
  979MOL0     H29185   3.996   7.092   5.070 -1.9772  0.3488  1.0355
  979MOL0     H29186   3.808   7.097   4.845  1.7929 -1.0305 -0.0937
  979MOL0     H29187   3.802   7.007   4.996 -2.4270 -0.5770 -2.0248
  979MOL0     H29188   3.823   7.322   4.950  0.8464 -1.0840 -2.3342
  979MOL0     H29189   3.810   7.247   5.116 -2.0281  3.7837  0.7848
  979MOL0     H29190   3.419   7.096   5.017 -0.5639  2.2860  0.1924
  979MOL0     H29191   3.257   7.055   4.855  0.3037  0.9677 -0.6602
  979MOL0     H29192   2.996   6.838   4.556  3.7633  1.1853  0.5867
  979MOL0     H29193   2.786   6.861   4.438  1.6844 -1.7079 -0.6003
  979MOL0     H29194   2.565   6.946   4.371  2.3642 -4.6068 -1.5838
  979MOL0     H29195   2.664   6.922   4.218 -1.2587 -0.8185 -0.3696
  979MOL0     H29196   2.538   7.099   4.092 -0.9657 -0.2889 -0.9476
  979MOL0     H29197   2.447   7.134   4.239 -2.2471 -0.4359 -0.4284
  979MOL0     H29198   2.360   6.907   4.244  2.7566  1.1650  2.1026
  979MOL0     H29199   2.469   6.865   4.099 -0.6613  0.0208 -0.3961
  979MOL0     H29200   2.270   7.083   4.040  0.2321  0.2958  0.9765
  979MOL0     H29201   2.337   6.960   3.934 -0.8828  0.8993 -0.6869
  979MOL0     H29202   2.128   6.904   4.138  0.0862  0.9570 -0.5498
  979MOL0     H29203   2.200   6.779   4.036  3.2504  0.0093 -1.9304
  979MOL0     H29204   2.109   6.896   3.829  2.6055  2.0363  1.0922
  979MOL0     H29205   2.076   7.033   3.922 -1.1622  0.6154 -1.0971
  979MOL0     H29206   1.882   6.854   3.855 -2.5665 -1.9129  0.4906
  979MOL0     H29207   1.929   6.768   3.996 -0.9381  1.0172  0.3737
  979MOL0     H29208   1.857   7.054   3.991  3.4485  0.7552  2.2633
  979MOL0     H29209   1.878   6.966   4.142  2.3795 -0.6178 -0.5295
  979MOL0     H29210   2.847   7.277   4.384 -1.2716 -0.0061 -2.4138
  979MOL0     H29211   3.047   7.254   4.525 -0.9760  0.0591  3.1278
  979MOL0     H29212   3.527   7.205   4.554 -0.1666  1.8477  0.5405
  979MOL0     H29213   3.690   7.274   4.731  0.2544 -0.8688 -1.0528
  979MOL0     H29214   4.379   7.961   4.364  1.4450 -1.2795  0.7223
  979MOL0     H29215   4.196   7.998   4.221 -0.6160 -0.8562 -1.7381
  979MOL0     H29216   4.057   7.804   3.768  1.2624  1.9403  2.1890
  979MOL0     H29217   3.892   7.797   3.604  1.6511  0.2513  1.1405
  979MOL0     H29218   3.685   7.712   3.461  0.2900 -0.1722  0.8074
  979MOL0     H29219   3.685   7.873   3.535  0.4996 -0.5078 -0.3047
  979MOL0     H29220   3.438   7.883   3.535  2.2760  0.8368  0.6633
  979MOL0     H29221   3.515   7.868   3.386  1.6262 -0.2339 -1.0534
  979MOL0     H29222   3.374   7.632   3.542  3.2545  0.6295  1.8932
  979MOL0     H29223   3.494   7.606   3.418 -2.1497  0.5169 -5.6502
  979MOL0     H29224   3.235   7.766   3.401  0.0685 -0.3548 -1.4406
  979MOL0     H29225   3.338   7.761   3.264  2.3180 -1.5065  0.2181
  979MOL0     H29226   3.187   7.375   3.237 -0.9226  0.5735  1.3600
  979MOL0     H29227   3.600   7.655   3.880 -0.3494  2.1006 -1.1240
  979MOL0     H29228   3.761   7.689   4.069 -0.1588 -1.8657 -2.1136
  980MOL0     O29229   6.853   6.755   5.248 -0.0869 -0.2357  0.8197
  980MOL0     C29230   6.902   6.728   5.359 -0.2546  0.4392  0.7921
  980MOL0     O29231   6.865   6.625   5.441 -0.1975 -0.1904 -0.3007
  980MOL0     C29232   6.756   6.557   5.397  0.3351  0.4266 -0.0626
  980MOL0     C29233   6.768   6.418   5.375  0.0762 -1.1249 -0.3055
  980MOL0     C29234   6.660   6.343   5.334  0.5396 -0.0382  0.4931
  980MOL0     C29235   6.542   6.407   5.306  0.1922  0.3469  0.2908
  980MOL0     O29236   6.441   6.325   5.260 -0.2884 -0.3699  0.4875
  980MOL0     C29237   6.352   6.260   5.352 -0.0377  0.3350 -0.2604
  980MOL0     C29238   6.252   6.186   5.267  0.0478  0.7435 -0.6044
  980MOL0     C29239   6.131   6.273   5.227  0.6804  0.5213 -0.6639
  980MOL0     C29240   6.158   6.416   5.192  0.8040  0.6064 -0.1473
  980MOL0     C29241   6.040   6.473   5.113  0.0023  0.5968  0.1033
  980MOL0     C29242   5.913   6.484   5.203  0.2259 -0.7232  0.0241
  980MOL0     C29243   5.803   6.571   5.144  0.3582  0.4353  0.1844
  980MOL0     C29244   5.720   6.507   5.039  0.0598 -0.8335 -0.3124
  980MOL0     N29245   5.623   6.422   5.106 -0.2136 -0.0211 -0.4937
  980MOL0     C29246   5.639   6.285   5.121  0.1267 -0.4740  0.3610
  980MOL0     C29247   5.522   6.240   5.175 -0.1698  0.1712  0.0302
  980MOL0     C29248   5.475   6.095   5.186  0.2031 -0.1355 -0.5000
  980MOL0     C29249   5.357   6.060   5.103 -0.1502  0.5022 -0.1139
  980MOL0     C29250   5.380   6.071   4.954 -0.3058 -0.0459 -0.3740
  980MOL0     C29251   5.253   6.062   4.874  0.1994  0.2004  0.4059
  980MOL0     O29252   5.183   5.946   4.923 -0.4021  0.8244  0.3516
  980MOL0     C29253   5.056   5.921   4.867  0.2842  0.1154 -0.8060
  980MOL0     C29254   4.979   5.815   4.908 -0.0554 -0.3082  0.4247
  980MOL0     C29255   4.844   5.804   4.868 -1.0625  0.0834 -0.0910
  980MOL0     C29256   4.789   5.883   4.770  0.2238  0.2333  0.1687
  980MOL0     C29257   4.649   5.864   4.724  0.6084  0.4419  0.5538
  980MOL0     O29258   4.619   5.914   4.602  0.9694  0.4981  0.5942
  980MOL0     C29259   4.495   5.894   4.552  1.5236  0.2717  0.0716
  980MOL0     C29260   4.385   5.971   4.607  0.0297  0.0441 -0.0775
  980MOL0     C29261   4.257   5.968   4.556  0.0676  0.1014  0.3652
  980MOL0     C29262   4.240   5.876   4.448  0.2060 -0.6630  0.3476
  980MOL0     O29263   4.105   5.870   4.419 -0.4573 -0.3536 -0.2025
  980MOL0     C29264   4.064   5.760   4.338  0.2455 -0.4970 -0.5837
  980MOL0     C29265   3.918   5.758   4.306  0.3523  0.3993  0.1021
  980MOL0     C29266   3.859   5.876   4.219  0.3674 -0.0983  0.4376
  980MOL0     C29267   3.697   5.872   4.223  0.1666 -0.2953  0.0126
  980MOL0     C29268   3.627   6.014   4.206  0.4758 -0.4166 -0.6287
  980MOL0     C29269   3.468   6.018   4.217 -0.0910 -0.2002 -0.2936
  980MOL0     C29270   3.397   5.934   4.116  0.9241 -0.1113 -0.3934
  980MOL0     C29271   3.246   5.946   4.123 -0.0022 -0.2310 -0.0856
  980MOL0    Cl29272   3.166   5.852   4.000  0.0199  0.2509  0.2286
  980MOL0     C29273   4.338   5.794   4.387  0.1053 -0.2955 -0.3525
  980MOL0     C29274   4.469   5.807   4.443  0.9917 -0.7530  0.2361
  980MOL0     O29275   4.577   5.796   4.795  0.2555 -0.2840 -0.5991
  980MOL0     C29276   4.873   5.982   4.717 -0.2650 -0.5257 -0.3511
  980MOL0     C29277   5.000   6.011   4.769  0.2175 -0.2071 -0.6997
  980MOL0     N29278   5.448   6.349   5.212 -0.4627 -0.5271  0.3970
  980MOL0     N29279   5.513   6.459   5.177 -0.5473 -0.0015 -0.5978
  980MOL0     C29280   6.527   6.550   5.325  0.1146  0.8160 -0.1633
  980MOL0     C29281   6.633   6.622   5.376  0.0241  0.7122 -0.3767
  980MOL0     C29282   7.015   6.804   5.411 -0.1123 -0.5693  1.1251
  980MOL0     C29283   7.094   6.760   5.512  0.6837 -0.3406  0.5253
  980MOL0     C29284   7.205   6.832   5.556 -0.2970  0.1366  0.5906
  980MOL0     C29285   7.266   6.933   5.478 -0.1661  0.2671  0.9902
  980MOL0     O29286   7.376   7.001   5.511 -0.1071 -0.1034  0.0687
  980MOL0     C29287   7.373   7.121   5.592  0.2482 -0.0590  0.3826
  980MOL0     C29288   7.267   7.122   5.704 -0.0280 -0.7265 -0.3434
  980MOL0     C29289   7.312   7.226   5.812 -0.2945 -0.3755  1.4485
  980MOL0     C29290   7.224   7.249   5.936 -0.0958  0.0336 -0.7144
  980MOL0     C29291   7.266   7.359   6.023 -0.2382  0.5730  0.0979
  980MOL0     C29292   7.319   7.438   6.095 -0.5568 -0.1642 -0.4286
  980MOL0     C29293   7.189   6.970   5.367  0.5150 -0.2911  0.6512
  980MOL0     C29294   7.057   6.914   5.337 -0.5179 -0.2326 -0.0965
  980MOL0     H29295   6.860   6.369   5.406  0.8434  0.6614  0.3931
  980MOL0     H29296   6.672   6.239   5.304 -0.2048  0.4924 -1.8116
  980MOL0     H29297   6.298   6.330   5.417  0.9109 -0.3110  1.2947
  980MOL0     H29298   6.406   6.186   5.412  0.3826  0.6103 -0.2971
  980MOL0     H29299   6.214   6.103   5.327  2.1807  1.5848  2.1276
  980MOL0     H29300   6.305   6.145   5.180  0.3918 -1.2703  0.5097
  980MOL0     H29301   6.067   6.274   5.316  0.7223  2.0800 -0.6148
  980MOL0     H29302   6.080   6.229   5.141  0.3770 -1.1006  0.3088
  980MOL0     H29303   6.182   6.474   5.282 -1.4269 -1.2001  1.7530
  980MOL0     H29304   6.248   6.417   5.130  0.5035 -3.9715 -0.9780
  980MOL0     H29305   6.021   6.417   5.022 -0.6698  1.4057 -0.2677
  980MOL0     H29306   6.077   6.573   5.086  0.3284  0.7300  1.0046
  980MOL0     H29307   5.954   6.540   5.289  2.0225 -3.2127  0.9053
  980MOL0     H29308   5.880   6.393   5.253  1.5271 -2.0072 -1.3516
  980MOL0     H29309   5.730   6.617   5.213  0.3845  1.1378 -0.2409
  980MOL0     H29310   5.857   6.656   5.102 -1.1643  0.2556 -2.3110
  980MOL0     H29311   5.793   6.449   4.980  1.4057 -0.8819  1.3242
  980MOL0     H29312   5.661   6.578   4.981 -1.9317 -2.2555 -0.1371
  980MOL0     H29313   5.716   6.227   5.071 -0.0744  1.8492 -2.9489
  980MOL0     H29314   5.452   6.077   5.292  2.1108 -0.4291 -0.1011
  980MOL0     H29315   5.557   6.036   5.146  0.5160  0.2078 -0.3760
  980MOL0     H29316   5.281   6.133   5.130  0.4039  1.1917 -0.3887
  980MOL0     H29317   5.333   5.954   5.119  1.7171 -0.4503 -2.9485
  980MOL0     H29318   5.420   6.169   4.926 -0.0972  0.1512  0.5882
  980MOL0     H29319   5.452   5.996   4.920 -0.2596  0.3830 -1.2523
  980MOL0     H29320   5.275   6.061   4.767  0.7728  1.0331  0.5050
  980MOL0     H29321   5.185   6.144   4.899 -2.1772 -1.6935  0.4209
  980MOL0     H29322   5.026   5.743   4.975  1.7471 -3.7209 -3.9395
  980MOL0     H29323   4.786   5.724   4.912 -0.0802  0.9390  3.0735
  980MOL0     H29324   4.408   6.039   4.689  1.9982 -0.6497 -0.0056
  980MOL0     H29325   4.171   6.024   4.591  0.6723  1.7938 -0.6649
  980MOL0     H29326   4.083   5.666   4.391  2.1223 -1.5212 -2.9040
  980MOL0     H29327   4.107   5.764   4.238  0.1021 -0.7118 -0.6548
  980MOL0     H29328   3.858   5.762   4.397 -0.9159  3.0068 -0.7632
  980MOL0     H29329   3.891   5.670   4.247  1.0025  1.5951 -2.1031
  980MOL0     H29330   3.907   5.878   4.120  1.8452  0.0912  1.1323
  980MOL0     H29331   3.886   5.969   4.269 -2.0885  0.9658 -0.0630
  980MOL0     H29332   3.655   5.800   4.153 -3.2151 -0.8976  2.4079
  980MOL0     H29333   3.668   5.828   4.319  1.1664 -2.5273 -0.6456
  980MOL0     H29334   3.653   6.058   4.109  1.9525 -0.4738 -0.2778
  980MOL0     H29335   3.663   6.073   4.291  1.1385 -4.0146  1.7876
  980MOL0     H29336   3.432   6.121   4.206  0.1144 -0.4426 -4.8885
  980MOL0     H29337   3.448   5.969   4.313 -0.1418  0.6864  0.1700
  980MOL0     H29338   3.422   5.968   4.015  0.0077 -1.3823 -1.0770
  980MOL0     H29339   3.423   5.828   4.116 -0.8684 -0.5988  0.7710
  980MOL0     H29340   3.231   6.055   4.120  3.6811  0.4503  1.2613
  980MOL0     H29341   3.209   5.912   4.220  1.4904 -0.6539  0.3609
  980MOL0     H29342   4.317   5.728   4.304 -0.5867  3.1647 -3.1697
  980MOL0     H29343   4.549   5.746   4.403  1.2777 -0.1717 -0.0972
  980MOL0     H29344   4.842   6.042   4.632 -0.8901 -0.5796 -0.1616
  980MOL0     H29345   5.055   6.094   4.726  2.9086 -1.8338 -0.6318
  980MOL0     H29346   6.430   6.591   5.301 -1.5118 -2.6967 -0.2162
  980MOL0     H29347   6.635   6.729   5.394  1.2458  0.5892  0.3732
  980MOL0     H29348   7.058   6.679   5.575 -4.2737  0.3711 -1.0062
  980MOL0     H29349   7.265   6.798   5.639  1.6771 -1.2686 -1.2951
  980MOL0     H29350   7.336   7.206   5.534  1.5441 -0.2901 -0.8577
  980MOL0     H29351   7.471   7.149   5.632 -0.6547  2.3381  1.0548
  980MOL0     H29352   7.168   7.149   5.666  0.5994  0.8540 -0.9396
  980MOL0     H29353   7.268   7.028   5.760  1.7652 -0.1551  0.6622
  980MOL0     H29354   7.319   7.327   5.770 -3.1567 -0.1681  1.2393
  980MOL0     H29355   7.412   7.198   5.847 -0.5295 -1.5644  1.1843
  980MOL0     H29356   7.121   7.258   5.900 -1.3214  0.4376  2.5389
  980MOL0     H29357   7.231   7.158   5.997  1.7591 -0.4842 -1.6187
  980MOL0     H29358   7.375   7.497   6.164 -0.0467  1.1791 -1.9371
  980MOL0     H29359   7.224   7.046   5.298  2.2563  0.6665  2.4812
  980MOL0     H29360   6.999   6.962   5.258 -4.1262 -1.6183  1.4722
  981MOL0     O29361   9.635   7.867   5.796  0.1698  0.4937  0.7048
  981MOL0     C29362   9.595   7.781   5.877  0.3494 -0.0775  0.3883
  981MOL0     O29363   9.658   7.660   5.903  1.0334 -0.2266 -0.0881
  981MOL0     C29364   9.790   7.647   5.848  0.1281  0.7756 -0.7888
  981MOL0     C29365   9.886   7.748   5.855 -0.0979  0.3393 -0.1087
  981MOL0     C29366  10.003   7.730   5.786  0.1935 -0.8947 -0.4000
  981MOL0     C29367  10.031   7.615   5.713  0.6650  0.5516 -0.0457
  981MOL0     O29368  10.144   7.592   5.646 -0.3101  0.0555 -0.5196
  981MOL0     C29369  10.202   7.716   5.602 -0.5786  0.5779  0.1970
  981MOL0     C29370  10.293   7.690   5.482  0.0047  0.9552  0.0865
  981MOL0     C29371  10.412   7.597   5.514 -1.4099  0.2930 -0.3925
  981MOL0     C29372  10.500   7.670   5.607 -0.2467  0.1590 -1.0258
  981MOL0     C29373  10.655   7.640   5.599 -0.9443  0.2581  0.5395
  981MOL0     C29374  10.693   7.501   5.652  0.3122 -1.2778 -0.8503
  981MOL0     C29375  10.842   7.484   5.680 -0.7138 -0.3513 -0.4817
  981MOL0     C29376  10.921   7.447   5.549 -0.2632  0.2849  0.3959
  981MOL0     N29377  11.068   7.417   5.578  0.1840 -0.2940  0.5535
  981MOL0     C29378  11.152   7.497   5.647  0.5349 -0.0166 -0.6824
  981MOL0     C29379  11.258   7.415   5.672  0.2404 -0.3137 -0.5277
  981MOL0     C29380  11.384   7.465   5.735  0.7598  0.1465 -0.7115
  981MOL0     C29381  11.509   7.374   5.710  0.5087 -0.0686  0.4818
  981MOL0     C29382  11.624   7.427   5.805  0.1813 -0.2092 -0.1770
  981MOL0     C29383  11.749   7.343   5.754  0.2021 -0.6168  0.0713
  981MOL0     O29384  11.852   7.384   5.845 -0.3838  0.4630  0.5311
  981MOL0     C29385  11.978   7.336   5.845  0.9150  0.5878 -0.0793
  981MOL0     C29386  12.033   7.341   5.971 -0.6435 -0.1436 -0.1761
  981MOL0     C29387  12.152   7.269   6.006  0.4142 -0.0817 -0.8467
  981MOL0     C29388  12.209   7.191   5.910 -1.2992  0.1681 -0.0507
  981MOL0     C29389  12.338   7.121   5.941  0.7763 -0.3694  0.2946
  981MOL0     O29390  12.437   7.177   6.015 -0.7099  0.3447  0.1110
  981MOL0     C29391  12.561   7.119   6.039  0.5920 -1.0693  0.3738
  981MOL0     C29392  12.601   6.988   6.020 -0.1852  0.2824  0.5176
  981MOL0     C29393  12.737   6.959   6.051  0.6308 -0.9527  0.3875
  981MOL0     C29394  12.820   7.064   6.107  0.9193  0.5441  0.8867
  981MOL0     O29395  12.940   7.033   6.164 -0.4191  0.2178 -0.0442
  981MOL0     C29396  13.027   6.929   6.101  0.5351  0.1020  0.0456
  981MOL0     C29397  13.175   6.964   6.099 -0.4337 -0.5306 -0.2892
  981MOL0     C29398  13.239   6.982   6.240  0.6263 -0.0770 -0.6507
  981MOL0     C29399  13.390   7.011   6.232 -1.1542  0.3875 -0.2713
  981MOL0     C29400  13.464   6.877   6.250 -0.1692 -0.0891 -0.1430
  981MOL0     C29401  13.625   6.898   6.243 -0.2883 -0.7367  0.1332
  981MOL0     C29402  13.715   6.777   6.243  0.2591  0.1065  0.0999
  981MOL0     C29403  13.737   6.697   6.115  1.4796  0.6825  0.0456
  981MOL0    Cl29404  13.817   6.794   5.988 -0.0446 -0.1632  0.2294
  981MOL0     C29405  12.778   7.196   6.118 -0.6675 -0.3000  0.1989
  981MOL0     C29406  12.648   7.222   6.079 -0.3676 -0.0212  0.3366
  981MOL0     O29407  12.341   7.007   5.892  0.4244  0.3722 -0.3404
  981MOL0     C29408  12.155   7.180   5.782  0.6774 -0.2127  1.1567
  981MOL0     C29409  12.041   7.253   5.747  0.5007 -0.0699  0.3175
  981MOL0     N29410  11.238   7.294   5.614  0.7120  0.7385  0.0821
  981MOL0     N29411  11.129   7.296   5.554 -0.5097  0.2177 -0.5345
  981MOL0     C29412   9.925   7.521   5.690 -0.4193 -0.6807 -1.4133
  981MOL0     C29413   9.805   7.536   5.768 -0.1520 -0.1168  0.7954
  981MOL0     C29414   9.482   7.820   5.958  0.0641  0.2595 -0.0317
  981MOL0     C29415   9.440   7.728   6.069 -0.4568 -0.3372  1.0629
  981MOL0     C29416   9.322   7.758   6.140 -0.2459 -0.0034 -0.6691
  981MOL0     C29417   9.252   7.876   6.114 -0.6132 -0.0353 -0.1922
  981MOL0     O29418   9.131   7.892   6.181  0.6504 -0.8679  0.2040
  981MOL0     C29419   9.055   8.015   6.159 -0.0133 -0.4168 -0.2695
  981MOL0     C29420   8.939   8.023   6.251  1.0537 -0.4847 -0.4206
  981MOL0     C29421   8.995   8.070   6.388 -0.8930 -0.7563 -0.3788
  981MOL0     C29422   8.896   8.055   6.504  0.2831  0.6596  0.3934
  981MOL0     C29423   8.803   8.157   6.468 -0.8974  0.2098  0.2438
  981MOL0     C29424   8.728   8.242   6.430 -0.7245 -0.2243 -0.1380
  981MOL0     C29425   9.289   7.955   6.003 -0.7726 -0.1805 -0.1888
  981MOL0     C29426   9.410   7.937   5.935  0.5717  0.1273  0.5262
  981MOL0     H29427   9.851   7.839   5.904 -0.8241 -0.4148  0.8071
  981MOL0     H29428  10.072   7.813   5.776  0.1980 -1.0844 -2.4971
  981MOL0     H29429  10.275   7.748   5.677  1.0446 -1.7079 -0.2609
  981MOL0     H29430  10.124   7.785   5.570 -1.2530  0.1072  0.7845
  981MOL0     H29431  10.319   7.786   5.436 -1.6651  1.1277 -0.5837
  981MOL0     H29432  10.229   7.641   5.408 -3.3112  3.4501  1.0485
  981MOL0     H29433  10.473   7.571   5.427  0.2697 -1.9930  1.3433
  981MOL0     H29434  10.382   7.507   5.568 -0.6136  1.1753  1.6599
  981MOL0     H29435  10.492   7.776   5.577  2.2103  1.1887  1.5529
  981MOL0     H29436  10.463   7.657   5.709  1.1770 -0.4762 -0.5825
  981MOL0     H29437  10.693   7.724   5.658  0.2695 -0.6586  1.1162
  981MOL0     H29438  10.703   7.645   5.500 -0.7567 -0.3136  0.5967
  981MOL0     H29439  10.653   7.421   5.588  1.8592 -1.3685 -1.7464
  981MOL0     H29440  10.645   7.492   5.750 -0.7182  0.9517 -1.0821
  981MOL0     H29441  10.904   7.554   5.738  2.4460 -0.2743 -3.6105
  981MOL0     H29442  10.826   7.403   5.751 -0.8063  1.5500  1.8111
  981MOL0     H29443  10.916   7.535   5.484  1.4554 -0.3218 -0.6116
  981MOL0     H29444  10.874   7.360   5.503 -1.3247  1.9045 -1.7617
  981MOL0     H29445  11.134   7.599   5.679 -1.4396 -0.5025 -0.1299
  981MOL0     H29446  11.368   7.471   5.843 -1.2642 -0.0330 -0.9627
  981MOL0     H29447  11.405   7.568   5.705  0.7834 -0.3115 -2.3516
  981MOL0     H29448  11.532   7.389   5.604 -1.7358 -0.3480 -0.1070
  981MOL0     H29449  11.486   7.269   5.729  0.2933  0.2540  2.1798
  981MOL0     H29450  11.641   7.535   5.796 -0.2999  0.2004  2.6586
  981MOL0     H29451  11.598   7.406   5.910  3.2330  1.7427  1.1231
  981MOL0     H29452  11.775   7.373   5.652  2.6772 -0.8608  0.5670
  981MOL0     H29453  11.734   7.235   5.764  1.1630 -1.4838 -4.8680
  981MOL0     H29454  11.995   7.405   6.050 -0.6307 -0.2563 -0.0776
  981MOL0     H29455  12.189   7.277   6.108  1.4434 -3.5206 -0.8159
  981MOL0     H29456  12.534   6.909   5.990 -1.0602  1.5436 -1.0161
  981MOL0     H29457  12.781   6.861   6.034  1.0649 -0.6548 -0.2491
  981MOL0     H29458  12.993   6.911   5.998 -0.0051 -0.4431  0.3114
  981MOL0     H29459  13.008   6.844   6.167  0.2014  0.4287  0.3710
  981MOL0     H29460  13.192   7.059   6.047 -1.8856 -0.0111  0.1262
  981MOL0     H29461  13.224   6.888   6.039 -0.5371  1.8339 -3.6429
  981MOL0     H29462  13.207   6.901   6.307 -0.1646 -0.4058 -1.4051
  981MOL0     H29463  13.191   7.067   6.288 -0.7077 -0.1510 -1.7977
  981MOL0     H29464  13.409   7.063   6.138 -0.9910 -0.5035 -0.7408
  981MOL0     H29465  13.409   7.081   6.314  0.0046  0.0475 -0.2362
  981MOL0     H29466  13.420   6.818   6.170 -0.5942 -1.1131  0.8145
  981MOL0     H29467  13.446   6.821   6.343 -1.3749 -2.3128 -1.6184
  981MOL0     H29468  13.657   6.956   6.330 -0.9907  0.5399 -0.4244
  981MOL0     H29469  13.636   6.967   6.159 -1.6439 -0.7657 -0.0919
  981MOL0     H29470  13.805   6.825   6.282 -1.0984  0.4644  2.9885
  981MOL0     H29471  13.660   6.719   6.317  1.4071  0.1705  1.0259
  981MOL0     H29472  13.643   6.668   6.066  0.7396  0.9727  1.2372
  981MOL0     H29473  13.796   6.607   6.135  0.9614  0.0945 -1.0143
  981MOL0     H29474  12.855   7.263   6.153  1.4265 -1.3385 -2.1016
  981MOL0     H29475  12.612   7.324   6.084 -1.2107 -0.1205 -2.2040
  981MOL0     H29476  12.209   7.127   5.704 -1.6283  0.5685 -1.1042
  981MOL0     H29477  11.985   7.252   5.654 -3.0749  4.2689  2.0864
  981MOL0     H29478   9.951   7.440   5.622 -1.2812 -3.3114  1.1554
  981MOL0     H29479   9.724   7.467   5.747 -1.7123  1.5635  1.0418
  981MOL0     H29480   9.501   7.639   6.081 -1.0550 -1.0403 -0.8479
  981MOL0     H29481   9.285   7.697   6.221 -1.3219  0.8266 -0.5127
  981MOL0     H29482   9.011   8.007   6.059 -1.5721 -0.5213  0.3943
  981MOL0     H29483   9.112   8.108   6.154  1.9012 -1.4134  1.6042
  981MOL0     H29484   8.879   8.107   6.215  1.0266 -1.1474 -1.9937
  981MOL0     H29485   8.878   7.933   6.242  0.4808 -0.2747  1.0252
  981MOL0     H29486   9.028   8.174   6.383  2.0372 -1.5687 -0.0832
  981MOL0     H29487   9.075   8.002   6.420  0.1519 -0.1303 -1.5924
  981MOL0     H29488   8.854   7.955   6.494  2.4203 -0.1669 -1.0818
  981MOL0     H29489   8.943   8.062   6.603 -0.5420 -3.0130  1.1841
  981MOL0     H29490   8.666   8.324   6.400 -0.4788  0.4702  1.1512
  981MOL0     H29491   9.223   8.034   5.969 -1.0619  0.0296  0.8184
  981MOL0     H29492   9.429   8.003   5.850 -2.2100  1.2601  0.6543
  982MOL0     O29493   6.152   6.063   4.736 -1.1260  0.1867 -0.6212
  982MOL0     C29494   6.202   6.162   4.794 -0.0615  0.4403  0.2952
  982MOL0     O29495   6.128   6.268   4.828 -0.0074  0.1287 -0.5047
  982MOL0     C29496   5.990   6.248   4.799 -0.7156 -0.2286  0.1433
  982MOL0     C29497   5.904   6.144   4.844 -0.3527 -0.4586 -0.4769
  982MOL0     C29498   5.767   6.145   4.825 -0.3059 -1.2759  0.2084
  982MOL0     C29499   5.706   6.249   4.749 -0.6821 -1.2883 -0.3983
  982MOL0     O29500   5.572   6.229   4.732 -0.1817  0.6365 -0.4214
  982MOL0     C29501   5.486   6.333   4.688  0.5925 -1.2357 -0.4951
  982MOL0     C29502   5.437   6.330   4.535  0.9107 -1.3251  0.0006
  982MOL0     C29503   5.380   6.195   4.505 -0.4077 -0.1715  0.0152
  982MOL0     C29504   5.342   6.179   4.359 -0.5809 -0.0280  0.0234
  982MOL0     C29505   5.288   6.038   4.327 -0.0636 -0.2561 -0.2928
  982MOL0     C29506   5.156   6.010   4.402 -0.6966 -1.0777 -0.0367
  982MOL0     C29507   5.087   5.887   4.344 -1.5973  0.2595  0.4012
  982MOL0     C29508   4.952   5.864   4.419 -0.8447 -1.1305  0.6117
  982MOL0     N29509   4.866   5.762   4.347  0.7654  0.7499 -1.9639
  982MOL0     C29510   4.799   5.763   4.235 -0.9130  0.3408  0.3514
  982MOL0     C29511   4.738   5.644   4.219 -0.3055 -1.6400  0.8681
  982MOL0     C29512   4.677   5.609   4.088 -0.6027 -0.2545 -1.1833
  982MOL0     C29513   4.522   5.618   4.089  0.1100  1.3174  0.2211
  982MOL0     C29514   4.458   5.543   3.968  1.0513 -0.0783  0.4646
  982MOL0     C29515   4.299   5.537   3.952  0.2982 -0.5473 -0.5777
  982MOL0     O29516   4.251   5.680   3.953 -0.4600  0.4942 -0.2403
  982MOL0     C29517   4.117   5.702   3.921 -0.1186 -1.0178 -0.4725
  982MOL0     C29518   4.087   5.830   3.876  0.5955  0.3826 -0.3695
  982MOL0     C29519   3.951   5.859   3.833 -0.5099  0.5594  0.1481
  982MOL0     C29520   3.856   5.756   3.839 -0.1230 -0.1460 -0.3889
  982MOL0     C29521   3.717   5.785   3.788  0.6445 -0.3007 -1.1042
  982MOL0     O29522   3.623   5.678   3.779 -0.6241 -0.6305  0.2217
  982MOL0     C29523   3.515   5.703   3.695 -0.6873 -0.8748 -0.0845
  982MOL0     C29524   3.406   5.778   3.741  0.2299  0.1541  0.0121
  982MOL0     C29525   3.295   5.801   3.664 -0.4659  0.1800  0.2600
  982MOL0     C29526   3.289   5.747   3.529  0.7048 -0.6169 -0.8147
  982MOL0     O29527   3.175   5.762   3.452 -0.1513 -0.6850 -0.0467
  982MOL0     C29528   3.084   5.860   3.495 -0.0793 -0.2366  1.0048
  982MOL0     C29529   2.994   5.920   3.383  1.2166  0.4782  0.2755
  982MOL0     C29530   2.922   5.818   3.299  0.0492  0.8230 -0.0207
  982MOL0     C29531   2.807   5.878   3.210 -0.2730 -0.5541 -0.7993
  982MOL0     C29532   2.746   5.769   3.125  0.3962 -0.4714 -0.0416
  982MOL0     C29533   2.607   5.815   3.071  0.1238 -0.7585 -1.0142
  982MOL0     C29534   2.526   5.694   3.000 -0.4222 -0.4284 -0.0868
  982MOL0     C29535   2.613   5.607   2.904  0.5321  0.2265 -0.5219
  982MOL0    Cl29536   2.678   5.707   2.777 -0.1040  0.2041 -0.0516
  982MOL0     C29537   3.404   5.676   3.485  0.8524  0.6710 -0.2660
  982MOL0     C29538   3.507   5.646   3.572 -0.0359  0.2634  0.1075
  982MOL0     O29539   3.695   5.908   3.765 -0.2779  0.5619 -0.5866
  982MOL0     C29540   3.884   5.630   3.908  0.3694 -0.2279 -0.6654
  982MOL0     C29541   4.018   5.606   3.934  0.3534 -0.5293  0.8790
  982MOL0     N29542   4.778   5.562   4.320 -1.0560  0.2542 -0.0330
  982MOL0     N29543   4.855   5.632   4.394 -0.2298  0.2368 -0.8920
  982MOL0     C29544   5.788   6.353   4.714 -0.5891 -0.6320 -0.1743
  982MOL0     C29545   5.919   6.352   4.735 -0.7444 -0.1116  0.0546
  982MOL0     C29546   6.343   6.165   4.822  0.6819 -0.9134 -0.1031
  982MOL0     C29547   6.429   6.058   4.788  0.4025 -0.4510  0.0268
  982MOL0     C29548   6.565   6.057   4.813 -0.4003  0.1729  0.2675
  982MOL0     C29549   6.621   6.159   4.881 -0.2446  0.3818 -0.1260
  982MOL0     O29550   6.759   6.151   4.904 -1.4333  1.1534 -0.9338
  982MOL0     C29551   6.838   6.264   4.934 -0.1118 -0.3573 -0.8271
  982MOL0     C29552   6.861   6.359   4.823 -0.1455  1.2237  0.5861
  982MOL0     C29553   6.913   6.294   4.697  0.6334  0.4645  1.0295
  982MOL0     C29554   7.051   6.251   4.704 -1.1255  0.3943 -0.0217
  982MOL0     C29555   7.091   6.167   4.602 -0.7910  0.1982  0.7391
  982MOL0     C29556   7.139   6.092   4.525 -0.3072 -0.1779 -0.2495
  982MOL0     C29557   6.533   6.258   4.937 -0.1526  1.1969  0.6859
  982MOL0     C29558   6.400   6.267   4.902 -0.2508  0.1528 -0.1274
  982MOL0     H29559   5.958   6.057   4.881 -2.0585  0.6229  5.6967
  982MOL0     H29560   5.707   6.064   4.865  0.7844 -2.0206  0.3851
  982MOL0     H29561   5.538   6.426   4.712  0.1386 -1.4784  1.5921
  982MOL0     H29562   5.393   6.349   4.743 -0.4202  1.1752 -2.6916
  982MOL0     H29563   5.514   6.337   4.458 -0.2795 -3.5551 -1.4954
  982MOL0     H29564   5.368   6.415   4.531  2.3107 -0.1890 -1.1360
  982MOL0     H29565   5.291   6.177   4.566 -2.1588 -1.7269 -2.7892
  982MOL0     H29566   5.461   6.123   4.520 -1.8971 -2.0200 -0.5375
  982MOL0     H29567   5.264   6.255   4.345 -0.0137  0.2770 -1.7054
  982MOL0     H29568   5.418   6.195   4.283 -1.0213  2.7581  0.0753
  982MOL0     H29569   5.365   5.965   4.352 -1.1142 -0.9744  1.0201
  982MOL0     H29570   5.264   6.024   4.221 -3.5797  1.8550  0.0760
  982MOL0     H29571   5.098   6.100   4.378 -0.6686 -1.6766 -2.6492
  982MOL0     H29572   5.177   6.001   4.509  0.1326  2.2096  0.1909
  982MOL0     H29573   5.070   5.907   4.238  1.3102 -2.8965 -0.8569
  982MOL0     H29574   5.156   5.803   4.350 -1.5328  0.3574  1.2273
  982MOL0     H29575   4.907   5.964   4.419  2.8788  0.8641 -3.0364
  982MOL0     H29576   4.964   5.840   4.525 -0.4956  2.0525  1.3877
  982MOL0     H29577   4.818   5.840   4.161 -0.0298 -0.5129 -0.3335
  982MOL0     H29578   4.715   5.509   4.063 -0.4176  0.4550 -4.0795
  982MOL0     H29579   4.704   5.677   4.007 -0.0632  2.2486  0.9952
  982MOL0     H29580   4.484   5.721   4.093 -0.2972  1.1700  0.1477
  982MOL0     H29581   4.483   5.562   4.174  1.5056 -0.1931 -0.0929
  982MOL0     H29582   4.497   5.593   3.879  2.5681  1.4235  1.8712
  982MOL0     H29583   4.488   5.437   3.968 -0.4186 -0.5185 -0.8410
  982MOL0     H29584   4.257   5.489   4.041 -0.9531  1.3506 -0.1033
  982MOL0     H29585   4.261   5.484   3.863  0.2806 -1.2375 -0.1685
  982MOL0     H29586   4.159   5.911   3.882 -0.4066  1.2542  0.3221
  982MOL0     H29587   3.923   5.951   3.783  0.5643 -0.4652 -2.5703
  982MOL0     H29588   3.405   5.831   3.835  1.3396 -3.2343  2.1049
  982MOL0     H29589   3.217   5.862   3.709 -0.5623  0.4099 -0.2056
  982MOL0     H29590   3.127   5.948   3.543 -2.7060  0.4415  2.3172
  982MOL0     H29591   3.009   5.832   3.571 -0.6660 -1.4378  0.0183
  982MOL0     H29592   3.050   5.983   3.313 -0.8411  2.4171  0.2527
  982MOL0     H29593   2.915   5.981   3.427 -1.9603 -2.9565 -0.1503
  982MOL0     H29594   2.878   5.739   3.359 -0.2460 -0.8000 -2.2325
  982MOL0     H29595   2.994   5.776   3.227  0.5186 -0.8501  1.3711
  982MOL0     H29596   2.732   5.912   3.281  0.1968  0.0858 -0.5975
  982MOL0     H29597   2.849   5.963   3.155  0.0343 -0.3430 -0.2370
  982MOL0     H29598   2.731   5.678   3.184  2.3794 -1.1764 -0.5549
  982MOL0     H29599   2.813   5.742   3.044  1.8561  2.8340 -0.0875
  982MOL0     H29600   2.627   5.899   3.004  2.8470 -1.1266 -0.7706
  982MOL0     H29601   2.547   5.841   3.159  0.9770 -0.9916 -0.3540
  982MOL0     H29602   2.470   5.640   3.077 -1.3685  2.5765  1.5169
  982MOL0     H29603   2.455   5.749   2.937 -2.7076 -2.3153  0.7022
  982MOL0     H29604   2.547   5.533   2.858 -0.8847 -0.3035  2.1457
  982MOL0     H29605   2.680   5.552   2.970 -0.3350 -0.6987 -0.3735
  982MOL0     H29606   3.393   5.628   3.389  1.4496 -1.9074  0.8818
  982MOL0     H29607   3.591   5.582   3.546  0.1516  0.0213  1.2331
  982MOL0     H29608   3.802   5.560   3.922 -0.8319  0.4925 -3.4229
  982MOL0     H29609   4.036   5.522   4.000 -0.3138  0.1389  1.9336
  982MOL0     H29610   5.750   6.435   4.654 -1.9492 -2.6646 -2.2498
  982MOL0     H29611   5.975   6.437   4.696  0.0504 -0.2939  0.7797
  982MOL0     H29612   6.393   5.980   4.721  0.7135 -1.9961  1.5759
  982MOL0     H29613   6.618   5.972   4.771 -1.8924 -2.7251  3.7215
  982MOL0     H29614   6.930   6.220   4.972 -0.2759 -0.2240 -0.2739
  982MOL0     H29615   6.782   6.316   5.012  1.3108  0.7710 -0.5223
  982MOL0     H29616   6.770   6.412   4.794 -2.0696 -2.3968 -0.7741
  982MOL0     H29617   6.930   6.438   4.851  2.4482 -0.1918 -1.2951
  982MOL0     H29618   6.905   6.368   4.617  2.6773  1.7215  1.9200
  982MOL0     H29619   6.847   6.210   4.672  1.5056 -0.3775  1.4975
  982MOL0     H29620   7.119   6.337   4.702  1.1043 -1.2461  0.5984
  982MOL0     H29621   7.067   6.197   4.798 -0.2679 -0.2131 -0.4993
  982MOL0     H29622   7.178   6.041   4.439 -0.1644  2.3292 -1.7878
  982MOL0     H29623   6.566   6.323   5.017  0.7190 -1.8913  3.0207
  982MOL0     H29624   6.327   6.340   4.935 -1.2639 -0.7156 -0.4003
  983MOL0     O29625  10.294   5.184   5.968  0.9468  0.0540  0.4034
  983MOL0     C29626  10.318   5.136   5.850 -0.4708  0.1704  0.3564
  983MOL0     O29627  10.229   5.137   5.740  0.7879 -0.2884 -0.1876
  983MOL0     C29628  10.110   5.193   5.739 -0.8668 -0.3066 -0.2681
  983MOL0     C29629  10.069   5.303   5.809  0.3820 -0.1352  0.9357
  983MOL0     C29630   9.943   5.363   5.792 -0.7713 -0.2442 -1.7366
  983MOL0     C29631   9.853   5.311   5.694  0.0419  0.2143 -0.2042
  983MOL0     O29632   9.731   5.375   5.671 -0.7756 -0.4073 -0.0846
  983MOL0     C29633   9.631   5.313   5.592 -0.0975  1.2262  0.3238
  983MOL0     C29634   9.510   5.400   5.593 -0.3781 -0.2345  0.0232
  983MOL0     C29635   9.390   5.340   5.529  0.1678  0.6373  0.1269
  983MOL0     C29636   9.270   5.428   5.539  0.6468 -0.7981  0.4585
  983MOL0     C29637   9.144   5.357   5.466  0.4743 -0.3484 -0.5171
  983MOL0     C29638   9.031   5.464   5.456  0.2872  0.2199  0.8082
  983MOL0     C29639   8.920   5.406   5.362 -0.2350  0.3695  0.0034
  983MOL0     C29640   8.856   5.521   5.285 -0.5725  0.1323 -0.1729
  983MOL0     N29641   8.773   5.605   5.370  0.0717  0.4003 -0.6467
  983MOL0     C29642   8.643   5.574   5.416 -0.6775 -1.3398 -0.1866
  983MOL0     C29643   8.614   5.665   5.509 -0.1612 -0.4501  0.3751
  983MOL0     C29644   8.486   5.673   5.575  0.7917 -0.1349  0.4658
  983MOL0     C29645   8.378   5.761   5.501  0.0689  0.2284  0.2863
  983MOL0     C29646   8.254   5.780   5.593 -0.0710  0.5470 -0.7974
  983MOL0     C29647   8.128   5.835   5.512 -0.4563 -0.5606 -0.3768
  983MOL0     O29648   8.041   5.888   5.613  1.0861 -0.0485  0.5389
  983MOL0     C29649   7.908   5.877   5.606  0.7370 -0.4090  0.3637
  983MOL0     C29650   7.828   5.844   5.720  0.1877 -0.0727 -0.3918
  983MOL0     C29651   7.690   5.827   5.715  0.5813  0.6791 -0.6458
  983MOL0     C29652   7.634   5.818   5.594 -0.5479  0.8918  0.3668
  983MOL0     C29653   7.494   5.774   5.579 -0.9291  0.3080  0.2350
  983MOL0     O29654   7.430   5.722   5.690 -0.1170  0.2534 -0.2724
  983MOL0     C29655   7.295   5.679   5.691 -1.4074 -0.4035 -0.2641
  983MOL0     C29656   7.193   5.756   5.748  0.1553 -0.4207 -0.1156
  983MOL0     C29657   7.060   5.720   5.746  0.1069  0.2582  0.0609
  983MOL0     C29658   7.027   5.598   5.685 -0.3926  1.0177 -0.6908
  983MOL0     O29659   6.907   5.548   5.643  0.1868  0.5161  0.0577
  983MOL0     C29660   6.815   5.654   5.619  1.0651  0.0564 -0.6417
  983MOL0     C29661   6.700   5.587   5.539 -0.1006  0.1192  0.2051
  983MOL0     C29662   6.607   5.491   5.619 -0.9140 -0.2295 -0.2595
  983MOL0     C29663   6.554   5.379   5.537  0.3531 -0.4323 -0.0388
  983MOL0     C29664   6.438   5.309   5.604 -0.6584  0.3130 -0.6461
  983MOL0     C29665   6.300   5.363   5.602  0.3478  0.1555  0.3895
  983MOL0     C29666   6.199   5.285   5.696  0.3689  1.1935  0.2802
  983MOL0     C29667   6.174   5.144   5.638 -0.4463 -0.1488 -0.5885
  983MOL0    Cl29668   6.075   5.021   5.728  0.1895  0.2022 -0.2700
  983MOL0     C29669   7.127   5.514   5.645  0.6752  0.2403 -0.4632
  983MOL0     C29670   7.261   5.548   5.652 -0.6455 -0.1015  0.5284
  983MOL0     O29671   7.445   5.774   5.469  0.0999  0.1127 -0.1117
  983MOL0     C29672   7.708   5.835   5.474  0.7793 -0.6805  0.0698
  983MOL0     C29673   7.841   5.884   5.479 -0.5713  0.2341  0.0382
  983MOL0     N29674   8.718   5.754   5.512  0.0684  0.3349  0.9291
  983MOL0     N29675   8.815   5.710   5.442 -0.0535  0.4889  0.6313
  983MOL0     C29676   9.900   5.203   5.616 -0.1084  0.3551  0.3023
  983MOL0     C29677  10.022   5.148   5.643 -0.3316 -0.6718  1.0123
  983MOL0     C29678  10.447   5.064   5.837  0.5265  1.0206  0.6135
  983MOL0     C29679  10.470   4.984   5.720  0.1076 -0.6716 -0.0098
  983MOL0     C29680  10.598   4.933   5.704  0.0591  0.7135  0.1687
  983MOL0     C29681  10.697   4.951   5.800  0.3135 -0.6514 -0.0346
  983MOL0     O29682  10.829   4.905   5.791 -0.4282 -0.5057 -0.1487
  983MOL0     C29683  10.923   5.013   5.784 -0.4619  0.5801  0.2082
  983MOL0     C29684  11.053   4.951   5.843 -0.1745 -0.7883  0.1588
  983MOL0     C29685  11.047   4.916   5.991 -0.3880  0.4549 -1.0743
  983MOL0     C29686  11.189   4.888   6.043 -0.9578 -0.0575  0.0634
  983MOL0     C29687  11.253   4.761   6.007 -0.4563 -0.3928 -0.3892
  983MOL0     C29688  11.326   4.678   5.957 -0.4455  0.6098  0.0594
  983MOL0     C29689  10.663   5.013   5.919  0.5711 -1.0499 -0.4927
  983MOL0     C29690  10.545   5.083   5.933  0.0110 -0.3065  0.0829
  983MOL0     H29691  10.145   5.356   5.866  2.4255 -0.1131 -1.6123
  983MOL0     H29692   9.917   5.448   5.854  1.0688 -0.0257 -1.2114
  983MOL0     H29693   9.617   5.210   5.624  4.6247  0.4106  0.3964
  983MOL0     H29694   9.668   5.296   5.490 -2.4034 -0.2835 -0.3367
  983MOL0     H29695   9.537   5.491   5.539  2.4357  0.8556  2.9716
  983MOL0     H29696   9.492   5.431   5.696 -2.2303 -0.3606 -0.2251
  983MOL0     H29697   9.357   5.254   5.589  0.2129  0.2005 -0.4595
  983MOL0     H29698   9.406   5.313   5.424 -0.6449 -1.6834  0.5249
  983MOL0     H29699   9.260   5.458   5.644  2.3778  0.9941  0.1633
  983MOL0     H29700   9.301   5.508   5.471  0.0948 -3.6781 -3.5214
  983MOL0     H29701   9.118   5.280   5.539  0.7471 -0.8207 -0.9099
  983MOL0     H29702   9.166   5.317   5.367 -1.6775  0.0697 -1.2167
  983MOL0     H29703   9.069   5.557   5.412  0.7266 -0.3559 -0.0537
  983MOL0     H29704   8.994   5.492   5.555 -1.8463 -1.6036  0.6015
  983MOL0     H29705   8.950   5.341   5.279 -0.2747  0.0083  0.2688
  983MOL0     H29706   8.847   5.353   5.423  0.8214  1.5759  2.4414
  983MOL0     H29707   8.799   5.481   5.201  1.8944  1.0812 -2.4428
  983MOL0     H29708   8.935   5.581   5.240  0.0077  0.3100  1.0325
  983MOL0     H29709   8.584   5.487   5.389  1.7447 -2.2833 -3.0092
  983MOL0     H29710   8.497   5.718   5.674  2.0107 -0.3589  0.4479
  983MOL0     H29711   8.439   5.575   5.588  1.4229 -0.5119 -0.0294
  983MOL0     H29712   8.353   5.697   5.416 -2.5950  1.0146  0.3685
  983MOL0     H29713   8.423   5.854   5.464  0.4285  0.3542  1.0229
  983MOL0     H29714   8.222   5.685   5.636  1.1147  0.7906  0.7188
  983MOL0     H29715   8.285   5.852   5.670  0.5009  0.1676 -0.6677
  983MOL0     H29716   8.083   5.753   5.455  0.5748 -2.6026  1.6011
  983MOL0     H29717   8.168   5.912   5.445 -1.0974 -0.3416 -0.5163
  983MOL0     H29718   7.880   5.832   5.815  0.8762  1.6817 -0.4932
  983MOL0     H29719   7.630   5.822   5.805  1.3071  0.5301 -0.1582
  983MOL0     H29720   7.229   5.849   5.789 -0.3964 -0.4965  0.5552
  983MOL0     H29721   6.978   5.785   5.775 -0.4400  0.0326 -0.9139
  983MOL0     H29722   6.869   5.724   5.554 -0.1542  1.5409 -0.1341
  983MOL0     H29723   6.779   5.704   5.710 -1.4623 -1.6027 -0.6347
  983MOL0     H29724   6.749   5.523   5.465 -2.3349 -2.1881  0.5813
  983MOL0     H29725   6.639   5.659   5.485  1.0884  0.3902 -0.8203
  983MOL0     H29726   6.535   5.550   5.676  0.3993 -1.7728  3.3161
  983MOL0     H29727   6.668   5.442   5.696 -0.4766  0.1127 -0.3830
  983MOL0     H29728   6.510   5.420   5.446  0.1937 -1.2180 -0.3232
  983MOL0     H29729   6.638   5.309   5.531 -0.2439 -1.1100 -0.5702
  983MOL0     H29730   6.468   5.292   5.708 -1.8272  0.3521 -0.2897
  983MOL0     H29731   6.429   5.226   5.534 -0.7406 -0.3977  0.1844
  983MOL0     H29732   6.262   5.362   5.500 -0.6129 -1.4113  0.7232
  983MOL0     H29733   6.299   5.469   5.629 -2.6526  0.4936 -0.6158
  983MOL0     H29734   6.238   5.266   5.796 -0.6120 -1.9737  0.1734
  983MOL0     H29735   6.100   5.329   5.701 -0.5085 -0.8533  2.9953
  983MOL0     H29736   6.270   5.099   5.610 -0.3577 -4.0869  4.6892
  983MOL0     H29737   6.114   5.156   5.547  0.4644 -0.6981 -1.2802
  983MOL0     H29738   7.097   5.425   5.591 -3.5418 -0.4304  2.4236
  983MOL0     H29739   7.335   5.481   5.609 -1.6374  0.8473 -3.0392
  983MOL0     H29740   7.670   5.818   5.374  1.8758 -1.9090 -0.1624
  983MOL0     H29741   7.903   5.913   5.394 -2.0315 -1.0895 -1.5753
  983MOL0     H29742   9.849   5.173   5.525 -0.3269  0.0763  0.5187
  983MOL0     H29743  10.057   5.060   5.590 -1.5537 -1.1324  0.9486
  983MOL0     H29744  10.393   4.984   5.644 -1.4652 -0.5493  1.5063
  983MOL0     H29745  10.620   4.872   5.617  0.0406  0.1382  0.5615
  983MOL0     H29746  10.896   5.102   5.842  1.9507  1.4913  0.0550
  983MOL0     H29747  10.932   5.043   5.680 -2.3093 -1.1925 -0.5196
  983MOL0     H29748  11.070   4.860   5.785 -1.1850 -0.9908  0.1772
  983MOL0     H29749  11.132   5.023   5.818 -0.0527 -0.0226  2.4930
  983MOL0     H29750  10.997   4.824   6.024  0.0486  1.0200  1.3085
  983MOL0     H29751  11.009   4.998   6.052 -0.6449 -0.1957 -0.3421
  983MOL0     H29752  11.245   4.976   6.010 -1.8503  0.0683 -1.1554
  983MOL0     H29753  11.195   4.890   6.153  0.3958 -3.6515  0.2134
  983MOL0     H29754  11.377   4.590   5.924 -0.6857 -0.9935  3.5888
  983MOL0     H29755  10.739   5.012   5.997 -2.1838  1.2210  2.4694
  983MOL0     H29756  10.523   5.141   6.022 -0.5229 -1.2873  0.6091
  984MOL0     O29757   0.052   0.620   5.368 -0.4450  0.3755  0.2071
  984MOL0     C29758   0.046   0.564   5.480 -0.3734 -0.1350 -0.1581
  984MOL0     O29759   0.150   0.504   5.547 -0.2640 -0.5634 -0.2249
  984MOL0     C29760   0.277   0.488   5.488  0.5508 -1.0372  0.1716
  984MOL0     C29761   0.346   0.370   5.488 -0.1466  0.2579  0.0911
  984MOL0     C29762   0.472   0.348   5.435 -0.2125  0.3968 -0.4147
  984MOL0     C29763   0.539   0.458   5.384 -0.9388 -0.2412  0.3729
  984MOL0     O29764   0.668   0.432   5.328  0.9858  0.1052 -0.0275
  984MOL0     C29765   0.733   0.544   5.272 -0.0398 -0.6428  0.1484
  984MOL0     C29766   0.882   0.524   5.232  0.3738  0.1409 -0.0849
  984MOL0     C29767   0.938   0.643   5.141  0.3595 -0.1565 -0.0341
  984MOL0     C29768   1.075   0.619   5.082 -0.8108  0.7832 -0.1004
  984MOL0     C29769   1.115   0.740   4.998  0.2038 -0.0253  0.5152
  984MOL0     C29770   1.266   0.767   5.002 -0.7723  0.0596  0.4340
  984MOL0     C29771   1.363   0.654   4.967  0.0782 -0.2657  0.5728
  984MOL0     C29772   1.311   0.564   4.858  0.1116 -0.2808 -0.2864
  984MOL0     N29773   1.420   0.511   4.774 -0.1555 -0.3477  0.7127
  984MOL0     C29774   1.535   0.446   4.829 -0.0871  0.4136 -0.1868
  984MOL0     C29775   1.627   0.439   4.727  0.0676  1.0368  0.5093
  984MOL0     C29776   1.766   0.363   4.716  0.0974 -0.4791 -1.4420
  984MOL0     C29777   1.738   0.218   4.680 -0.3450 -0.0442 -0.6808
  984MOL0     C29778   1.718   0.124   4.812 -0.3301 -0.9321  0.2050
  984MOL0     C29779   1.720  -0.024   4.794  1.1972  0.6676  0.5955
  984MOL0     O29780   1.601  -0.047   4.711  0.0857  0.2527  0.2127
  984MOL0     C29781   1.531  -0.158   4.750 -0.6544  0.1705  0.0539
  984MOL0     C29782   1.402  -0.144   4.784  1.0649 -0.3817  0.3149
  984MOL0     C29783   1.330  -0.260   4.829 -0.3766  0.0400 -0.0755
  984MOL0     C29784   1.378  -0.390   4.825 -0.2131 -0.0725 -1.0676
  984MOL0     C29785   1.298  -0.506   4.867  0.0087 -0.2901 -0.3979
  984MOL0     O29786   1.305  -0.623   4.790  0.1101  0.2279 -0.1863
  984MOL0     C29787   1.211  -0.727   4.816 -0.0011 -0.3800  0.0859
  984MOL0     C29788   1.254  -0.854   4.800 -0.6304  0.5819 -0.9983
  984MOL0     C29789   1.163  -0.966   4.834  0.1035  0.3520  0.4618
  984MOL0     C29790   1.032  -0.942   4.866  0.8574 -0.6211 -0.0220
  984MOL0     O29791   0.954  -1.051   4.900 -0.3748  0.1438 -0.6353
  984MOL0     C29792   0.832  -1.018   4.977  0.3173 -1.1448  0.4231
  984MOL0     C29793   0.780  -1.141   5.053  1.3104 -1.2009  1.0399
  984MOL0     C29794   0.735  -1.235   4.951  0.8793  0.4249  0.0702
  984MOL0     C29795   0.582  -1.218   4.912 -0.6273 -0.3835 -0.4029
  984MOL0     C29796   0.531  -1.322   4.810 -0.3427  0.1473  0.7994
  984MOL0     C29797   0.382  -1.314   4.765  0.4331 -0.0765 -0.9678
  984MOL0     C29798   0.275  -1.302   4.875 -0.0537 -0.4177 -0.0918
  984MOL0     C29799   0.269  -1.427   4.966 -0.2901 -1.1326  0.5510
  984MOL0    Cl29800   0.306  -1.407   5.138  0.0730  0.3816  0.3545
  984MOL0     C29801   0.991  -0.807   4.877 -0.4512 -0.1335 -0.5997
  984MOL0     C29802   1.079  -0.702   4.845  0.1226  0.4910 -0.0005
  984MOL0     O29803   1.258  -0.500   4.979 -0.2963  0.1018  0.0043
  984MOL0     C29804   1.510  -0.400   4.787  0.3800  0.1668  0.0536
  984MOL0     C29805   1.584  -0.284   4.756  0.5156 -0.7713  0.5728
  984MOL0     N29806   1.563   0.505   4.623  0.2895 -0.4231 -0.7675
  984MOL0     N29807   1.444   0.545   4.643 -0.5131  0.4151  0.3763
  984MOL0     C29808   0.470   0.586   5.375  0.1706  0.4601 -0.3964
  984MOL0     C29809   0.334   0.586   5.424 -0.2554 -1.0084 -0.2139
  984MOL0     C29810  -0.085   0.572   5.544 -0.2776 -0.1191  0.3078
  984MOL0     C29811  -0.193   0.645   5.479  0.0766 -0.6766 -0.4181
  984MOL0     C29812  -0.319   0.661   5.538 -0.4750 -0.1393 -0.7699
  984MOL0     C29813  -0.332   0.609   5.673  0.0405  0.6534 -0.2806
  984MOL0     O29814  -0.448   0.637   5.742  0.4478 -0.0012  0.1886
  984MOL0     C29815  -0.482   0.564   5.858  0.4161 -0.2904  0.2535
  984MOL0     C29816  -0.625   0.570   5.896  0.2198 -0.6739  0.1377
  984MOL0     C29817  -0.717   0.530   5.781  0.1831 -0.0223 -0.3180
  984MOL0     C29818  -0.857   0.514   5.838  1.1310 -0.6057 -0.6488
  984MOL0     C29819  -0.905   0.624   5.931  0.5752  0.9222  0.2317
  984MOL0     C29820  -0.937   0.715   6.003  0.0600  0.0276  0.4812
  984MOL0     C29821  -0.227   0.537   5.734 -1.1209 -0.9431  0.2759
  984MOL0     C29822  -0.105   0.520   5.672 -0.2147  0.6033 -0.3144
  984MOL0     H29823   0.295   0.287   5.538  2.8422 -1.0149  1.2683
  984MOL0     H29824   0.524   0.253   5.439 -1.6245 -0.4096 -0.3687
  984MOL0     H29825   0.742   0.633   5.336 -0.3890 -1.7675  1.8051
  984MOL0     H29826   0.670   0.563   5.184  1.3178 -1.3782 -1.0311
  984MOL0     H29827   0.884   0.433   5.170  0.1447  0.8392 -1.1349
  984MOL0     H29828   0.946   0.502   5.318  1.5942 -0.1539 -1.0321
  984MOL0     H29829   0.940   0.723   5.216  0.4211 -1.9485  1.9854
  984MOL0     H29830   0.860   0.663   5.067 -0.3835 -1.0978  0.4652
  984MOL0     H29831   1.136   0.613   5.173 -2.7616  0.9893  1.2930
  984MOL0     H29832   1.078   0.529   5.019  2.9359  1.3864 -1.0275
  984MOL0     H29833   1.071   0.823   5.055 -1.7468 -2.3758  2.6807
  984MOL0     H29834   1.085   0.735   4.893  2.0677 -1.9720  0.0041
  984MOL0     H29835   1.293   0.809   5.099  2.5039 -0.0879 -0.3121
  984MOL0     H29836   1.283   0.847   4.930 -2.3506 -1.3932 -1.6829
  984MOL0     H29837   1.455   0.709   4.945  0.0884 -1.0463 -1.5421
  984MOL0     H29838   1.378   0.604   5.063 -0.3980 -0.9691  0.2858
  984MOL0     H29839   1.240   0.619   4.795  0.4793  0.8606  0.2699
  984MOL0     H29840   1.257   0.477   4.896 -0.6366  0.2143 -0.2160
  984MOL0     H29841   1.547   0.402   4.928 -0.8060  3.2716  1.2912
  984MOL0     H29842   1.813   0.366   4.815 -1.7231 -0.8573 -0.5335
  984MOL0     H29843   1.826   0.410   4.637 -1.0014 -2.5707 -3.6685
  984MOL0     H29844   1.827   0.173   4.634  1.1527  1.0669  1.0179
  984MOL0     H29845   1.657   0.223   4.607 -1.2769  1.1202  0.3922
  984MOL0     H29846   1.804   0.157   4.870  0.3159  2.1066 -2.2055
  984MOL0     H29847   1.623   0.147   4.861 -2.5774 -2.9941 -2.7392
  984MOL0     H29848   1.702  -0.082   4.885 -1.1700  1.0241  0.4184
  984MOL0     H29849   1.812  -0.054   4.742  0.2600  0.8245 -1.2524
  984MOL0     H29850   1.347  -0.051   4.774 -0.8092 -1.5189 -0.6242
  984MOL0     H29851   1.232  -0.244   4.872 -0.8918 -1.6977 -0.5551
  984MOL0     H29852   1.358  -0.866   4.774 -0.0587 -1.0307  1.6372
  984MOL0     H29853   1.203  -1.067   4.827  0.8388  0.6034  0.9105
  984MOL0     H29854   0.751  -0.985   4.912 -0.6419 -1.0964  1.6238
  984MOL0     H29855   0.859  -0.947   5.055  0.3995  2.5364 -2.6736
  984MOL0     H29856   0.698  -1.105   5.116  2.8244  2.2900  1.2734
  984MOL0     H29857   0.854  -1.188   5.118  3.0722  0.9128  0.6704
  984MOL0     H29858   0.733  -1.332   5.001 -2.5271  0.3625  0.0613
  984MOL0     H29859   0.795  -1.236   4.860  0.7887 -0.4675  0.0100
  984MOL0     H29860   0.519  -1.217   5.001  0.2078 -1.6503  0.2431
  984MOL0     H29861   0.580  -1.122   4.860 -0.5708  0.0702  0.4214
  984MOL0     H29862   0.549  -1.421   4.852 -0.0425 -0.0738  0.1728
  984MOL0     H29863   0.596  -1.310   4.722  0.6979  0.5660  1.6086
  984MOL0     H29864   0.375  -1.397   4.694 -0.4418  0.0717 -1.0691
  984MOL0     H29865   0.367  -1.227   4.700 -2.3616 -1.4355 -2.3496
  984MOL0     H29866   0.289  -1.211   4.935 -0.7088 -1.3332  1.4954
  984MOL0     H29867   0.181  -1.297   4.820  0.4019 -2.7988 -1.1849
  984MOL0     H29868   0.335  -1.502   4.922 -1.3256 -0.6608 -1.9416
  984MOL0     H29869   0.165  -1.461   4.955 -1.5779  1.4172  3.2483
  984MOL0     H29870   0.886  -0.784   4.895 -0.1683  0.3981  0.4372
  984MOL0     H29871   1.048  -0.599   4.857  1.7103  0.8643  1.1938
  984MOL0     H29872   1.559  -0.496   4.779 -1.2124 -0.5633 -1.5201
  984MOL0     H29873   1.690  -0.305   4.745  1.0403 -0.3999  3.9200
  984MOL0     H29874   0.512   0.680   5.340  1.4642  3.2478  6.8419
  984MOL0     H29875   0.280   0.680   5.417 -2.4784 -2.2995 -1.1588
  984MOL0     H29876  -0.170   0.686   5.381 -0.0423 -0.6357 -0.4283
  984MOL0     H29877  -0.397   0.711   5.482  0.4378 -0.1344 -2.0841
  984MOL0     H29878  -0.431   0.625   5.933  1.7826  1.3355 -1.9000
  984MOL0     H29879  -0.446   0.461   5.868  0.9211 -0.0338  1.2729
  984MOL0     H29880  -0.641   0.506   5.983 -1.9047 -1.7279 -0.9463
  984MOL0     H29881  -0.648   0.673   5.925  1.3963 -0.6701  1.1572
  984MOL0     H29882  -0.684   0.437   5.734 -0.9947 -1.3432  1.3282
  984MOL0     H29883  -0.717   0.603   5.700  1.4875  0.0973 -0.2376
  984MOL0     H29884  -0.932   0.529   5.759  0.9070 -1.1805 -0.5527
  984MOL0     H29885  -0.879   0.414   5.877  2.8737  0.2726  2.9961
  984MOL0     H29886  -0.967   0.789   6.074 -1.1344  0.3342 -0.3153
  984MOL0     H29887  -0.224   0.511   5.839  0.1501 -1.6337  0.0844
  984MOL0     H29888  -0.021   0.483   5.729 -1.5453 -1.0787  0.6582
  985MOL0     O29889   2.280   4.939  10.144  0.3013  0.3842  0.0083
  985MOL0     C29890   2.351   4.870  10.070  0.0248 -0.2046 -1.6884
  985MOL0     O29891   2.313   4.788   9.969  0.7922  0.3914 -0.7658
  985MOL0     C29892   2.178   4.751   9.964  0.2142 -0.7413  0.2524
  985MOL0     C29893   2.094   4.737  10.077  0.1188  0.3234 -0.5166
  985MOL0     C29894   1.958   4.710  10.064  0.5357  0.1933  1.0558
  985MOL0     C29895   1.907   4.697   9.930 -0.3947  0.9445  0.1768
  985MOL0     O29896   1.769   4.683   9.922  0.0229  0.4178  0.1707
  985MOL0     C29897   1.711   4.599   9.826 -0.0871 -0.6282  0.5737
  985MOL0     C29898   1.553   4.607   9.841  0.6856  1.5580  1.0026
  985MOL0     C29899   1.506   4.473   9.779 -0.2180  1.0135  1.0034
  985MOL0     C29900   1.351   4.455   9.785 -0.5178  0.8582  0.6829
  985MOL0     C29901   1.302   4.313   9.754 -0.7293 -0.7531 -0.6195
  985MOL0     C29902   1.236   4.236   9.866  0.1681 -0.2762 -0.2125
  985MOL0     C29903   1.328   4.217   9.991  0.0932  0.9647  0.0545
  985MOL0     C29904   1.250   4.168  10.114 -0.6151  0.1771 -0.0365
  985MOL0     N29905   1.157   4.059  10.089  0.4928  0.1947  0.9594
  985MOL0     C29906   1.021   4.064  10.116  1.1406 -0.0634  1.4517
  985MOL0     C29907   0.974   3.939  10.071 -0.0912  0.3867 -0.4946
  985MOL0     C29908   0.839   3.890  10.092  0.2264  0.2343 -0.7844
  985MOL0     C29909   0.733   3.982  10.032  0.0393  0.2271  0.0898
  985MOL0     C29910   0.605   3.901   9.980 -0.9710 -0.3226 -0.2840
  985MOL0     C29911   0.480   3.977   9.947  0.5793 -0.5131  0.3658
  985MOL0     O29912   0.505   4.092   9.853  0.8636  0.1370 -0.6479
  985MOL0     C29913   0.389   4.173   9.839  0.1691  0.3269  0.9514
  985MOL0     C29914   0.260   4.127   9.812 -0.5317 -0.1899  0.1659
  985MOL0     C29915   0.163   4.224   9.772 -0.1539  0.9862 -0.4010
  985MOL0     C29916   0.203   4.358   9.771  1.0795 -0.2938  0.1164
  985MOL0     C29917   0.097   4.458   9.731 -0.6530 -0.3954  1.1495
  985MOL0     O29918   0.159   4.578   9.702  0.1434 -0.6753  0.2091
  985MOL0     C29919   0.105   4.672   9.617  0.7055  0.0483  0.6474
  985MOL0     C29920   0.190   4.781   9.603 -0.4203 -0.3138  0.0284
  985MOL0     C29921   0.156   4.894   9.530  0.1081 -0.2781 -1.0438
  985MOL0     C29922   0.031   4.901   9.469  0.3548 -0.4067 -0.9449
  985MOL0     O29923   0.006   5.016   9.409  0.3030  0.0308 -0.1998
  985MOL0     C29924  -0.111   5.034   9.328  0.5839 -0.3288 -0.1617
  985MOL0     C29925  -0.120   5.172   9.262  1.0200 -0.5868 -0.8699
  985MOL0     C29926  -0.206   5.169   9.135 -0.3122 -0.0224  0.7526
  985MOL0     C29927  -0.333   5.105   9.154  0.1287  0.1204 -0.3282
  985MOL0     C29928  -0.424   5.109   9.023 -0.3691 -1.1680 -0.2122
  985MOL0     C29929  -0.565   5.056   9.024  0.6837  0.2594 -0.0504
  985MOL0     C29930  -0.564   4.907   9.071  0.1997 -0.0895 -0.1502
  985MOL0     C29931  -0.681   4.828   9.024  0.8926  0.2091  0.1173
  985MOL0    Cl29932  -0.833   4.901   9.046  0.1564  0.3544 -0.0816
  985MOL0     C29933  -0.057   4.792   9.479  0.2302 -0.4325 -0.2612
  985MOL0     C29934  -0.019   4.681   9.551  0.8030  0.6911 -0.4603
  985MOL0     O29935  -0.013   4.422   9.704 -0.2452  0.0558 -0.1576
  985MOL0     C29936   0.328   4.394   9.814 -0.4584  0.1954 -1.3742
  985MOL0     C29937   0.429   4.307   9.845  0.9747  1.1263  0.9350
  985MOL0     N29938   1.082   3.861  10.032  0.5581  0.7080  0.0864
  985MOL0     N29939   1.191   3.932  10.037 -0.5185 -0.0597  0.2106
  985MOL0     C29940   1.982   4.712   9.818  0.2077 -1.0120 -0.3067
  985MOL0     C29941   2.117   4.742   9.841  0.3687  0.7342 -0.3361
  985MOL0     C29942   2.494   4.894  10.109  0.6654  0.7621  0.1652
  985MOL0     C29943   2.597   4.884  10.013  0.3486 -0.0204 -0.0767
  985MOL0     C29944   2.722   4.933  10.048 -0.4165 -0.5501 -0.5544
  985MOL0     C29945   2.750   4.963  10.177 -0.2776 -0.1428 -0.3391
  985MOL0     O29946   2.879   4.988  10.227  0.0201  0.5658 -0.2630
  985MOL0     C29947   3.002   4.942  10.160  0.1315 -0.5446 -0.1927
  985MOL0     C29948   3.118   4.958  10.257 -0.2799 -0.7394 -1.1102
  985MOL0     C29949   3.257   4.992  10.191  0.1925  0.0081  1.1488
  985MOL0     C29950   3.363   5.043  10.295  0.2857  0.5309  0.1758
  985MOL0     C29951   3.499   5.030  10.232 -0.6089  0.5672  0.9670
  985MOL0     C29952   3.606   5.020  10.182 -0.4260 -0.4240  0.4397
  985MOL0     C29953   2.646   4.975  10.274  0.5690  0.0557  0.0665
  985MOL0     C29954   2.519   4.936  10.237 -0.2893 -1.4892 -0.1011
  985MOL0     H29955   2.136   4.758  10.175  2.6537  0.6516 -1.5727
  985MOL0     H29956   1.893   4.688  10.147 -0.5741  1.4993  0.5676
  985MOL0     H29957   1.755   4.501   9.844 -0.7269 -1.1412 -0.5496
  985MOL0     H29958   1.733   4.640   9.727  2.7636 -1.6979  0.6741
  985MOL0     H29959   1.492   4.683   9.792 -0.4388  0.3558  0.4633
  985MOL0     H29960   1.521   4.601   9.946 -1.9284  1.7903  0.3004
  985MOL0     H29961   1.556   4.389   9.828 -3.0384 -0.5640  1.3975
  985MOL0     H29962   1.537   4.479   9.674  1.0916  3.6674  1.4749
  985MOL0     H29963   1.309   4.487   9.881 -0.8158  0.3313  0.7385
  985MOL0     H29964   1.314   4.519   9.704 -0.9481  0.7723  0.8109
  985MOL0     H29965   1.383   4.254   9.710 -0.1091  0.1115 -0.6625
  985MOL0     H29966   1.222   4.322   9.679  0.0974 -1.3175 -1.6030
  985MOL0     H29967   1.203   4.134   9.843 -0.2881 -0.2208  0.1822
  985MOL0     H29968   1.145   4.282   9.907  1.2820  0.5429  1.4537
  985MOL0     H29969   1.401   4.140   9.965 -1.4859 -0.5845 -0.0274
  985MOL0     H29970   1.389   4.300  10.027 -0.6923  1.4750  0.2397
  985MOL0     H29971   1.183   4.246  10.152 -0.3919  0.7283 -0.7622
  985MOL0     H29972   1.317   4.131  10.193 -0.7585 -1.8662 -0.8069
  985MOL0     H29973   0.958   4.144  10.155 -4.8458 -3.1828 -0.6134
  985MOL0     H29974   0.817   3.873  10.198 -0.9527 -0.4926 -1.1220
  985MOL0     H29975   0.837   3.787  10.053 -0.0289 -1.3338  2.9622
  985MOL0     H29976   0.781   4.020   9.941  0.2847 -1.5475 -0.5781
  985MOL0     H29977   0.702   4.059  10.103  0.2438  0.1312  0.2853
  985MOL0     H29978   0.623   3.840   9.891 -0.0047 -2.1897  1.1271
  985MOL0     H29979   0.592   3.829  10.061 -1.6083 -0.4088 -0.4632
  985MOL0     H29980   0.432   4.017  10.036 -0.1541 -0.2643 -0.1262
  985MOL0     H29981   0.414   3.902   9.902 -0.2646 -0.1984  1.0447
  985MOL0     H29982   0.234   4.022   9.796 -0.2942 -0.0005 -1.6476
  985MOL0     H29983   0.063   4.194   9.744 -0.2244  2.3320 -1.6871
  985MOL0     H29984   0.286   4.788   9.652  1.2985  2.8458 -3.3579
  985MOL0     H29985   0.224   4.978   9.532 -0.2149 -0.0251  0.3194
  985MOL0     H29986  -0.196   5.033   9.395  1.9445  3.1127  1.8867
  985MOL0     H29987  -0.116   4.957   9.251 -1.0975  0.0515 -0.4780
  985MOL0     H29988  -0.018   5.197   9.230  0.2393  1.3769 -1.9590
  985MOL0     H29989  -0.153   5.249   9.332 -1.7107 -0.4133 -2.2373
  985MOL0     H29990  -0.152   5.115   9.057  0.0938  0.4191  0.7278
  985MOL0     H29991  -0.236   5.268   9.101 -0.4000  1.1500  3.9015
  985MOL0     H29992  -0.315   4.998   9.167  1.6456  0.3556 -0.3251
  985MOL0     H29993  -0.392   5.149   9.235 -0.4529  2.7105 -2.0422
  985MOL0     H29994  -0.364   5.075   8.938  0.8299  2.2536 -0.8784
  985MOL0     H29995  -0.429   5.218   9.013  2.4877 -1.0563 -1.3947
  985MOL0     H29996  -0.613   5.068   8.927 -6.0578 -2.8304  2.2933
  985MOL0     H29997  -0.635   5.116   9.084  1.0590  1.5359 -0.8430
  985MOL0     H29998  -0.470   4.854   9.052  0.6777 -0.2648  2.3531
  985MOL0     H29999  -0.570   4.908   9.180 -1.0165 -3.1269 -0.0951
  985MOL0     H30000  -0.683   4.732   9.077  0.9469 -0.4294 -0.9969
  985MOL0     H30001  -0.668   4.799   8.920 -2.6947  0.8149 -0.6276
  985MOL0     H30002  -0.155   4.802   9.433  1.1697 -0.3518 -2.3409
  985MOL0     H30003  -0.080   4.592   9.548  0.7955  0.6437  0.6410
  985MOL0     H30004   0.353   4.500   9.811 -2.2138  0.6581 -0.7042
  985MOL0     H30005   0.530   4.337   9.870  0.6892  1.5281  1.6101
  985MOL0     H30006   1.952   4.702   9.714 -2.4587 -2.7895  0.5276
  985MOL0     H30007   2.182   4.769   9.758  2.4386  1.8878  1.5637
  985MOL0     H30008   2.587   4.852   9.910  1.2565 -1.9682  0.4043
  985MOL0     H30009   2.811   4.923   9.986  1.6090 -1.0843  2.2351
  985MOL0     H30010   3.011   5.014  10.079 -2.8829 -0.2795 -0.4220
  985MOL0     H30011   2.984   4.838  10.130 -3.1422  0.3298 -1.7841
  985MOL0     H30012   3.100   5.044  10.323  1.2535 -0.0703 -1.5021
  985MOL0     H30013   3.133   4.863  10.309  0.0007  0.6516  1.5296
  985MOL0     H30014   3.241   5.071  10.117 -0.7160  1.7020  3.0481
  985MOL0     H30015   3.289   4.905  10.133  2.3290  1.4292  0.0643
  985MOL0     H30016   3.357   5.151  10.311  5.6626  1.1875 -0.4154
  985MOL0     H30017   3.343   4.992  10.390  0.6918  1.4125  0.7502
  985MOL0     H30018   3.698   5.014  10.128  0.3071 -1.1470  1.7162
  985MOL0     H30019   2.662   5.018  10.372 -2.3576  0.5706  0.4212
  985MOL0     H30020   2.442   4.957  10.309  1.1821  0.8303  0.9209
  986MOL0     O30021   9.242   1.028   4.033  0.0383 -0.0017  0.3920
  986MOL0     C30022   9.265   1.139   4.075 -0.1628  0.5595  0.2651
  986MOL0     O30023   9.195   1.254   4.053 -0.4752  0.4983  0.4418
  986MOL0     C30024   9.078   1.267   3.976  0.9493  0.4225 -0.5649
  986MOL0     C30025   8.981   1.165   3.940 -0.1750  0.2656 -1.2429
  986MOL0     C30026   8.877   1.190   3.856  0.4944 -0.2800  0.5625
  986MOL0     C30027   8.861   1.315   3.796  0.2430 -0.5360  0.4650
  986MOL0     O30028   8.781   1.348   3.683  0.2616  0.0121 -0.0534
  986MOL0     C30029   8.668   1.256   3.652  0.3695  0.2413  0.1759
  986MOL0     C30030   8.571   1.336   3.570  0.2419  0.6956  0.9285
  986MOL0     C30031   8.472   1.411   3.653 -0.5125 -0.3190 -0.0356
  986MOL0     C30032   8.350   1.471   3.582 -0.0018 -0.5450 -0.0871
  986MOL0     C30033   8.257   1.540   3.684  0.0190  0.2995 -0.5502
  986MOL0     C30034   8.128   1.588   3.620 -0.3461 -0.1592 -0.6432
  986MOL0     C30035   8.029   1.469   3.597  0.5215 -0.6298  0.0944
  986MOL0     C30036   7.911   1.516   3.524  0.0917  0.2026  0.1920
  986MOL0     N30037   7.844   1.634   3.586  0.5764 -0.3067 -0.0230
  986MOL0     C30038   7.744   1.630   3.676  0.4588  0.0471 -0.9522
  986MOL0     C30039   7.688   1.751   3.680 -0.6796 -0.0424 -0.6197
  986MOL0     C30040   7.567   1.803   3.768  0.1516  0.3385 -0.7695
  986MOL0     C30041   7.434   1.786   3.693  0.5539 -1.3655  1.3016
  986MOL0     C30042   7.433   1.873   3.568 -0.4054 -0.4385  0.5557
  986MOL0     C30043   7.292   1.905   3.515  0.0171  0.4306  0.1647
  986MOL0     O30044   7.214   1.953   3.623  0.9595  0.2742  0.7185
  986MOL0     C30045   7.080   1.968   3.610 -0.6313  0.5847  0.5020
  986MOL0     C30046   7.009   1.953   3.493 -0.6869  0.6579 -0.3954
  986MOL0     C30047   6.868   1.959   3.483 -0.7383 -0.9769  0.3976
  986MOL0     C30048   6.796   1.976   3.605 -1.3997  0.0882 -0.6841
  986MOL0     C30049   6.651   1.966   3.601 -0.1281  1.0714  0.1436
  986MOL0     O30050   6.588   1.921   3.493  0.7043  0.8010  0.0076
  986MOL0     C30051   6.456   1.902   3.507  0.5900  0.1961  0.1719
  986MOL0     C30052   6.418   1.804   3.597 -0.4252  0.1445  0.9939
  986MOL0     C30053   6.280   1.771   3.610 -0.0386  0.8274  0.6759
  986MOL0     C30054   6.180   1.825   3.527 -0.1976 -0.2289  0.1149
  986MOL0     O30055   6.044   1.802   3.562 -0.0915 -0.1530  0.0263
  986MOL0     C30056   5.942   1.888   3.507  0.2234  1.5075 -0.0909
  986MOL0     C30057   5.813   1.828   3.558 -0.5789  0.0608 -0.7555
  986MOL0     C30058   5.682   1.897   3.522 -0.2648 -0.5080 -0.4311
  986MOL0     C30059   5.546   1.825   3.567 -0.3155 -0.8792  0.3621
  986MOL0     C30060   5.425   1.857   3.472  0.2448 -1.0398  1.0871
  986MOL0     C30061   5.296   1.779   3.515  0.0742  0.1956  1.2553
  986MOL0     C30062   5.171   1.825   3.439 -1.0092  0.0191  0.1251
  986MOL0     C30063   5.167   1.808   3.289  0.0813 -0.4450  0.2749
  986MOL0    Cl30064   4.993   1.793   3.226  0.1588  0.0279 -0.0873
  986MOL0     C30065   6.225   1.922   3.435  0.0492 -0.6931  0.4916
  986MOL0     C30066   6.362   1.954   3.421  0.5005 -0.6213  0.1083
  986MOL0     O30067   6.589   2.011   3.695 -0.5000 -0.0966  0.3366
  986MOL0     C30068   6.871   1.993   3.727 -0.3355  0.1421 -0.0091
  986MOL0     C30069   7.006   1.988   3.722 -0.2752 -0.0981 -0.1846
  986MOL0     N30070   7.756   1.833   3.593 -0.3392 -0.6629 -0.2345
  986MOL0     N30071   7.844   1.759   3.534 -0.0131  1.1511  0.1133
  986MOL0     C30072   8.947   1.417   3.844  0.4425  0.5713  0.7988
  986MOL0     C30073   9.047   1.395   3.938  0.8452  0.0667  0.1901
  986MOL0     C30074   9.400   1.163   4.119 -0.0177  0.3088  0.3459
  986MOL0     C30075   9.432   1.276   4.204 -0.1334 -0.3236 -0.0064
  986MOL0     C30076   9.555   1.285   4.274 -0.4438 -0.1309  0.2895
  986MOL0     C30077   9.650   1.179   4.264 -0.0210 -0.4819  0.0291
  986MOL0     O30078   9.773   1.192   4.330  0.6657 -0.3022  0.0512
  986MOL0     C30079   9.885   1.185   4.246 -0.2201  0.4542 -0.0312
  986MOL0     C30080   9.986   1.291   4.287  0.0745  0.4710 -0.1083
  986MOL0     C30081   9.918   1.427   4.292 -0.1792  0.2284 -0.2840
  986MOL0     C30082  10.021   1.534   4.319 -0.5639 -0.4947  0.9578
  986MOL0     C30083   9.982   1.672   4.290  0.0522 -0.8050 -0.6500
  986MOL0     C30084   9.951   1.780   4.248 -0.7587 -0.6038 -0.2066
  986MOL0     C30085   9.616   1.077   4.180 -0.4495 -0.6763 -1.4660
  986MOL0     C30086   9.497   1.066   4.102 -0.2885 -0.2371  0.0969
  986MOL0     H30087   8.989   1.065   3.981 -2.1337  1.4015  2.3562
  986MOL0     H30088   8.803   1.119   3.822  0.8077  0.3201 -1.5103
  986MOL0     H30089   8.617   1.220   3.742 -1.0884 -0.6019 -0.9498
  986MOL0     H30090   8.689   1.165   3.595  0.9612 -0.0323  0.8059
  986MOL0     H30091   8.502   1.276   3.509 -1.8078  3.0186  0.7958
  986MOL0     H30092   8.618   1.387   3.486  0.8498 -0.7530  0.3404
  986MOL0     H30093   8.525   1.490   3.706 -3.4950  2.5218 -0.9257
  986MOL0     H30094   8.435   1.340   3.727 -1.4578  1.4247  1.2273
  986MOL0     H30095   8.386   1.547   3.512 -0.1745 -1.5812 -1.3494
  986MOL0     H30096   8.299   1.395   3.522  3.3967 -3.2514  0.1277
  986MOL0     H30097   8.306   1.627   3.729 -0.4775  1.0648 -1.4455
  986MOL0     H30098   8.243   1.466   3.764  1.3606  1.2110  0.5866
  986MOL0     H30099   8.158   1.622   3.521  0.7602 -1.3305 -0.7455
  986MOL0     H30100   8.083   1.666   3.681  1.0320 -0.4634  0.8178
  986MOL0     H30101   8.078   1.380   3.556 -0.3166 -0.8217 -0.5263
  986MOL0     H30102   7.986   1.437   3.692  0.4188 -1.1378 -0.1191
  986MOL0     H30103   7.836   1.437   3.513 -0.7469  1.1769 -1.5576
  986MOL0     H30104   7.938   1.545   3.422  0.1353 -0.7399 -0.0724
  986MOL0     H30105   7.720   1.546   3.740  1.5035  1.5605  1.5708
  986MOL0     H30106   7.580   1.907   3.798  0.0967 -0.2745  1.5638
  986MOL0     H30107   7.570   1.740   3.858  1.1927  1.7655  0.2408
  986MOL0     H30108   7.372   1.827   3.773 -0.7832  1.7567 -1.0806
  986MOL0     H30109   7.399   1.686   3.664 -2.6756  0.5412 -2.5077
  986MOL0     H30110   7.483   1.964   3.603  1.2804 -1.1261  0.0641
  986MOL0     H30111   7.502   1.832   3.494 -0.5988  0.7025 -0.2828
  986MOL0     H30112   7.253   1.817   3.464 -1.0623  0.7258  0.4364
  986MOL0     H30113   7.287   1.988   3.444 -1.1119  0.4791  0.2755
  986MOL0     H30114   7.067   1.929   3.404  0.1250  1.4575 -0.0859
  986MOL0     H30115   6.822   1.949   3.385  0.1119  0.0544 -0.1259
  986MOL0     H30116   6.478   1.752   3.671  1.3151  2.7678  1.5405
  986MOL0     H30117   6.251   1.698   3.685 -0.5681 -0.0433 -0.3415
  986MOL0     H30118   5.954   1.879   3.398  1.3095 -0.3510  0.1415
  986MOL0     H30119   5.957   1.988   3.547  1.9748  0.9947  0.6682
  986MOL0     H30120   5.808   1.839   3.667  1.6298  0.9003 -0.6729
  986MOL0     H30121   5.815   1.720   3.542 -0.2428 -0.3792  1.8202
  986MOL0     H30122   5.668   1.902   3.414 -2.2023 -2.8934 -0.3948
  986MOL0     H30123   5.686   2.000   3.557  0.5253 -0.4834 -0.5737
  986MOL0     H30124   5.577   1.721   3.586  5.6077  0.5442  0.5358
  986MOL0     H30125   5.512   1.871   3.660 -0.4177  0.6745 -0.4208
  986MOL0     H30126   5.441   1.827   3.368 -0.6979  0.2068  0.5495
  986MOL0     H30127   5.397   1.963   3.482 -0.8939 -1.4294  2.3406
  986MOL0     H30128   5.278   1.817   3.617  1.9371  4.1340  0.3098
  986MOL0     H30129   5.304   1.670   3.517 -2.5519 -0.0496  1.4054
  986MOL0     H30130   5.098   1.753   3.478  1.1805 -2.4485 -0.0023
  986MOL0     H30131   5.154   1.930   3.462 -2.7780  0.0666 -1.2369
  986MOL0     H30132   5.215   1.710   3.282  1.5950  0.1616  1.4469
  986MOL0     H30133   5.228   1.881   3.235 -2.6967 -0.1323 -2.7202
  986MOL0     H30134   6.151   1.952   3.362  3.0121 -1.2783 -3.0343
  986MOL0     H30135   6.398   2.016   3.340 -1.1073 -0.5040 -0.5384
  986MOL0     H30136   6.811   2.014   3.814  0.9318 -0.2661  1.0016
  986MOL0     H30137   7.055   1.987   3.819 -0.0439 -2.5174 -0.2505
  986MOL0     H30138   8.921   1.520   3.820 -1.0621 -0.1898 -1.0602
  986MOL0     H30139   9.104   1.478   3.980  0.4632  0.2368  0.3699
  986MOL0     H30140   9.370   1.364   4.217  0.3634  0.0648 -0.2571
  986MOL0     H30141   9.584   1.376   4.326 -1.1832 -0.2586  0.9580
  986MOL0     H30142   9.847   1.183   4.143 -2.1662  1.6399  0.6133
  986MOL0     H30143   9.934   1.087   4.246  2.4621  1.6591 -1.5030
  986MOL0     H30144  10.022   1.265   4.387 -1.2190 -3.4682 -0.5061
  986MOL0     H30145  10.069   1.274   4.218 -0.3163 -2.6597  0.0706
  986MOL0     H30146   9.838   1.430   4.367  0.7330  3.0349  0.7336
  986MOL0     H30147   9.884   1.440   4.189 -0.5929 -2.5095 -0.5643
  986MOL0     H30148  10.056   1.528   4.422  1.5052 -2.3131  0.2457
  986MOL0     H30149  10.109   1.523   4.253 -1.0298 -1.6005  0.4875
  986MOL0     H30150   9.907   1.868   4.204  0.9096  0.3843  0.0299
  986MOL0     H30151   9.703   1.013   4.174  3.1744  3.8875 -2.7445
  986MOL0     H30152   9.480   0.970   4.056  3.6636 -1.0987  0.0393
  987MOL0     O30153   8.076   7.677   8.604 -0.7957 -0.1699  0.2944
  987MOL0     C30154   8.045   7.682   8.481  0.0181  0.3454 -0.1820
  987MOL0     O30155   7.926   7.719   8.434 -0.1043 -0.0796 -0.0502
  987MOL0     C30156   7.822   7.730   8.526  0.5146  0.4032 -0.7467
  987MOL0     C30157   7.721   7.640   8.530  0.6669  0.2868  0.4991
  987MOL0     C30158   7.616   7.650   8.624  1.3570 -0.1346  0.3401
  987MOL0     C30159   7.605   7.767   8.710  0.0835  0.8020  0.2812
  987MOL0     O30160   7.497   7.792   8.784  0.4406  0.2329 -0.8945
  987MOL0     C30161   7.433   7.684   8.860 -0.1613 -0.4025  0.8852
  987MOL0     C30162   7.295   7.720   8.894 -0.5217  0.1029 -0.3083
  987MOL0     C30163   7.200   7.718   8.782 -0.0018  0.8995  0.1187
  987MOL0     C30164   7.058   7.773   8.821 -0.5493 -0.0582  0.5188
  987MOL0     C30165   6.971   7.746   8.695  0.2039 -0.1011 -0.0857
  987MOL0     C30166   6.830   7.793   8.713  0.1872 -0.3190  1.1250
  987MOL0     C30167   6.739   7.802   8.588 -0.7341 -0.1445  0.1625
  987MOL0     C30168   6.666   7.667   8.567 -1.1052 -0.9867 -0.3100
  987MOL0     N30169   6.618   7.674   8.430 -0.2141 -0.0844 -0.0199
  987MOL0     C30170   6.490   7.628   8.395 -0.6561  0.3596  0.3956
  987MOL0     C30171   6.481   7.628   8.255  1.2986  0.1840 -0.1121
  987MOL0     C30172   6.359   7.575   8.175 -0.3027 -0.2700  0.9438
  987MOL0     C30173   6.241   7.671   8.156 -0.1720  0.7840  0.3141
  987MOL0     C30174   6.160   7.681   8.294  0.1242  0.1957  0.4967
  987MOL0     C30175   6.057   7.799   8.286  0.2780  0.2083  0.3600
  987MOL0     O30176   6.006   7.800   8.422 -0.4664  0.3137 -0.3661
  987MOL0     C30177   5.875   7.840   8.434 -0.0615 -0.0048 -0.9204
  987MOL0     C30178   5.800   7.781   8.533  1.1680 -0.2254 -0.3808
  987MOL0     C30179   5.654   7.805   8.541 -1.4420  0.1839 -0.5478
  987MOL0     C30180   5.586   7.888   8.446 -0.3624 -0.0561 -0.3617
  987MOL0     C30181   5.440   7.907   8.443 -0.6225 -0.0118  0.2426
  987MOL0     O30182   5.392   8.019   8.384  0.5144 -0.9038  0.5448
  987MOL0     C30183   5.253   8.050   8.401  0.3388  0.4810 -0.6376
  987MOL0     C30184   5.202   8.076   8.522  0.9247  0.3382  0.0433
  987MOL0     C30185   5.064   8.109   8.538 -0.2974  0.5959 -0.1178
  987MOL0     C30186   4.981   8.099   8.426  0.5788 -1.1724  0.4210
  987MOL0     O30187   4.842   8.122   8.416 -0.0571 -0.4173 -0.7833
  987MOL0     C30188   4.763   8.131   8.536 -0.8915  0.1957  0.1357
  987MOL0     C30189   4.749   8.269   8.611 -0.0771  0.0777  0.5274
  987MOL0     C30190   4.646   8.269   8.736 -0.0360  0.0326 -0.5554
  987MOL0     C30191   4.506   8.228   8.713 -0.3228  0.5722  0.1718
  987MOL0     C30192   4.441   8.317   8.607 -0.6582 -0.1006  0.4534
  987MOL0     C30193   4.291   8.351   8.626 -0.4075 -0.2542 -0.4181
  987MOL0     C30194   4.240   8.450   8.515 -0.2840  0.2560  0.4070
  987MOL0     C30195   4.100   8.499   8.538  0.1254  0.5046 -0.6479
  987MOL0    Cl30196   3.987   8.357   8.566 -0.0386  0.3997  0.2186
  987MOL0     C30197   5.030   8.079   8.298  0.1068  0.8073 -0.1156
  987MOL0     C30198   5.165   8.059   8.284 -0.0310  0.4064  0.0609
  987MOL0     O30199   5.373   7.821   8.499  0.1045  0.5031  0.2502
  987MOL0     C30200   5.675   7.953   8.351  0.5160 -0.8041  0.7191
  987MOL0     C30201   5.812   7.934   8.351 -0.3453 -1.0389  0.1405
  987MOL0     N30202   6.601   7.669   8.208  0.1979 -2.0116 -0.2358
  987MOL0     N30203   6.679   7.700   8.308  0.0420  0.2058  0.5888
  987MOL0     C30204   7.715   7.851   8.707 -0.5236  0.5665 -0.3198
  987MOL0     C30205   7.823   7.834   8.612  1.0272  0.1456 -0.7547
  987MOL0     C30206   8.153   7.642   8.387  1.0597  0.1876 -1.1828
  987MOL0     C30207   8.281   7.613   8.425 -0.1983 -0.8706 -1.0195
  987MOL0     C30208   8.393   7.589   8.331  0.0700 -0.3453  0.5433
  987MOL0     C30209   8.371   7.580   8.197 -0.3721 -0.5542 -0.5676
  987MOL0     O30210   8.467   7.546   8.099  0.1517 -0.7020  0.5847
  987MOL0     C30211   8.605   7.571   8.128 -0.3204  0.1170 -1.2404
  987MOL0     C30212   8.689   7.442   8.171  0.4971 -0.4505  0.2553
  987MOL0     C30213   8.672   7.335   8.068  0.0587 -0.3063 -0.4117
  987MOL0     C30214   8.711   7.193   8.130 -0.0338 -1.1870  0.2780
  987MOL0     C30215   8.843   7.193   8.194 -0.7401 -0.1786  0.0272
  987MOL0     C30216   8.945   7.197   8.255 -0.5224 -0.9201 -0.0595
  987MOL0     C30217   8.238   7.600   8.159  0.5646  0.3988 -0.9105
  987MOL0     C30218   8.132   7.634   8.247  0.4994 -0.0080  0.1787
  987MOL0     H30219   7.711   7.564   8.453 -1.1023  0.0617  0.9046
  987MOL0     H30220   7.555   7.561   8.632  0.7945  0.3999  2.9172
  987MOL0     H30221   7.474   7.654   8.957 -1.9409 -3.8718  0.7089
  987MOL0     H30222   7.433   7.594   8.799 -1.2613 -0.7408  1.3494
  987MOL0     H30223   7.289   7.820   8.938  1.6611 -0.2093  0.8152
  987MOL0     H30224   7.265   7.649   8.971 -2.3273  0.9386 -0.1772
  987MOL0     H30225   7.193   7.613   8.750 -2.0584  1.0448 -0.0126
  987MOL0     H30226   7.232   7.772   8.693 -0.8120 -1.2352 -1.5616
  987MOL0     H30227   7.017   7.712   8.903 -1.3915  1.4210  1.2443
  987MOL0     H30228   7.064   7.880   8.844  0.2560  0.0324 -0.0568
  987MOL0     H30229   6.964   7.637   8.691 -2.8399  0.0280 -0.2222
  987MOL0     H30230   7.012   7.789   8.603 -2.2009  0.7251 -0.8469
  987MOL0     H30231   6.829   7.896   8.750 -2.2669  0.3225 -0.5013
  987MOL0     H30232   6.780   7.724   8.781 -2.8705  0.2572 -0.3532
  987MOL0     H30233   6.658   7.875   8.598 -1.3985 -0.7075 -1.0020
  987MOL0     H30234   6.800   7.829   8.502  2.8593 -1.1350  2.1689
  987MOL0     H30235   6.581   7.655   8.635 -1.7335  1.2807 -0.5989
  987MOL0     H30236   6.740   7.589   8.591  0.6592  1.1924  1.8248
  987MOL0     H30237   6.413   7.595   8.464  1.0719 -1.7876  1.4057
  987MOL0     H30238   6.317   7.490   8.229 -2.0319 -0.1935 -0.2208
  987MOL0     H30239   6.392   7.538   8.077 -4.8050  1.0082 -1.3269
  987MOL0     H30240   6.187   7.622   8.075 -1.1821 -0.3038  1.5898
  987MOL0     H30241   6.281   7.769   8.129  1.6731  0.3514  1.2916
  987MOL0     H30242   6.117   7.583   8.315 -1.8705  1.2441  1.5953
  987MOL0     H30243   6.223   7.716   8.376 -0.2733  2.0936  0.0405
  987MOL0     H30244   5.985   7.763   8.212  0.1829 -0.6438  0.8533
  987MOL0     H30245   6.098   7.893   8.249  0.7987  1.3116  3.4083
  987MOL0     H30246   5.850   7.704   8.590  1.5678 -0.4288 -0.9982
  987MOL0     H30247   5.609   7.740   8.616  2.1335  1.2011  2.8525
  987MOL0     H30248   5.261   8.065   8.613  1.0031  0.7556  0.0458
  987MOL0     H30249   5.021   8.139   8.632  1.8185  1.4396  0.6405
  987MOL0     H30250   4.796   8.049   8.601 -0.0803 -2.6221 -3.5386
  987MOL0     H30251   4.660   8.105   8.510 -0.4978  0.5917 -1.9580
  987MOL0     H30252   4.711   8.338   8.534 -0.7685  1.4386  2.0361
  987MOL0     H30253   4.848   8.300   8.644  1.5470  0.6496 -4.1067
  987MOL0     H30254   4.649   8.373   8.771  0.1639 -0.1754  0.0584
  987MOL0     H30255   4.689   8.207   8.815  0.4493  2.5440  1.2933
  987MOL0     H30256   4.499   8.124   8.680  1.3483  0.8668 -1.2081
  987MOL0     H30257   4.444   8.231   8.803  0.4831 -1.7240  0.8777
  987MOL0     H30258   4.448   8.271   8.507 -3.7083  6.2787 -3.3251
  987MOL0     H30259   4.495   8.411   8.593 -1.6739  0.5479  0.7690
  987MOL0     H30260   4.278   8.407   8.719  1.1979  0.8497 -0.7929
  987MOL0     H30261   4.235   8.258   8.614  1.3603 -1.6661  1.5304
  987MOL0     H30262   4.309   8.533   8.500 -1.0418  1.4771  3.0565
  987MOL0     H30263   4.233   8.391   8.423  1.6868 -1.0193  1.0246
  987MOL0     H30264   4.067   8.555   8.450 -1.7945 -0.1836 -0.4205
  987MOL0     H30265   4.095   8.565   8.625 -0.9581 -1.6098  0.9801
  987MOL0     H30266   4.962   8.092   8.214  1.0491  0.7722 -0.9180
  987MOL0     H30267   5.203   8.033   8.186  1.6009 -0.9929  1.0103
  987MOL0     H30268   5.638   8.020   8.274  3.7358  0.8893  0.5078
  987MOL0     H30269   5.878   7.989   8.284 -0.8595 -0.8697 -0.2363
  987MOL0     H30270   7.726   7.937   8.772  0.0372  0.1411  0.1649
  987MOL0     H30271   7.901   7.910   8.607  0.4696  0.7825 -0.0560
  987MOL0     H30272   8.319   7.621   8.526  3.0675 -0.3142 -2.1866
  987MOL0     H30273   8.487   7.567   8.381  0.3905 -2.6063 -0.8830
  987MOL0     H30274   8.621   7.645   8.207  0.8178 -2.8482  1.4718
  987MOL0     H30275   8.648   7.626   8.043  0.4856 -2.2593 -2.4736
  987MOL0     H30276   8.791   7.479   8.179  1.5766 -3.5133  3.2297
  987MOL0     H30277   8.668   7.408   8.273 -1.3456 -1.3877 -0.3910
  987MOL0     H30278   8.724   7.367   7.978  0.0535  0.5865 -0.1166
  987MOL0     H30279   8.565   7.335   8.045 -0.5871 -0.5157  2.2718
  987MOL0     H30280   8.636   7.152   8.198  0.7567  1.5762  3.0522
  987MOL0     H30281   8.717   7.120   8.049 -1.6213 -2.0659  0.9141
  987MOL0     H30282   9.045   7.195   8.295 -0.4027  0.5278 -0.2266
  987MOL0     H30283   8.214   7.593   8.054  2.8225  0.0763 -1.4612
  987MOL0     H30284   8.040   7.678   8.209 -0.2222  0.0361  1.8943
  988MOL0     O30285   5.173  11.292   0.449 -0.3547 -0.2200 -0.5815
  988MOL0     C30286   5.198  11.350   0.557 -0.3079 -0.3831 -0.1734
  988MOL0     O30287   5.099  11.408   0.636 -0.2197  0.6241  0.1268
  988MOL0     C30288   4.962  11.375   0.613  1.2593  0.0400  0.4017
  988MOL0     C30289   4.866  11.473   0.612  0.2708  0.1186 -0.5247
  988MOL0     C30290   4.729  11.448   0.589  0.1688 -0.1406  0.2850
  988MOL0     C30291   4.684  11.316   0.559  0.0454 -0.7140  0.3355
  988MOL0     O30292   4.554  11.293   0.527 -0.1133  0.1968  0.5423
  988MOL0     C30293   4.495  11.380   0.422 -0.2085  0.1358 -0.3326
  988MOL0     C30294   4.487  11.309   0.292 -0.4425  0.0608 -0.4283
  988MOL0     C30295   4.409  11.387   0.182 -0.1359 -0.4029 -0.0190
  988MOL0     C30296   4.256  11.383   0.211 -0.6121 -0.0980 -1.2278
  988MOL0     C30297   4.176  11.449   0.106 -0.9883  0.9579  0.3474
  988MOL0     C30298   4.173  11.372  -0.025 -0.0734  0.7974  0.1010
  988MOL0     C30299   4.083  11.455  -0.123 -0.9115 -0.0885  0.2398
  988MOL0     C30300   3.931  11.472  -0.090  0.4163 -0.0498  0.3229
  988MOL0     N30301   3.834  11.438  -0.205  0.7847 -0.1626 -0.2421
  988MOL0     C30302   3.779  11.530  -0.292 -0.4181 -0.0720 -0.5395
  988MOL0     C30303   3.692  11.456  -0.364 -0.1502  0.1558 -0.2243
  988MOL0     C30304   3.592  11.500  -0.473 -0.5039 -0.8532 -0.0018
  988MOL0     C30305   3.442  11.485  -0.432  0.9755  0.2553 -0.0896
  988MOL0     C30306   3.367  11.563  -0.531  0.2586  0.2716  0.5813
  988MOL0     C30307   3.241  11.617  -0.476 -0.1266 -0.0081 -0.1606
  988MOL0     O30308   3.151  11.520  -0.416  1.0242  0.3685  0.2670
  988MOL0     C30309   3.014  11.548  -0.415 -0.2827  0.1946 -0.6570
  988MOL0     C30310   2.957  11.569  -0.280 -0.9667  0.1592  0.5558
  988MOL0     C30311   2.820  11.591  -0.274  0.5491  0.2781 -0.0629
  988MOL0     C30312   2.733  11.573  -0.388 -0.2869 -0.2384 -1.0463
  988MOL0     C30313   2.585  11.590  -0.378  0.5339 -0.1305 -0.7131
  988MOL0     O30314   2.510  11.515  -0.464  0.5945 -0.4425 -0.1610
  988MOL0     C30315   2.376  11.500  -0.427 -0.0115 -0.3282  0.3843
  988MOL0     C30316   2.337  11.391  -0.352  0.1025  0.0915  0.6832
  988MOL0     C30317   2.206  11.368  -0.312 -0.5070  0.2316 -0.3336
  988MOL0     C30318   2.107  11.463  -0.326  0.5065 -0.6238  1.0621
  988MOL0     O30319   1.984  11.438  -0.271  0.2231 -0.7023  0.0103
  988MOL0     C30320   1.884  11.540  -0.283  0.6579 -0.5951  1.1166
  988MOL0     C30321   1.750  11.498  -0.230  1.1944 -0.9415 -0.4844
  988MOL0     C30322   1.668  11.629  -0.218 -0.7573 -0.2686 -0.7747
  988MOL0     C30323   1.600  11.681  -0.350 -0.3914  0.6492  0.6523
  988MOL0     C30324   1.450  11.645  -0.350  0.1929 -0.7937  0.0224
  988MOL0     C30325   1.383  11.707  -0.476  0.1759  0.1470  1.0821
  988MOL0     C30326   1.233  11.692  -0.453  0.5136 -0.4371  0.3707
  988MOL0     C30327   1.154  11.751  -0.575 -1.3381  0.6204 -1.5108
  988MOL0    Cl30328   1.194  11.912  -0.632 -0.0123  0.1615 -0.3804
  988MOL0     C30329   2.145  11.577  -0.404  0.1533 -0.7216 -0.0977
  988MOL0     C30330   2.274  11.585  -0.459  0.1296  0.5714  0.3492
  988MOL0     O30331   2.549  11.643  -0.278 -0.4165 -0.2247  0.1564
  988MOL0     C30332   2.787  11.543  -0.512 -0.7276 -0.0570  0.1483
  988MOL0     C30333   2.929  11.528  -0.520 -0.9304 -0.2160 -0.3890
  988MOL0     N30334   3.701  11.321  -0.324 -0.0378  0.1498  0.5059
  988MOL0     N30335   3.778  11.316  -0.222  0.8960  0.0878  0.1240
  988MOL0     C30336   4.775  11.215   0.567  0.8818 -0.4352  0.0516
  988MOL0     C30337   4.907  11.246   0.590  0.7357  0.1428 -0.2718
  988MOL0     C30338   5.342  11.364   0.600 -0.0561  0.2156  0.3965
  988MOL0     C30339   5.433  11.264   0.564 -0.2713 -0.3219 -0.1616
  988MOL0     C30340   5.567  11.262   0.613  0.3850  0.1399  0.7014
  988MOL0     C30341   5.612  11.358   0.701 -0.3564  0.5352 -0.5555
  988MOL0     O30342   5.743  11.363   0.729 -0.4246  0.2474 -0.9159
  988MOL0     C30343   5.827  11.250   0.699 -1.2189 -0.1772  0.2486
  988MOL0     C30344   5.951  11.251   0.797  0.7170  0.5310 -0.3952
  988MOL0     C30345   6.061  11.140   0.783 -0.1142 -0.0588 -0.4891
  988MOL0     C30346   6.153  11.168   0.667  0.7533 -1.1977  0.3772
  988MOL0     C30347   6.228  11.051   0.635  0.7944 -0.4415  0.4329
  988MOL0     C30348   6.291  10.943   0.610  0.2181 -0.4174  0.2552
  988MOL0     C30349   5.528  11.462   0.733  0.2038 -0.1810  0.6703
  988MOL0     C30350   5.392  11.464   0.684  0.2792  0.5439  0.3471
  988MOL0     H30351   4.894  11.573   0.643 -1.6159  0.4100  0.3438
  988MOL0     H30352   4.654  11.526   0.583  1.1160  0.7622  0.1490
  988MOL0     H30353   4.554  11.471   0.407 -0.9748  0.6920 -0.0197
  988MOL0     H30354   4.397  11.410   0.461 -0.2788  0.1241 -0.4987
  988MOL0     H30355   4.436  11.216   0.318  0.6751 -0.4797 -0.1361
  988MOL0     H30356   4.586  11.291   0.249 -1.7342 -2.5345 -2.6281
  988MOL0     H30357   4.425  11.332   0.089 -0.3031  2.4830 -1.8560
  988MOL0     H30358   4.452  11.486   0.167  0.7857 -1.1962 -3.2668
  988MOL0     H30359   4.226  11.278   0.222  1.9218 -0.6123  1.9428
  988MOL0     H30360   4.229  11.431   0.305 -0.8149  0.1812 -1.4282
  988MOL0     H30361   4.210  11.552   0.089  2.7329 -0.4283 -1.8728
  988MOL0     H30362   4.076  11.458   0.149 -0.0169  0.5634  2.8582
  988MOL0     H30363   4.123  11.277  -0.004  2.7864 -0.5205  1.5991
  988MOL0     H30364   4.275  11.346  -0.058 -0.8341 -3.8414  0.6834
  988MOL0     H30365   4.135  11.550  -0.138  2.8142 -1.9435  0.3344
  988MOL0     H30366   4.100  11.405  -0.219  0.5427 -3.5494  2.1231
  988MOL0     H30367   3.911  11.572  -0.050 -2.2806  0.3378 -1.6911
  988MOL0     H30368   3.912  11.399  -0.011 -0.6165  1.4231  1.4777
  988MOL0     H30369   3.811  11.634  -0.294  3.1953 -1.0569 -1.2812
  988MOL0     H30370   3.602  11.449  -0.569 -2.4987  0.5375 -1.0169
  988MOL0     H30371   3.610  11.607  -0.480 -0.0968 -0.7256  2.3331
  988MOL0     H30372   3.420  11.538  -0.338 -0.0764 -0.1146 -0.1197
  988MOL0     H30373   3.409  11.382  -0.427 -0.8126  0.7682 -0.7597
  988MOL0     H30374   3.406  11.662  -0.558  1.6365  0.9148  4.2735
  988MOL0     H30375   3.337  11.500  -0.615  3.0230 -1.6286  0.8878
  988MOL0     H30376   3.198  11.665  -0.565  2.0834  1.8589 -0.3020
  988MOL0     H30377   3.248  11.701  -0.407 -1.0340  0.0749 -0.1462
  988MOL0     H30378   3.015  11.585  -0.189 -1.2733  1.8069  0.4993
  988MOL0     H30379   2.783  11.624  -0.177  3.5831  0.6092  1.1080
  988MOL0     H30380   2.411  11.316  -0.326 -0.8445 -0.8780  0.6603
  988MOL0     H30381   2.182  11.277  -0.258  0.7878 -0.6129 -1.1192
  988MOL0     H30382   1.862  11.556  -0.388 -1.4107  1.2601  1.7603
  988MOL0     H30383   1.915  11.629  -0.227 -2.4166  1.9788 -0.9430
  988MOL0     H30384   1.763  11.448  -0.133 -1.9336 -2.4478 -0.7139
  988MOL0     H30385   1.695  11.435  -0.300  0.0867  0.3814 -0.8368
  988MOL0     H30386   1.720  11.716  -0.178 -1.0672  0.9101 -2.8057
  988MOL0     H30387   1.581  11.608  -0.155 -0.8881  0.3023 -0.7637
  988MOL0     H30388   1.612  11.789  -0.346  1.1031  0.6218 -1.6906
  988MOL0     H30389   1.649  11.636  -0.437 -2.8514 -4.2048  1.4316
  988MOL0     H30390   1.418  11.698  -0.260  1.1322  1.0085 -0.6571
  988MOL0     H30391   1.426  11.538  -0.346  1.6842 -1.1548 -0.0513
  988MOL0     H30392   1.407  11.650  -0.566  0.2435  2.2662 -0.3007
  988MOL0     H30393   1.413  11.809  -0.500  0.8881  0.6922  3.8512
  988MOL0     H30394   1.203  11.588  -0.438  1.8721 -0.4447  4.4561
  988MOL0     H30395   1.213  11.746  -0.360 -2.2998 -1.2640  0.3185
  988MOL0     H30396   1.049  11.750  -0.544 -0.3907 -1.1913  2.1368
  988MOL0     H30397   1.164  11.685  -0.662  1.3639 -0.4614 -0.4828
  988MOL0     H30398   2.078  11.659  -0.425 -2.0793 -1.6806  2.6134
  988MOL0     H30399   2.299  11.668  -0.523 -0.1508 -0.2176 -0.8226
  988MOL0     H30400   2.726  11.532  -0.601  0.6649  0.2475 -0.8854
  988MOL0     H30401   2.972  11.498  -0.615 -1.3792 -1.7310 -0.1317
  988MOL0     H30402   4.740  11.114   0.546 -1.0685 -0.3079  2.3057
  988MOL0     H30403   4.979  11.165   0.596 -1.3175 -2.0164 -2.6021
  988MOL0     H30404   5.411  11.184   0.495  0.2988  0.2875 -1.0719
  988MOL0     H30405   5.630  11.182   0.576 -0.3622  0.2691 -0.9447
  988MOL0     H30406   5.854  11.260   0.593  1.1792  0.9521  0.8922
  988MOL0     H30407   5.785  11.150   0.716 -0.9628 -0.1514  1.0799
  988MOL0     H30408   6.003  11.346   0.780 -0.4944  1.0972 -1.0293
  988MOL0     H30409   5.913  11.230   0.897 -0.5131 -0.9824 -1.1371
  988MOL0     H30410   6.020  11.041   0.762 -1.0056  0.0917  0.4468
  988MOL0     H30411   6.100  11.142   0.885 -1.6211 -0.0653  0.1100
  988MOL0     H30412   6.106  11.203   0.574  1.4924 -2.2605 -0.4253
  988MOL0     H30413   6.218  11.248   0.702 -2.9998  1.6867  1.3428
  988MOL0     H30414   6.350  10.854   0.598 -0.2302 -0.6256 -0.4624
  988MOL0     H30415   5.568  11.548   0.786 -0.1399 -0.2609  1.0656
  988MOL0     H30416   5.325  11.547   0.703  2.2369  1.8488  2.0779
  989MOL0     O30417   0.845   6.533   1.462  0.8701 -0.4796  0.5349
  989MOL0     C30418   0.887   6.417   1.483  0.1884  0.3041  1.2436
  989MOL0     O30419   0.818   6.307   1.481 -0.2357 -0.1360 -0.1222
  989MOL0     C30420   0.682   6.309   1.496 -0.5591 -0.2168  0.0587
  989MOL0     C30421   0.586   6.414   1.536  0.4768 -0.1721  0.3039
  989MOL0     C30422   0.454   6.382   1.558  0.1729  1.0013 -0.5306
  989MOL0     C30423   0.404   6.253   1.534  0.0939  0.2175  0.1759
  989MOL0     O30424   0.276   6.209   1.552  0.4826  0.1461  0.1278
  989MOL0     C30425   0.186   6.291   1.620  1.0001  0.6572 -0.1552
  989MOL0     C30426   0.033   6.268   1.591 -0.1541 -0.2428  0.4732
  989MOL0     C30427  -0.010   6.124   1.627 -0.3049 -0.9883  0.5466
  989MOL0     C30428  -0.149   6.131   1.637  0.6273  0.6489 -0.5547
  989MOL0     C30429  -0.208   5.980   1.636  0.3153 -0.4090 -0.0740
  989MOL0     C30430  -0.340   5.978   1.571 -0.2190 -0.2085 -0.8919
  989MOL0     C30431  -0.399   5.834   1.560  0.0492 -0.2232  0.6792
  989MOL0     C30432  -0.464   5.790   1.693 -0.9384 -0.6532 -0.5649
  989MOL0     N30433  -0.589   5.711   1.666  0.1212 -0.6669  0.4348
  989MOL0     C30434  -0.614   5.611   1.573 -0.4132 -0.9294 -0.4864
  989MOL0     C30435  -0.749   5.579   1.586 -0.5984 -0.2970 -0.2851
  989MOL0     C30436  -0.812   5.468   1.506  0.0958 -0.5785 -0.0395
  989MOL0     C30437  -0.910   5.378   1.580 -0.6689 -0.0685  0.4059
  989MOL0     C30438  -0.992   5.287   1.493  0.6160 -0.3296  0.0761
  989MOL0     C30439  -1.018   5.149   1.549  0.3021 -1.1483  0.6642
  989MOL0     O30440  -1.035   5.059   1.444 -0.5285 -0.4066  0.5533
  989MOL0     C30441  -1.166   5.051   1.400 -0.7738 -0.2118  0.8258
  989MOL0     C30442  -1.254   4.973   1.476  0.4747 -0.5204 -0.5669
  989MOL0     C30443  -1.375   4.941   1.421  0.5458  0.4604 -0.2149
  989MOL0     C30444  -1.424   5.019   1.315 -0.1143 -0.2265 -0.3627
  989MOL0     C30445  -1.558   4.993   1.251  0.2016 -0.1829 -0.2078
  989MOL0     O30446  -1.610   5.097   1.163  0.4358 -0.2870 -0.3751
  989MOL0     C30447  -1.748   5.098   1.133 -0.4052  0.2636 -0.7971
  989MOL0     C30448  -1.814   5.205   1.177  1.0887  0.0367  0.5833
  989MOL0     C30449  -1.954   5.212   1.140 -0.1205  0.6261  0.1575
  989MOL0     C30450  -2.027   5.111   1.090  0.6001  0.0177 -0.3833
  989MOL0     O30451  -2.169   5.110   1.071 -0.0826 -0.4704  0.4066
  989MOL0     C30452  -2.246   5.230   1.078 -0.2048 -0.0784  0.3570
  989MOL0     C30453  -2.241   5.297   0.942 -0.8795 -1.0846 -0.0262
  989MOL0     C30454  -2.336   5.409   0.936 -0.1748  0.3609  0.0493
  989MOL0     C30455  -2.361   5.440   0.793  1.1076  0.1550  0.9319
  989MOL0     C30456  -2.466   5.565   0.800  0.4042  0.0391 -0.2231
  989MOL0     C30457  -2.607   5.523   0.832  1.3736  0.9583 -0.1304
  989MOL0     C30458  -2.704   5.622   0.765  0.4934 -0.2040  0.1583
  989MOL0     C30459  -2.713   5.760   0.837  0.5297  0.1224 -0.0024
  989MOL0    Cl30460  -2.787   5.882   0.742  0.2689  0.7469 -0.0923
  989MOL0     C30461  -1.958   4.998   1.048  0.3881  0.4609  1.2195
  989MOL0     C30462  -1.815   4.988   1.074  0.4344  0.0364 -0.3723
  989MOL0     O30463  -1.612   4.888   1.286  0.7144 -0.2757 -0.0817
  989MOL0     C30464  -1.342   5.119   1.263 -0.7296  0.6382  0.6002
  989MOL0     C30465  -1.210   5.140   1.300 -0.8348 -0.0712 -0.7149
  989MOL0     N30466  -0.798   5.657   1.691  1.1323  0.3481  0.5409
  989MOL0     N30467  -0.705   5.735   1.731 -0.9946 -1.1995  0.3106
  989MOL0     C30468   0.498   6.160   1.480  0.3644  0.0150 -1.0885
  989MOL0     C30469   0.631   6.187   1.465  1.0867  0.0647 -0.7873
  989MOL0     C30470   1.030   6.417   1.476 -0.0892 -0.9775  0.2648
  989MOL0     C30471   1.103   6.295   1.497  1.3690 -0.5251  0.0354
  989MOL0     C30472   1.244   6.284   1.484  0.7237  0.2321  0.2649
  989MOL0     C30473   1.312   6.410   1.469  0.0089  0.7053  1.0955
  989MOL0     O30474   1.448   6.428   1.446  0.2378  0.1641  0.6418
  989MOL0     C30475   1.536   6.358   1.537 -0.4397 -0.2627 -0.6250
  989MOL0     C30476   1.682   6.363   1.505  1.1471  0.2254  0.2954
  989MOL0     C30477   1.709   6.307   1.357 -0.4758  0.4372  0.1484
  989MOL0     C30478   1.863   6.321   1.324 -0.8143  0.0103  0.5120
  989MOL0     C30479   1.941   6.217   1.392  0.5056  0.2316 -0.6052
  989MOL0     C30480   1.998   6.133   1.467  0.3712 -0.3680  0.6432
  989MOL0     C30481   1.240   6.530   1.456 -0.7325  0.0542  0.2091
  989MOL0     C30482   1.101   6.543   1.474  0.0716  0.9280 -0.1706
  989MOL0     H30483   0.613   6.519   1.544 -2.6201  0.6339  1.7664
  989MOL0     H30484   0.383   6.453   1.598 -0.7481  0.5782 -1.3812
  989MOL0     H30485   0.191   6.397   1.592 -2.7412  1.1864  0.6514
  989MOL0     H30486   0.190   6.274   1.728  0.1570 -1.8190 -0.4604
  989MOL0     H30487   0.015   6.283   1.484  1.5174  0.3072  0.2462
  989MOL0     H30488  -0.018   6.348   1.647  1.8051  0.7227  0.9583
  989MOL0     H30489   0.050   6.094   1.714 -0.2090 -1.2136  0.4034
  989MOL0     H30490   0.021   6.069   1.537 -2.9564 -0.1739 -0.9641
  989MOL0     H30491  -0.171   6.181   1.732  3.2556  0.3092  0.3096
  989MOL0     H30492  -0.189   6.187   1.552  1.0900 -1.0802 -1.9549
  989MOL0     H30493  -0.208   5.945   1.739 -2.1591  1.1007  0.5154
  989MOL0     H30494  -0.145   5.915   1.574  0.1833  1.9409 -2.8928
  989MOL0     H30495  -0.336   6.018   1.470 -3.0859 -1.6852 -1.6904
  989MOL0     H30496  -0.404   6.037   1.637  0.5873 -1.9310  1.5852
  989MOL0     H30497  -0.472   5.831   1.479  1.2258  3.8825 -0.8146
  989MOL0     H30498  -0.313   5.776   1.527 -0.1944 -0.5253  0.5786
  989MOL0     H30499  -0.474   5.878   1.756  3.1027 -1.7236  1.9384
  989MOL0     H30500  -0.404   5.719   1.751 -1.2992 -1.3931 -1.0798
  989MOL0     H30501  -0.537   5.560   1.516  1.2898  0.1061  0.7949
  989MOL0     H30502  -0.739   5.401   1.460  0.5493 -0.6846  0.8184
  989MOL0     H30503  -0.865   5.507   1.419 -3.5207 -1.0675  1.7507
  989MOL0     H30504  -0.976   5.444   1.636  0.4642  1.9265 -0.4804
  989MOL0     H30505  -0.856   5.321   1.656  0.9532  0.0827 -0.5613
  989MOL0     H30506  -1.087   5.337   1.468 -0.4690 -1.3340  1.9631
  989MOL0     H30507  -0.933   5.264   1.404  0.1698  2.4517 -1.0446
  989MOL0     H30508  -1.107   5.147   1.613 -1.0676 -1.5309 -1.1754
  989MOL0     H30509  -0.930   5.114   1.603  0.3797  1.8035  2.7114
  989MOL0     H30510  -1.202   4.915   1.552  3.6695  1.1970 -1.2711
  989MOL0     H30511  -1.440   4.861   1.454  1.2737 -0.0061  0.1354
  989MOL0     H30512  -1.766   5.286   1.231 -0.1676  1.4789 -0.3905
  989MOL0     H30513  -1.999   5.308   1.163 -1.4942  0.8129 -2.8346
  989MOL0     H30514  -2.212   5.295   1.159 -0.0270  0.0323  0.1955
  989MOL0     H30515  -2.351   5.203   1.095 -0.5452 -0.7539 -2.3206
  989MOL0     H30516  -2.253   5.236   0.852  4.4099 -2.5421 -0.0828
  989MOL0     H30517  -2.141   5.334   0.918 -1.2893 -0.7754 -1.3312
  989MOL0     H30518  -2.296   5.494   0.992  1.3046 -2.8293  4.5072
  989MOL0     H30519  -2.429   5.384   0.989 -0.5308  1.3217 -0.1110
  989MOL0     H30520  -2.274   5.464   0.731  0.2170  1.5641  0.1589
  989MOL0     H30521  -2.418   5.357   0.749  1.0059  0.2419  0.8989
  989MOL0     H30522  -2.461   5.618   0.705  0.6278 -0.6133 -0.5840
  989MOL0     H30523  -2.438   5.640   0.874 -0.8683 -0.2401  0.5833
  989MOL0     H30524  -2.622   5.528   0.941 -5.4752  1.1567 -0.6456
  989MOL0     H30525  -2.622   5.418   0.807  3.5856  0.1786  1.4590
  989MOL0     H30526  -2.673   5.642   0.662  2.5194 -3.6737 -0.0655
  989MOL0     H30527  -2.801   5.572   0.759 -0.0058  0.9139 -3.1582
  989MOL0     H30528  -2.614   5.795   0.869  0.9233  2.5237 -3.3644
  989MOL0     H30529  -2.770   5.757   0.931 -0.2448 -1.6682 -0.4905
  989MOL0     H30530  -2.004   4.908   1.008 -1.3465  2.0675 -0.6019
  989MOL0     H30531  -1.758   4.898   1.050  0.3345 -0.7260  2.0389
  989MOL0     H30532  -1.377   5.197   1.195 -0.4399  0.7608  0.5924
  989MOL0     H30533  -1.150   5.221   1.262 -1.9034  1.4253  0.6472
  989MOL0     H30534   0.472   6.058   1.453 -1.0760 -0.1115  0.5837
  989MOL0     H30535   0.685   6.106   1.417 -1.5984 -2.5491  0.3712
  989MOL0     H30536   1.040   6.207   1.499  1.0567 -0.3235 -0.5786
  989MOL0     H30537   1.288   6.186   1.495 -0.1744 -0.4442 -1.8113
  989MOL0     H30538   1.511   6.252   1.534  0.0290 -0.3825 -0.3067
  989MOL0     H30539   1.534   6.399   1.639  1.3868  1.7857 -1.3364
  989MOL0     H30540   1.732   6.460   1.513  3.3388 -0.6375 -1.6730
  989MOL0     H30541   1.739   6.298   1.571  1.2516  1.6484  1.6577
  989MOL0     H30542   1.641   6.359   1.288 -0.9694  1.5513  1.4334
  989MOL0     H30543   1.683   6.201   1.353  2.0543 -0.2985  1.4524
  989MOL0     H30544   1.863   6.286   1.220 -0.1201 -1.8360  1.0992
  989MOL0     H30545   1.901   6.424   1.330 -0.5723  0.2941 -3.2808
  989MOL0     H30546   2.046   6.058   1.527  0.2006  0.3554  1.7142
  989MOL0     H30547   1.304   6.615   1.434  0.4243 -1.3359 -2.0744
  989MOL0     H30548   1.051   6.638   1.454 -0.0014  0.6698 -1.2728
  990MOL0     O30549   9.643   9.353   0.641 -0.1736  0.7456 -0.5356
  990MOL0     C30550   9.705   9.252   0.644  0.6349  0.4187 -0.8256
  990MOL0     O30551   9.660   9.132   0.716 -0.4509  0.1110 -0.1747
  990MOL0     C30552   9.544   9.110   0.789  0.2688  0.1466  1.6845
  990MOL0     C30553   9.463   9.208   0.856 -0.1133  0.0663  0.1572
  990MOL0     C30554   9.354   9.161   0.920  0.1223 -0.6285 -0.6502
  990MOL0     C30555   9.311   9.022   0.926 -0.1795 -0.4917 -0.3210
  990MOL0     O30556   9.188   8.969   0.968  0.1936  0.3043 -0.1843
  990MOL0     C30557   9.130   9.048   1.075  0.8112  0.2392  0.8064
  990MOL0     C30558   9.046   8.961   1.172  0.3475 -0.5187  0.1011
  990MOL0     C30559   9.151   8.872   1.245  0.9138 -0.3379  0.4164
  990MOL0     C30560   9.085   8.788   1.358 -0.9273  1.0465  0.3345
  990MOL0     C30561   9.192   8.723   1.449  0.3362  0.3042 -0.1044
  990MOL0     C30562   9.125   8.653   1.570  0.1581  0.2180  0.0039
  990MOL0     C30563   8.997   8.569   1.553  0.4322  0.4329 -0.7274
  990MOL0     C30564   8.988   8.467   1.667  0.6128  0.5860  0.0203
  990MOL0     N30565   9.021   8.510   1.797  0.5374  0.2832 -0.6083
  990MOL0     C30566   8.930   8.563   1.885  0.1841  0.4738  0.6763
  990MOL0     C30567   8.997   8.578   1.997  0.2550  0.9174 -0.4014
  990MOL0     C30568   8.941   8.634   2.119  0.5358 -0.1633  0.1382
  990MOL0     C30569   8.824   8.558   2.177  1.1184 -0.3084  0.5775
  990MOL0     C30570   8.687   8.613   2.143 -0.7127 -1.2318 -0.8337
  990MOL0     C30571   8.662   8.769   2.144 -0.0579  0.1243 -0.2699
  990MOL0     O30572   8.517   8.779   2.136 -0.2814  0.2642 -0.2661
  990MOL0     C30573   8.457   8.742   2.024  0.6748  0.7395 -0.1164
  990MOL0     C30574   8.469   8.815   1.898  0.3972 -0.3250  0.1420
  990MOL0     C30575   8.397   8.765   1.782  0.6545  0.4762 -0.0626
  990MOL0     C30576   8.325   8.649   1.796  0.5874  0.1584  0.8054
  990MOL0     C30577   8.263   8.591   1.679  0.6051 -0.3825 -0.1813
  990MOL0     O30578   8.183   8.480   1.695 -0.3137  0.5784  0.3084
  990MOL0     C30579   8.112   8.430   1.593  0.7109 -0.4495 -0.9110
  990MOL0     C30580   7.994   8.501   1.559 -0.1204 -0.6883  0.5069
  990MOL0     C30581   7.908   8.438   1.464 -0.7355 -0.3066  1.5289
  990MOL0     C30582   7.937   8.311   1.413 -0.0221 -0.2669  0.6011
  990MOL0     O30583   7.871   8.231   1.322  0.6380 -0.6554  0.2263
  990MOL0     C30584   7.730   8.250   1.320  0.6110 -0.5696 -1.2030
  990MOL0     C30585   7.669   8.153   1.225  0.5330  0.9054  0.3747
  990MOL0     C30586   7.520   8.151   1.249  0.1877  1.0357 -0.0241
  990MOL0     C30587   7.452   8.040   1.153 -1.2689  0.3112 -0.5436
  990MOL0     C30588   7.297   8.048   1.159  0.0056  0.2249  0.3143
  990MOL0     C30589   7.261   8.022   1.298 -0.2012 -0.9064  0.0958
  990MOL0     C30590   7.113   7.989   1.332  0.3596  0.6171 -0.2169
  990MOL0     C30591   7.076   8.005   1.483  0.6513  0.9090  0.1846
  990MOL0    Cl30592   7.134   7.854   1.570  0.1634 -0.1591  0.2000
  990MOL0     C30593   8.055   8.256   1.453 -0.1669 -0.1575 -0.1970
  990MOL0     C30594   8.140   8.304   1.547  0.4933 -0.0987  0.2697
  990MOL0     O30595   8.282   8.648   1.572 -0.0439 -0.2105  0.4004
  990MOL0     C30596   8.307   8.589   1.920 -0.3303  0.4957 -0.0877
  990MOL0     C30597   8.380   8.635   2.036 -0.3454 -0.2693 -0.6113
  990MOL0     N30598   9.128   8.541   1.977 -0.3540 -0.1551 -0.3612
  990MOL0     N30599   9.136   8.497   1.860 -0.5958 -0.1183  0.4319
  990MOL0     C30600   9.400   8.932   0.862  0.2986  0.2725 -0.0054
  990MOL0     C30601   9.511   8.976   0.793  0.2018 -0.6824  0.6303
  990MOL0     C30602   9.837   9.253   0.590 -0.5680 -0.4379  0.2859
  990MOL0     C30603   9.920   9.137   0.597 -0.5202 -0.3883 -0.8967
  990MOL0     C30604  10.056   9.148   0.561 -0.7709 -0.3751 -0.0308
  990MOL0     C30605  10.113   9.265   0.510  0.5613  0.2419 -0.2788
  990MOL0     O30606  10.248   9.249   0.461  0.6484 -0.0714 -0.4097
  990MOL0     C30607  10.301   9.363   0.391 -0.1195 -0.4848 -1.0074
  990MOL0     C30608  10.396   9.444   0.481 -1.2694  0.2275  0.5674
  990MOL0     C30609  10.502   9.343   0.540 -0.0587  0.2901 -0.8752
  990MOL0     C30610  10.611   9.406   0.622 -0.1516  0.4264 -0.4863
  990MOL0     C30611  10.707   9.484   0.537  0.3424  0.0827 -0.2723
  990MOL0     C30612  10.781   9.543   0.459  0.0816 -0.0100 -0.0373
  990MOL0     C30613  10.034   9.376   0.491 -0.3691  0.5441 -0.4216
  990MOL0     C30614   9.898   9.371   0.533  0.0100 -0.0352  0.3793
  990MOL0     H30615   9.485   9.313   0.845 -0.2729  0.1753  0.8382
  990MOL0     H30616   9.286   9.240   0.950 -2.3193 -2.1436 -1.8685
  990MOL0     H30617   9.074   9.130   1.030  2.7104  1.7856  1.1201
  990MOL0     H30618   9.201   9.095   1.144 -0.0458  0.5678  1.4800
  990MOL0     H30619   8.972   8.897   1.124  0.1775 -1.2438  1.3120
  990MOL0     H30620   8.993   9.027   1.241 -0.6355 -0.6098 -0.5549
  990MOL0     H30621   9.220   8.943   1.293  2.0132 -1.5617  0.7113
  990MOL0     H30622   9.202   8.807   1.173 -1.2766 -0.7592 -0.8274
  990MOL0     H30623   9.021   8.857   1.413  0.8142  1.6243  1.7543
  990MOL0     H30624   9.041   8.699   1.313  0.9429  1.4158 -2.5174
  990MOL0     H30625   9.259   8.796   1.494  1.1350  0.1145 -0.9651
  990MOL0     H30626   9.253   8.651   1.395 -0.9639 -0.5808 -0.4452
  990MOL0     H30627   9.112   8.730   1.646  2.7065 -0.9106  1.7178
  990MOL0     H30628   9.205   8.594   1.614  0.2184  0.5261  0.3111
  990MOL0     H30629   8.913   8.637   1.567 -0.2405 -0.3666 -0.8194
  990MOL0     H30630   8.980   8.516   1.459 -1.5322 -2.2313  1.0095
  990MOL0     H30631   9.041   8.377   1.634 -2.1681 -1.0603 -0.2751
  990MOL0     H30632   8.883   8.436   1.669  0.8723 -0.2570  0.5841
  990MOL0     H30633   8.830   8.596   1.859  0.5809  0.6677 -0.7240
  990MOL0     H30634   8.900   8.735   2.113  0.5631 -0.0672  1.3503
  990MOL0     H30635   9.027   8.636   2.187  0.5862  0.8745  0.0614
  990MOL0     H30636   8.829   8.572   2.286 -0.2232  0.6288  0.5437
  990MOL0     H30637   8.834   8.450   2.162  1.9290 -0.5506  2.5357
  990MOL0     H30638   8.662   8.581   2.042 -2.0340  3.4376 -2.2217
  990MOL0     H30639   8.619   8.571   2.218  0.3086  0.1906  0.9845
  990MOL0     H30640   8.713   8.804   2.053  0.3947 -3.6117 -1.6209
  990MOL0     H30641   8.703   8.812   2.236  0.2519 -0.0643 -0.3180
  990MOL0     H30642   8.525   8.908   1.904  0.6026 -0.5421  3.4583
  990MOL0     H30643   8.405   8.808   1.682 -0.5611 -3.0339 -1.8228
  990MOL0     H30644   7.979   8.595   1.611  1.5334 -1.2885  2.1718
  990MOL0     H30645   7.812   8.486   1.447 -0.3708 -0.0878 -0.0694
  990MOL0     H30646   7.701   8.349   1.283 -1.0637 -0.6214 -0.1124
  990MOL0     H30647   7.690   8.241   1.421 -2.1774  2.8945 -1.7983
  990MOL0     H30648   7.732   8.065   1.242  2.5978  1.7295 -2.1653
  990MOL0     H30649   7.686   8.189   1.123  0.8247 -0.8327 -0.2289
  990MOL0     H30650   7.470   8.243   1.218  1.0493  1.2599 -0.7909
  990MOL0     H30651   7.499   8.136   1.356 -0.4872 -2.6614 -0.5248
  990MOL0     H30652   7.491   8.032   1.051  0.4593 -4.2408  0.2612
  990MOL0     H30653   7.488   7.958   1.216  0.7347  1.1625 -0.4944
  990MOL0     H30654   7.255   7.969   1.097  0.4761 -0.6485  1.0892
  990MOL0     H30655   7.254   8.144   1.128  2.0750  1.5601  1.3598
  990MOL0     H30656   7.286   8.108   1.362 -2.0709 -1.0545  1.0911
  990MOL0     H30657   7.323   7.937   1.329  0.8056  0.4268  2.0127
  990MOL0     H30658   7.042   8.048   1.273 -2.7622  0.7730  3.3642
  990MOL0     H30659   7.094   7.883   1.310  1.5412  0.3394  0.0300
  990MOL0     H30660   6.968   8.008   1.502  0.8394  1.3498  1.2139
  990MOL0     H30661   7.123   8.090   1.533  1.6994 -0.5040  1.7174
  990MOL0     H30662   8.085   8.162   1.408  5.6892  2.0774 -1.8351
  990MOL0     H30663   8.229   8.250   1.578  2.1992  2.1914 -0.3358
  990MOL0     H30664   8.252   8.496   1.929  0.6358 -0.1980 -0.9609
  990MOL0     H30665   8.366   8.577   2.127 -1.1324  0.3107 -0.3548
  990MOL0     H30666   9.366   8.830   0.849  1.9755 -0.0912 -2.1899
  990MOL0     H30667   9.576   8.897   0.756  0.2957  0.0819 -0.8974
  990MOL0     H30668   9.878   9.041   0.627  2.7454 -1.8995 -0.7459
  990MOL0     H30669  10.122   9.062   0.564  0.9740  0.9131  3.1374
  990MOL0     H30670  10.224   9.422   0.340  1.5435  1.5542 -1.2926
  990MOL0     H30671  10.367   9.331   0.309 -0.7871  0.1194 -1.7882
  990MOL0     H30672  10.452   9.514   0.417  0.3205  0.8059  2.4983
  990MOL0     H30673  10.349   9.502   0.560 -1.7167  0.0486  0.4316
  990MOL0     H30674  10.552   9.278   0.467 -0.7686 -1.2937 -0.0044
  990MOL0     H30675  10.446   9.280   0.610  2.9734 -1.1463  0.4773
  990MOL0     H30676  10.561   9.474   0.692 -0.1377 -0.8360  0.8020
  990MOL0     H30677  10.653   9.342   0.700 -4.3303 -0.5783  1.2541
  990MOL0     H30678  10.854   9.573   0.387  0.2345 -2.0886 -0.8125
  990MOL0     H30679  10.056   9.470   0.440  0.4333 -0.4276 -1.9482
  990MOL0     H30680   9.835   9.458   0.523  0.9539  0.9553  2.5908
  991MOL0     O30681   5.740  10.826   6.583 -0.3682  0.1640  0.1504
  991MOL0     C30682   5.798  10.930   6.579 -0.4527  0.5166 -0.4561
  991MOL0     O30683   5.820  11.013   6.692  0.1194  0.6238  0.1152
  991MOL0     C30684   5.738  11.013   6.796  0.0148  0.6459  0.2403
  991MOL0     C30685   5.802  11.052   6.918  0.4413 -0.0381 -0.8620
  991MOL0     C30686   5.719  11.073   7.030  0.2038 -0.2896 -0.1221
  991MOL0     C30687   5.584  11.041   7.037 -0.4162 -0.3958  0.4948
  991MOL0     O30688   5.505  11.067   7.144  0.0760  0.4304 -0.9553
  991MOL0     C30689   5.521  11.185   7.212  0.0809  0.4373  0.2523
  991MOL0     C30690   5.428  11.210   7.324  0.3135  0.5522  0.0978
  991MOL0     C30691   5.282  11.179   7.289  0.1570 -0.5083 -0.7837
  991MOL0     C30692   5.196  11.263   7.381 -0.0627  0.4421 -0.3056
  991MOL0     C30693   5.041  11.250   7.340 -0.7568 -0.8405 -0.2948
  991MOL0     C30694   4.989  11.110   7.344  0.0133  1.0314 -0.4814
  991MOL0     C30695   4.841  11.111   7.300 -0.6640 -0.6938  0.2238
  991MOL0     C30696   4.796  10.976   7.245  0.2249  0.0232 -0.2373
  991MOL0     N30697   4.654  10.985   7.206 -0.8263 -0.0363  0.6173
  991MOL0     C30698   4.605  10.934   7.090  0.7583  0.4059 -0.0786
  991MOL0     C30699   4.470  10.947   7.116  0.1328  0.3558  0.1154
  991MOL0     C30700   4.370  10.892   7.021  0.1297 -0.1823  0.2176
  991MOL0     C30701   4.215  10.895   7.042  0.0764  0.9276  0.0375
  991MOL0     C30702   4.174  10.775   7.122  0.2992  0.0007 -0.1243
  991MOL0     C30703   4.024  10.788   7.147  0.6006  0.4322  0.3432
  991MOL0     O30704   3.983  10.658   7.201 -0.5597  0.1586  0.1521
  991MOL0     C30705   3.844  10.649   7.215 -0.0462 -0.2164 -0.1907
  991MOL0     C30706   3.770  10.567   7.132 -0.5478  0.3867  0.6105
  991MOL0     C30707   3.640  10.540   7.158  0.3127  0.8067 -0.5723
  991MOL0     C30708   3.575  10.607   7.265  0.0129  0.2373  1.2444
  991MOL0     C30709   3.427  10.584   7.287 -0.2599  0.6627 -0.8017
  991MOL0     O30710   3.383  10.638   7.407 -0.1308 -0.4143  0.3221
  991MOL0     C30711   3.263  10.601   7.461  0.9009 -0.1805  0.2852
  991MOL0     C30712   3.228  10.466   7.479 -0.4809  0.4187 -0.0409
  991MOL0     C30713   3.114  10.433   7.556  0.1716 -0.3845  0.5066
  991MOL0     C30714   3.023  10.526   7.599 -1.0065 -0.1767 -0.0013
  991MOL0     O30715   2.912  10.500   7.672  0.1728 -0.1228 -0.4732
  991MOL0     C30716   2.852  10.370   7.697 -0.0108 -0.7866 -0.1405
  991MOL0     C30717   2.701  10.369   7.707  0.3834 -0.8127 -0.0522
  991MOL0     C30718   2.644  10.403   7.843  0.0818  0.0154 -0.3433
  991MOL0     C30719   2.492  10.374   7.842  0.3232  0.1569  0.0236
  991MOL0     C30720   2.446  10.422   7.976  0.3098  0.1166 -0.4171
  991MOL0     C30721   2.324  10.355   8.028 -0.1946 -0.0538 -0.0536
  991MOL0     C30722   2.197  10.390   7.950 -0.0907 -0.1570  1.0062
  991MOL0     C30723   2.074  10.350   8.026 -0.7339  0.3370  0.2594
  991MOL0    Cl30724   2.043  10.175   7.984 -0.9308  0.2085 -0.1644
  991MOL0     C30725   3.046  10.657   7.573 -0.2763  0.0540  0.0803
  991MOL0     C30726   3.170  10.699   7.507  0.0675 -0.7027  0.0338
  991MOL0     O30727   3.366  10.507   7.223 -1.0007 -0.1664  0.0155
  991MOL0     C30728   3.646  10.699   7.346  0.3274 -0.4273  0.2736
  991MOL0     C30729   3.784  10.715   7.328  0.8014  0.7414  0.6292
  991MOL0     N30730   4.459  11.004   7.238 -0.5891 -0.5358 -0.5583
  991MOL0     N30731   4.564  11.039   7.286 -0.1551 -0.3531  0.7039
  991MOL0     C30732   5.531  10.982   6.925  0.2238 -0.1332 -0.2993
  991MOL0     C30733   5.602  10.967   6.803  0.1008  0.3413 -0.6805
  991MOL0     C30734   5.859  10.966   6.444  0.5496 -0.4490  0.0978
  991MOL0     C30735   5.893  10.869   6.349 -0.8489 -0.0328  1.4707
  991MOL0     C30736   5.951  10.896   6.219 -0.2157  0.3932 -0.5351
  991MOL0     C30737   5.978  11.026   6.185  0.3285  0.7640  0.1087
  991MOL0     O30738   6.026  11.067   6.059  0.1348 -0.1879 -0.2981
  991MOL0     C30739   5.925  11.046   5.962  0.5578 -0.9291 -0.0594
  991MOL0     C30740   6.001  11.080   5.831  0.7213  0.4590  0.8519
  991MOL0     C30741   6.030  11.230   5.836  0.0251  0.5816  0.3941
  991MOL0     C30742   6.070  11.293   5.709  0.8647 -0.0768  0.6953
  991MOL0     C30743   6.141  11.191   5.627 -0.3842 -0.4798 -0.0742
  991MOL0     C30744   6.173  11.102   5.548 -0.3119  0.4480 -0.2592
  991MOL0     C30745   5.941  11.124   6.276  1.0444  0.3340  0.1313
  991MOL0     C30746   5.891  11.096   6.402  0.7313  0.0265  0.0916
  991MOL0     H30747   5.909  11.069   6.923  0.6205 -0.5623 -2.2815
  991MOL0     H30748   5.763  11.106   7.123  0.5001  1.5065 -0.8541
  991MOL0     H30749   5.517  11.267   7.139 -2.1350 -2.6254 -3.4589
  991MOL0     H30750   5.621  11.175   7.257  0.0524 -4.1236 -0.2316
  991MOL0     H30751   5.437  11.316   7.348 -2.3361  0.6131  1.2037
  991MOL0     H30752   5.460  11.151   7.410  0.0328  1.6552  0.9873
  991MOL0     H30753   5.254  11.074   7.306  0.1265 -0.8526 -2.7418
  991MOL0     H30754   5.261  11.205   7.186 -3.6115  0.3440  0.0578
  991MOL0     H30755   5.213  11.235   7.485  0.2311 -3.1291 -1.1930
  991MOL0     H30756   5.213  11.371   7.374  2.9200  0.1840  1.4185
  991MOL0     H30757   5.039  11.291   7.239  3.3748  1.2306  0.2312
  991MOL0     H30758   4.982  11.307   7.412  1.6100  1.0528  0.2853
  991MOL0     H30759   5.003  11.076   7.447 -1.9550  0.7588 -0.2585
  991MOL0     H30760   5.051  11.043   7.284  1.5552 -0.5561  2.6162
  991MOL0     H30761   4.772  11.146   7.378 -3.1207  1.7348 -2.8168
  991MOL0     H30762   4.836  11.186   7.221 -1.2866  1.3361  2.0986
  991MOL0     H30763   4.795  10.904   7.328 -2.5100  1.8959  1.5246
  991MOL0     H30764   4.862  10.946   7.164 -0.9479  0.3105 -1.3280
  991MOL0     H30765   4.650  10.870   7.015 -0.0766  0.8379 -0.9795
  991MOL0     H30766   4.396  10.787   7.006  0.1416 -0.7256  3.2834
  991MOL0     H30767   4.387  10.963   6.940  3.6544 -1.0298  0.0620
  991MOL0     H30768   4.171  10.892   6.942 -2.6973 -2.4875  1.1457
  991MOL0     H30769   4.186  10.983   7.100 -0.7374  0.5747  0.1811
  991MOL0     H30770   4.195  10.687   7.060 -4.5994  0.6102 -3.1570
  991MOL0     H30771   4.223  10.776   7.220 -1.1977 -2.4777  0.7587
  991MOL0     H30772   3.962  10.812   7.060 -0.0340  0.5329  0.8133
  991MOL0     H30773   4.013  10.864   7.226  1.9655  2.9937 -1.7676
  991MOL0     H30774   3.812  10.521   7.044 -1.2709 -1.9500  1.4123
  991MOL0     H30775   3.591  10.469   7.092  1.1265 -0.4346  0.1115
  991MOL0     H30776   3.286  10.378   7.454 -0.7445  0.1688  0.2278
  991MOL0     H30777   3.093  10.327   7.565  1.3791 -0.5817  1.1948
  991MOL0     H30778   2.888  10.337   7.795 -0.7675 -1.0011  0.0773
  991MOL0     H30779   2.873  10.301   7.616 -0.2238  1.5971 -2.3643
  991MOL0     H30780   2.665  10.268   7.685 -0.8391  0.1500 -2.9668
  991MOL0     H30781   2.668  10.447   7.638 -0.3581 -0.2682  0.8968
  991MOL0     H30782   2.659  10.506   7.875  1.5091 -0.8821  2.1194
  991MOL0     H30783   2.683  10.345   7.927  1.5174  0.0168 -0.9882
  991MOL0     H30784   2.438  10.432   7.767  0.9719  1.4862  0.5681
  991MOL0     H30785   2.474  10.266   7.835 -0.8136  0.1264  2.4404
  991MOL0     H30786   2.428  10.529   7.959 -0.8715  0.0886  0.5294
  991MOL0     H30787   2.523  10.419   8.054  1.8844  3.1818 -1.6721
  991MOL0     H30788   2.309  10.386   8.132 -1.8361  1.4403 -0.6836
  991MOL0     H30789   2.346  10.248   8.041  0.2876  0.2520  1.9269
  991MOL0     H30790   2.208  10.496   7.923  0.2156 -0.7387 -1.3530
  991MOL0     H30791   2.198  10.336   7.855 -1.5422 -2.5344  2.2617
  991MOL0     H30792   1.981  10.399   7.996 -1.0345 -0.7277 -0.6501
  991MOL0     H30793   2.096  10.366   8.132  1.6634  3.1366 -0.5476
  991MOL0     H30794   2.967  10.731   7.581  1.6237  2.4818 -1.5874
  991MOL0     H30795   3.199  10.802   7.488 -0.3905 -0.2375  1.7119
  991MOL0     H30796   3.592  10.762   7.417 -2.3704 -3.0672  0.7719
  991MOL0     H30797   3.833  10.789   7.391  2.7197  1.2128 -1.2813
  991MOL0     H30798   5.429  10.944   6.931  0.8479 -3.0790 -4.3425
  991MOL0     H30799   5.553  10.917   6.720  1.2877  0.3315 -1.3978
  991MOL0     H30800   5.866  10.767   6.375 -1.7196  0.0195  0.8198
  991MOL0     H30801   5.967  10.810   6.154  0.7488 -1.3004  1.7947
  991MOL0     H30802   5.844  11.118   5.980 -1.2767 -2.9347  0.1271
  991MOL0     H30803   5.891  10.942   5.959 -0.0789 -0.7124 -1.6188
  991MOL0     H30804   6.085  11.011   5.821  0.5078  0.3454 -0.2930
  991MOL0     H30805   5.930  11.069   5.748  1.0068 -0.1212  0.6840
  991MOL0     H30806   6.124  11.241   5.890  2.4188  0.1742 -3.3283
  991MOL0     H30807   5.953  11.285   5.890 -1.4428 -0.5933 -0.4191
  991MOL0     H30808   5.994  11.340   5.646  0.9136  0.0095  0.7007
  991MOL0     H30809   6.146  11.369   5.729  0.8279  1.4514 -3.7338
  991MOL0     H30810   6.209  11.019   5.491 -0.8137 -0.9497  1.3732
  991MOL0     H30811   5.935  11.230   6.258 -0.5475  0.6736  2.2149
  991MOL0     H30812   5.874  11.183   6.465 -2.0179  2.5962 -3.7277
  992MOL0     O30813   1.135   9.908   5.766  0.2069  0.3145 -0.3739
  992MOL0     C30814   1.238   9.854   5.782 -0.3518  0.1859  0.7848
  992MOL0     O30815   1.277   9.779   5.887 -0.3740  0.5567  0.4096
  992MOL0     C30816   1.189   9.730   5.976  1.2487 -0.3208 -0.9272
  992MOL0     C30817   1.242   9.696   6.103 -0.1454 -0.4744  0.0780
  992MOL0     C30818   1.175   9.630   6.194 -0.3767  0.8011 -0.1843
  992MOL0     C30819   1.053   9.580   6.176 -0.2888  0.0706 -0.2315
  992MOL0     O30820   1.004   9.508   6.273 -0.1634  0.3146  0.9758
  992MOL0     C30821   0.939   9.385   6.235 -0.2233  0.5028  0.5139
  992MOL0     C30822   1.040   9.269   6.218 -0.0217 -0.1662  0.0421
  992MOL0     C30823   1.072   9.211   6.353 -0.4600  0.8872 -0.9479
  992MOL0     C30824   1.190   9.116   6.339 -0.2939 -0.7423  0.0087
  992MOL0     C30825   1.220   9.054   6.475 -1.0564  0.0521  1.0456
  992MOL0     C30826   1.319   8.940   6.451 -0.6539  0.4191 -0.4588
  992MOL0     C30827   1.371   8.874   6.581 -0.1206  0.1541  0.1159
  992MOL0     C30828   1.257   8.796   6.658  0.4985 -0.0679  0.3151
  992MOL0     N30829   1.211   8.673   6.587  0.1085  0.2095  0.4025
  992MOL0     C30830   1.296   8.571   6.558  0.5206 -0.4490  1.6436
  992MOL0     C30831   1.222   8.498   6.471  0.1596 -0.3036  0.0109
  992MOL0     C30832   1.258   8.364   6.428 -0.9419 -0.4244  0.9131
  992MOL0     C30833   1.210   8.247   6.514  0.1312 -0.2103 -0.4558
  992MOL0     C30834   1.053   8.228   6.522 -0.3375  0.1341 -0.9788
  992MOL0     C30835   0.980   8.215   6.394 -0.5385 -0.3038  0.6026
  992MOL0     O30836   0.898   8.103   6.396  0.2391 -0.0504  0.1658
  992MOL0     C30837   0.767   8.128   6.424 -0.0613 -0.5838  0.0247
  992MOL0     C30838   0.670   8.063   6.343 -0.3177 -0.0213  0.1889
  992MOL0     C30839   0.534   8.089   6.364 -0.8858  0.7497  1.6383
  992MOL0     C30840   0.488   8.167   6.475  0.9971  0.3983  0.1138
  992MOL0     C30841   0.346   8.183   6.504 -0.1991 -1.1668 -0.2520
  992MOL0     O30842   0.263   8.137   6.404  0.1913 -0.1167  0.1726
  992MOL0     C30843   0.127   8.133   6.426 -0.2710  0.3313  0.3608
  992MOL0     C30844   0.072   8.057   6.531 -0.7024 -0.2160 -0.0456
  992MOL0     C30845  -0.067   8.073   6.570 -0.8396 -1.1580 -0.5519
  992MOL0     C30846  -0.155   8.156   6.494 -0.2393 -0.4381  0.3442
  992MOL0     O30847  -0.287   8.174   6.517  0.0003 -0.1726  0.2595
  992MOL0     C30848  -0.368   8.237   6.421 -0.1647  0.5290  0.7918
  992MOL0     C30849  -0.503   8.263   6.480  0.3385  1.1792  0.0167
  992MOL0     C30850  -0.580   8.347   6.380 -0.4884  0.6306  0.5308
  992MOL0     C30851  -0.697   8.426   6.448 -1.0993 -0.1859  0.0311
  992MOL0     C30852  -0.821   8.342   6.464  0.6828  0.4604  0.4382
  992MOL0     C30853  -0.946   8.419   6.503  1.1730  0.9918  0.5990
  992MOL0     C30854  -1.007   8.506   6.396 -0.2486  0.2259  0.0489
  992MOL0     C30855  -1.146   8.546   6.429  0.4891 -0.7142 -0.1056
  992MOL0    Cl30856  -1.203   8.627   6.284 -0.2140 -0.0975 -0.2910
  992MOL0     C30857  -0.084   8.246   6.411  0.2863  0.1007  1.1262
  992MOL0     C30858   0.049   8.228   6.363  0.4281 -0.7836  0.1367
  992MOL0     O30859   0.309   8.232   6.607 -0.1535 -0.0975 -0.4136
  992MOL0     C30860   0.584   8.230   6.559 -0.3767  0.0939  0.8039
  992MOL0     C30861   0.726   8.211   6.533  0.0301  0.0202  0.1214
  992MOL0     N30862   1.096   8.565   6.449  0.1178  0.1859  0.3949
  992MOL0     N30863   1.089   8.669   6.529 -0.4088  0.0137  1.0097
  992MOL0     C30864   0.989   9.612   6.055 -0.1478  0.5801  0.2265
  992MOL0     C30865   1.056   9.691   5.956 -0.1973 -0.1401  0.3245
  992MOL0     C30866   1.333   9.874   5.669 -0.4210  0.1842 -0.1172
  992MOL0     C30867   1.310   9.979   5.573 -0.7449 -0.7660  0.1103
  992MOL0     C30868   1.410  10.012   5.488 -0.3965 -0.0622  0.2179
  992MOL0     C30869   1.540   9.957   5.510 -0.8031 -0.4423  0.7440
  992MOL0     O30870   1.658   9.999   5.447  0.0157  0.3943 -0.0099
  992MOL0     C30871   1.650  10.100   5.348 -0.2617  0.2972  0.2271
  992MOL0     C30872   1.788  10.114   5.288  0.8736  0.5325 -0.2285
  992MOL0     C30873   1.897  10.125   5.394  0.4362  0.1289  0.2407
  992MOL0     C30874   2.024  10.208   5.347  0.1294  0.8069 -0.9217
  992MOL0     C30875   2.133  10.202   5.447  0.3887 -0.0147  0.2520
  992MOL0     C30876   2.223  10.186   5.528  0.7772 -0.2457 -0.3316
  992MOL0     C30877   1.553   9.844   5.595  0.0811  0.8491  0.9087
  992MOL0     C30878   1.452   9.807   5.685 -0.7569 -0.4195  0.2591
  992MOL0     H30879   1.348   9.711   6.120  0.1108 -0.1763 -1.5781
  992MOL0     H30880   1.226   9.613   6.288 -1.2507 -2.5355 -0.1896
  992MOL0     H30881   0.886   9.398   6.140  3.2258  1.1120 -1.4704
  992MOL0     H30882   0.866   9.367   6.315  0.7228  1.4589  1.6358
  992MOL0     H30883   1.129   9.288   6.158 -1.0322 -1.7157 -2.1123
  992MOL0     H30884   0.977   9.188   6.179  1.5798 -1.6657  0.4648
  992MOL0     H30885   0.986   9.162   6.401  2.0070 -1.2198  1.7301
  992MOL0     H30886   1.115   9.274   6.431 -2.1341 -1.0047  1.7037
  992MOL0     H30887   1.174   9.045   6.258 -2.5897  1.3525 -1.5412
  992MOL0     H30888   1.266   9.189   6.310 -0.5100 -0.6628 -0.3727
  992MOL0     H30889   1.125   9.021   6.517 -1.0194 -0.5290  0.6885
  992MOL0     H30890   1.258   9.124   6.550 -2.0733 -1.7930  3.4010
  992MOL0     H30891   1.401   8.971   6.385  0.3486 -0.2394  0.4466
  992MOL0     H30892   1.273   8.869   6.381 -1.5141  1.0646 -0.5727
  992MOL0     H30893   1.459   8.814   6.558  0.6922  0.7239  1.5923
  992MOL0     H30894   1.410   8.950   6.650 -1.2851  1.8874 -1.0392
  992MOL0     H30895   1.176   8.865   6.683 -0.2887 -1.4570  1.7989
  992MOL0     H30896   1.302   8.777   6.756  3.7083  2.0185 -0.5896
  992MOL0     H30897   1.398   8.551   6.588  0.6747 -0.9041  0.8256
  992MOL0     H30898   1.367   8.354   6.429 -0.6042  2.5834  1.4377
  992MOL0     H30899   1.225   8.363   6.324 -0.4821 -0.2178  0.7623
  992MOL0     H30900   1.254   8.259   6.614 -1.4761  0.3436  0.2302
  992MOL0     H30901   1.267   8.160   6.480  1.5990  1.4262 -2.3744
  992MOL0     H30902   1.036   8.133   6.572  0.6441  0.2559 -0.3653
  992MOL0     H30903   1.009   8.304   6.587  1.1169  0.0177  0.2012
  992MOL0     H30904   1.051   8.189   6.315  0.3007 -0.3171  1.3321
  992MOL0     H30905   0.931   8.310   6.371 -1.5730 -0.4287  2.1656
  992MOL0     H30906   0.707   8.009   6.257 -1.7080  1.4749 -1.4338
  992MOL0     H30907   0.456   8.054   6.298 -0.0717  1.9322 -0.0384
  992MOL0     H30908   0.137   8.002   6.598  0.0264  3.2107  2.3174
  992MOL0     H30909  -0.110   8.016   6.651  1.5852 -1.2225  0.7481
  992MOL0     H30910  -0.372   8.184   6.325  1.8390  1.0979  0.3371
  992MOL0     H30911  -0.329   8.335   6.388 -0.0133  0.1675 -0.1466
  992MOL0     H30912  -0.493   8.321   6.573  2.1973  1.0473 -0.0563
  992MOL0     H30913  -0.560   8.172   6.501  2.6785 -0.9281 -2.1153
  992MOL0     H30914  -0.605   8.286   6.293  2.8590  3.3780 -2.6631
  992MOL0     H30915  -0.511   8.428   6.352  0.5955  0.6178  2.9433
  992MOL0     H30916  -0.665   8.450   6.550  2.7801  1.9241 -1.4748
  992MOL0     H30917  -0.725   8.509   6.384 -1.1651 -2.9770 -3.9332
  992MOL0     H30918  -0.793   8.273   6.544 -0.8117  0.4684  1.0046
  992MOL0     H30919  -0.852   8.285   6.376  1.3198  1.0424 -0.1769
  992MOL0     H30920  -0.927   8.477   6.593 -1.5680 -0.1476  2.0283
  992MOL0     H30921  -1.022   8.342   6.519 -0.0498  1.5168 -2.0189
  992MOL0     H30922  -0.947   8.596   6.379  0.1018  0.5323  2.6242
  992MOL0     H30923  -1.000   8.451   6.302  1.3107  1.9289 -0.9162
  992MOL0     H30924  -1.154   8.606   6.521 -1.9684  0.1487 -0.8120
  992MOL0     H30925  -1.214   8.464   6.454 -0.5664  0.4253  0.8991
  992MOL0     H30926  -0.127   8.341   6.382  1.3347 -0.4830 -3.1180
  992MOL0     H30927   0.099   8.311   6.314  0.5298 -0.7730  0.2617
  992MOL0     H30928   0.555   8.307   6.630 -0.8257  1.4100 -0.7334
  992MOL0     H30929   0.800   8.263   6.592  2.0343  0.1521 -2.3576
  992MOL0     H30930   0.883   9.593   6.042 -0.0005  0.8416 -1.5184
  992MOL0     H30931   1.000   9.696   5.863 -3.4438  0.7577  2.1784
  992MOL0     H30932   1.219  10.036   5.561 -0.2427 -0.1636 -1.0029
  992MOL0     H30933   1.394  10.102   5.430  1.3285  2.4003  3.2207
  992MOL0     H30934   1.617  10.193   5.394  3.1426  1.7076  0.1005
  992MOL0     H30935   1.582  10.065   5.269 -1.3152  2.2945  0.1845
  992MOL0     H30936   1.801  10.023   5.228 -0.1623  1.0621 -1.3093
  992MOL0     H30937   1.783  10.210   5.235  0.8152  1.6249  1.6843
  992MOL0     H30938   1.929  10.021   5.408  0.2106  0.2363  1.6274
  992MOL0     H30939   1.860  10.156   5.492 -0.0279 -1.1483  0.4890
  992MOL0     H30940   2.044  10.160   5.251 -1.4559 -0.9102 -0.4438
  992MOL0     H30941   1.998  10.314   5.336  2.3480  1.6440  0.9574
  992MOL0     H30942   2.304  10.176   5.597 -0.4223 -0.9123  1.0412
  992MOL0     H30943   1.650   9.797   5.610 -1.7733 -3.8115 -0.1609
  992MOL0     H30944   1.472   9.733   5.762  2.0915 -1.0067 -0.9341
  993MOL0     O30945   3.760   2.113   6.607 -0.0482  0.5040  0.6463
  993MOL0     C30946   3.720   2.130   6.723  0.0524  0.8844  0.3922
  993MOL0     O30947   3.801   2.114   6.840  0.1423 -0.1721  0.4192
  993MOL0     C30948   3.934   2.080   6.825 -0.4135 -0.7954 -0.1476
  993MOL0     C30949   4.022   2.164   6.899  0.0248  0.2506  0.1882
  993MOL0     C30950   4.163   2.139   6.894  0.6319 -0.5564  1.1598
  993MOL0     C30951   4.216   2.035   6.821  0.6474 -0.3414  0.1633
  993MOL0     O30952   4.351   2.021   6.831  0.0138 -0.0613  0.6025
  993MOL0     C30953   4.425   1.979   6.711 -0.0704  0.5163  0.5529
  993MOL0     C30954   4.551   1.903   6.741  0.2352  0.1072 -0.4521
  993MOL0     C30955   4.631   1.872   6.614 -0.2025  0.5826  0.0746
  993MOL0     C30956   4.760   1.794   6.633 -0.1221  0.2547  0.6600
  993MOL0     C30957   4.873   1.886   6.683  0.3348  0.1551  0.4052
  993MOL0     C30958   5.002   1.818   6.729 -0.0717  0.8256  0.2462
  993MOL0     C30959   5.069   1.737   6.627 -0.7265  0.5561  0.5945
  993MOL0     C30960   5.162   1.818   6.541  1.0754 -0.4221 -0.3914
  993MOL0     N30961   5.099   1.894   6.437 -0.5204  1.0273 -0.7341
  993MOL0     C30962   5.000   1.859   6.357  0.1885 -0.2912 -0.3269
  993MOL0     C30963   4.999   1.964   6.270  0.1839  0.6694 -0.3058
  993MOL0     C30964   4.909   1.962   6.146 -0.1220  0.0953  0.7331
  993MOL0     C30965   4.770   2.004   6.172  0.3414  0.9230  0.0142
  993MOL0     C30966   4.667   1.896   6.227 -0.0567 -0.2142 -0.0108
  993MOL0     C30967   4.623   1.789   6.128 -0.5174  0.0195  0.0938
  993MOL0     O30968   4.522   1.857   6.045  0.5859 -0.3951  1.1107
  993MOL0     C30969   4.427   1.767   5.978 -0.0572  1.0498 -0.0833
  993MOL0     C30970   4.450   1.633   5.940  1.4239  0.5081  0.5556
  993MOL0     C30971   4.351   1.568   5.868 -0.5915  0.3250  1.2622
  993MOL0     C30972   4.238   1.629   5.820 -0.0029 -0.4303  0.1636
  993MOL0     C30973   4.146   1.558   5.728  0.6660 -0.9498 -0.1223
  993MOL0     O30974   4.170   1.425   5.698  0.1037 -1.1116  0.1263
  993MOL0     C30975   4.097   1.379   5.601  0.0177 -0.0035  0.4535
  993MOL0     C30976   4.138   1.391   5.465  0.3529  0.1130  0.1053
  993MOL0     C30977   4.056   1.351   5.359 -0.1364  0.9915 -0.4164
  993MOL0     C30978   3.929   1.296   5.377  0.5766 -1.4470 -0.6154
  993MOL0     O30979   3.852   1.245   5.280 -0.0727 -0.7177 -0.3481
  993MOL0     C30980   3.840   1.322   5.154 -0.4278 -0.5304 -0.1126
  993MOL0     C30981   3.812   1.227   5.034 -0.0907  0.5662  0.0703
  993MOL0     C30982   3.787   1.294   4.902  0.4047 -0.2972 -0.5143
  993MOL0     C30983   3.656   1.363   4.885 -0.5416  0.3746 -0.1909
  993MOL0     C30984   3.649   1.437   4.756 -0.3874 -0.7200 -0.1230
  993MOL0     C30985   3.525   1.522   4.750 -0.3638 -0.1902  0.7040
  993MOL0     C30986   3.532   1.628   4.639  0.3506  0.5510 -0.3989
  993MOL0     C30987   3.420   1.736   4.659 -0.1383  0.3455 -1.1347
  993MOL0    Cl30988   3.380   1.841   4.523  0.4483 -0.2821 -0.1810
  993MOL0     C30989   3.899   1.268   5.515  1.2042 -0.1279  0.8293
  993MOL0     C30990   3.978   1.309   5.621 -0.4779  0.2082 -0.1414
  993MOL0     O30991   4.041   1.617   5.701 -0.3372  0.1446 -0.1722
  993MOL0     C30992   4.213   1.766   5.859 -0.0165 -0.6175 -1.1156
  993MOL0     C30993   4.311   1.830   5.936  0.4711  0.3521  0.2296
  993MOL0     N30994   5.097   2.056   6.301  0.1886  0.2309  0.3060
  993MOL0     N30995   5.150   2.015   6.406 -0.2776 -0.1701 -0.5848
  993MOL0     C30996   4.128   1.954   6.752 -0.3507  0.3546  0.0940
  993MOL0     C30997   3.995   1.983   6.737  0.8248 -0.1187 -0.1472
  993MOL0     C30998   3.579   2.167   6.739 -1.1979  0.6614  0.3284
  993MOL0     C30999   3.525   2.184   6.874 -0.5207 -0.2474  0.0297
  993MOL0     C31000   3.395   2.221   6.896 -0.1385  0.1225  0.2831
  993MOL0     C31001   3.318   2.254   6.786 -1.2151 -1.1540  0.3483
  993MOL0     O31002   3.194   2.307   6.819  0.7540  0.4450  0.5347
  993MOL0     C31003   3.106   2.334   6.718  0.3038 -0.5273  0.3369
  993MOL0     C31004   3.002   2.439   6.762  0.3047  0.4963 -0.5618
  993MOL0     C31005   2.902   2.438   6.642 -0.4643  0.5988 -0.0900
  993MOL0     C31006   2.799   2.541   6.657  0.2445 -1.0049  0.2292
  993MOL0     C31007   2.706   2.527   6.769 -0.4586 -0.4269 -0.1073
  993MOL0     C31008   2.657   2.528   6.880 -0.9414  0.4186 -0.1384
  993MOL0     C31009   3.375   2.227   6.653 -0.3887  0.0888  0.3984
  993MOL0     C31010   3.505   2.185   6.629 -0.4661  0.4697  0.4255
  993MOL0     H31011   3.995   2.240   6.972  0.5980  0.7989 -0.1599
  993MOL0     H31012   4.236   2.199   6.947  0.7220  0.6947 -0.2828
  993MOL0     H31013   4.460   2.066   6.656 -1.4854 -1.4353 -3.8459
  993MOL0     H31014   4.363   1.922   6.641  1.4557  0.3432 -0.7013
  993MOL0     H31015   4.524   1.814   6.797  1.5269  1.9006  3.3946
  993MOL0     H31016   4.621   1.956   6.806 -0.2225 -1.6792  1.6179
  993MOL0     H31017   4.645   1.967   6.560 -0.7508  0.2512 -0.6684
  993MOL0     H31018   4.578   1.805   6.547  1.6361  0.4627 -1.3518
  993MOL0     H31019   4.744   1.711   6.703 -0.9076 -1.4926 -1.4455
  993MOL0     H31020   4.785   1.747   6.537  1.8591 -1.7685  2.0900
  993MOL0     H31021   4.841   1.942   6.771 -2.2184 -1.2341  0.4706
  993MOL0     H31022   4.895   1.945   6.593  0.3515 -0.7404 -0.1935
  993MOL0     H31023   4.976   1.759   6.817 -0.2434 -1.1772 -1.0689
  993MOL0     H31024   5.071   1.896   6.761 -0.2885  0.1473  2.5662
  993MOL0     H31025   5.124   1.658   6.679 -1.1079  0.7556  1.3042
  993MOL0     H31026   4.999   1.683   6.562  0.9952 -1.4385  0.2578
  993MOL0     H31027   5.230   1.744   6.496 -0.0148 -1.3759 -0.5406
  993MOL0     H31028   5.228   1.877   6.605 -1.5051  1.4916  0.6399
  993MOL0     H31029   4.932   1.775   6.359 -1.9412  1.3557  1.0325
  993MOL0     H31030   4.920   1.862   6.103 -0.4086  0.5322 -0.3744
  993MOL0     H31031   4.935   2.038   6.072 -1.7024  1.4366  1.4927
  993MOL0     H31032   4.732   2.031   6.073  1.4262  1.0515 -0.3801
  993MOL0     H31033   4.766   2.098   6.228  0.7967 -0.0786  1.8057
  993MOL0     H31034   4.715   1.853   6.315 -2.4516 -1.2811  0.8519
  993MOL0     H31035   4.579   1.950   6.263  0.2459 -0.4356  1.0841
  993MOL0     H31036   4.581   1.707   6.187 -0.4921 -0.0736 -0.0179
  993MOL0     H31037   4.708   1.755   6.069 -0.2172 -0.7668  0.9484
  993MOL0     H31038   4.539   1.581   5.975  1.4838  0.0704 -0.2370
  993MOL0     H31039   4.379   1.469   5.833 -2.9923  0.6677 -2.2154
  993MOL0     H31040   4.232   1.439   5.439 -0.6971  2.1097 -0.1558
  993MOL0     H31041   4.104   1.372   5.264  0.6823  0.7453 -0.0676
  993MOL0     H31042   3.925   1.386   5.129 -0.9692  0.7271  1.1232
  993MOL0     H31043   3.754   1.388   5.167  0.3062  1.2606 -3.3571
  993MOL0     H31044   3.740   1.146   5.052 -0.4672  0.4976 -1.5177
  993MOL0     H31045   3.909   1.183   5.011 -0.2293 -0.7530  1.8353
  993MOL0     H31046   3.782   1.218   4.823 -0.4884  0.2287 -0.9692
  993MOL0     H31047   3.868   1.365   4.881  0.4772  0.6401  2.4456
  993MOL0     H31048   3.584   1.281   4.884  0.1815 -0.2999  1.0595
  993MOL0     H31049   3.639   1.432   4.967 -2.2501 -1.4307  1.0554
  993MOL0     H31050   3.657   1.373   4.667 -0.0132 -2.0372  0.8237
  993MOL0     H31051   3.732   1.509   4.750 -0.7924  0.2087  3.1989
  993MOL0     H31052   3.512   1.571   4.847 -1.6210  3.7784 -1.2594
  993MOL0     H31053   3.443   1.451   4.737  0.7368 -1.3022 -0.4264
  993MOL0     H31054   3.634   1.669   4.633 -0.4031  2.4300 -1.2341
  993MOL0     H31055   3.521   1.581   4.540  3.5259  0.7459 -0.9454
  993MOL0     H31056   3.439   1.803   4.744  0.3247 -0.2230 -0.7876
  993MOL0     H31057   3.321   1.692   4.678  1.9000 -5.0497 -1.2802
  993MOL0     H31058   3.803   1.217   5.522  1.1172  0.1393  1.5885
  993MOL0     H31059   3.960   1.281   5.724  1.2215 -0.1634  0.0862
  993MOL0     H31060   4.120   1.815   5.832 -0.9217 -1.7794 -0.2235
  993MOL0     H31061   4.299   1.926   5.986 -0.5790  0.8907 -1.0000
  993MOL0     H31062   4.158   1.864   6.700 -2.6576 -0.4449  0.0152
  993MOL0     H31063   3.937   1.915   6.675  1.4043  0.2117 -1.0670
  993MOL0     H31064   3.582   2.152   6.961 -0.7275 -0.3845  0.1148
  993MOL0     H31065   3.364   2.239   6.999 -1.2130 -1.8314  0.3499
  993MOL0     H31066   3.068   2.240   6.676  1.7800  0.2725 -3.1860
  993MOL0     H31067   3.150   2.372   6.625 -0.5779  0.6202  0.3545
  993MOL0     H31068   2.946   2.403   6.849 -0.0523  0.8817 -0.6292
  993MOL0     H31069   3.044   2.539   6.779 -0.1272  0.3462  1.7216
  993MOL0     H31070   2.848   2.343   6.639  0.7329 -0.1318  0.6339
  993MOL0     H31071   2.944   2.457   6.543 -0.9206  1.8165 -0.0702
  993MOL0     H31072   2.842   2.641   6.650  2.3494 -1.8938 -0.6907
  993MOL0     H31073   2.742   2.540   6.564 -1.3734  2.1361  1.0549
  993MOL0     H31074   2.606   2.511   6.973 -4.4427  2.2863 -1.5093
  993MOL0     H31075   3.308   2.255   6.572  1.2784  1.8114 -0.4670
  993MOL0     H31076   3.535   2.155   6.529 -1.5310  2.2190 -0.4718
  994MOL0     O31077   7.462   0.789   4.034 -0.2967  0.5365  0.2256
  994MOL0     C31078   7.430   0.840   3.925 -0.4578  0.2927 -0.5823
  994MOL0     O31079   7.500   0.834   3.815  0.9182 -0.0333  0.3492
  994MOL0     C31080   7.626   0.780   3.807 -0.2957 -0.2886 -0.1454
  994MOL0     C31081   7.727   0.785   3.909 -0.0274  1.2308 -0.0221
  994MOL0     C31082   7.857   0.748   3.892 -0.1579  0.3627 -0.2815
  994MOL0     C31083   7.900   0.718   3.760  0.0119 -0.2560  0.0573
  994MOL0     O31084   8.028   0.687   3.743 -0.3169  0.0730 -0.1881
  994MOL0     C31085   8.060   0.566   3.668  0.7555 -0.1600 -0.9396
  994MOL0     C31086   8.201   0.519   3.693  0.2519  0.0023 -0.9100
  994MOL0     C31087   8.221   0.491   3.844 -0.0003 -1.4991  1.1021
  994MOL0     C31088   8.347   0.396   3.860  0.1681  0.1251 -0.6008
  994MOL0     C31089   8.365   0.343   4.009 -0.1968 -0.8362 -0.1918
  994MOL0     C31090   8.512   0.310   4.049 -0.3543  0.6886  1.1497
  994MOL0     C31091   8.556   0.175   3.983  0.5709  0.3555  0.4155
  994MOL0     C31092   8.694   0.136   4.028  0.4458  0.4491 -0.1986
  994MOL0     N31093   8.797   0.202   3.950 -0.5422 -0.0868 -1.0168
  994MOL0     C31094   8.882   0.135   3.868  1.3144  0.1114 -0.3973
  994MOL0     C31095   8.975   0.219   3.827 -0.4117  0.0540  0.3805
  994MOL0     C31096   9.087   0.189   3.728  0.3819 -0.0145 -0.2457
  994MOL0     C31097   9.131   0.039   3.717 -0.1999 -0.5482 -0.3357
  994MOL0     C31098   9.217  -0.007   3.600 -0.6839  0.0233  0.8120
  994MOL0     C31099   9.149  -0.005   3.454  0.0922  0.4949  0.1509
  994MOL0     O31100   9.062  -0.126   3.445 -0.2931 -0.0987  0.0438
  994MOL0     C31101   8.948  -0.116   3.380  0.7350  0.0867 -0.9187
  994MOL0     C31102   8.914   0.000   3.299  0.5900  0.2940  0.3455
  994MOL0     C31103   8.790   0.013   3.242  0.0019 -0.8798 -0.0951
  994MOL0     C31104   8.693  -0.085   3.273  0.1430 -0.2844 -0.0700
  994MOL0     C31105   8.564  -0.084   3.197  0.2065 -0.6208 -0.3642
  994MOL0     O31106   8.479  -0.196   3.193  0.3268 -0.4312  0.2779
  994MOL0     C31107   8.364  -0.182   3.119  0.1938 -0.7824 -0.1989
  994MOL0     C31108   8.346  -0.273   3.014  0.0751 -0.1159 -0.1572
  994MOL0     C31109   8.220  -0.273   2.951 -0.4813 -0.6601  0.0102
  994MOL0     C31110   8.120  -0.191   2.982  0.3237 -0.4110 -0.1776
  994MOL0     O31111   8.005  -0.200   2.904 -0.4426 -0.7792  0.7316
  994MOL0     C31112   7.892  -0.108   2.901 -0.0851  1.0439 -0.6119
  994MOL0     C31113   7.794  -0.174   2.803  0.9031 -0.5928  1.0085
  994MOL0     C31114   7.657  -0.120   2.812 -0.3164  0.0776  0.0468
  994MOL0     C31115   7.646   0.022   2.766 -0.0731 -0.2947  0.6899
  994MOL0     C31116   7.522   0.090   2.824 -0.4187  0.4286  0.2806
  994MOL0     C31117   7.399  -0.006   2.814  0.9555  0.0697 -0.3745
  994MOL0     C31118   7.278   0.088   2.841  0.1337 -0.8761  0.2202
  994MOL0     C31119   7.156  -0.006   2.833 -0.4922  0.0083 -0.4112
  994MOL0    Cl31120   7.140  -0.092   2.993 -0.7018 -0.4006 -0.4282
  994MOL0     C31121   8.132  -0.107   3.084  0.1383  0.2990 -0.0575
  994MOL0     C31122   8.261  -0.090   3.147  0.3467  0.3780  0.2363
  994MOL0     O31123   8.543   0.025   3.138  1.8189 -0.2751  0.3030
  994MOL0     C31124   8.728  -0.200   3.340 -0.3111 -0.0331 -0.5661
  994MOL0     C31125   8.857  -0.216   3.393  0.5697 -1.0100 -0.5520
  994MOL0     N31126   8.949   0.345   3.889  0.2497 -0.0545  0.1852
  994MOL0     N31127   8.840   0.330   3.954  0.4739  0.2897  0.1567
  994MOL0     C31128   7.810   0.731   3.654 -0.4833  1.0282  1.3218
  994MOL0     C31129   7.676   0.754   3.683  0.3997 -0.6260 -0.5646
  994MOL0     C31130   7.294   0.901   3.923  1.0414 -0.0717 -0.1476
  994MOL0     C31131   7.223   0.935   3.808  0.3601  0.4742  0.1783
  994MOL0     C31132   7.114   1.020   3.814 -0.7310 -0.4045 -0.1084
  994MOL0     C31133   7.059   1.069   3.939 -0.6625 -0.1859 -0.5837
  994MOL0     O31134   6.952   1.150   3.937  0.1258  0.4543  0.4503
  994MOL0     C31135   6.965   1.280   3.877  0.1580 -0.1846  0.7145
  994MOL0     C31136   6.861   1.382   3.922 -0.4013 -0.5627 -0.4614
  994MOL0     C31137   6.723   1.331   3.964 -0.8714 -0.6002  0.3936
  994MOL0     C31138   6.652   1.252   3.848  1.0204  0.5404 -0.2348
  994MOL0     C31139   6.573   1.338   3.764  0.0887  0.7811  0.2798
  994MOL0     C31140   6.518   1.425   3.704  0.7861  0.9795  0.5504
  994MOL0     C31141   7.132   1.028   4.046  0.8282 -0.5254 -0.6568
  994MOL0     C31142   7.244   0.951   4.041  0.5557 -0.4845 -1.0992
  994MOL0     H31143   7.696   0.809   4.010 -1.7501 -1.2956  0.1477
  994MOL0     H31144   7.923   0.725   3.976 -1.5530 -1.5812  0.3517
  994MOL0     H31145   8.047   0.579   3.560 -2.6970  1.5735 -0.4580
  994MOL0     H31146   7.990   0.487   3.698 -1.4527  1.9592 -0.1496
  994MOL0     H31147   8.282   0.590   3.675  1.9180 -0.0272  4.5800
  994MOL0     H31148   8.222   0.433   3.629 -0.1358 -0.8406  0.0589
  994MOL0     H31149   8.136   0.440   3.889 -0.0722 -1.6619  0.7887
  994MOL0     H31150   8.245   0.588   3.888  2.7613 -0.6741 -1.7589
  994MOL0     H31151   8.340   0.303   3.804 -2.9378  0.1192 -0.3930
  994MOL0     H31152   8.442   0.430   3.819 -0.1119 -0.1529 -1.4858
  994MOL0     H31153   8.295   0.259   4.019 -0.2068 -1.0026 -1.5471
  994MOL0     H31154   8.326   0.416   4.081  1.5079 -0.7196  0.6674
  994MOL0     H31155   8.516   0.317   4.158 -0.7230 -1.8591  1.3858
  994MOL0     H31156   8.574   0.391   4.010  2.2863 -1.3001  0.9461
  994MOL0     H31157   8.490   0.092   4.009 -0.5753  0.1969 -2.5845
  994MOL0     H31158   8.552   0.200   3.877  1.7356  0.2048  0.3281
  994MOL0     H31159   8.695   0.027   4.020 -0.8501  0.2546  1.5166
  994MOL0     H31160   8.715   0.167   4.131  3.9099  2.6356 -1.3720
  994MOL0     H31161   8.865   0.031   3.844 -0.0993  0.2047  0.1271
  994MOL0     H31162   9.178   0.246   3.748 -0.2557  1.0879 -0.4505
  994MOL0     H31163   9.052   0.221   3.630  3.7231  1.0427 -1.2096
  994MOL0     H31164   9.042  -0.024   3.719 -1.1914  0.7961 -1.0501
  994MOL0     H31165   9.175   0.007   3.813 -1.1033 -2.3383 -0.4695
  994MOL0     H31166   9.307   0.055   3.596  0.1475 -1.2165 -1.4101
  994MOL0     H31167   9.275  -0.098   3.617  1.3624  1.5073  2.4119
  994MOL0     H31168   9.232  -0.016   3.384 -0.8133 -0.4873 -0.8232
  994MOL0     H31169   9.098   0.091   3.441 -1.9191 -0.7665 -2.4650
  994MOL0     H31170   8.984   0.080   3.275 -0.3095  0.8881 -0.3140
  994MOL0     H31171   8.781   0.102   3.181 -1.6275 -1.1285 -0.2473
  994MOL0     H31172   8.421  -0.346   2.986  1.7050  2.0350 -1.6819
  994MOL0     H31173   8.225  -0.324   2.855  2.1833  1.2076 -0.9478
  994MOL0     H31174   7.921  -0.010   2.862 -0.8580  1.4953 -0.0804
  994MOL0     H31175   7.850  -0.094   3.001 -0.9783  2.3551 -1.1510
  994MOL0     H31176   7.790  -0.281   2.825 -0.7648 -0.7628  0.0521
  994MOL0     H31177   7.836  -0.158   2.703 -1.2460  0.2237  0.1869
  994MOL0     H31178   7.625  -0.129   2.916 -3.9761  1.4031 -0.8089
  994MOL0     H31179   7.589  -0.183   2.754 -3.2325  1.3286  1.8300
  994MOL0     H31180   7.736   0.084   2.765  0.0085 -0.3672 -1.2406
  994MOL0     H31181   7.626   0.018   2.658 -0.3858  3.3706  0.4899
  994MOL0     H31182   7.504   0.179   2.764  0.4603  0.1067 -0.4801
  994MOL0     H31183   7.541   0.131   2.924  0.1711 -0.3629  0.5051
  994MOL0     H31184   7.412  -0.080   2.893  2.6240  0.7653  0.0254
  994MOL0     H31185   7.392  -0.057   2.717 -1.2190  1.1353 -0.8598
  994MOL0     H31186   7.286   0.146   2.934 -0.5244  4.5576 -2.6759
  994MOL0     H31187   7.271   0.165   2.764 -5.4781 -1.0185  0.1707
  994MOL0     H31188   7.164  -0.072   2.747 -1.0395 -3.0954  1.7426
  994MOL0     H31189   7.066   0.053   2.817 -0.5461 -0.7724 -3.4569
  994MOL0     H31190   8.050  -0.048   3.125  0.6184  0.1962  1.0845
  994MOL0     H31191   8.273  -0.024   3.232 -1.5830  1.2166 -0.1046
  994MOL0     H31192   8.651  -0.273   3.362 -2.8031  2.1588 -1.4442
  994MOL0     H31193   8.877  -0.293   3.466 -1.7990 -0.1753  1.1318
  994MOL0     H31194   7.853   0.717   3.555  0.6049  1.6670  1.6875
  994MOL0     H31195   7.602   0.767   3.605 -1.0496  2.9699  1.1914
  994MOL0     H31196   7.245   0.882   3.716 -0.4683 -0.7723  0.6775
  994MOL0     H31197   7.079   1.040   3.713  2.8040 -2.1940 -1.8993
  994MOL0     H31198   6.960   1.268   3.768 -3.8375  2.1565  0.3964
  994MOL0     H31199   7.058   1.331   3.903  0.6792 -0.4783 -0.5269
  994MOL0     H31200   6.904   1.431   4.010 -0.6066  0.0513 -0.7007
  994MOL0     H31201   6.859   1.460   3.846 -1.2758  4.4442  4.0602
  994MOL0     H31202   6.666   1.421   3.988 -2.1763 -1.7026  1.6937
  994MOL0     H31203   6.722   1.263   4.050 -1.4644 -2.5813 -1.1064
  994MOL0     H31204   6.726   1.200   3.787  0.5650 -0.0093 -0.3241
  994MOL0     H31205   6.590   1.174   3.894  3.8339 -2.3589 -1.0036
  994MOL0     H31206   6.450   1.502   3.672 -1.1244 -0.4303  1.0678
  994MOL0     H31207   7.098   1.070   4.140  1.5011 -0.8455 -0.2608
  994MOL0     H31208   7.294   0.937   4.137  0.6248 -1.0740 -1.2193
  995MOL0     O31209   3.466   6.159   9.616 -0.2984  0.3104  0.1632
  995MOL0     C31210   3.404   6.204   9.714  0.4545 -0.1255  1.5671
  995MOL0     O31211   3.273   6.163   9.736  0.0935 -0.5523  0.1013
  995MOL0     C31212   3.201   6.074   9.653 -0.2046 -1.3810 -0.0547
  995MOL0     C31213   3.242   5.950   9.598  0.4107  0.1246  0.5005
  995MOL0     C31214   3.151   5.875   9.522  0.9793  0.1527 -0.2270
  995MOL0     C31215   3.022   5.928   9.490  0.0608  0.6357 -0.8690
  995MOL0     O31216   2.940   5.851   9.412 -0.8249 -0.4389 -0.1983
  995MOL0     C31217   2.813   5.820   9.478  0.1101  0.3967 -0.2266
  995MOL0     C31218   2.805   5.697   9.570 -0.2224  0.1748  1.2314
  995MOL0     C31219   2.806   5.568   9.488  0.5348 -0.0424  0.6707
  995MOL0     C31220   2.725   5.454   9.557 -0.1455  0.2238 -0.2276
  995MOL0     C31221   2.566   5.462   9.553  0.4000  1.0037 -0.1148
  995MOL0     C31222   2.496   5.597   9.594  0.3346  0.3513  0.9675
  995MOL0     C31223   2.350   5.577   9.576  0.0851  0.3108  0.1560
  995MOL0     C31224   2.276   5.655   9.460 -0.4208 -0.2761 -0.4990
  995MOL0     N31225   2.137   5.618   9.465  0.0495  0.5308 -0.4321
  995MOL0     C31226   2.079   5.497   9.428 -0.5133  0.4358  0.4955
  995MOL0     C31227   1.945   5.514   9.459  0.2687 -1.0814  0.9973
  995MOL0     C31228   1.842   5.401   9.453 -0.1934  0.4474  0.9101
  995MOL0     C31229   1.723   5.416   9.549 -0.1821 -1.3312 -0.0311
  995MOL0     C31230   1.626   5.292   9.531 -0.3624  0.3628  0.0404
  995MOL0     C31231   1.525   5.308   9.415 -1.0630  0.5511  0.1878
  995MOL0     O31232   1.423   5.408   9.419 -0.9911  0.0502 -0.6231
  995MOL0     C31233   1.339   5.405   9.522 -0.7487  0.4238 -0.3599
  995MOL0     C31234   1.304   5.282   9.593 -0.5978  0.1423 -0.3982
  995MOL0     C31235   1.214   5.283   9.699 -0.2360  0.4309  1.2692
  995MOL0     C31236   1.156   5.400   9.739  0.1164 -0.1021 -0.4882
  995MOL0     C31237   1.055   5.389   9.857 -0.2950 -0.6440  0.3658
  995MOL0     O31238   0.983   5.274   9.869  0.2524 -0.0434  0.1937
  995MOL0     C31239   0.876   5.286   9.952  0.1119  0.6256 -0.4508
  995MOL0     C31240   0.777   5.384   9.937  0.0518  0.3297 -0.3173
  995MOL0     C31241   0.657   5.367  10.016  0.2055  0.0282  0.6697
  995MOL0     C31242   0.641   5.265  10.110 -0.4686  0.4472  0.1631
  995MOL0     O31243   0.527   5.258  10.182  0.2878  0.5829  0.8289
  995MOL0     C31244   0.480   5.380  10.248 -0.3638 -0.7029  0.0017
  995MOL0     C31245   0.337   5.364  10.293  0.1231  0.2626 -0.2141
  995MOL0     C31246   0.235   5.378  10.183 -0.3444  0.3137 -0.4004
  995MOL0     C31247   0.212   5.528  10.161 -0.3634 -0.4099 -0.5111
  995MOL0     C31248   0.124   5.545  10.032  1.1633 -0.6478  0.4024
  995MOL0     C31249   0.072   5.693  10.013 -0.3536  0.7494 -0.4918
  995MOL0     C31250  -0.015   5.708   9.895  0.9778 -0.5144  0.0955
  995MOL0     C31251  -0.062   5.857   9.855  0.4751  0.4931  0.1467
  995MOL0    Cl31252  -0.099   5.941   9.998  0.1097  0.0377  0.0721
  995MOL0     C31253   0.748   5.177  10.135  0.1444  0.2261 -0.6890
  995MOL0     C31254   0.858   5.185  10.047 -0.1237 -0.1782 -0.0596
  995MOL0     O31255   1.058   5.489   9.939 -0.6132  0.3912  0.2814
  995MOL0     C31256   1.197   5.523   9.682 -0.2872  0.1012 -0.0412
  995MOL0     C31257   1.286   5.524   9.574  0.3490  0.0425  0.0269
  995MOL0     N31258   1.915   5.649   9.494  0.3497  0.1375  0.2122
  995MOL0     N31259   2.038   5.702   9.503  0.1502 -0.3178  0.2205
  995MOL0     C31260   2.988   6.051   9.545  0.2329  1.0068  0.8299
  995MOL0     C31261   3.076   6.122   9.628 -0.7168  0.3390  0.2720
  995MOL0     C31262   3.473   6.296   9.808  0.8278 -0.2679  0.7670
  995MOL0     C31263   3.401   6.379   9.889  0.3836  0.4791  0.2774
  995MOL0     C31264   3.456   6.479   9.966  0.4795 -0.2099 -0.0833
  995MOL0     C31265   3.591   6.517   9.958  0.7002  0.0522  0.3577
  995MOL0     O31266   3.640   6.632  10.023  0.7806 -0.8957 -0.3411
  995MOL0     C31267   3.749   6.704   9.963  0.4431  0.1773 -0.2005
  995MOL0     C31268   3.713   6.760   9.822  0.5686  0.2208 -0.2678
  995MOL0     C31269   3.831   6.827   9.744 -0.4719  0.0694 -0.3466
  995MOL0     C31270   3.801   6.910   9.615 -0.0552 -0.2747 -0.4097
  995MOL0     C31271   3.834   7.060   9.646 -0.1644  0.6005  0.0859
  995MOL0     C31272   3.847   7.180   9.654  0.6466  0.6160 -0.3302
  995MOL0     C31273   3.669   6.431   9.864  1.1020  0.1311 -0.7860
  995MOL0     C31274   3.613   6.323   9.803  0.1911  0.1739 -0.2988
  995MOL0     H31275   3.343   5.911   9.605  0.5767  0.6759  1.2768
  995MOL0     H31276   3.178   5.780   9.476  1.9661  0.8320 -1.0959
  995MOL0     H31277   2.743   5.797   9.397  1.6939 -0.4540 -1.3955
  995MOL0     H31278   2.779   5.905   9.539 -2.4119 -0.9451  0.3715
  995MOL0     H31279   2.714   5.691   9.631 -1.1131 -0.0085 -0.0808
  995MOL0     H31280   2.892   5.684   9.635 -0.1906 -0.2895  1.0988
  995MOL0     H31281   2.909   5.539   9.465  1.1854  1.4430  1.5607
  995MOL0     H31282   2.763   5.590   9.390  2.0624  0.0408 -0.0052
  995MOL0     H31283   2.766   5.362   9.514  0.9864  2.3269 -4.1546
  995MOL0     H31284   2.761   5.440   9.659 -2.8679 -0.8641  0.6820
  995MOL0     H31285   2.533   5.373   9.608  2.2882 -0.5878 -1.4010
  995MOL0     H31286   2.540   5.455   9.447  1.2485  0.5248 -0.3017
  995MOL0     H31287   2.528   5.674   9.524  0.2545 -0.6711 -0.2401
  995MOL0     H31288   2.522   5.625   9.697 -2.4581 -1.3733  2.2847
  995MOL0     H31289   2.331   5.469   9.569  2.4314 -0.2497  1.2354
  995MOL0     H31290   2.312   5.606   9.674  0.2304  1.0076  0.0106
  995MOL0     H31291   2.323   5.615   9.370 -0.1201 -2.1913  0.4416
  995MOL0     H31292   2.290   5.762   9.473  0.5696 -0.5559  1.0318
  995MOL0     H31293   2.130   5.409   9.390  1.4204  0.6102  2.4260
  995MOL0     H31294   1.900   5.309   9.465  2.7770  2.2437  1.5049
  995MOL0     H31295   1.801   5.390   9.353  1.0754 -2.1038  0.5877
  995MOL0     H31296   1.665   5.507   9.530  0.2794 -0.8029  1.0550
  995MOL0     H31297   1.755   5.403   9.653 -2.8212  1.0033  1.1976
  995MOL0     H31298   1.698   5.211   9.514 -0.6979  0.3612 -1.5330
  995MOL0     H31299   1.588   5.277   9.633  0.0748 -0.6622  0.0619
  995MOL0     H31300   1.472   5.212   9.410 -0.2305  0.1064 -0.4979
  995MOL0     H31301   1.585   5.320   9.324  0.1856 -0.3350  0.8491
  995MOL0     H31302   1.337   5.183   9.563 -0.3238 -0.5347  1.9352
  995MOL0     H31303   1.183   5.188   9.743 -0.3614 -1.0442 -1.7599
  995MOL0     H31304   0.771   5.456   9.856 -2.9060 -0.3225 -0.7864
  995MOL0     H31305   0.566   5.423   9.999  0.9647  1.2014  0.3102
  995MOL0     H31306   0.490   5.471  10.188 -1.4159 -0.8006 -0.3428
  995MOL0     H31307   0.543   5.401  10.335 -1.2089 -1.8798  0.9342
  995MOL0     H31308   0.318   5.442  10.367 -1.7607 -1.4836  1.2906
  995MOL0     H31309   0.327   5.264  10.338  0.4667  0.3437  0.0487
  995MOL0     H31310   0.138   5.331  10.202 -0.4531  0.5671 -0.3199
  995MOL0     H31311   0.274   5.336  10.090 -0.1607 -0.4971  0.0339
  995MOL0     H31312   0.162   5.579  10.244  1.7416 -0.5935  0.9405
  995MOL0     H31313   0.305   5.585  10.152 -1.1219  1.6709  2.8821
  995MOL0     H31314   0.038   5.478  10.036 -0.3139  1.0290 -1.0831
  995MOL0     H31315   0.172   5.512   9.939 -0.2243 -0.1905 -0.5194
  995MOL0     H31316   0.158   5.760  10.002  0.8220 -0.6410 -0.1812
  995MOL0     H31317   0.016   5.724  10.101 -1.4423 -0.0879 -0.8754
  995MOL0     H31318   0.020   5.664   9.801 -0.3924  0.3969 -0.8780
  995MOL0     H31319  -0.112   5.670   9.927  0.1532  2.4878  1.4789
  995MOL0     H31320  -0.151   5.843   9.792  2.3115 -3.8138 -1.9150
  995MOL0     H31321   0.017   5.905   9.798  0.4455  0.0443 -0.2782
  995MOL0     H31322   0.716   5.097  10.200  1.0027 -0.1933 -0.7679
  995MOL0     H31323   0.923   5.098  10.046  0.2431  0.0554  1.2484
  995MOL0     H31324   1.153   5.617   9.717  0.8306  1.9375 -3.1745
  995MOL0     H31325   1.315   5.621   9.534 -2.9321  0.7204 -0.9998
  995MOL0     H31326   2.897   6.099   9.509 -0.6756 -1.1194  0.0888
  995MOL0     H31327   3.040   6.219   9.664  1.2516  0.3235  2.5390
  995MOL0     H31328   3.293   6.375   9.900  0.5114  0.3484  1.7323
  995MOL0     H31329   3.390   6.537  10.030  0.0686  0.1940 -0.8552
  995MOL0     H31330   3.836   6.638   9.958  1.5085  1.6143 -1.4287
  995MOL0     H31331   3.773   6.789  10.027  1.3421 -0.6263  0.5574
  995MOL0     H31332   3.676   6.684   9.752 -0.3314 -0.0699  0.5076
  995MOL0     H31333   3.641   6.842   9.819 -1.6340 -1.5756 -4.4424
  995MOL0     H31334   3.910   6.759   9.711  1.1039  1.2180  0.8492
  995MOL0     H31335   3.888   6.889   9.814  2.4308 -3.6331  0.8929
  995MOL0     H31336   3.868   6.873   9.536 -0.0918 -2.4007  0.4819
  995MOL0     H31337   3.706   6.898   9.562 -0.1724 -0.7902 -0.0896
  995MOL0     H31338   3.827   7.284   9.674  0.4927  0.8078 -1.4452
  995MOL0     H31339   3.774   6.456   9.852  0.4977  2.7154 -1.3175
  995MOL0     H31340   3.673   6.265   9.734  2.2711 -1.3226  2.5926
  996MOL0     O31341  10.680   1.479   5.528  0.0218  0.1995  0.6713
  996MOL0     C31342  10.732   1.573   5.478 -0.2471 -0.1114 -0.5019
  996MOL0     O31343  10.669   1.692   5.461  0.2770  0.2544 -0.8108
  996MOL0     C31344  10.538   1.703   5.494  0.1409 -0.0539  0.0098
  996MOL0     C31345  10.449   1.718   5.391  0.2612 -0.3313 -0.1599
  996MOL0     C31346  10.311   1.733   5.418  0.8246 -0.8448 -0.2168
  996MOL0     C31347  10.271   1.732   5.556  0.6427 -0.1712  0.0922
  996MOL0     O31348  10.135   1.750   5.575  0.1121  0.1577  0.2154
  996MOL0     C31349  10.076   1.747   5.709 -1.4345 -0.4917  0.0095
  996MOL0     C31350   9.930   1.718   5.711  0.2194  0.1848  0.0211
  996MOL0     C31351   9.869   1.687   5.849 -0.7562 -0.6441 -0.6563
  996MOL0     C31352   9.712   1.716   5.850  0.5935 -0.4049 -0.0356
  996MOL0     C31353   9.665   1.718   5.994 -0.4182 -0.8306  0.0180
  996MOL0     C31354   9.652   1.579   6.046  0.7386 -0.0226 -0.1358
  996MOL0     C31355   9.535   1.552   6.132  0.4229  0.5182 -0.7970
  996MOL0     C31356   9.416   1.525   6.052 -0.9040  1.0011 -0.4836
  996MOL0     N31357   9.310   1.462   6.123  0.3523  0.1603  0.2075
  996MOL0     C31358   9.200   1.519   6.183 -0.0186 -0.5275  0.8102
  996MOL0     C31359   9.112   1.418   6.198  0.2491  0.1302  0.5867
  996MOL0     C31360   8.969   1.433   6.244  0.5487 -0.2786  0.2317
  996MOL0     C31361   8.891   1.300   6.264 -0.3539  0.1006 -0.1803
  996MOL0     C31362   8.848   1.223   6.139 -0.6250 -0.2016  0.8555
  996MOL0     C31363   8.750   1.108   6.155  0.6168  0.3393 -0.5061
  996MOL0     O31364   8.690   1.063   6.027 -0.6524 -0.2072 -0.1470
  996MOL0     C31365   8.588   0.971   6.031 -0.2918  0.2153 -0.3190
  996MOL0     C31366   8.538   0.919   6.145 -0.2402  0.1014 -0.1414
  996MOL0     C31367   8.429   0.826   6.136  0.5225 -0.1540 -0.0050
  996MOL0     C31368   8.361   0.794   6.018 -0.3227  0.2355 -0.0634
  996MOL0     C31369   8.227   0.720   6.022 -1.6288 -0.9972 -0.5647
  996MOL0     O31370   8.172   0.689   5.900 -0.0840 -0.5887 -0.2927
  996MOL0     C31371   8.066   0.606   5.891 -0.5476 -1.0092 -0.5751
  996MOL0     C31372   8.083   0.475   5.844 -0.1572  0.1708  0.5021
  996MOL0     C31373   7.971   0.392   5.838 -1.1630 -0.3108  0.2655
  996MOL0     C31374   7.840   0.429   5.873 -0.2657  0.0700 -0.3205
  996MOL0     O31375   7.735   0.341   5.898  0.2487 -0.3941  0.0190
  996MOL0     C31376   7.748   0.213   5.828  0.1405  0.0629 -0.0974
  996MOL0     C31377   7.595   0.150   5.810 -0.1339  0.6033  0.3646
  996MOL0     C31378   7.591   0.019   5.731  0.2733  0.5330  0.0582
  996MOL0     C31379   7.443  -0.039   5.731 -1.0127  0.2498  0.8122
  996MOL0     C31380   7.449  -0.187   5.681  0.3743  0.4596 -0.0549
  996MOL0     C31381   7.513  -0.214   5.547 -0.3341 -0.1156  0.1202
  996MOL0     C31382   7.400  -0.222   5.451 -0.1707 -0.0030  0.3932
  996MOL0     C31383   7.453  -0.282   5.305 -0.3000  0.8335 -0.4350
  996MOL0    Cl31384   7.597  -0.197   5.230 -0.0386 -0.0294  0.2058
  996MOL0     C31385   7.819   0.562   5.909 -0.1838  0.7626 -0.6417
  996MOL0     C31386   7.934   0.645   5.912 -0.1507 -0.1265  0.7176
  996MOL0     O31387   8.189   0.694   6.137  0.1065 -0.3225 -0.4183
  996MOL0     C31388   8.416   0.847   5.892  0.8046  0.4092  0.0757
  996MOL0     C31389   8.531   0.932   5.907  0.4461  0.1402  0.8176
  996MOL0     N31390   9.159   1.299   6.144  0.4338 -0.1020 -0.6576
  996MOL0     N31391   9.281   1.331   6.093  0.0965  0.4655  0.4019
  996MOL0     C31392  10.357   1.697   5.649  0.5625 -0.3040  0.4370
  996MOL0     C31393  10.495   1.688   5.626  0.9257 -0.0372  0.2072
  996MOL0     C31394  10.857   1.551   5.419 -0.0424  0.2844  0.2754
  996MOL0     C31395  10.939   1.440   5.453 -0.5088 -1.0759 -0.1068
  996MOL0     C31396  11.063   1.416   5.392 -0.1142 -0.6462 -0.7546
  996MOL0     C31397  11.116   1.505   5.300 -1.0456 -0.6091  0.3980
  996MOL0     O31398  11.238   1.477   5.241 -0.2799 -0.6353  0.6339
  996MOL0     C31399  11.315   1.364   5.274 -0.6695 -0.0870 -0.5778
  996MOL0     C31400  11.466   1.419   5.274  0.6082  0.0741  0.4659
  996MOL0     C31401  11.510   1.472   5.140  0.8111  1.0631  0.3175
  996MOL0     C31402  11.652   1.528   5.131  0.5507  0.4604  0.1846
  996MOL0     C31403  11.741   1.422   5.169  0.6687  0.2361  1.2584
  996MOL0     C31404  11.802   1.325   5.198 -0.3122 -0.0784 -0.1259
  996MOL0     C31405  11.041   1.616   5.264 -0.7295 -0.0549 -0.1708
  996MOL0     C31406  10.914   1.635   5.317 -0.1073 -0.2095  0.0011
  996MOL0     H31407  10.482   1.718   5.287  2.4879  1.6199  0.4504
  996MOL0     H31408  10.242   1.750   5.335 -4.5845 -2.3387  3.4589
  996MOL0     H31409  10.095   1.840   5.763 -4.9207 -0.5047  1.5442
  996MOL0     H31410  10.117   1.660   5.762 -0.5319 -1.4688 -2.1618
  996MOL0     H31411   9.908   1.632   5.647  1.3519  0.8880 -1.3533
  996MOL0     H31412   9.883   1.800   5.656  1.1410  0.8154  0.1665
  996MOL0     H31413   9.910   1.759   5.921 -2.1179 -2.1247  1.7301
  996MOL0     H31414   9.891   1.585   5.880  1.7243  0.1979  0.6550
  996MOL0     H31415   9.692   1.817   5.813 -0.9001  0.8925  3.7978
  996MOL0     H31416   9.662   1.639   5.790  1.3412  0.7552 -2.2549
  996MOL0     H31417   9.568   1.767   5.997  0.7886  1.6742  0.4986
  996MOL0     H31418   9.735   1.779   6.051  1.3982 -1.0843 -1.8263
  996MOL0     H31419   9.742   1.555   6.105  2.1015  4.8158  0.2419
  996MOL0     H31420   9.648   1.509   5.962  1.9005 -0.1894 -0.0739
  996MOL0     H31421   9.556   1.466   6.196 -0.8805 -0.0832 -1.1554
  996MOL0     H31422   9.510   1.633   6.200 -3.3662 -3.2367  2.9021
  996MOL0     H31423   9.438   1.460   5.967 -2.7600 -0.1806 -0.1237
  996MOL0     H31424   9.383   1.616   6.002 -0.5587  2.8829  2.4342
  996MOL0     H31425   9.196   1.626   6.205 -0.0945 -0.3076 -0.2174
  996MOL0     H31426   8.918   1.500   6.174  5.1503  2.3296 -1.0319
  996MOL0     H31427   8.976   1.477   6.343  0.6775 -2.1658  1.1000
  996MOL0     H31428   8.795   1.327   6.310 -0.6484  0.5337 -1.0277
  996MOL0     H31429   8.947   1.238   6.334 -1.6936  0.9605  1.7198
  996MOL0     H31430   8.800   1.294   6.071  0.9350 -0.2443 -0.3315
  996MOL0     H31431   8.942   1.189   6.096 -0.7808  0.6244 -0.1643
  996MOL0     H31432   8.663   1.145   6.210 -0.1345 -0.4094 -1.1454
  996MOL0     H31433   8.799   1.019   6.196  4.2208  2.2870 -0.2394
  996MOL0     H31434   8.583   0.937   6.241  0.0470  0.7818 -0.3969
  996MOL0     H31435   8.406   0.778   6.230  0.4611  0.0829  0.1012
  996MOL0     H31436   8.183   0.438   5.821 -1.1915 -2.0885 -0.7159
  996MOL0     H31437   7.990   0.287   5.817 -3.0195 -0.6627  0.2574
  996MOL0     H31438   7.799   0.140   5.892  0.0778  0.2743  0.1966
  996MOL0     H31439   7.799   0.223   5.732  0.9879  1.2640  0.4609
  996MOL0     H31440   7.528   0.223   5.764  1.2798  1.6046 -0.1545
  996MOL0     H31441   7.559   0.135   5.912  1.8448  3.4386  1.5956
  996MOL0     H31442   7.656  -0.054   5.779 -1.5604 -0.7074  0.7311
  996MOL0     H31443   7.616   0.036   5.626 -1.2999 -2.2270 -0.8543
  996MOL0     H31444   7.408  -0.032   5.834 -2.7293 -3.8293  0.6931
  996MOL0     H31445   7.375   0.016   5.665  0.1538 -0.7958 -1.3670
  996MOL0     H31446   7.348  -0.228   5.690  1.0723 -1.4719 -0.4296
  996MOL0     H31447   7.507  -0.241   5.757  0.5536  1.3688  0.4757
  996MOL0     H31448   7.558  -0.314   5.548  0.1534  0.0820 -0.8989
  996MOL0     H31449   7.594  -0.145   5.524 -0.2816 -0.8842 -2.2765
  996MOL0     H31450   7.314  -0.285   5.475 -1.7967  0.5779 -3.1981
  996MOL0     H31451   7.365  -0.119   5.441  0.7298  0.9136  4.7380
  996MOL0     H31452   7.372  -0.275   5.232 -0.8807 -2.7610 -0.3144
  996MOL0     H31453   7.464  -0.390   5.308 -0.2506  0.7431 -2.6752
  996MOL0     H31454   7.723   0.601   5.942  0.5570  2.0933  0.0216
  996MOL0     H31455   7.921   0.745   5.951  0.3659  0.4735 -0.5868
  996MOL0     H31456   8.372   0.827   5.795 -0.7968  1.7968  0.4628
  996MOL0     H31457   8.581   0.983   5.825 -0.1989  0.2404  0.4824
  996MOL0     H31458  10.329   1.720   5.751  3.1583  0.3588  1.0854
  996MOL0     H31459  10.562   1.679   5.711  1.2560  2.9222  0.3571
  996MOL0     H31460  10.913   1.376   5.536  2.8777 -3.1471 -0.4515
  996MOL0     H31461  11.123   1.331   5.421  2.2912  1.3520  0.4770
  996MOL0     H31462  11.304   1.281   5.203  0.0760 -1.2699  0.6575
  996MOL0     H31463  11.319   1.322   5.375 -0.1264  2.3026  0.4529
  996MOL0     H31464  11.487   1.492   5.353  1.8911 -0.7323  0.8970
  996MOL0     H31465  11.526   1.333   5.303  0.7778 -0.1975 -0.6503
  996MOL0     H31466  11.448   1.562   5.126  0.7926  1.0600  0.3769
  996MOL0     H31467  11.494   1.397   5.063  0.3842  1.0972  0.3706
  996MOL0     H31468  11.672   1.560   5.028  0.0685  3.8975  1.0452
  996MOL0     H31469  11.661   1.619   5.191 -1.1355  0.9837 -0.2940
  996MOL0     H31470  11.864   1.244   5.233  0.9464  1.2750  0.9343
  996MOL0     H31471  11.077   1.681   5.185  0.5840 -1.1689 -0.5471
  996MOL0     H31472  10.869   1.725   5.275  0.3610 -0.1528 -0.3804
  997MOL0     O31473   8.504   3.737   4.431 -1.1189  0.1879  0.7120
  997MOL0     C31474   8.521   3.830   4.515  0.6859  0.1558  0.3658
  997MOL0     O31475   8.421   3.897   4.580 -0.5699 -0.3837 -0.2862
  997MOL0     C31476   8.290   3.892   4.532 -1.4655 -0.8882 -0.1522
  997MOL0     C31477   8.187   3.861   4.627 -0.0986  0.5359  0.5094
  997MOL0     C31478   8.053   3.859   4.591  0.4032  0.0603 -0.5221
  997MOL0     C31479   8.011   3.890   4.469  0.3550 -0.4535 -0.1033
  997MOL0     O31480   7.875   3.892   4.455 -0.6847 -0.6566  0.2574
  997MOL0     C31481   7.822   3.869   4.321  0.1634  0.1355 -0.5874
  997MOL0     C31482   7.675   3.824   4.334  0.2137  0.6830 -0.0333
  997MOL0     C31483   7.582   3.895   4.440 -0.2874  0.2642  0.0619
  997MOL0     C31484   7.436   3.851   4.431 -0.6697 -0.2735 -0.4002
  997MOL0     C31485   7.341   3.891   4.546 -0.6967 -0.2766  0.1835
  997MOL0     C31486   7.200   3.829   4.529  0.4975  0.2978 -1.2035
  997MOL0     C31487   7.134   3.820   4.670 -0.8550 -1.1193  0.1112
  997MOL0     C31488   7.003   3.739   4.681 -0.4313 -0.0752  0.6026
  997MOL0     N31489   6.902   3.781   4.582 -0.3858 -0.3309 -0.4972
  997MOL0     C31490   6.884   3.724   4.465  0.2407  0.4856 -0.1541
  997MOL0     C31491   6.778   3.794   4.413 -0.3963  0.3600 -0.0459
  997MOL0     C31492   6.726   3.752   4.284  0.3568 -0.5385 -0.0719
  997MOL0     C31493   6.571   3.715   4.289 -0.3385 -0.1845 -0.3329
  997MOL0     C31494   6.518   3.699   4.140  0.5135  0.0905 -0.1042
  997MOL0     C31495   6.369   3.658   4.162 -0.4707  0.7885 -0.0448
  997MOL0     O31496   6.355   3.517   4.188  0.6899 -0.2756  0.5812
  997MOL0     C31497   6.233   3.471   4.227 -0.5971  0.3992  0.6203
  997MOL0     C31498   6.111   3.527   4.187 -0.1804  0.4436 -0.0133
  997MOL0     C31499   5.987   3.477   4.224  0.4822 -0.9295 -1.3152
  997MOL0     C31500   5.982   3.363   4.314 -0.2316  0.5134  0.9513
  997MOL0     C31501   5.862   3.299   4.364  0.6518  0.5298 -0.0978
  997MOL0     O31502   5.751   3.369   4.336  0.1366  0.1983 -0.0210
  997MOL0     C31503   5.631   3.318   4.367 -0.3686  0.1985  0.6891
  997MOL0     C31504   5.570   3.366   4.487 -1.1353  0.7527  0.3343
  997MOL0     C31505   5.444   3.318   4.522  0.0212 -0.2685  0.6347
  997MOL0     C31506   5.374   3.232   4.430 -0.2744  1.1279  0.4642
  997MOL0     O31507   5.245   3.197   4.458  0.3625 -0.3780 -0.1954
  997MOL0     C31508   5.149   3.305   4.433 -0.5508  0.6974  0.2594
  997MOL0     C31509   5.008   3.241   4.410  0.3771 -0.7862 -0.5028
  997MOL0     C31510   4.944   3.162   4.521  0.6707 -0.2240  0.5536
  997MOL0     C31511   4.800   3.139   4.498  0.8005  0.0020 -0.1576
  997MOL0     C31512   4.740   3.040   4.604  0.3046  0.3158  0.7313
  997MOL0     C31513   4.690   3.110   4.736  0.2727  0.3173 -0.2178
  997MOL0     C31514   4.604   3.023   4.830 -0.4279 -0.5748 -0.1518
  997MOL0     C31515   4.680   2.893   4.867  0.7757 -0.5108 -0.3291
  997MOL0    Cl31516   4.814   2.968   4.966  0.0573  0.3004  0.2330
  997MOL0     C31517   5.445   3.174   4.321  0.2826  0.6049 -0.2435
  997MOL0     C31518   5.574   3.215   4.292 -0.0315  0.5149  0.8112
  997MOL0     O31519   5.863   3.182   4.410  0.6402 -0.2947  0.4042
  997MOL0     C31520   6.111   3.304   4.346  0.3347 -0.6042  0.6750
  997MOL0     C31521   6.228   3.361   4.304 -0.5983 -0.5849 -0.0986
  997MOL0     N31522   6.734   3.884   4.507  0.5812  0.2669 -0.5730
  997MOL0     N31523   6.804   3.871   4.613 -0.8177  0.5303 -0.1677
  997MOL0     C31524   8.112   3.927   4.371 -0.7272  0.3175  0.5798
  997MOL0     C31525   8.249   3.930   4.400  0.3708  0.1120  0.3496
  997MOL0     C31526   8.652   3.866   4.559 -0.1878  0.9693  0.3450
  997MOL0     C31527   8.770   3.797   4.522  0.0536 -0.0603  1.0606
  997MOL0     C31528   8.896   3.836   4.565 -0.4951  0.4318 -0.7171
  997MOL0     C31529   8.907   3.944   4.656 -0.1939 -0.5307 -0.1728
  997MOL0     O31530   9.031   3.973   4.711  0.1880  0.3879  0.4721
  997MOL0     C31531   9.045   4.079   4.811  0.5695  0.0785  0.3039
  997MOL0     C31532   9.080   4.211   4.742  0.0034 -0.3981 -0.4441
  997MOL0     C31533   9.114   4.317   4.838  0.1696 -0.5967 -0.3549
  997MOL0     C31534   9.202   4.428   4.782 -0.5013 -0.3818  0.7914
  997MOL0     C31535   9.154   4.496   4.664  0.1738  0.4880 -0.0084
  997MOL0     C31536   9.099   4.549   4.580  0.2891  0.2434  0.3151
  997MOL0     C31537   8.792   4.012   4.703 -0.4984  0.0507 -0.1426
  997MOL0     C31538   8.675   3.968   4.650  0.7916  0.1193 -0.3781
  997MOL0     H31539   8.208   3.844   4.732  0.2445  0.4525  0.4281
  997MOL0     H31540   7.979   3.848   4.669  0.9474 -1.7445 -0.2243
  997MOL0     H31541   7.876   3.787   4.272 -0.8540 -1.0396  0.2108
  997MOL0     H31542   7.832   3.961   4.263  0.2855  1.9919  2.1874
  997MOL0     H31543   7.686   3.720   4.368 -2.5794 -0.6114 -2.6557
  997MOL0     H31544   7.626   3.822   4.237 -0.9334  3.0190  0.4136
  997MOL0     H31545   7.599   4.003   4.435  1.3908  0.0099 -0.2990
  997MOL0     H31546   7.622   3.882   4.542 -0.7758  1.9779  0.5006
  997MOL0     H31547   7.393   3.899   4.343  1.4561  2.6953  0.0405
  997MOL0     H31548   7.428   3.742   4.426  0.8395 -0.3885 -1.1326
  997MOL0     H31549   7.317   3.998   4.542 -2.2400 -0.5921  0.4956
  997MOL0     H31550   7.381   3.866   4.645 -0.6844 -4.3508 -0.6791
  997MOL0     H31551   7.214   3.731   4.482  2.6371  0.9582 -2.0792
  997MOL0     H31552   7.140   3.886   4.458  0.3002 -1.0798 -2.1813
  997MOL0     H31553   7.205   3.762   4.731  3.0689  4.0397  1.2297
  997MOL0     H31554   7.118   3.916   4.721 -0.2910 -0.8946 -0.1267
  997MOL0     H31555   6.957   3.744   4.780 -3.0957 -3.8220 -0.2369
  997MOL0     H31556   7.032   3.634   4.672 -1.4085 -0.1421 -4.8769
  997MOL0     H31557   6.936   3.635   4.432 -0.1401 -0.1939  1.0407
  997MOL0     H31558   6.777   3.658   4.261  0.7182 -0.7014  1.2748
  997MOL0     H31559   6.738   3.834   4.214 -1.9555 -1.2809 -1.4495
  997MOL0     H31560   6.516   3.799   4.332 -1.9755  0.0530 -2.6537
  997MOL0     H31561   6.565   3.623   4.347  1.5609 -0.6178 -0.7489
  997MOL0     H31562   6.526   3.794   4.086  2.0883 -0.8510 -1.6335
  997MOL0     H31563   6.586   3.624   4.100  3.0046  0.2947  3.2822
  997MOL0     H31564   6.327   3.698   4.069  2.4615  2.5535 -0.7357
  997MOL0     H31565   6.313   3.713   4.238  1.8537  0.9685  1.6425
  997MOL0     H31566   6.104   3.616   4.126 -3.1378 -1.0786 -2.1614
  997MOL0     H31567   5.895   3.516   4.181  0.9923  1.3528 -0.4518
  997MOL0     H31568   5.629   3.443   4.535  0.0889  0.7194 -1.0699
  997MOL0     H31569   5.401   3.354   4.615 -0.3722  1.5839 -0.2220
  997MOL0     H31570   5.176   3.355   4.340  1.9884 -1.1239 -0.0904
  997MOL0     H31571   5.128   3.369   4.519 -0.7311 -1.0532  1.5789
  997MOL0     H31572   5.018   3.179   4.321 -0.9054  0.5642 -1.6273
  997MOL0     H31573   4.941   3.322   4.380  1.7153  0.7099  0.3775
  997MOL0     H31574   4.963   3.210   4.618  4.2788 -0.0389 -0.1179
  997MOL0     H31575   4.993   3.066   4.532 -1.2911 -1.4139 -0.4650
  997MOL0     H31576   4.759   3.241   4.495 -0.2915 -0.3694  0.9556
  997MOL0     H31577   4.783   3.096   4.399 -0.4989  1.9238 -0.8298
  997MOL0     H31578   4.818   2.976   4.645 -2.3572  0.3010  6.7285
  997MOL0     H31579   4.659   2.970   4.580  2.1813 -2.1028  1.1087
  997MOL0     H31580   4.630   3.197   4.707  0.6950  0.5089 -0.5359
  997MOL0     H31581   4.784   3.138   4.785 -0.2985 -2.1327  2.4588
  997MOL0     H31582   4.582   3.096   4.908 -0.7749 -0.2489 -0.5528
  997MOL0     H31583   4.512   2.993   4.778 -1.1697  0.8097  0.3452
  997MOL0     H31584   4.724   2.838   4.783  0.0714  1.0723 -1.8020
  997MOL0     H31585   4.623   2.824   4.930  0.1180  0.8957  0.6814
  997MOL0     H31586   5.409   3.099   4.251  1.1450 -0.7086  0.6732
  997MOL0     H31587   5.633   3.165   4.215 -4.0706 -2.9597 -0.4494
  997MOL0     H31588   6.104   3.211   4.401  1.3752  0.4009  2.5997
  997MOL0     H31589   6.323   3.322   4.342 -0.8969 -1.4100 -0.1667
  997MOL0     H31590   8.076   3.955   4.273  0.3731  2.3466  0.6861
  997MOL0     H31591   8.314   3.958   4.317  2.0452  0.6936  1.8005
  997MOL0     H31592   8.759   3.720   4.446  0.5962  0.1572  0.7558
  997MOL0     H31593   8.981   3.785   4.522  1.9652  2.2210  1.6068
  997MOL0     H31594   9.130   4.055   4.875 -1.1499  0.0694  2.6730
  997MOL0     H31595   8.960   4.071   4.879  2.3363  1.5509  2.8599
  997MOL0     H31596   9.162   4.189   4.674  1.8116 -2.0487  2.1280
  997MOL0     H31597   8.997   4.234   4.675  0.6394 -1.2054 -1.5342
  997MOL0     H31598   9.146   4.275   4.934 -0.9514 -2.8040 -0.8855
  997MOL0     H31599   9.015   4.360   4.854  0.0818 -1.0858  0.4594
  997MOL0     H31600   9.215   4.497   4.866  5.1182  0.8977 -0.7020
  997MOL0     H31601   9.303   4.393   4.758 -0.2784  0.6973  0.0576
  997MOL0     H31602   9.043   4.595   4.502  0.8574 -0.9216 -0.8135
  997MOL0     H31603   8.799   4.104   4.761  0.0352 -0.9945  1.5201
  997MOL0     H31604   8.585   4.017   4.687  1.0554  1.9107 -1.9976
  998MOL0     O31605   1.189  10.543   5.367  0.3369  0.0638 -0.2340
  998MOL0     C31606   1.272  10.598   5.448 -0.3220  0.6074  0.8975
  998MOL0     O31607   1.274  10.579   5.587  0.1280  0.3615 -0.6706
  998MOL0     C31608   1.184  10.490   5.640 -0.5131  0.5249 -0.1948
  998MOL0     C31609   1.042  10.513   5.653  0.3896 -0.3217  0.1991
  998MOL0     C31610   0.959  10.415   5.700  0.1196  0.5868  0.6931
  998MOL0     C31611   1.011  10.291   5.754 -0.4538  0.5224  0.9405
  998MOL0     O31612   0.950  10.208   5.836 -0.3176 -0.5431 -0.2068
  998MOL0     C31613   0.869  10.100   5.780 -0.4403 -0.2495 -0.8078
  998MOL0     C31614   0.730  10.160   5.737 -0.3629 -0.3383 -0.5972
  998MOL0     C31615   0.634  10.047   5.684  0.8070  0.1817 -0.6403
  998MOL0     C31616   0.487  10.099   5.677 -0.8162 -0.1746 -0.3732
  998MOL0     C31617   0.397  10.001   5.604 -0.2282  0.1043 -0.5137
  998MOL0     C31618   0.249  10.022   5.615 -0.1697 -0.0240  0.4966
  998MOL0     C31619   0.196  10.015   5.763 -0.3469 -0.5228  0.2129
  998MOL0     C31620   0.045  10.007   5.748  0.0803  0.4663 -0.7350
  998MOL0     N31621  -0.024  10.009   5.878  0.2832  0.4035 -0.1291
  998MOL0     C31622  -0.064  10.124   5.935 -1.0699 -0.3142 -0.4373
  998MOL0     C31623  -0.131  10.086   6.039 -0.4361  0.1050  0.8271
  998MOL0     C31624  -0.185  10.186   6.148 -0.1475  0.4590  0.7120
  998MOL0     C31625  -0.104  10.189   6.277 -0.2169 -0.0044 -0.3790
  998MOL0     C31626  -0.108  10.054   6.358  0.5628  0.0314 -0.2788
  998MOL0     C31627  -0.135  10.079   6.508  0.4685 -0.4209  0.2098
  998MOL0     O31628  -0.264  10.135   6.539 -0.0384 -0.1376 -0.1098
  998MOL0     C31629  -0.388  10.081   6.523  0.2709  1.3798  0.6451
  998MOL0     C31630  -0.494  10.169   6.531 -1.1362 -0.1170  0.3660
  998MOL0     C31631  -0.622  10.123   6.536 -0.4649  0.2640 -0.4995
  998MOL0     C31632  -0.654   9.989   6.552  0.0042 -0.8475 -0.0676
  998MOL0     C31633  -0.798   9.957   6.565  0.0865  0.5084 -0.4444
  998MOL0     O31634  -0.840   9.830   6.528  0.6686 -0.3798  0.4391
  998MOL0     C31635  -0.975   9.820   6.555  0.9169 -0.1442 -0.5260
  998MOL0     C31636  -1.026   9.775   6.678  0.2933 -0.9201  0.2262
  998MOL0     C31637  -1.164   9.749   6.693  0.4752 -0.1173  0.4432
  998MOL0     C31638  -1.246   9.761   6.588  0.6906  1.0321 -0.4137
  998MOL0     O31639  -1.377   9.717   6.601  0.7459  0.2870 -0.1279
  998MOL0     C31640  -1.446   9.731   6.723 -0.7964 -0.3371  0.5087
  998MOL0     C31641  -1.581   9.690   6.711  0.1219 -0.0674 -0.7261
  998MOL0     C31642  -1.658   9.679   6.847 -0.1862  0.0242  0.2295
  998MOL0     C31643  -1.633   9.806   6.936 -0.2089  0.2642  0.3488
  998MOL0     C31644  -1.674   9.794   7.077 -0.0732  0.1004  0.3803
  998MOL0     C31645  -1.704   9.934   7.135  0.3009  0.0911  0.1821
  998MOL0     C31646  -1.771   9.922   7.270 -0.5721 -0.4548  0.6998
  998MOL0     C31647  -1.667   9.856   7.370 -0.2803  0.1859 -0.1037
  998MOL0    Cl31648  -1.570   9.987   7.410 -0.0174 -0.1820  0.2189
  998MOL0     C31649  -1.202   9.829   6.468  0.8808  0.0382 -1.1498
  998MOL0     C31650  -1.066   9.854   6.455 -0.5414 -0.0776 -0.3163
  998MOL0     O31651  -0.867  10.050   6.607  0.1674  0.2491  0.9340
  998MOL0     C31652  -0.544   9.897   6.540  1.0866 -0.4649 -0.4537
  998MOL0     C31653  -0.416   9.944   6.530 -0.3928 -0.8738  1.0531
  998MOL0     N31654  -0.132   9.946   6.046 -0.4205  0.2829  0.9329
  998MOL0     N31655  -0.063   9.902   5.951 -0.4767  0.0741  0.4287
  998MOL0     C31656   1.149  10.277   5.751 -0.0829 -0.3486 -0.4186
  998MOL0     C31657   1.241  10.368   5.685 -0.5801  0.5730  0.3789
  998MOL0     C31658   1.389  10.675   5.404  0.8873 -1.0429  1.3832
  998MOL0     C31659   1.501  10.710   5.480 -0.2441  0.6389  0.2794
  998MOL0     C31660   1.604  10.783   5.428 -0.6208 -0.0079 -0.0899
  998MOL0     C31661   1.603  10.820   5.292  0.6642  0.2607  0.0211
  998MOL0     O31662   1.705  10.889   5.238 -0.3035  0.5731  0.7492
  998MOL0     C31663   1.800  10.968   5.302  0.4779 -0.0267  0.1451
  998MOL0     C31664   1.875  11.039   5.194 -0.8157 -0.4957  1.2847
  998MOL0     C31665   2.000  11.114   5.245 -0.4782 -0.4846 -0.2127
  998MOL0     C31666   2.094  11.146   5.126 -0.3050  0.1834 -0.3875
  998MOL0     C31667   2.216  11.207   5.193  1.0404 -0.4559 -0.5730
  998MOL0     C31668   2.311  11.261   5.244 -0.1135  0.6097 -0.8815
  998MOL0     C31669   1.503  10.784   5.208 -0.8327 -0.6395 -0.8084
  998MOL0     C31670   1.391  10.721   5.269  0.6407  0.0564 -0.4321
  998MOL0     H31671   1.007  10.610   5.617  0.4069  0.4783  2.2033
  998MOL0     H31672   0.852  10.429   5.707 -0.0560 -1.0352  2.0285
  998MOL0     H31673   0.859  10.022   5.855  2.6861 -0.0289 -0.0230
  998MOL0     H31674   0.928  10.048   5.703 -0.2930  1.2654 -1.7737
  998MOL0     H31675   0.742  10.235   5.658 -1.3057  0.0513 -0.3880
  998MOL0     H31676   0.689  10.221   5.818  0.1339 -1.4039  0.4876
  998MOL0     H31677   0.639   9.965   5.756  0.0356 -0.1132 -0.9052
  998MOL0     H31678   0.660  10.008   5.585 -0.0890 -0.8230 -0.4969
  998MOL0     H31679   0.442  10.132   5.771  1.5806  1.6306  0.2376
  998MOL0     H31680   0.489  10.193   5.623 -2.9748 -0.1688 -0.5333
  998MOL0     H31681   0.416   9.902   5.645 -3.1598 -0.7364 -1.0072
  998MOL0     H31682   0.434  10.009   5.501  2.7454 -1.4938  0.3227
  998MOL0     H31683   0.202   9.945   5.553 -4.2024  1.6715  1.0994
  998MOL0     H31684   0.237  10.120   5.568  2.5431  0.6395  1.0001
  998MOL0     H31685   0.240   9.922   5.800  0.8482 -0.5395 -1.1393
  998MOL0     H31686   0.223  10.097   5.830  0.9723 -2.9887  2.9094
  998MOL0     H31687   0.021   9.915   5.694  0.5215  0.7529 -1.4394
  998MOL0     H31688   0.028  10.091   5.679  1.9283  1.0675 -0.5049
  998MOL0     H31689  -0.052  10.220   5.887 -2.1835 -0.4881 -1.1102
  998MOL0     H31690  -0.288  10.155   6.169 -0.0784 -1.8551 -1.8836
  998MOL0     H31691  -0.189  10.278   6.090 -2.4645  0.0792  0.1853
  998MOL0     H31692  -0.141  10.273   6.337  3.1884  0.4920  1.2432
  998MOL0     H31693   0.002  10.208   6.259  0.1837 -1.4474  0.3288
  998MOL0     H31694  -0.190   9.998   6.313 -2.4835  2.8878  1.2580
  998MOL0     H31695  -0.010  10.008   6.342  0.4076  0.0542 -1.3929
  998MOL0     H31696  -0.066  10.148   6.557  0.9053  0.4606 -1.5493
  998MOL0     H31697  -0.124   9.979   6.551 -2.6249 -1.6240 -1.4986
  998MOL0     H31698  -0.475  10.276   6.526 -2.1497  0.0310 -0.8708
  998MOL0     H31699  -0.697  10.201   6.545 -2.8984 -2.0744  0.9298
  998MOL0     H31700  -0.965   9.756   6.766  1.9845 -4.1657 -1.4373
  998MOL0     H31701  -1.196   9.693   6.781  2.2680 -0.2769  1.0204
  998MOL0     H31702  -1.439   9.832   6.765  1.4688 -1.0706  2.0627
  998MOL0     H31703  -1.406   9.662   6.798 -0.2638  1.7949  2.2878
  998MOL0     H31704  -1.581   9.588   6.672  0.6961  0.9797 -3.7047
  998MOL0     H31705  -1.633   9.748   6.634 -3.3712 -1.9493  0.0017
  998MOL0     H31706  -1.618   9.585   6.885 -1.5451 -1.0592 -0.9179
  998MOL0     H31707  -1.765   9.656   6.842  0.1080 -2.4155  2.7508
  998MOL0     H31708  -1.528   9.836   6.933 -0.0328 -0.4575 -1.5690
  998MOL0     H31709  -1.680   9.895   6.893  1.8232  1.6208  0.7864
  998MOL0     H31710  -1.590   9.754   7.135 -0.0075  0.5244  0.5834
  998MOL0     H31711  -1.755   9.723   7.093 -0.9161  0.9225 -0.1111
  998MOL0     H31712  -1.767   9.998   7.074  0.2039  1.1550  1.3588
  998MOL0     H31713  -1.613   9.994   7.136 -0.4089  1.2338 -1.3660
  998MOL0     H31714  -1.799  10.019   7.312 -1.2633 -0.2152 -0.2650
  998MOL0     H31715  -1.868   9.870   7.269 -1.0408  0.3647  1.5714
  998MOL0     H31716  -1.611   9.763   7.352  1.0767  0.4851  2.2685
  998MOL0     H31717  -1.733   9.838   7.455 -4.2615  1.4638 -2.6211
  998MOL0     H31718  -1.272   9.859   6.391  0.2757  0.4445 -0.4554
  998MOL0     H31719  -1.026   9.895   6.363  0.6901  0.0038  0.2326
  998MOL0     H31720  -0.548   9.789   6.536  2.3551 -0.5513  0.2086
  998MOL0     H31721  -0.331   9.878   6.518  1.2705  1.2941  0.1040
  998MOL0     H31722   1.199  10.187   5.786  0.8897  0.3327 -0.0156
  998MOL0     H31723   1.346  10.349   5.666 -1.3421 -3.7403 -0.4295
  998MOL0     H31724   1.508  10.681   5.585 -0.0055  1.5757  0.5333
  998MOL0     H31725   1.695  10.798   5.486 -0.4982 -0.9240 -0.0263
  998MOL0     H31726   1.869  10.903   5.357  0.8174  0.2722  0.0711
  998MOL0     H31727   1.740  11.038   5.361 -0.5537 -1.5672  0.9991
  998MOL0     H31728   1.913  10.963   5.125 -0.5032  1.9259 -1.4031
  998MOL0     H31729   1.809  11.105   5.138  2.1777  3.0786  1.5487
  998MOL0     H31730   2.043  11.064   5.332 -0.9171  2.9584  2.1865
  998MOL0     H31731   1.955  11.208   5.281  0.6219 -0.3244  0.7677
  998MOL0     H31732   2.128  11.059   5.070 -2.4219 -2.5530  2.2340
  998MOL0     H31733   2.050  11.218   5.057 -3.1601 -0.8759  0.1949
  998MOL0     H31734   2.405  11.301   5.274  0.1270  0.1036 -0.9415
  998MOL0     H31735   1.515  10.816   5.105 -0.3478 -1.3849 -0.9961
  998MOL0     H31736   1.302  10.708   5.209  0.2326 -0.7516  0.3214
  999MOL0     O31737   0.680   2.063   6.427  0.3800  0.4755 -0.4135
  999MOL0     C31738   0.731   1.968   6.488 -0.5827 -0.4155  0.6006
  999MOL0     O31739   0.676   1.899   6.591  0.0665  0.9168  0.7430
  999MOL0     C31740   0.547   1.935   6.626 -0.6902  0.2419 -0.8529
  999MOL0     C31741   0.459   1.833   6.648  0.5546  0.6506  0.1975
  999MOL0     C31742   0.329   1.864   6.691 -0.6358  1.0736 -0.1251
  999MOL0     C31743   0.284   1.987   6.712  0.3330  0.7161 -0.1049
  999MOL0     O31744   0.153   2.011   6.744 -0.0976 -0.8604  0.7119
  999MOL0     C31745   0.082   2.090   6.643  0.5443  0.2285  0.3292
  999MOL0     C31746  -0.065   2.102   6.684  0.9159 -0.4087  0.4809
  999MOL0     C31747  -0.106   2.207   6.790  0.2738  0.1493 -0.3239
  999MOL0     C31748  -0.100   2.353   6.751 -0.2702  0.6040 -0.4389
  999MOL0     C31749  -0.156   2.448   6.859  0.3867  0.3600 -1.1885
  999MOL0     C31750  -0.316   2.424   6.871  0.7084  0.3941  0.4585
  999MOL0     C31751  -0.360   2.352   7.004 -0.9773  0.1861  0.0111
  999MOL0     C31752  -0.502   2.312   6.987 -0.1783  1.2690  0.1838
  999MOL0     N31753  -0.591   2.430   7.013 -0.1740  0.2819 -0.4427
  999MOL0     C31754  -0.624   2.494   7.132  0.0950 -0.0829 -0.4911
  999MOL0     C31755  -0.716   2.582   7.103 -0.4891  0.4950  0.4697
  999MOL0     C31756  -0.796   2.676   7.190 -0.1141  1.2802 -0.7542
  999MOL0     C31757  -0.925   2.740   7.126  0.2521 -0.0695  0.1729
  999MOL0     C31758  -1.046   2.649   7.134  1.2465  0.3104 -0.3523
  999MOL0     C31759  -1.166   2.683   7.043  0.3582  0.2922 -0.9994
  999MOL0     O31760  -1.223   2.801   7.096  0.5822  0.3319 -0.0569
  999MOL0     C31761  -1.363   2.813   7.080  0.2446  0.2110  0.1295
  999MOL0     C31762  -1.436   2.746   6.970  0.2681  0.4218  0.1786
  999MOL0     C31763  -1.570   2.744   6.963  1.0194 -0.1798  0.1165
  999MOL0     C31764  -1.640   2.819   7.054  0.5367  0.6545  0.8253
  999MOL0     C31765  -1.790   2.840   7.039 -0.4422 -0.0439 -0.5879
  999MOL0     O31766  -1.861   2.879   7.147  0.5621 -0.8421 -0.5339
  999MOL0     C31767  -1.996   2.897   7.138 -0.2003 -0.0198 -0.0228
  999MOL0     C31768  -2.078   2.790   7.129  0.0184 -0.1776  0.1529
  999MOL0     C31769  -2.215   2.805   7.118  0.2490 -0.1336  0.0342
  999MOL0     C31770  -2.277   2.930   7.135 -0.6812  0.4070  0.7081
  999MOL0     O31771  -2.408   2.939   7.133 -0.2520 -0.7130 -0.7572
  999MOL0     C31772  -2.474   3.059   7.102 -0.0177 -0.6433 -0.5854
  999MOL0     C31773  -2.488   3.153   7.228  0.4098 -0.0723 -0.1721
  999MOL0     C31774  -2.567   3.283   7.175  0.7623  0.3848 -0.0335
  999MOL0     C31775  -2.571   3.406   7.265  0.0512  0.3936 -0.5040
  999MOL0     C31776  -2.695   3.487   7.252  0.0548  0.5072 -0.0724
  999MOL0     C31777  -2.700   3.599   7.357 -0.2551  0.5405 -1.1271
  999MOL0     C31778  -2.828   3.685   7.329  0.3763  0.0522 -0.1498
  999MOL0     C31779  -2.804   3.792   7.226  0.2000  0.8698  0.3367
  999MOL0    Cl31780  -2.640   3.873   7.243  0.3659 -0.6012 -0.3367
  999MOL0     C31781  -2.188   3.042   7.136  0.8290 -0.2354 -0.4006
  999MOL0     C31782  -2.049   3.030   7.128  0.3571 -0.2705 -0.1178
  999MOL0     O31783  -1.842   2.814   6.936  0.0174  0.4141  0.7350
  999MOL0     C31784  -1.575   2.888   7.154  0.1906  0.7372 -0.9522
  999MOL0     C31785  -1.434   2.885   7.164  0.0212  0.3808 -0.7140
  999MOL0     N31786  -0.744   2.568   6.970 -0.4938  0.2158 -0.4239
  999MOL0     N31787  -0.659   2.489   6.912 -0.5648  0.1480 -0.4116
  999MOL0     C31788   0.376   2.098   6.696  0.3537  0.3794  0.9447
  999MOL0     C31789   0.508   2.068   6.652 -0.0279  0.2803  0.4662
  999MOL0     C31790   0.867   1.928   6.448 -0.3543  0.0294  0.5979
  999MOL0     C31791   0.951   1.869   6.544 -0.6197 -0.3420 -0.7817
  999MOL0     C31792   1.085   1.822   6.510  0.4203 -0.0698  0.2723
  999MOL0     C31793   1.128   1.840   6.375 -0.0533  0.8006 -0.2668
  999MOL0     O31794   1.257   1.827   6.325  0.3272 -0.0346  0.4556
  999MOL0     C31795   1.367   1.791   6.400  0.2289  0.2084  0.3276
  999MOL0     C31796   1.492   1.834   6.328 -0.5906 -0.0007  0.0934
  999MOL0     C31797   1.625   1.789   6.399  0.7490 -0.1696  0.1418
  999MOL0     C31798   1.699   1.689   6.306  0.4940 -1.2285  0.0776
  999MOL0     C31799   1.828   1.647   6.362 -1.0968  0.7443  0.4581
  999MOL0     C31800   1.932   1.618   6.414 -0.5811  0.1416  0.6627
  999MOL0     C31801   1.028   1.875   6.280 -0.5996 -0.2218 -0.2196
  999MOL0     C31802   0.905   1.931   6.313 -0.5378  0.2569 -0.1511
  999MOL0     H31803   0.488   1.728   6.642 -1.1790  0.0475  1.5558
  999MOL0     H31804   0.258   1.781   6.697  0.7780 -0.1176  0.7870
  999MOL0     H31805   0.087   2.033   6.550  0.2775  0.4592  0.1704
  999MOL0     H31806   0.119   2.193   6.635 -3.2776  1.8995  1.4023
  999MOL0     H31807  -0.091   2.003   6.724 -2.5656  1.1100  2.4771
  999MOL0     H31808  -0.131   2.117   6.598 -0.0359 -0.4510  1.1877
  999MOL0     H31809  -0.044   2.191   6.878 -1.6785 -4.0465  0.5379
  999MOL0     H31810  -0.205   2.183   6.830 -0.9578  1.7944 -2.1684
  999MOL0     H31811   0.001   2.372   6.714  1.6645  0.3534  4.0284
  999MOL0     H31812  -0.167   2.375   6.668  0.1339  4.7507  0.1354
  999MOL0     H31813  -0.125   2.550   6.837  2.9841  0.7560  3.2907
  999MOL0     H31814  -0.126   2.444   6.964  0.3949  1.4525 -1.1436
  999MOL0     H31815  -0.351   2.358   6.792  0.7126  0.9812 -0.0372
  999MOL0     H31816  -0.366   2.520   6.861 -2.2200 -1.1509 -1.3530
  999MOL0     H31817  -0.299   2.261   7.010 -0.1787  0.7501  0.5625
  999MOL0     H31818  -0.334   2.414   7.089  3.1945 -1.4870  0.1968
  999MOL0     H31819  -0.531   2.241   7.064 -2.2672  1.1179 -0.6957
  999MOL0     H31820  -0.524   2.267   6.890 -0.6630  4.1138 -1.1392
  999MOL0     H31821  -0.571   2.490   7.227 -0.8714  0.3092  0.0762
  999MOL0     H31822  -0.721   2.754   7.209  0.3698 -0.0768  4.6942
  999MOL0     H31823  -0.806   2.625   7.286  2.9445  3.8904  1.1814
  999MOL0     H31824  -0.902   2.754   7.020 -0.8350 -3.0872 -0.5647
  999MOL0     H31825  -0.951   2.832   7.180 -2.5733 -1.8237  2.1215
  999MOL0     H31826  -1.022   2.545   7.110 -2.3650 -1.7300  3.5644
  999MOL0     H31827  -1.087   2.660   7.235 -1.5361  1.7273 -1.5476
  999MOL0     H31828  -1.229   2.594   7.036  1.1360 -0.2073 -1.9950
  999MOL0     H31829  -1.130   2.714   6.945 -0.7893  1.2272 -1.1412
  999MOL0     H31830  -1.385   2.683   6.897  3.6750  1.6173  1.3188
  999MOL0     H31831  -1.617   2.680   6.889  2.0108 -0.1624 -0.5471
  999MOL0     H31832  -2.045   2.686   7.130  1.4275  0.2032 -1.4529
  999MOL0     H31833  -2.274   2.714   7.114  1.3167 -0.9460  1.6469
  999MOL0     H31834  -2.578   3.039   7.076 -0.1231  0.1518 -0.8038
  999MOL0     H31835  -2.425   3.121   7.027 -2.3139  0.1304 -1.5378
  999MOL0     H31836  -2.388   3.189   7.254  1.4272 -1.7697 -1.5367
  999MOL0     H31837  -2.544   3.107   7.310 -0.1670 -1.6186 -1.3696
  999MOL0     H31838  -2.671   3.251   7.163  0.4116  1.4779  0.0530
  999MOL0     H31839  -2.524   3.313   7.079 -1.4394 -0.7076 -1.4597
  999MOL0     H31840  -2.558   3.381   7.370 -1.4205  2.8106  0.3441
  999MOL0     H31841  -2.487   3.469   7.233 -0.9159  1.8825 -0.2193
  999MOL0     H31842  -2.782   3.422   7.250  2.0830 -2.4703  1.0697
  999MOL0     H31843  -2.702   3.529   7.151 -2.7594 -3.6807 -1.8847
  999MOL0     H31844  -2.614   3.665   7.374 -0.1905  0.3857 -0.8536
  999MOL0     H31845  -2.707   3.549   7.454 -0.2983  2.5325 -0.0304
  999MOL0     H31846  -2.919   3.631   7.298 -0.7795  1.3246  0.8869
  999MOL0     H31847  -2.851   3.719   7.431  2.4614  1.8273 -0.2087
  999MOL0     H31848  -2.882   3.868   7.233 -1.0643 -0.4122  0.8496
  999MOL0     H31849  -2.804   3.743   7.128  0.1958  1.2644  0.1375
  999MOL0     H31850  -2.236   3.139   7.145 -0.6872 -1.0145  0.3389
  999MOL0     H31851  -1.973   3.107   7.121 -0.5842  0.5464 -4.6362
  999MOL0     H31852  -1.630   2.958   7.216  0.5762 -0.6538  1.0592
  999MOL0     H31853  -1.384   2.948   7.237  1.1685  1.5781 -2.4529
  999MOL0     H31854   0.337   2.200   6.694 -0.6540  0.0442 -1.8330
  999MOL0     H31855   0.562   2.156   6.615  1.4563  0.0048  1.8521
  999MOL0     H31856   0.927   1.854   6.648  1.0690 -0.4339 -0.3846
  999MOL0     H31857   1.161   1.796   6.584  2.4063 -2.0238 -2.2543
  999MOL0     H31858   1.371   1.682   6.401 -0.4779  0.0584 -2.5334
  999MOL0     H31859   1.360   1.835   6.500 -0.3979 -2.3296  1.4727
  999MOL0     H31860   1.500   1.798   6.225 -0.9150  1.3381 -0.4242
  999MOL0     H31861   1.486   1.943   6.320  2.3468  0.2341 -0.0300
  999MOL0     H31862   1.612   1.729   6.490  3.3435 -2.9618 -1.1476
  999MOL0     H31863   1.678   1.884   6.411 -1.4871  1.3325 -1.1457
  999MOL0     H31864   1.628   1.614   6.269 -0.4216  1.0449 -3.2406
  999MOL0     H31865   1.730   1.745   6.218  2.9080  0.5833  1.9528
  999MOL0     H31866   2.016   1.583   6.472  0.5473 -0.2241 -1.1067
  999MOL0     H31867   1.045   1.876   6.173  0.0258  0.7550 -0.1254
  999MOL0     H31868   0.846   1.974   6.233  0.6718  0.0865 -1.1633
 1000MOL0     O31869   4.106   3.710   5.260 -0.1957  0.2163  0.3021
 1000MOL0     C31870   4.131   3.610   5.334 -0.2631  0.0008  0.8892
 1000MOL0     O31871   4.051   3.508   5.357 -0.4094 -0.3839 -0.2975
 1000MOL0     C31872   3.914   3.531   5.371 -0.0096  0.4607  1.3808
 1000MOL0     C31873   3.831   3.419   5.392  0.9500  0.0861 -0.0623
 1000MOL0     C31874   3.699   3.430   5.418  0.1330 -0.2275 -0.3057
 1000MOL0     C31875   3.638   3.559   5.449 -0.3043 -0.2733  0.0875
 1000MOL0     O31876   3.507   3.587   5.475 -0.1013  0.1040  0.4403
 1000MOL0     C31877   3.422   3.480   5.510 -0.8235  1.4593  0.3872
 1000MOL0     C31878   3.281   3.511   5.556 -0.3805  0.3839  0.1990
 1000MOL0     C31879   3.190   3.569   5.447 -0.5311 -0.3249 -0.3843
 1000MOL0     C31880   3.066   3.604   5.527  0.5612  0.7544 -0.0977
 1000MOL0     C31881   2.943   3.645   5.429 -0.5315 -0.1346 -0.7782
 1000MOL0     C31882   2.874   3.520   5.379 -0.5503  0.1718  0.3677
 1000MOL0     C31883   2.758   3.548   5.293 -0.3853  0.1677 -0.2390
 1000MOL0     C31884   2.678   3.421   5.259  0.5260  0.9022 -0.1594
 1000MOL0     N31885   2.569   3.444   5.166  0.4824  0.1872  0.0779
 1000MOL0     C31886   2.438   3.464   5.203  0.4166  0.6616 -0.0303
 1000MOL0     C31887   2.377   3.515   5.088  0.5844 -0.1759  0.1473
 1000MOL0     C31888   2.239   3.558   5.095  0.0222 -0.2878 -0.3427
 1000MOL0     C31889   2.161   3.558   4.961  0.7420  0.1207  0.3647
 1000MOL0     C31890   2.140   3.421   4.898  0.4400  0.0287 -0.0038
 1000MOL0     C31891   2.007   3.418   4.822 -0.1814 -0.1493  0.1930
 1000MOL0     O31892   1.960   3.288   4.810  0.0720 -0.1555  0.2636
 1000MOL0     C31893   1.832   3.247   4.838  0.0267  0.8829 -0.2414
 1000MOL0     C31894   1.709   3.326   4.833 -0.3391 -0.9507 -0.7073
 1000MOL0     C31895   1.587   3.276   4.869 -0.5445 -0.0927 -0.4396
 1000MOL0     C31896   1.576   3.147   4.919 -1.1047  0.0911  0.3719
 1000MOL0     C31897   1.443   3.094   4.951  0.6813 -0.2290  0.3150
 1000MOL0     O31898   1.438   2.973   5.005 -0.0833 -0.5229  0.4360
 1000MOL0     C31899   1.323   2.917   5.047  0.7825 -0.6032 -0.0934
 1000MOL0     C31900   1.209   2.907   4.960  0.1551 -0.6308  0.3241
 1000MOL0     C31901   1.098   2.839   4.993  0.0507  0.5854 -0.3105
 1000MOL0     C31902   1.088   2.781   5.126 -0.3412 -0.4124 -0.0755
 1000MOL0     O31903   0.978   2.711   5.149  1.4328 -0.9072  0.3378
 1000MOL0     C31904   0.912   2.740   5.275 -0.6459 -0.0005 -0.7663
 1000MOL0     C31905   0.779   2.677   5.275  0.0796 -0.1538  0.2219
 1000MOL0     C31906   0.701   2.759   5.382  0.3773 -0.0041 -0.1123
 1000MOL0     C31907   0.573   2.706   5.448  0.7053 -0.3034 -0.2775
 1000MOL0     C31908   0.490   2.820   5.519  0.2768  0.5988  0.5319
 1000MOL0     C31909   0.374   2.759   5.606 -0.0431  0.0782 -0.3834
 1000MOL0     C31910   0.273   2.677   5.520 -0.2301 -1.1064 -0.5745
 1000MOL0     C31911   0.140   2.683   5.588  0.2919 -0.5598  0.2012
 1000MOL0    Cl31912   0.010   2.610   5.477  0.0861 -0.0290 -0.3339
 1000MOL0     C31913   1.204   2.790   5.217  0.1693  1.2510 -0.9258
 1000MOL0     C31914   1.318   2.852   5.177 -0.0842  0.6673  0.1313
 1000MOL0     O31915   1.345   3.161   4.918  0.2306  0.2910  0.3243
 1000MOL0     C31916   1.691   3.064   4.915  0.8976 -0.0608  0.3829
 1000MOL0     C31917   1.819   3.112   4.879 -0.7721 -0.3677  0.1969
 1000MOL0     N31918   2.469   3.514   4.989  0.1797  0.0037 -0.5460
 1000MOL0     N31919   2.578   3.488   5.041 -0.5450  0.1058  0.3918
 1000MOL0     C31920   3.720   3.667   5.427  1.1766  0.3057  0.2940
 1000MOL0     C31921   3.859   3.659   5.400 -0.0570 -0.1339 -0.0162
 1000MOL0     C31922   4.278   3.597   5.362 -0.1560 -0.2840  0.0472
 1000MOL0     C31923   4.331   3.480   5.425  0.3826  0.8116 -0.1510
 1000MOL0     C31924   4.459   3.471   5.476 -0.6067  0.1614 -0.6157
 1000MOL0     C31925   4.551   3.577   5.453 -0.1376  0.3281 -0.3749
 1000MOL0     O31926   4.683   3.575   5.485  0.2169  1.0585 -0.5308
 1000MOL0     C31927   4.746   3.448   5.510  0.1278 -0.0197  0.4737
 1000MOL0     C31928   4.893   3.435   5.464  0.1891  0.0566 -1.3019
 1000MOL0     C31929   4.989   3.548   5.533  0.1522 -0.2605 -0.0572
 1000MOL0     C31930   5.133   3.485   5.513  0.2989  0.0187  0.3017
 1000MOL0     C31931   5.229   3.584   5.567  0.4324 -0.3872 -0.1411
 1000MOL0     C31932   5.302   3.681   5.589 -0.1486  0.8145 -0.2596
 1000MOL0     C31933   4.501   3.694   5.390 -0.1242  0.6939 -0.3106
 1000MOL0     C31934   4.372   3.707   5.340 -1.0907  0.4737 -0.8930
 1000MOL0     H31935   3.876   3.320   5.396 -0.4648 -0.5765  0.0949
 1000MOL0     H31936   3.644   3.336   5.424  0.5052 -0.6648 -2.7505
 1000MOL0     H31937   3.474   3.437   5.597 -3.3777 -3.0630 -0.0282
 1000MOL0     H31938   3.419   3.400   5.435  3.0163  0.1336  1.4022
 1000MOL0     H31939   3.287   3.581   5.640  1.0527 -0.6164  0.9569
 1000MOL0     H31940   3.233   3.418   5.587 -2.1368  1.4088  0.7158
 1000MOL0     H31941   3.173   3.494   5.370  4.5529  1.1281 -3.3428
 1000MOL0     H31942   3.217   3.667   5.408 -0.1052  0.2820  1.3176
 1000MOL0     H31943   3.047   3.520   5.595  2.1172  1.0259  0.7119
 1000MOL0     H31944   3.102   3.688   5.586 -2.9292  2.4118 -0.1079
 1000MOL0     H31945   2.968   3.712   5.347  1.7310  0.9789  0.7187
 1000MOL0     H31946   2.873   3.701   5.493  2.6119  3.5448 -0.2024
 1000MOL0     H31947   2.825   3.470   5.463 -0.5439  0.6622  0.6685
 1000MOL0     H31948   2.951   3.456   5.334  1.2318  3.1664 -1.1182
 1000MOL0     H31949   2.702   3.628   5.343  0.9332  0.5941  0.6192
 1000MOL0     H31950   2.791   3.598   5.202  1.8651  2.3032  1.6047
 1000MOL0     H31951   2.627   3.377   5.345  0.8775  1.6696  0.4522
 1000MOL0     H31952   2.744   3.339   5.230 -1.5589 -0.7881 -0.3284
 1000MOL0     H31953   2.392   3.453   5.301 -0.4868 -2.1490 -0.6695
 1000MOL0     H31954   2.233   3.654   5.148 -3.9392 -0.9655  0.8013
 1000MOL0     H31955   2.190   3.484   5.159  2.2637 -1.1170  0.5119
 1000MOL0     H31956   2.208   3.616   4.881 -1.3693 -1.4941 -2.2151
 1000MOL0     H31957   2.062   3.603   4.974 -0.0331 -0.3809 -2.9010
 1000MOL0     H31958   2.230   3.396   4.841 -0.3067 -0.6682 -0.9161
 1000MOL0     H31959   2.122   3.342   4.972 -0.0365  0.7667  0.6897
 1000MOL0     H31960   2.027   3.468   4.727 -1.6771 -2.6805 -1.5700
 1000MOL0     H31961   1.933   3.480   4.876 -1.6811  0.5874 -2.5366
 1000MOL0     H31962   1.719   3.430   4.804 -0.4102 -0.9526 -0.7368
 1000MOL0     H31963   1.498   3.336   4.886  0.1897  0.9245 -0.0872
 1000MOL0     H31964   1.215   2.957   4.864  2.9682 -0.0940  0.6851
 1000MOL0     H31965   1.010   2.845   4.931 -0.3424  3.3405  0.3727
 1000MOL0     H31966   0.902   2.849   5.285 -0.8677 -0.0922  0.1224
 1000MOL0     H31967   0.985   2.699   5.346 -1.3002 -1.6165 -0.9835
 1000MOL0     H31968   0.779   2.574   5.310 -0.3913 -0.5842 -1.0100
 1000MOL0     H31969   0.741   2.682   5.173  0.0742  0.5833  0.2537
 1000MOL0     H31970   0.670   2.854   5.338  0.1155  1.0125  2.1444
 1000MOL0     H31971   0.760   2.784   5.471 -1.3084  0.7341  0.8372
 1000MOL0     H31972   0.512   2.661   5.369 -2.3707  2.6984  0.1718
 1000MOL0     H31973   0.596   2.625   5.518  0.9665 -0.7539 -0.8797
 1000MOL0     H31974   0.453   2.882   5.437  2.2142 -1.8237 -2.4188
 1000MOL0     H31975   0.552   2.882   5.585 -0.6329 -0.7836  2.8277
 1000MOL0     H31976   0.321   2.838   5.659 -0.0234  0.9137 -1.5799
 1000MOL0     H31977   0.412   2.690   5.682 -1.8636  0.8942  1.3607
 1000MOL0     H31978   0.262   2.722   5.421 -2.4243  3.2880  1.3936
 1000MOL0     H31979   0.326   2.582   5.504  0.4381 -1.5134  3.2478
 1000MOL0     H31980   0.115   2.788   5.610 -2.0693 -1.1902  0.8237
 1000MOL0     H31981   0.148   2.627   5.682  0.7955  2.6865  2.2679
 1000MOL0     H31982   1.203   2.744   5.315  2.1657 -1.1409 -1.9052
 1000MOL0     H31983   1.402   2.838   5.244 -2.3296  0.6906  3.1768
 1000MOL0     H31984   1.695   2.958   4.937 -0.8123 -0.0324  0.9838
 1000MOL0     H31985   1.908   3.052   4.894 -1.7301 -1.5614  1.3652
 1000MOL0     H31986   3.665   3.761   5.420 -1.1961 -0.9203  1.1426
 1000MOL0     H31987   3.912   3.753   5.390 -1.4576  0.8091  1.0390
 1000MOL0     H31988   4.261   3.397   5.433 -1.0835  1.9683 -0.6099
 1000MOL0     H31989   4.486   3.383   5.534  2.0891  0.9947 -0.4425
 1000MOL0     H31990   4.696   3.362   5.464  3.1177 -2.5387  1.6099
 1000MOL0     H31991   4.723   3.437   5.616  2.5261  1.7921  1.2426
 1000MOL0     H31992   4.942   3.342   5.493  0.3250 -0.0301 -1.7951
 1000MOL0     H31993   4.893   3.442   5.355 -2.3877 -2.4201 -1.5949
 1000MOL0     H31994   4.959   3.559   5.638 -1.5702 -1.2065 -0.4235
 1000MOL0     H31995   4.972   3.646   5.489  1.6141 -0.7383 -1.8076
 1000MOL0     H31996   5.150   3.388   5.560  1.0034 -0.9041 -1.7275
 1000MOL0     H31997   5.142   3.471   5.404 -1.0745  0.6275  0.0983
 1000MOL0     H31998   5.361   3.768   5.610 -0.0232  0.7374 -0.2900
 1000MOL0     H31999   4.570   3.774   5.366  2.0256 -0.8198  0.4264
 1000MOL0     H32000   4.355   3.805   5.297  0.0224  1.0437 -0.0857
 1001MOL0     O32001   6.841   5.241   3.499 -0.1462  0.0802  0.3639
 1001MOL0     C32002   6.832   5.362   3.528 -0.8368 -0.8565  0.1487
 1001MOL0     O32003   6.730   5.451   3.490 -0.3786 -0.5384  0.0568
 1001MOL0     C32004   6.626   5.409   3.412 -0.2486  0.1386 -0.9868
 1001MOL0     C32005   6.656   5.387   3.274  1.1897 -0.1292 -0.0204
 1001MOL0     C32006   6.557   5.350   3.187 -1.1256  0.0125  0.4134
 1001MOL0     C32007   6.431   5.336   3.236  0.1623  0.0804 -1.0032
 1001MOL0     O32008   6.331   5.325   3.142 -0.4122  0.0061 -0.3840
 1001MOL0     C32009   6.361   5.234   3.039 -0.5566 -0.4525  0.7704
 1001MOL0     C32010   6.240   5.184   2.948  0.0040  0.3498 -0.4385
 1001MOL0     C32011   6.137   5.110   3.027  0.6893 -0.7465 -0.0318
 1001MOL0     C32012   6.003   5.075   2.976 -0.3057  1.0646 -0.4438
 1001MOL0     C32013   6.020   4.932   2.910  0.6213  0.3770 -0.0915
 1001MOL0     C32014   5.902   4.893   2.817  0.5001 -0.5630 -0.8334
 1001MOL0     C32015   5.816   4.781   2.879  0.2576  0.7276 -0.4201
 1001MOL0     C32016   5.843   4.631   2.840 -0.1769  1.2937  0.4966
 1001MOL0     N32017   5.754   4.544   2.919 -0.6546 -1.3233 -0.0321
 1001MOL0     C32018   5.624   4.535   2.894 -0.0631 -0.2386 -0.0549
 1001MOL0     C32019   5.586   4.423   2.969 -0.9726 -0.5958  0.2286
 1001MOL0     C32020   5.455   4.370   2.991 -1.0749 -0.0291 -0.7691
 1001MOL0     C32021   5.351   4.487   3.013  0.8635  0.3048 -0.3200
 1001MOL0     C32022   5.205   4.437   3.043 -0.7170 -0.0490 -0.2500
 1001MOL0     C32023   5.162   4.409   3.187 -0.0355 -0.0097 -0.9264
 1001MOL0     O32024   5.196   4.527   3.257 -0.0341  0.3087 -0.5931
 1001MOL0     C32025   5.135   4.654   3.243  0.0544  0.5840  1.1302
 1001MOL0     C32026   5.003   4.656   3.206  0.0194  0.5174 -1.4509
 1001MOL0     C32027   4.924   4.771   3.232  0.7245 -0.3694 -0.5148
 1001MOL0     C32028   4.981   4.882   3.301 -0.6365  0.4081 -0.4682
 1001MOL0     C32029   4.905   5.015   3.306 -1.0793  0.2277  0.6771
 1001MOL0     O32030   4.773   5.026   3.265 -0.0418  0.0963  0.3323
 1001MOL0     C32031   4.690   5.118   3.325 -0.0815  0.4497  0.3538
 1001MOL0     C32032   4.686   5.145   3.461  0.5824 -0.3282 -0.5505
 1001MOL0     C32033   4.584   5.222   3.514  0.2960  0.5618  0.3648
 1001MOL0     C32034   4.479   5.280   3.433  0.1122  0.1994  0.3902
 1001MOL0     O32035   4.379   5.366   3.484  0.0250  0.0286 -0.3832
 1001MOL0     C32036   4.425   5.460   3.585 -0.6756  0.5907  0.9683
 1001MOL0     C32037   4.360   5.592   3.569  0.0413 -0.2268  0.2685
 1001MOL0     C32038   4.203   5.578   3.549 -0.6711  0.1026  0.1169
 1001MOL0     C32039   4.148   5.715   3.508 -0.8089 -0.2726  0.3733
 1001MOL0     C32040   4.033   5.681   3.412  0.2486 -0.6517 -0.4394
 1001MOL0     C32041   3.965   5.808   3.368  0.2008  0.0133 -0.2454
 1001MOL0     C32042   3.819   5.785   3.308  0.1757 -0.6785 -0.7218
 1001MOL0     C32043   3.737   5.911   3.340 -0.1964  0.1455 -0.5457
 1001MOL0    Cl32044   3.589   5.905   3.247 -0.1374 -0.0480  0.3154
 1001MOL0     C32045   4.477   5.236   3.302  0.4544 -0.1687 -0.0355
 1001MOL0     C32046   4.581   5.163   3.247 -0.9596  1.0227  0.1277
 1001MOL0     O32047   4.968   5.109   3.356 -0.0561  0.3050  0.2594
 1001MOL0     C32048   5.117   4.878   3.339  0.6454  0.7098  0.4704
 1001MOL0     C32049   5.192   4.771   3.304  0.6118 -0.1897  0.0816
 1001MOL0     N32050   5.697   4.372   3.029 -0.5639 -0.2348  0.0711
 1001MOL0     N32051   5.801   4.448   3.002 -0.1710  0.4294 -0.3639
 1001MOL0     C32052   6.394   5.357   3.369  0.3283  0.4953  0.2449
 1001MOL0     C32053   6.493   5.397   3.456 -1.1728  0.4417 -0.1747
 1001MOL0     C32054   6.947   5.431   3.584  0.6189 -0.2289 -1.3937
 1001MOL0     C32055   6.926   5.536   3.678 -0.2288  0.4243 -0.1214
 1001MOL0     C32056   7.026   5.601   3.742 -0.3271 -0.1971  0.1610
 1001MOL0     C32057   7.162   5.568   3.705  0.5824  0.0785  0.0093
 1001MOL0     O32058   7.280   5.612   3.770  0.2189 -0.1961  1.0222
 1001MOL0     C32059   7.248   5.654   3.906 -0.4902  0.2019  0.3165
 1001MOL0     C32060   7.383   5.713   3.973 -0.0754 -0.2900  0.2938
 1001MOL0     C32061   7.505   5.627   3.969 -0.2119 -0.6419  0.0674
 1001MOL0     C32062   7.631   5.666   4.055  0.1599 -0.6503  0.1179
 1001MOL0     C32063   7.724   5.764   3.985  0.3403 -0.2030 -0.6043
 1001MOL0     C32064   7.798   5.832   3.916  0.0446  0.1905 -0.9599
 1001MOL0     C32065   7.183   5.459   3.613 -0.2973 -0.0525  0.0948
 1001MOL0     C32066   7.078   5.394   3.563  0.1552  0.9434  0.8537
 1001MOL0     H32067   6.759   5.395   3.240  0.9248  0.9477 -0.6419
 1001MOL0     H32068   6.593   5.330   3.087  2.1371 -0.8045  1.6207
 1001MOL0     H32069   6.414   5.150   3.083  1.7100 -0.5770 -1.8970
 1001MOL0     H32070   6.432   5.278   2.968  1.2451 -3.5117  0.4917
 1001MOL0     H32071   6.285   5.122   2.870 -0.5715  0.3966 -0.8140
 1001MOL0     H32072   6.185   5.264   2.898 -1.1886  0.4946  1.0372
 1001MOL0     H32073   6.121   5.170   3.117  1.9482 -2.5746  1.5140
 1001MOL0     H32074   6.184   5.021   3.071  0.3367 -0.2335  1.4442
 1001MOL0     H32075   5.935   5.087   3.061 -0.8259 -1.8327 -0.3577
 1001MOL0     H32076   5.965   5.148   2.904 -1.7090  1.5083  0.7041
 1001MOL0     H32077   6.039   4.862   2.991  5.1496  1.2151 -0.1357
 1001MOL0     H32078   6.112   4.940   2.850  1.2305  2.9515  1.0264
 1001MOL0     H32079   5.931   4.861   2.716 -0.8140 -4.0054 -0.2613
 1001MOL0     H32080   5.827   4.972   2.811 -2.5976 -3.0953  1.1571
 1001MOL0     H32081   5.817   4.798   2.988  1.0301 -1.3099 -0.0779
 1001MOL0     H32082   5.714   4.787   2.842  0.7455 -2.3113 -2.5392
 1001MOL0     H32083   5.948   4.602   2.851 -0.9191 -2.0027  0.0182
 1001MOL0     H32084   5.823   4.631   2.733 -2.6121 -1.3386  0.8300
 1001MOL0     H32085   5.567   4.595   2.822  0.5536  0.0770 -0.2850
 1001MOL0     H32086   5.457   4.297   3.073  2.4096 -1.0383 -1.6049
 1001MOL0     H32087   5.436   4.319   2.896  0.3662  1.8373 -2.1238
 1001MOL0     H32088   5.338   4.547   2.923 -3.2462 -1.4069 -1.0755
 1001MOL0     H32089   5.393   4.546   3.095 -2.0335 -0.4898  1.9007
 1001MOL0     H32090   5.141   4.521   3.014  0.0340  1.2724  1.7125
 1001MOL0     H32091   5.161   4.360   2.979 -0.0171 -0.7489  0.0888
 1001MOL0     H32092   5.222   4.324   3.222 -2.4623 -0.7864  1.7189
 1001MOL0     H32093   5.059   4.375   3.200 -0.2074  0.4557 -1.0782
 1001MOL0     H32094   4.941   4.571   3.179  1.4462 -0.4931 -1.6449
 1001MOL0     H32095   4.819   4.781   3.205  1.1234  1.8220 -1.5465
 1001MOL0     H32096   4.768   5.106   3.521  1.9040  3.7649  0.6363
 1001MOL0     H32097   4.601   5.251   3.618  1.5805  3.2445 -0.4946
 1001MOL0     H32098   4.531   5.484   3.571 -0.6633  0.8259  1.4474
 1001MOL0     H32099   4.404   5.425   3.686 -1.4860  3.3583  1.8398
 1001MOL0     H32100   4.409   5.646   3.488 -1.3611 -1.4176 -1.4427
 1001MOL0     H32101   4.385   5.657   3.654  1.8967  0.1535 -0.5075
 1001MOL0     H32102   4.143   5.532   3.628  1.0233  0.6767  1.8125
 1001MOL0     H32103   4.187   5.506   3.468 -2.9987  1.5314 -0.7864
 1001MOL0     H32104   4.122   5.777   3.594 -1.4797 -1.9492  1.4310
 1001MOL0     H32105   4.227   5.761   3.447  0.0212 -0.4333  1.3105
 1001MOL0     H32106   3.967   5.611   3.465 -0.7833  2.1539  2.3028
 1001MOL0     H32107   4.061   5.627   3.321 -0.2960 -1.5442 -0.0934
 1001MOL0     H32108   4.024   5.860   3.292  0.1225  0.1881 -0.1863
 1001MOL0     H32109   3.961   5.880   3.450  1.2019  1.6201 -1.5612
 1001MOL0     H32110   3.831   5.774   3.200 -0.1173 -0.1439 -0.8138
 1001MOL0     H32111   3.775   5.691   3.342  1.9001 -1.5442 -0.7841
 1001MOL0     H32112   3.795   6.000   3.314 -1.6645  1.6792  1.1611
 1001MOL0     H32113   3.722   5.919   3.448 -0.3990  2.3196 -0.6842
 1001MOL0     H32114   4.399   5.269   3.234 -0.1419  0.0924  0.7620
 1001MOL0     H32115   4.585   5.153   3.140 -0.8419  2.2640  0.0052
 1001MOL0     H32116   5.168   4.965   3.379 -0.0416  1.9153 -1.2140
 1001MOL0     H32117   5.294   4.767   3.342  0.9955  2.4417 -0.4091
 1001MOL0     H32118   6.292   5.340   3.402  0.5848  0.6623  1.1509
 1001MOL0     H32119   6.472   5.418   3.560  0.5288  1.6506 -0.0409
 1001MOL0     H32120   6.829   5.582   3.695  0.5574  1.9553  0.3675
 1001MOL0     H32121   6.989   5.680   3.808 -4.8020 -2.1662  0.4266
 1001MOL0     H32122   7.217   5.563   3.960  0.0297 -1.2077 -1.6339
 1001MOL0     H32123   7.172   5.732   3.914 -0.1656  1.0198 -2.9952
 1001MOL0     H32124   7.397   5.810   3.924  2.4804 -2.4781 -3.8439
 1001MOL0     H32125   7.363   5.743   4.077 -0.1606  0.7182 -0.0042
 1001MOL0     H32126   7.537   5.621   3.864  2.0179 -1.5280  0.7353
 1001MOL0     H32127   7.484   5.526   4.003 -0.1382  0.2926  3.1686
 1001MOL0     H32128   7.586   5.711   4.144 -0.6160  0.2860 -0.7185
 1001MOL0     H32129   7.675   5.571   4.085 -2.5545 -1.6355  1.2502
 1001MOL0     H32130   7.872   5.890   3.864  2.0937 -1.1535  0.2789
 1001MOL0     H32131   7.284   5.428   3.587 -0.3968  0.0228 -0.3987
 1001MOL0     H32132   7.095   5.305   3.504 -1.9073  1.7079 -1.0373
 1002MOL0     O32133   8.419   5.711   4.669 -0.2758  0.3456 -0.2152
 1002MOL0     C32134   8.474   5.651   4.582 -0.5054  1.2093 -0.5879
 1002MOL0     O32135   8.406   5.574   4.496 -0.2868  0.2307  0.9756
 1002MOL0     C32136   8.264   5.571   4.497  0.1489 -0.2137 -0.4588
 1002MOL0     C32137   8.193   5.448   4.519 -1.5300 -0.7608  0.2167
 1002MOL0     C32138   8.059   5.443   4.533 -0.2451  1.2683  0.3953
 1002MOL0     C32139   7.976   5.550   4.510 -0.0329  0.4595  0.9788
 1002MOL0     O32140   7.836   5.552   4.497 -0.1168 -0.7554  0.0292
 1002MOL0     C32141   7.755   5.435   4.513 -0.1599  1.3445  0.1621
 1002MOL0     C32142   7.614   5.453   4.554  0.8696  0.2251  0.2330
 1002MOL0     C32143   7.534   5.318   4.573 -0.1783 -0.7777  0.7688
 1002MOL0     C32144   7.452   5.286   4.444  0.2434  0.6022 -0.9989
 1002MOL0     C32145   7.324   5.372   4.432 -0.7368  1.0171 -0.3699
 1002MOL0     C32146   7.243   5.335   4.314  0.1485  0.3217 -0.2319
 1002MOL0     C32147   7.107   5.410   4.314 -0.2263  1.0760 -0.6297
 1002MOL0     C32148   7.130   5.552   4.283  0.3295  0.2327  0.3881
 1002MOL0     N32149   7.016   5.639   4.247 -0.2109 -0.5134  0.6556
 1002MOL0     C32150   7.013   5.767   4.273 -0.1206 -0.5432 -0.1721
 1002MOL0     C32151   6.904   5.811   4.211 -0.4550 -0.6439 -0.5313
 1002MOL0     C32152   6.866   5.959   4.204 -1.0860  0.5178 -0.8829
 1002MOL0     C32153   6.867   6.026   4.337 -0.8151  0.5938  0.2622
 1002MOL0     C32154   6.728   6.069   4.386  0.4061  0.2294 -0.2297
 1002MOL0     C32155   6.671   5.941   4.451  0.3442  0.4376  0.6090
 1002MOL0     O32156   6.531   5.962   4.458 -0.1957  0.2455 -0.1856
 1002MOL0     C32157   6.445   5.932   4.351  0.1835 -0.7843 -0.2424
 1002MOL0     C32158   6.457   5.835   4.251  0.1459 -0.3770  0.1305
 1002MOL0     C32159   6.365   5.815   4.151  0.3718  0.2007 -0.1104
 1002MOL0     C32160   6.249   5.891   4.144 -0.5019 -1.0599  1.8657
 1002MOL0     C32161   6.145   5.846   4.053 -1.6063  1.0674  0.0507
 1002MOL0     O32162   6.149   5.719   4.002  0.2190  0.7203  0.0000
 1002MOL0     C32163   6.040   5.664   3.935  0.0456  0.3444  0.5374
 1002MOL0     C32164   5.905   5.688   3.968 -0.7836 -0.4284  0.5566
 1002MOL0     C32165   5.814   5.603   3.900  0.1786  0.7735 -0.2945
 1002MOL0     C32166   5.864   5.494   3.815 -0.5976 -0.1645 -0.0037
 1002MOL0     O32167   5.782   5.398   3.755  1.2079 -0.3975  0.4458
 1002MOL0     C32168   5.638   5.423   3.743  0.8183  0.1472 -0.2972
 1002MOL0     C32169   5.584   5.305   3.647  0.4842  0.6858  0.2376
 1002MOL0     C32170   5.430   5.317   3.636 -0.2433 -1.2906  0.3262
 1002MOL0     C32171   5.362   5.215   3.555 -0.2373 -0.1398  0.3255
 1002MOL0     C32172   5.210   5.217   3.559 -0.5215 -0.3053  0.0147
 1002MOL0     C32173   5.151   5.203   3.693  0.2467 -0.4814  0.7596
 1002MOL0     C32174   5.009   5.162   3.718  0.3636 -0.0367 -0.8021
 1002MOL0     C32175   4.892   5.266   3.705 -0.4973 -0.1453  0.0200
 1002MOL0    Cl32176   4.917   5.395   3.822  0.1309 -0.0041  0.0397
 1002MOL0     C32177   5.997   5.481   3.780  0.9169  0.6056 -0.3630
 1002MOL0     C32178   6.082   5.570   3.839  0.2011 -0.9739 -0.2923
 1002MOL0     O32179   6.058   5.931   4.042  0.1084 -0.5859 -0.1446
 1002MOL0     C32180   6.241   6.001   4.226  0.3486 -0.0660 -0.8747
 1002MOL0     C32181   6.334   6.011   4.337  0.2962 -0.7336 -0.6596
 1002MOL0     N32182   6.838   5.706   4.152 -0.2940  0.2856  1.4232
 1002MOL0     N32183   6.911   5.595   4.166 -0.8457  0.1463  0.3887
 1002MOL0     C32184   8.045   5.673   4.483 -0.3239  0.1271  0.0109
 1002MOL0     C32185   8.184   5.687   4.480 -0.7525  0.0940  0.0374
 1002MOL0     C32186   8.617   5.680   4.555 -0.4668  0.2414 -0.4216
 1002MOL0     C32187   8.691   5.782   4.607  1.2619  0.3422 -0.6665
 1002MOL0     C32188   8.823   5.791   4.583  0.2504 -0.5026 -0.2135
 1002MOL0     C32189   8.900   5.695   4.516  0.0543 -0.4707  0.2259
 1002MOL0     O32190   9.034   5.725   4.490 -0.7816 -0.5819 -0.0648
 1002MOL0     C32191   9.111   5.632   4.415 -0.0483 -0.4767  0.1965
 1002MOL0     C32192   9.245   5.680   4.406 -0.3143  0.1824  0.3993
 1002MOL0     C32193   9.316   5.574   4.317  0.0143  0.0700  0.4797
 1002MOL0     C32194   9.439   5.637   4.252  0.3176 -0.0382  0.5745
 1002MOL0     C32195   9.493   5.550   4.154  0.1878 -0.1322 -0.4958
 1002MOL0     C32196   9.566   5.482   4.072  0.1121 -0.0399 -0.7106
 1002MOL0     C32197   8.824   5.590   4.460 -0.1058 -0.0241 -0.1096
 1002MOL0     C32198   8.689   5.575   4.483  0.6399 -1.2747 -0.1637
 1002MOL0     H32199   8.242   5.351   4.528 -1.2319 -0.4250  3.2822
 1002MOL0     H32200   8.001   5.351   4.533 -0.7731  1.5810 -0.9367
 1002MOL0     H32201   7.800   5.368   4.586 -4.8145  1.1704  3.2327
 1002MOL0     H32202   7.757   5.385   4.416  0.7867 -0.1296  0.9137
 1002MOL0     H32203   7.569   5.520   4.481  0.9885 -1.0450 -1.0542
 1002MOL0     H32204   7.609   5.519   4.641 -2.6509  2.9539 -1.7927
 1002MOL0     H32205   7.464   5.341   4.654  0.4845 -0.6647  1.3140
 1002MOL0     H32206   7.601   5.236   4.599  3.2659  1.7860  0.7688
 1002MOL0     H32207   7.511   5.297   4.352  2.4099  0.0434  0.2642
 1002MOL0     H32208   7.414   5.184   4.448 -1.5268  0.9420 -4.4669
 1002MOL0     H32209   7.352   5.477   4.438  0.8976  0.6112 -0.4676
 1002MOL0     H32210   7.268   5.349   4.523 -0.0133  1.0223  0.0875
 1002MOL0     H32211   7.217   5.231   4.335  0.0851  0.7510  2.1463
 1002MOL0     H32212   7.300   5.355   4.223  4.3733 -1.8592  1.6406
 1002MOL0     H32213   7.046   5.368   4.234  1.6894  0.9849 -2.1325
 1002MOL0     H32214   7.060   5.395   4.412  3.3025  4.0704  1.7940
 1002MOL0     H32215   7.199   5.563   4.199  0.1123  3.6067  0.4847
 1002MOL0     H32216   7.189   5.598   4.363  0.3773  1.0898 -0.1230
 1002MOL0     H32217   7.087   5.829   4.323 -0.1119 -0.1360 -0.6784
 1002MOL0     H32218   6.778   5.982   4.143 -1.1705  2.4613 -0.0940
 1002MOL0     H32219   6.940   6.013   4.143  1.9786 -1.6347  0.6443
 1002MOL0     H32220   6.920   6.121   4.342 -0.2532  0.2681  0.5490
 1002MOL0     H32221   6.928   5.972   4.410  0.8691  1.3764 -0.5244
 1002MOL0     H32222   6.738   6.145   4.464 -0.9920  2.4002 -2.0709
 1002MOL0     H32223   6.666   6.115   4.309 -0.5537 -1.0330 -0.2399
 1002MOL0     H32224   6.724   5.930   4.546  0.9474  0.5452  0.2887
 1002MOL0     H32225   6.694   5.848   4.398  2.4889  0.9002  0.6145
 1002MOL0     H32226   6.540   5.765   4.254 -1.9202 -2.9610  2.6944
 1002MOL0     H32227   6.387   5.735   4.081 -2.5206  0.3193 -1.2750
 1002MOL0     H32228   5.883   5.761   4.046  3.6570  2.5084 -0.5391
 1002MOL0     H32229   5.708   5.611   3.921  0.1890  2.4905 -0.7098
 1002MOL0     H32230   5.614   5.524   3.708  1.5996  0.7696  0.8675
 1002MOL0     H32231   5.592   5.421   3.843  1.8826 -1.4073  0.1979
 1002MOL0     H32232   5.625   5.218   3.700  2.9766  1.3660 -0.4583
 1002MOL0     H32233   5.633   5.307   3.549  3.3327 -1.0526  1.4995
 1002MOL0     H32234   5.411   5.418   3.598 -2.6321 -1.6062  0.5131
 1002MOL0     H32235   5.388   5.313   3.738 -0.4854 -1.5060  0.2213
 1002MOL0     H32236   5.410   5.222   3.457  2.3744  0.9469  1.6125
 1002MOL0     H32237   5.399   5.119   3.591  0.1501  0.1386  0.6665
 1002MOL0     H32238   5.172   5.142   3.490 -3.6693 -1.9433  3.2475
 1002MOL0     H32239   5.181   5.315   3.521 -3.3071 -0.7546  0.7614
 1002MOL0     H32240   5.172   5.295   3.747  1.0041  0.5186 -1.1402
 1002MOL0     H32241   5.214   5.120   3.729  0.8529 -0.3141  0.1182
 1002MOL0     H32242   4.979   5.077   3.655 -1.3684  2.1131 -3.0677
 1002MOL0     H32243   5.001   5.131   3.822  0.9640 -0.3017 -0.8323
 1002MOL0     H32244   4.796   5.216   3.721 -0.1058 -1.0676 -0.4294
 1002MOL0     H32245   4.891   5.309   3.604  1.2741  2.1466  0.8797
 1002MOL0     H32246   6.036   5.406   3.712 -1.5230  0.4309 -1.6592
 1002MOL0     H32247   6.187   5.547   3.827 -0.1471 -1.9522 -1.7020
 1002MOL0     H32248   6.156   6.066   4.206  0.8488  0.5298 -1.1025
 1002MOL0     H32249   6.323   6.082   4.418 -0.0247  0.7416 -1.9507
 1002MOL0     H32250   7.993   5.766   4.462  0.2238  0.5065  0.2980
 1002MOL0     H32251   8.240   5.780   4.475  0.8476 -0.8511 -0.3460
 1002MOL0     H32252   8.638   5.861   4.659 -0.3645 -0.6488 -0.7145
 1002MOL0     H32253   8.865   5.882   4.624 -0.0368  0.2443 -1.5096
 1002MOL0     H32254   9.070   5.638   4.314  0.1718  0.2871  0.1504
 1002MOL0     H32255   9.109   5.529   4.453  0.6183 -0.6606 -0.2500
 1002MOL0     H32256   9.246   5.785   4.376 -1.6353  1.0023  2.8927
 1002MOL0     H32257   9.286   5.677   4.507  2.8018 -2.6884 -0.7772
 1002MOL0     H32258   9.247   5.536   4.241 -1.3946  0.2345  1.6380
 1002MOL0     H32259   9.350   5.486   4.373  0.0605  0.6826  1.4467
 1002MOL0     H32260   9.416   5.732   4.203 -3.4868 -0.0952  1.9546
 1002MOL0     H32261   9.511   5.655   4.333  0.4308 -0.1236  0.4938
 1002MOL0     H32262   9.635   5.426   4.012  0.4146  0.7173 -1.0749
 1002MOL0     H32263   8.872   5.511   4.403 -0.4593 -0.9771  0.8754
 1002MOL0     H32264   8.640   5.490   4.437 -0.3837  0.2862 -2.0940
 1003MOL0     O32265   8.301   6.490   1.613  0.4134 -0.3391  0.0101
 1003MOL0     C32266   8.321   6.607   1.595 -0.6644 -0.3178  0.2427
 1003MOL0     O32267   8.234   6.710   1.621  0.5254  0.4556 -0.2048
 1003MOL0     C32268   8.121   6.687   1.697 -0.1658 -0.1054  0.4913
 1003MOL0     C32269   7.998   6.711   1.629 -0.4362 -1.7638  0.1327
 1003MOL0     C32270   7.881   6.709   1.701  0.7783  0.8193  0.2670
 1003MOL0     C32271   7.878   6.660   1.828 -0.8034  1.4446  0.3810
 1003MOL0     O32272   7.753   6.629   1.886 -0.2547 -0.0948  0.3437
 1003MOL0     C32273   7.730   6.501   1.934  0.0625 -0.0387 -0.0257
 1003MOL0     C32274   7.583   6.484   1.975 -0.9986  0.4719 -1.2135
 1003MOL0     C32275   7.558   6.348   2.057 -0.0421 -0.8956  0.1902
 1003MOL0     C32276   7.411   6.329   2.071  0.1848 -0.0805  0.6088
 1003MOL0     C32277   7.336   6.301   1.928 -0.1411  0.4129  0.0873
 1003MOL0     C32278   7.207   6.214   1.948 -0.2352 -0.4518 -0.4371
 1003MOL0     C32279   7.103   6.278   2.041 -0.4900  0.4486 -0.0224
 1003MOL0     C32280   6.985   6.186   2.074  0.5142 -0.1879 -0.4300
 1003MOL0     N32281   7.007   6.092   2.183  0.4003  0.6216  0.1698
 1003MOL0     C32282   7.078   6.102   2.302  0.3165  0.3668  0.3120
 1003MOL0     C32283   7.067   5.989   2.376 -1.0220  0.4897 -0.6026
 1003MOL0     C32284   7.105   5.938   2.521 -0.7857 -0.3874  1.1245
 1003MOL0     C32285   7.055   6.047   2.616  0.4340 -0.4548  0.0353
 1003MOL0     C32286   7.113   6.031   2.753 -0.5826 -0.9421  0.2915
 1003MOL0     C32287   7.113   6.151   2.852  0.1211  0.3189 -0.2952
 1003MOL0     O32288   6.989   6.228   2.849  0.3230  0.2078  0.4366
 1003MOL0     C32289   6.880   6.166   2.901  0.0884  0.2911  0.5523
 1003MOL0     C32290   6.760   6.150   2.825 -0.3982 -0.9420 -0.3620
 1003MOL0     C32291   6.641   6.114   2.889  0.1009  0.2007  0.4341
 1003MOL0     C32292   6.638   6.092   3.026  0.3388 -0.6840 -0.3114
 1003MOL0     C32293   6.513   6.050   3.089  0.3999 -0.0565  0.0438
 1003MOL0     O32294   6.410   5.996   3.014  0.2421 -0.4368 -0.8732
 1003MOL0     C32295   6.309   5.926   3.069  0.6591  0.1898 -1.0899
 1003MOL0     C32296   6.328   5.835   3.178  0.1269 -0.1373  0.6339
 1003MOL0     C32297   6.219   5.770   3.246  0.0158  0.1997 -0.0347
 1003MOL0     C32298   6.089   5.792   3.203 -0.0069 -0.8053  0.3474
 1003MOL0     O32299   5.973   5.734   3.266  0.6503 -0.0364  0.8107
 1003MOL0     C32300   5.997   5.645   3.371  0.6088  1.3779  0.0921
 1003MOL0     C32301   5.854   5.599   3.414 -0.7683  0.1393 -0.1467
 1003MOL0     C32302   5.791   5.507   3.308  0.5342 -0.1866 -0.5908
 1003MOL0     C32303   5.631   5.531   3.316 -0.5125 -0.2939  0.2227
 1003MOL0     C32304   5.550   5.449   3.213 -0.8509  0.1520 -0.3583
 1003MOL0     C32305   5.402   5.463   3.223 -0.8202  0.6514 -0.2145
 1003MOL0     C32306   5.316   5.356   3.144 -0.7343  0.9512 -0.0723
 1003MOL0     C32307   5.165   5.392   3.120 -0.2715 -0.5153 -0.5714
 1003MOL0    Cl32308   5.158   5.484   2.965  0.2639  0.0037  0.1902
 1003MOL0     C32309   6.074   5.880   3.086  0.7358  1.0235  0.4106
 1003MOL0     C32310   6.177   5.936   3.020 -0.2889  0.7171 -0.4096
 1003MOL0     O32311   6.515   6.056   3.215 -0.0540  0.1442 -0.2232
 1003MOL0     C32312   6.753   6.119   3.102  0.3119  0.2962 -0.3041
 1003MOL0     C32313   6.872   6.152   3.040  0.4455  0.3935  0.0257
 1003MOL0     N32314   6.979   5.905   2.297 -1.1011  0.5981  0.4534
 1003MOL0     N32315   6.954   5.963   2.184  0.2207 -0.6292 -0.0688
 1003MOL0     C32316   7.999   6.632   1.902  0.2899 -0.3570  0.3489
 1003MOL0     C32317   8.125   6.636   1.829 -0.2256  0.5751  0.3143
 1003MOL0     C32318   8.448   6.638   1.535  0.2446 -0.5245  0.3755
 1003MOL0     C32319   8.559   6.540   1.504 -0.3687 -0.4761  0.0252
 1003MOL0     C32320   8.678   6.573   1.437  0.5198 -0.1195 -0.0747
 1003MOL0     C32321   8.690   6.706   1.395 -0.4184  0.2130 -0.8399
 1003MOL0     O32322   8.803   6.750   1.327 -1.4403 -0.2433 -0.2756
 1003MOL0     C32323   8.941   6.730   1.367 -0.2485 -0.0207 -0.2467
 1003MOL0     C32324   9.025   6.680   1.246 -0.3708 -1.0651  0.5153
 1003MOL0     C32325   9.025   6.786   1.135 -1.1363 -1.5021  0.8449
 1003MOL0     C32326   9.117   6.753   1.029 -0.2019  0.8698  0.5194
 1003MOL0     C32327   9.083   6.630   0.949 -0.0484 -0.1204 -0.4565
 1003MOL0     C32328   9.071   6.524   0.906 -0.3056  1.1869  0.5656
 1003MOL0     C32329   8.596   6.805   1.424  0.6721 -0.5934  0.0629
 1003MOL0     C32330   8.474   6.767   1.489  0.5116 -0.4211  0.4301
 1003MOL0     H32331   8.013   6.754   1.530 -0.5228  2.5362  1.7322
 1003MOL0     H32332   7.783   6.730   1.659  0.8333 -1.4604 -1.2098
 1003MOL0     H32333   7.782   6.482   2.028  1.0369 -0.4278 -0.6240
 1003MOL0     H32334   7.761   6.422   1.864 -0.8237  1.0564 -1.7390
 1003MOL0     H32335   7.521   6.477   1.886 -0.5124 -2.2717 -1.4350
 1003MOL0     H32336   7.561   6.573   2.035  2.5706  0.1318  0.9120
 1003MOL0     H32337   7.615   6.361   2.150 -0.1119  2.4577 -0.0902
 1003MOL0     H32338   7.606   6.263   2.007  2.5275 -1.1011  2.7192
 1003MOL0     H32339   7.386   6.248   2.140 -0.1910 -0.8705 -0.4250
 1003MOL0     H32340   7.377   6.421   2.120  0.0557 -0.4465  1.2151
 1003MOL0     H32341   7.412   6.245   1.873  0.9041 -1.6841  3.3813
 1003MOL0     H32342   7.310   6.393   1.874  2.4395  0.7603 -0.7205
 1003MOL0     H32343   7.229   6.115   1.989  1.6313 -0.5011 -1.4042
 1003MOL0     H32344   7.168   6.195   1.848 -3.3368 -1.9015  0.9481
 1003MOL0     H32345   7.155   6.323   2.126 -0.0715  1.5663 -0.8499
 1003MOL0     H32346   7.055   6.358   1.984  2.7680  1.1654 -2.0211
 1003MOL0     H32347   6.947   6.131   1.987  1.3242 -1.6175  0.0743
 1003MOL0     H32348   6.894   6.234   2.110 -0.0929 -1.8798  0.3883
 1003MOL0     H32349   7.154   6.176   2.327  0.1157  0.2930  1.1704
 1003MOL0     H32350   7.213   5.922   2.512 -0.9407 -1.7585  1.5509
 1003MOL0     H32351   7.060   5.842   2.545  0.0812 -0.7638  1.3033
 1003MOL0     H32352   6.947   6.065   2.627  0.2745 -0.7894 -0.9354
 1003MOL0     H32353   7.099   6.136   2.570  0.1104 -0.4720 -0.3095
 1003MOL0     H32354   7.059   5.955   2.809 -2.5428  0.4437  0.3722
 1003MOL0     H32355   7.217   5.999   2.744 -0.2686 -0.3286  1.6120
 1003MOL0     H32356   7.192   6.220   2.822  1.4980 -1.0362  0.0655
 1003MOL0     H32357   7.136   6.119   2.954  2.5191  2.4086 -0.1043
 1003MOL0     H32358   6.751   6.185   2.723 -1.0631 -2.7836 -0.9693
 1003MOL0     H32359   6.544   6.123   2.840 -0.2490  2.6371  1.4378
 1003MOL0     H32360   6.427   5.823   3.221  1.5510  2.1544 -1.7155
 1003MOL0     H32361   6.235   5.694   3.321 -4.1365 -2.0994 -1.1466
 1003MOL0     H32362   6.052   5.690   3.454 -2.0482  0.7940  2.3094
 1003MOL0     H32363   6.058   5.563   3.330  1.4637  2.4773 -0.9108
 1003MOL0     H32364   5.783   5.681   3.429  0.6402  1.2421  0.8699
 1003MOL0     H32365   5.858   5.559   3.516  0.3030 -0.5558 -0.4464
 1003MOL0     H32366   5.814   5.401   3.324 -1.5202 -0.3405  1.9821
 1003MOL0     H32367   5.835   5.541   3.214  1.6263  1.7035  0.5480
 1003MOL0     H32368   5.605   5.498   3.417  0.6389 -4.1238 -0.5801
 1003MOL0     H32369   5.609   5.637   3.304  1.8567  0.3051  0.7425
 1003MOL0     H32370   5.573   5.346   3.243  1.8749  0.8209  0.0985
 1003MOL0     H32371   5.581   5.462   3.109  0.9765 -0.5783  0.0528
 1003MOL0     H32372   5.381   5.562   3.183  0.4588  0.7905 -0.5817
 1003MOL0     H32373   5.373   5.465   3.329  0.7859 -2.2325  0.3814
 1003MOL0     H32374   5.354   5.317   3.050  0.2100 -0.4779  0.8613
 1003MOL0     H32375   5.320   5.272   3.214 -5.5560  1.4286  1.1588
 1003MOL0     H32376   5.123   5.441   3.208  0.1668 -1.8097  0.3802
 1003MOL0     H32377   5.094   5.310   3.105 -0.4419 -0.1495 -1.9408
 1003MOL0     H32378   5.972   5.901   3.054  0.3373 -1.3383 -0.0546
 1003MOL0     H32379   6.158   6.004   2.937  0.3389  0.8409 -0.4609
 1003MOL0     H32380   6.747   6.107   3.210 -2.6527  4.3990  0.2454
 1003MOL0     H32381   6.962   6.161   3.100  0.7819  1.4693 -0.6059
 1003MOL0     H32382   8.001   6.600   2.005  0.6763 -0.3963  0.3314
 1003MOL0     H32383   8.222   6.609   1.870  0.2568  3.1225  1.0410
 1003MOL0     H32384   8.560   6.434   1.528 -2.4227 -0.2809  1.2668
 1003MOL0     H32385   8.753   6.498   1.412 -0.1725  0.3222 -4.1695
 1003MOL0     H32386   8.932   6.653   1.444  1.9320 -1.0888 -1.0057
 1003MOL0     H32387   8.960   6.825   1.418 -0.7805 -1.4684  2.9236
 1003MOL0     H32388   9.128   6.655   1.271  0.8248 -1.9188 -4.2465
 1003MOL0     H32389   8.988   6.582   1.213  0.6691 -1.5309  0.6904
 1003MOL0     H32390   9.064   6.881   1.171 -1.3438 -1.0030 -0.2097
 1003MOL0     H32391   8.926   6.800   1.090 -0.9298  1.1932  1.0781
 1003MOL0     H32392   9.143   6.841   0.970 -0.2512  1.7034  1.7196
 1003MOL0     H32393   9.212   6.729   1.077 -0.1560  0.1968  0.1147
 1003MOL0     H32394   9.088   6.433   0.851  0.3667  1.3070  0.5648
 1003MOL0     H32395   8.622   6.906   1.395 -2.0062  1.0663  2.7746
 1003MOL0     H32396   8.405   6.850   1.496  2.6556  1.5644 -0.5367
 1004MOL0     O32397   3.980   2.446   0.544  0.5994 -0.0987 -0.3392
 1004MOL0     C32398   4.033   2.339   0.529 -0.1480  0.1543 -0.7985
 1004MOL0     O32399   3.969   2.215   0.527  0.5781 -0.7327 -0.2115
 1004MOL0     C32400   3.836   2.209   0.550  0.0574 -0.4090 -0.3687
 1004MOL0     C32401   3.794   2.159   0.675  0.0914 -0.1655 -0.1158
 1004MOL0     C32402   3.655   2.138   0.689  0.0667  0.4800 -0.2359
 1004MOL0     C32403   3.564   2.162   0.590 -0.5146  0.6036  0.4991
 1004MOL0     O32404   3.434   2.122   0.616  0.4142 -0.6382 -0.7486
 1004MOL0     C32405   3.343   2.116   0.504  0.6016 -0.4503 -0.0319
 1004MOL0     C32406   3.217   2.044   0.524  0.5377 -0.5345 -0.6370
 1004MOL0     C32407   3.235   1.891   0.533 -0.2069  0.2542  0.6338
 1004MOL0     C32408   3.221   1.826   0.669  0.4717 -0.4801 -0.4128
 1004MOL0     C32409   3.083   1.825   0.724  0.6794 -0.0453 -0.4345
 1004MOL0     C32410   3.080   1.754   0.860 -0.4217  0.4065 -1.3828
 1004MOL0     C32411   2.947   1.679   0.891 -0.2480  0.9533  0.5524
 1004MOL0     C32412   2.961   1.604   1.027  0.1003  0.3531 -0.1140
 1004MOL0     N32413   2.838   1.534   1.057  0.2592 -0.3167  0.1628
 1004MOL0     C32414   2.715   1.582   1.027  0.2298  0.2770 -0.2936
 1004MOL0     C32415   2.631   1.471   1.026 -0.3828 -0.7743  1.0102
 1004MOL0     C32416   2.484   1.481   1.003  0.8578 -0.2895  0.4234
 1004MOL0     C32417   2.432   1.347   0.942  0.5167 -0.2308 -0.8615
 1004MOL0     C32418   2.300   1.377   0.867 -0.1156 -0.2400 -0.8169
 1004MOL0     C32419   2.222   1.262   0.815 -0.2857 -0.2874  0.7271
 1004MOL0     O32420   2.153   1.189   0.917 -0.5723 -0.3264  0.1491
 1004MOL0     C32421   2.037   1.240   0.964 -0.9239  0.1425  0.5257
 1004MOL0     C32422   2.020   1.329   1.066 -0.4138 -0.9896 -0.1981
 1004MOL0     C32423   1.892   1.374   1.100 -0.5870  0.1379  0.8789
 1004MOL0     C32424   1.779   1.330   1.021 -0.7584  0.3635  0.4724
 1004MOL0     C32425   1.644   1.390   1.043  0.1507  0.9489  0.4349
 1004MOL0     O32426   1.547   1.359   0.953  0.3185  0.5370 -0.0087
 1004MOL0     C32427   1.413   1.394   0.949 -0.2957 -0.1117  0.3540
 1004MOL0     C32428   1.379   1.530   0.959 -0.2195  0.2471  0.0283
 1004MOL0     C32429   1.251   1.579   0.933  0.1084  0.6906  0.5837
 1004MOL0     C32430   1.154   1.486   0.906  1.4853 -0.5836 -0.4158
 1004MOL0     O32431   1.026   1.531   0.892 -0.0146 -0.0420  0.4041
 1004MOL0     C32432   0.929   1.491   0.985 -0.7615 -0.0789  0.4120
 1004MOL0     C32433   0.835   1.603   1.028  0.2312  0.3487 -0.3245
 1004MOL0     C32434   0.751   1.578   1.155  0.6303  0.0825 -0.1005
 1004MOL0     C32435   0.799   1.516   1.285  0.4966 -0.2428 -0.5844
 1004MOL0     C32436   0.693   1.495   1.397  0.2054 -0.4346 -0.1401
 1004MOL0     C32437   0.744   1.430   1.521 -0.5098  0.7339 -0.5429
 1004MOL0     C32438   0.834   1.314   1.506  0.1465 -0.1053  0.0936
 1004MOL0     C32439   0.754   1.194   1.569  0.3631 -0.4787 -0.1173
 1004MOL0    Cl32440   0.589   1.152   1.515  0.0250  0.2666 -0.1461
 1004MOL0     C32441   1.181   1.344   0.886  0.0239 -0.1507 -0.0040
 1004MOL0     C32442   1.316   1.303   0.907  0.4510  0.2859 -0.1973
 1004MOL0     O32443   1.635   1.468   1.136  0.3147 -0.8527  0.3789
 1004MOL0     C32444   1.804   1.233   0.917 -0.5349 -0.6278  0.6030
 1004MOL0     C32445   1.932   1.186   0.901  0.5120  0.0190 -0.0083
 1004MOL0     N32446   2.717   1.366   1.057  0.0148  0.6138 -0.2395
 1004MOL0     N32447   2.836   1.400   1.084 -0.9404 -0.6430 -0.4088
 1004MOL0     C32448   3.610   2.241   0.482 -0.2694 -0.3989  0.1624
 1004MOL0     C32449   3.744   2.251   0.455 -0.6051  0.0844  0.3527
 1004MOL0     C32450   4.176   2.338   0.517 -0.4133 -0.3790  0.4920
 1004MOL0     C32451   4.256   2.444   0.493  0.5957  0.1031  1.1979
 1004MOL0     C32452   4.392   2.438   0.488  0.3958  0.5507  0.4612
 1004MOL0     C32453   4.454   2.316   0.485  0.3233  0.2494  0.3913
 1004MOL0     O32454   4.585   2.297   0.465  0.4153  0.2740 -0.6400
 1004MOL0     C32455   4.687   2.404   0.479  0.0055 -0.0705  0.1187
 1004MOL0     C32456   4.819   2.340   0.437 -0.2596  0.4707  0.1714
 1004MOL0     C32457   4.903   2.448   0.371 -0.3680  0.0022  0.3135
 1004MOL0     C32458   5.028   2.390   0.301  0.9153 -0.6681 -0.0563
 1004MOL0     C32459   5.132   2.332   0.389 -0.2976 -0.6591  0.7198
 1004MOL0     C32460   5.227   2.281   0.441 -0.1171  0.3508 -0.7008
 1004MOL0     C32461   4.375   2.205   0.509 -1.0050  0.0484 -0.2796
 1004MOL0     C32462   4.241   2.216   0.518 -0.0222  0.4480 -0.4018
 1004MOL0     H32463   3.865   2.147   0.757  2.2878 -2.5668 -2.1782
 1004MOL0     H32464   3.629   2.090   0.783 -0.0168  0.6800 -0.1551
 1004MOL0     H32465   3.401   2.072   0.422  1.4201  1.6521 -0.6514
 1004MOL0     H32466   3.310   2.214   0.468 -0.9462 -0.5395  1.0351
 1004MOL0     H32467   3.150   2.064   0.439 -1.7503  0.5219  1.2734
 1004MOL0     H32468   3.164   2.082   0.612 -2.7776 -3.2104 -1.2496
 1004MOL0     H32469   3.331   1.858   0.494 -1.7113 -0.8896 -2.4696
 1004MOL0     H32470   3.163   1.833   0.474 -0.5316 -2.0164  3.0350
 1004MOL0     H32471   3.260   1.724   0.656  3.7054  0.5176  0.3698
 1004MOL0     H32472   3.271   1.882   0.749  0.9364 -3.3161  1.4397
 1004MOL0     H32473   3.006   1.772   0.666  0.1272 -2.7405  2.4254
 1004MOL0     H32474   3.058   1.931   0.734  2.9902  0.7219 -2.0482
 1004MOL0     H32475   3.085   1.834   0.935 -0.9663 -3.8489  3.8063
 1004MOL0     H32476   3.170   1.694   0.872 -0.0940  1.0233 -0.6539
 1004MOL0     H32477   2.861   1.747   0.890 -2.1671 -1.3369  0.9056
 1004MOL0     H32478   2.928   1.604   0.813 -1.2294 -0.5171  2.1392
 1004MOL0     H32479   2.981   1.676   1.106  0.6291 -0.4432  0.4945
 1004MOL0     H32480   3.050   1.541   1.033  2.1287  2.8476 -1.6332
 1004MOL0     H32481   2.682   1.682   1.001 -0.5393 -0.1238 -0.8913
 1004MOL0     H32482   2.463   1.563   0.933 -0.4786 -1.1827 -0.2723
 1004MOL0     H32483   2.435   1.500   1.099  0.0363  0.9597 -0.2193
 1004MOL0     H32484   2.416   1.271   1.018 -2.8048  0.0990 -1.0625
 1004MOL0     H32485   2.494   1.313   0.858  0.2237  1.6215 -1.8944
 1004MOL0     H32486   2.234   1.436   0.930 -1.0484 -1.5508 -0.5161
 1004MOL0     H32487   2.322   1.442   0.782 -0.0092  1.3427  0.3716
 1004MOL0     H32488   2.291   1.205   0.752 -0.9510  1.8111 -2.1311
 1004MOL0     H32489   2.154   1.308   0.742  1.7497  0.0473 -1.0712
 1004MOL0     H32490   2.116   1.363   1.102  0.6557 -1.8368 -2.0958
 1004MOL0     H32491   1.889   1.437   1.188  0.8993 -1.5670  2.2273
 1004MOL0     H32492   1.462   1.600   0.969 -0.6383  0.3734  5.7726
 1004MOL0     H32493   1.223   1.683   0.943 -1.4255  0.3424  0.2652
 1004MOL0     H32494   0.980   1.448   1.071  0.6205  0.5165 -0.0789
 1004MOL0     H32495   0.861   1.418   0.939 -1.5582  1.3955 -0.8725
 1004MOL0     H32496   0.770   1.623   0.942  0.6774 -1.3297 -1.0963
 1004MOL0     H32497   0.901   1.690   1.036  0.7167 -0.1500  1.6246
 1004MOL0     H32498   0.671   1.514   1.117  1.2610 -0.3395 -0.7471
 1004MOL0     H32499   0.707   1.672   1.190  2.6044  1.2241 -0.5324
 1004MOL0     H32500   0.822   1.414   1.253 -0.1502 -0.2786 -0.9433
 1004MOL0     H32501   0.875   1.589   1.317 -2.4942  2.4520  1.0005
 1004MOL0     H32502   0.609   1.435   1.361 -0.1038 -3.3014  4.4543
 1004MOL0     H32503   0.648   1.592   1.423 -0.3764  1.0253 -5.5079
 1004MOL0     H32504   0.660   1.403   1.586  1.3309 -1.5727  1.0324
 1004MOL0     H32505   0.795   1.505   1.583 -0.5436 -2.3081  3.6014
 1004MOL0     H32506   0.858   1.287   1.402  2.1150  0.9633  0.2272
 1004MOL0     H32507   0.921   1.332   1.570 -0.6277  2.1378  0.6013
 1004MOL0     H32508   0.747   1.216   1.676 -3.3859  0.8876 -0.4908
 1004MOL0     H32509   0.821   1.108   1.556  1.3486  0.0514  1.1338
 1004MOL0     H32510   1.105   1.267   0.873  1.1208 -1.4857  1.2448
 1004MOL0     H32511   1.342   1.197   0.902  2.4201  0.7792 -1.2568
 1004MOL0     H32512   1.714   1.195   0.870 -0.2272 -0.0296 -0.5064
 1004MOL0     H32513   1.958   1.099   0.842  5.7549 -1.2022  3.3465
 1004MOL0     H32514   3.539   2.282   0.411 -0.0763 -1.3383 -0.5914
 1004MOL0     H32515   3.780   2.296   0.362 -1.5719  1.2251  0.5097
 1004MOL0     H32516   4.208   2.541   0.483 -0.7758 -0.6017  0.6641
 1004MOL0     H32517   4.453   2.522   0.455 -0.5019  0.4341 -1.6965
 1004MOL0     H32518   4.707   2.435   0.582  2.4216 -1.4581  0.1350
 1004MOL0     H32519   4.671   2.492   0.416  2.5756  1.2985  1.2298
 1004MOL0     H32520   4.868   2.303   0.528  2.0184  0.2367 -1.0738
 1004MOL0     H32521   4.797   2.267   0.359  1.9845  1.5973 -1.6114
 1004MOL0     H32522   4.934   2.516   0.450 -1.1315 -0.0587  0.6796
 1004MOL0     H32523   4.850   2.509   0.297 -0.2539 -1.6604 -1.2259
 1004MOL0     H32524   4.999   2.317   0.225 -2.6580 -2.1356  2.4631
 1004MOL0     H32525   5.076   2.472   0.248  1.6389 -1.9086 -1.3978
 1004MOL0     H32526   5.311   2.245   0.499 -0.1005 -0.0804 -0.9885
 1004MOL0     H32527   4.421   2.110   0.534  1.2778  0.6900 -1.7762
 1004MOL0     H32528   4.183   2.127   0.536 -1.1702  1.3017  0.2338
 1005MOL0     O32529   0.158   2.863   9.311  0.0080 -0.0787  1.5944
 1005MOL0     C32530   0.279   2.838   9.316  0.6236 -0.1620  0.4608
 1005MOL0     O32531   0.376   2.862   9.215  0.1415  0.1056 -0.3222
 1005MOL0     C32532   0.330   2.904   9.093 -0.2774  0.3697  0.0068
 1005MOL0     C32533   0.219   2.847   9.030  0.3500  0.2140 -0.4923
 1005MOL0     C32534   0.176   2.878   8.901  0.5945  0.3060  0.5598
 1005MOL0     C32535   0.239   2.970   8.824  0.3205 -0.0190 -0.0409
 1005MOL0     O32536   0.183   2.995   8.701  0.6213 -0.0019  0.6184
 1005MOL0     C32537   0.256   3.076   8.609 -0.4394  0.1095  0.1089
 1005MOL0     C32538   0.173   3.142   8.501 -0.0272 -0.4772 -0.1141
 1005MOL0     C32539   0.097   3.038   8.429  0.0702 -0.7950 -0.4444
 1005MOL0     C32540   0.042   3.088   8.298  0.3748 -0.1187  0.0197
 1005MOL0     C32541  -0.022   2.972   8.221  0.1466 -0.6726 -0.1455
 1005MOL0     C32542  -0.065   3.026   8.087 -1.3902 -0.5771 -1.1701
 1005MOL0     C32543  -0.103   2.911   7.990  0.2259 -1.7865 -0.3447
 1005MOL0     C32544  -0.211   2.821   8.041  0.3697  0.4731  0.4029
 1005MOL0     N32545  -0.278   2.750   7.933  1.0329 -0.8550 -0.4150
 1005MOL0     C32546  -0.415   2.750   7.904  0.1016 -0.8392 -0.0787
 1005MOL0     C32547  -0.423   2.669   7.801  0.6975 -0.9042  0.4795
 1005MOL0     C32548  -0.546   2.647   7.718 -0.6308 -0.1781  0.1658
 1005MOL0     C32549  -0.648   2.564   7.798 -0.4774  0.0561 -0.0187
 1005MOL0     C32550  -0.754   2.515   7.711  0.4869 -0.1175  0.9085
 1005MOL0     C32551  -0.833   2.394   7.749  1.1435 -0.0303 -0.4346
 1005MOL0     O32552  -0.866   2.324   7.621  1.1082 -0.6584 -0.0807
 1005MOL0     C32553  -0.984   2.253   7.624 -0.1719 -0.8423  0.0056
 1005MOL0     C32554  -0.976   2.116   7.659  0.2884 -0.3102 -0.2024
 1005MOL0     C32555  -1.083   2.030   7.681  0.7663 -0.5037 -0.5546
 1005MOL0     C32556  -1.217   2.085   7.671  0.2246 -0.5693 -0.1281
 1005MOL0     C32557  -1.339   2.003   7.675  0.8244 -0.6089  0.2166
 1005MOL0     O32558  -1.447   2.062   7.730 -0.3089 -0.1387 -0.3682
 1005MOL0     C32559  -1.572   2.008   7.723  0.8826 -1.5144  0.3047
 1005MOL0     C32560  -1.626   1.932   7.620 -0.5005  0.0769  0.3134
 1005MOL0     C32561  -1.741   1.860   7.632 -0.1326  0.9516  0.4245
 1005MOL0     C32562  -1.812   1.865   7.754  0.1410  0.9157  0.2878
 1005MOL0     O32563  -1.918   1.782   7.755  0.3178  0.6625 -0.6378
 1005MOL0     C32564  -2.029   1.816   7.831 -0.6991  0.0315 -0.9894
 1005MOL0     C32565  -2.006   1.774   7.984 -0.4717  0.1552 -0.0393
 1005MOL0     C32566  -2.124   1.803   8.083 -0.4207 -0.1462 -0.3580
 1005MOL0     C32567  -2.238   1.699   8.081 -0.3149  0.1541  0.8619
 1005MOL0     C32568  -2.360   1.753   8.159 -0.5868  0.7933  0.4351
 1005MOL0     C32569  -2.440   1.639   8.214  0.4437 -0.4922  0.0748
 1005MOL0     C32570  -2.523   1.568   8.111 -0.1183  0.3383 -0.0425
 1005MOL0     C32571  -2.608   1.458   8.181  0.2208 -0.0404  0.2448
 1005MOL0    Cl32572  -2.493   1.365   8.280  0.3267 -0.1079 -0.3857
 1005MOL0     C32573  -1.770   1.955   7.856  0.3510 -0.2208  0.4161
 1005MOL0     C32574  -1.652   2.025   7.838 -0.4034  0.3708  1.0943
 1005MOL0     O32575  -1.335   1.887   7.635 -0.2994  0.3094 -0.7619
 1005MOL0     C32576  -1.222   2.220   7.635  0.3920 -0.3237 -0.4847
 1005MOL0     C32577  -1.111   2.305   7.625 -0.8339  0.8161 -0.0616
 1005MOL0     N32578  -0.307   2.611   7.773  0.0026  0.1367 -0.8197
 1005MOL0     N32579  -0.222   2.643   7.865 -0.2837  0.0554 -1.1449
 1005MOL0     C32580   0.356   3.023   8.881 -0.2918 -0.6479 -0.3238
 1005MOL0     C32581   0.404   2.984   9.009  0.2131  0.3887  0.4107
 1005MOL0     C32582   0.327   2.757   9.437 -0.2088 -0.3640  0.3823
 1005MOL0     C32583   0.468   2.767   9.465  0.4225  0.3557 -0.3213
 1005MOL0     C32584   0.515   2.705   9.574 -0.3409  0.0679 -0.6532
 1005MOL0     C32585   0.436   2.634   9.661  0.0456  0.6525 -0.7941
 1005MOL0     O32586   0.483   2.566   9.775  0.3083  0.2467  0.2813
 1005MOL0     C32587   0.614   2.604   9.813 -0.2630  0.2350 -0.2377
 1005MOL0     C32588   0.626   2.529   9.944  0.2026  0.2912 -0.2372
 1005MOL0     C32589   0.530   2.596  10.050  0.1679  0.1111 -0.1041
 1005MOL0     C32590   0.547   2.551  10.190 -0.5859 -0.9021 -0.8168
 1005MOL0     C32591   0.670   2.591  10.263 -0.1618  0.6314 -0.3773
 1005MOL0     C32592   0.775   2.605  10.319  0.2988  0.2056  0.5235
 1005MOL0     C32593   0.300   2.616   9.644 -0.2970  0.6006  0.0453
 1005MOL0     C32594   0.242   2.676   9.529  0.2648  0.0625 -0.3126
 1005MOL0     H32595   0.163   2.775   9.088  1.4469  1.1977  1.9128
 1005MOL0     H32596   0.093   2.826   8.853  1.6232  1.4087 -2.6746
 1005MOL0     H32597   0.322   3.005   8.557 -2.2232 -2.6028  1.3370
 1005MOL0     H32598   0.311   3.161   8.649 -2.0115  1.1210  0.2190
 1005MOL0     H32599   0.244   3.199   8.440  2.0921 -2.5113  0.3117
 1005MOL0     H32600   0.104   3.209   8.553 -0.0064 -1.1109  0.7522
 1005MOL0     H32601   0.020   3.015   8.503 -1.2388  0.3897 -1.3832
 1005MOL0     H32602   0.148   2.944   8.405 -1.4989 -1.0206 -3.3207
 1005MOL0     H32603  -0.026   3.172   8.317  0.6787  0.5507 -1.6940
 1005MOL0     H32604   0.129   3.129   8.247 -1.1956  1.1676 -1.7920
 1005MOL0     H32605  -0.111   2.930   8.270  1.1918 -3.0954 -0.1692
 1005MOL0     H32606   0.053   2.894   8.206  2.7463  1.5195  0.7277
 1005MOL0     H32607   0.030   3.067   8.052 -1.2770  1.2571  1.0168
 1005MOL0     H32608  -0.145   3.100   8.095 -0.0129  1.0579 -1.9722
 1005MOL0     H32609  -0.144   2.953   7.899  0.6772 -0.7935 -0.1058
 1005MOL0     H32610  -0.014   2.852   7.966 -0.1997 -1.6902 -2.2832
 1005MOL0     H32611  -0.284   2.877   8.099 -1.0104  0.8849 -1.6223
 1005MOL0     H32612  -0.166   2.746   8.107 -1.9418  0.1901  1.7550
 1005MOL0     H32613  -0.485   2.825   7.939  1.2756  1.1023 -1.6973
 1005MOL0     H32614  -0.504   2.596   7.630  0.9926  0.7787  0.3427
 1005MOL0     H32615  -0.596   2.736   7.677  0.0058  0.2740  0.3673
 1005MOL0     H32616  -0.691   2.612   7.887  0.1212  1.1290 -0.2848
 1005MOL0     H32617  -0.596   2.481   7.847 -1.1869  0.3279  1.2471
 1005MOL0     H32618  -0.835   2.587   7.699  0.3899 -0.4462 -0.5504
 1005MOL0     H32619  -0.728   2.494   7.607 -1.3132  2.3211 -0.1185
 1005MOL0     H32620  -0.909   2.416   7.824  1.6850 -0.4429  0.2481
 1005MOL0     H32621  -0.777   2.318   7.803  0.0290  0.4371  1.4463
 1005MOL0     H32622  -0.881   2.068   7.679 -0.1737 -1.4809 -0.6556
 1005MOL0     H32623  -1.057   1.928   7.708 -1.8626 -0.8834  0.8071
 1005MOL0     H32624  -1.557   1.907   7.541  2.0519  2.6122  1.5447
 1005MOL0     H32625  -1.766   1.801   7.544  3.6185 -0.4994  0.1449
 1005MOL0     H32626  -2.116   1.759   7.798 -2.0028  0.6784  1.1739
 1005MOL0     H32627  -2.050   1.923   7.832  0.3114  0.2458 -0.9912
 1005MOL0     H32628  -1.911   1.808   8.026 -0.1667 -2.2152  1.4037
 1005MOL0     H32629  -2.000   1.665   7.978 -1.3743  0.0540  0.6655
 1005MOL0     H32630  -2.147   1.906   8.057  0.5670  0.2594  0.3170
 1005MOL0     H32631  -2.083   1.811   8.184  0.8316  1.0276 -0.9217
 1005MOL0     H32632  -2.265   1.664   7.980  2.2366 -0.1505  0.2164
 1005MOL0     H32633  -2.206   1.608   8.133 -2.4846 -2.6234 -2.2131
 1005MOL0     H32634  -2.430   1.801   8.090 -3.0673 -3.0108 -0.0435
 1005MOL0     H32635  -2.322   1.809   8.245  3.1946 -0.3204 -0.3635
 1005MOL0     H32636  -2.516   1.671   8.286 -2.2108 -0.4799 -2.5053
 1005MOL0     H32637  -2.376   1.573   8.273 -1.8485 -5.4148 -2.3171
 1005MOL0     H32638  -2.587   1.642   8.063  0.3455 -0.5714 -2.1958
 1005MOL0     H32639  -2.459   1.528   8.032  1.9301  2.7287  0.2706
 1005MOL0     H32640  -2.663   1.402   8.105 -1.1542 -0.4710  1.5202
 1005MOL0     H32641  -2.681   1.500   8.251  0.5041 -1.3699  1.3899
 1005MOL0     H32642  -1.827   1.983   7.944  1.5046  2.3183  0.4417
 1005MOL0     H32643  -1.633   2.100   7.915 -3.4186  2.8354 -0.3031
 1005MOL0     H32644  -1.320   2.267   7.629  0.0993 -1.0002 -1.2415
 1005MOL0     H32645  -1.147   2.406   7.610 -1.2668  1.5225  4.5004
 1005MOL0     H32646   0.404   3.105   8.829  0.3676 -1.4981 -1.1128
 1005MOL0     H32647   0.501   3.017   9.044 -0.6670  2.2836  1.2017
 1005MOL0     H32648   0.538   2.822   9.402 -0.4703  1.1348 -0.6507
 1005MOL0     H32649   0.618   2.730   9.600 -0.1470  0.6822 -1.9617
 1005MOL0     H32650   0.632   2.711   9.829 -1.4286  0.3384  0.4544
 1005MOL0     H32651   0.695   2.575   9.745  0.6387  1.2027  0.4095
 1005MOL0     H32652   0.593   2.427   9.923 -1.2418  0.4694  0.9968
 1005MOL0     H32653   0.728   2.522   9.983  0.3406  0.8191 -0.4868
 1005MOL0     H32654   0.426   2.570  10.029  0.9706 -1.7080 -2.1864
 1005MOL0     H32655   0.534   2.705  10.051  3.4022  0.1146  2.5225
 1005MOL0     H32656   0.468   2.578  10.261  0.8394 -0.5582  0.7181
 1005MOL0     H32657   0.549   2.441  10.190  2.7910 -0.9773  0.7474
 1005MOL0     H32658   0.865   2.615  10.376  0.5320 -1.1156  0.4132
 1005MOL0     H32659   0.249   2.552   9.716 -1.8988  2.5572  0.7401
 1005MOL0     H32660   0.141   2.664   9.491  0.3735 -4.8282  0.2985
 1006MOL0     O32661   2.081   3.113   1.882  0.3966  0.2046  0.2386
 1006MOL0     C32662   2.148   3.210   1.851 -0.9504 -0.3388 -0.6476
 1006MOL0     O32663   2.103   3.334   1.835 -0.0773 -0.4986  0.0976
 1006MOL0     C32664   1.976   3.370   1.852  0.2054  0.0881 -0.6356
 1006MOL0     C32665   1.951   3.484   1.932 -0.5949  0.4389  0.0944
 1006MOL0     C32666   1.817   3.507   1.968 -0.1088  0.3129  0.5716
 1006MOL0     C32667   1.705   3.430   1.920 -0.2435  0.0005 -0.5566
 1006MOL0     O32668   1.584   3.476   1.960  0.6154 -0.5526 -0.5918
 1006MOL0     C32669   1.480   3.378   1.968 -0.1965  0.5025 -0.2607
 1006MOL0     C32670   1.375   3.391   1.857  0.9488 -0.7075 -0.3352
 1006MOL0     C32671   1.350   3.542   1.829 -0.4310 -0.2302 -0.3043
 1006MOL0     C32672   1.226   3.546   1.742  0.5791 -0.4290  0.4709
 1006MOL0     C32673   1.187   3.690   1.708  0.1945 -0.5547 -0.4763
 1006MOL0     C32674   1.104   3.705   1.575 -0.2398  0.2098 -0.1513
 1006MOL0     C32675   0.979   3.616   1.570  0.5865 -0.2533 -0.3294
 1006MOL0     C32676   0.919   3.590   1.427 -0.7823 -1.3217  0.1160
 1006MOL0     N32677   0.898   3.717   1.357 -0.0397 -0.1731 -0.1146
 1006MOL0     C32678   0.822   3.816   1.408 -0.1876 -0.1408 -0.1897
 1006MOL0     C32679   0.854   3.925   1.332  1.3609 -0.4442 -0.5492
 1006MOL0     C32680   0.794   4.063   1.351 -0.0258  0.0600  0.8819
 1006MOL0     C32681   0.827   4.124   1.486 -0.0860  0.2933 -0.0717
 1006MOL0     C32682   0.752   4.258   1.489 -0.3859  0.1584 -0.3022
 1006MOL0     C32683   0.770   4.335   1.627  0.0280 -0.4008  0.8577
 1006MOL0     O32684   0.668   4.447   1.627 -0.0156  0.2412  0.5248
 1006MOL0     C32685   0.539   4.425   1.663 -0.1198 -0.1222  0.5868
 1006MOL0     C32686   0.478   4.301   1.699  0.4658  0.0769 -0.4251
 1006MOL0     C32687   0.341   4.290   1.719 -0.8995  0.2530  0.0590
 1006MOL0     C32688   0.262   4.404   1.725  0.8260 -0.9648  0.3835
 1006MOL0     C32689   0.115   4.398   1.747 -0.2532  0.1770 -0.0593
 1006MOL0     O32690   0.040   4.505   1.691  0.7959 -0.0352 -0.0563
 1006MOL0     C32691  -0.091   4.512   1.721  0.0533 -0.8178  0.3916
 1006MOL0     C32692  -0.159   4.495   1.842 -0.0240 -0.2515 -0.0698
 1006MOL0     C32693  -0.298   4.507   1.853  0.9912 -0.4027 -0.3143
 1006MOL0     C32694  -0.377   4.528   1.745  0.2955 -0.2540 -0.7170
 1006MOL0     O32695  -0.517   4.521   1.772 -0.2504  0.5298  0.5596
 1006MOL0     C32696  -0.560   4.657   1.787 -0.5160  0.2162 -0.1105
 1006MOL0     C32697  -0.700   4.666   1.824  1.6022 -0.3280  0.3579
 1006MOL0     C32698  -0.800   4.633   1.716  0.6557  0.5219  0.1588
 1006MOL0     C32699  -0.940   4.698   1.740  0.8498  0.4568  0.8483
 1006MOL0     C32700  -1.015   4.682   1.879 -0.3320  0.9590  0.5749
 1006MOL0     C32701  -1.056   4.538   1.918 -0.1382  1.2340 -0.0283
 1006MOL0     C32702  -1.107   4.527   2.060 -0.0233 -0.0489 -0.9786
 1006MOL0     C32703  -1.000   4.585   2.151  0.6085 -0.5439 -0.7000
 1006MOL0    Cl32704  -1.008   4.515   2.319  0.2127 -0.8628  0.1162
 1006MOL0     C32705  -0.316   4.555   1.625 -0.1617 -1.2762  0.0323
 1006MOL0     C32706  -0.178   4.553   1.616  0.5257  0.3395 -0.1041
 1006MOL0     O32707   0.073   4.305   1.819  0.2810 -0.4328  0.0972
 1006MOL0     C32708   0.324   4.531   1.698 -0.2636 -0.1937  0.2823
 1006MOL0     C32709   0.459   4.531   1.654 -0.1632  0.7087  0.6994
 1006MOL0     N32710   0.952   3.888   1.241 -0.0475 -0.0258 -0.7992
 1006MOL0     N32711   0.980   3.768   1.261  0.4103  0.5019  0.2688
 1006MOL0     C32712   1.739   3.336   1.823  0.4167 -0.0106  0.1390
 1006MOL0     C32713   1.867   3.298   1.798 -0.3752  0.0776  1.1631
 1006MOL0     C32714   2.290   3.189   1.833 -0.0748 -0.1202 -0.4201
 1006MOL0     C32715   2.373   3.298   1.826 -0.1386 -0.3792  0.0698
 1006MOL0     C32716   2.510   3.279   1.828  0.0007  0.3712  0.2209
 1006MOL0     C32717   2.570   3.154   1.829  0.4354  1.3392 -0.6522
 1006MOL0     O32718   2.705   3.126   1.831  0.1319 -0.8092 -0.4932
 1006MOL0     C32719   2.796   3.228   1.854 -0.8678 -0.2821 -0.2692
 1006MOL0     C32720   2.939   3.182   1.862  0.0305  0.2366 -0.2813
 1006MOL0     C32721   3.049   3.292   1.865  0.4241  1.0818 -0.9353
 1006MOL0     C32722   3.189   3.231   1.882 -1.3077 -0.4377  0.5654
 1006MOL0     C32723   3.244   3.205   1.748 -0.7494  0.0891 -0.6881
 1006MOL0     C32724   3.288   3.159   1.647  0.5910 -0.7638  0.6651
 1006MOL0     C32725   2.488   3.044   1.821 -0.5165  0.2184 -1.0981
 1006MOL0     C32726   2.345   3.060   1.821 -0.7976  0.8576 -0.4961
 1006MOL0     H32727   2.029   3.543   1.979 -0.6949  0.2923  0.4440
 1006MOL0     H32728   1.800   3.598   2.026  2.1122  1.2273 -0.1029
 1006MOL0     H32729   1.431   3.396   2.065 -1.2041 -0.6269 -0.5387
 1006MOL0     H32730   1.533   3.282   1.965 -0.6697  0.2540 -3.0898
 1006MOL0     H32731   1.287   3.348   1.906  3.2805 -1.2797  3.7340
 1006MOL0     H32732   1.398   3.335   1.766  0.2478  0.4356 -1.2618
 1006MOL0     H32733   1.430   3.591   1.772 -0.4771 -2.5686 -2.5655
 1006MOL0     H32734   1.333   3.591   1.925 -2.0783  1.5994 -1.4592
 1006MOL0     H32735   1.254   3.486   1.655 -3.8149 -1.9580 -0.1419
 1006MOL0     H32736   1.140   3.506   1.796  0.3433 -0.9716 -0.2852
 1006MOL0     H32737   1.271   3.757   1.686 -0.5623  1.4035  2.1045
 1006MOL0     H32738   1.142   3.740   1.794  0.9006  1.6095 -1.2903
 1006MOL0     H32739   1.170   3.676   1.492  0.0028 -1.7262  0.6492
 1006MOL0     H32740   1.080   3.809   1.552  2.9661  1.2245  0.6681
 1006MOL0     H32741   0.993   3.521   1.623  3.0858  0.1311 -0.2219
 1006MOL0     H32742   0.901   3.680   1.613 -1.5774 -1.1409 -2.6741
 1006MOL0     H32743   0.824   3.541   1.448 -2.1597  0.5184 -1.4766
 1006MOL0     H32744   0.994   3.530   1.375  1.7213 -0.8050  2.8073
 1006MOL0     H32745   0.755   3.809   1.493  0.5472 -2.4142  0.2689
 1006MOL0     H32746   0.688   4.058   1.325  0.5907  2.4945 -2.7830
 1006MOL0     H32747   0.842   4.127   1.277 -1.0011  0.8706  0.9321
 1006MOL0     H32748   0.935   4.136   1.498 -0.1855  1.5671 -0.3083
 1006MOL0     H32749   0.784   4.061   1.565 -1.5156  1.2123 -0.0661
 1006MOL0     H32750   0.793   4.320   1.409  1.2253  0.6939  0.8852
 1006MOL0     H32751   0.647   4.237   1.470 -0.5260  1.9385 -1.7608
 1006MOL0     H32752   0.869   4.383   1.628  0.6557 -1.6461  1.9649
 1006MOL0     H32753   0.765   4.271   1.716  1.5040 -0.2952  1.0451
 1006MOL0     H32754   0.535   4.208   1.697  1.1050  0.4007  1.3323
 1006MOL0     H32755   0.305   4.188   1.730  0.0127 -0.2973 -1.7346
 1006MOL0     H32756  -0.099   4.473   1.930 -0.3678 -0.9485 -0.0047
 1006MOL0     H32757  -0.346   4.502   1.951 -1.0492 -1.5406 -1.3160
 1006MOL0     H32758  -0.531   4.711   1.696  3.4981 -0.3282  0.6688
 1006MOL0     H32759  -0.505   4.706   1.867 -0.6523  1.2071 -0.6034
 1006MOL0     H32760  -0.728   4.763   1.866  1.3222 -0.3478  0.2208
 1006MOL0     H32761  -0.720   4.593   1.902  2.8809 -0.9182  0.1635
 1006MOL0     H32762  -0.816   4.525   1.712 -1.0356  0.7698 -0.6079
 1006MOL0     H32763  -0.767   4.676   1.621 -1.5863  2.2425  0.0781
 1006MOL0     H32764  -0.927   4.806   1.727 -1.0818  0.7385  1.0088
 1006MOL0     H32765  -1.006   4.657   1.663 -1.4511 -0.9063  3.3887
 1006MOL0     H32766  -1.110   4.736   1.870  1.4507  4.0130 -2.0067
 1006MOL0     H32767  -0.949   4.719   1.958  1.2239 -1.8059  0.7052
 1006MOL0     H32768  -0.970   4.472   1.904 -0.3919  1.0361 -0.6981
 1006MOL0     H32769  -1.136   4.493   1.858  2.0829 -1.2810 -1.2826
 1006MOL0     H32770  -1.203   4.571   2.091 -0.1809 -0.6780 -0.5529
 1006MOL0     H32771  -1.115   4.420   2.079 -1.1270 -0.1982 -2.1625
 1006MOL0     H32772  -1.001   4.695   2.148 -0.9133 -0.5324 -0.5651
 1006MOL0     H32773  -0.909   4.555   2.099  1.4532  0.9471 -0.1711
 1006MOL0     H32774  -0.370   4.582   1.534 -0.5728 -2.5935 -0.1370
 1006MOL0     H32775  -0.134   4.584   1.522  1.1844 -1.4193 -0.4189
 1006MOL0     H32776   0.265   4.622   1.694  0.5880  0.3668 -3.4106
 1006MOL0     H32777   0.505   4.619   1.609 -1.6157  0.7857 -0.7177
 1006MOL0     H32778   1.657   3.284   1.773  0.5697  1.0964 -1.3026
 1006MOL0     H32779   1.887   3.200   1.756  1.7775  0.2504  1.6745
 1006MOL0     H32780   2.328   3.397   1.824 -0.0663 -0.3523 -1.5134
 1006MOL0     H32781   2.583   3.359   1.830  2.6223 -1.8712  2.4582
 1006MOL0     H32782   2.776   3.291   1.941  1.9580  1.3032 -0.6414
 1006MOL0     H32783   2.796   3.304   1.775 -1.9479 -0.1919 -0.1991
 1006MOL0     H32784   2.954   3.124   1.953 -1.6996 -1.4746 -1.0188
 1006MOL0     H32785   2.966   3.125   1.773 -0.2705  1.5530 -1.2568
 1006MOL0     H32786   3.025   3.361   1.947 -3.0427 -0.7595 -0.1995
 1006MOL0     H32787   3.067   3.356   1.778  0.6663  1.1882 -0.8109
 1006MOL0     H32788   3.250   3.307   1.932  0.7274 -0.8896 -1.1039
 1006MOL0     H32789   3.203   3.135   1.931 -0.1556  0.5954  2.3892
 1006MOL0     H32790   3.346   3.125   1.564  0.0521  3.2915 -1.6005
 1006MOL0     H32791   2.534   2.946   1.828 -1.1147  0.0470  1.1490
 1006MOL0     H32792   2.292   2.965   1.828 -0.8439  0.8222 -1.2800
 1007MOL0     O32793  10.238  10.326  10.911  1.1827 -0.5123  0.5499
 1007MOL0     C32794  10.248  10.331  10.790  0.8449  0.3964  1.1084
 1007MOL0     O32795  10.353  10.384  10.722  0.8013  0.0896 -0.7731
 1007MOL0     C32796  10.475  10.414  10.787  0.2156 -1.4694 -0.3848
 1007MOL0     C32797  10.595  10.366  10.733  0.4420 -0.4468  0.7309
 1007MOL0     C32798  10.718  10.384  10.798  0.4542 -0.2336 -0.0748
 1007MOL0     C32799  10.720  10.456  10.919 -0.2577 -0.4527  0.2814
 1007MOL0     O32800  10.834  10.503  10.979 -0.6566 -0.4688  0.7005
 1007MOL0     C32801  10.957  10.441  10.944 -0.6451 -0.8685 -0.3320
 1007MOL0     C32802  10.954  10.296  11.007  0.1165 -0.8511 -0.1218
 1007MOL0     C32803  11.091  10.238  11.028 -0.3417  0.4818 -0.4655
 1007MOL0     C32804  11.164  10.312  11.133 -0.2196  0.6828  0.4601
 1007MOL0     C32805  11.314  10.265  11.159  0.3942 -0.2318 -0.3202
 1007MOL0     C32806  11.398  10.309  11.047  0.4674 -0.4202  0.3588
 1007MOL0     C32807  11.542  10.254  11.059 -0.6365 -0.2081  0.4770
 1007MOL0     C32808  11.623  10.330  11.160 -0.5213 -0.1304  0.0626
 1007MOL0     N32809  11.764  10.287  11.155 -0.1620  0.3349  0.2124
 1007MOL0     C32810  11.858  10.270  11.054  0.4452 -1.3145 -0.0957
 1007MOL0     C32811  11.962  10.200  11.103 -0.1419  0.0164 -1.0266
 1007MOL0     C32812  12.071  10.155  11.024 -0.8482  1.6320 -0.4010
 1007MOL0     C32813  12.201  10.239  11.054 -0.2900 -0.0910 -0.3273
 1007MOL0     C32814  12.303  10.215  10.951  0.8219 -0.3060  0.3816
 1007MOL0     C32815  12.427  10.292  10.994 -0.8330  0.7263  0.4509
 1007MOL0     O32816  12.503  10.327  10.879  0.2222 -0.3153  0.8625
 1007MOL0     C32817  12.612  10.404  10.886 -0.1732 -0.7560 -0.9554
 1007MOL0     C32818  12.693  10.421  11.000 -0.4115  0.2662  0.4662
 1007MOL0     C32819  12.810  10.491  10.985 -0.6035  0.3041  0.2485
 1007MOL0     C32820  12.851  10.545  10.868  0.0839 -0.4953  0.8711
 1007MOL0     C32821  12.985  10.620  10.857  1.0253  0.3625 -0.5012
 1007MOL0     O32822  13.046  10.661  10.972  0.3113 -0.1706  0.3812
 1007MOL0     C32823  13.173  10.724  10.969  0.2927  0.5670  0.4644
 1007MOL0     C32824  13.279  10.690  11.054  1.0937 -0.5486  0.0020
 1007MOL0     C32825  13.398  10.757  11.053  0.2483  1.0491 -0.2935
 1007MOL0     C32826  13.411  10.864  10.979 -0.4227 -0.3543  1.0604
 1007MOL0     O32827  13.527  10.939  10.996  0.0249  0.4579  0.4050
 1007MOL0     C32828  13.605  10.967  10.874  0.0216  0.0073 -0.0984
 1007MOL0     C32829  13.720  10.868  10.846  0.1378  0.2117 -0.0247
 1007MOL0     C32830  13.817  10.845  10.962 -0.9652 -0.8493  0.0470
 1007MOL0     C32831  13.898  10.968  11.007  0.8205  0.5152 -0.4678
 1007MOL0     C32832  14.004  11.010  10.896 -0.8446 -0.9154 -0.1619
 1007MOL0     C32833  14.064  11.147  10.939 -0.4860  0.7703 -0.1688
 1007MOL0     C32834  14.191  11.194  10.863  0.2717  0.0933 -0.1048
 1007MOL0     C32835  14.157  11.221  10.718  0.3699 -0.1162  0.3628
 1007MOL0    Cl32836  14.179  11.077  10.612 -0.0621  0.4475  0.1447
 1007MOL0     C32837  13.317  10.899  10.886  0.0147  0.3024 -0.0219
 1007MOL0     C32838  13.200  10.821  10.876 -0.1805 -0.4602 -0.1609
 1007MOL0     O32839  13.037  10.620  10.746  0.1518 -0.1331  0.1535
 1007MOL0     C32840  12.766  10.534  10.750 -0.2848 -0.1338  0.1976
 1007MOL0     C32841  12.643  10.467  10.760  0.2404 -0.4910 -0.1590
 1007MOL0     N32842  11.945  10.177  11.244 -0.2309 -0.6824  0.3875
 1007MOL0     N32843  11.831  10.239  11.271  0.6531 -0.1404 -0.4583
 1007MOL0     C32844  10.602  10.495  10.975 -0.1565 -0.3518 -0.1910
 1007MOL0     C32845  10.481  10.472  10.913  0.8384 -0.2870 -0.7788
 1007MOL0     C32846  10.138  10.266  10.711 -0.6751 -0.4499  0.3624
 1007MOL0     C32847  10.031  10.203  10.783 -0.1194 -0.6300 -0.2445
 1007MOL0     C32848   9.930  10.137  10.718 -0.4663  0.0753  0.0863
 1007MOL0     C32849   9.930  10.126  10.576  0.2498 -0.2941 -0.2584
 1007MOL0     O32850   9.820  10.065  10.523 -0.3681 -0.0153  0.0089
 1007MOL0     C32851   9.829  10.035  10.386  0.0889  0.5660  0.1090
 1007MOL0     C32852   9.797   9.887  10.350  0.0257  0.9899 -1.0887
 1007MOL0     C32853   9.654   9.858  10.412  0.0042  0.0330 -0.5678
 1007MOL0     C32854   9.557   9.813  10.298 -0.9141  0.4804  0.7808
 1007MOL0     C32855   9.569   9.666  10.278 -0.8276  0.8184 -0.9541
 1007MOL0     C32856   9.566   9.543  10.270 -0.0646  1.2455  0.2344
 1007MOL0     C32857  10.030  10.195  10.496  0.7258 -0.0049 -0.3442
 1007MOL0     C32858  10.136  10.252  10.569 -0.0987  0.7002  0.3185
 1007MOL0     H32859  10.591  10.305  10.643  4.0776 -2.2305  1.5882
 1007MOL0     H32860  10.806  10.333  10.759 -0.1638 -3.0460  1.8086
 1007MOL0     H32861  11.030  10.506  10.992 -1.0659 -0.8975  0.3646
 1007MOL0     H32862  10.987  10.459  10.841 -0.2099  4.7226  0.4913
 1007MOL0     H32863  10.896  10.238  10.935 -2.1816  1.0773  0.0192
 1007MOL0     H32864  10.890  10.297  11.096 -1.5452  1.1413 -1.2336
 1007MOL0     H32865  11.138  10.253  10.930  1.1047  2.9980  0.5164
 1007MOL0     H32866  11.098  10.132  11.051  3.4549  0.4461 -1.0141
 1007MOL0     H32867  11.167  10.419  11.111  2.3158  0.2144 -2.0602
 1007MOL0     H32868  11.110  10.295  11.227 -1.9843  0.7422 -0.5135
 1007MOL0     H32869  11.318  10.157  11.174 -0.1235 -0.4716 -1.8268
 1007MOL0     H32870  11.350  10.314  11.250 -1.0874 -0.0569  0.1919
 1007MOL0     H32871  11.396  10.418  11.037 -1.6031 -0.3290  1.1777
 1007MOL0     H32872  11.348  10.280  10.954  2.6943  0.5904 -1.2390
 1007MOL0     H32873  11.533  10.152  11.097 -0.0574 -1.1378 -1.7319
 1007MOL0     H32874  11.592  10.266  10.962  1.8305  1.8980  1.8651
 1007MOL0     H32875  11.594  10.312  11.264  0.6664 -0.6033  0.3275
 1007MOL0     H32876  11.618  10.437  11.138 -1.0300 -0.5369 -1.9808
 1007MOL0     H32877  11.845  10.301  10.951  0.2081 -2.0395 -0.2939
 1007MOL0     H32878  12.058  10.163  10.915 -0.8057 -1.1044 -0.6746
 1007MOL0     H32879  12.087  10.049  11.040 -0.9487  1.5887 -0.5799
 1007MOL0     H32880  12.245  10.224  11.153 -3.2717  0.8049  1.2739
 1007MOL0     H32881  12.164  10.342  11.058 -0.5726 -0.2257  0.9594
 1007MOL0     H32882  12.322  10.111  10.924  4.9988  0.6132 -0.9675
 1007MOL0     H32883  12.270  10.251  10.853  1.4222  0.1375  0.3346
 1007MOL0     H32884  12.493  10.241  11.064  5.0829  4.6245 -1.4649
 1007MOL0     H32885  12.403  10.381  11.053 -0.8954 -0.5700  2.4457
 1007MOL0     H32886  12.671  10.369  11.093  0.9446  0.1034  0.7220
 1007MOL0     H32887  12.881  10.500  11.066  1.6868  2.5672 -1.8446
 1007MOL0     H32888  13.246  10.608  11.118 -0.1722 -0.0543  0.0206
 1007MOL0     H32889  13.483  10.720  11.109  1.0202 -2.0518 -3.1769
 1007MOL0     H32890  13.645  11.069  10.878  0.9921 -0.3395 -0.6776
 1007MOL0     H32891  13.550  10.958  10.780  0.8396 -1.4281 -0.4636
 1007MOL0     H32892  13.775  10.904  10.758  0.4178 -0.6386 -0.2061
 1007MOL0     H32893  13.684  10.767  10.824  3.9004 -1.5590  1.1562
 1007MOL0     H32894  13.888  10.767  10.933 -1.5375 -0.7884 -1.6527
 1007MOL0     H32895  13.758  10.807  11.045 -2.6153  2.5242  0.5875
 1007MOL0     H32896  13.835  11.055  11.027 -0.1242 -0.6416  1.9168
 1007MOL0     H32897  13.945  10.957  11.105  3.1388 -0.3805 -1.6157
 1007MOL0     H32898  13.950  11.005  10.801  1.1905 -1.1016 -1.3466
 1007MOL0     H32899  14.081  10.935  10.879 -1.4155 -1.1009 -2.2410
 1007MOL0     H32900  14.080  11.144  11.047 -1.4463 -0.0210 -0.0380
 1007MOL0     H32901  13.992  11.229  10.929 -2.1665 -0.3471  1.8832
 1007MOL0     H32902  14.220  11.286  10.915 -0.3916 -1.2313  2.7862
 1007MOL0     H32903  14.270  11.118  10.867 -1.5777 -1.8797  2.1389
 1007MOL0     H32904  14.211  11.301  10.667 -1.8774  1.1069 -0.2628
 1007MOL0     H32905  14.054  11.260  10.717  0.9607  1.5224  0.5909
 1007MOL0     H32906  13.336  10.981  10.817  3.1632 -2.0729 -2.2474
 1007MOL0     H32907  13.131  10.846  10.796  0.8040 -0.5371 -1.0601
 1007MOL0     H32908  12.797  10.577  10.656  0.2268 -0.6003  0.1450
 1007MOL0     H32909  12.569  10.464  10.681 -0.5790 -1.4806  0.6148
 1007MOL0     H32910  10.604  10.563  11.060 -0.8660  2.4567 -2.2914
 1007MOL0     H32911  10.399  10.516  10.971  0.6448 -1.5946 -0.0179
 1007MOL0     H32912  10.035  10.207  10.891  0.9000 -1.9898 -0.2027
 1007MOL0     H32913   9.850  10.087  10.771  0.2034 -1.9245 -0.7168
 1007MOL0     H32914   9.927  10.046  10.339  0.0164 -3.4312 -1.3955
 1007MOL0     H32915   9.759  10.103  10.337 -0.8729 -1.0307 -0.8299
 1007MOL0     H32916   9.792   9.882  10.241 -1.4310  2.3962 -1.1227
 1007MOL0     H32917   9.874   9.820  10.390 -2.9105 -0.6526  2.4766
 1007MOL0     H32918   9.600   9.946  10.448  0.7819  0.4666 -0.4621
 1007MOL0     H32919   9.654   9.786  10.494  2.1699 -0.5074 -0.9818
 1007MOL0     H32920   9.450   9.834  10.312 -0.6687  1.8678  0.6706
 1007MOL0     H32921   9.581   9.862  10.204  0.9184 -3.2384 -0.9296
 1007MOL0     H32922   9.539   9.440  10.259  1.7277  0.5961  1.5736
 1007MOL0     H32923  10.035  10.211  10.389 -0.2800  0.6631 -0.3003
 1007MOL0     H32924  10.201  10.315  10.508  0.5243  0.7905  1.0708
 1008MOL0     O32925   7.103  10.053  10.932 -0.8771 -0.3319  0.1233
 1008MOL0     C32926   7.152  10.064  10.819  1.1763 -0.2163 -0.4328
 1008MOL0     O32927   7.090  10.105  10.709  0.3901 -0.3881 -0.0315
 1008MOL0     C32928   6.957  10.145  10.723  1.1390 -0.2723  0.6280
 1008MOL0     C32929   6.850  10.061  10.730  0.1866  0.1041 -0.5596
 1008MOL0     C32930   6.719  10.112  10.726  0.4068  0.3213 -0.3271
 1008MOL0     C32931   6.703  10.249  10.736 -0.9826  0.5787  0.5807
 1008MOL0     O32932   6.590  10.313  10.719 -0.3144 -0.2812  0.5591
 1008MOL0     C32933   6.468  10.237  10.701  0.1007  0.5770  0.0815
 1008MOL0     C32934   6.344  10.323  10.673 -0.0509 -0.6414 -0.0373
 1008MOL0     C32935   6.218  10.245  10.708  0.3808 -0.3707 -1.0487
 1008MOL0     C32936   6.095  10.340  10.701  0.1511  0.3523  0.0161
 1008MOL0     C32937   5.961  10.280  10.739 -0.4016  0.1618 -0.3339
 1008MOL0     C32938   5.847  10.379  10.714 -0.8183 -0.3371 -1.5737
 1008MOL0     C32939   5.704  10.311  10.700  0.0155 -0.4767 -0.2781
 1008MOL0     C32940   5.602  10.410  10.644 -0.3188  0.0881 -0.0631
 1008MOL0     N32941   5.466  10.357  10.668  0.2997  0.4129 -0.5530
 1008MOL0     C32942   5.347  10.416  10.715  0.0107  0.5278  0.1686
 1008MOL0     C32943   5.256  10.314  10.734  0.5130 -0.3195  0.6729
 1008MOL0     C32944   5.116  10.321  10.782  0.1201 -0.0132  0.5291
 1008MOL0     C32945   5.026  10.423  10.706 -0.2188 -0.0319  0.0613
 1008MOL0     C32946   5.016  10.401  10.557  0.7517 -0.0865 -0.5824
 1008MOL0     C32947   4.900  10.484  10.498  0.1458  0.4530  0.1547
 1008MOL0     O32948   4.890  10.471  10.352 -0.8429 -0.5755  0.7288
 1008MOL0     C32949   4.762  10.448  10.311 -0.4456  0.6262  0.1819
 1008MOL0     C32950   4.697  10.563  10.272  0.4607  0.7833  0.8743
 1008MOL0     C32951   4.569  10.541  10.221 -0.0150  0.4697 -0.5893
 1008MOL0     C32952   4.504  10.417  10.212  0.7952  0.4668  0.5151
 1008MOL0     C32953   4.366  10.397  10.164  0.5609 -0.1019  0.4864
 1008MOL0     O32954   4.303  10.501  10.113  0.4458 -0.0363  0.7811
 1008MOL0     C32955   4.167  10.483  10.090 -0.0807 -0.5895 -0.7211
 1008MOL0     C32956   4.067  10.446  10.186 -0.4604 -0.1292  0.2239
 1008MOL0     C32957   3.929  10.443  10.170  0.7439 -1.2663 -0.5529
 1008MOL0     C32958   3.876  10.475  10.058  0.8502  0.9526  1.0117
 1008MOL0     O32959   3.741  10.460  10.028 -0.4592 -0.6742  0.4512
 1008MOL0     C32960   3.675  10.580   9.985 -0.3449 -1.3406 -0.2798
 1008MOL0     C32961   3.516  10.567   9.972  0.0081  0.0671 -0.2207
 1008MOL0     C32962   3.441  10.682   9.908  0.5686  0.7390  0.1770
 1008MOL0     C32963   3.284  10.647   9.892 -0.4697 -0.0132  0.4899
 1008MOL0     C32964   3.195  10.762   9.830  0.0691  0.2720 -0.2254
 1008MOL0     C32965   3.066  10.725   9.751 -0.4073  0.5947  0.4183
 1008MOL0     C32966   2.991  10.837   9.679  0.1839 -0.6586 -0.2273
 1008MOL0     C32967   2.922  10.938   9.779 -0.1845 -0.0923  0.0292
 1008MOL0    Cl32968   2.777  10.863   9.844 -0.3130 -0.1008  0.0447
 1008MOL0     C32969   3.965  10.508   9.958  0.3774 -0.2637 -0.5205
 1008MOL0     C32970   4.110  10.521   9.964  0.0203  0.9225 -0.7379
 1008MOL0     O32971   4.328  10.279  10.164  0.0299 -0.3304 -0.2018
 1008MOL0     C32972   4.591  10.305  10.242 -0.0475 -0.0527 -0.9100
 1008MOL0     C32973   4.720  10.319  10.299 -0.0073 -0.6438  0.3957
 1008MOL0     N32974   5.314  10.195  10.692  0.0054 -0.2230  0.2056
 1008MOL0     N32975   5.437  10.225  10.659 -0.7472  0.0680  0.9309
 1008MOL0     C32976   6.817  10.334  10.746  0.5114 -0.2880 -0.4579
 1008MOL0     C32977   6.945  10.284  10.730  0.1934 -0.0036  0.7758
 1008MOL0     C32978   7.291  10.017  10.806 -1.1195  0.4203  0.2833
 1008MOL0     C32979   7.357   9.979  10.684 -0.6335 -0.3255 -0.1865
 1008MOL0     C32980   7.493   9.959  10.670 -0.6721  0.2603 -0.4196
 1008MOL0     C32981   7.580   9.973  10.781 -0.0338  0.6071  0.1541
 1008MOL0     O32982   7.720   9.950  10.759 -0.0886 -0.7454 -0.2649
 1008MOL0     C32983   7.804   9.977  10.875 -0.3091 -1.1856 -0.6034
 1008MOL0     C32984   7.842  10.119  10.899 -0.2634  0.2991  0.3158
 1008MOL0     C32985   7.933  10.129  11.025 -0.2200 -0.3558 -0.5142
 1008MOL0     C32986   7.995  10.262  11.062  0.3325 -0.9197  0.8300
 1008MOL0     C32987   8.093  10.247  11.165  0.2644 -0.5120  0.3662
 1008MOL0     C32988   8.170  10.260  11.263  0.3301 -0.0028  0.0071
 1008MOL0     C32989   7.523  10.004  10.906 -0.1113  0.3964 -0.2384
 1008MOL0     C32990   7.384  10.024  10.913  0.1789  0.9835 -1.0458
 1008MOL0     H32991   6.874   9.955  10.724 -0.9640 -0.1031 -2.0929
 1008MOL0     H32992   6.634  10.052  10.697 -1.0126  2.2003 -0.2343
 1008MOL0     H32993   6.457  10.178  10.792 -1.3973 -2.0468 -1.6596
 1008MOL0     H32994   6.480  10.161  10.623  0.8010  0.4038  0.3556
 1008MOL0     H32995   6.344  10.350  10.567  1.2542  2.4555  0.6334
 1008MOL0     H32996   6.352  10.413  10.733 -2.2786 -0.8800  0.6900
 1008MOL0     H32997   6.221  10.208  10.811  2.4073 -1.7248 -1.5249
 1008MOL0     H32998   6.215  10.158  10.641 -0.6971 -1.0784 -0.1373
 1008MOL0     H32999   6.121  10.425  10.764 -1.7335 -0.6588  2.3374
 1008MOL0     H33000   6.084  10.373  10.598 -0.8536 -1.7338 -0.6035
 1008MOL0     H33001   5.955  10.234  10.838  0.6889 -2.4715 -1.3796
 1008MOL0     H33002   5.942  10.195  10.672 -1.6780 -0.1523  0.3986
 1008MOL0     H33003   5.861  10.440  10.624  1.1732  5.7570  2.2194
 1008MOL0     H33004   5.843  10.457  10.791 -1.9536 -0.6630 -1.2816
 1008MOL0     H33005   5.706  10.229  10.628  0.9263 -1.7325  1.1231
 1008MOL0     H33006   5.664  10.284  10.798 -3.2443  3.3225 -0.3292
 1008MOL0     H33007   5.627  10.429  10.539  2.2524 -0.3393  0.4138
 1008MOL0     H33008   5.590  10.502  10.702 -0.7848 -0.0800  0.1114
 1008MOL0     H33009   5.326  10.517  10.748 -4.6250  1.1279 -3.5927
 1008MOL0     H33010   5.125  10.352  10.886  2.5806 -1.1531  0.7185
 1008MOL0     H33011   5.067  10.223  10.775  0.2094 -0.2674  2.7261
 1008MOL0     H33012   5.061  10.524  10.731  0.5298  0.0975 -1.4128
 1008MOL0     H33013   4.928  10.421  10.754  0.4668  2.2159  1.7091
 1008MOL0     H33014   5.114  10.423  10.513 -0.1190  3.1676 -1.0957
 1008MOL0     H33015   4.997  10.298  10.525  1.1438  0.3360 -2.2349
 1008MOL0     H33016   4.926  10.589  10.509 -0.4873  1.0182 -2.7759
 1008MOL0     H33017   4.806  10.469  10.551  0.0375  1.2368  0.1878
 1008MOL0     H33018   4.732  10.664  10.291 -1.5797  1.6185  0.5420
 1008MOL0     H33019   4.508  10.629  10.206  0.1084  1.2734  2.7787
 1008MOL0     H33020   4.106  10.433  10.287 -3.3698  2.3758  1.8378
 1008MOL0     H33021   3.866  10.419  10.255 -1.5866  0.5148 -1.6515
 1008MOL0     H33022   3.712  10.615   9.889 -1.8207  0.0535 -0.3636
 1008MOL0     H33023   3.697  10.665  10.051  0.6089 -1.7990  0.0162
 1008MOL0     H33024   3.482  10.556  10.076  0.4424  4.3392  0.5317
 1008MOL0     H33025   3.508  10.467   9.927  0.1302 -0.8030  1.5821
 1008MOL0     H33026   3.477  10.707   9.808  0.6292 -1.4566 -0.4032
 1008MOL0     H33027   3.457  10.772   9.968 -1.4710  1.5769 -0.4137
 1008MOL0     H33028   3.278  10.559   9.827 -2.9970  0.6748 -0.3384
 1008MOL0     H33029   3.234  10.635   9.988  0.6504  0.6665  1.1792
 1008MOL0     H33030   3.258  10.822   9.764  2.1705 -0.5313  0.9734
 1008MOL0     H33031   3.161  10.831   9.907  1.9212  1.8504 -0.7705
 1008MOL0     H33032   3.004  10.655   9.808  1.1822 -0.2883  1.1273
 1008MOL0     H33033   3.126  10.667   9.680 -0.1204  2.3298 -0.8334
 1008MOL0     H33034   3.064  10.885   9.613 -2.0765 -2.3332 -4.3370
 1008MOL0     H33035   2.928  10.785   9.605 -4.1101  1.7970  1.3041
 1008MOL0     H33036   2.902  11.030   9.722  0.8297 -0.7661 -1.4625
 1008MOL0     H33037   2.982  10.968   9.865 -2.8733 -1.1028  2.4080
 1008MOL0     H33038   3.906  10.530   9.869 -0.4179 -3.8262 -1.0492
 1008MOL0     H33039   4.184  10.538   9.886  0.8091  1.0153  0.0142
 1008MOL0     H33040   4.557  10.202  10.231  0.6837 -0.4994  0.6773
 1008MOL0     H33041   4.791  10.237  10.298  0.4057 -0.3251  1.8595
 1008MOL0     H33042   6.789  10.439  10.740 -0.3928 -0.5674 -1.4130
 1008MOL0     H33043   7.035  10.344  10.728  2.4890 -3.2005 -0.3826
 1008MOL0     H33044   7.281   9.990  10.608  0.4707  3.1090 -0.9957
 1008MOL0     H33045   7.537   9.932  10.575 -0.5689 -0.1136 -0.2666
 1008MOL0     H33046   7.898   9.920  10.864 -1.4057 -3.1255 -0.4578
 1008MOL0     H33047   7.773   9.928  10.968 -0.5635  0.4639  0.2035
 1008MOL0     H33048   7.906  10.161  10.821 -1.4039  0.2824 -0.6554
 1008MOL0     H33049   7.751  10.177  10.911 -2.0874 -2.6736  2.4658
 1008MOL0     H33050   8.018  10.062  11.007  0.6643  0.5113  0.3448
 1008MOL0     H33051   7.879  10.090  11.112 -2.5434  3.3258 -0.0812
 1008MOL0     H33052   8.035  10.313  10.974 -0.4509 -1.8069 -0.0628
 1008MOL0     H33053   7.913  10.318  11.108 -1.6108 -3.4315  0.6748
 1008MOL0     H33054   8.222  10.276  11.355 -2.9193 -0.6526  2.1016
 1008MOL0     H33055   7.590  10.034  10.986  0.3326 -2.4660  0.6000
 1008MOL0     H33056   7.360  10.071  11.008  3.3635  1.9077 -0.5987
 1009MOL0     O33057   3.235   1.933   2.465  0.1149 -0.5060  0.0025
 1009MOL0     C33058   3.273   1.940   2.350  0.2667  0.4466  0.4682
 1009MOL0     O33059   3.183   1.944   2.249  0.5708 -0.4582 -0.4312
 1009MOL0     C33060   3.052   1.969   2.270 -0.6661 -0.1354 -0.0923
 1009MOL0     C33061   2.968   2.066   2.199  0.1768  0.2141  0.0128
 1009MOL0     C33062   2.835   2.073   2.222  0.0877 -0.2446  1.2952
 1009MOL0     C33063   2.775   2.004   2.321 -0.1033 -0.6882 -0.1205
 1009MOL0     O33064   2.644   2.013   2.361  0.4543 -0.3923 -0.0290
 1009MOL0     C33065   2.618   2.117   2.454 -0.0595 -0.9689  0.0665
 1009MOL0     C33066   2.571   2.239   2.374 -0.8560 -0.0088 -0.0885
 1009MOL0     C33067   2.451   2.203   2.280  0.1822 -1.2946 -0.6058
 1009MOL0     C33068   2.384   2.334   2.253 -1.1738 -0.3315 -0.0821
 1009MOL0     C33069   2.291   2.345   2.143 -0.1093  0.1404 -0.1718
 1009MOL0     C33070   2.172   2.238   2.154  0.3059  0.1982 -0.8265
 1009MOL0     C33071   2.082   2.208   2.034 -0.8229  0.1521 -0.1842
 1009MOL0     C33072   2.006   2.332   1.976 -0.1156  0.2583  0.1959
 1009MOL0     N33073   1.939   2.306   1.844 -0.2155  0.5758  0.4716
 1009MOL0     C33074   1.851   2.205   1.800 -0.5091 -0.8158 -1.7535
 1009MOL0     C33075   1.826   2.238   1.674  0.0200  0.1143 -0.6505
 1009MOL0     C33076   1.726   2.158   1.597 -0.3236 -0.0185 -0.4029
 1009MOL0     C33077   1.585   2.168   1.659 -0.2497  0.6468  0.5576
 1009MOL0     C33078   1.487   2.065   1.594 -0.7350 -1.3803 -0.2407
 1009MOL0     C33079   1.342   2.122   1.594  0.5102  0.1478  0.1682
 1009MOL0     O33080   1.324   2.230   1.493  0.3082 -0.8525 -0.0505
 1009MOL0     C33081   1.201   2.291   1.473 -0.8427  0.5427  0.8504
 1009MOL0     C33082   1.204   2.386   1.378 -1.1079  0.3576 -1.1549
 1009MOL0     C33083   1.088   2.456   1.339 -0.2284 -0.2478  0.3007
 1009MOL0     C33084   0.961   2.408   1.383  0.7712  0.1046  0.8173
 1009MOL0     C33085   0.834   2.469   1.334 -0.2413 -0.3172  0.4155
 1009MOL0     O33086   0.829   2.549   1.231  0.0635 -0.4006  0.0799
 1009MOL0     C33087   0.718   2.614   1.198  0.0543 -1.1734  0.3020
 1009MOL0     C33088   0.728   2.751   1.224  1.0658  0.4854 -0.4499
 1009MOL0     C33089   0.613   2.826   1.203  0.1619 -0.5407  0.4151
 1009MOL0     C33090   0.492   2.767   1.160 -0.3862  0.8091  0.2492
 1009MOL0     O33091   0.381   2.854   1.173 -0.4845 -0.3878 -0.3195
 1009MOL0     C33092   0.249   2.807   1.140 -0.2218 -0.1169 -0.3424
 1009MOL0     C33093   0.160   2.936   1.132  0.0519  0.2729 -0.1990
 1009MOL0     C33094   0.024   2.913   1.050  0.2776  0.2762  1.0820
 1009MOL0     C33095  -0.070   2.799   1.101 -0.5277 -0.5352  0.3479
 1009MOL0     C33096  -0.192   2.784   1.014  0.2053  0.5204  0.2035
 1009MOL0     C33097  -0.321   2.727   1.084 -0.0446 -0.1618  0.0778
 1009MOL0     C33098  -0.351   2.797   1.226  0.6216  0.2960  0.8044
 1009MOL0     C33099  -0.462   2.740   1.299  0.1941  0.3415 -0.2981
 1009MOL0    Cl33100  -0.623   2.794   1.231  0.2940 -0.0170  0.0060
 1009MOL0     C33101   0.490   2.626   1.132  0.2394 -0.3443 -0.1287
 1009MOL0     C33102   0.600   2.547   1.166 -0.3148  0.1339  0.8214
 1009MOL0     O33103   0.733   2.428   1.399 -0.1609  0.3227  0.1683
 1009MOL0     C33104   0.958   2.301   1.474 -0.8566  0.7650  1.6371
 1009MOL0     C33105   1.081   2.239   1.519 -0.0650 -0.4353  0.5459
 1009MOL0     N33106   1.899   2.354   1.636  0.6084  0.0207  0.0006
 1009MOL0     N33107   1.966   2.398   1.741  0.0308 -0.1395 -0.7286
 1009MOL0     C33108   2.850   1.914   2.394  0.2782  0.5904 -0.3813
 1009MOL0     C33109   2.983   1.897   2.370 -0.5038  0.4900  1.8463
 1009MOL0     C33110   3.416   1.926   2.339  0.1792 -0.3284  0.2441
 1009MOL0     C33111   3.471   1.913   2.208 -0.6085  0.5024  0.1306
 1009MOL0     C33112   3.610   1.891   2.196  0.5585  0.3069 -0.9324
 1009MOL0     C33113   3.689   1.871   2.313 -0.5581 -0.0818  0.4369
 1009MOL0     O33114   3.820   1.829   2.304 -0.3762  0.6915  0.0754
 1009MOL0     C33115   3.893   1.858   2.188 -0.0847  0.8007  0.5372
 1009MOL0     C33116   4.043   1.844   2.210  0.6336 -0.2664  0.3945
 1009MOL0     C33117   4.099   1.936   2.325  0.2083  0.3615  1.3238
 1009MOL0     C33118   4.229   1.882   2.390  0.1086 -1.1818 -0.1673
 1009MOL0     C33119   4.254   1.935   2.519 -0.1829  0.3902 -0.9918
 1009MOL0     C33120   4.263   2.009   2.624 -0.5601 -0.7617 -0.1023
 1009MOL0     C33121   3.633   1.884   2.441  1.2834 -0.4960  0.1567
 1009MOL0     C33122   3.495   1.910   2.458 -0.7682  0.2209 -0.4006
 1009MOL0     H33123   3.020   2.117   2.118  1.2823 -1.3720 -0.3355
 1009MOL0     H33124   2.769   2.136   2.163  3.1343  0.0025 -2.2220
 1009MOL0     H33125   2.704   2.143   2.516 -0.6436  0.1181  0.4468
 1009MOL0     H33126   2.543   2.071   2.519 -0.6569 -3.9811 -2.4532
 1009MOL0     H33127   2.651   2.288   2.318 -1.9310 -0.3410 -1.9730
 1009MOL0     H33128   2.531   2.303   2.454 -3.9028  0.6858 -1.9840
 1009MOL0     H33129   2.384   2.131   2.329  0.8499 -0.9367  0.8694
 1009MOL0     H33130   2.482   2.156   2.186  3.0743 -0.8696  0.0414
 1009MOL0     H33131   2.352   2.385   2.344 -0.3317  0.1305 -0.0374
 1009MOL0     H33132   2.467   2.395   2.216 -1.1494 -0.9312 -1.0452
 1009MOL0     H33133   2.342   2.338   2.046 -0.7670  2.6259 -0.7780
 1009MOL0     H33134   2.242   2.443   2.136  1.6197  1.0153 -0.6329
 1009MOL0     H33135   2.092   2.269   2.222 -0.6372 -0.6636 -1.5166
 1009MOL0     H33136   2.213   2.146   2.195  1.0610  1.2467  0.9183
 1009MOL0     H33137   2.135   2.162   1.950 -1.2662 -0.6542 -0.0303
 1009MOL0     H33138   2.013   2.130   2.068 -0.2666  0.2088  1.0973
 1009MOL0     H33139   2.084   2.409   1.972  0.6639 -0.5604 -2.1907
 1009MOL0     H33140   1.923   2.369   2.037 -0.0648  0.3583  0.2038
 1009MOL0     H33141   1.816   2.117   1.854  2.3716  0.1043  2.0339
 1009MOL0     H33142   1.751   2.052   1.609  0.1490  0.4272  3.9456
 1009MOL0     H33143   1.728   2.180   1.489  0.2877 -2.9226 -1.0819
 1009MOL0     H33144   1.553   2.272   1.652  1.8601  1.3437  0.7302
 1009MOL0     H33145   1.598   2.150   1.767  2.3182  0.8431  0.3385
 1009MOL0     H33146   1.512   2.058   1.488 -4.3440  4.3644 -1.9492
 1009MOL0     H33147   1.491   1.975   1.656  0.9532  0.6076  2.7468
 1009MOL0     H33148   1.318   2.156   1.695 -2.0907  1.3216 -0.7560
 1009MOL0     H33149   1.278   2.037   1.567  0.2339  0.2738  0.4201
 1009MOL0     H33150   1.298   2.431   1.349 -1.4209 -0.0050 -2.8146
 1009MOL0     H33151   1.086   2.542   1.273 -1.7725 -1.1561 -0.9164
 1009MOL0     H33152   0.818   2.787   1.272 -0.9335  1.3136  2.9659
 1009MOL0     H33153   0.598   2.927   1.240  1.8766 -1.0327  2.7284
 1009MOL0     H33154   0.196   2.750   1.217 -1.2062  0.9834 -0.1696
 1009MOL0     H33155   0.259   2.763   1.040  1.9002  2.7302 -1.5499
 1009MOL0     H33156   0.209   3.018   1.079 -0.2870  0.2868 -0.4876
 1009MOL0     H33157   0.133   2.981   1.228  1.2127  1.4704 -0.4120
 1009MOL0     H33158   0.055   2.897   0.946 -0.0417  2.0896  0.6658
 1009MOL0     H33159  -0.027   3.010   1.048 -1.1092 -0.3755 -2.1635
 1009MOL0     H33160  -0.019   2.702   1.102 -3.0840 -1.9783  2.2909
 1009MOL0     H33161  -0.083   2.829   1.205  0.0913  0.1553  0.2357
 1009MOL0     H33162  -0.182   2.732   0.918 -3.9907 -0.2455  0.0130
 1009MOL0     H33163  -0.232   2.884   0.993 -1.7606  0.1562  1.9819
 1009MOL0     H33164  -0.306   2.618   1.085 -0.6616 -0.2442  0.6349
 1009MOL0     H33165  -0.399   2.745   1.009  0.0046 -0.3034 -0.0092
 1009MOL0     H33166  -0.260   2.797   1.287  0.7617 -0.0924  0.5987
 1009MOL0     H33167  -0.380   2.900   1.204 -2.1545 -0.9220 -1.9393
 1009MOL0     H33168  -0.470   2.774   1.403 -1.8459  0.4193 -0.4418
 1009MOL0     H33169  -0.452   2.632   1.302 -0.3759  0.2980  0.3060
 1009MOL0     H33170   0.392   2.589   1.104 -0.7836  1.9855  0.1451
 1009MOL0     H33171   0.598   2.439   1.169 -3.1941  0.0877  0.5912
 1009MOL0     H33172   0.864   2.262   1.513 -1.2205  0.8122  0.8186
 1009MOL0     H33173   1.072   2.152   1.583 -0.1529  0.8742  2.3832
 1009MOL0     H33174   2.798   1.861   2.473  1.3550 -2.4987 -1.5938
 1009MOL0     H33175   3.029   1.823   2.434  0.0488 -0.0888  0.8127
 1009MOL0     H33176   3.423   1.916   2.110  1.3583 -1.0677 -0.9579
 1009MOL0     H33177   3.659   1.903   2.100 -2.0300  1.1039 -2.2749
 1009MOL0     H33178   3.872   1.957   2.148 -0.6793  0.1140 -0.9199
 1009MOL0     H33179   3.869   1.786   2.109  1.3719 -1.1989  1.8115
 1009MOL0     H33180   4.056   1.741   2.244 -0.9206  0.2516  2.8854
 1009MOL0     H33181   4.103   1.857   2.119 -0.6530 -0.5078 -0.4998
 1009MOL0     H33182   4.025   1.968   2.398 -2.8037 -2.6764 -0.1417
 1009MOL0     H33183   4.122   2.033   2.279  3.4497 -0.0720  1.7601
 1009MOL0     H33184   4.225   1.775   2.415  1.3290 -0.8548  1.6358
 1009MOL0     H33185   4.312   1.907   2.323  0.4160 -0.0249  0.6102
 1009MOL0     H33186   4.272   2.064   2.716  1.0498 -1.0558 -0.0501
 1009MOL0     H33187   3.674   1.861   2.540 -0.3635  1.3649  1.3502
 1009MOL0     H33188   3.463   1.910   2.561  0.9310  1.1576  0.1601
 1010MOL0     O33189   3.285   1.591   3.955  0.1448  0.2078 -0.1639
 1010MOL0     C33190   3.323   1.639   4.064  0.9867  0.2640 -0.4250
 1010MOL0     O33191   3.239   1.710   4.152  0.4432 -0.3566  0.0417
 1010MOL0     C33192   3.105   1.712   4.127 -0.8844  0.3958 -0.4112
 1010MOL0     C33193   3.047   1.832   4.111 -0.3938 -0.0142 -0.2261
 1010MOL0     C33194   2.912   1.838   4.072  0.0678 -0.8335 -0.3435
 1010MOL0     C33195   2.833   1.715   4.072 -1.2244  0.3882 -0.0951
 1010MOL0     O33196   2.715   1.725   4.013  0.2712 -0.0411  0.3967
 1010MOL0     C33197   2.618   1.767   4.103 -0.2337 -0.5321 -0.3126
 1010MOL0     C33198   2.483   1.771   4.037 -0.4148  1.1591 -0.5859
 1010MOL0     C33199   2.428   1.626   4.022 -0.5940 -0.5326  0.5648
 1010MOL0     C33200   2.348   1.647   3.894  0.3369 -0.0736  0.3501
 1010MOL0     C33201   2.267   1.528   3.866 -1.7220 -0.0996  0.5755
 1010MOL0     C33202   2.161   1.488   3.964  0.8010 -0.1736  0.9953
 1010MOL0     C33203   2.054   1.604   3.985 -0.7856 -0.0856 -0.2048
 1010MOL0     C33204   1.934   1.552   4.065  0.1719 -0.0766  0.9662
 1010MOL0     N33205   1.809   1.570   3.991 -0.4453  1.0111 -0.0403
 1010MOL0     C33206   1.701   1.641   4.033 -0.4940  0.1505  0.6902
 1010MOL0     C33207   1.616   1.629   3.933  0.6117  0.1174 -0.2611
 1010MOL0     C33208   1.483   1.701   3.930  0.7854 -1.1864 -0.4123
 1010MOL0     C33209   1.383   1.616   3.848  0.4000 -0.9360 -0.3899
 1010MOL0     C33210   1.254   1.687   3.810 -0.7346  0.9620  0.0984
 1010MOL0     C33211   1.156   1.595   3.741  0.4472  0.7562  0.3278
 1010MOL0     O33212   1.035   1.666   3.722  0.2363 -0.1392  0.3891
 1010MOL0     C33213   0.925   1.593   3.687  0.3391 -0.0276  0.7509
 1010MOL0     C33214   0.806   1.658   3.727 -0.3312 -0.2282 -0.4388
 1010MOL0     C33215   0.685   1.608   3.680  0.1212  1.5946  0.4289
 1010MOL0     C33216   0.682   1.482   3.606  0.6822 -0.5693 -0.1386
 1010MOL0     C33217   0.560   1.407   3.558 -1.0186 -0.7106 -0.0919
 1010MOL0     O33218   0.444   1.480   3.563  0.8085 -0.0720 -0.2744
 1010MOL0     C33219   0.334   1.425   3.505  0.6606 -1.0281 -0.6278
 1010MOL0     C33220   0.335   1.382   3.370 -0.7902  0.4201 -0.2240
 1010MOL0     C33221   0.214   1.337   3.308 -0.8222 -0.3699  0.0664
 1010MOL0     C33222   0.101   1.321   3.384  0.7374  0.2324  0.7724
 1010MOL0     O33223  -0.015   1.278   3.322 -0.2625 -0.3047 -0.2726
 1010MOL0     C33224  -0.141   1.304   3.378  0.2347 -0.9298  0.0490
 1010MOL0     C33225  -0.237   1.278   3.262  0.2017 -0.7292 -0.6339
 1010MOL0     C33226  -0.373   1.348   3.276  0.3112 -0.2026 -0.6472
 1010MOL0     C33227  -0.440   1.295   3.404  0.4137 -0.2665  0.8004
 1010MOL0     C33228  -0.581   1.358   3.420  0.2027 -0.4795  0.5310
 1010MOL0     C33229  -0.697   1.302   3.330 -0.5410  0.1053 -0.0483
 1010MOL0     C33230  -0.833   1.378   3.372  0.2907  0.2676 -0.6519
 1010MOL0     C33231  -0.947   1.349   3.278  0.4152  0.4807  0.1799
 1010MOL0    Cl33232  -1.109   1.349   3.365  0.0158 -0.6219  0.1671
 1010MOL0     C33233   0.103   1.360   3.523  0.6526 -0.3910 -0.6340
 1010MOL0     C33234   0.219   1.407   3.582 -0.7987 -0.0890  0.6215
 1010MOL0     O33235   0.566   1.291   3.525  0.4642  0.3056  0.2437
 1010MOL0     C33236   0.802   1.411   3.580  0.6639  0.2350 -0.3502
 1010MOL0     C33237   0.921   1.467   3.620 -0.0186  0.3893 -1.2863
 1010MOL0     N33238   1.663   1.542   3.837 -0.7110  1.2240  0.1610
 1010MOL0     N33239   1.787   1.508   3.868 -0.1074 -0.1822  0.2759
 1010MOL0     C33240   2.905   1.590   4.090  0.9517 -0.1502  0.0479
 1010MOL0     C33241   3.036   1.590   4.119  0.2336 -0.0536 -1.2036
 1010MOL0     C33242   3.464   1.621   4.101  0.1466  0.7425 -0.1594
 1010MOL0     C33243   3.555   1.535   4.031 -0.0279 -0.8574 -0.2683
 1010MOL0     C33244   3.687   1.533   4.070  0.7125  0.5014  0.0436
 1010MOL0     C33245   3.739   1.616   4.175 -0.5080  1.2715 -1.0612
 1010MOL0     O33246   3.866   1.625   4.206  0.2122 -0.0136  0.0141
 1010MOL0     C33247   3.897   1.543   4.318  0.1559  0.2814  0.5000
 1010MOL0     C33248   3.916   1.600   4.465 -0.4304  0.0692  0.0853
 1010MOL0     C33249   4.019   1.713   4.479 -0.4293 -0.5025 -0.7688
 1010MOL0     C33250   4.050   1.751   4.635 -0.0048  0.1917 -0.0436
 1010MOL0     C33251   4.114   1.887   4.638  0.3732  0.2741  0.0367
 1010MOL0     C33252   4.166   1.994   4.635 -0.3563  0.5069 -0.3235
 1010MOL0     C33253   3.650   1.686   4.251  0.1117  0.0767  0.0538
 1010MOL0     C33254   3.511   1.692   4.212  0.4650 -0.0986  0.0460
 1010MOL0     H33255   3.106   1.923   4.115  0.4621 -0.5182 -0.9880
 1010MOL0     H33256   2.857   1.928   4.049 -0.8706 -1.8848 -2.4975
 1010MOL0     H33257   2.644   1.865   4.142  1.6084 -1.0319 -0.1877
 1010MOL0     H33258   2.627   1.698   4.188  4.6281  0.7669  0.5163
 1010MOL0     H33259   2.489   1.815   3.937 -2.8421 -1.1369 -1.8794
 1010MOL0     H33260   2.415   1.820   4.107 -0.7008  0.5005 -0.3999
 1010MOL0     H33261   2.359   1.602   4.103 -3.2855  0.3647 -1.2985
 1010MOL0     H33262   2.497   1.543   4.006  1.1575  1.2859 -2.1569
 1010MOL0     H33263   2.278   1.730   3.904  0.2833  0.1583 -1.4730
 1010MOL0     H33264   2.404   1.667   3.802  0.3311 -4.0114 -0.7215
 1010MOL0     H33265   2.340   1.449   3.847  0.1918  0.8649  3.3142
 1010MOL0     H33266   2.219   1.548   3.769 -1.5063 -0.8235  0.3087
 1010MOL0     H33267   2.206   1.460   4.060 -1.2739 -5.3826  0.7928
 1010MOL0     H33268   2.109   1.402   3.921 -0.3469  0.9268  0.1372
 1010MOL0     H33269   2.106   1.682   4.040  1.6020 -1.0727 -0.9210
 1010MOL0     H33270   2.039   1.652   3.887  1.6236  2.6080  0.6061
 1010MOL0     H33271   1.929   1.587   4.169 -0.2821  1.0276  0.5943
 1010MOL0     H33272   1.951   1.445   4.078 -2.3994 -0.4348  1.9614
 1010MOL0     H33273   1.679   1.692   4.126 -0.0127  1.1088  0.2974
 1010MOL0     H33274   1.487   1.800   3.885 -1.3053 -0.2287  1.3419
 1010MOL0     H33275   1.461   1.718   4.036  2.3246  0.1638 -0.2684
 1010MOL0     H33276   1.356   1.533   3.914 -1.1238 -2.0900 -2.3565
 1010MOL0     H33277   1.430   1.585   3.754 -0.6165  0.3435 -1.3580
 1010MOL0     H33278   1.214   1.735   3.900  1.3131  1.6612  0.6890
 1010MOL0     H33279   1.276   1.766   3.737  1.8990 -1.0243 -1.3955
 1010MOL0     H33280   1.141   1.502   3.796  0.2542  1.3043  1.2167
 1010MOL0     H33281   1.193   1.570   3.641  1.7018  2.5581  0.2838
 1010MOL0     H33282   0.825   1.745   3.789  0.5667  0.5532 -1.7781
 1010MOL0     H33283   0.589   1.651   3.708 -0.7715  0.6965 -1.0705
 1010MOL0     H33284   0.428   1.394   3.316 -1.0761  0.3749 -0.7304
 1010MOL0     H33285   0.208   1.333   3.199 -0.8392 -1.8670  0.1064
 1010MOL0     H33286  -0.159   1.404   3.418 -0.1206 -1.5752  1.5748
 1010MOL0     H33287  -0.154   1.225   3.452 -0.2374  2.0643  3.4149
 1010MOL0     H33288  -0.240   1.171   3.238 -1.4489 -1.2705  1.6662
 1010MOL0     H33289  -0.194   1.327   3.174  3.4523 -1.0987  0.6168
 1010MOL0     H33290  -0.432   1.326   3.186 -0.9656  0.3956  0.0143
 1010MOL0     H33291  -0.371   1.458   3.278  0.5016 -0.2143 -0.0012
 1010MOL0     H33292  -0.458   1.190   3.383 -0.0696  0.0709 -0.5228
 1010MOL0     H33293  -0.386   1.316   3.497 -1.3959  1.0582  1.6185
 1010MOL0     H33294  -0.574   1.464   3.395  2.5588 -0.6873  0.0326
 1010MOL0     H33295  -0.615   1.355   3.524 -0.8866  0.8548  0.2299
 1010MOL0     H33296  -0.705   1.195   3.351  0.7623 -0.2112 -1.0234
 1010MOL0     H33297  -0.670   1.314   3.225  0.0439 -0.3250  0.0449
 1010MOL0     H33298  -0.848   1.353   3.478  1.9741 -1.4600 -0.7715
 1010MOL0     H33299  -0.816   1.482   3.344  0.8908 -0.0255 -1.4019
 1010MOL0     H33300  -0.933   1.249   3.237 -0.4718  1.1588 -1.9108
 1010MOL0     H33301  -0.953   1.423   3.198 -1.1876 -0.1741 -0.3417
 1010MOL0     H33302   0.015   1.353   3.586  2.0088 -3.6949  1.1527
 1010MOL0     H33303   0.230   1.447   3.683 -2.0991  2.1387 -0.0500
 1010MOL0     H33304   0.794   1.317   3.526 -3.0732 -0.2930  0.7643
 1010MOL0     H33305   1.017   1.418   3.603  0.1032  0.9011 -2.1322
 1010MOL0     H33306   2.856   1.494   4.076  0.9625 -0.2416  0.6172
 1010MOL0     H33307   3.087   1.494   4.124  1.8532  0.6710 -2.5594
 1010MOL0     H33308   3.524   1.484   3.940 -1.1634 -0.1378 -0.3111
 1010MOL0     H33309   3.753   1.467   4.014  0.8278  0.0622  0.6865
 1010MOL0     H33310   3.997   1.501   4.302 -0.3789 -0.9512  0.3628
 1010MOL0     H33311   3.831   1.456   4.326  0.1825 -0.0866 -2.2777
 1010MOL0     H33312   3.818   1.634   4.501 -1.1616 -0.7586 -1.0912
 1010MOL0     H33313   3.951   1.515   4.524  0.1859 -0.3464 -0.8586
 1010MOL0     H33314   3.984   1.804   4.430  1.9064  1.8888  1.6300
 1010MOL0     H33315   4.118   1.689   4.439 -0.6127 -1.3655 -0.7142
 1010MOL0     H33316   3.960   1.753   4.697 -1.5318 -1.8327 -2.0444
 1010MOL0     H33317   4.112   1.671   4.675 -1.1913  0.0269  1.5879
 1010MOL0     H33318   4.211   2.089   4.616  1.2877 -0.0706  0.4526
 1010MOL0     H33319   3.677   1.747   4.336  1.7979 -1.0909  0.3939
 1010MOL0     H33320   3.439   1.763   4.253 -1.2488 -0.2173 -2.5191
 1011MOL0     O33321  11.077  10.087   3.150 -0.2603  0.2468 -0.9303
 1011MOL0     C33322  11.053  10.007   3.237  0.2262 -0.5273 -0.1735
 1011MOL0     O33323  10.933   9.979   3.289  0.0802 -0.2516  0.4297
 1011MOL0     C33324  10.816  10.038   3.254 -0.3102  0.5589 -0.1186
 1011MOL0     C33325  10.704   9.969   3.306  0.0837  0.6578 -0.0051
 1011MOL0     C33326  10.577  10.026   3.304 -0.0018 -0.4459  0.4965
 1011MOL0     C33327  10.562  10.156   3.249 -0.2206  0.2567 -1.2124
 1011MOL0     O33328  10.449  10.234   3.241 -0.6127 -0.3403  0.0353
 1011MOL0     C33329  10.327  10.185   3.302 -0.4607 -0.3770  0.3711
 1011MOL0     C33330  10.220  10.296   3.307 -0.4634 -0.5241 -0.7928
 1011MOL0     C33331  10.282  10.414   3.382  0.2533 -0.6506 -0.1469
 1011MOL0     C33332  10.192  10.503   3.467 -0.1258  0.2664  0.6053
 1011MOL0     C33333  10.081  10.578   3.393 -0.5280  0.8783 -0.1881
 1011MOL0     C33334  10.120  10.720   3.345 -0.0597  0.2927  0.3585
 1011MOL0     C33335  10.002  10.776   3.259 -0.0998  0.1700  0.0826
 1011MOL0     C33336   9.873  10.834   3.341  1.0572  0.6517  0.0156
 1011MOL0     N33337   9.749  10.744   3.335 -0.1367  0.0135 -0.0687
 1011MOL0     C33338   9.715  10.659   3.236 -0.0178  0.4306  0.4654
 1011MOL0     C33339   9.612  10.583   3.288  0.6100  0.9454  0.6707
 1011MOL0     C33340   9.535  10.472   3.216  0.2623 -0.0076  0.2751
 1011MOL0     C33341   9.413  10.529   3.144 -0.3164  0.2358  0.1093
 1011MOL0     C33342   9.340  10.419   3.064 -0.2061 -0.2179 -0.1039
 1011MOL0     C33343   9.234  10.472   2.970 -0.2089  0.3032 -0.3276
 1011MOL0     O33344   9.128  10.517   3.063  0.6773  0.0433  0.0557
 1011MOL0     C33345   9.002  10.474   3.028 -1.1489 -0.1507  0.1340
 1011MOL0     C33346   8.929  10.398   3.116 -0.8276 -0.2730  0.6870
 1011MOL0     C33347   8.808  10.348   3.084 -0.3541  0.1678  0.0819
 1011MOL0     C33348   8.748  10.369   2.961 -0.0205 -0.8357  0.3670
 1011MOL0     C33349   8.626  10.306   2.922  1.1779 -1.1291 -0.9129
 1011MOL0     O33350   8.597  10.309   2.789  0.0457  0.2467  0.9560
 1011MOL0     C33351   8.495  10.247   2.724  0.8763  0.2621 -0.3826
 1011MOL0     C33352   8.424  10.140   2.782 -0.5061 -0.3433  0.3147
 1011MOL0     C33353   8.325  10.085   2.707 -0.2026 -1.5517  0.2335
 1011MOL0     C33354   8.289  10.126   2.578 -0.0421 -0.0191 -0.7464
 1011MOL0     O33355   8.199  10.063   2.495 -0.4591  0.1778  0.6162
 1011MOL0     C33356   8.140   9.941   2.544  0.4990 -0.3177 -0.6368
 1011MOL0     C33357   8.069   9.861   2.436  0.7441  0.1704  0.2562
 1011MOL0     C33358   7.977   9.761   2.502 -0.2434 -0.1713 -0.6066
 1011MOL0     C33359   7.914   9.682   2.380  0.1830  1.6051  0.8951
 1011MOL0     C33360   7.824   9.566   2.427  0.0906 -0.0344 -0.9076
 1011MOL0     C33361   7.763   9.484   2.308 -1.0021  0.2463 -0.1577
 1011MOL0     C33362   7.858   9.379   2.250  0.3123  0.2046 -0.4590
 1011MOL0     C33363   7.848   9.254   2.331  0.2722  0.4835 -0.1893
 1011MOL0    Cl33364   7.981   9.146   2.288 -0.1111  0.0438 -0.1279
 1011MOL0     C33365   8.349  10.243   2.533 -0.8628 -0.0118  0.3116
 1011MOL0     C33366   8.455  10.302   2.601  1.0002  0.3904  0.3292
 1011MOL0     O33367   8.555  10.272   3.018 -0.0210 -0.4398  0.2534
 1011MOL0     C33368   8.819  10.447   2.870  0.5642  0.1312  0.2328
 1011MOL0     C33369   8.945  10.496   2.904 -0.2544 -0.0720 -0.0372
 1011MOL0     N33370   9.589  10.629   3.413 -0.6877 -0.4032  0.5460
 1011MOL0     N33371   9.682  10.715   3.441  0.2013 -1.1793  0.1672
 1011MOL0     C33372  10.676  10.217   3.188  0.0628 -0.0533 -0.0380
 1011MOL0     C33373  10.799  10.157   3.181  0.5725  0.5882  0.4954
 1011MOL0     C33374  11.172   9.936   3.296 -0.8108  0.3108 -0.4084
 1011MOL0     C33375  11.152   9.845   3.403  0.0539  0.4538 -0.6968
 1011MOL0     C33376  11.261   9.780   3.472 -0.2971 -0.9223 -0.1702
 1011MOL0     C33377  11.395   9.809   3.434  0.3677 -0.2234 -0.5693
 1011MOL0     O33378  11.518   9.788   3.501  0.2627  0.0198 -0.8989
 1011MOL0     C33379  11.544   9.852   3.626  0.6188 -1.6132 -1.3077
 1011MOL0     C33380  11.442   9.816   3.737 -0.4308  0.3810  0.1395
 1011MOL0     C33381  11.532   9.784   3.868  0.4131 -0.2037  0.1033
 1011MOL0     C33382  11.434   9.722   3.969 -0.6568  0.5975 -0.7015
 1011MOL0     C33383  11.322   9.802   4.002 -0.5134  0.1267  0.1144
 1011MOL0     C33384  11.228   9.875   4.033  0.2135 -0.2738 -0.4569
 1011MOL0     C33385  11.410   9.893   3.329 -0.6444 -0.1805 -0.2705
 1011MOL0     C33386  11.305   9.963   3.263  1.0068 -0.1133  1.0035
 1011MOL0     H33387  10.719   9.869   3.346  3.6460  1.2802  0.5447
 1011MOL0     H33388  10.484   9.984   3.343 -0.8184  2.8228  2.4033
 1011MOL0     H33389  10.348  10.137   3.398  3.8134  0.2575 -0.0418
 1011MOL0     H33390  10.291  10.107   3.234 -0.3971  0.1553 -0.2789
 1011MOL0     H33391  10.138  10.257   3.367 -0.7780  1.8447  0.4303
 1011MOL0     H33392  10.184  10.323   3.207  0.8559 -0.1190 -1.1791
 1011MOL0     H33393  10.328  10.487   3.314 -0.9409  1.4153  1.1827
 1011MOL0     H33394  10.357  10.376   3.452 -1.9555 -0.5199  2.4404
 1011MOL0     H33395  10.150  10.436   3.542 -2.4640  0.0107 -0.8450
 1011MOL0     H33396  10.253  10.575   3.524 -1.2441  0.7006  1.2932
 1011MOL0     H33397   9.990  10.589   3.454 -0.3239  1.9777 -0.0516
 1011MOL0     H33398  10.060  10.522   3.302  0.2999 -0.7885  0.6091
 1011MOL0     H33399  10.205  10.721   3.276 -1.3660  1.1911 -1.2840
 1011MOL0     H33400  10.147  10.772   3.437  1.7484 -1.2832  0.7998
 1011MOL0     H33401  10.045  10.859   3.204 -0.1244  0.9425  1.1937
 1011MOL0     H33402   9.962  10.699   3.192  1.2242  0.1045 -0.6783
 1011MOL0     H33403   9.844  10.934   3.306  4.2084  1.3086 -1.1162
 1011MOL0     H33404   9.887  10.849   3.449 -0.7348  0.1560  0.3482
 1011MOL0     H33405   9.767  10.653   3.141  2.3976  1.3199  1.6344
 1011MOL0     H33406   9.510  10.394   3.289 -0.4659 -0.9132 -0.9040
 1011MOL0     H33407   9.599  10.425   3.141 -1.3096 -1.4118 -0.2647
 1011MOL0     H33408   9.447  10.614   3.084  0.8247  0.7587  1.4437
 1011MOL0     H33409   9.345  10.569   3.220  2.4853 -2.4419  4.5115
 1011MOL0     H33410   9.412  10.355   3.011 -1.8661 -0.7144 -1.8870
 1011MOL0     H33411   9.283  10.346   3.122 -2.7926 -2.1636 -4.5626
 1011MOL0     H33412   9.192  10.395   2.906 -2.5778  1.5335 -0.3727
 1011MOL0     H33413   9.273  10.557   2.913  1.6051  1.6068  2.6128
 1011MOL0     H33414   8.961  10.385   3.219 -1.4992 -4.6026  0.5452
 1011MOL0     H33415   8.754  10.285   3.153 -2.0860 -0.6218 -1.8728
 1011MOL0     H33416   8.446  10.105   2.882  1.5223 -2.3829 -0.7475
 1011MOL0     H33417   8.260  10.010   2.750 -5.2614  1.9419 -0.4269
 1011MOL0     H33418   8.068   9.974   2.619  0.1345 -0.6157 -0.8498
 1011MOL0     H33419   8.212   9.870   2.586 -2.1558 -2.1274  1.1882
 1011MOL0     H33420   8.136   9.805   2.370 -1.9540 -1.4856 -1.2826
 1011MOL0     H33421   8.023   9.939   2.375 -1.5394  0.1326  1.7931
 1011MOL0     H33422   7.895   9.807   2.558  1.4554  2.4669 -0.1230
 1011MOL0     H33423   8.029   9.696   2.573  0.0365  0.1119 -0.5518
 1011MOL0     H33424   7.850   9.744   2.316 -1.0419 -0.0379  0.4707
 1011MOL0     H33425   7.993   9.632   2.323 -0.2889  0.3430  1.3381
 1011MOL0     H33426   7.741   9.604   2.488  0.3126  0.0498 -0.6543
 1011MOL0     H33427   7.885   9.508   2.498 -0.9669  0.2694  0.2915
 1011MOL0     H33428   7.730   9.557   2.233 -2.2152  1.6049  1.6253
 1011MOL0     H33429   7.677   9.420   2.325 -0.2396 -0.7767 -0.0736
 1011MOL0     H33430   7.811   9.352   2.155 -0.6898 -0.6609  0.2665
 1011MOL0     H33431   7.964   9.407   2.241  0.5652 -0.8812 -1.0112
 1011MOL0     H33432   7.747   9.212   2.322  1.6941 -3.5486  0.7277
 1011MOL0     H33433   7.865   9.289   2.433  2.1298 -2.6752  0.7146
 1011MOL0     H33434   8.325  10.277   2.432  1.3947  1.4374  0.1945
 1011MOL0     H33435   8.503  10.396   2.576  1.3646 -0.1557 -1.0945
 1011MOL0     H33436   8.775  10.476   2.776  0.1168 -1.3736 -0.0445
 1011MOL0     H33437   9.004  10.559   2.838  2.2857 -0.2157  1.9638
 1011MOL0     H33438  10.673  10.309   3.130  0.5070 -0.1762 -0.2613
 1011MOL0     H33439  10.888  10.206   3.142  1.0628 -0.4885  0.2131
 1011MOL0     H33440  11.057   9.803   3.435 -0.1192 -0.2451 -2.0568
 1011MOL0     H33441  11.241   9.702   3.544  1.8275 -2.0842 -0.7601
 1011MOL0     H33442  11.552   9.961   3.623  2.7416 -1.5349  1.9487
 1011MOL0     H33443  11.642   9.808   3.644 -0.1908 -2.4755  1.4630
 1011MOL0     H33444  11.368   9.896   3.748 -0.2649  0.4009  1.3217
 1011MOL0     H33445  11.382   9.726   3.720 -2.1986  1.6947 -0.9408
 1011MOL0     H33446  11.574   9.880   3.899 -5.0365  2.7665 -0.2809
 1011MOL0     H33447  11.605   9.707   3.842  3.0383  1.9351  0.8127
 1011MOL0     H33448  11.410   9.623   3.929  1.0297 -0.7156  1.3530
 1011MOL0     H33449  11.485   9.705   4.064  2.7697 -0.4531 -2.5506
 1011MOL0     H33450  11.147   9.931   4.075 -1.3938 -3.2344  0.7193
 1011MOL0     H33451  11.516   9.908   3.309 -0.2298  1.1117  2.4486
 1011MOL0     H33452  11.325  10.027   3.178 -2.0896  0.5505  0.6589
 1012MOL0     O33453   5.433   2.054   8.719 -0.0006 -0.1592  0.0796
 1012MOL0     C33454   5.545   2.095   8.715 -0.8561  0.0875 -0.6413
 1012MOL0     O33455   5.601   2.207   8.654  1.1474 -0.1015  0.7796
 1012MOL0     C33456   5.525   2.301   8.594 -0.3998  0.4821 -0.1577
 1012MOL0     C33457   5.414   2.353   8.662  0.3808  0.0222  0.5395
 1012MOL0     C33458   5.330   2.446   8.591  0.4919 -0.1303 -0.4824
 1012MOL0     C33459   5.374   2.498   8.467  0.5990 -0.1853  0.3602
 1012MOL0     O33460   5.319   2.611   8.397 -0.1361 -0.6196 -0.1300
 1012MOL0     C33461   5.227   2.704   8.470 -0.3546  0.0733  0.6897
 1012MOL0     C33462   5.204   2.841   8.409 -0.0491  0.6812  0.4789
 1012MOL0     C33463   5.108   2.824   8.293 -0.0188 -0.7161 -0.0212
 1012MOL0     C33464   5.078   2.958   8.224  0.0907 -0.3847 -1.5168
 1012MOL0     C33465   4.994   3.046   8.321 -0.3042 -0.4536 -0.8252
 1012MOL0     C33466   4.931   3.184   8.277  0.2494  0.2793  0.3278
 1012MOL0     C33467   4.857   3.244   8.395 -0.3724 -0.6749 -0.3366
 1012MOL0     C33468   4.720   3.177   8.404 -0.1316 -0.2117  0.9312
 1012MOL0     N33469   4.667   3.219   8.533 -0.2439  0.2260  0.6154
 1012MOL0     C33470   4.645   3.351   8.576  0.3860  0.0345  0.4149
 1012MOL0     C33471   4.591   3.339   8.696 -0.0184  0.3662 -0.8294
 1012MOL0     C33472   4.556   3.455   8.780 -0.0903 -0.5269 -0.1753
 1012MOL0     C33473   4.414   3.487   8.815 -0.2094 -0.8310 -1.2814
 1012MOL0     C33474   4.328   3.526   8.695 -0.3827  0.4104 -0.0090
 1012MOL0     C33475   4.180   3.494   8.721 -0.4183 -0.1335  0.2149
 1012MOL0     O33476   4.139   3.544   8.846  0.5203 -0.5758  0.1918
 1012MOL0     C33477   4.012   3.506   8.876  0.1871  0.1894 -0.1304
 1012MOL0     C33478   3.985   3.536   9.016  0.4535 -0.0715  0.3051
 1012MOL0     C33479   3.856   3.516   9.076 -0.6405 -0.3162  1.3162
 1012MOL0     C33480   3.756   3.461   8.988  0.1404 -0.0129 -0.6001
 1012MOL0     C33481   3.623   3.430   9.046 -0.3239  0.0746  0.3703
 1012MOL0     O33482   3.541   3.352   8.963 -0.2176  0.3023 -1.3100
 1012MOL0     C33483   3.423   3.305   9.027 -0.3721 -0.5882  2.0234
 1012MOL0     C33484   3.371   3.178   8.994  0.8663 -0.5643  0.0536
 1012MOL0     C33485   3.250   3.127   9.039 -1.2806  0.4909  0.4732
 1012MOL0     C33486   3.181   3.200   9.132  0.1590 -0.7706 -0.1096
 1012MOL0     O33487   3.068   3.143   9.195 -0.5559 -0.2156  0.4221
 1012MOL0     C33488   3.061   3.174   9.340  0.2483  0.2410 -0.5075
 1012MOL0     C33489   2.953   3.273   9.374  0.7580  0.1642 -0.4809
 1012MOL0     C33490   2.809   3.204   9.364  0.5129 -0.3362 -0.1234
 1012MOL0     C33491   2.694   3.310   9.377 -0.1914 -0.1093 -0.0440
 1012MOL0     C33492   2.566   3.248   9.325 -0.0746  0.0355  0.4704
 1012MOL0     C33493   2.524   3.129   9.406  0.4587 -0.4148 -0.0608
 1012MOL0     C33494   2.368   3.098   9.389 -0.0436  0.7361 -0.4227
 1012MOL0     C33495   2.313   2.978   9.472 -0.4992  0.3769  0.5178
 1012MOL0    Cl33496   2.134   2.987   9.507 -0.1859  0.1081  0.3184
 1012MOL0     C33497   3.221   3.339   9.160  0.3723 -0.6189  0.4002
 1012MOL0     C33498   3.336   3.391   9.099  0.8778 -0.7359 -0.1721
 1012MOL0     O33499   3.599   3.454   9.163  0.0803  0.6424 -0.9251
 1012MOL0     C33500   3.778   3.425   8.858 -1.4149 -0.0803  0.6752
 1012MOL0     C33501   3.911   3.450   8.797  0.4787 -0.1418  0.6979
 1012MOL0     N33502   4.577   3.199   8.729  0.1144  1.0391  0.2084
 1012MOL0     N33503   4.621   3.128   8.629  0.1187 -0.0771  0.3891
 1012MOL0     C33504   5.489   2.455   8.412 -0.7723 -0.1264  0.0897
 1012MOL0     C33505   5.560   2.353   8.472  0.3421 -0.5279  0.3476
 1012MOL0     C33506   5.657   2.008   8.766  0.4570  0.7458  0.8866
 1012MOL0     C33507   5.636   1.932   8.883 -0.0206 -0.0450  0.3811
 1012MOL0     C33508   5.747   1.861   8.936 -0.7183 -1.2108  0.2811
 1012MOL0     C33509   5.872   1.860   8.878  0.3070 -1.2680 -1.1698
 1012MOL0     O33510   5.968   1.790   8.942  0.3545  0.4806 -0.7635
 1012MOL0     C33511   6.104   1.822   8.911  0.3948 -0.1688 -0.0113
 1012MOL0     C33512   6.199   1.781   9.023  0.4904 -0.0690 -0.1462
 1012MOL0     C33513   6.177   1.639   9.082 -0.3113  0.1977 -0.5884
 1012MOL0     C33514   6.262   1.615   9.199 -0.1940  0.3945  0.3962
 1012MOL0     C33515   6.398   1.588   9.162 -0.1097 -0.5204 -0.0115
 1012MOL0     C33516   6.511   1.564   9.138  0.0067  0.3273 -0.2928
 1012MOL0     C33517   5.893   1.942   8.771  0.3621  0.5501 -0.2692
 1012MOL0     C33518   5.788   2.011   8.710 -0.4728 -0.0904 -0.3909
 1012MOL0     H33519   5.390   2.327   8.765 -0.8994  0.9574  0.4954
 1012MOL0     H33520   5.239   2.488   8.632  0.1765 -1.8538  0.6646
 1012MOL0     H33521   5.281   2.721   8.564  2.9689 -1.0054 -0.8699
 1012MOL0     H33522   5.135   2.648   8.490  1.2138 -2.7123  0.7198
 1012MOL0     H33523   5.299   2.881   8.373  0.4295 -0.3901  0.5358
 1012MOL0     H33524   5.160   2.901   8.489  2.8376  1.5812  1.5019
 1012MOL0     H33525   5.019   2.771   8.327  1.6228 -2.2246  2.2593
 1012MOL0     H33526   5.157   2.766   8.214  2.2374  2.1463 -0.9277
 1012MOL0     H33527   5.170   3.008   8.195  0.0245  0.1686 -0.8118
 1012MOL0     H33528   5.029   2.942   8.128  0.7767 -2.7070 -1.5509
 1012MOL0     H33529   5.058   3.063   8.408  0.2065 -4.3013 -0.2515
 1012MOL0     H33530   4.913   2.981   8.355 -0.5328 -0.5135 -1.4724
 1012MOL0     H33531   4.869   3.177   8.187  2.5155 -1.5768 -1.2427
 1012MOL0     H33532   5.017   3.250   8.259  2.4147 -2.4865 -0.3323
 1012MOL0     H33533   4.908   3.257   8.491 -3.1605  4.9575  0.8335
 1012MOL0     H33534   4.836   3.347   8.365  0.0268 -0.3473  0.4676
 1012MOL0     H33535   4.733   3.068   8.411  0.5317 -0.0177  5.0529
 1012MOL0     H33536   4.655   3.205   8.321 -0.8802  0.1861  1.6414
 1012MOL0     H33537   4.688   3.446   8.544 -2.4636  1.1136 -0.5532
 1012MOL0     H33538   4.600   3.545   8.737 -1.9404  1.3645  1.7007
 1012MOL0     H33539   4.611   3.441   8.874  0.1445  1.5417  0.0439
 1012MOL0     H33540   4.417   3.572   8.884 -1.8473 -2.1732  0.5714
 1012MOL0     H33541   4.377   3.400   8.870 -1.0978  0.0655 -0.4190
 1012MOL0     H33542   4.333   3.635   8.680 -0.0957  0.7666  2.3747
 1012MOL0     H33543   4.355   3.486   8.597 -1.7070  0.9074 -0.6060
 1012MOL0     H33544   4.170   3.385   8.714  0.8814 -0.2278 -0.7042
 1012MOL0     H33545   4.127   3.532   8.634  1.8360 -1.5309 -1.9165
 1012MOL0     H33546   4.066   3.579   9.075 -0.6008  3.2453 -0.4526
 1012MOL0     H33547   3.824   3.539   9.177  0.4887 -0.7989  1.7998
 1012MOL0     H33548   3.427   3.106   8.935 -0.6490 -1.6056 -0.1516
 1012MOL0     H33549   3.234   3.020   9.028 -1.2860  0.6708 -1.5987
 1012MOL0     H33550   3.161   3.200   9.378  1.5926 -3.3042 -1.1881
 1012MOL0     H33551   3.049   3.075   9.386  0.6773 -0.1196 -1.1549
 1012MOL0     H33552   2.956   3.353   9.299 -0.9117 -0.3128 -1.1136
 1012MOL0     H33553   2.977   3.327   9.466  2.0934  0.1480 -0.8026
 1012MOL0     H33554   2.807   3.133   9.447  1.4569 -0.5887 -0.3096
 1012MOL0     H33555   2.795   3.152   9.269  3.3861 -0.4147 -0.5889
 1012MOL0     H33556   2.689   3.339   9.483  1.2158 -0.1645  0.0590
 1012MOL0     H33557   2.713   3.402   9.321 -0.0376  0.1287  0.3894
 1012MOL0     H33558   2.572   3.212   9.222 -0.7031 -0.0869  0.4715
 1012MOL0     H33559   2.493   3.330   9.318 -2.9306 -2.3180  0.6117
 1012MOL0     H33560   2.539   3.133   9.514  0.2387 -0.3278 -0.0323
 1012MOL0     H33561   2.580   3.040   9.379 -0.9502 -1.4394  0.2488
 1012MOL0     H33562   2.317   3.183   9.436 -1.0559  0.8205 -1.6315
 1012MOL0     H33563   2.344   3.088   9.283 -0.4713  0.9361 -0.3480
 1012MOL0     H33564   2.361   2.981   9.570 -0.0644  3.7139  0.3148
 1012MOL0     H33565   2.331   2.883   9.420  0.0434 -0.4124  2.0906
 1012MOL0     H33566   3.158   3.412   9.211  0.2461 -0.1708 -0.3723
 1012MOL0     H33567   3.369   3.495   9.099  0.5429 -0.6276  0.1346
 1012MOL0     H33568   3.711   3.372   8.791  0.4622 -3.3693  1.1623
 1012MOL0     H33569   3.927   3.427   8.692 -1.7134  1.7444 -0.1197
 1012MOL0     H33570   5.530   2.496   8.320  3.7614 -2.1904  0.9265
 1012MOL0     H33571   5.654   2.318   8.429  3.3168  3.1358  3.0928
 1012MOL0     H33572   5.537   1.933   8.927 -1.0628 -0.1880 -1.7951
 1012MOL0     H33573   5.727   1.784   9.010 -4.8064 -0.7790 -0.1473
 1012MOL0     H33574   6.110   1.926   8.877 -2.0441  0.6004  1.6980
 1012MOL0     H33575   6.151   1.771   8.827  3.6566 -1.5470  2.4375
 1012MOL0     H33576   6.304   1.791   8.992  1.0892  0.3030  1.8383
 1012MOL0     H33577   6.181   1.843   9.112  1.2490  0.2603 -0.2147
 1012MOL0     H33578   6.202   1.566   9.005  0.7020  2.0427 -2.1014
 1012MOL0     H33579   6.071   1.631   9.105 -0.1196 -0.7129  0.0347
 1012MOL0     H33580   6.265   1.703   9.264  0.7405  2.9986 -2.8520
 1012MOL0     H33581   6.221   1.540   9.267 -1.9956  0.3443 -0.6832
 1012MOL0     H33582   6.613   1.536   9.121  0.2368  1.2379 -0.4802
 1012MOL0     H33583   5.994   1.941   8.731  1.5086 -1.9321  2.3957
 1012MOL0     H33584   5.810   2.063   8.618 -0.4170 -0.9845 -0.8937
 1013MOL0     O33585   1.642  10.245   3.627 -1.1837  0.4119  0.5981
 1013MOL0     C33586   1.694  10.360   3.603  0.0111  0.8433  1.2185
 1013MOL0     O33587   1.626  10.448   3.524  0.7142  1.0137 -0.1207
 1013MOL0     C33588   1.493  10.426   3.487  0.1719 -0.1712 -0.3099
 1013MOL0     C33589   1.455  10.411   3.356  0.0878  0.4889 -0.5247
 1013MOL0     C33590   1.325  10.388   3.317 -0.2969  0.2085  0.1255
 1013MOL0     C33591   1.214  10.381   3.412 -0.2782 -0.0914 -0.3010
 1013MOL0     O33592   1.086  10.372   3.379  0.5606  0.8710 -0.1438
 1013MOL0     C33593   0.986  10.364   3.485  0.4996  0.1180 -0.1344
 1013MOL0     C33594   0.837  10.368   3.452 -0.4016  0.2160 -0.5864
 1013MOL0     C33595   0.792  10.490   3.366 -0.5946  0.6928 -0.2954
 1013MOL0     C33596   0.647  10.521   3.383 -0.1509  0.2871 -0.2936
 1013MOL0     C33597   0.559  10.405   3.346 -0.2899 -0.2602  0.8247
 1013MOL0     C33598   0.410  10.435   3.338 -0.1098 -0.2048  0.0978
 1013MOL0     C33599   0.317  10.321   3.387  0.0111 -0.4804 -0.8829
 1013MOL0     C33600   0.300  10.210   3.281  0.4788 -0.1737 -0.2737
 1013MOL0     N33601   0.272  10.253   3.142 -0.7137 -0.2144  0.1760
 1013MOL0     C33602   0.198  10.355   3.100  0.1577 -0.1649  0.3328
 1013MOL0     C33603   0.167  10.347   2.969  0.0258  0.2551 -0.4867
 1013MOL0     C33604   0.059  10.427   2.909  0.4581 -0.3506 -0.3123
 1013MOL0     C33605   0.108  10.522   2.797 -0.1105  0.8553  0.1624
 1013MOL0     C33606   0.101  10.671   2.834 -0.8501 -0.4015 -0.2901
 1013MOL0     C33607   0.100  10.781   2.721  0.2064  0.5016  0.4696
 1013MOL0     O33608   0.061  10.908   2.773 -0.1862 -0.5107  0.8990
 1013MOL0     C33609  -0.068  10.957   2.787 -0.0279 -0.2848  0.8921
 1013MOL0     C33610  -0.181  10.887   2.755 -0.6795  0.2160  0.3940
 1013MOL0     C33611  -0.308  10.947   2.775 -0.5021  0.0219 -0.0620
 1013MOL0     C33612  -0.307  11.079   2.832 -0.2477 -0.0363  1.5306
 1013MOL0     C33613  -0.436  11.129   2.872 -0.1700 -0.9208 -0.3638
 1013MOL0     O33614  -0.455  11.263   2.891  0.4277  0.1764  0.1461
 1013MOL0     C33615  -0.577  11.314   2.910  0.4137  0.7788  0.4578
 1013MOL0     C33616  -0.589  11.410   3.003 -0.7824 -0.0653 -0.2432
 1013MOL0     C33617  -0.710  11.485   3.015  0.2106  0.1972  0.5162
 1013MOL0     C33618  -0.816  11.461   2.930  0.1078 -0.2595 -0.8209
 1013MOL0     O33619  -0.940  11.522   2.958  0.4244 -0.7200  0.1503
 1013MOL0     C33620  -1.015  11.563   2.839  0.7976  0.0244  0.0373
 1013MOL0     C33621  -1.110  11.672   2.887 -0.2166  0.0728  0.1515
 1013MOL0     C33622  -1.214  11.618   2.981 -0.6270  0.0497 -0.5809
 1013MOL0     C33623  -1.334  11.704   2.995  0.1830 -0.1174 -0.3080
 1013MOL0     C33624  -1.441  11.650   2.896 -0.0704 -0.2449 -0.2136
 1013MOL0     C33625  -1.567  11.745   2.897  0.2430 -1.0400  1.4068
 1013MOL0     C33626  -1.528  11.879   2.842  0.0609 -0.2650  0.3896
 1013MOL0     C33627  -1.623  11.995   2.871 -0.1306  0.1921 -0.8605
 1013MOL0    Cl33628  -1.783  11.970   2.804  0.2086 -0.0431  0.5841
 1013MOL0     C33629  -0.806  11.366   2.831 -0.3344  0.6729  1.1873
 1013MOL0     C33630  -0.686  11.289   2.821 -0.4092  0.5067 -0.6350
 1013MOL0     O33631  -0.522  11.042   2.894 -0.1957  0.1760 -0.5847
 1013MOL0     C33632  -0.190  11.150   2.853 -0.0592  0.3582 -0.3846
 1013MOL0     C33633  -0.072  11.094   2.832 -0.6789  0.3935 -0.0243
 1013MOL0     N33634   0.235  10.240   2.931 -0.7054  0.4179 -0.8156
 1013MOL0     N33635   0.288  10.180   3.031 -0.4379 -0.2859  0.5333
 1013MOL0     C33636   1.259  10.385   3.545 -0.3145  0.0014 -0.0097
 1013MOL0     C33637   1.390  10.414   3.581  0.5818  1.1880  0.0512
 1013MOL0     C33638   1.839  10.384   3.617  0.6659  0.4423 -0.0624
 1013MOL0     C33639   1.925  10.292   3.681 -0.6269 -0.1366 -1.1958
 1013MOL0     C33640   2.065  10.307   3.670 -0.1744 -1.0303  0.9144
 1013MOL0     C33641   2.124  10.423   3.607  0.5727  0.5963 -0.4117
 1013MOL0     O33642   2.260  10.423   3.597 -0.0708  0.3057 -0.6417
 1013MOL0     C33643   2.331  10.532   3.546  0.5389 -0.8623  0.3885
 1013MOL0     C33644   2.484  10.500   3.557  0.0224  0.5274 -0.0479
 1013MOL0     C33645   2.551  10.495   3.698 -0.4072 -0.3745 -0.8803
 1013MOL0     C33646   2.703  10.507   3.675 -0.0134  0.1448 -0.5211
 1013MOL0     C33647   2.777  10.535   3.796 -0.3811  0.2085  0.6749
 1013MOL0     C33648   2.856  10.534   3.890  0.8726  0.0122 -0.3545
 1013MOL0     C33649   2.041  10.520   3.555 -0.5547 -0.4422  0.1323
 1013MOL0     C33650   1.901  10.506   3.572  0.5181  0.6843  0.5805
 1013MOL0     H33651   1.534  10.408   3.281 -0.9643 -0.5661 -1.6219
 1013MOL0     H33652   1.303  10.374   3.212  3.0203 -0.6784 -0.5459
 1013MOL0     H33653   1.006  10.450   3.549  0.1430  0.9696 -1.1326
 1013MOL0     H33654   1.010  10.271   3.539  2.8725  0.0945 -1.0951
 1013MOL0     H33655   0.776  10.385   3.541  1.9807  1.1644  0.9515
 1013MOL0     H33656   0.803  10.277   3.401  3.1322 -1.7969  0.2712
 1013MOL0     H33657   0.808  10.460   3.262 -0.5310  1.5761 -0.5528
 1013MOL0     H33658   0.860  10.573   3.389  0.1535 -0.0125  0.0724
 1013MOL0     H33659   0.620  10.548   3.485  2.3106  1.7895  0.0175
 1013MOL0     H33660   0.622  10.612   3.328  1.2524 -1.2511 -3.8054
 1013MOL0     H33661   0.558  10.322   3.417  0.4478 -1.0104 -0.0162
 1013MOL0     H33662   0.590  10.361   3.251 -0.0481  2.0871 -0.2414
 1013MOL0     H33663   0.396  10.465   3.233  2.3794 -1.7419 -0.7697
 1013MOL0     H33664   0.379  10.510   3.411 -1.1219  1.2793 -1.7560
 1013MOL0     H33665   0.353  10.267   3.475 -1.1324 -0.4980 -0.4197
 1013MOL0     H33666   0.224  10.376   3.403  0.4992  0.5184 -1.3659
 1013MOL0     H33667   0.220  10.145   3.316  0.0687  1.0861  1.2204
 1013MOL0     H33668   0.398  10.162   3.282  2.3743  3.2061  3.3473
 1013MOL0     H33669   0.157  10.438   3.157 -0.6229 -0.1396 -0.2368
 1013MOL0     H33670   0.004  10.486   2.982 -2.5049 -0.0010 -2.6194
 1013MOL0     H33671  -0.013  10.357   2.864  0.1603 -0.1829 -0.0937
 1013MOL0     H33672   0.049  10.500   2.708 -0.0238  0.6020  0.1644
 1013MOL0     H33673   0.211  10.490   2.775 -0.0919  0.8752  0.2221
 1013MOL0     H33674   0.010  10.693   2.892 -0.2994 -0.8035  0.7577
 1013MOL0     H33675   0.176  10.689   2.911 -2.0404  1.9409  0.3994
 1013MOL0     H33676   0.041  10.746   2.636 -0.0631  1.6495  0.1671
 1013MOL0     H33677   0.201  10.798   2.683  0.0425  0.3889 -0.0219
 1013MOL0     H33678  -0.172  10.789   2.711  0.8885  0.5384 -0.0566
 1013MOL0     H33679  -0.405  10.905   2.750 -0.9790  0.7697  0.4966
 1013MOL0     H33680  -0.503  11.435   3.064 -0.3860  2.1274 -1.5497
 1013MOL0     H33681  -0.722  11.573   3.079 -1.3370 -1.7038  3.0297
 1013MOL0     H33682  -1.069  11.472   2.810  0.5752  0.0265  0.4395
 1013MOL0     H33683  -0.958  11.605   2.756 -3.2712  2.2044 -1.9412
 1013MOL0     H33684  -1.168  11.710   2.802 -1.2014 -0.5465  0.5272
 1013MOL0     H33685  -1.063  11.760   2.932 -1.7627  1.2103 -0.3732
 1013MOL0     H33686  -1.155  11.615   3.073  1.5225  2.8998 -1.7188
 1013MOL0     H33687  -1.244  11.517   2.952 -0.5728 -0.0640 -0.2408
 1013MOL0     H33688  -1.356  11.704   3.102  1.0204 -1.0407 -0.1253
 1013MOL0     H33689  -1.313  11.809   2.974  0.6925 -0.3486 -1.0015
 1013MOL0     H33690  -1.463  11.545   2.913 -0.8809  0.0122  0.3933
 1013MOL0     H33691  -1.396  11.654   2.796  4.0853 -1.1336  1.4014
 1013MOL0     H33692  -1.597  11.753   3.002 -0.3479  0.1804  1.1687
 1013MOL0     H33693  -1.654  11.711   2.841  0.8323  0.4694 -0.5721
 1013MOL0     H33694  -1.429  11.924   2.859 -0.5189  1.7048 -1.1404
 1013MOL0     H33695  -1.528  11.869   2.733  0.7165  0.6925  0.2820
 1013MOL0     H33696  -1.586  12.088   2.826  0.0480 -1.2419 -3.9570
 1013MOL0     H33697  -1.648  11.999   2.977 -2.3695 -2.6455 -1.1549
 1013MOL0     H33698  -0.883  11.332   2.763  2.8942 -3.4195 -0.9044
 1013MOL0     H33699  -0.673  11.226   2.733  1.7345  0.8866 -0.6561
 1013MOL0     H33700  -0.185  11.251   2.894  2.4358  0.2290 -0.2097
 1013MOL0     H33701   0.011  11.160   2.850  0.2642 -0.6116 -0.5862
 1013MOL0     H33702   1.190  10.365   3.626 -0.6976  3.0248  0.5050
 1013MOL0     H33703   1.413  10.412   3.687  1.7402 -1.1094 -0.1783
 1013MOL0     H33704   1.889  10.195   3.715 -0.2170  0.3431  0.7110
 1013MOL0     H33705   2.134  10.229   3.702  1.4386 -0.7243 -1.5475
 1013MOL0     H33706   2.314  10.628   3.596  1.7506 -0.2994 -0.2461
 1013MOL0     H33707   2.300  10.550   3.443 -0.2830  1.6075  0.9873
 1013MOL0     H33708   2.500  10.407   3.501  3.0504  0.0309  1.4243
 1013MOL0     H33709   2.548  10.576   3.511  0.5863  0.9617  1.4083
 1013MOL0     H33710   2.528  10.402   3.750  0.4736 -1.8033 -2.9404
 1013MOL0     H33711   2.509  10.569   3.767 -0.9297 -0.5857 -0.9694
 1013MOL0     H33712   2.742  10.419   3.624 -1.3229 -1.2277  0.7373
 1013MOL0     H33713   2.710  10.594   3.610 -3.9625 -0.6986 -2.3991
 1013MOL0     H33714   2.912  10.541   3.981 -1.2457  0.8338  0.9499
 1013MOL0     H33715   2.085  10.609   3.511  1.9477 -1.4033  0.4978
 1013MOL0     H33716   1.835  10.583   3.532  3.6675  1.6325 -3.4759
 1014MOL0     O33717   1.863   9.034   0.694 -0.2772 -0.5143  0.9107
 1014MOL0     C33718   1.959   9.034   0.769  0.4513 -0.2069 -0.3949
 1014MOL0     O33719   1.958   8.989   0.898 -0.0997  0.1231  0.0851
 1014MOL0     C33720   1.835   8.975   0.958 -0.3160 -0.2131 -0.3680
 1014MOL0     C33721   1.813   9.060   1.067 -0.1968  1.1520  0.2611
 1014MOL0     C33722   1.710   9.040   1.158  0.5363  0.1379  0.4056
 1014MOL0     C33723   1.620   8.938   1.131  1.1334 -0.2427  0.0892
 1014MOL0     O33724   1.529   8.914   1.239  0.0882  0.0481 -0.1928
 1014MOL0     C33725   1.472   8.781   1.254  0.2585 -0.1787 -0.0272
 1014MOL0     C33726   1.330   8.799   1.194 -0.3456 -0.5828  0.2130
 1014MOL0     C33727   1.265   8.666   1.183 -0.1846  0.4851 -0.4521
 1014MOL0     C33728   1.111   8.679   1.173 -0.2456 -0.0429  0.2605
 1014MOL0     C33729   1.050   8.544   1.148  0.0213  1.4470 -0.7203
 1014MOL0     C33730   0.908   8.558   1.090  0.7011 -0.6318  0.0403
 1014MOL0     C33731   0.807   8.622   1.192  0.1522  0.1783  0.1321
 1014MOL0     C33732   0.769   8.534   1.313 -0.2631  0.0376 -0.7592
 1014MOL0     N33733   0.647   8.589   1.372 -0.1538 -0.3449  0.1900
 1014MOL0     C33734   0.640   8.697   1.459 -0.2537 -0.0749 -0.3853
 1014MOL0     C33735   0.511   8.709   1.475 -0.1981 -0.5146  0.7707
 1014MOL0     C33736   0.447   8.818   1.561  0.5511  0.1641 -0.4372
 1014MOL0     C33737   0.291   8.820   1.551  0.4675 -0.2068 -0.6951
 1014MOL0     C33738   0.229   8.887   1.683 -0.2972 -0.3330  0.2754
 1014MOL0     C33739   0.076   8.871   1.679 -0.0621  0.3225 -0.8878
 1014MOL0     O33740   0.022   8.928   1.801  0.1307 -0.6137 -0.5169
 1014MOL0     C33741  -0.109   8.927   1.823  0.7979 -0.4663 -0.6599
 1014MOL0     C33742  -0.205   8.920   1.721  0.3362  0.6713 -0.5913
 1014MOL0     C33743  -0.342   8.926   1.762  0.4622 -0.7215  0.8206
 1014MOL0     C33744  -0.380   8.933   1.898  0.0883  0.8063  0.1383
 1014MOL0     C33745  -0.518   8.929   1.937  0.1587 -0.0315  0.4494
 1014MOL0     O33746  -0.545   9.014   2.037 -0.3724  0.7669 -0.2170
 1014MOL0     C33747  -0.666   9.008   2.102 -0.1635 -0.7768 -0.2881
 1014MOL0     C33748  -0.730   8.894   2.146 -0.2113  0.9172 -0.9435
 1014MOL0     C33749  -0.843   8.898   2.232  0.7328  0.2688 -0.3079
 1014MOL0     C33750  -0.898   9.012   2.280  0.2625  0.6269  0.4778
 1014MOL0     O33751  -1.011   9.019   2.353  0.3719  0.0701  0.7238
 1014MOL0     C33752  -1.053   8.905   2.433  0.0574  0.4638 -1.1218
 1014MOL0     C33753  -1.159   8.923   2.546 -0.4928  0.5920  1.6309
 1014MOL0     C33754  -1.128   9.046   2.626  0.5362 -0.1535  0.4669
 1014MOL0     C33755  -0.989   9.034   2.696 -0.0541 -0.6975 -0.2331
 1014MOL0     C33756  -0.986   9.090   2.834  0.1527 -1.3675 -0.0059
 1014MOL0     C33757  -0.970   9.246   2.834 -0.1539  0.5861 -0.5611
 1014MOL0     C33758  -0.839   9.302   2.770  0.3413 -0.5735 -0.0079
 1014MOL0     C33759  -0.831   9.452   2.780 -0.2858 -0.0769  0.8856
 1014MOL0    Cl33760  -0.653   9.506   2.751  0.0394  0.5559 -0.0792
 1014MOL0     C33761  -0.837   9.134   2.235 -0.3624 -0.7061  0.8705
 1014MOL0     C33762  -0.724   9.132   2.149  0.6996 -0.2795  0.3273
 1014MOL0     O33763  -0.590   8.847   1.872  0.3657 -0.6062  0.1195
 1014MOL0     C33764  -0.278   8.946   1.996 -0.4713 -0.2460 -0.0501
 1014MOL0     C33765  -0.144   8.941   1.959  0.9667  0.0265  0.4855
 1014MOL0     N33766   0.439   8.619   1.399 -0.6247 -0.1103 -0.0262
 1014MOL0     N33767   0.522   8.550   1.337  0.2734 -0.1731 -0.3904
 1014MOL0     C33768   1.632   8.845   1.022 -0.2655 -1.3512  0.0461
 1014MOL0     C33769   1.741   8.868   0.938  0.5992  0.5488  0.4119
 1014MOL0     C33770   2.087   9.093   0.721  0.5529  0.3937  0.1940
 1014MOL0     C33771   2.101   9.115   0.581  0.3475 -0.3384 -0.2213
 1014MOL0     C33772   2.215   9.172   0.523  0.2945  0.1165  0.1919
 1014MOL0     C33773   2.317   9.220   0.613  0.2826  0.2961 -0.3015
 1014MOL0     O33774   2.407   9.299   0.549  0.7171  0.6933  0.3499
 1014MOL0     C33775   2.497   9.371   0.621  0.2141 -0.2083 -0.0035
 1014MOL0     C33776   2.622   9.299   0.672  0.1628  0.9752  0.0487
 1014MOL0     C33777   2.741   9.336   0.578  0.5275 -0.8460  0.3231
 1014MOL0     C33778   2.876   9.282   0.617  0.2379 -0.7265  0.1189
 1014MOL0     C33779   2.935   9.351   0.724 -0.7401  0.2524 -0.1657
 1014MOL0     C33780   3.006   9.389   0.813 -0.3329 -0.0103 -0.6702
 1014MOL0     C33781   2.301   9.207   0.754 -0.7688  0.1210 -0.2919
 1014MOL0     C33782   2.189   9.149   0.803  0.0394  0.6049 -0.1844
 1014MOL0     H33783   1.878   9.145   1.083  1.5753 -0.3682  1.6041
 1014MOL0     H33784   1.688   9.105   1.242 -2.4634  1.7984 -1.4580
 1014MOL0     H33785   1.461   8.770   1.362 -2.2484  1.4644 -0.0251
 1014MOL0     H33786   1.515   8.690   1.211 -2.8331 -2.6912  1.7306
 1014MOL0     H33787   1.324   8.836   1.091  0.8122 -0.3425  0.2269
 1014MOL0     H33788   1.283   8.877   1.255 -2.2342  0.1519 -2.0266
 1014MOL0     H33789   1.290   8.596   1.264  1.9290  3.1670  1.3992
 1014MOL0     H33790   1.306   8.623   1.091 -0.0522  0.7362 -0.5108
 1014MOL0     H33791   1.077   8.719   1.269 -2.5973  1.6005 -1.1531
 1014MOL0     H33792   1.093   8.761   1.103 -1.0233 -0.6946 -0.3261
 1014MOL0     H33793   1.040   8.497   1.246  1.3115 -0.9586 -1.6634
 1014MOL0     H33794   1.107   8.472   1.089  2.0633  0.8536  1.7927
 1014MOL0     H33795   0.875   8.462   1.050  1.5859 -2.2381  2.8596
 1014MOL0     H33796   0.922   8.618   1.000  5.2726 -0.2615  0.7586
 1014MOL0     H33797   0.844   8.720   1.222 -2.1684  1.0576  0.2449
 1014MOL0     H33798   0.717   8.637   1.133  1.8110  0.4625 -2.4928
 1014MOL0     H33799   0.852   8.518   1.382  0.2049 -1.3966 -1.6132
 1014MOL0     H33800   0.761   8.432   1.273 -3.4120  0.1519 -0.6530
 1014MOL0     H33801   0.715   8.764   1.501 -1.8289  3.0807 -2.2500
 1014MOL0     H33802   0.492   8.912   1.527  0.8318 -0.4072 -1.6903
 1014MOL0     H33803   0.477   8.812   1.666  0.5813 -1.7986 -0.5180
 1014MOL0     H33804   0.248   8.720   1.548  1.2239 -0.5258 -1.3232
 1014MOL0     H33805   0.259   8.881   1.467 -0.5625  1.8566  1.0920
 1014MOL0     H33806   0.248   8.827   1.773  1.3743 -0.4884 -0.1507
 1014MOL0     H33807   0.256   8.992   1.696  1.0606 -0.2499 -2.4845
 1014MOL0     H33808   0.044   8.766   1.687  0.5730  0.2125  0.6573
 1014MOL0     H33809   0.043   8.916   1.586  2.3846 -0.6766 -2.3511
 1014MOL0     H33810  -0.193   8.905   1.614 -0.1918 -0.3014 -0.5259
 1014MOL0     H33811  -0.416   8.916   1.684 -1.5647 -3.4592  2.8601
 1014MOL0     H33812  -0.694   8.798   2.112 -2.3867  0.1288 -1.1790
 1014MOL0     H33813  -0.893   8.805   2.256 -1.0782  1.7191  1.9728
 1014MOL0     H33814  -0.965   8.878   2.493  0.7522  1.7436 -1.5416
 1014MOL0     H33815  -1.075   8.822   2.366 -1.2954  0.4037 -0.6321
 1014MOL0     H33816  -1.165   8.835   2.611 -1.4503 -1.8489 -1.4779
 1014MOL0     H33817  -1.249   8.924   2.484 -0.3021 -3.2275  0.9947
 1014MOL0     H33818  -1.211   9.069   2.694 -1.5253 -0.7349 -1.7601
 1014MOL0     H33819  -1.115   9.128   2.555 -1.9812  3.0894  3.4048
 1014MOL0     H33820  -0.982   8.927   2.720 -2.1147 -0.5774  1.1907
 1014MOL0     H33821  -0.908   9.064   2.630 -0.8051  5.5957  1.0687
 1014MOL0     H33822  -0.900   9.050   2.889  1.0209  1.3259  0.7749
 1014MOL0     H33823  -1.082   9.066   2.879 -0.9131  1.6349 -0.4705
 1014MOL0     H33824  -0.970   9.282   2.938  0.6568  1.6107 -0.9026
 1014MOL0     H33825  -1.056   9.289   2.782 -1.6822  0.3082  1.5995
 1014MOL0     H33826  -0.748   9.258   2.813  2.3895  2.6478 -0.6246
 1014MOL0     H33827  -0.844   9.273   2.665  1.5474 -0.6019 -0.0720
 1014MOL0     H33828  -0.865   9.472   2.882 -1.5451 -1.4977  0.7955
 1014MOL0     H33829  -0.912   9.492   2.718 -2.9910 -5.3917  0.3649
 1014MOL0     H33830  -0.876   9.233   2.256  0.2307  0.0214 -1.2209
 1014MOL0     H33831  -0.670   9.222   2.121 -0.8282  0.8147  0.7797
 1014MOL0     H33832  -0.292   8.952   2.104  0.9300  0.6385  0.1127
 1014MOL0     H33833  -0.067   8.964   2.032  0.7825  0.9323  0.4028
 1014MOL0     H33834   1.565   8.760   1.014 -0.0525 -1.5316  0.1414
 1014MOL0     H33835   1.772   8.790   0.870  0.2093 -1.5872  2.5310
 1014MOL0     H33836   2.034   9.079   0.503  2.5924  1.1027 -3.0050
 1014MOL0     H33837   2.215   9.181   0.415 -1.6982 -1.0299  0.0517
 1014MOL0     H33838   2.440   9.418   0.701 -1.2618 -2.0231  0.0746
 1014MOL0     H33839   2.533   9.453   0.559  0.8445  0.4415  1.1783
 1014MOL0     H33840   2.642   9.338   0.772  0.4514 -4.5401  2.5038
 1014MOL0     H33841   2.605   9.191   0.667  6.1922 -0.4193  0.9340
 1014MOL0     H33842   2.749   9.443   0.560  1.8872 -0.8267  0.9235
 1014MOL0     H33843   2.724   9.293   0.479  2.9239 -2.6089  0.5667
 1014MOL0     H33844   2.874   9.178   0.651  0.7764 -0.3426  1.3955
 1014MOL0     H33845   2.945   9.282   0.532 -1.0116 -1.7201 -0.9478
 1014MOL0     H33846   3.061   9.409   0.903 -3.4883  3.0762  0.8219
 1014MOL0     H33847   2.380   9.235   0.823 -1.7104  1.1012  0.4070
 1014MOL0     H33848   2.176   9.147   0.911  0.2777  0.9768 -0.1443
 1015MOL0     O33849   6.415   4.384   0.237 -0.3780 -0.0765 -0.2230
 1015MOL0     C33850   6.407   4.440   0.128  0.4234  1.0044  0.2474
 1015MOL0     O33851   6.303   4.511   0.087  0.5665 -0.9382  0.1808
 1015MOL0     C33852   6.203   4.557   0.173 -0.8815  0.0544  0.1675
 1015MOL0     C33853   6.069   4.539   0.124  0.2781 -1.0713 -0.1613
 1015MOL0     C33854   5.967   4.565   0.215  0.9960 -0.0083  0.3139
 1015MOL0     C33855   5.985   4.616   0.347 -0.2686 -0.8663  0.3608
 1015MOL0     O33856   5.889   4.675   0.417  0.1282 -0.7791 -0.1937
 1015MOL0     C33857   5.764   4.695   0.346  0.4239  0.3485  0.2432
 1015MOL0     C33858   5.680   4.769   0.442  0.6358  0.1631 -0.4702
 1015MOL0     C33859   5.540   4.789   0.387  0.4335  0.7218 -0.2639
 1015MOL0     C33860   5.458   4.854   0.492 -0.3456 -0.4192 -0.0514
 1015MOL0     C33861   5.315   4.880   0.440 -0.7831  0.2666 -0.4010
 1015MOL0     C33862   5.229   4.956   0.539 -0.0175  0.0322  0.0793
 1015MOL0     C33863   5.104   5.014   0.480  0.3753 -0.3184 -0.5714
 1015MOL0     C33864   5.044   5.124   0.568 -0.2008  0.0719  0.2201
 1015MOL0     N33865   5.123   5.248   0.584  0.1120 -0.0144 -0.1550
 1015MOL0     C33866   5.190   5.316   0.489 -0.4192  0.2155 -0.0911
 1015MOL0     C33867   5.246   5.414   0.562 -0.2812  0.1332  0.6540
 1015MOL0     C33868   5.333   5.529   0.514  0.2595 -0.1192  0.2482
 1015MOL0     C33869   5.490   5.501   0.530 -0.6185 -0.4350 -0.4338
 1015MOL0     C33870   5.529   5.502   0.680 -0.3109  0.8143 -0.4579
 1015MOL0     C33871   5.653   5.420   0.711  0.4191  0.0937  0.5632
 1015MOL0     O33872   5.769   5.471   0.645  0.6250  0.0510 -1.0655
 1015MOL0     C33873   5.891   5.435   0.685 -0.0130  0.4988  0.7548
 1015MOL0     C33874   5.920   5.337   0.780 -0.0575 -0.5042 -0.0701
 1015MOL0     C33875   6.054   5.308   0.828 -0.2170 -1.1170 -0.3167
 1015MOL0     C33876   6.163   5.381   0.770  0.0684  0.0680  1.1815
 1015MOL0     C33877   6.306   5.350   0.804  0.8164  0.5017 -0.5152
 1015MOL0     O33878   6.394   5.426   0.747  0.0538  0.3337 -0.7046
 1015MOL0     C33879   6.526   5.387   0.735 -0.2075  0.1959 -0.0884
 1015MOL0     C33880   6.622   5.494   0.756 -0.7140  0.1269 -0.5643
 1015MOL0     C33881   6.755   5.464   0.719  0.4135 -0.1217  0.4116
 1015MOL0     C33882   6.790   5.334   0.673 -0.4434  0.2720 -0.5545
 1015MOL0     O33883   6.922   5.303   0.658  1.2096  0.0926  0.3438
 1015MOL0     C33884   6.967   5.291   0.525 -0.1886  0.3809  0.3488
 1015MOL0     C33885   7.037   5.150   0.488  0.3981 -0.4153 -0.1792
 1015MOL0     C33886   7.077   5.153   0.347  0.5889 -0.5936  0.1864
 1015MOL0     C33887   7.107   5.005   0.308  0.9526  0.1296  0.8238
 1015MOL0     C33888   7.157   4.993   0.164  0.2744  0.1271  0.3476
 1015MOL0     C33889   7.031   4.984   0.080  0.1655 -0.6308 -0.0895
 1015MOL0     C33890   7.073   4.986  -0.071  0.1191 -0.3382 -0.9125
 1015MOL0     C33891   7.104   4.844  -0.117 -0.5118  1.0615  0.1609
 1015MOL0    Cl33892   7.130   4.830  -0.294  0.2390  0.2642  0.0820
 1015MOL0     C33893   6.694   5.235   0.661 -0.3585  0.3332  1.1080
 1015MOL0     C33894   6.558   5.260   0.691  0.0503 -0.2144  1.0463
 1015MOL0     O33895   6.322   5.248   0.869 -0.1656  0.4424 -0.7802
 1015MOL0     C33896   6.132   5.475   0.667 -0.1618 -0.0985 -0.4931
 1015MOL0     C33897   5.994   5.495   0.621 -0.4015 -0.7680 -0.0290
 1015MOL0     N33898   5.202   5.407   0.696  0.5204 -0.1524  0.4324
 1015MOL0     N33899   5.121   5.311   0.709 -0.1683 -0.3617 -0.3721
 1015MOL0     C33900   6.117   4.630   0.392  0.4628  0.4008 -0.1370
 1015MOL0     C33901   6.226   4.607   0.308 -0.0758 -0.0435  0.7799
 1015MOL0     C33902   6.523   4.426   0.040  0.0757  0.4210 -0.2987
 1015MOL0     C33903   6.644   4.343   0.081  0.4794  0.1516 -0.3549
 1015MOL0     C33904   6.759   4.345   0.006 -0.6183 -0.1099 -0.0560
 1015MOL0     C33905   6.757   4.408  -0.127 -0.6665 -0.2544  0.6448
 1015MOL0     O33906   6.880   4.422  -0.190 -0.3619  0.1290 -0.2896
 1015MOL0     C33907   6.893   4.482  -0.320  0.0535 -0.6175 -0.3562
 1015MOL0     C33908   7.029   4.467  -0.379 -1.2750  0.2263  0.5570
 1015MOL0     C33909   7.145   4.467  -0.273 -0.4877 -1.1785 -0.6858
 1015MOL0     C33910   7.173   4.332  -0.204 -0.6994 -0.3591 -0.4634
 1015MOL0     C33911   7.308   4.335  -0.140 -0.3104 -0.0332  0.2541
 1015MOL0     C33912   7.422   4.328  -0.093 -0.8304  0.2369  0.8216
 1015MOL0     C33913   6.634   4.467  -0.175 -0.7888  0.4785 -0.3522
 1015MOL0     C33914   6.528   4.484  -0.085 -0.6102 -0.4198 -0.3452
 1015MOL0     H33915   6.058   4.523   0.018  0.0986  1.9421 -0.6877
 1015MOL0     H33916   5.869   4.550   0.171  0.0134  4.8106  0.2801
 1015MOL0     H33917   5.711   4.600   0.332  0.4126 -0.3023  3.8051
 1015MOL0     H33918   5.772   4.749   0.251 -1.0688 -1.3361 -0.9273
 1015MOL0     H33919   5.731   4.864   0.461  0.6918  0.1868 -0.7296
 1015MOL0     H33920   5.688   4.723   0.541  2.8732 -0.8544 -1.0626
 1015MOL0     H33921   5.491   4.693   0.371  0.5070  1.0920 -3.2958
 1015MOL0     H33922   5.539   4.847   0.295  0.7718 -0.8195 -1.2861
 1015MOL0     H33923   5.447   4.795   0.584 -1.1384  1.1373  0.8877
 1015MOL0     H33924   5.493   4.953   0.523 -0.0793  0.6101 -3.2422
 1015MOL0     H33925   5.272   4.783   0.412  1.3481 -0.6283 -0.7872
 1015MOL0     H33926   5.332   4.945   0.354  0.8805  0.0925 -0.2518
 1015MOL0     H33927   5.292   5.037   0.575  2.9176 -1.0635 -2.2050
 1015MOL0     H33928   5.200   4.894   0.625 -2.3813  0.7766 -0.0938
 1015MOL0     H33929   5.110   5.044   0.375  1.1696 -5.3079 -2.2404
 1015MOL0     H33930   5.038   4.928   0.494  0.9871 -0.7232 -0.0786
 1015MOL0     H33931   5.017   5.084   0.666  0.3941 -0.6335  0.1058
 1015MOL0     H33932   4.947   5.152   0.526 -0.1323 -1.6371 -1.1717
 1015MOL0     H33933   5.212   5.302   0.384  1.3494  1.5997  0.0425
 1015MOL0     H33934   5.299   5.624   0.555 -0.7593  0.4700 -1.8441
 1015MOL0     H33935   5.322   5.539   0.406 -1.1849 -1.7257  0.1969
 1015MOL0     H33936   5.523   5.585   0.468 -4.6101  0.3229 -1.8762
 1015MOL0     H33937   5.513   5.409   0.475 -0.8040 -0.1562 -0.9864
 1015MOL0     H33938   5.537   5.607   0.709  0.3710  0.7302 -0.3356
 1015MOL0     H33939   5.452   5.458   0.744  1.4537  0.6040  1.6478
 1015MOL0     H33940   5.632   5.317   0.680 -2.4153  0.2366  1.7302
 1015MOL0     H33941   5.669   5.415   0.819  6.3568  1.1499  0.0723
 1015MOL0     H33942   5.842   5.289   0.838  1.4925 -2.0713  0.7967
 1015MOL0     H33943   6.084   5.237   0.904 -2.1855 -1.6572  0.0056
 1015MOL0     H33944   6.605   5.600   0.776  0.2239  0.0000  1.0835
 1015MOL0     H33945   6.836   5.536   0.722  1.3571 -1.0840 -0.9138
 1015MOL0     H33946   7.034   5.377   0.517  1.3918 -0.7672  0.6900
 1015MOL0     H33947   6.882   5.296   0.457  0.0168 -4.9398 -0.7466
 1015MOL0     H33948   6.956   5.077   0.497  0.1841 -0.5707 -2.6550
 1015MOL0     H33949   7.119   5.120   0.555 -0.5623 -0.6900  0.8910
 1015MOL0     H33950   7.170   5.209   0.340  0.0248  0.4088  0.4806
 1015MOL0     H33951   6.994   5.198   0.292  0.0315 -1.5070  0.2464
 1015MOL0     H33952   7.186   4.956   0.366  0.5320 -0.9280  0.5314
 1015MOL0     H33953   7.012   4.951   0.314  0.0781  0.3423 -5.0445
 1015MOL0     H33954   7.218   4.903   0.146 -2.1055 -1.1253 -2.1786
 1015MOL0     H33955   7.214   5.084   0.143  2.5894 -1.5103 -0.9776
 1015MOL0     H33956   6.976   5.072   0.113  0.1594 -1.2231  1.6068
 1015MOL0     H33957   6.962   4.902   0.102  0.4025 -0.3361  1.9471
 1015MOL0     H33958   6.990   5.021  -0.132 -0.2539 -1.0334 -0.8115
 1015MOL0     H33959   7.159   5.048  -0.099  1.7114 -2.2862 -0.5643
 1015MOL0     H33960   7.018   4.780  -0.101 -0.7131  1.1023 -0.7457
 1015MOL0     H33961   7.189   4.805  -0.059  0.5081  4.0317  0.8651
 1015MOL0     H33962   6.721   5.139   0.619 -0.4290  1.4628 -1.7252
 1015MOL0     H33963   6.490   5.178   0.670  1.6661 -1.2268 -0.5548
 1015MOL0     H33964   6.206   5.528   0.609  0.4707 -1.1613 -0.6958
 1015MOL0     H33965   5.978   5.561   0.536  3.4379  0.2692 -0.1527
 1015MOL0     H33966   6.123   4.662   0.495  2.1539  0.0781 -0.1064
 1015MOL0     H33967   6.319   4.622   0.362 -0.1443  0.0572  0.8686
 1015MOL0     H33968   6.637   4.300   0.180 -0.5384  0.6023 -0.2228
 1015MOL0     H33969   6.847   4.299   0.050 -0.7391  0.8154  1.2034
 1015MOL0     H33970   6.884   4.584  -0.280  0.5285 -1.9796  3.6516
 1015MOL0     H33971   6.813   4.448  -0.387  1.9393 -0.6765 -2.6980
 1015MOL0     H33972   7.025   4.370  -0.429 -1.6710 -2.1280  4.7083
 1015MOL0     H33973   7.042   4.549  -0.450  0.9369  0.7654  1.4956
 1015MOL0     H33974   7.132   4.543  -0.195 -1.6406 -1.8495 -0.1859
 1015MOL0     H33975   7.230   4.496  -0.335 -1.9974 -0.0717 -2.3504
 1015MOL0     H33976   7.103   4.329  -0.120 -0.9113  2.7515 -0.3992
 1015MOL0     H33977   7.160   4.245  -0.270 -0.0345  1.1885 -2.7682
 1015MOL0     H33978   7.522   4.317  -0.055 -0.0182  1.5358 -0.7956
 1015MOL0     H33979   6.621   4.515  -0.271 -2.6860 -0.2537 -0.4815
 1015MOL0     H33980   6.451   4.551  -0.122 -0.3832 -1.1463 -2.2699
 1016MOL0     O33981   3.359   0.852   1.267  0.8786 -0.0788  0.5332
 1016MOL0     C33982   3.305   0.790   1.356  0.1442  0.7893 -0.0393
 1016MOL0     O33983   3.369   0.753   1.476  0.5515 -1.2217  0.0199
 1016MOL0     C33984   3.495   0.798   1.488  0.0679 -0.0376  0.8401
 1016MOL0     C33985   3.509   0.922   1.567 -0.0048 -0.0924 -0.0935
 1016MOL0     C33986   3.636   0.982   1.591 -0.6336 -0.2863  1.1015
 1016MOL0     C33987   3.750   0.926   1.531  0.4995  1.3835  0.2599
 1016MOL0     O33988   3.873   0.973   1.559  0.0461 -0.4404  0.2158
 1016MOL0     C33989   3.923   1.031   1.442  0.5012  0.1418 -0.5789
 1016MOL0     C33990   4.036   1.118   1.493  0.0467  1.6351 -0.1283
 1016MOL0     C33991   4.101   1.197   1.383 -0.1746 -0.2329  0.2837
 1016MOL0     C33992   4.222   1.276   1.431 -0.4644 -0.3203 -0.3547
 1016MOL0     C33993   4.303   1.329   1.305  0.9418  0.0760  0.2238
 1016MOL0     C33994   4.421   1.402   1.346  0.3108  0.8816  0.0041
 1016MOL0     C33995   4.502   1.454   1.229  1.0338 -0.4045  0.1692
 1016MOL0     C33996   4.432   1.549   1.130 -0.0601 -0.3015  0.8849
 1016MOL0     N33997   4.524   1.591   1.030  0.6837  0.6328 -0.4378
 1016MOL0     C33998   4.565   1.536   0.916 -0.4681  0.4478 -0.1367
 1016MOL0     C33999   4.675   1.600   0.879 -0.3433 -0.7817  0.4689
 1016MOL0     C34000   4.764   1.551   0.767 -0.3869 -0.4373 -1.2603
 1016MOL0     C34001   4.907   1.577   0.814 -0.2185  0.0094  0.3507
 1016MOL0     C34002   5.016   1.547   0.712 -0.5225 -0.3782  0.5098
 1016MOL0     C34003   5.050   1.396   0.712 -0.3518  0.3481 -0.1255
 1016MOL0     O34004   5.171   1.354   0.644 -0.3402  0.3328  1.0448
 1016MOL0     C34005   5.297   1.359   0.708  0.1552  1.0122 -1.0052
 1016MOL0     C34006   5.321   1.438   0.824  0.1823  0.1541  0.2919
 1016MOL0     C34007   5.449   1.446   0.878  0.4022 -0.7048  0.1790
 1016MOL0     C34008   5.562   1.389   0.813  0.3286 -0.0302 -0.2873
 1016MOL0     C34009   5.699   1.415   0.858  0.1334 -0.2371 -0.5257
 1016MOL0     O34010   5.798   1.374   0.774 -0.4612 -0.2158  0.3365
 1016MOL0     C34011   5.926   1.382   0.823 -0.3715  0.9043 -0.7134
 1016MOL0     C34012   5.988   1.505   0.819  0.0461 -0.0252 -0.0693
 1016MOL0     C34013   6.122   1.513   0.864  1.0953  0.9334 -0.3808
 1016MOL0     C34014   6.190   1.407   0.899 -0.8545 -0.0642  0.4814
 1016MOL0     O34015   6.315   1.426   0.936  0.3627  0.5554 -0.5650
 1016MOL0     C34016   6.412   1.372   0.846  1.5786 -0.6378 -0.2669
 1016MOL0     C34017   6.528   1.466   0.850 -1.0648 -0.5669  0.8020
 1016MOL0     C34018   6.497   1.590   0.759 -0.6583 -0.1257 -0.3938
 1016MOL0     C34019   6.515   1.568   0.606  0.3695 -0.8812 -1.3111
 1016MOL0     C34020   6.478   1.703   0.550  0.2994  0.2520 -0.1852
 1016MOL0     C34021   6.522   1.712   0.412  0.3066  0.3462  0.0689
 1016MOL0     C34022   6.427   1.796   0.329 -0.1959 -0.0563  0.1569
 1016MOL0     C34023   6.483   1.789   0.186  0.0354  0.0468 -0.3754
 1016MOL0    Cl34024   6.643   1.880   0.160  0.1089  0.0872 -0.2091
 1016MOL0     C34025   6.123   1.280   0.911  1.0612 -0.2033  0.7940
 1016MOL0     C34026   5.991   1.272   0.873 -0.5641  0.0747 -0.3630
 1016MOL0     O34027   5.715   1.445   0.984  0.8254  0.6811  0.2549
 1016MOL0     C34028   5.531   1.287   0.717 -0.1360  0.1433 -0.5841
 1016MOL0     C34029   5.403   1.275   0.673  0.4097  0.0082 -0.4364
 1016MOL0     N34030   4.694   1.709   0.959 -0.7041 -0.5540  0.3847
 1016MOL0     N34031   4.617   1.688   1.056  0.3698  0.3332 -0.6992
 1016MOL0     C34032   3.731   0.809   1.453  0.2927  0.3527  0.7901
 1016MOL0     C34033   3.607   0.751   1.424  0.9721  0.0206  0.1531
 1016MOL0     C34034   3.182   0.728   1.305 -0.0242 -0.4081  0.7598
 1016MOL0     C34035   3.135   0.602   1.336 -0.1280 -0.0931 -0.9979
 1016MOL0     C34036   3.005   0.552   1.291 -1.2249  0.7853  0.6421
 1016MOL0     C34037   2.919   0.628   1.221 -0.2228  0.9163 -0.0541
 1016MOL0     O34038   2.805   0.571   1.176  1.0303 -0.2679 -0.3352
 1016MOL0     C34039   2.691   0.646   1.128  0.1018 -0.2038 -0.1536
 1016MOL0     C34040   2.597   0.677   1.246 -0.0612 -0.2587  0.4234
 1016MOL0     C34041   2.464   0.745   1.192 -0.5611  0.7122 -0.4532
 1016MOL0     C34042   2.342   0.697   1.276 -0.1238 -1.1905  0.3113
 1016MOL0     C34043   2.238   0.800   1.273  0.9360 -0.1005  0.0314
 1016MOL0     C34044   2.161   0.895   1.245  0.3413 -0.5155 -1.3109
 1016MOL0     C34045   2.958   0.760   1.187 -0.1511 -0.1315  0.5548
 1016MOL0     C34046   3.090   0.803   1.225 -0.1533  0.3754 -0.1095
 1016MOL0     H34047   3.421   0.954   1.622  0.6020  0.7813  0.3868
 1016MOL0     H34048   3.659   1.058   1.665 -2.1892 -0.4799  1.8233
 1016MOL0     H34049   3.859   1.103   1.389 -1.4972 -0.1519  1.3020
 1016MOL0     H34050   3.955   0.957   1.369  1.4355  0.7723 -0.8360
 1016MOL0     H34051   4.106   1.049   1.541 -1.3927 -1.4300 -2.1049
 1016MOL0     H34052   4.007   1.196   1.564  0.4035  0.8981  0.8503
 1016MOL0     H34053   4.029   1.258   1.327  1.1767  0.0361 -1.2467
 1016MOL0     H34054   4.131   1.128   1.303  1.1513 -2.7664  2.7811
 1016MOL0     H34055   4.185   1.358   1.493 -2.4049 -0.6578 -1.0094
 1016MOL0     H34056   4.292   1.214   1.489  0.5589 -0.6996 -1.9257
 1016MOL0     H34057   4.232   1.390   1.248  0.0624  0.0717  1.2827
 1016MOL0     H34058   4.334   1.248   1.238  1.0550  0.7494 -0.5553
 1016MOL0     H34059   4.487   1.335   1.403  0.8300  0.9298 -0.5198
 1016MOL0     H34060   4.395   1.479   1.419 -0.0266  0.6749  0.1044
 1016MOL0     H34061   4.585   1.512   1.269 -0.2958  1.2182  0.6840
 1016MOL0     H34062   4.542   1.366   1.176  0.5106 -0.4660 -0.1349
 1016MOL0     H34063   4.401   1.640   1.181  1.7798  0.7036  0.2994
 1016MOL0     H34064   4.349   1.504   1.074  1.0540 -1.6333  0.2178
 1016MOL0     H34065   4.527   1.448   0.866  1.9406  0.3526 -1.9874
 1016MOL0     H34066   4.731   1.600   0.675  0.6852  0.2413 -1.2960
 1016MOL0     H34067   4.755   1.442   0.759 -0.1800 -0.4458 -1.3595
 1016MOL0     H34068   4.927   1.525   0.908  0.5133 -0.9463 -0.3129
 1016MOL0     H34069   4.914   1.684   0.835 -1.6840  0.1430  0.2660
 1016MOL0     H34070   4.988   1.593   0.616 -1.7628  0.0962  1.0752
 1016MOL0     H34071   5.108   1.597   0.744 -1.2830  0.8975  0.8169
 1016MOL0     H34072   4.965   1.342   0.671  0.4041 -2.3822  1.6384
 1016MOL0     H34073   5.057   1.365   0.817  4.4886 -0.6709 -0.4843
 1016MOL0     H34074   5.236   1.489   0.866 -0.9217 -1.6984  0.4256
 1016MOL0     H34075   5.468   1.527   0.947 -0.6363  1.1085 -1.5859
 1016MOL0     H34076   5.932   1.595   0.794  0.6481  1.2515  2.7567
 1016MOL0     H34077   6.170   1.610   0.862  0.0394  1.4592 -0.5842
 1016MOL0     H34078   6.371   1.364   0.745 -1.5835  2.1608  0.6152
 1016MOL0     H34079   6.448   1.274   0.879 -0.0890 -1.6665 -1.3566
 1016MOL0     H34080   6.619   1.417   0.814  0.2807  1.5763  1.0931
 1016MOL0     H34081   6.557   1.494   0.952  2.1083  2.5109 -0.7536
 1016MOL0     H34082   6.574   1.665   0.776  1.9243 -2.0843 -2.5039
 1016MOL0     H34083   6.400   1.635   0.785  0.5184  1.8331  0.8815
 1016MOL0     H34084   6.613   1.544   0.565  1.0566  1.1471 -0.9491
 1016MOL0     H34085   6.449   1.486   0.576 -2.5699 -0.0942  2.3204
 1016MOL0     H34086   6.515   1.786   0.611  0.7832  0.1017 -0.2685
 1016MOL0     H34087   6.370   1.712   0.557  0.5303  2.0172  2.2761
 1016MOL0     H34088   6.540   1.613   0.370 -1.2627 -0.4450  1.1696
 1016MOL0     H34089   6.618   1.766   0.412 -1.7371  4.4971 -2.8821
 1016MOL0     H34090   6.324   1.760   0.318 -1.1346  1.7133  2.3696
 1016MOL0     H34091   6.422   1.901   0.360  0.6767  0.4570 -1.3279
 1016MOL0     H34092   6.408   1.831   0.118 -0.1851  2.6755  1.3510
 1016MOL0     H34093   6.508   1.686   0.159  2.5984  0.0297  1.7418
 1016MOL0     H34094   6.181   1.194   0.943  1.8091  0.3930  1.0793
 1016MOL0     H34095   5.932   1.182   0.887 -1.4325  0.2294 -2.7087
 1016MOL0     H34096   5.615   1.230   0.679  0.9569 -1.1865  3.3515
 1016MOL0     H34097   5.385   1.192   0.605 -0.7938 -0.7936  0.8021
 1016MOL0     H34098   3.814   0.763   1.400 -0.6065 -0.8328  0.3880
 1016MOL0     H34099   3.590   0.678   1.346  0.2682 -0.6391  0.9045
 1016MOL0     H34100   3.201   0.531   1.385 -1.0548  0.6998  1.5346
 1016MOL0     H34101   2.971   0.449   1.300  1.4800 -0.4271 -1.5048
 1016MOL0     H34102   2.635   0.591   1.052 -1.9638  2.0660 -0.3961
 1016MOL0     H34103   2.718   0.735   1.071  0.8217 -0.2211  0.1467
 1016MOL0     H34104   2.569   0.585   1.299 -4.1623 -0.1091 -1.1431
 1016MOL0     H34105   2.641   0.753   1.312 -0.2924  0.4472 -0.2234
 1016MOL0     H34106   2.454   0.723   1.086  0.8263 -1.4317 -0.2016
 1016MOL0     H34107   2.474   0.854   1.201  0.7279  0.5917 -0.2314
 1016MOL0     H34108   2.302   0.600   1.243  0.0720 -0.5957 -1.7557
 1016MOL0     H34109   2.367   0.683   1.382 -2.7667 -0.8144  1.0589
 1016MOL0     H34110   2.106   0.985   1.226  0.4336 -0.9457 -3.9882
 1016MOL0     H34111   2.887   0.825   1.138  1.5502  2.2165  1.0561
 1016MOL0     H34112   3.112   0.906   1.200 -3.1921  0.9152 -1.0381
 1017MOL0     O34113   9.046   7.298   8.841 -0.6314  0.4142 -0.2037
 1017MOL0     C34114   8.998   7.288   8.731  0.6124 -0.0633 -0.0814
 1017MOL0     O34115   9.063   7.242   8.626  0.2716  0.5005  0.0216
 1017MOL0     C34116   9.196   7.213   8.636  1.0136 -0.3561 -0.1792
 1017MOL0     C34117   9.246   7.107   8.714 -1.1529  0.0054 -0.5945
 1017MOL0     C34118   9.388   7.079   8.720 -0.2115  0.4722  0.4542
 1017MOL0     C34119   9.474   7.158   8.643 -0.6371 -0.1800 -1.3445
 1017MOL0     O34120   9.606   7.140   8.663 -0.2643  1.0328 -1.0520
 1017MOL0     C34121   9.711   7.233   8.654 -1.2696  0.3665  0.0910
 1017MOL0     C34122   9.840   7.196   8.722  0.5402 -0.6257 -0.2909
 1017MOL0     C34123   9.915   7.106   8.627  0.6610 -0.1237  0.0888
 1017MOL0     C34124  10.057   7.071   8.680  0.3589  0.5393 -0.5781
 1017MOL0     C34125  10.127   6.971   8.584 -0.1531 -0.3441  0.1085
 1017MOL0     C34126  10.154   7.029   8.442 -0.1180 -0.3422  0.3081
 1017MOL0     C34127  10.207   7.176   8.422 -0.0939  0.1623 -0.2645
 1017MOL0     C34128  10.336   7.198   8.508 -0.1941 -0.4788 -0.0191
 1017MOL0     N34129  10.454   7.143   8.453  0.0017 -0.6898 -0.4990
 1017MOL0     C34130  10.501   7.157   8.333  0.3895 -0.6221 -0.5789
 1017MOL0     C34131  10.601   7.073   8.306 -1.3945  0.4984 -0.3503
 1017MOL0     C34132  10.697   7.070   8.176  0.4167 -0.8930 -0.0860
 1017MOL0     C34133  10.786   7.195   8.156  0.8606 -0.2760 -0.0711
 1017MOL0     C34134  10.902   7.184   8.255  0.2610  0.3337 -0.7699
 1017MOL0     C34135  11.021   7.097   8.207  1.4158 -0.0029  0.0239
 1017MOL0     O34136  11.088   7.151   8.096 -0.4565  0.1580  0.7080
 1017MOL0     C34137  11.228   7.138   8.093 -0.7879  0.4852 -0.7734
 1017MOL0     C34138  11.297   7.025   8.144  1.1675  0.6588 -0.1051
 1017MOL0     C34139  11.439   7.028   8.141 -0.3774  0.7815 -0.0783
 1017MOL0     C34140  11.505   7.135   8.080 -0.8915  0.3398 -0.2613
 1017MOL0     C34141  11.654   7.147   8.083 -0.8107 -0.0527  0.8478
 1017MOL0     O34142  11.716   7.033   8.109  0.1359 -0.0119  0.1272
 1017MOL0     C34143  11.850   7.042   8.130  0.9776 -0.6422  0.0591
 1017MOL0     C34144  11.907   7.053   8.259 -0.0141 -0.1631 -0.3573
 1017MOL0     C34145  12.043   7.044   8.287  0.7157 -0.0384  0.4102
 1017MOL0     C34146  12.133   7.016   8.187 -0.0488 -0.1725 -0.5097
 1017MOL0     O34147  12.271   6.990   8.212  0.2275 -0.6410  0.8557
 1017MOL0     C34148  12.353   7.075   8.136 -0.8020 -1.1473  0.9041
 1017MOL0     C34149  12.482   7.105   8.211 -0.4399 -0.4095 -0.9044
 1017MOL0     C34150  12.607   7.014   8.190  0.2716  0.5746  0.0167
 1017MOL0     C34151  12.663   7.022   8.045 -0.0840  0.4790  0.8070
 1017MOL0     C34152  12.792   6.938   8.027 -0.2511  0.2868 -0.3366
 1017MOL0     C34153  12.850   6.951   7.886 -0.2389 -0.0191 -0.0349
 1017MOL0     C34154  13.009   6.986   7.892  0.7045 -0.5123  0.4523
 1017MOL0     C34155  13.070   7.031   7.763  0.7321  0.0908 -0.2124
 1017MOL0    Cl34156  13.246   7.082   7.769 -0.0385  0.5539 -0.0057
 1017MOL0     C34157  12.086   7.012   8.060  0.6631 -0.3758  0.4430
 1017MOL0     C34158  11.945   7.022   8.025 -0.1987 -0.3796 -0.0436
 1017MOL0     O34159  11.707   7.246   8.046 -1.1614 -0.1018 -0.3181
 1017MOL0     C34160  11.437   7.234   8.004 -0.9745 -0.0237  0.0449
 1017MOL0     C34161  11.298   7.226   8.014 -0.6303  0.4866 -0.4067
 1017MOL0     N34162  10.624   7.011   8.425 -0.5509  0.2469 -0.0250
 1017MOL0     N34163  10.543   7.061   8.511  0.0912 -0.2407 -0.0432
 1017MOL0     C34164   9.425   7.261   8.567 -0.1113 -0.6942  0.2090
 1017MOL0     C34165   9.289   7.294   8.564 -0.0247  0.4104  0.2759
 1017MOL0     C34166   8.849   7.302   8.711 -0.3343 -0.2277  0.1072
 1017MOL0     C34167   8.790   7.417   8.753  0.1560 -0.1374 -0.2092
 1017MOL0     C34168   8.652   7.432   8.722  0.6611  0.1756 -0.0278
 1017MOL0     C34169   8.571   7.334   8.659  0.3340 -0.9800 -0.8519
 1017MOL0     O34170   8.439   7.355   8.645  0.3477  0.3198  0.1844
 1017MOL0     C34171   8.352   7.248   8.607  0.0755  0.3334 -0.4230
 1017MOL0     C34172   8.221   7.310   8.576 -0.0069 -0.2332 -0.1935
 1017MOL0     C34173   8.096   7.213   8.585  0.6737 -0.3044 -0.1139
 1017MOL0     C34174   7.963   7.298   8.575 -0.0829 -0.4810 -0.7521
 1017MOL0     C34175   7.931   7.340   8.439 -0.6047 -0.4365  0.3885
 1017MOL0     C34176   7.910   7.373   8.320  0.1279 -0.2878  0.3138
 1017MOL0     C34177   8.633   7.214   8.621 -0.1907  0.2923 -0.7071
 1017MOL0     C34178   8.769   7.199   8.647  0.0243  0.1144 -0.2439
 1017MOL0     H34179   9.190   7.035   8.773  1.1341 -0.7710  0.7520
 1017MOL0     H34180   9.440   7.012   8.787 -2.0580 -1.7671 -0.2293
 1017MOL0     H34181   9.675   7.326   8.698  1.6602  1.2597  0.8488
 1017MOL0     H34182   9.732   7.249   8.548 -1.7836 -1.1496 -0.2689
 1017MOL0     H34183   9.824   7.160   8.824 -1.4680 -0.9491 -0.6859
 1017MOL0     H34184   9.898   7.286   8.746 -1.9282  0.3492  2.7271
 1017MOL0     H34185   9.920   7.157   8.531 -2.0497 -1.5120 -0.9001
 1017MOL0     H34186   9.862   7.013   8.605  2.2764 -0.3371 -3.6069
 1017MOL0     H34187  10.118   7.160   8.694 -0.5996  1.4652 -2.0563
 1017MOL0     H34188  10.036   7.027   8.778  0.0357  0.8015 -0.5265
 1017MOL0     H34189  10.057   6.890   8.561 -2.8759  0.3908  4.6006
 1017MOL0     H34190  10.217   6.935   8.635  0.6912  2.0465  0.4098
 1017MOL0     H34191  10.057   7.017   8.393  0.0953  2.4089 -0.9860
 1017MOL0     H34192  10.215   6.962   8.382 -0.2721  3.0053 -4.0950
 1017MOL0     H34193  10.226   7.195   8.316 -0.1404  0.9405 -0.1391
 1017MOL0     H34194  10.134   7.244   8.466 -0.7902 -0.2237 -0.7927
 1017MOL0     H34195  10.310   7.152   8.604  0.3967 -4.0337 -1.4035
 1017MOL0     H34196  10.355   7.305   8.520 -0.7330 -0.4608  0.7341
 1017MOL0     H34197  10.453   7.226   8.265 -0.3951 -0.7086 -0.1190
 1017MOL0     H34198  10.634   7.065   8.086  1.1381 -3.2745 -0.5256
 1017MOL0     H34199  10.759   6.981   8.187  3.0678  0.9897  1.4586
 1017MOL0     H34200  10.727   7.283   8.180  3.5794  0.9628  2.8386
 1017MOL0     H34201  10.835   7.201   8.058 -0.7480  1.1555 -0.8330
 1017MOL0     H34202  10.940   7.284   8.280 -2.4836  0.8353  2.0395
 1017MOL0     H34203  10.864   7.150   8.351  1.8665 -3.1240 -1.1908
 1017MOL0     H34204  10.989   6.998   8.172  2.9616 -0.5760  0.1787
 1017MOL0     H34205  11.081   7.090   8.297 -3.8666 -2.7499  3.8920
 1017MOL0     H34206  11.237   6.945   8.185  0.3601  1.3970  0.1852
 1017MOL0     H34207  11.494   6.954   8.198  0.0387  1.7834  0.8647
 1017MOL0     H34208  11.840   7.074   8.342 -0.3925  0.4900 -0.8208
 1017MOL0     H34209  12.078   7.054   8.389 -1.1851 -3.2527  1.5366
 1017MOL0     H34210  12.309   7.175   8.123  0.7641 -0.5464 -0.1548
 1017MOL0     H34211  12.371   7.029   8.038  2.0259  2.3545 -0.4345
 1017MOL0     H34212  12.480   7.118   8.319  1.6237  2.9350 -1.1286
 1017MOL0     H34213  12.501   7.206   8.174 -1.7012 -0.0437 -0.6040
 1017MOL0     H34214  12.581   6.908   8.203 -0.7937  0.6955 -0.9740
 1017MOL0     H34215  12.686   7.042   8.260 -1.5941  0.3318  2.3505
 1017MOL0     H34216  12.596   6.995   7.963  0.4933  2.0355 -0.2272
 1017MOL0     H34217  12.693   7.125   8.021  0.3816  0.2095  0.2074
 1017MOL0     H34218  12.762   6.833   8.040 -4.0150  1.4423  2.1230
 1017MOL0     H34219  12.873   6.953   8.100 -0.5131  0.7184 -0.1274
 1017MOL0     H34220  12.799   7.024   7.824 -0.4735 -0.0586  0.1128
 1017MOL0     H34221  12.839   6.849   7.846 -1.4553 -0.7272  1.9839
 1017MOL0     H34222  13.024   7.073   7.956  2.0398  0.5812 -1.2866
 1017MOL0     H34223  13.067   6.905   7.937  0.5356  0.8496  3.3618
 1017MOL0     H34224  13.009   7.113   7.723  0.2949 -0.9913 -1.8680
 1017MOL0     H34225  13.035   6.960   7.688  0.8485  0.0562 -0.2344
 1017MOL0     H34226  12.164   6.997   7.986  1.6925  3.1510  0.6470
 1017MOL0     H34227  11.908   6.987   7.929  0.6097 -2.8179  0.4562
 1017MOL0     H34228  11.487   7.313   7.948 -0.0932 -1.7258 -1.6578
 1017MOL0     H34229  11.234   7.298   7.964  0.2182  3.0333  1.9591
 1017MOL0     H34230   9.491   7.319   8.502 -0.5267 -1.8670 -1.3170
 1017MOL0     H34231   9.249   7.376   8.504 -3.2986  0.1185  1.8325
 1017MOL0     H34232   8.851   7.488   8.809  1.1174 -1.3023  0.2795
 1017MOL0     H34233   8.599   7.517   8.762 -1.7885 -1.2670 -0.0428
 1017MOL0     H34234   8.340   7.184   8.695  1.3781 -0.5189 -0.8407
 1017MOL0     H34235   8.389   7.186   8.526  2.2692  1.8417 -0.6444
 1017MOL0     H34236   8.208   7.389   8.650 -2.7188 -0.7747  0.0044
 1017MOL0     H34237   8.232   7.352   8.475  0.6549  0.8474  0.3079
 1017MOL0     H34238   8.090   7.146   8.671 -1.0568 -1.2623 -0.9325
 1017MOL0     H34239   8.100   7.140   8.503 -2.1444 -0.1204 -0.5255
 1017MOL0     H34240   7.885   7.232   8.613 -0.2260  0.6750  1.0924
 1017MOL0     H34241   7.972   7.380   8.648 -0.2791 -0.8000 -0.3665
 1017MOL0     H34242   7.903   7.395   8.215  2.0175 -1.6487 -0.1582
 1017MOL0     H34243   8.582   7.138   8.564 -1.5860  0.6777 -0.0125
 1017MOL0     H34244   8.826   7.111   8.623 -0.1422  0.0017 -0.2298
 1018MOL0     O34245   7.952   1.262   3.273 -0.0765  0.0242  0.4998
 1018MOL0     C34246   8.019   1.203   3.181  0.2078  0.5799  0.0701
 1018MOL0     O34247   7.966   1.117   3.089 -0.1688  0.6483  0.2912
 1018MOL0     C34248   7.831   1.079   3.077  0.2610  0.0343 -0.3682
 1018MOL0     C34249   7.809   0.974   2.981  0.3999 -0.7162  0.3610
 1018MOL0     C34250   7.673   0.942   2.932 -0.1287 -0.7960 -0.3991
 1018MOL0     C34251   7.559   1.015   2.984  0.1004  0.3903 -0.0605
 1018MOL0     O34252   7.435   0.981   2.939  0.0981  0.7107 -0.0072
 1018MOL0     C34253   7.401   0.879   2.846  0.4986 -0.4465  0.5137
 1018MOL0     C34254   7.259   0.922   2.799 -0.8555  0.5492  0.2714
 1018MOL0     C34255   7.164   0.913   2.919  0.4568  0.0162  0.6172
 1018MOL0     C34256   7.019   0.951   2.867  0.1685 -1.4805  0.3498
 1018MOL0     C34257   7.006   1.104   2.836  1.0509 -0.1123 -0.3964
 1018MOL0     C34258   6.874   1.143   2.774 -0.4073 -0.0202 -0.7364
 1018MOL0     C34259   6.843   1.295   2.771 -0.0122 -0.6914 -1.0235
 1018MOL0     C34260   6.699   1.312   2.748  0.4061  0.2881  0.7530
 1018MOL0     N34261   6.665   1.454   2.741 -0.6364  0.1534  0.3122
 1018MOL0     C34262   6.678   1.532   2.629 -0.0162 -0.3837 -0.1106
 1018MOL0     C34263   6.632   1.652   2.677 -0.3177  0.0057 -0.9350
 1018MOL0     C34264   6.610   1.780   2.598  0.5716 -0.2093  0.2118
 1018MOL0     C34265   6.693   1.898   2.654  0.4454  0.0242 -0.6031
 1018MOL0     C34266   6.836   1.871   2.634  0.5509  1.0606  0.1768
 1018MOL0     C34267   6.927   1.992   2.665 -0.0991 -0.8740 -0.2063
 1018MOL0     O34268   6.931   2.009   2.806  0.0258 -0.3106  0.3222
 1018MOL0     C34269   7.048   2.067   2.855 -0.6275 -0.7504 -0.2597
 1018MOL0     C34270   7.052   2.067   2.996 -0.3182  0.0300 -1.0530
 1018MOL0     C34271   7.164   2.110   3.068 -0.1465  0.5484  0.2873
 1018MOL0     C34272   7.289   2.131   3.005  0.1150 -0.1605 -0.1130
 1018MOL0     C34273   7.412   2.156   3.079  0.1329 -0.0042  0.2416
 1018MOL0     O34274   7.403   2.146   3.215 -0.5243  0.0638 -0.0088
 1018MOL0     C34275   7.526   2.172   3.269  0.9089 -0.4296 -0.0148
 1018MOL0     C34276   7.605   2.070   3.315 -0.6816  0.8111 -0.3853
 1018MOL0     C34277   7.728   2.093   3.386  1.1035  0.0162  0.9530
 1018MOL0     C34278   7.774   2.225   3.386  0.2304  0.0966  0.4569
 1018MOL0     O34279   7.886   2.250   3.457  0.4944 -0.1412  0.6545
 1018MOL0     C34280   7.999   2.160   3.452  0.2697  0.1031  0.1585
 1018MOL0     C34281   8.125   2.241   3.500  0.0462  0.4656 -0.3322
 1018MOL0     C34282   8.226   2.161   3.591 -0.0521 -0.4102  1.0664
 1018MOL0     C34283   8.350   2.249   3.618 -0.8607  0.1088  0.2762
 1018MOL0     C34284   8.460   2.176   3.696  0.2965  0.5129  0.1243
 1018MOL0     C34285   8.601   2.235   3.693 -0.7990  0.4702  0.6769
 1018MOL0     C34286   8.579   2.371   3.761 -0.2282 -0.7480 -0.6976
 1018MOL0     C34287   8.704   2.399   3.845 -0.0794 -0.1210  0.1046
 1018MOL0    Cl34288   8.843   2.417   3.733  0.3685 -0.3797 -0.2488
 1018MOL0     C34289   7.697   2.328   3.337 -0.1328 -0.0383  0.9932
 1018MOL0     C34290   7.566   2.309   3.288 -0.1940  0.1670 -0.6659
 1018MOL0     O34291   7.513   2.209   3.016  0.1844 -0.0205 -0.1234
 1018MOL0     C34292   7.281   2.135   2.859  0.1744  0.6761  0.2671
 1018MOL0     C34293   7.167   2.102   2.787  0.6931 -0.2117 -0.4184
 1018MOL0     N34294   6.584   1.637   2.808  0.0631 -0.9803 -0.4561
 1018MOL0     N34295   6.611   1.521   2.845  0.0837  0.5798 -0.4002
 1018MOL0     C34296   7.584   1.120   3.077 -0.0264 -0.3291 -0.8694
 1018MOL0     C34297   7.716   1.143   3.130 -0.2808  0.7272  0.7815
 1018MOL0     C34298   8.162   1.210   3.195  0.6968 -0.0138 -0.3909
 1018MOL0     C34299   8.246   1.117   3.132  0.1415 -1.0996  0.5037
 1018MOL0     C34300   8.380   1.126   3.143 -0.2442  0.0801  0.1267
 1018MOL0     C34301   8.443   1.224   3.213 -0.1163  0.8145  0.0670
 1018MOL0     O34302   8.581   1.243   3.225  0.1392  0.9669  0.1071
 1018MOL0     C34303   8.666   1.158   3.149  0.7849  1.0401 -0.7246
 1018MOL0     C34304   8.815   1.187   3.180 -0.6208 -0.2365  0.3639
 1018MOL0     C34305   8.866   1.120   3.305  0.3769  0.8579  0.3814
 1018MOL0     C34306   9.015   1.131   3.321  0.2454  0.8156  0.2533
 1018MOL0     C34307   9.051   1.087   3.451  0.1864 -0.0402  0.2560
 1018MOL0     C34308   9.082   1.061   3.562 -0.4924  0.2960  0.6460
 1018MOL0     C34309   8.365   1.317   3.278 -0.5342  0.4264 -0.1553
 1018MOL0     C34310   8.224   1.323   3.265  0.2097  0.0381 -0.5918
 1018MOL0     H34311   7.889   0.917   2.935 -0.8189 -2.6573  0.5223
 1018MOL0     H34312   7.678   0.862   2.859  0.2536 -0.9745 -0.1860
 1018MOL0     H34313   7.404   0.781   2.896 -0.6574  0.0823  1.6890
 1018MOL0     H34314   7.462   0.893   2.756  0.5744  2.8768  0.9515
 1018MOL0     H34315   7.237   0.866   2.708 -0.4649 -1.8440  1.5646
 1018MOL0     H34316   7.268   1.025   2.765 -0.9311  0.3968 -0.2136
 1018MOL0     H34317   7.182   0.985   2.999 -1.7879 -0.4740  1.6226
 1018MOL0     H34318   7.159   0.812   2.960  0.6956 -1.1904 -2.0962
 1018MOL0     H34319   6.990   0.886   2.784  0.9850 -1.9407  0.4096
 1018MOL0     H34320   6.949   0.921   2.946  0.7225 -2.9731  0.3102
 1018MOL0     H34321   7.076   1.144   2.762 -0.1878  3.4436  0.1475
 1018MOL0     H34322   7.014   1.160   2.930  0.0648  0.8966 -0.8978
 1018MOL0     H34323   6.794   1.086   2.823  1.5490 -0.8580  1.7414
 1018MOL0     H34324   6.883   1.111   2.670  2.8844 -0.8590 -0.2885
 1018MOL0     H34325   6.857   1.332   2.873 -0.5683 -0.3333 -1.0731
 1018MOL0     H34326   6.894   1.344   2.687 -3.8182  2.2439 -1.9023
 1018MOL0     H34327   6.640   1.252   2.818  2.2727 -0.1896  1.9707
 1018MOL0     H34328   6.678   1.261   2.653  4.4379  2.5169 -1.6181
 1018MOL0     H34329   6.692   1.501   2.526 -2.7336  0.6775 -0.8944
 1018MOL0     H34330   6.504   1.808   2.596  0.9113  1.1689  0.1916
 1018MOL0     H34331   6.638   1.774   2.493 -0.1605 -0.1420  0.0022
 1018MOL0     H34332   6.659   1.889   2.758 -0.9774  0.5479 -1.0106
 1018MOL0     H34333   6.658   1.991   2.611  1.4001 -0.1584 -1.8357
 1018MOL0     H34334   6.858   1.787   2.700 -3.5754  0.6219  1.3038
 1018MOL0     H34335   6.838   1.850   2.526 -3.7039 -1.7275  0.3879
 1018MOL0     H34336   6.890   2.082   2.615  0.1441 -1.7672 -2.0993
 1018MOL0     H34337   7.022   1.969   2.615  0.2159  2.1591 -1.2579
 1018MOL0     H34338   6.963   2.026   3.042 -0.7911  1.0792 -1.0070
 1018MOL0     H34339   7.163   2.101   3.177 -1.1875  0.4647  0.2786
 1018MOL0     H34340   7.585   1.965   3.296 -1.5655  1.1601 -1.4661
 1018MOL0     H34341   7.789   2.008   3.414 -0.4675 -1.4469  0.1135
 1018MOL0     H34342   8.020   2.131   3.349  0.4310 -1.7753  0.6963
 1018MOL0     H34343   7.972   2.076   3.517 -2.6350  0.0299 -0.9916
 1018MOL0     H34344   8.091   2.329   3.555  0.3425  0.4098 -0.0596
 1018MOL0     H34345   8.179   2.272   3.411  2.0305  0.3034  0.7645
 1018MOL0     H34346   8.250   2.079   3.523  0.4462  0.6312 -0.0445
 1018MOL0     H34347   8.171   2.125   3.679 -0.8636  1.6533  1.4724
 1018MOL0     H34348   8.382   2.288   3.521 -0.7754 -0.7592 -0.0507
 1018MOL0     H34349   8.316   2.340   3.669  2.6047  1.6003  0.1591
 1018MOL0     H34350   8.470   2.078   3.648  1.2614 -0.9811  3.1252
 1018MOL0     H34351   8.438   2.153   3.801  2.0211  0.3291  0.4799
 1018MOL0     H34352   8.631   2.248   3.589 -0.6336 -2.2623  0.3184
 1018MOL0     H34353   8.681   2.178   3.740  4.6269  6.0428 -0.5204
 1018MOL0     H34354   8.565   2.447   3.684 -1.1390  0.0501  0.2133
 1018MOL0     H34355   8.485   2.385   3.815 -1.2783 -1.3647 -2.2842
 1018MOL0     H34356   8.707   2.322   3.922  0.8773  0.7478  0.9613
 1018MOL0     H34357   8.685   2.494   3.896 -0.3025  0.9160 -1.8043
 1018MOL0     H34358   7.716   2.434   3.355 -0.8217  0.7601 -2.2449
 1018MOL0     H34359   7.496   2.388   3.260 -2.1933 -2.0100 -2.1970
 1018MOL0     H34360   7.368   2.158   2.798  0.1776  0.5846  0.2365
 1018MOL0     H34361   7.176   2.118   2.680  1.3524 -0.3047 -0.3819
 1018MOL0     H34362   7.502   1.184   3.109  1.0543 -0.3920  2.3724
 1018MOL0     H34363   7.730   1.228   3.197 -0.8648 -1.0769  3.3777
 1018MOL0     H34364   8.204   1.048   3.059  0.0400  0.4397 -0.9398
 1018MOL0     H34365   8.430   1.049   3.085 -0.4785 -0.1662  0.2503
 1018MOL0     H34366   8.633   1.149   3.045 -3.0239  0.9240  0.3370
 1018MOL0     H34367   8.657   1.055   3.185  3.8739  0.4728 -1.2841
 1018MOL0     H34368   8.873   1.154   3.094  1.7455 -1.4275  2.3108
 1018MOL0     H34369   8.822   1.296   3.185 -2.0212 -0.0222 -1.3397
 1018MOL0     H34370   8.846   1.013   3.309 -1.9737  1.2545  1.1611
 1018MOL0     H34371   8.815   1.180   3.381  0.6482  2.1994 -0.4552
 1018MOL0     H34372   9.066   1.082   3.238 -2.0172  3.0407 -2.6620
 1018MOL0     H34373   9.050   1.234   3.312  1.5735  0.1848 -3.2111
 1018MOL0     H34374   9.110   1.026   3.659 -0.6305 -2.1465 -0.1172
 1018MOL0     H34375   8.429   1.390   3.326  2.4769 -1.9719 -0.2241
 1018MOL0     H34376   8.171   1.407   3.308 -0.0897 -1.2661  1.7586
 1019MOL0     O34377   0.327   8.976  11.134  0.2725 -0.1530  0.0835
 1019MOL0     C34378   0.282   8.877  11.199 -0.5388  0.1085  0.5921
 1019MOL0     O34379   0.355   8.779  11.259 -0.3250  0.4837  0.4449
 1019MOL0     C34380   0.489   8.778  11.238 -0.1929 -0.0130  0.2533
 1019MOL0     C34381   0.542   8.745  11.114  0.1549 -0.6071 -0.4145
 1019MOL0     C34382   0.677   8.762  11.088  0.0494  0.5702  0.2625
 1019MOL0     C34383   0.770   8.793  11.184 -0.1768  0.0879 -0.2632
 1019MOL0     O34384   0.902   8.769  11.156  0.3065  0.7557 -0.6001
 1019MOL0     C34385   0.968   8.833  11.049  0.3518  0.0077 -0.1000
 1019MOL0     C34386   1.109   8.758  11.025  0.9727 -0.1877 -0.6722
 1019MOL0     C34387   1.190   8.827  10.919  0.5185 -0.1329 -0.0218
 1019MOL0     C34388   1.342   8.840  10.971 -0.6439 -0.1912 -0.5747
 1019MOL0     C34389   1.441   8.893  10.868  0.3030  0.1427  0.1495
 1019MOL0     C34390   1.585   8.883  10.927  0.1329 -0.2004 -0.7600
 1019MOL0     C34391   1.622   8.958  11.052  0.2048 -0.8226  0.4204
 1019MOL0     C34392   1.778   8.974  11.060  0.8054 -0.0471 -0.1701
 1019MOL0     N34393   1.806   9.087  11.160  0.0539 -0.1390 -0.1668
 1019MOL0     C34394   1.874   9.203  11.129 -0.7948  0.0639  0.7234
 1019MOL0     C34395   1.915   9.247  11.253  0.8619  0.1547  0.6545
 1019MOL0     C34396   1.998   9.364  11.292  0.1339 -1.4705 -0.0090
 1019MOL0     C34397   2.150   9.337  11.280  0.8894  0.6105 -0.1999
 1019MOL0     C34398   2.189   9.237  11.394  0.1518  0.3643 -0.4965
 1019MOL0     C34399   2.341   9.231  11.385  0.9484 -0.0085  1.0723
 1019MOL0     O34400   2.387   9.181  11.508 -0.6986 -0.9520  0.4240
 1019MOL0     C34401   2.521   9.149  11.523 -0.8921  0.7855  0.2930
 1019MOL0     C34402   2.564   9.113  11.653 -0.1229  0.1684  0.1660
 1019MOL0     C34403   2.698   9.082  11.678  0.0315  0.4084 -0.1416
 1019MOL0     C34404   2.794   9.077  11.576  0.3240  0.0953 -0.3549
 1019MOL0     C34405   2.937   9.039  11.597 -0.2273 -0.8253 -0.0868
 1019MOL0     O34406   3.001   9.080  11.697  1.2753 -0.4412 -1.2278
 1019MOL0     C34407   3.130   9.058  11.711 -0.2143 -0.5757 -1.0962
 1019MOL0     C34408   3.170   9.014  11.835 -1.3798 -0.3475 -0.0081
 1019MOL0     C34409   3.310   9.030  11.878  0.4922  0.0788 -0.3829
 1019MOL0     C34410   3.408   9.079  11.788 -0.3563  0.1867  1.0821
 1019MOL0     O34411   3.538   9.084  11.813 -0.7492 -0.5756 -0.4576
 1019MOL0     C34412   3.579   9.038  11.945 -0.3441  0.8270  0.2551
 1019MOL0     C34413   3.709   9.106  11.975 -0.9373 -0.6368  0.0194
 1019MOL0     C34414   3.847   9.044  11.923 -0.3554  0.2050  0.8122
 1019MOL0     C34415   3.969   9.139  11.966  0.0772 -0.5941 -0.1925
 1019MOL0     C34416   4.092   9.072  11.901  0.1609 -0.5690 -0.1031
 1019MOL0     C34417   4.216   9.148  11.931 -0.8957 -0.5546 -0.3964
 1019MOL0     C34418   4.231   9.259  11.833  0.3808 -0.1448  0.4973
 1019MOL0     C34419   4.362   9.325  11.845  0.0642  0.0150  0.8145
 1019MOL0    Cl34420   4.367   9.455  11.718 -0.0565  0.4709  0.0492
 1019MOL0     C34421   3.368   9.120  11.663  0.4104 -0.3513 -0.2354
 1019MOL0     C34422   3.229   9.112  11.623  0.1852 -0.1688 -0.4773
 1019MOL0     O34423   2.984   8.975  11.507 -0.3324  0.1134  0.0700
 1019MOL0     C34424   2.753   9.115  11.446  0.3210  0.9003  0.7304
 1019MOL0     C34425   2.623   9.146  11.422 -0.0457 -0.1640 -0.1934
 1019MOL0     N34426   1.856   9.165  11.345 -0.3266  1.4270  0.0164
 1019MOL0     N34427   1.793   9.070  11.288  0.4748  0.2460 -0.2838
 1019MOL0     C34428   0.725   8.826  11.311  0.5074 -0.3807 -0.1034
 1019MOL0     C34429   0.586   8.816  11.339  0.4355 -0.2376  0.9217
 1019MOL0     C34430   0.140   8.854  11.184  0.7593 -0.4724 -0.4192
 1019MOL0     C34431   0.050   8.962  11.156 -0.0769 -0.5677  0.5011
 1019MOL0     C34432  -0.079   8.930  11.137  0.4751  0.8620 -0.4695
 1019MOL0     C34433  -0.132   8.804  11.150  0.8519  0.0517 -0.6554
 1019MOL0     O34434  -0.267   8.794  11.134 -0.4678  0.2187 -0.3378
 1019MOL0     C34435  -0.304   8.779  11.002 -0.2059  0.1597  0.3246
 1019MOL0     C34436  -0.318   8.630  10.962  0.2376 -0.2051 -1.3236
 1019MOL0     C34437  -0.415   8.555  11.053  0.6889  0.5939  0.3807
 1019MOL0     C34438  -0.348   8.470  11.158  0.4939 -0.4166  0.0690
 1019MOL0     C34439  -0.316   8.337  11.106 -0.3815  0.9345 -0.8310
 1019MOL0     C34440  -0.295   8.234  11.049 -0.3098 -0.3593 -0.8892
 1019MOL0     C34441  -0.040   8.692  11.155 -0.0096 -0.0210  1.1418
 1019MOL0     C34442   0.088   8.727  11.187  0.5319  1.0603  0.7397
 1019MOL0     H34443   0.473   8.714  11.036 -1.1978  4.3433 -1.5731
 1019MOL0     H34444   0.712   8.740  10.988 -2.1800 -1.0605 -0.2211
 1019MOL0     H34445   0.991   8.939  11.063  1.1436 -0.1955  0.2095
 1019MOL0     H34446   0.922   8.824  10.951 -0.1818  2.9032 -0.2066
 1019MOL0     H34447   1.095   8.653  10.999  2.1580 -1.2960  2.5835
 1019MOL0     H34448   1.173   8.755  11.114 -0.5553  0.1262  0.4847
 1019MOL0     H34449   1.155   8.928  10.895  0.4736 -0.4091 -1.2176
 1019MOL0     H34450   1.176   8.775  10.823 -0.1615  0.7485 -0.4191
 1019MOL0     H34451   1.344   8.908  11.057 -1.1174 -2.1224  1.0421
 1019MOL0     H34452   1.387   8.749  11.011 -0.2621  0.7879  1.3450
 1019MOL0     H34453   1.415   8.998  10.851 -2.3577 -0.0850  2.2122
 1019MOL0     H34454   1.443   8.830  10.778  1.4568  0.3437  0.0233
 1019MOL0     H34455   1.661   8.914  10.854  0.3506 -0.6784 -0.7375
 1019MOL0     H34456   1.587   8.779  10.959  1.6553 -0.2039 -0.7935
 1019MOL0     H34457   1.570   9.054  11.046 -0.8600 -1.4305 -0.7727
 1019MOL0     H34458   1.591   8.917  11.148  0.3350  1.6091  1.5585
 1019MOL0     H34459   1.821   8.996  10.961  3.0961  0.6002  0.9007
 1019MOL0     H34460   1.826   8.878  11.081 -0.4308 -0.8562 -0.9106
 1019MOL0     H34461   1.884   9.254  11.034  1.0235 -1.7543 -0.1366
 1019MOL0     H34462   1.973   9.396  11.394 -0.8739  0.4209 -0.7958
 1019MOL0     H34463   1.965   9.452  11.236  2.5845  0.3120  1.1591
 1019MOL0     H34464   2.194   9.436  11.296 -1.3019  1.8528 -1.4628
 1019MOL0     H34465   2.189   9.295  11.187  0.5065 -1.7712  0.6366
 1019MOL0     H34466   2.150   9.268  11.491  3.3422  2.0150  0.3957
 1019MOL0     H34467   2.141   9.139  11.379  1.1649 -0.2697  0.2500
 1019MOL0     H34468   2.389   9.324  11.353 -1.8933  1.6086  1.2220
 1019MOL0     H34469   2.371   9.172  11.298  1.5983  2.2492 -0.3031
 1019MOL0     H34470   2.494   9.106  11.736 -0.9506  1.3362 -0.4005
 1019MOL0     H34471   2.733   9.049  11.775  0.3088  1.7029  0.2195
 1019MOL0     H34472   3.096   8.980  11.907 -0.6255 -0.8540  0.5461
 1019MOL0     H34473   3.337   8.991  11.975  3.3544  1.8673 -0.3526
 1019MOL0     H34474   3.587   8.930  11.931 -1.7019  0.9049 -1.3686
 1019MOL0     H34475   3.503   9.071  12.017 -1.8263  0.5407 -1.1360
 1019MOL0     H34476   3.716   9.099  12.084 -0.0505  1.8451  0.1868
 1019MOL0     H34477   3.693   9.212  11.954  0.0141 -0.3414  0.6824
 1019MOL0     H34478   3.840   9.026  11.815  1.1967  2.5335  0.2665
 1019MOL0     H34479   3.866   8.945  11.965 -3.0612  0.2759  2.4604
 1019MOL0     H34480   3.954   9.244  11.941 -1.7634 -0.9279 -0.6276
 1019MOL0     H34481   3.981   9.134  12.075  4.7005 -1.2215 -0.5199
 1019MOL0     H34482   4.071   9.079  11.794 -1.1645  1.3836  0.2431
 1019MOL0     H34483   4.104   8.966  11.926 -1.0277 -0.6500  0.1901
 1019MOL0     H34484   4.304   9.085  11.915  0.3515  0.4978  1.9002
 1019MOL0     H34485   4.221   9.185  12.034  1.9040  1.7246 -1.2154
 1019MOL0     H34486   4.221   9.216  11.733  1.7798  1.7230 -0.5124
 1019MOL0     H34487   4.153   9.333  11.853  0.9958  0.7048 -0.1503
 1019MOL0     H34488   4.450   9.260  11.835  1.8902  2.4730 -0.2796
 1019MOL0     H34489   4.366   9.372  11.944 -1.1575  0.9143  0.4620
 1019MOL0     H34490   3.435   9.167  11.592 -0.2464  0.3678 -0.3870
 1019MOL0     H34491   3.196   9.144  11.524 -2.9786  1.0792  0.8525
 1019MOL0     H34492   2.814   9.113  11.356 -0.9574 -0.5236 -0.1663
 1019MOL0     H34493   2.589   9.163  11.320 -1.0371 -2.7140 -0.3633
 1019MOL0     H34494   0.787   8.840  11.399 -1.7003 -2.9521  2.0472
 1019MOL0     H34495   0.531   8.826  11.432 -1.2925 -2.3063  0.1897
 1019MOL0     H34496   0.087   9.064  11.148  2.6229 -1.5825 -1.0377
 1019MOL0     H34497  -0.157   9.004  11.129 -2.1737 -1.5605  1.1509
 1019MOL0     H34498  -0.232   8.816  10.929  0.1352 -1.4930 -0.2235
 1019MOL0     H34499  -0.396   8.836  10.989  0.3274  1.5939  2.3941
 1019MOL0     H34500  -0.343   8.624  10.855 -0.1592 -2.4287 -1.1510
 1019MOL0     H34501  -0.224   8.574  10.968 -0.0287 -0.5842 -0.5963
 1019MOL0     H34502  -0.485   8.499  10.990 -2.1810  3.0485  1.1473
 1019MOL0     H34503  -0.469   8.626  11.116  2.2709  1.8730  0.3716
 1019MOL0     H34504  -0.256   8.522  11.187 -0.1429  2.4521 -2.4597
 1019MOL0     H34505  -0.409   8.453  11.246  2.2567 -0.9695  1.2414
 1019MOL0     H34506  -0.265   8.153  10.985  1.6978  1.1676 -1.9878
 1019MOL0     H34507  -0.062   8.585  11.154  3.9964 -1.0612 -1.7327
 1019MOL0     H34508   0.140   8.635  11.211  0.1225  0.8672  0.8925
 1020MOL0     O34509   6.937   0.934   9.122 -0.1229  0.6025 -0.2270
 1020MOL0     C34510   6.993   0.943   9.228 -0.1107  0.0111  0.0158
 1020MOL0     O34511   6.926   0.987   9.335 -0.6048  0.4450 -0.4125
 1020MOL0     C34512   6.814   1.060   9.329 -0.1232 -0.3170 -0.3501
 1020MOL0     C34513   6.705   1.012   9.400  0.0842  0.5864 -0.3437
 1020MOL0     C34514   6.588   1.070   9.407 -0.8662 -0.7123  0.1987
 1020MOL0     C34515   6.575   1.202   9.352  0.3183 -0.1532  0.6613
 1020MOL0     O34516   6.467   1.286   9.379  0.0310  0.0418 -0.5754
 1020MOL0     C34517   6.421   1.271   9.515  0.3159 -0.1134  0.3781
 1020MOL0     C34518   6.365   1.392   9.557  0.3886 -0.4607  0.5133
 1020MOL0     C34519   6.330   1.386   9.708 -0.5794 -0.0011 -0.1119
 1020MOL0     C34520   6.282   1.523   9.746 -0.3266 -0.4424 -0.3328
 1020MOL0     C34521   6.202   1.519   9.879 -0.9297  0.4781  0.2012
 1020MOL0     C34522   6.133   1.664   9.883  0.8418  0.1175 -0.2968
 1020MOL0     C34523   6.078   1.692  10.020 -0.2406 -1.8794 -0.7785
 1020MOL0     C34524   5.987   1.819  10.050 -0.6312 -0.3345  0.3716
 1020MOL0     N34525   5.866   1.804   9.956  0.2133  0.2774  0.4008
 1020MOL0     C34526   5.747   1.727   9.980 -0.8932 -0.1290  0.4522
 1020MOL0     C34527   5.670   1.779   9.883 -0.1989  0.2568 -0.6670
 1020MOL0     C34528   5.535   1.727   9.845  0.8214  0.0480  0.2071
 1020MOL0     C34529   5.421   1.756   9.947 -0.8297  0.2686  0.6850
 1020MOL0     C34530   5.284   1.705   9.899  0.6318  0.5600 -0.1786
 1020MOL0     C34531   5.170   1.752   9.986  0.5003  0.4190  0.0214
 1020MOL0     O34532   5.045   1.696   9.931 -1.2414 -0.0138 -0.6090
 1020MOL0     C34533   4.940   1.777   9.898 -0.7060 -0.2259  0.1956
 1020MOL0     C34534   4.845   1.718   9.819 -0.2652 -0.1781 -0.1513
 1020MOL0     C34535   4.732   1.780   9.775 -0.5770  0.0129 -0.6504
 1020MOL0     C34536   4.708   1.914   9.812 -0.0269 -0.1426 -0.4319
 1020MOL0     C34537   4.587   1.988   9.772 -0.5648 -0.1552  0.6286
 1020MOL0     O34538   4.531   2.067   9.866 -0.8743 -0.0167 -0.2080
 1020MOL0     C34539   4.400   2.104   9.854  0.1392  0.5478 -0.0705
 1020MOL0     C34540   4.353   2.220   9.918  0.5569 -0.0457 -0.6793
 1020MOL0     C34541   4.216   2.255   9.904  0.3407  0.1258  1.0025
 1020MOL0     C34542   4.128   2.175   9.834  0.3327  0.4411  0.6332
 1020MOL0     O34543   3.995   2.215   9.830 -0.6419 -0.1460 -0.5917
 1020MOL0     C34544   3.933   2.194   9.706 -0.4542 -0.4578  0.0118
 1020MOL0     C34545   3.984   2.280   9.587 -0.0198 -0.0799 -0.5198
 1020MOL0     C34546   4.036   2.422   9.629 -0.0701 -0.1308 -0.3337
 1020MOL0     C34547   3.938   2.513   9.711  0.5704  0.8034  0.9508
 1020MOL0     C34548   3.957   2.657   9.669 -0.5199 -1.0284  0.5551
 1020MOL0     C34549   4.099   2.706   9.688 -0.0262 -0.6711 -0.2119
 1020MOL0     C34550   4.136   2.857   9.667 -0.1780  0.3694 -0.1718
 1020MOL0     C34551   4.284   2.893   9.646 -0.5929  0.4175 -0.5763
 1020MOL0    Cl34552   4.288   3.061   9.582 -0.4120  0.1260 -0.4017
 1020MOL0     C34553   4.175   2.055   9.779 -0.1245  0.1144  0.0724
 1020MOL0     C34554   4.308   2.027   9.788 -0.0693 -0.3529  0.2909
 1020MOL0     O34555   4.549   1.965   9.656  0.3499 -0.5711  0.6861
 1020MOL0     C34556   4.797   1.977   9.910  1.1046  0.1311  0.4196
 1020MOL0     C34557   4.906   1.908   9.947 -0.2687 -1.2318  0.1353
 1020MOL0     N34558   5.733   1.885   9.813  1.1152  0.9880 -0.0773
 1020MOL0     N34559   5.848   1.891   9.859  0.9466  0.0237  0.1248
 1020MOL0     C34560   6.679   1.248   9.274  0.4245  0.3896  0.7054
 1020MOL0     C34561   6.798   1.181   9.257 -0.8015  0.6762 -0.1607
 1020MOL0     C34562   7.136   0.903   9.248  0.1597 -0.9730  0.0700
 1020MOL0     C34563   7.184   0.879   9.373  0.1364  0.2302 -0.4805
 1020MOL0     C34564   7.316   0.851   9.396  0.5984 -0.0968 -0.9038
 1020MOL0     C34565   7.404   0.832   9.288  0.0888 -0.0735  0.0163
 1020MOL0     O34566   7.530   0.792   9.317  0.7512 -0.3399  0.2463
 1020MOL0     C34567   7.617   0.895   9.251 -0.0143  0.1240  0.1337
 1020MOL0     C34568   7.726   0.923   9.354 -0.0809 -0.1225 -0.2901
 1020MOL0     C34569   7.822   0.794   9.369  0.4873 -1.0518  0.2484
 1020MOL0     C34570   7.946   0.811   9.452 -0.5786  0.4449 -0.9048
 1020MOL0     C34571   8.015   0.937   9.435  0.0485 -0.7820 -0.4612
 1020MOL0     C34572   8.094   1.028   9.439  0.1839 -0.3913 -0.0874
 1020MOL0     C34573   7.353   0.850   9.163  0.0157 -0.4703 -0.4438
 1020MOL0     C34574   7.225   0.890   9.141  0.0449  0.2520  0.5705
 1020MOL0     H34575   6.726   0.919   9.452 -0.9792  1.8846  2.5843
 1020MOL0     H34576   6.502   1.029   9.460 -2.2186 -1.1595 -2.2056
 1020MOL0     H34577   6.498   1.242   9.587 -1.8074  0.8847  3.2639
 1020MOL0     H34578   6.339   1.199   9.521  1.2329 -1.0917  1.8461
 1020MOL0     H34579   6.274   1.415   9.500 -0.3479  1.0049  2.2011
 1020MOL0     H34580   6.442   1.469   9.548 -1.4200  1.7590  2.4745
 1020MOL0     H34581   6.417   1.350   9.764 -1.1628 -1.8921 -0.3464
 1020MOL0     H34582   6.246   1.318   9.725  0.7504 -1.3773  1.2768
 1020MOL0     H34583   6.371   1.586   9.757  1.1808 -2.3395 -1.1557
 1020MOL0     H34584   6.222   1.572   9.669 -3.0493 -0.2863  1.7451
 1020MOL0     H34585   6.276   1.521   9.959  0.2491  0.3705 -0.8584
 1020MOL0     H34586   6.123   1.443   9.879 -1.7432  1.2778 -1.1213
 1020MOL0     H34587   6.042   1.651   9.824  0.8825 -2.1253  0.0497
 1020MOL0     H34588   6.195   1.749   9.855 -1.4539  1.6873 -0.8412
 1020MOL0     H34589   6.015   1.603  10.026 -2.2894 -0.5192 -1.0287
 1020MOL0     H34590   6.160   1.683  10.091  0.8886  0.9637 -1.5991
 1020MOL0     H34591   6.041   1.908  10.016  0.3988 -0.8098  0.7209
 1020MOL0     H34592   5.971   1.819  10.159  0.5000 -0.1903  0.5519
 1020MOL0     H34593   5.746   1.637  10.040  0.4760 -0.3634  0.1710
 1020MOL0     H34594   5.549   1.621   9.821 -1.2622  0.3479 -2.9814
 1020MOL0     H34595   5.503   1.774   9.752 -1.8165 -0.7879  0.6068
 1020MOL0     H34596   5.430   1.861   9.975  2.7400  0.5772 -1.1031
 1020MOL0     H34597   5.436   1.695  10.037  0.3400 -2.1565 -1.0382
 1020MOL0     H34598   5.280   1.732   9.793  3.1391  0.9115 -0.2460
 1020MOL0     H34599   5.289   1.595   9.897 -0.9742  0.4287 -3.2998
 1020MOL0     H34600   5.156   1.860   9.990  1.1029  0.4730  2.3373
 1020MOL0     H34601   5.187   1.724  10.091  0.0924  0.4943  0.1091
 1020MOL0     H34602   4.863   1.614   9.793  1.2272 -0.6369  2.4439
 1020MOL0     H34603   4.653   1.726   9.723 -1.4849 -0.4293  1.1134
 1020MOL0     H34604   4.428   2.283   9.964  0.8832 -1.7847  1.3338
 1020MOL0     H34605   4.182   2.351   9.941  0.7128  0.3836  0.6722
 1020MOL0     H34606   3.830   2.220   9.734 -0.3386  0.6139 -0.5138
 1020MOL0     H34607   3.925   2.088   9.681  0.2480 -0.3566 -0.6819
 1020MOL0     H34608   3.902   2.278   9.514 -1.8267 -0.3516  1.3967
 1020MOL0     H34609   4.068   2.227   9.541  2.0239  2.0693  0.5227
 1020MOL0     H34610   4.071   2.471   9.537 -0.3942 -0.3584 -0.5775
 1020MOL0     H34611   4.128   2.410   9.687  0.5982 -2.6121 -1.7816
 1020MOL0     H34612   3.835   2.478   9.700  0.8974  0.0186  0.2306
 1020MOL0     H34613   3.958   2.513   9.818 -0.7501 -3.1650  1.3700
 1020MOL0     H34614   3.887   2.723   9.719 -2.0295 -0.4507 -2.1137
 1020MOL0     H34615   3.920   2.663   9.566 -0.0558 -0.5972  0.4078
 1020MOL0     H34616   4.164   2.648   9.621 -0.7829 -1.9984  0.1772
 1020MOL0     H34617   4.113   2.680   9.793  5.0500  3.0629  0.4283
 1020MOL0     H34618   4.087   2.889   9.574  0.6594  1.3020 -0.3133
 1020MOL0     H34619   4.102   2.917   9.752 -0.0649  0.1373  0.0361
 1020MOL0     H34620   4.331   2.834   9.567  2.4828  2.7758 -0.6587
 1020MOL0     H34621   4.330   2.877   9.744 -1.2153 -3.4428 -0.7300
 1020MOL0     H34622   4.121   1.983   9.719  0.1001 -0.4689  0.5597
 1020MOL0     H34623   4.340   1.935   9.738 -0.1760 -0.2924  0.1104
 1020MOL0     H34624   4.773   2.073   9.956  1.9441 -0.0251  1.2106
 1020MOL0     H34625   4.963   1.961  10.023 -1.0520 -0.3951  0.1613
 1020MOL0     H34626   6.658   1.338   9.217 -2.2167  1.2278  2.7858
 1020MOL0     H34627   6.875   1.208   9.185 -0.9060  0.1987 -0.4537
 1020MOL0     H34628   7.104   0.885   9.446 -0.8728  0.4388 -1.5681
 1020MOL0     H34629   7.347   0.822   9.496 -2.1912 -0.0301  0.0619
 1020MOL0     H34630   7.574   0.991   9.223  0.6156  0.0848 -1.0228
 1020MOL0     H34631   7.654   0.850   9.159  0.8054 -1.0279  0.9869
 1020MOL0     H34632   7.787   1.003   9.310 -3.3389  3.5173  1.2739
 1020MOL0     H34633   7.702   0.954   9.456  1.1747 -1.2414  0.3669
 1020MOL0     H34634   7.860   0.764   9.270  4.6867  1.0003  1.0249
 1020MOL0     H34635   7.762   0.717   9.418  1.0701 -1.4959  0.2743
 1020MOL0     H34636   7.922   0.793   9.557 -3.8960  2.1421 -1.2342
 1020MOL0     H34637   8.010   0.727   9.421  1.1832  0.8851  1.2733
 1020MOL0     H34638   8.167   1.106   9.448  0.9902 -1.2706  1.4291
 1020MOL0     H34639   7.425   0.835   9.083  0.4304 -1.5836  0.1175
 1020MOL0     H34640   7.187   0.908   9.041 -0.0691  2.2692  0.9349
 1021MOL0     O34641  10.346   4.885   7.937 -0.5174 -0.0226  0.0071
 1021MOL0     C34642  10.341   4.997   7.883 -0.6842  0.2689  1.0737
 1021MOL0     O34643  10.305   5.113   7.942 -0.2904  0.2895  0.1660
 1021MOL0     C34644  10.254   5.107   8.063  0.8106 -0.3147  0.4934
 1021MOL0     C34645  10.131   5.046   8.101 -0.3038  0.1143 -0.0702
 1021MOL0     C34646  10.084   5.036   8.231  0.9646 -0.6491 -0.0480
 1021MOL0     C34647  10.161   5.098   8.339 -0.1463  0.2114 -0.9248
 1021MOL0     O34648  10.111   5.104   8.475  0.3594  1.2247  0.0813
 1021MOL0     C34649  10.095   4.978   8.541 -0.5671  0.1735  0.4944
 1021MOL0     C34650  10.029   5.012   8.670 -0.7342 -0.2557  0.3643
 1021MOL0     C34651   9.893   5.068   8.656  1.3095 -0.5588  0.6341
 1021MOL0     C34652   9.809   5.055   8.792 -0.8331 -0.0276 -0.2017
 1021MOL0     C34653   9.684   5.140   8.784 -0.0647 -1.2543 -0.2911
 1021MOL0     C34654   9.605   5.129   8.918  0.2635 -0.6420  0.6613
 1021MOL0     C34655   9.480   5.228   8.915  0.1109  0.0220 -0.0914
 1021MOL0     C34656   9.383   5.205   9.028 -1.0294 -0.2539 -0.5436
 1021MOL0     N34657   9.250   5.267   8.991 -0.3488 -0.4685 -0.2984
 1021MOL0     C34658   9.132   5.204   8.993 -1.8709  0.5934  0.9163
 1021MOL0     C34659   9.045   5.301   8.981 -0.7420  0.8022  0.2261
 1021MOL0     C34660   8.904   5.280   8.960 -0.8581 -0.5397  0.4335
 1021MOL0     C34661   8.802   5.348   9.053 -0.4606 -1.1083  0.2115
 1021MOL0     C34662   8.663   5.361   8.981 -0.9500 -0.1941  0.6483
 1021MOL0     C34663   8.648   5.478   8.891  0.1676  0.3286  0.4245
 1021MOL0     O34664   8.544   5.461   8.801  0.4076  0.5363  0.2182
 1021MOL0     C34665   8.420   5.462   8.846  1.3622 -0.2484 -0.1583
 1021MOL0     C34666   8.374   5.482   8.979  0.3189 -1.1293  0.8968
 1021MOL0     C34667   8.242   5.465   9.018 -0.0377  0.8694 -0.4666
 1021MOL0     C34668   8.146   5.404   8.931  0.1258  0.5793 -0.9392
 1021MOL0     C34669   8.024   5.349   8.984 -0.7949 -0.6556 -0.4190
 1021MOL0     O34670   8.003   5.363   9.113  0.0098  0.7117 -0.7234
 1021MOL0     C34671   7.881   5.328   9.163 -0.9257  0.2216  0.0152
 1021MOL0     C34672   7.853   5.201   9.204 -0.1656  0.2023  0.1959
 1021MOL0     C34673   7.725   5.173   9.243 -0.2629  0.9021 -0.3227
 1021MOL0     C34674   7.629   5.271   9.265  0.1350 -0.4910  0.3484
 1021MOL0     O34675   7.509   5.220   9.294  0.1677  0.4362  0.9033
 1021MOL0     C34676   7.394   5.311   9.277 -0.0439  0.6104 -0.2453
 1021MOL0     C34677   7.262   5.234   9.289  0.1935 -1.1534 -0.1821
 1021MOL0     C34678   7.144   5.323   9.256 -0.1687 -1.4186 -0.6075
 1021MOL0     C34679   7.025   5.267   9.202  0.3760  0.0279 -1.3260
 1021MOL0     C34680   6.900   5.347   9.200 -0.1212 -0.0391 -0.3128
 1021MOL0     C34681   6.832   5.367   9.345  0.2814  0.5372 -0.7541
 1021MOL0     C34682   6.775   5.234   9.407  0.3380  0.1188  0.2808
 1021MOL0     C34683   6.627   5.268   9.452  0.3463 -0.4642  0.4153
 1021MOL0    Cl34684   6.522   5.262   9.298 -0.4196 -0.3119 -0.0246
 1021MOL0     C34685   7.669   5.402   9.241 -0.5622  0.3121 -1.1890
 1021MOL0     C34686   7.797   5.434   9.194 -0.4572 -0.6948  0.0907
 1021MOL0     O34687   7.947   5.318   8.898  0.2790  0.6138 -0.4030
 1021MOL0     C34688   8.192   5.378   8.804 -0.6554  0.7981  0.2227
 1021MOL0     C34689   8.327   5.406   8.767 -0.5900 -0.1493 -0.4955
 1021MOL0     N34690   9.105   5.423   8.969 -0.2770  0.2685  0.2473
 1021MOL0     N34691   9.230   5.402   8.980  0.2847  0.2884  0.2891
 1021MOL0     C34692  10.276   5.161   8.303  0.3361  0.8019  0.1011
 1021MOL0     C34693  10.318   5.167   8.168 -0.2438 -0.2009  0.1599
 1021MOL0     C34694  10.372   5.012   7.737 -0.8181  0.5166 -0.2601
 1021MOL0     C34695  10.422   4.904   7.667  0.0362 -0.0020 -1.1636
 1021MOL0     C34696  10.441   4.909   7.532 -0.0983 -0.5132  0.0503
 1021MOL0     C34697  10.421   5.025   7.462  0.3472 -0.7148  0.3637
 1021MOL0     O34698  10.458   5.021   7.325 -0.2649 -0.0625 -1.2282
 1021MOL0     C34699  10.485   5.154   7.270 -0.1650 -0.0890  0.2584
 1021MOL0     C34700  10.476   5.140   7.118  0.3029  0.2989 -1.0109
 1021MOL0     C34701  10.333   5.122   7.073 -0.7335  0.1358 -0.2066
 1021MOL0     C34702  10.357   5.077   6.930  0.1800  0.4897  0.7435
 1021MOL0     C34703  10.241   5.103   6.843  0.1219 -0.2308 -0.4111
 1021MOL0     C34704  10.135   5.127   6.782  0.1707 -0.4252 -0.2041
 1021MOL0     C34705  10.363   5.134   7.527 -1.1492  0.0608 -0.3397
 1021MOL0     C34706  10.343   5.131   7.661  0.0995  0.0200 -1.0669
 1021MOL0     H34707  10.057   5.008   8.032 -0.2995  2.4717 -1.4713
 1021MOL0     H34708   9.994   4.980   8.250  0.2859  0.2454 -0.5443
 1021MOL0     H34709  10.188   4.921   8.555 -0.8758  0.0407  2.2892
 1021MOL0     H34710  10.022   4.918   8.487 -0.3083  1.1651 -1.0446
 1021MOL0     H34711  10.094   5.071   8.735  0.2000  1.6331 -2.1224
 1021MOL0     H34712  10.027   4.917   8.723  0.4125 -1.1603 -1.1283
 1021MOL0     H34713   9.839   5.035   8.567  0.5954  1.7771  0.1364
 1021MOL0     H34714   9.913   5.175   8.648 -0.4485 -0.1154  1.6206
 1021MOL0     H34715   9.781   4.950   8.809 -0.0629 -0.1932  0.0857
 1021MOL0     H34716   9.875   5.089   8.872  0.8490 -0.8900 -1.1562
 1021MOL0     H34717   9.624   5.115   8.696  0.4697  0.1517 -1.0961
 1021MOL0     H34718   9.724   5.241   8.764  0.4380 -1.9898 -3.6506
 1021MOL0     H34719   9.668   5.160   9.001 -1.1146  0.5086  1.3202
 1021MOL0     H34720   9.577   5.024   8.935  2.0352 -1.3938 -0.7419
 1021MOL0     H34721   9.513   5.332   8.906  0.9620 -0.0778  1.4475
 1021MOL0     H34722   9.435   5.204   8.818  0.3117 -1.0392  0.0668
 1021MOL0     H34723   9.419   5.262   9.113 -0.7416  2.0132 -2.1017
 1021MOL0     H34724   9.389   5.096   9.039  3.1358 -0.0305  1.2081
 1021MOL0     H34725   9.118   5.096   8.989  1.6395 -0.0238  1.9961
 1021MOL0     H34726   8.880   5.174   8.978 -1.3028 -1.2045 -3.3332
 1021MOL0     H34727   8.880   5.289   8.854 -1.7385  0.1628  0.6725
 1021MOL0     H34728   8.837   5.447   9.081  0.8144 -1.7518  1.0054
 1021MOL0     H34729   8.790   5.300   9.150 -3.4568 -0.5645  0.1962
 1021MOL0     H34730   8.641   5.271   8.922 -1.7631  1.1765 -1.2812
 1021MOL0     H34731   8.596   5.374   9.066 -0.8622  1.8033  0.4556
 1021MOL0     H34732   8.740   5.496   8.834 -0.8928  0.6873 -1.2266
 1021MOL0     H34733   8.636   5.569   8.950 -0.6637 -1.2758  2.8719
 1021MOL0     H34734   8.440   5.514   9.059  0.4865 -1.2465  0.8080
 1021MOL0     H34735   8.218   5.493   9.121 -0.5065 -2.3883  0.4292
 1021MOL0     H34736   7.922   5.117   9.198  0.4169  0.7518 -1.0608
 1021MOL0     H34737   7.685   5.073   9.260  2.3919 -0.1098  0.6425
 1021MOL0     H34738   7.403   5.356   9.178  0.2714  0.5697 -0.2348
 1021MOL0     H34739   7.402   5.388   9.354 -0.8371  0.6591 -0.1953
 1021MOL0     H34740   7.254   5.202   9.393 -0.9421 -1.1784 -0.2661
 1021MOL0     H34741   7.261   5.138   9.236 -0.9495 -1.8443  1.0453
 1021MOL0     H34742   7.183   5.402   9.192  2.0978  0.1005  2.3677
 1021MOL0     H34743   7.121   5.372   9.352  1.7024 -2.1112  0.2366
 1021MOL0     H34744   7.057   5.264   9.097  1.9441  1.2413 -0.9229
 1021MOL0     H34745   6.987   5.170   9.235 -1.2130  0.8570 -0.6550
 1021MOL0     H34746   6.824   5.290   9.147 -0.0443 -0.9714  0.5552
 1021MOL0     H34747   6.919   5.441   9.147  0.0019 -0.7118 -1.4924
 1021MOL0     H34748   6.756   5.443   9.324  0.5998  1.1301  0.1417
 1021MOL0     H34749   6.892   5.415   9.423  1.8933 -0.5568 -1.2738
 1021MOL0     H34750   6.782   5.141   9.350  1.7274  0.0165  0.5700
 1021MOL0     H34751   6.836   5.195   9.489 -0.2576 -0.2130  0.5717
 1021MOL0     H34752   6.623   5.368   9.496  1.9466  0.2249 -0.9054
 1021MOL0     H34753   6.576   5.196   9.517 -4.2082  2.3531  0.4259
 1021MOL0     H34754   7.595   5.475   9.273 -1.9354 -1.2602 -0.6605
 1021MOL0     H34755   7.819   5.537   9.171 -0.5075 -0.4233  1.1936
 1021MOL0     H34756   8.124   5.315   8.748 -1.5066  1.0378  0.9517
 1021MOL0     H34757   8.357   5.378   8.666 -1.8684 -1.2360 -0.5987
 1021MOL0     H34758  10.323   5.210   8.388 -4.1290 -0.8891  4.0507
 1021MOL0     H34759  10.410   5.223   8.150 -0.7998  1.4749  2.1383
 1021MOL0     H34760  10.454   4.811   7.713  0.7959  0.4249 -0.8019
 1021MOL0     H34761  10.487   4.825   7.480 -0.1295 -2.8902  3.5599
 1021MOL0     H34762  10.586   5.183   7.298  0.6830  0.2040 -2.7317
 1021MOL0     H34763  10.421   5.235   7.304  0.2880  0.1431  0.5617
 1021MOL0     H34764  10.517   5.234   7.080 -0.7714  0.3205 -2.1565
 1021MOL0     H34765  10.538   5.054   7.094  0.3230 -0.1646  0.5838
 1021MOL0     H34766  10.273   5.213   7.063 -1.3998 -0.4072 -1.3098
 1021MOL0     H34767  10.277   5.051   7.135 -2.5084  0.7671 -1.0038
 1021MOL0     H34768  10.444   5.128   6.887  0.3934 -0.4589  0.0076
 1021MOL0     H34769  10.381   4.971   6.934 -1.0155  0.2383  4.4764
 1021MOL0     H34770  10.039   5.134   6.734 -0.4624 -1.1233  0.9171
 1021MOL0     H34771  10.328   5.225   7.478 -0.4902  0.2598 -0.4462
 1021MOL0     H34772  10.289   5.199   7.727 -1.2885 -1.8653 -0.1434
 1022MOL0     O34773   6.627   0.006   2.037 -0.3334  0.4871 -0.3648
 1022MOL0     C34774   6.713  -0.028   1.953  0.3149 -0.2067  1.1318
 1022MOL0     O34775   6.691  -0.097   1.836 -0.3101  0.3437  0.3529
 1022MOL0     C34776   6.555  -0.122   1.804  0.6478  0.3504 -1.1239
 1022MOL0     C34777   6.443  -0.155   1.884 -0.2728 -0.0789  0.2924
 1022MOL0     C34778   6.315  -0.175   1.822  0.7270  0.7936 -0.6231
 1022MOL0     C34779   6.303  -0.177   1.683 -0.7965  0.6357  0.4530
 1022MOL0     O34780   6.184  -0.218   1.629 -0.3481  0.0190  1.1016
 1022MOL0     C34781   6.185  -0.281   1.500 -1.0303 -0.0521  0.4660
 1022MOL0     C34782   6.037  -0.271   1.438  0.3154 -0.0844 -0.2807
 1022MOL0     C34783   5.932  -0.354   1.498  0.5581 -0.2246  0.0849
 1022MOL0     C34784   5.809  -0.363   1.400 -0.1335 -0.8232 -0.6833
 1022MOL0     C34785   5.680  -0.408   1.469  0.4886  0.2602 -0.5325
 1022MOL0     C34786   5.610  -0.298   1.540 -0.4465  0.2086  0.6161
 1022MOL0     C34787   5.463  -0.341   1.569 -0.1037 -0.0608  0.6016
 1022MOL0     C34788   5.459  -0.419   1.697  0.1347  0.2485  0.0541
 1022MOL0     N34789   5.315  -0.437   1.743  0.7755 -0.2624 -0.1453
 1022MOL0     C34790   5.252  -0.344   1.819 -0.5099  0.0745 -0.9101
 1022MOL0     C34791   5.125  -0.377   1.818  0.2204 -0.1702 -0.0463
 1022MOL0     C34792   5.022  -0.299   1.882  0.4624 -0.1834  0.3273
 1022MOL0     C34793   4.907  -0.264   1.787 -0.1246 -0.6318 -0.7153
 1022MOL0     C34794   4.802  -0.173   1.859  0.3608 -0.0467  0.7873
 1022MOL0     C34795   4.669  -0.180   1.790  0.7082 -0.0980  0.2515
 1022MOL0     O34796   4.558  -0.115   1.848  0.2725  0.2918  0.0245
 1022MOL0     C34797   4.442  -0.098   1.779  0.9308 -0.2939 -0.5649
 1022MOL0     C34798   4.416  -0.135   1.643 -0.0024 -0.6198  0.7687
 1022MOL0     C34799   4.294  -0.102   1.588  0.4618  0.2739  0.0911
 1022MOL0     C34800   4.192  -0.052   1.665  0.0134 -0.4176  0.0738
 1022MOL0     C34801   4.054  -0.027   1.604 -0.0435 -0.4411 -0.5219
 1022MOL0     O34802   4.046  -0.023   1.464 -0.6837  0.0081 -0.2480
 1022MOL0     C34803   3.921  -0.053   1.399 -0.4571  0.4112  0.9708
 1022MOL0     C34804   3.783  -0.058   1.448 -0.1426  0.2962 -0.3414
 1022MOL0     C34805   3.678  -0.082   1.367 -0.3880 -0.1047  0.4037
 1022MOL0     C34806   3.691  -0.114   1.231  0.1907  0.4450 -0.1386
 1022MOL0     O34807   3.592  -0.177   1.157  0.3741  0.1703 -0.4068
 1022MOL0     C34808   3.468  -0.212   1.223 -0.4788 -0.5782 -0.2115
 1022MOL0     C34809   3.350  -0.229   1.127  0.2876 -0.2470  0.2131
 1022MOL0     C34810   3.378  -0.310   1.011 -0.0832  0.4208 -0.5890
 1022MOL0     C34811   3.354  -0.463   1.046 -0.4244  0.1901  0.5818
 1022MOL0     C34812   3.353  -0.537   0.910 -0.3945 -0.2232  0.6917
 1022MOL0     C34813   3.373  -0.686   0.934  0.0490  0.0391  0.4519
 1022MOL0     C34814   3.424  -0.761   0.807  0.3955 -0.5743  0.1907
 1022MOL0     C34815   3.473  -0.898   0.835 -0.6647  0.3051 -0.4887
 1022MOL0    Cl34816   3.335  -1.000   0.851 -0.0352 -0.0703 -0.4767
 1022MOL0     C34817   3.821  -0.114   1.179  0.0067 -0.7914  0.8961
 1022MOL0     C34818   3.935  -0.089   1.260  1.0119 -0.0372 -0.7303
 1022MOL0     O34819   3.958  -0.033   1.681  0.2814  0.4406  0.3409
 1022MOL0     C34820   4.210  -0.032   1.806  1.0196  0.3399  0.3046
 1022MOL0     C34821   4.333  -0.055   1.859 -0.0210 -0.2902  0.0745
 1022MOL0     N34822   5.103  -0.488   1.732  0.4149 -0.4595  0.4913
 1022MOL0     N34823   5.219  -0.518   1.693  0.4857  0.9348 -0.1039
 1022MOL0     C34824   6.419  -0.157   1.605  0.1967  0.1989  0.8463
 1022MOL0     C34825   6.538  -0.127   1.661  0.1875  0.6024  0.0538
 1022MOL0     C34826   6.848   0.008   1.981  0.0464 -0.6707 -0.4288
 1022MOL0     C34827   6.890   0.082   2.096  0.4905 -0.2459 -0.6871
 1022MOL0     C34828   7.020   0.108   2.114 -0.3159  0.1824 -0.6427
 1022MOL0     C34829   7.116   0.049   2.030  0.8478  0.0545 -0.0374
 1022MOL0     O34830   7.250   0.043   2.065 -0.3861 -0.1598  0.4420
 1022MOL0     C34831   7.345  -0.018   1.975  0.2340  0.2361  0.1012
 1022MOL0     C34832   7.491   0.022   2.021  0.3921  0.0800 -0.2809
 1022MOL0     C34833   7.588   0.024   1.916 -0.4300 -0.9019  0.5731
 1022MOL0     C34834   7.709   0.114   1.931  0.1373 -0.1054 -0.2901
 1022MOL0     C34835   7.837   0.109   1.854  0.0363 -0.6427  0.2034
 1022MOL0     C34836   7.937   0.118   1.790 -0.9931  0.3779 -1.1832
 1022MOL0     C34837   7.078  -0.023   1.920  0.5398  0.1653 -0.3144
 1022MOL0     C34838   6.945  -0.045   1.896 -0.6428 -1.0839  0.3456
 1022MOL0     H34839   6.456  -0.157   1.992 -1.1604  0.7566  0.4301
 1022MOL0     H34840   6.221  -0.177   1.876 -0.0476  2.0103 -1.8785
 1022MOL0     H34841   6.215  -0.386   1.502 -0.0314  0.2287  0.5675
 1022MOL0     H34842   6.257  -0.226   1.439  2.0226 -0.7808  3.1480
 1022MOL0     H34843   6.033  -0.287   1.330 -0.0275  0.8319 -0.4165
 1022MOL0     H34844   6.013  -0.164   1.444  0.4768 -0.0717  0.1723
 1022MOL0     H34845   5.898  -0.306   1.590  1.3626 -0.3330  0.4449
 1022MOL0     H34846   5.967  -0.454   1.526 -0.4853  0.1125  2.8413
 1022MOL0     H34847   5.811  -0.264   1.356  1.6394 -0.6377 -0.2851
 1022MOL0     H34848   5.817  -0.442   1.325 -1.8244 -2.3011  0.5956
 1022MOL0     H34849   5.706  -0.497   1.527 -0.5422 -0.9915 -1.8913
 1022MOL0     H34850   5.618  -0.448   1.388  1.4169  2.5984 -2.5377
 1022MOL0     H34851   5.609  -0.210   1.475  0.7497  0.4014  0.8354
 1022MOL0     H34852   5.672  -0.273   1.626 -0.2194 -0.6876  0.7286
 1022MOL0     H34853   5.404  -0.250   1.587 -1.9344 -1.1817  0.5529
 1022MOL0     H34854   5.426  -0.395   1.481  0.3165  1.1590 -0.3600
 1022MOL0     H34855   5.514  -0.370   1.778 -0.3341 -0.3421  0.7365
 1022MOL0     H34856   5.504  -0.517   1.682  0.5747  0.0402  2.3221
 1022MOL0     H34857   5.288  -0.255   1.869 -0.8174 -1.3003  1.9168
 1022MOL0     H34858   5.053  -0.207   1.932 -1.3114 -0.0010  1.1633
 1022MOL0     H34859   4.986  -0.367   1.959 -1.8874 -2.4081 -2.4987
 1022MOL0     H34860   4.867  -0.360   1.752 -0.1311 -1.2235  0.8396
 1022MOL0     H34861   4.955  -0.210   1.705  0.9499  0.5980  0.6763
 1022MOL0     H34862   4.779  -0.199   1.962  0.0228  0.0696  0.7437
 1022MOL0     H34863   4.833  -0.069   1.851  0.2591  0.0662  1.7579
 1022MOL0     H34864   4.639  -0.284   1.771  0.2315  0.5751 -3.2950
 1022MOL0     H34865   4.694  -0.149   1.689 -0.4578 -3.9521 -1.4123
 1022MOL0     H34866   4.500  -0.175   1.587  0.9824 -1.3262  2.6562
 1022MOL0     H34867   4.255  -0.112   1.487  0.0117  2.9622 -0.0910
 1022MOL0     H34868   3.770  -0.031   1.552  0.9035 -1.3564  0.2635
 1022MOL0     H34869   3.577  -0.084   1.406 -0.4410 -0.8763  0.2422
 1022MOL0     H34870   3.434  -0.140   1.298 -0.0262 -2.0138  1.4501
 1022MOL0     H34871   3.495  -0.304   1.276  0.1885  0.8522  2.0659
 1022MOL0     H34872   3.336  -0.128   1.087  1.0675  0.9518  2.7482
 1022MOL0     H34873   3.257  -0.258   1.177 -0.2415  2.1271  0.7474
 1022MOL0     H34874   3.477  -0.307   0.965  1.0855 -0.5226  1.7207
 1022MOL0     H34875   3.311  -0.294   0.926 -0.9537 -1.3590 -0.2954
 1022MOL0     H34876   3.418  -0.506   1.124 -1.0398  1.3632  1.7758
 1022MOL0     H34877   3.253  -0.471   1.086 -1.1181  1.2028 -0.9106
 1022MOL0     H34878   3.437  -0.501   0.849  1.1718  1.5981  3.7220
 1022MOL0     H34879   3.261  -0.508   0.859  0.5020  1.0226 -0.3137
 1022MOL0     H34880   3.285  -0.734   0.978  0.4758 -1.2918 -0.1022
 1022MOL0     H34881   3.455  -0.697   1.006  1.8783 -2.2385 -1.7978
 1022MOL0     H34882   3.341  -0.766   0.737  2.1421  1.2152 -2.1569
 1022MOL0     H34883   3.503  -0.704   0.758 -0.4705  2.1959  1.8474
 1022MOL0     H34884   3.531  -0.901   0.927 -1.9953 -1.0335  0.3601
 1022MOL0     H34885   3.525  -0.939   0.749 -0.3194  0.4481 -0.3482
 1022MOL0     H34886   3.840  -0.165   1.085  0.3389 -0.0819  0.5762
 1022MOL0     H34887   4.029  -0.114   1.212  1.9536  0.7477  0.6204
 1022MOL0     H34888   4.130  -0.010   1.876  2.6920 -0.1091  2.4747
 1022MOL0     H34889   4.352  -0.037   1.964  0.7400 -0.8471  0.0403
 1022MOL0     H34890   6.420  -0.171   1.497  0.5611  0.7275  0.7767
 1022MOL0     H34891   6.631  -0.111   1.607  1.8430 -0.1837  2.4916
 1022MOL0     H34892   6.831   0.122   2.178  1.6901 -0.4948  0.3250
 1022MOL0     H34893   7.041   0.175   2.196 -2.5033  1.2258 -0.8839
 1022MOL0     H34894   7.330   0.024   1.875  3.3790 -1.1061 -1.0462
 1022MOL0     H34895   7.333  -0.127   1.981 -0.6837  0.3788  1.1662
 1022MOL0     H34896   7.483   0.122   2.066 -1.9272 -0.4971  0.7030
 1022MOL0     H34897   7.524  -0.048   2.098  0.2758 -0.1955 -0.4794
 1022MOL0     H34898   7.547   0.055   1.820 -1.3098 -0.0617  1.2117
 1022MOL0     H34899   7.611  -0.082   1.902  0.5596 -0.7053  0.5910
 1022MOL0     H34900   7.684   0.220   1.921  1.4548  0.0194 -4.6485
 1022MOL0     H34901   7.747   0.080   2.027  1.1784 -0.3347 -0.7660
 1022MOL0     H34902   8.025   0.113   1.729 -0.0336 -0.1613  0.2127
 1022MOL0     H34903   7.141  -0.084   1.855  0.0802 -0.7116  0.0440
 1022MOL0     H34904   6.918  -0.100   1.807  1.0359  1.9498 -2.2400
 1023MOL0     O34905   8.718   7.386   6.113 -0.5624  0.5557  0.3315
 1023MOL0     C34906   8.717   7.344   6.226  0.0586  1.0082 -0.7309
 1023MOL0     O34907   8.823   7.280   6.292 -0.4577  0.2422  0.1036
 1023MOL0     C34908   8.956   7.275   6.240 -0.2578 -0.7689 -0.0392
 1023MOL0     C34909   9.032   7.181   6.306 -0.8951 -0.5662  0.2625
 1023MOL0     C34910   9.166   7.160   6.259  0.0487  0.3902 -0.0965
 1023MOL0     C34911   9.220   7.220   6.134 -0.4654 -0.2043 -0.7721
 1023MOL0     O34912   9.341   7.161   6.094  0.3719  0.2754 -1.0247
 1023MOL0     C34913   9.361   7.164   5.951  0.3181  0.5930 -0.9844
 1023MOL0     C34914   9.511   7.177   5.932 -0.1984  0.2790  0.3852
 1023MOL0     C34915   9.607   7.072   6.010  0.4234  0.2463  0.2445
 1023MOL0     C34916   9.667   6.959   5.931  0.6601 -0.0615 -0.5454
 1023MOL0     C34917   9.748   6.996   5.801 -0.2502  0.4258  0.2468
 1023MOL0     C34918   9.847   6.875   5.767  0.2191 -1.0532 -0.1117
 1023MOL0     C34919   9.932   6.907   5.645 -0.2536 -0.0469 -0.0687
 1023MOL0     C34920  10.047   6.808   5.624 -0.3328 -0.6233  0.2846
 1023MOL0     N34921  10.104   6.808   5.487  0.1731 -0.2504  0.5039
 1023MOL0     C34922  10.034   6.782   5.379  0.3185  0.6537  0.6029
 1023MOL0     C34923  10.120   6.791   5.274 -0.0835  0.8811 -0.0797
 1023MOL0     C34924  10.088   6.761   5.129  0.8432  0.2117 -0.0325
 1023MOL0     C34925  10.154   6.836   5.005 -0.8759 -1.0875 -0.6163
 1023MOL0     C34926  10.096   6.804   4.870 -0.2223  0.5299  0.6956
 1023MOL0     C34927   9.952   6.768   4.858  0.1487  0.3267  0.5387
 1023MOL0     O34928   9.862   6.844   4.935 -0.2799 -0.4185 -0.2599
 1023MOL0     C34929   9.727   6.828   4.926 -1.0703 -0.0557 -0.1158
 1023MOL0     C34930   9.665   6.744   4.841 -0.5028 -0.5086 -0.9727
 1023MOL0     C34931   9.527   6.742   4.826  1.1154  0.0452  0.3251
 1023MOL0     C34932   9.443   6.820   4.910 -0.3834 -0.8387 -0.1425
 1023MOL0     C34933   9.297   6.838   4.875  0.4181 -0.1794 -1.4924
 1023MOL0     O34934   9.250   6.781   4.761 -0.5729 -0.3081 -0.4144
 1023MOL0     C34935   9.114   6.790   4.730  0.2396 -0.8693 -0.2403
 1023MOL0     C34936   9.070   6.851   4.608  0.7110 -0.1580 -0.2608
 1023MOL0     C34937   8.932   6.854   4.575 -0.0805  0.3271  0.2349
 1023MOL0     C34938   8.829   6.819   4.669 -0.0769 -0.0419 -0.2621
 1023MOL0     O34939   8.693   6.811   4.628  0.5140  0.0373 -0.3821
 1023MOL0     C34940   8.602   6.773   4.738  0.9703  0.0010  0.4635
 1023MOL0     C34941   8.453   6.759   4.677 -1.1134  0.0226 -0.2094
 1023MOL0     C34942   8.359   6.711   4.777  0.7154  0.1237 -0.1635
 1023MOL0     C34943   8.225   6.692   4.698  0.0691  0.6429  0.3627
 1023MOL0     C34944   8.110   6.647   4.780 -0.4445  1.0571  0.3579
 1023MOL0     C34945   7.995   6.570   4.715  0.5942  0.9023  0.2078
 1023MOL0     C34946   7.865   6.576   4.804 -0.0511 -0.8708 -0.6107
 1023MOL0     C34947   7.782   6.693   4.764 -0.0503  0.7394  0.4903
 1023MOL0    Cl34948   7.710   6.713   4.598  0.2208 -0.4145 -0.2284
 1023MOL0     C34949   8.877   6.773   4.798  0.0038 -0.1134  0.4346
 1023MOL0     C34950   9.011   6.755   4.818 -0.8680 -1.4634 -0.2400
 1023MOL0     O34951   9.227   6.889   4.960 -0.3043 -0.1583 -0.7605
 1023MOL0     C34952   9.506   6.891   5.009 -0.0027  0.4116 -0.0489
 1023MOL0     C34953   9.641   6.895   5.021 -0.4752 -0.5059  0.4102
 1023MOL0     N34954  10.251   6.815   5.321 -0.1133  0.1977 -0.6920
 1023MOL0     N34955  10.226   6.842   5.448 -0.4654  0.4704 -0.2312
 1023MOL0     C34956   9.138   7.314   6.071 -0.3724 -0.1787 -0.7093
 1023MOL0     C34957   9.008   7.344   6.130  0.0629 -0.2403  1.0512
 1023MOL0     C34958   8.598   7.374   6.307 -0.4576  0.3519 -1.5066
 1023MOL0     C34959   8.579   7.322   6.433 -0.5159  0.0716 -0.5207
 1023MOL0     C34960   8.466   7.353   6.508 -0.0436 -0.0542 -0.7212
 1023MOL0     C34961   8.368   7.434   6.459 -0.0618  0.5116  0.5279
 1023MOL0     O34962   8.263   7.465   6.552  0.0673  0.3151  0.0145
 1023MOL0     C34963   8.202   7.593   6.526  0.1960 -1.1494 -0.4500
 1023MOL0     C34964   8.107   7.640   6.644 -0.1859 -1.0351  0.0900
 1023MOL0     C34965   8.024   7.767   6.605 -0.3779 -0.5512 -1.0678
 1023MOL0     C34966   7.912   7.750   6.501  0.2303  0.2286 -0.1003
 1023MOL0     C34967   7.811   7.651   6.544  0.5489 -1.2682  1.1382
 1023MOL0     C34968   7.714   7.588   6.571 -0.1358 -0.1748  0.7655
 1023MOL0     C34969   8.383   7.483   6.332 -1.0597 -0.5504  0.3441
 1023MOL0     C34970   8.494   7.448   6.251 -0.6358 -0.3782  0.1852
 1023MOL0     H34971   8.989   7.111   6.376 -2.0895 -0.9852 -0.8480
 1023MOL0     H34972   9.238   7.109   6.323  2.8109  4.3481  0.3199
 1023MOL0     H34973   9.317   7.251   5.900  2.9590  3.4096  1.1293
 1023MOL0     H34974   9.327   7.072   5.903  0.5552 -0.6024  1.0254
 1023MOL0     H34975   9.508   7.276   5.979  1.9111  1.4627 -1.7669
 1023MOL0     H34976   9.535   7.197   5.827 -0.0027 -0.7870  0.2143
 1023MOL0     H34977   9.553   7.023   6.090  0.0194  2.9857  1.7960
 1023MOL0     H34978   9.686   7.120   6.069 -0.6990 -0.9033  2.8378
 1023MOL0     H34979   9.728   6.902   6.002  1.7743  1.7501  0.0031
 1023MOL0     H34980   9.589   6.891   5.896  1.2431 -1.2871  0.4555
 1023MOL0     H34981   9.783   7.099   5.808 -1.9558  0.9297  2.9550
 1023MOL0     H34982   9.675   6.994   5.719 -0.9438  0.5048  0.8581
 1023MOL0     H34983   9.786   6.785   5.752  1.2740 -2.4535  3.1022
 1023MOL0     H34984   9.905   6.836   5.851 -1.3049  1.5843  2.3256
 1023MOL0     H34985   9.872   6.919   5.554  0.1827  1.6285 -0.1684
 1023MOL0     H34986   9.972   7.006   5.670 -0.9434 -0.2216  1.9341
 1023MOL0     H34987  10.011   6.705   5.637 -2.7064 -0.5029 -3.6054
 1023MOL0     H34988  10.124   6.821   5.700 -1.9821 -2.7252  2.4676
 1023MOL0     H34989   9.932   6.745   5.376  1.0443 -1.5435  1.1733
 1023MOL0     H34990   9.979   6.760   5.113  0.9543 -0.3318 -0.8247
 1023MOL0     H34991  10.114   6.655   5.123  1.9938  0.4045  1.0945
 1023MOL0     H34992  10.261   6.816   4.992 -0.4903  0.1680  0.4231
 1023MOL0     H34993  10.159   6.942   5.030  2.9681 -1.7763  2.6870
 1023MOL0     H34994  10.109   6.894   4.810 -0.1927  0.3371  0.4056
 1023MOL0     H34995  10.159   6.724   4.828 -1.6138 -0.4352  0.3747
 1023MOL0     H34996   9.938   6.667   4.898 -1.8908  1.3063  2.5528
 1023MOL0     H34997   9.928   6.780   4.752  0.7748  2.3389  0.5764
 1023MOL0     H34998   9.721   6.683   4.771 -1.2295 -0.4975 -1.5753
 1023MOL0     H34999   9.475   6.692   4.744 -1.6790 -0.2420  2.1174
 1023MOL0     H35000   9.153   6.877   4.544  1.8879 -1.8001  0.5230
 1023MOL0     H35001   8.896   6.880   4.476  2.2666 -0.5730 -0.9438
 1023MOL0     H35002   8.612   6.839   4.825  1.8437 -3.3633  3.1043
 1023MOL0     H35003   8.638   6.675   4.769 -1.1451 -0.0201  3.2527
 1023MOL0     H35004   8.465   6.689   4.594  0.2573 -1.7114  1.3470
 1023MOL0     H35005   8.430   6.858   4.637 -1.5672 -0.6516 -1.6955
 1023MOL0     H35006   8.351   6.785   4.857 -1.3965 -0.2204  0.0005
 1023MOL0     H35007   8.396   6.620   4.827 -2.7669 -0.9534  0.7241
 1023MOL0     H35008   8.189   6.783   4.649 -0.2462 -0.7920 -2.2922
 1023MOL0     H35009   8.221   6.619   4.616 -1.3617  0.2690  0.7442
 1023MOL0     H35010   8.057   6.725   4.835 -1.5148 -0.7783  2.0829
 1023MOL0     H35011   8.148   6.584   4.862  0.7567 -0.2347 -1.1275
 1023MOL0     H35012   8.030   6.467   4.711 -0.9154  0.3970 -0.6000
 1023MOL0     H35013   7.970   6.582   4.609 -1.1374 -1.3364  0.2988
 1023MOL0     H35014   7.797   6.490   4.797 -0.9458 -0.2379  0.1309
 1023MOL0     H35015   7.895   6.587   4.909  0.9441 -0.7713 -0.8967
 1023MOL0     H35016   7.837   6.787   4.775 -0.1500  0.7350  1.0574
 1023MOL0     H35017   7.693   6.690   4.828 -0.9012 -0.1550 -0.6977
 1023MOL0     H35018   8.815   6.750   4.884 -1.4883 -0.6506 -0.7479
 1023MOL0     H35019   9.040   6.702   4.908 -0.2187  2.6768  2.2452
 1023MOL0     H35020   9.460   6.939   5.095  1.2745  0.4424  0.6410
 1023MOL0     H35021   9.676   6.944   5.111 -1.3713  1.1146 -0.0830
 1023MOL0     H35022   9.177   7.381   5.995  3.2637 -0.2488  0.9005
 1023MOL0     H35023   8.950   7.424   6.085 -1.6504 -1.2358  1.3972
 1023MOL0     H35024   8.650   7.251   6.474  0.9945  1.4950 -0.5644
 1023MOL0     H35025   8.451   7.294   6.598  2.7530 -1.6016 -1.1568
 1023MOL0     H35026   8.126   7.578   6.449 -1.1066 -0.8740  0.7327
 1023MOL0     H35027   8.275   7.667   6.491 -0.4499 -1.5495 -2.8074
 1023MOL0     H35028   8.052   7.551   6.676  1.0495 -2.2113 -0.9499
 1023MOL0     H35029   8.170   7.674   6.728  0.5811 -0.7785 -0.5729
 1023MOL0     H35030   8.093   7.850   6.586 -0.3629 -0.2362  0.2884
 1023MOL0     H35031   7.970   7.795   6.696 -3.4261  3.8463 -3.7680
 1023MOL0     H35032   7.865   7.847   6.481 -1.4540 -0.9322 -2.1265
 1023MOL0     H35033   7.973   7.717   6.416  1.3989  0.8822  0.4614
 1023MOL0     H35034   7.630   7.523   6.589  1.5646 -3.1040 -1.0288
 1023MOL0     H35035   8.302   7.551   6.305  0.8446  0.6150 -3.0994
 1023MOL0     H35036   8.503   7.470   6.145  1.7443  1.3220  0.6572
 1024MOL0     O35037   3.408   2.298  10.850  0.5864 -0.5031 -0.0510
 1024MOL0     C35038   3.495   2.349  10.917 -0.4069  0.9248 -0.5289
 1024MOL0     O35039   3.471   2.455  10.998  0.6541 -0.6266 -0.7288
 1024MOL0     C35040   3.347   2.500  11.045  0.1826  0.2578 -0.0339
 1024MOL0     C35041   3.351   2.604  11.134  0.3078 -0.3341 -0.0203
 1024MOL0     C35042   3.234   2.665  11.178 -0.4678 -0.8047 -0.2354
 1024MOL0     C35043   3.110   2.616  11.143  0.8095 -0.1758  0.2726
 1024MOL0     O35044   2.994   2.680  11.172  0.1782 -0.3565 -0.0627
 1024MOL0     C35045   2.968   2.729  11.298 -0.7515  1.0858  0.2274
 1024MOL0     C35046   2.843   2.805  11.311 -0.2884  0.0029 -0.3936
 1024MOL0     C35047   2.725   2.704  11.297  0.1520  0.0837  0.6015
 1024MOL0     C35048   2.604   2.785  11.281 -0.4217 -0.1287  0.0497
 1024MOL0     C35049   2.494   2.697  11.241 -0.4605  0.8390  0.4484
 1024MOL0     C35050   2.366   2.770  11.257 -0.5596  0.2128  0.3511
 1024MOL0     C35051   2.248   2.679  11.215 -0.5998 -1.0979 -0.2401
 1024MOL0     C35052   2.232   2.563  11.305 -0.4440  0.2363 -0.0970
 1024MOL0     N35053   2.103   2.511  11.275  0.3408  0.4823  0.7582
 1024MOL0     C35054   2.043   2.464  11.155  0.0183 -0.5052 -0.2738
 1024MOL0     C35055   1.917   2.429  11.186  0.4985 -0.1198  0.2226
 1024MOL0     C35056   1.814   2.357  11.092 -0.6230 -0.5113 -0.1818
 1024MOL0     C35057   1.761   2.223  11.145 -0.7472  0.1114 -0.4888
 1024MOL0     C35058   1.640   2.193  11.067  0.2673  0.7005  0.0475
 1024MOL0     C35059   1.609   2.038  11.105 -0.5308 -0.1019 -0.3573
 1024MOL0     O35060   1.559   2.006  11.232  0.1224 -0.3551  0.3409
 1024MOL0     C35061   1.425   2.026  11.252 -0.2005  0.0217 -0.1454
 1024MOL0     C35062   1.331   2.093  11.178  0.4483  0.5444 -0.4687
 1024MOL0     C35063   1.193   2.100  11.223  0.6843  0.5381 -0.6361
 1024MOL0     C35064   1.154   2.032  11.344  0.0076  0.2086 -0.1219
 1024MOL0     C35065   1.016   2.049  11.395  0.7606  1.3570 -0.2777
 1024MOL0     O35066   0.995   2.001  11.524 -0.0931 -0.1915 -0.3723
 1024MOL0     C35067   0.883   2.007  11.597 -0.0893 -1.3444 -0.4681
 1024MOL0     C35068   0.900   1.935  11.720 -0.3834 -0.3631  0.3462
 1024MOL0     C35069   0.789   1.916  11.804 -0.0318 -0.1163 -0.6793
 1024MOL0     C35070   0.669   1.972  11.777 -0.5903 -0.5933 -0.0489
 1024MOL0     O35071   0.558   1.966  11.861 -0.1367 -0.2296  0.5806
 1024MOL0     C35072   0.508   1.834  11.880 -0.2829 -0.6337 -0.6537
 1024MOL0     C35073   0.400   1.849  11.983  0.1530 -0.1722 -0.4063
 1024MOL0     C35074   0.299   1.731  11.965  0.5135 -0.8977  0.4072
 1024MOL0     C35075   0.198   1.742  12.078  0.0757  0.4266 -0.7850
 1024MOL0     C35076   0.117   1.617  12.088  0.7988  0.8124 -0.4500
 1024MOL0     C35077  -0.009   1.632  12.184 -0.6093  0.9842  1.0690
 1024MOL0     C35078   0.045   1.661  12.327  0.0775  0.6870 -0.1763
 1024MOL0     C35079  -0.031   1.599  12.450  0.4629 -0.3083  0.2472
 1024MOL0    Cl35080  -0.203   1.659  12.433 -0.3183 -0.1681 -0.3259
 1024MOL0     C35081   0.656   2.048  11.664  0.4483 -0.5492 -0.6669
 1024MOL0     C35082   0.762   2.064  11.567  0.7620 -0.2990 -0.1723
 1024MOL0     O35083   0.938   2.117  11.334 -0.7363 -0.5646 -0.0082
 1024MOL0     C35084   1.248   1.961  11.410  0.2380 -0.0974  0.3026
 1024MOL0     C35085   1.373   1.959  11.365 -0.7847 -0.8117 -0.6887
 1024MOL0     N35086   1.888   2.464  11.315 -0.0331 -0.3191 -0.4990
 1024MOL0     N35087   2.001   2.504  11.365  0.4975 -0.0738  0.6269
 1024MOL0     C35088   3.105   2.496  11.072 -0.6607  0.5447  0.3608
 1024MOL0     C35089   3.226   2.441  11.015 -0.2818 -0.3429 -0.4202
 1024MOL0     C35090   3.636   2.312  10.889  0.3570  0.4362 -1.1625
 1024MOL0     C35091   3.745   2.372  10.959 -0.9230 -0.0639  0.8572
 1024MOL0     C35092   3.876   2.313  10.961 -0.0166 -0.5342  0.0673
 1024MOL0     C35093   3.909   2.193  10.895 -0.0900  0.1045 -0.0373
 1024MOL0     O35094   4.034   2.144  10.893 -0.6223 -0.3158 -0.7183
 1024MOL0     C35095   4.054   2.026  10.969 -0.0667  1.0060 -0.2485
 1024MOL0     C35096   4.094   2.048  11.119  0.3164 -0.1986  0.2969
 1024MOL0     C35097   4.226   2.113  11.136 -0.2335  0.6908 -0.6025
 1024MOL0     C35098   4.345   2.032  11.078  0.0374  0.6712  0.2827
 1024MOL0     C35099   4.340   1.891  11.105  0.4805  0.3847  0.6724
 1024MOL0     C35100   4.347   1.769  11.119 -0.3188  0.3226 -0.7660
 1024MOL0     C35101   3.797   2.127  10.846  0.4871  0.2606 -0.0927
 1024MOL0     C35102   3.666   2.184  10.833  0.3559 -0.0057  0.1854
 1024MOL0     H35103   3.449   2.652  11.139  2.3672 -3.5227 -3.8540
 1024MOL0     H35104   3.248   2.755  11.237  2.6246 -2.6234  2.1184
 1024MOL0     H35105   3.044   2.803  11.325  0.4626  0.2314 -0.7182
 1024MOL0     H35106   2.983   2.644  11.365 -0.0885 -1.4146 -2.8624
 1024MOL0     H35107   2.835   2.888  11.240 -2.9512 -0.2147 -0.4562
 1024MOL0     H35108   2.847   2.867  11.401 -1.8520  2.4542 -1.8781
 1024MOL0     H35109   2.726   2.639  11.385  2.1899  0.0685  0.6212
 1024MOL0     H35110   2.739   2.647  11.205 -1.0217 -0.4652  0.7497
 1024MOL0     H35111   2.586   2.846  11.370  0.2160 -0.1997  0.2339
 1024MOL0     H35112   2.615   2.854  11.197  2.1388 -1.7658 -1.0933
 1024MOL0     H35113   2.499   2.618  11.316  0.3593 -0.4928 -0.9637
 1024MOL0     H35114   2.508   2.644  11.147 -0.1566 -0.2982  1.1151
 1024MOL0     H35115   2.378   2.852  11.185  3.1258 -0.0563  0.4698
 1024MOL0     H35116   2.347   2.813  11.355 -3.3521 -0.7183  0.3188
 1024MOL0     H35117   2.153   2.733  11.223 -0.9905 -1.6488 -1.0853
 1024MOL0     H35118   2.268   2.653  11.111 -0.0808  1.8647 -0.9900
 1024MOL0     H35119   2.246   2.589  11.411  0.3910  1.0862 -0.4088
 1024MOL0     H35120   2.302   2.482  11.284 -2.4591 -1.4094 -0.8568
 1024MOL0     H35121   2.095   2.461  11.060  0.3021  0.6834 -0.1772
 1024MOL0     H35122   1.862   2.358  10.994  3.0985  0.3879  1.4969
 1024MOL0     H35123   1.730   2.428  11.089  0.9392  1.4228 -0.2796
 1024MOL0     H35124   1.729   2.233  11.249 -0.2368 -1.0448 -0.2025
 1024MOL0     H35125   1.839   2.150  11.123  0.0653  1.5203 -2.5653
 1024MOL0     H35126   1.553   2.251  11.098 -0.3054 -0.5156  0.7925
 1024MOL0     H35127   1.663   2.206  10.961  5.7900  0.4542  0.8987
 1024MOL0     H35128   1.692   1.973  11.075 -1.5368 -0.2399 -3.2215
 1024MOL0     H35129   1.539   2.004  11.028  0.5797 -0.8211 -1.0844
 1024MOL0     H35130   1.363   2.155  11.095  5.8023  2.3709  2.5076
 1024MOL0     H35131   1.112   2.151  11.171 -1.3968  0.2583  2.0837
 1024MOL0     H35132   0.987   1.876  11.748 -1.8725 -1.2063  3.5444
 1024MOL0     H35133   0.799   1.859  11.896  3.1399  0.0783 -0.7809
 1024MOL0     H35134   0.584   1.772  11.928 -2.6115 -1.9862  1.5145
 1024MOL0     H35135   0.475   1.785  11.788  2.9963  0.2459 -2.4712
 1024MOL0     H35136   0.353   1.948  11.983 -0.3446 -0.4061 -0.2513
 1024MOL0     H35137   0.448   1.839  12.081 -3.3129  0.2055  1.4648
 1024MOL0     H35138   0.343   1.630  11.968  0.2585 -1.0323 -0.1823
 1024MOL0     H35139   0.251   1.734  11.867  0.1638 -1.8328  0.5393
 1024MOL0     H35140   0.260   1.747  12.168  0.7136 -0.0273 -1.1882
 1024MOL0     H35141   0.143   1.836  12.070 -1.0614 -0.0513  0.9229
 1024MOL0     H35142   0.165   1.527  12.127 -2.8331 -1.2173 -0.1894
 1024MOL0     H35143   0.077   1.599  11.988  2.1550  1.2081 -1.0846
 1024MOL0     H35144  -0.059   1.535  12.184  0.3418  0.3514 -2.1899
 1024MOL0     H35145  -0.075   1.711  12.148 -0.6369  0.2563 -0.5864
 1024MOL0     H35146   0.146   1.620  12.339 -1.3339 -2.8205  0.7796
 1024MOL0     H35147   0.049   1.770  12.332 -0.2075  0.7087 -0.4065
 1024MOL0     H35148   0.021   1.618  12.545  2.1454 -2.7988 -0.0523
 1024MOL0     H35149  -0.027   1.491  12.434  3.1773  0.0947 -2.7730
 1024MOL0     H35150   0.558   2.088  11.642  0.2181 -1.3742 -1.1788
 1024MOL0     H35151   0.736   2.119  11.478  0.3532 -0.5606 -0.2179
 1024MOL0     H35152   1.228   1.905  11.501 -2.7491 -1.6494 -1.1733
 1024MOL0     H35153   1.448   1.910  11.427  0.1102  3.5173  2.1138
 1024MOL0     H35154   3.016   2.441  11.042  0.6321 -1.3437 -0.1685
 1024MOL0     H35155   3.224   2.347  10.960  1.9504 -0.0715 -1.0610
 1024MOL0     H35156   3.745   2.459  11.023  2.5941  0.1523  0.7694
 1024MOL0     H35157   3.949   2.370  11.018  0.0409 -1.2911  0.7591
 1024MOL0     H35158   4.139   1.969  10.930 -0.0955 -0.8355  2.1246
 1024MOL0     H35159   3.965   1.961  10.968  1.4968 -1.2924 -1.7559
 1024MOL0     H35160   4.006   2.100  11.158  1.0645 -0.1483  1.9985
 1024MOL0     H35161   4.094   1.960  11.184  0.1221  1.3392  2.4902
 1024MOL0     H35162   4.251   2.124  11.242 -0.5077 -1.3579 -0.2782
 1024MOL0     H35163   4.224   2.211  11.087  3.1964  0.4632 -1.4712
 1024MOL0     H35164   4.358   2.037  10.970 -0.6551 -1.0001  0.0945
 1024MOL0     H35165   4.434   2.073  11.127  0.1289  0.5156  0.2486
 1024MOL0     H35166   4.328   1.663  11.113 -0.6573  0.2673  0.8097
 1024MOL0     H35167   3.811   2.028  10.804 -0.0174  0.9498 -1.9522
 1024MOL0     H35168   3.585   2.123  10.794 -0.2052 -0.6650  2.2802
  11.34465  11.34465  11.34465
